Title
42785
    1SAPS     N    1   3.426   3.724   7.039  0.3407  0.0547 -0.3739
    1SAPS   HN1    2   3.354   3.668   6.988  3.2439 -3.1644 -1.2672
    1SAPS   HN2    3   3.461   3.662   7.115  2.2779  2.3344  0.7141
    1SAPS   HN3    4   3.386   3.811   7.081 -0.3562 -1.1148  1.5002
    1SAPS   C12    5   3.543   3.754   6.943  0.2188 -0.0792  0.1295
    1SAPS  H12A    6   3.632   3.792   6.992  1.2517 -1.4432 -0.6320
    1SAPS   C13    7   3.580   3.632   6.856  0.8082 -0.7212  0.2919
    1SAPS  O13A    8   3.535   3.519   6.886  0.3605  0.2782 -0.1175
    1SAPS  O13B    9   3.677   3.649   6.776 -0.1381  0.1289 -0.2349
    1SAPS   C11   10   3.493   3.861   6.837  0.4804 -0.0964 -0.1154
    1SAPS  H11A   11   3.408   3.818   6.781  1.7170 -0.0839 -2.1064
    1SAPS  H11B   12   3.572   3.895   6.766  0.1404  1.6769  0.3149
    1SAPS     P   13   3.372   4.087   6.811  0.0922 -0.2019  0.0851
    1SAPS   O13   14   3.229   4.069   6.826  0.8779 -0.1588  0.7196
    1SAPS   O14   15   3.426   4.225   6.834 -0.5055 -0.1347 -0.8341
    1SAPS   O12   16   3.452   3.982   6.906 -0.1432  0.2121  0.2931
    1SAPS   O11   17   3.412   4.057   6.659 -0.1151  0.3783  0.2882
    1SAPS    C1   18   3.502   4.152   6.593  0.8623  0.9324 -1.0635
    1SAPS    HA   19   3.447   4.241   6.557 -1.1752  0.3990  0.5025
    1SAPS    HB   20   3.579   4.191   6.664 -0.9796  1.2370  0.8711
    1SAPS    C2   21   3.573   4.095   6.471  0.5978 -0.0717  0.3876
    1SAPS    HS   22   3.622   4.183   6.424 -1.4327  0.1983 -1.3622
    1SAPS   O21   23   3.475   4.037   6.381  0.1070  0.1008  0.3203
    1SAPS   C21   24   3.414   4.119   6.303  1.2403 -0.3241  0.5904
    1SAPS   O22   25   3.434   4.239   6.292  0.3107 -0.3578  0.9013
    1SAPS   C22   26   3.313   4.047   6.210  0.8116  0.0341 -0.8062
    1SAPS   H2R   27   3.339   3.939   6.213 -1.7021 -0.6194 -0.9506
    1SAPS   H2S   28   3.219   4.075   6.263  0.3478  0.9277 -2.0686
    1SAPS    C3   29   3.674   3.987   6.495  0.0663  0.4926 -0.7030
    1SAPS    HX   30   3.618   3.895   6.523  1.9247 -0.2377  0.8204
    1SAPS    HY   31   3.745   4.022   6.573  0.1004  0.3266 -0.6600
    1SAPS   O31   32   3.756   3.970   6.378 -0.7173  0.4299  0.1875
    1SAPS   C31   33   3.803   3.849   6.349  0.5005  0.1702 -0.2130
    1SAPS   O32   34   3.783   3.748   6.412 -0.2555 -0.0479  0.5968
    1SAPS   C32   35   3.887   3.866   6.223  0.4335 -0.0094 -0.3312
    1SAPS   H2X   36   3.947   3.774   6.209  3.1905  1.9132 -2.0205
    1SAPS   H2Y   37   3.951   3.957   6.233 -1.0873  1.2398 -1.5537
    1SAPS   C23   38   3.315   4.098   6.069 -0.8701  0.7228  0.0664
    1SAPS   H3R   39   3.281   4.204   6.068 -2.3666  0.2803  0.1872
    1SAPS   H3S   40   3.247   4.029   6.014  0.5584 -0.5235 -0.1892
    1SAPS   C24   41   3.446   4.068   5.990  0.3920 -0.1469 -0.4397
    1SAPS   H4R   42   3.433   4.035   5.885  0.2326  1.2774 -0.8962
    1SAPS   H4S   43   3.493   3.985   6.048 -0.2612 -0.7414 -0.7577
    1SAPS   C25   44   3.541   4.190   6.000  0.0435  0.9646 -0.1334
    1SAPS   H5R   45   3.573   4.219   6.101  1.2883  0.4863 -0.3755
    1SAPS   C26   46   3.596   4.242   5.894 -0.1610  1.4880  0.0626
    1SAPS   H6R   47   3.654   4.335   5.906 -1.8874  2.4805  1.1408
    1SAPS   C27   48   3.563   4.208   5.749  0.0550  0.3100  0.0479
    1SAPS   H7R   49   3.470   4.265   5.728 -1.3124  0.1398  4.6776
    1SAPS   H7S   50   3.544   4.101   5.725 -1.1182  1.1312 -3.1974
    1SAPS   C28   51   3.670   4.243   5.639  0.5130 -0.0726  0.1564
    1SAPS   H8R   52   3.774   4.255   5.673  0.3211 -1.1399  1.2046
    1SAPS   C29   53   3.648   4.271   5.504 -0.1254  0.3356  0.0313
    1SAPS   H9R   54   3.729   4.299   5.435 -1.0485  2.5764 -0.2208
    1SAPS  C210   55   3.516   4.267   5.435 -0.2070 -0.3759  0.1735
    1SAPS  H10R   56   3.439   4.236   5.509 -0.6071 -0.8330 -0.4232
    1SAPS  H10S   57   3.520   4.183   5.363 -2.4822 -1.0117  0.6958
    1SAPS  C211   58   3.459   4.382   5.357  0.3247 -0.1534 -0.1254
    1SAPS  H11R   59   3.491   4.482   5.391  0.0392  0.3313 -1.2483
    1SAPS  C212   60   3.360   4.371   5.264 -0.0019  0.3951 -0.0418
    1SAPS  H12R   61   3.323   4.456   5.204 -0.2116 -0.8330 -1.7230
    1SAPS  C213   62   3.305   4.237   5.219 -0.1295 -0.6567  0.2807
    1SAPS  H13R   63   3.355   4.152   5.270  0.0867 -0.5456  0.2534
    1SAPS  H13S   64   3.325   4.221   5.110 -1.4999  0.7017 -0.2126
    1SAPS  C214   65   3.162   4.218   5.245  0.1686 -0.5223 -0.0864
    1SAPS  H14R   66   3.117   4.277   5.327  2.0519 -0.4670  0.9576
    1SAPS  C215   67   3.083   4.122   5.194  0.3103  0.3006 -0.5652
    1SAPS  H15R   68   2.978   4.121   5.225 -0.1349 -0.7654 -2.0024
    1SAPS  C216   69   3.126   4.019   5.087  0.4310  0.8148  0.6248
    1SAPS  H16R   70   3.107   3.918   5.128  0.3628  0.1747 -0.9151
    1SAPS  H16S   71   3.232   4.028   5.054  0.4358  0.2824  0.4792
    1SAPS  C217   72   3.029   4.043   4.968  0.2118  0.6787  0.2647
    1SAPS  H17R   73   2.934   4.018   5.020 -0.3074  0.8398 -0.5870
    1SAPS  H17S   74   3.055   3.963   4.895 -1.3537 -1.5127  1.9898
    1SAPS  C218   75   3.024   4.179   4.910  0.6409  0.6153  0.6087
    1SAPS  H18R   76   2.998   4.250   4.991 -1.2784  0.7154 -0.0399
    1SAPS  H18S   77   2.940   4.184   4.837 -0.0834  0.4856  1.4159
    1SAPS  C219   78   3.160   4.214   4.844 -0.3409  0.3721 -0.1393
    1SAPS  H19R   79   3.180   4.131   4.772  2.0654  0.0210  0.8257
    1SAPS  H19S   80   3.251   4.237   4.904 -1.0296  0.6895  0.8033
    1SAPS  C220   81   3.155   4.327   4.743  0.3961 -0.2869  0.4507
    1SAPS  H20R   82   3.075   4.310   4.667  0.8602  1.6783 -0.5315
    1SAPS  H20S   83   3.251   4.329   4.687  0.8097  0.1368  1.1687
    1SAPS  H20T   84   3.140   4.430   4.782  0.3079  1.0325 -2.7503
    1SAPS   C33   85   3.801   3.886   6.098 -0.2878  0.2952 -0.2458
    1SAPS   H3X   86   3.740   3.979   6.091  2.4094  2.0970 -1.2471
    1SAPS   H3Y   87   3.739   3.794   6.098  3.6135 -2.6484  1.5923
    1SAPS   C34   88   3.890   3.878   5.971 -0.5008  0.1120 -0.6966
    1SAPS   H4X   89   3.953   3.787   5.974 -0.3674  0.0324 -3.3628
    1SAPS   H4Y   90   3.955   3.968   5.974 -2.0967  1.3204 -0.3814
    1SAPS   C35   91   3.803   3.871   5.843  0.4052  0.3168 -0.2406
    1SAPS   H5X   92   3.729   3.954   5.844 -0.1275 -0.1549  0.7909
    1SAPS   H5Y   93   3.743   3.778   5.842 -0.7580  1.0440 -0.6763
    1SAPS   C36   94   3.885   3.890   5.713  0.7426 -0.6642 -0.0824
    1SAPS   H6X   95   3.959   3.807   5.715  0.4365 -0.9733  2.7239
    1SAPS   H6Y   96   3.941   3.985   5.722  0.1379 -0.2145 -0.9073
    1SAPS   C37   97   3.808   3.900   5.580  0.9061 -0.7299  0.6318
    1SAPS   H7X   98   3.709   3.946   5.599  0.8086 -1.0070  0.8163
    1SAPS   H7Y   99   3.780   3.798   5.544  1.5169 -0.1389 -1.6297
    1SAPS   C38  100   3.903   3.960   5.470  0.9301  0.2728 -0.2051
    1SAPS   H8X  101   3.996   3.899   5.465  1.8599  1.6150  0.1421
    1SAPS   H8Y  102   3.934   4.062   5.503  1.4452 -0.7563  2.8939
    1SAPS   C39  103   3.846   3.966   5.334 -0.4738 -0.0277 -0.1384
    1SAPS   H9X  104   3.776   4.052   5.324  2.8972  2.9748 -0.1429
    1SAPS   H9Y  105   3.798   3.874   5.295  1.0626 -0.4294 -1.2098
    1SAPS  C310  106   3.964   3.988   5.228 -0.0916 -0.5366  0.4297
    1SAPS  H10X  107   4.021   3.893   5.213  2.0383  1.0201 -2.3218
    1SAPS  H10Y  108   4.039   4.057   5.274  0.4596 -2.6213  2.9572
    1SAPS  C311  109   3.921   4.043   5.097  0.4751  0.3640  0.2984
    1SAPS  H11X  110   3.843   4.122   5.102  0.0104  0.1551 -2.3072
    1SAPS  H11Y  111   3.866   3.970   5.034 -0.5051 -1.3643  2.9870
    1SAPS  C312  112   4.036   4.099   5.010  0.2035 -0.1079 -0.1932
    1SAPS  H12X  113   4.123   4.029   5.008 -0.1541 -0.6335  1.3851
    1SAPS  H12Y  114   4.075   4.196   5.047 -0.8697  0.7946 -1.3119
    1SAPS  C313  115   4.000   4.112   4.868 -0.3272 -0.1252 -0.0476
    1SAPS  H13X  116   3.897   4.153   4.853 -0.9491 -1.0520  1.4879
    1SAPS  H13Y  117   3.982   4.012   4.823  0.2119  0.2178 -1.0566
    1SAPS  C314  118   4.103   4.187   4.783 -0.3880  0.1010  0.0805
    1SAPS  H14X  119   4.203   4.141   4.776 -0.0926  0.5471  1.2119
    1SAPS  H14Y  120   4.119   4.292   4.814 -0.9450  0.3223 -0.3591
    1SAPS  C315  121   4.054   4.193   4.632 -0.1721 -0.3209 -0.1722
    1SAPS  H15X  122   3.953   4.238   4.631  0.3515  1.1001  2.0977
    1SAPS  H15Y  123   4.059   4.093   4.585  1.7606 -1.5755  2.4458
    1SAPS  C316  124   4.140   4.303   4.562  0.8638  0.5524  0.6980
    1SAPS  H16X  125   4.246   4.273   4.570  1.3334  1.4113 -1.4505
    1SAPS  H16Y  126   4.116   4.402   4.606 -1.8715  0.5213 -0.4818
    1SAPS  C317  127   4.101   4.326   4.410  0.1674  0.5116  0.0640
    1SAPS  H17X  128   4.104   4.233   4.350  0.1913  2.0601 -2.5459
    1SAPS  H17Y  129   4.183   4.389   4.368 -1.2950  1.1853 -1.9463
    1SAPS  C318  130   3.962   4.392   4.376  0.3206  0.2001  0.0935
    1SAPS  H18X  131   3.944   4.469   4.455  1.8363 -0.4091  1.0847
    1SAPS  H18Y  132   3.878   4.320   4.383  0.5097 -0.2145 -1.6849
    1SAPS  H18Z  133   3.970   4.433   4.273 -1.0803  1.3585  0.4114
    2SAPS     N  134   4.941   5.293   7.175 -0.2660  0.0881 -0.4930
    2SAPS   HN1  135   4.959   5.353   7.257 -0.2646  0.9396 -1.1022
    2SAPS   HN2  136   4.864   5.228   7.204  1.0264 -1.3089 -0.0310
    2SAPS   HN3  137   5.027   5.237   7.159 -1.6156 -3.1257  2.0780
    2SAPS   C12  138   4.918   5.378   7.065  0.4412 -0.7376 -0.2860
    2SAPS  H12A  139   4.830   5.438   7.084 -0.1567 -1.7682  0.2611
    2SAPS   C13  140   5.041   5.472   7.030 -0.5233  0.0630  0.0109
    2SAPS  O13A  141   5.151   5.446   7.086 -0.2613  0.1530  0.0905
    2SAPS  O13B  142   5.023   5.568   6.946 -0.0656 -0.6566  0.5775
    2SAPS   C11  143   4.879   5.294   6.937  0.3650 -0.4974 -0.0469
    2SAPS  H11A  144   4.957   5.216   6.923 -0.4556 -0.9836 -2.4551
    2SAPS  H11B  145   4.875   5.369   6.856 -1.6019  1.2645  1.5450
    2SAPS     P  146   4.702   5.148   6.829  0.1452 -0.3708 -0.7750
    2SAPS   O13  147   4.744   5.010   6.845 -0.1820  0.4239  0.1418
    2SAPS   O14  148   4.558   5.161   6.810 -0.8191 -0.2359  0.2180
    2SAPS   O12  149   4.746   5.230   6.956 -0.5802 -0.4413  0.1638
    2SAPS   O11  150   4.788   5.215   6.708  0.6120  0.4228 -0.1637
    2SAPS    C1  151   4.797   5.145   6.584 -0.3395 -0.7288  0.3458
    2SAPS    HA  152   4.710   5.079   6.567  1.1941 -2.4527 -1.4550
    2SAPS    HB  153   4.800   5.216   6.499 -2.5908 -0.8249  0.1262
    2SAPS    C2  154   4.920   5.054   6.581 -0.6253  0.5575 -0.7195
    2SAPS    HS  155   4.902   4.980   6.662 -1.0499  0.5059 -0.8544
    2SAPS   O21  156   5.035   5.143   6.595  0.2052 -0.1720 -0.1826
    2SAPS   C21  157   5.139   5.073   6.630  0.3272  0.1687  0.4138
    2SAPS   O22  158   5.126   4.962   6.682 -0.2249 -0.6747 -0.1730
    2SAPS   C22  159   5.269   5.153   6.623  0.5315 -0.3772  0.1101
    2SAPS   H2R  160   5.243   5.245   6.565 -2.3310 -0.9690  0.3088
    2SAPS   H2S  161   5.293   5.188   6.726  0.1009 -0.0469  0.1008
    2SAPS    C3  162   4.942   4.965   6.453 -0.2480 -0.6692 -0.6232
    2SAPS    HX  163   4.856   4.893   6.452 -1.2043  0.3037  2.2191
    2SAPS    HY  164   5.025   4.893   6.469 -0.3562 -0.7692 -0.5093
    2SAPS   O31  165   4.944   5.028   6.328 -0.2142 -0.0845 -0.2524
    2SAPS   C31  166   5.070   5.041   6.278  0.5392 -0.4197 -0.6102
    2SAPS   O32  167   5.173   5.003   6.328 -0.3968 -0.8757 -0.3458
    2SAPS   C32  168   5.053   5.095   6.130 -0.3859 -0.2797 -0.3075
    2SAPS   H2X  169   5.011   5.197   6.132  0.3112  0.0132  1.3178
    2SAPS   H2Y  170   4.979   5.027   6.082 -0.7344  0.2089 -0.4697
    2SAPS   C23  171   5.397   5.078   6.575  0.1944 -0.3580 -0.1020
    2SAPS   H3R  172   5.370   5.012   6.489 -0.5137 -0.8281  0.4663
    2SAPS   H3S  173   5.418   5.009   6.660 -1.3611 -0.4794  0.2176
    2SAPS   C24  174   5.512   5.175   6.555 -0.2828  0.2941 -0.0445
    2SAPS   H4R  175   5.598   5.106   6.545  0.1929  0.7629  0.7607
    2SAPS   H4S  176   5.524   5.237   6.646 -0.7552 -0.7540  0.7475
    2SAPS   C25  177   5.498   5.272   6.440  1.0032  0.1979 -0.0579
    2SAPS   H5R  178   5.417   5.345   6.452 -1.1443 -1.9030 -1.1301
    2SAPS   C26  179   5.548   5.244   6.314 -0.2085 -0.2038 -0.6068
    2SAPS   H6R  180   5.536   5.320   6.235  0.1579 -0.1899 -0.6519
    2SAPS   C27  181   5.656   5.142   6.279  0.5712 -0.4332  0.3943
    2SAPS   H7R  182   5.659   5.065   6.359 -0.7117  0.5253  1.4247
    2SAPS   H7S  183   5.758   5.184   6.283  0.7041 -0.7529  0.4027
    2SAPS   C28  184   5.625   5.076   6.150  0.7315 -0.1917  0.3282
    2SAPS   H8R  185   5.569   4.983   6.164  1.2238 -0.7511 -1.1814
    2SAPS   C29  186   5.664   5.108   6.026  0.0272  0.2063 -0.3951
    2SAPS   H9R  187   5.640   5.029   5.953 -2.8167 -2.9735  3.5429
    2SAPS  C210  188   5.753   5.220   5.979  0.1785 -0.1691  0.0487
    2SAPS  H10R  189   5.809   5.177   5.893  1.3320  1.1621  0.0920
    2SAPS  H10S  190   5.816   5.248   6.066  0.0096 -0.6331  0.3254
    2SAPS  C211  191   5.675   5.338   5.932  0.1069 -0.5308 -0.9797
    2SAPS  H11R  192   5.625   5.388   6.015  0.5571 -1.7665  0.0735
    2SAPS  C212  193   5.672   5.374   5.800  0.1542 -0.5786 -0.0369
    2SAPS  H12R  194   5.602   5.454   5.770  2.1393  1.5082  0.5725
    2SAPS  C213  195   5.748   5.308   5.685 -0.5660 -0.7207 -0.3564
    2SAPS  H13R  196   5.694   5.222   5.639  0.4978  1.2479 -6.1850
    2SAPS  H13S  197   5.843   5.273   5.730 -0.8588  0.9737  1.7643
    2SAPS  C214  198   5.775   5.403   5.572 -0.1017  0.1167  0.3712
    2SAPS  H14R  199   5.814   5.500   5.607  1.2988 -0.3858  0.2564
    2SAPS  C215  200   5.751   5.393   5.437 -0.0693 -0.8030 -1.6298
    2SAPS  H15R  201   5.782   5.476   5.373  0.7139  0.1808 -0.0482
    2SAPS  C216  202   5.684   5.273   5.365 -0.0661  1.8785 -0.0188
    2SAPS  H16R  203   5.582   5.297   5.329  0.7104  0.1031 -4.0058
    2SAPS  H16S  204   5.683   5.181   5.427  1.5324  0.0935 -2.4444
    2SAPS  C217  205   5.771   5.250   5.235 -0.7082  0.4802  0.1811
    2SAPS  H17R  206   5.729   5.160   5.185  2.1776  0.3267 -2.2214
    2SAPS  H17S  207   5.878   5.232   5.258 -0.4827 -0.6350 -1.5759
    2SAPS  C218  208   5.761   5.363   5.138  0.3291  0.3475  0.4140
    2SAPS  H18R  209   5.797   5.459   5.180 -0.3818  1.1096 -0.6693
    2SAPS  H18S  210   5.652   5.378   5.119  0.6423 -0.3961 -2.5895
    2SAPS  C219  211   5.837   5.333   5.008 -0.0980 -0.4248 -0.1341
    2SAPS  H19R  212   5.931   5.276   5.024 -0.7248 -1.4204  0.0888
    2SAPS  H19S  213   5.857   5.428   4.954 -0.7088  0.1802  0.6676
    2SAPS  C220  214   5.763   5.248   4.906  0.3926 -0.0899  0.3554
    2SAPS  H20R  215   5.710   5.158   4.943 -0.7200 -0.1723 -1.3751
    2SAPS  H20S  216   5.828   5.216   4.822 -0.1423 -1.4585  0.4368
    2SAPS  H20T  217   5.691   5.314   4.854  1.2694 -0.8550 -1.9246
    2SAPS   C33  218   5.185   5.085   6.048  0.5222  0.6263 -0.4111
    2SAPS   H3X  219   5.216   4.979   6.039 -3.3147 -0.5487 -1.9221
    2SAPS   H3Y  220   5.264   5.137   6.105 -1.7191  2.1606  1.5009
    2SAPS   C34  221   5.178   5.143   5.913  0.0440  0.1784  0.1318
    2SAPS   H4X  222   5.138   5.246   5.928  1.1772  0.5434  0.7218
    2SAPS   H4Y  223   5.121   5.078   5.842 -0.0275 -1.1646  1.3735
    2SAPS   C35  224   5.322   5.150   5.853 -0.0576 -0.4868  0.1043
    2SAPS   H5X  225   5.375   5.054   5.870 -1.3355 -0.9712  1.5864
    2SAPS   H5Y  226   5.389   5.226   5.897  1.8407 -1.5938 -0.7758
    2SAPS   C36  227   5.328   5.168   5.698 -0.0293 -0.5201 -0.6259
    2SAPS   H6X  228   5.427   5.196   5.655  1.0949 -2.2184  0.7212
    2SAPS   H6Y  229   5.254   5.247   5.672 -0.5426 -1.2620 -1.5319
    2SAPS   C37  230   5.291   5.037   5.619 -0.0970  0.4141 -0.5384
    2SAPS   H7X  231   5.186   5.013   5.647  0.0969 -0.3848 -0.4867
    2SAPS   H7Y  232   5.345   4.953   5.665 -0.3895  0.8554  0.6391
    2SAPS   C38  233   5.315   5.043   5.464 -0.1040  0.0255  0.4406
    2SAPS   H8X  234   5.273   4.951   5.416  0.8471 -1.3002  2.0245
    2SAPS   H8Y  235   5.425   5.040   5.448 -0.0800  0.5242  0.5204
    2SAPS   C39  236   5.250   5.170   5.409 -0.3727 -0.4736  0.0335
    2SAPS   H9X  237   5.309   5.260   5.434 -0.7173  0.2376 -1.5649
    2SAPS   H9Y  238   5.147   5.186   5.447 -1.2406  0.0265 -2.3533
    2SAPS  C310  239   5.231   5.162   5.256 -0.3756  0.0534 -0.5167
    2SAPS  H10X  240   5.161   5.243   5.226  0.5722  0.8459 -0.6277
    2SAPS  H10Y  241   5.193   5.060   5.233 -0.0055 -0.2823  0.3089
    2SAPS  C311  242   5.361   5.181   5.170 -0.1021 -0.3679 -0.9344
    2SAPS  H11X  243   5.431   5.102   5.206  1.7389  1.6441  0.1504
    2SAPS  H11Y  244   5.412   5.275   5.200 -0.3995 -0.3436 -0.4990
    2SAPS  C312  245   5.327   5.175   5.025 -0.1095 -0.1408 -0.0470
    2SAPS  H12X  246   5.420   5.170   4.964 -0.2555  3.9577 -0.9115
    2SAPS  H12Y  247   5.272   5.268   5.000 -1.8068 -1.0145  0.3033
    2SAPS  C313  248   5.245   5.056   4.983 -0.5448 -0.7842  0.9423
    2SAPS  H13X  249   5.147   5.078   5.031 -0.3633  2.6341 -0.0215
    2SAPS  H13Y  250   5.287   4.957   5.012 -0.6503 -1.5595 -1.4111
    2SAPS  C314  251   5.213   5.067   4.832  0.4742  0.4117 -0.4673
    2SAPS  H14X  252   5.311   5.066   4.780 -0.9467  1.5543 -3.4442
    2SAPS  H14Y  253   5.167   5.163   4.800  0.3549  0.3912 -0.3590
    2SAPS  C315  254   5.115   4.956   4.798  0.3487  0.7983  0.6098
    2SAPS  H15X  255   5.039   4.961   4.879 -1.0400 -0.9280 -0.5082
    2SAPS  H15Y  256   5.159   4.855   4.788 -0.7356  0.2035  1.5450
    2SAPS  C316  257   5.040   4.997   4.666 -0.3784 -0.3073 -0.0106
    2SAPS  H16X  258   5.111   5.024   4.585  1.7459  0.0749  1.8653
    2SAPS  H16Y  259   4.991   5.094   4.689 -0.4234 -0.1771 -0.6457
    2SAPS  C317  260   4.930   4.905   4.624  0.1878  0.6720  0.0126
    2SAPS  H17X  261   4.838   4.951   4.581 -0.5146 -0.0389  0.7379
    2SAPS  H17Y  262   4.892   4.854   4.715  0.0903 -0.2252 -0.5185
    2SAPS  C318  263   4.977   4.792   4.529 -0.2862 -0.3922 -0.6399
    2SAPS  H18X  264   5.028   4.716   4.592 -0.8365  0.6203  1.0848
    2SAPS  H18Y  265   5.042   4.838   4.452  2.0420 -1.7569  0.3917
    2SAPS  H18Z  266   4.887   4.754   4.476 -0.2471 -0.2676 -0.7965
    3SAPS     N  267   5.820   3.456   6.570  0.0463  0.3120  0.2960
    3SAPS   HN1  268   5.807   3.451   6.467  1.9290 -2.1488  0.1019
    3SAPS   HN2  269   5.751   3.522   6.612  0.0470  1.7421 -1.8030
    3SAPS   HN3  270   5.917   3.492   6.580  0.2176 -0.0554 -0.0360
    3SAPS   C12  271   5.816   3.332   6.646 -0.3818  0.4134  0.2992
    3SAPS  H12A  272   5.863   3.255   6.586  1.1482  1.1968  0.4498
    3SAPS   C13  273   5.881   3.330   6.788 -0.4173 -0.2915 -0.3273
    3SAPS  O13A  274   5.932   3.426   6.846 -0.0065 -0.1483 -0.1573
    3SAPS  O13B  275   5.881   3.217   6.840  0.3668  0.3509  0.1660
    3SAPS   C11  276   5.672   3.293   6.658 -0.7936 -0.2425  0.1454
    3SAPS  H11A  277   5.621   3.379   6.708  1.3049  0.3568  1.3456
    3SAPS  H11B  278   5.658   3.208   6.728 -0.9497  2.9094  4.3117
    3SAPS     P  279   5.606   3.129   6.467 -0.1101  0.0587 -0.2287
    3SAPS   O13  280   5.745   3.082   6.453  0.3867  0.2831  0.8957
    3SAPS   O14  281   5.506   3.056   6.550 -0.0654 -0.3327  0.2371
    3SAPS   O12  282   5.611   3.275   6.531  0.2064 -0.5017 -0.0225
    3SAPS   O11  283   5.545   3.132   6.325  0.1324 -0.3415  0.2447
    3SAPS    C1  284   5.520   3.240   6.245 -0.8353  0.0673  0.5692
    3SAPS    HA  285   5.411   3.255   6.231 -0.5326  2.0192 -0.0776
    3SAPS    HB  286   5.562   3.337   6.279  0.2050  0.9283 -2.8089
    3SAPS    C2  287   5.567   3.207   6.094  0.4307  0.3286  0.7281
    3SAPS    HS  288   5.517   3.116   6.054  1.7193 -1.0108  2.0572
    3SAPS   O21  289   5.711   3.195   6.102 -0.0718 -0.1213  0.6712
    3SAPS   C21  290   5.765   3.106   6.020 -0.3153 -0.3630 -0.1784
    3SAPS   O22  291   5.705   3.023   5.949 -0.6037  0.0964 -0.7845
    3SAPS   C22  292   5.919   3.122   6.006 -0.4830 -0.2772  0.6932
    3SAPS   H2R  293   5.932   3.229   6.032 -0.5035 -0.5027  1.7105
    3SAPS   H2S  294   5.967   3.052   6.078 -1.0578 -0.2027  1.1492
    3SAPS    C3  295   5.530   3.327   6.002 -0.1350  0.0045  0.1119
    3SAPS    HX  296   5.581   3.418   6.040  1.0924 -0.1304 -1.1490
    3SAPS    HY  297   5.420   3.340   6.012  0.0165  1.4057  0.1149
    3SAPS   O31  298   5.567   3.323   5.865  0.6525 -0.4683 -0.3644
    3SAPS   C31  299   5.508   3.231   5.791 -0.2297 -0.5140 -0.8516
    3SAPS   O32  300   5.428   3.149   5.828 -0.2269  0.0706  0.5262
    3SAPS   C32  301   5.559   3.234   5.648 -0.1274  0.3147 -0.1207
    3SAPS   H2X  302   5.484   3.168   5.599 -1.4788 -0.1579  2.4003
    3SAPS   H2Y  303   5.655   3.178   5.652 -0.4285 -0.2028 -0.0458
    3SAPS   C23  304   5.972   3.100   5.857  0.8713  0.2409 -0.3127
    3SAPS   H3R  305   5.891   3.139   5.792 -1.0688 -2.3782  0.3485
    3SAPS   H3S  306   5.958   2.992   5.837  0.6338  0.2991 -0.4714
    3SAPS   C24  307   6.121   3.140   5.826  0.4087 -0.1778 -0.3081
    3SAPS   H4R  308   6.133   3.249   5.842 -0.6649 -0.4379  3.3572
    3SAPS   H4S  309   6.137   3.126   5.717 -1.0252 -1.0880 -0.4349
    3SAPS   C25  310   6.226   3.073   5.910  0.2517 -0.7678  0.3285
    3SAPS   H5R  311   6.235   3.101   6.017  3.0191 -0.8093  0.1894
    3SAPS   C26  312   6.288   2.962   5.867 -0.5032 -0.1105  0.7118
    3SAPS   H6R  313   6.368   2.929   5.934 -1.4061 -0.7018  1.5373
    3SAPS   C27  314   6.273   2.889   5.735  0.0811 -0.2207 -0.1516
    3SAPS   H7R  315   6.368   2.838   5.706  0.8032 -0.3098  2.1903
    3SAPS   H7S  316   6.245   2.962   5.656 -1.1290 -0.3067  0.1753
    3SAPS   C28  317   6.165   2.786   5.749  0.3744 -0.1658  0.1104
    3SAPS   H8R  318   6.158   2.734   5.846 -2.0008  0.9198  0.6002
    3SAPS   C29  319   6.076   2.747   5.660  0.0069 -0.1351 -0.3298
    3SAPS   H9R  320   5.999   2.673   5.686 -2.0291  1.4109 -1.6876
    3SAPS  C210  321   6.057   2.792   5.519  0.1086  0.4702 -0.6803
    3SAPS  H10R  322   6.132   2.751   5.449  1.3460 -1.2538  1.5326
    3SAPS  H10S  323   6.081   2.901   5.515 -1.4327  0.9110  0.5646
    3SAPS  C211  324   5.922   2.760   5.452 -0.3682  0.0800  0.9401
    3SAPS  H11R  325   5.863   2.682   5.501  0.2333 -2.9548 -2.7193
    3SAPS  C212  326   5.880   2.826   5.340 -0.2892  0.6404  0.3317
    3SAPS  H12R  327   5.791   2.783   5.293  0.7991 -1.2773 -0.0960
    3SAPS  C213  328   5.945   2.936   5.266  0.3083  0.7456 -0.4495
    3SAPS  H13R  329   6.048   2.950   5.305 -1.0711  2.2270  3.0333
    3SAPS  H13S  330   5.896   3.034   5.286  2.0223  1.2598  1.6355
    3SAPS  C214  331   5.950   2.912   5.119 -0.6424  0.0996 -0.5449
    3SAPS  H14R  332   6.002   2.821   5.086  3.1518  1.8495  0.1206
    3SAPS  C215  333   5.915   2.997   5.017  0.5162 -0.9449 -0.6493
    3SAPS  H15R  334   5.935   2.966   4.913 -1.3590 -1.0477 -1.0157
    3SAPS  C216  335   5.843   3.134   5.038  1.1713  0.3537 -0.7464
    3SAPS  H16R  336   5.916   3.216   5.055 -1.2792  2.7459 -1.1331
    3SAPS  H16S  337   5.787   3.122   5.133 -0.0425 -0.3668 -1.5243
    3SAPS  C217  338   5.740   3.156   4.924 -0.2885 -0.2268 -0.9202
    3SAPS  H17R  339   5.652   3.211   4.962  1.7419  2.9725 -0.4228
    3SAPS  H17S  340   5.704   3.053   4.902 -1.0880 -0.2640  0.4485
    3SAPS  C218  341   5.799   3.217   4.794  0.3618 -0.6255 -0.1148
    3SAPS  H18R  342   5.891   3.157   4.781  0.8470  0.1801 -0.4587
    3SAPS  H18S  343   5.832   3.320   4.819  1.7668 -1.3147  0.9607
    3SAPS  C219  344   5.701   3.217   4.667 -1.1276 -0.2969  0.5140
    3SAPS  H19R  345   5.694   3.113   4.627 -2.5612  0.1218 -0.4238
    3SAPS  H19S  346   5.601   3.249   4.702 -2.2611 -0.8911 -1.9688
    3SAPS  C220  347   5.742   3.311   4.550 -0.6190  0.6934 -0.3468
    3SAPS  H20R  348   5.694   3.411   4.550 -0.7621  0.6419  0.6331
    3SAPS  H20S  349   5.712   3.265   4.453  0.9758 -0.5665 -0.2791
    3SAPS  H20T  350   5.852   3.313   4.542 -0.2413  2.4896  3.1348
    3SAPS   C33  351   5.575   3.376   5.587 -0.6354  0.2068  0.4332
    3SAPS   H3X  352   5.636   3.433   5.660  0.3839  1.1226 -1.0854
    3SAPS   H3Y  353   5.483   3.437   5.572  0.7493  2.0413 -1.0765
    3SAPS   C34  354   5.656   3.370   5.455 -1.1837  0.7480  0.0660
    3SAPS   H4X  355   5.614   3.302   5.378  1.9650 -1.1605 -0.1644
    3SAPS   H4Y  356   5.756   3.323   5.466 -1.5652 -0.2920 -0.7283
    3SAPS   C35  357   5.678   3.512   5.381  0.5020  0.2682  0.4539
    3SAPS   H5X  358   5.576   3.553   5.398  1.1877  1.0494  3.0638
    3SAPS   H5Y  359   5.749   3.582   5.429  0.7691  0.8516 -0.7668
    3SAPS   C36  360   5.707   3.486   5.231  0.1032  0.4194 -0.0728
    3SAPS   H6X  361   5.630   3.420   5.185 -0.5487  1.2701 -0.2374
    3SAPS   H6Y  362   5.803   3.433   5.223 -1.2253 -2.3626  1.1809
    3SAPS   C37  363   5.727   3.614   5.153  0.3323 -0.3707 -0.0191
    3SAPS   H7X  364   5.821   3.665   5.182 -0.5361  0.6596  1.0804
    3SAPS   H7Y  365   5.644   3.685   5.177 -0.4468 -1.0282 -0.7042
    3SAPS   C38  366   5.728   3.604   4.996  0.6377  0.5894 -0.0806
    3SAPS   H8X  367   5.645   3.537   4.963 -0.6698  2.0670  0.0932
    3SAPS   H8Y  368   5.814   3.543   4.960 -0.7734 -0.3185 -2.1473
    3SAPS   C39  369   5.719   3.737   4.927 -0.0697  0.1649  0.8594
    3SAPS   H9X  370   5.811   3.792   4.957  2.0540 -1.6893 -1.7859
    3SAPS   H9Y  371   5.625   3.790   4.954  0.6943  1.0253  1.8885
    3SAPS  C310  372   5.716   3.735   4.772  0.6353  0.0715  0.8098
    3SAPS  H10X  373   5.703   3.840   4.740 -2.0026 -0.3798  0.1659
    3SAPS  H10Y  374   5.623   3.681   4.741 -1.2139  2.2555  2.2287
    3SAPS  C311  375   5.837   3.679   4.697  0.5695  0.7648 -0.1719
    3SAPS  H11X  376   5.859   3.577   4.736  0.6157  1.3223  1.3502
    3SAPS  H11Y  377   5.920   3.743   4.735 -0.3004  0.7426  1.9016
    3SAPS  C312  378   5.823   3.680   4.546 -0.2571 -0.0400  0.2281
    3SAPS  H12X  379   5.805   3.787   4.523 -1.4006 -0.0661  0.9486
    3SAPS  H12Y  380   5.736   3.613   4.532 -0.3243  0.2253 -0.6932
    3SAPS  C313  381   5.950   3.631   4.476  0.1617 -0.1542  0.0572
    3SAPS  H13X  382   5.990   3.540   4.527  0.8573  1.4251  2.5307
    3SAPS  H13Y  383   6.040   3.696   4.486  1.3176 -1.8540  1.5697
    3SAPS  C314  384   5.925   3.584   4.332 -0.2729  0.0390  0.1215
    3SAPS  H14X  385   5.846   3.506   4.330 -0.8442  0.4527  2.6577
    3SAPS  H14Y  386   6.023   3.537   4.308  1.0389  2.0008  1.3105
    3SAPS  C315  387   5.886   3.702   4.239  0.6042  0.5982  0.5073
    3SAPS  H15X  388   5.962   3.783   4.234  0.5025  0.6185 -1.5614
    3SAPS  H15Y  389   5.785   3.739   4.265 -0.0443  0.7748 -1.9460
    3SAPS  C316  390   5.860   3.657   4.094  0.1719  0.0163  0.1795
    3SAPS  H16X  391   5.796   3.567   4.087 -1.0056  0.7409  1.2377
    3SAPS  H16Y  392   5.953   3.634   4.038  0.0627 -0.2215  0.0946
    3SAPS  C317  393   5.779   3.766   4.013 -0.1543 -0.5035  0.4106
    3SAPS  H17X  394   5.671   3.754   4.038 -0.3649 -0.7464 -0.5583
    3SAPS  H17Y  395   5.787   3.753   3.903 -1.7483 -2.0060  0.4190
    3SAPS  C318  396   5.817   3.909   4.038  0.2406  0.1009  0.2086
    3SAPS  H18X  397   5.782   3.963   3.947 -0.2471 -1.3594 -0.5000
    3SAPS  H18Y  398   5.927   3.920   4.026  0.3751 -2.0305 -0.9791
    3SAPS  H18Z  399   5.785   3.944   4.138 -2.5698  0.7578 -0.8448
    4SAPS     N  400   2.712   2.495   6.710  0.0684 -0.0484 -0.1094
    4SAPS   HN1  401   2.684   2.586   6.670  1.4219  1.0555  1.3504
    4SAPS   HN2  402   2.755   2.500   6.805 -0.6840  0.3133  0.2250
    4SAPS   HN3  403   2.780   2.455   6.643 -0.8476  2.0344 -2.4114
    4SAPS   C12  404   2.589   2.401   6.708 -0.3150 -0.1934  0.3651
    4SAPS  H12A  405   2.606   2.330   6.788  0.0423  1.2219  1.5953
    4SAPS   C13  406   2.456   2.476   6.738  0.0370  0.2378 -0.3466
    4SAPS  O13A  407   2.464   2.598   6.740  0.2171  0.8730 -0.1403
    4SAPS  O13B  408   2.363   2.411   6.795 -0.4899  1.0311  0.3072
    4SAPS   C11  409   2.591   2.338   6.566  0.6080 -0.0867  0.5484
    4SAPS  H11A  410   2.551   2.412   6.493  0.6956  0.5192  1.1087
    4SAPS  H11B  411   2.518   2.255   6.561 -2.7924  2.7124  0.2181
    4SAPS     P  412   2.797   2.171   6.564  0.1127 -0.0589 -0.0126
    4SAPS   O13  413   2.936   2.205   6.557 -0.3045  0.2132  0.0216
    4SAPS   O14  414   2.746   2.134   6.695 -0.1435  0.0552  0.5590
    4SAPS   O12  415   2.721   2.291   6.518  0.2380 -0.3405 -0.0892
    4SAPS   O11  416   2.756   2.052   6.468 -0.4869 -0.4823 -0.1140
    4SAPS    C1  417   2.834   2.039   6.347 -0.5459  0.1798  0.5729
    4SAPS    HA  418   2.942   2.064   6.356  0.0486 -1.1925 -1.7647
    4SAPS    HB  419   2.833   1.930   6.325 -2.1860  0.4732 -1.0769
    4SAPS    C2  420   2.777   2.119   6.226  0.8674  0.0344  0.1116
    4SAPS    HS  421   2.667   2.110   6.222  0.9490 -0.7885 -0.8410
    4SAPS   O21  422   2.818   2.056   6.099  0.2518 -0.0310 -0.4161
    4SAPS   C21  423   2.746   1.953   6.079 -0.7255  0.7206  0.5754
    4SAPS   O22  424   2.630   1.935   6.112 -0.4182  0.4856  0.5541
    4SAPS   C22  425   2.826   1.850   5.995  0.2168  0.1819 -0.9383
    4SAPS   H2R  426   2.917   1.826   6.054 -0.9814 -0.3803  0.7536
    4SAPS   H2S  427   2.766   1.757   5.985  1.1396 -0.3291 -1.8673
    4SAPS    C3  428   2.821   2.273   6.213  0.1433 -0.4206 -0.2625
    4SAPS    HX  429   2.922   2.267   6.259  0.4596  0.2451 -0.8665
    4SAPS    HY  430   2.759   2.340   6.276 -1.5058 -1.7301 -0.4002
    4SAPS   O31  431   2.828   2.331   6.084 -0.1050  0.3184  0.3969
    4SAPS   C31  432   2.708   2.340   6.014 -0.1913  1.2014  0.0139
    4SAPS   O32  433   2.605   2.292   6.061 -0.4006 -0.5632  0.3322
    4SAPS   C32  434   2.727   2.420   5.894 -0.4911  0.5203  0.5406
    4SAPS   H2X  435   2.832   2.446   5.870 -0.8573 -0.5785 -2.8442
    4SAPS   H2Y  436   2.675   2.517   5.914 -1.4263 -0.4317  3.1492
    4SAPS   C23  437   2.867   1.891   5.855 -0.0563 -0.5581  0.5686
    4SAPS   H3R  438   2.935   1.820   5.802  1.3332  0.9963  0.1767
    4SAPS   H3S  439   2.933   1.979   5.871  1.5449 -1.7492  0.8561
    4SAPS   C24  440   2.748   1.930   5.760 -0.1755  0.3057  0.2051
    4SAPS   H4R  441   2.790   1.980   5.670 -0.5887 -1.5396 -1.0815
    4SAPS   H4S  442   2.686   2.002   5.817  0.3590  0.9904 -0.0592
    4SAPS   C25  443   2.676   1.799   5.729  0.0240  0.1406 -0.4003
    4SAPS   H5R  444   2.631   1.749   5.816  0.0175 -0.3926 -0.7115
    4SAPS   C26  445   2.652   1.757   5.600 -0.4344 -0.0467  0.0624
    4SAPS   H6R  446   2.599   1.662   5.583 -2.1260  0.3014  2.7962
    4SAPS   C27  447   2.701   1.813   5.466  0.7838  0.3221 -0.1415
    4SAPS   H7R  448   2.715   1.923   5.470  1.6743  0.2656 -1.2261
    4SAPS   H7S  449   2.623   1.795   5.389  1.0043 -1.8204  0.0747
    4SAPS   C28  450   2.831   1.750   5.433  0.4999 -0.4129  1.1062
    4SAPS   H8R  451   2.891   1.714   5.518 -1.0323  0.7267  2.7472
    4SAPS   C29  452   2.883   1.739   5.306 -0.2248  0.4440  0.4542
    4SAPS   H9R  453   2.988   1.706   5.302 -0.3062  0.0077  1.5207
    4SAPS  C210  454   2.813   1.783   5.177  0.5329 -0.3071  0.0903
    4SAPS  H10R  455   2.833   1.892   5.167  0.0359 -0.1395  0.8788
    4SAPS  H10S  456   2.704   1.774   5.196  0.9137 -1.0910  2.1327
    4SAPS  C211  457   2.858   1.703   5.055  0.0450  0.5725  0.5021
    4SAPS  H11R  458   2.889   1.599   5.074 -1.6511 -0.0382  0.1858
    4SAPS  C212  459   2.847   1.743   4.929 -0.2809 -0.6600  0.4892
    4SAPS  H12R  460   2.898   1.688   4.849 -1.7440 -1.5281  0.1152
    4SAPS  C213  461   2.817   1.881   4.895  0.5633  0.1257 -0.9576
    4SAPS  H13R  462   2.858   1.897   4.793  0.9651 -1.6615 -1.1151
    4SAPS  H13S  463   2.873   1.962   4.946 -1.1321  1.1652 -0.6649
    4SAPS  C214  464   2.673   1.920   4.910  1.0025  0.5783 -0.0173
    4SAPS  H14R  465   2.634   1.879   5.004  2.2657  2.7094  1.5309
    4SAPS  C215  466   2.595   1.979   4.820  0.6326 -0.2164  0.4592
    4SAPS  H15R  467   2.488   1.982   4.846  0.8747 -0.8544  1.5872
    4SAPS  C216  468   2.630   2.029   4.682  0.0467  0.2185  0.4884
    4SAPS  H16R  469   2.735   2.064   4.676 -0.4029  1.8825  1.4727
    4SAPS  H16S  470   2.575   2.124   4.663  1.2628  0.7904 -0.2178
    4SAPS  C217  471   2.612   1.921   4.573  0.1151  0.0318  0.1376
    4SAPS  H17R  472   2.505   1.892   4.559  0.9882 -2.4190 -2.7652
    4SAPS  H17S  473   2.670   1.833   4.607 -1.6055 -0.1311  2.9288
    4SAPS  C218  474   2.657   1.970   4.432 -0.4979  0.5992  0.0406
    4SAPS  H18R  475   2.620   2.073   4.413  1.0253  1.7624  2.7992
    4SAPS  H18S  476   2.619   1.898   4.356  2.4272 -1.3995  0.2953
    4SAPS  C219  477   2.813   1.971   4.417 -0.1308  0.4950  0.0384
    4SAPS  H19R  478   2.856   1.874   4.451  0.3145  0.2365 -1.1891
    4SAPS  H19S  479   2.845   2.051   4.487  0.7869  0.4650 -0.3313
    4SAPS  C220  480   2.861   2.004   4.278 -0.9484 -0.7807 -0.0854
    4SAPS  H20R  481   2.832   1.927   4.203 -2.6374 -0.4082  0.1366
    4SAPS  H20S  482   2.972   2.003   4.280 -0.9429 -1.1241  1.5314
    4SAPS  H20T  483   2.820   2.097   4.233  0.7014 -0.8551 -1.8324
    4SAPS   C33  484   2.664   2.342   5.770 -0.2856 -0.0495 -0.8916
    4SAPS   H3X  485   2.561   2.314   5.800  0.5828 -2.8064 -0.2012
    4SAPS   H3Y  486   2.716   2.244   5.762  0.2852  0.2360 -0.7431
    4SAPS   C34  487   2.680   2.410   5.634 -0.3738 -0.0180 -0.0290
    4SAPS   H4X  488   2.789   2.430   5.625 -0.4723  0.2537 -0.7020
    4SAPS   H4Y  489   2.625   2.507   5.635  0.3747  0.4128  0.1903
    4SAPS   C35  490   2.635   2.321   5.517 -0.4422 -0.5631 -0.1854
    4SAPS   H5X  491   2.541   2.271   5.547 -0.0187 -0.3491  1.5851
    4SAPS   H5Y  492   2.709   2.240   5.502  0.1068 -0.4533  1.7830
    4SAPS   C36  493   2.615   2.412   5.392  0.3007 -0.5172 -0.4956
    4SAPS   H6X  494   2.720   2.430   5.361  1.0685 -1.0907  1.5887
    4SAPS   H6Y  495   2.558   2.505   5.411 -0.4197 -0.9514 -0.4846
    4SAPS   C37  496   2.546   2.343   5.277  0.0687 -0.0863 -0.3013
    4SAPS   H7X  497   2.436   2.352   5.291  0.4156 -0.4969  3.4757
    4SAPS   H7Y  498   2.572   2.236   5.288 -1.9947 -0.5246  0.7408
    4SAPS   C38  499   2.593   2.393   5.135 -0.4142 -0.2010 -0.7316
    4SAPS   H8X  500   2.705   2.392   5.135 -0.3445  1.9401 -0.0558
    4SAPS   H8Y  501   2.551   2.496   5.133  0.3691  0.1479  0.1186
    4SAPS   C39  502   2.531   2.321   5.010  0.2038 -0.3635 -0.1796
    4SAPS   H9X  503   2.421   2.338   5.019  0.3565  0.4927  0.1617
    4SAPS   H9Y  504   2.548   2.212   4.999 -2.1187 -0.6323 -1.7539
    4SAPS  C310  505   2.573   2.392   4.881  0.1934  0.1980  0.1044
    4SAPS  H10X  506   2.559   2.315   4.802  1.3892 -3.1480  2.8864
    4SAPS  H10Y  507   2.678   2.425   4.874  1.1487 -2.4653  0.8315
    4SAPS  C311  508   2.474   2.499   4.840  0.4197 -0.6531  0.0374
    4SAPS  H11X  509   2.478   2.573   4.923  1.0398  1.9865 -2.1797
    4SAPS  H11Y  510   2.370   2.462   4.831 -0.3886  0.2389  3.9226
    4SAPS  C312  511   2.522   2.562   4.707 -0.0081 -0.1291 -0.4637
    4SAPS  H12X  512   2.524   2.483   4.629  1.6511 -0.9112  0.3329
    4SAPS  H12Y  513   2.629   2.588   4.721  0.2722 -0.5186 -1.7306
    4SAPS  C313  514   2.433   2.685   4.667 -0.1660  1.3407 -0.5974
    4SAPS  H13X  515   2.405   2.724   4.767 -1.1202 -2.2948  0.7129
    4SAPS  H13Y  516   2.341   2.646   4.618 -0.3819  0.9144  0.1311
    4SAPS  C314  517   2.509   2.777   4.572  0.0959  0.2893  0.3038
    4SAPS  H14X  518   2.533   2.707   4.489 -1.3068 -0.5485  0.5688
    4SAPS  H14Y  519   2.600   2.805   4.629  1.1337 -2.1081 -0.0376
    4SAPS  C315  520   2.427   2.899   4.526 -0.9875  0.3112  0.2090
    4SAPS  H15X  521   2.379   2.952   4.611 -1.6416 -1.5281  1.0318
    4SAPS  H15Y  522   2.340   2.853   4.476  0.2312  0.1378 -1.8781
    4SAPS  C316  523   2.499   2.995   4.443 -0.4524  0.1328  0.3631
    4SAPS  H16X  524   2.430   3.049   4.375 -1.0902 -1.8044 -0.6154
    4SAPS  H16Y  525   2.571   2.944   4.375 -1.3998  0.3837 -0.8692
    4SAPS  C317  526   2.583   3.095   4.530 -0.2979  0.7381  0.2147
    4SAPS  H17X  527   2.660   3.041   4.589 -0.1322  0.3964 -0.3038
    4SAPS  H17Y  528   2.523   3.160   4.597 -0.9741  0.3140  0.0347
    4SAPS  C318  529   2.668   3.184   4.438  0.3991 -0.3218 -0.2145
    4SAPS  H18X  530   2.606   3.226   4.356  1.0758  0.6487 -0.2473
    4SAPS  H18Y  531   2.750   3.126   4.391 -0.4179 -2.4656  0.8646
    4SAPS  H18Z  532   2.701   3.274   4.495  2.0996  0.3554 -2.1752
    5SAPS     N  533   0.815   2.930   7.271 -0.0879  0.2397  0.2870
    5SAPS   HN1  534   0.791   2.894   7.366 -3.3045  1.0364 -0.1083
    5SAPS   HN2  535   0.789   2.846   7.215  1.1382 -1.3756  1.9960
    5SAPS   HN3  536   0.917   2.939   7.255 -0.1030 -0.5327 -0.3007
    5SAPS   C12  537   0.737   3.046   7.242 -0.3694 -1.0064 -0.3617
    5SAPS  H12A  538   0.634   3.016   7.237 -0.4797 -0.4923 -1.6827
    5SAPS   C13  539   0.743   3.160   7.353  0.1359 -0.2870  0.0976
    5SAPS  O13A  540   0.820   3.153   7.450 -0.0724 -0.3714  0.5126
    5SAPS  O13B  541   0.667   3.262   7.339 -0.5598  0.4049  0.1861
    5SAPS   C11  542   0.779   3.098   7.102  0.3624 -0.5215  0.0994
    5SAPS  H11A  543   0.887   3.119   7.108  0.6935 -1.6136 -1.4110
    5SAPS  H11B  544   0.738   3.199   7.079 -0.2432 -1.4262 -3.3141
    5SAPS     P  545   0.634   2.991   6.917  0.1152 -0.5107 -0.1752
    5SAPS   O13  546   0.514   2.979   7.008  0.3402  0.3930  0.0726
    5SAPS   O14  547   0.625   3.110   6.828  0.1854 -0.0415 -0.1209
    5SAPS   O12  548   0.769   3.001   6.999  0.2268 -0.2169  0.1570
    5SAPS   O11  549   0.650   2.862   6.821 -0.3425 -0.4465  0.0139
    5SAPS    C1  550   0.777   2.826   6.769 -0.8118  0.2249  0.2766
    5SAPS    HA  551   0.853   2.907   6.772 -1.3021  0.7842 -1.2883
    5SAPS    HB  552   0.827   2.747   6.829 -0.4417  0.9098  0.8952
    5SAPS    C2  553   0.765   2.792   6.613 -0.4426  0.4879  0.4818
    5SAPS    HS  554   0.862   2.753   6.575 -1.2293 -3.2289  1.8374
    5SAPS   O21  555   0.718   2.908   6.550  0.5184  0.0423 -0.4911
    5SAPS   C21  556   0.800   3.005   6.507 -0.0917  0.1757  0.0443
    5SAPS   O22  557   0.919   3.004   6.525 -0.5057  0.7513  0.0598
    5SAPS   C22  558   0.726   3.120   6.431 -0.5382 -0.0388 -0.5730
    5SAPS   H2R  559   0.698   3.079   6.331 -1.0570 -0.1662 -0.3828
    5SAPS   H2S  560   0.635   3.149   6.488 -1.2993 -1.6807 -0.8785
    5SAPS    C3  561   0.662   2.675   6.579  0.3191  0.0561  0.2462
    5SAPS    HX  562   0.562   2.695   6.625 -1.3590 -1.2650 -2.5339
    5SAPS    HY  563   0.697   2.580   6.624 -0.7561 -0.5630 -0.1737
    5SAPS   O31  564   0.655   2.651   6.434 -0.7264  0.7182  0.2207
    5SAPS   C31  565   0.539   2.689   6.376  0.0777  1.1189  0.7594
    5SAPS   O32  566   0.456   2.753   6.434 -0.3419 -0.3153  0.7303
    5SAPS   C32  567   0.512   2.626   6.234  0.0312  0.0583  0.1744
    5SAPS   H2X  568   0.429   2.689   6.196  1.5474  2.1389  0.1092
    5SAPS   H2Y  569   0.471   2.523   6.242 -2.4150  0.6828 -2.5652
    5SAPS   C23  570   0.802   3.257   6.415  0.0563  0.2722  0.3380
    5SAPS   H3R  571   0.908   3.233   6.391 -0.5785 -2.2431 -0.1824
    5SAPS   H3S  572   0.796   3.313   6.510  0.5368  0.3759  0.3095
    5SAPS   C24  573   0.755   3.344   6.297 -0.0002  0.5575  0.1586
    5SAPS   H4R  574   0.769   3.296   6.197  2.8284 -0.5809  1.0116
    5SAPS   H4S  575   0.821   3.432   6.284 -0.4244  0.9387  0.5412
    5SAPS   C25  576   0.606   3.377   6.301 -0.4446 -0.5263  0.1331
    5SAPS   H5R  577   0.569   3.391   6.404  0.6003 -1.1007  0.6071
    5SAPS   C26  578   0.520   3.392   6.198  0.2488  0.1799  0.1025
    5SAPS   H6R  579   0.413   3.406   6.221  0.4692  2.4088 -0.0065
    5SAPS   C27  580   0.556   3.398   6.047 -0.0190  0.4410 -0.1811
    5SAPS   H7R  581   0.664   3.387   6.024  0.4065  1.3429  1.1900
    5SAPS   H7S  582   0.534   3.503   6.020  0.9861  0.5890 -0.4371
    5SAPS   C28  583   0.468   3.296   5.981 -0.5302 -0.0318  0.6086
    5SAPS   H8R  584   0.446   3.200   6.029 -2.4267  0.3997  0.6958
    5SAPS   C29  585   0.440   3.307   5.847  0.3062  0.5308  0.6531
    5SAPS   H9R  586   0.377   3.225   5.810  0.7778  0.2836  0.3753
    5SAPS  C210  587   0.471   3.417   5.747 -0.0169 -0.1186 -0.0449
    5SAPS  H10R  588   0.468   3.365   5.649  0.3374  2.2333 -1.4032
    5SAPS  H10S  589   0.576   3.453   5.760 -0.2097  1.4987 -2.3712
    5SAPS  C211  590   0.382   3.540   5.750  0.1067 -0.0976  0.9746
    5SAPS  H11R  591   0.323   3.564   5.840  1.4562  1.8096  1.4019
    5SAPS  C212  592   0.384   3.638   5.657 -0.0939  0.5060  0.0666
    5SAPS  H12R  593   0.306   3.716   5.656 -2.0684 -1.3782  0.0233
    5SAPS  C213  594   0.483   3.636   5.542 -0.1409 -0.1020 -0.2397
    5SAPS  H13R  595   0.510   3.536   5.503 -0.1515 -0.3088  0.2729
    5SAPS  H13S  596   0.578   3.684   5.577 -0.2514  0.1668 -0.3029
    5SAPS  C214  597   0.443   3.725   5.430  0.4758  0.1609 -0.1505
    5SAPS  H14R  598   0.452   3.834   5.435 -0.1143  0.2828 -1.4049
    5SAPS  C215  599   0.395   3.679   5.313 -0.5443 -0.7420  0.2871
    5SAPS  H15R  600   0.368   3.749   5.232  0.0970 -1.3307 -0.4499
    5SAPS  C216  601   0.376   3.530   5.283 -0.1574  0.2502 -0.1569
    5SAPS  H16R  602   0.299   3.483   5.348  0.2975 -0.1240  0.1139
    5SAPS  H16S  603   0.466   3.471   5.307  0.9759  0.8691 -2.5859
    5SAPS  C217  604   0.356   3.502   5.130 -0.0849 -0.3555  0.0809
    5SAPS  H17R  605   0.450   3.544   5.089 -0.9140  0.7948 -0.7181
    5SAPS  H17S  606   0.277   3.560   5.077 -0.4178 -1.1510 -0.3135
    5SAPS  C218  607   0.334   3.352   5.100  0.2553 -0.4293 -0.4414
    5SAPS  H18R  608   0.230   3.332   5.132  1.0140 -1.7459  1.3816
    5SAPS  H18S  609   0.395   3.291   5.171  1.6535 -0.8700 -1.9667
    5SAPS  C219  610   0.360   3.302   4.956 -1.2498  0.1878  0.2793
    5SAPS  H19R  611   0.363   3.191   4.958 -1.0659  0.1211 -1.7073
    5SAPS  H19S  612   0.459   3.329   4.912 -1.0020 -1.7236 -0.4272
    5SAPS  C220  613   0.255   3.340   4.852 -0.0417  0.3908  0.3036
    5SAPS  H20R  614   0.288   3.307   4.752  0.1842 -0.3168  0.6070
    5SAPS  H20S  615   0.235   3.449   4.843 -1.2690  0.1774  0.2757
    5SAPS  H20T  616   0.155   3.293   4.866  0.5114 -1.3407 -1.3297
    5SAPS   C33  617   0.635   2.642   6.148 -0.0810 -0.4265 -0.4135
    5SAPS   H3X  618   0.612   2.582   6.057  2.0236 -1.7354 -0.1458
    5SAPS   H3Y  619   0.728   2.596   6.188  0.7731  1.3863 -0.2197
    5SAPS   C34  620   0.652   2.789   6.102  0.4207 -0.2955 -0.7056
    5SAPS   H4X  621   0.755   2.790   6.061  1.1779  2.8503  0.9814
    5SAPS   H4Y  622   0.662   2.845   6.197  2.3931 -0.4668 -0.7721
    5SAPS   C35  623   0.544   2.848   6.011  0.2296 -0.4492 -0.4814
    5SAPS   H5X  624   0.564   2.957   6.001 -1.1048 -0.3384 -2.5139
    5SAPS   H5Y  625   0.441   2.838   6.052  0.7303 -3.2334  0.3277
    5SAPS   C36  626   0.560   2.784   5.879  1.0769 -0.0821  0.4062
    5SAPS   H6X  627   0.540   2.675   5.889 -0.0999 -0.1729 -1.9951
    5SAPS   H6Y  628   0.660   2.806   5.836  0.3654 -0.3084 -1.4678
    5SAPS   C37  629   0.467   2.823   5.759  0.4632  0.8823 -0.3850
    5SAPS   H7X  630   0.364   2.803   5.796  1.3512 -2.0754  0.7997
    5SAPS   H7Y  631   0.479   2.748   5.678 -2.0867  0.4732 -0.4544
    5SAPS   C38  632   0.483   2.963   5.710 -0.4553  0.4309  0.5398
    5SAPS   H8X  633   0.577   2.967   5.651 -0.5729 -2.6504 -0.0053
    5SAPS   H8Y  634   0.490   3.028   5.799  3.6097  0.5454  0.3503
    5SAPS   C39  635   0.369   2.995   5.614  0.0109 -0.0035 -0.5225
    5SAPS   H9X  636   0.370   3.104   5.589  1.4282  0.3971  1.1036
    5SAPS   H9Y  637   0.271   2.971   5.660  1.1187  0.4492  2.2609
    5SAPS  C310  638   0.381   2.921   5.483  0.5139  0.1991  0.2823
    5SAPS  H10X  639   0.368   2.812   5.500 -1.7256 -0.0017 -2.2140
    5SAPS  H10Y  640   0.484   2.934   5.442  1.3187  0.9390  2.3536
    5SAPS  C311  641   0.284   2.958   5.370 -0.5063 -0.7054  0.3757
    5SAPS  H11X  642   0.262   3.066   5.382 -0.1081 -0.6052  0.2157
    5SAPS  H11Y  643   0.180   2.920   5.364 -1.2652  1.0990  1.4901
    5SAPS  C312  644   0.347   2.924   5.233  0.4268 -0.0212 -0.3893
    5SAPS  H12X  645   0.388   2.821   5.236 -0.5931 -0.4168  0.7922
    5SAPS  H12Y  646   0.426   2.996   5.204 -0.1516  1.0809  0.6876
    5SAPS  C313  647   0.240   2.931   5.126  0.4788 -0.6194 -0.3389
    5SAPS  H13X  648   0.199   3.034   5.114  1.6514 -0.0706  0.2517
    5SAPS  H13Y  649   0.159   2.865   5.163  1.7800 -2.1145 -0.0450
    5SAPS  C314  650   0.284   2.877   4.992 -0.0846 -0.2536 -0.2527
    5SAPS  H14X  651   0.330   2.776   4.995  0.8825  0.1937  2.7359
    5SAPS  H14Y  652   0.360   2.946   4.950  1.9126 -0.9989  1.9536
    5SAPS  C315  653   0.164   2.862   4.896 -0.3008 -0.1792 -0.3959
    5SAPS  H15X  654   0.097   2.950   4.887 -1.3978 -0.7019  1.9403
    5SAPS  H15Y  655   0.107   2.787   4.955  2.3436 -1.4526  0.7631
    5SAPS  C316  656   0.217   2.802   4.757  0.0269 -0.2266  1.0324
    5SAPS  H16X  657   0.151   2.725   4.711  0.2032  1.4748 -2.4322
    5SAPS  H16Y  658   0.302   2.736   4.786  0.3498  0.1747  1.0022
    5SAPS  C317  659   0.251   2.914   4.657 -0.0118 -0.1078 -0.8557
    5SAPS  H17X  660   0.324   2.989   4.694 -0.8746  0.0624  0.5842
    5SAPS  H17Y  661   0.158   2.974   4.650 -0.1907 -0.4104 -1.1194
    5SAPS  C318  662   0.285   2.874   4.511 -0.1226  0.4411  0.2709
    5SAPS  H18X  663   0.306   2.965   4.451 -0.8756  1.3602  1.3622
    5SAPS  H18Y  664   0.211   2.810   4.459 -0.7547  1.9231 -0.7216
    5SAPS  H18Z  665   0.378   2.814   4.515 -1.8071 -2.3182  0.7886
    6SAPS     N  666   3.410   4.809   6.491  0.2215 -0.2703 -0.2935
    6SAPS   HN1  667   3.465   4.751   6.425  3.3250  0.4289  1.5211
    6SAPS   HN2  668   3.307   4.803   6.474  0.5061 -1.1761 -1.9442
    6SAPS   HN3  669   3.430   4.909   6.469  0.0487 -0.3884 -1.0367
    6SAPS   C12  670   3.449   4.790   6.633 -0.3679  0.0392 -0.2117
    6SAPS  H12A  671   3.469   4.683   6.638 -0.1880  0.0785 -0.0616
    6SAPS   C13  672   3.582   4.870   6.663 -0.2276 -0.0503  0.0610
    6SAPS  O13A  673   3.635   4.943   6.571  0.1622  0.4974 -0.5578
    6SAPS  O13B  674   3.646   4.857   6.771  0.1431 -0.3501 -0.5398
    6SAPS   C11  675   3.340   4.823   6.729  0.3258  0.2260 -0.0810
    6SAPS  H11A  676   3.372   4.800   6.833  1.1688  2.3819  0.1924
    6SAPS  H11B  677   3.255   4.753   6.721 -1.6215  2.1932  1.7724
    6SAPS     P  678   3.162   4.987   6.655  0.0365  0.0903  0.5475
    6SAPS   O13  679   3.057   4.922   6.740  0.1211 -0.1598  0.5831
    6SAPS   O14  680   3.153   5.135   6.644 -0.1159 -0.3724  0.1559
    6SAPS   O12  681   3.304   4.958   6.717 -0.1649  0.5305 -0.2447
    6SAPS   O11  682   3.168   4.902   6.521 -0.0293 -0.0269  0.6237
    6SAPS    C1  683   3.048   4.888   6.441  0.0272 -0.0617  1.1579
    6SAPS    HA  684   2.974   4.970   6.457 -0.1187 -0.0013  0.2242
    6SAPS    HB  685   3.076   4.889   6.334  2.8336 -2.5735  1.7301
    6SAPS    C2  686   2.963   4.761   6.461  0.1253 -0.0606  0.4408
    6SAPS    HS  687   2.908   4.771   6.557 -1.1692  1.2601 -0.3832
    6SAPS   O21  688   3.056   4.650   6.450  0.2365 -0.5777  0.4653
    6SAPS   C21  689   3.012   4.542   6.508  0.2240  0.0299  0.3468
    6SAPS   O22  690   2.907   4.540   6.572  0.6718 -0.4784  0.3536
    6SAPS   C22  691   3.097   4.417   6.482  0.6103 -1.0171 -0.0129
    6SAPS   H2R  692   3.191   4.454   6.435  0.5579  0.4068  0.9354
    6SAPS   H2S  693   3.126   4.369   6.578 -1.3808  0.1924  1.2625
    6SAPS    C3  694   2.847   4.766   6.350  0.3197  0.3240 -0.4144
    6SAPS    HX  695   2.803   4.867   6.364  0.8264  0.2430  2.3047
    6SAPS    HY  696   2.774   4.687   6.379  0.5732  0.2396  0.0061
    6SAPS   O31  697   2.903   4.754   6.219 -0.0735  0.1181  0.3437
    6SAPS   C31  698   2.906   4.850   6.128 -0.2860  0.1660  0.5869
    6SAPS   O32  699   2.862   4.962   6.144 -0.1715  0.7263 -0.3231
    6SAPS   C32  700   2.971   4.790   6.003  0.6809 -0.0197 -0.3358
    6SAPS   H2X  701   2.905   4.703   5.981 -0.0429  0.0999  1.1982
    6SAPS   H2Y  702   3.079   4.766   6.015  1.3814  2.4232 -1.2646
    6SAPS   C23  703   3.013   4.324   6.399 -0.3006 -0.1333  0.7723
    6SAPS   H3R  704   2.914   4.320   6.448 -0.8541 -2.5037 -0.3983
    6SAPS   H3S  705   3.056   4.222   6.413  0.8813  0.3977  1.1829
    6SAPS   C24  706   3.011   4.362   6.247  0.0197  0.0534  0.1090
    6SAPS   H4R  707   3.115   4.377   6.211 -0.0699 -1.3911 -0.8567
    6SAPS   H4S  708   2.945   4.449   6.229 -0.1767 -0.4198 -1.5608
    6SAPS   C25  709   2.963   4.262   6.146  0.6692 -0.3168 -0.6428
    6SAPS   H5R  710   2.902   4.182   6.191  1.9710 -0.4518  0.9666
    6SAPS   C26  711   2.970   4.278   6.016 -0.3129 -0.1045 -0.4575
    6SAPS   H6R  712   2.942   4.193   5.952  1.4411  0.6120 -2.2633
    6SAPS   C27  713   3.042   4.390   5.947 -0.0546 -0.2587  0.4646
    6SAPS   H7R  714   3.103   4.467   6.000  0.1311  0.0418 -0.1733
    6SAPS   H7S  715   2.961   4.454   5.906  0.2194 -0.7938 -0.9721
    6SAPS   C28  716   3.124   4.346   5.832  0.0346  0.5314  0.2242
    6SAPS   H8R  717   3.219   4.300   5.863 -0.1629 -0.0465 -0.0106
    6SAPS   C29  718   3.098   4.338   5.701 -0.1806 -0.1319  0.2058
    6SAPS   H9R  719   3.182   4.306   5.636 -0.0618 -1.6808  1.0845
    6SAPS  C210  720   2.976   4.388   5.631  0.1140  0.1993  0.3853
    6SAPS  H10R  721   2.899   4.422   5.704 -0.1191  0.3176  0.0884
    6SAPS  H10S  722   2.916   4.309   5.581  1.0287 -0.6189  0.5542
    6SAPS  C211  723   2.998   4.505   5.539  0.6891 -0.6329 -0.4811
    6SAPS  H11R  724   3.058   4.583   5.588 -0.3602 -0.9258  1.3314
    6SAPS  C212  725   2.935   4.531   5.425 -0.1309  0.6903  0.8728
    6SAPS  H12R  726   2.958   4.626   5.374 -0.5598 -0.1817 -1.0521
    6SAPS  C213  727   2.827   4.449   5.346 -0.0018 -0.3561 -1.2089
    6SAPS  H13R  728   2.730   4.478   5.391  1.5504 -0.6451  2.7301
    6SAPS  H13S  729   2.845   4.344   5.376  0.9098  0.0893 -0.0798
    6SAPS  C214  730   2.846   4.448   5.199 -0.6905 -0.0202 -0.2043
    6SAPS  H14R  731   2.892   4.357   5.158  1.1281  0.1980  1.2154
    6SAPS  C215  732   2.805   4.552   5.124 -0.5305 -0.6276  0.4784
    6SAPS  H15R  733   2.834   4.542   5.018  0.1063 -1.0888  0.6899
    6SAPS  C216  734   2.730   4.681   5.165 -0.2081 -0.8647  0.1174
    6SAPS  H16R  735   2.775   4.764   5.108 -1.7396  0.2822  0.5072
    6SAPS  H16S  736   2.750   4.713   5.269 -1.1831  4.1336 -0.9778
    6SAPS  C217  737   2.583   4.673   5.147  0.1607  0.3448  0.3123
    6SAPS  H17R  738   2.537   4.608   5.225  2.6204 -0.8796  0.8501
    6SAPS  H17S  739   2.556   4.634   5.046  1.6639 -0.8909  0.3447
    6SAPS  C218  740   2.512   4.809   5.145 -0.4355 -0.0946 -0.0505
    6SAPS  H18R  741   2.567   4.868   5.068  0.1191 -2.1231 -1.3226
    6SAPS  H18S  742   2.523   4.855   5.245 -1.5748  0.5205 -0.1971
    6SAPS  C219  743   2.363   4.790   5.119 -0.0129  0.0838  0.0932
    6SAPS  H19R  744   2.317   4.745   5.209 -1.9217  0.9960 -0.3787
    6SAPS  H19S  745   2.341   4.729   5.029 -0.7985  2.0525 -1.1380
    6SAPS  C220  746   2.286   4.922   5.102 -0.0451 -0.2731 -0.7879
    6SAPS  H20R  747   2.189   4.907   5.051  0.0037  0.4255 -1.0956
    6SAPS  H20S  748   2.340   4.989   5.032 -0.6796  0.8272 -0.2535
    6SAPS  H20T  749   2.260   4.968   5.200 -1.0497 -1.6007 -0.4060
    6SAPS   C33  750   2.970   4.880   5.881 -0.2486 -0.0740 -0.1482
    6SAPS   H3X  751   3.063   4.941   5.886 -0.2035 -0.0918 -0.6700
    6SAPS   H3Y  752   2.887   4.953   5.895  0.5618  0.9006 -0.3099
    6SAPS   C34  753   2.967   4.798   5.759  0.0704  0.4243  0.0853
    6SAPS   H4X  754   2.879   4.731   5.769 -0.7833  1.5162  0.1552
    6SAPS   H4Y  755   3.050   4.725   5.754 -0.6534 -0.3722 -0.4877
    6SAPS   C35  756   2.950   4.887   5.629  1.1927  0.3644 -0.7447
    6SAPS   H5X  757   2.949   4.818   5.541  1.5400  0.2709 -0.6763
    6SAPS   H5Y  758   3.037   4.954   5.614 -0.2262  2.3060 -0.7367
    6SAPS   C36  759   2.821   4.967   5.635  0.4072  0.4112 -0.3568
    6SAPS   H6X  760   2.834   5.065   5.684 -2.3763 -1.1415  4.1821
    6SAPS   H6Y  761   2.745   4.916   5.699  3.1668 -2.5308  0.8732
    6SAPS   C37  762   2.754   4.997   5.497 -0.1624  0.2896 -0.5326
    6SAPS   H7X  763   2.659   5.052   5.510  0.3708  0.7937  1.6999
    6SAPS   H7Y  764   2.722   4.900   5.454 -1.7208  0.6995 -0.3545
    6SAPS   C38  765   2.841   5.055   5.386 -0.1013  0.1370  0.5737
    6SAPS   H8X  766   2.934   4.995   5.387  0.1751  0.5396 -0.0494
    6SAPS   H8Y  767   2.872   5.160   5.405 -0.0863  0.0703  0.9363
    6SAPS   C39  768   2.777   5.051   5.243  0.1124  0.2993 -0.4776
    6SAPS   H9X  769   2.678   5.101   5.250 -0.1577 -0.4216  1.3107
    6SAPS   H9Y  770   2.766   4.945   5.213  0.3323  0.3221 -0.6432
    6SAPS  C310  771   2.877   5.108   5.130 -0.0133 -0.2763 -0.1225
    6SAPS  H10X  772   2.975   5.059   5.151 -0.6907 -0.7160  2.4137
    6SAPS  H10Y  773   2.887   5.215   5.156 -0.5207 -0.1182 -0.5716
    6SAPS  C311  774   2.827   5.073   4.993 -0.2354  0.2856  0.4120
    6SAPS  H11X  775   2.729   5.125   4.984 -0.5965 -0.7111 -2.6577
    6SAPS  H11Y  776   2.804   4.964   4.994  0.3160  0.1647  1.7693
    6SAPS  C312  777   2.913   5.108   4.876 -0.0314 -0.0229  1.1608
    6SAPS  H12X  778   3.011   5.057   4.876  0.1452 -0.1924 -3.9088
    6SAPS  H12Y  779   2.931   5.218   4.866  0.1561 -0.1333  0.1698
    6SAPS  C313  780   2.840   5.083   4.742 -0.3165 -0.6472  1.0827
    6SAPS  H13X  781   2.736   5.120   4.752  0.0052  0.8007 -0.4898
    6SAPS  H13Y  782   2.828   4.977   4.712  1.3114 -1.0861  1.8247
    6SAPS  C314  783   2.917   5.154   4.621  0.7917 -0.2781 -0.7498
    6SAPS  H14X  784   3.011   5.096   4.609 -0.7278 -2.6229 -2.2772
    6SAPS  H14Y  785   2.940   5.256   4.659 -0.7410 -0.2156  0.0973
    6SAPS  C315  786   2.859   5.160   4.479  0.4998  0.1043 -0.2915
    6SAPS  H15X  787   2.757   5.205   4.475 -0.5308 -1.8479  1.9551
    6SAPS  H15Y  788   2.833   5.062   4.433  0.6826  0.9185 -2.2486
    6SAPS  C316  789   2.941   5.247   4.380 -0.5198 -0.4420  0.3714
    6SAPS  H16X  790   2.894   5.256   4.280  2.6697  0.7588 -1.1677
    6SAPS  H16Y  791   3.036   5.192   4.363 -1.8739 -2.0012 -2.9119
    6SAPS  C317  792   2.978   5.391   4.426  1.9150  0.2375 -0.2391
    6SAPS  H17X  793   3.049   5.442   4.358  1.5482  2.0051  0.6491
    6SAPS  H17Y  794   3.033   5.389   4.523  1.5220 -2.4564  0.0058
    6SAPS  C318  795   2.855   5.472   4.464 -0.3679 -0.1534 -0.6563
    6SAPS  H18X  796   2.803   5.431   4.553 -1.2669  1.7246 -0.2695
    6SAPS  H18Y  797   2.778   5.476   4.384  1.7720  1.5082 -2.7688
    6SAPS  H18Z  798   2.902   5.572   4.476  4.0860 -1.9831 -1.2852
    7SAPS     N  799   4.112   6.657   6.768 -0.0704 -0.1111 -0.0131
    7SAPS   HN1  800   4.026   6.695   6.724  0.6560 -1.5492 -2.9351
    7SAPS   HN2  801   4.104   6.664   6.872  2.0589 -2.4005  0.3802
    7SAPS   HN3  802   4.194   6.715   6.741 -1.9286  2.3715 -0.7277
    7SAPS   C12  803   4.119   6.515   6.720  0.5747  0.5882 -1.2630
    7SAPS  H12A  804   4.187   6.452   6.776 -0.0655  0.0791 -1.0420
    7SAPS   C13  805   3.989   6.435   6.746  0.4852 -0.7169 -0.5513
    7SAPS  O13A  806   3.890   6.490   6.805  0.3139  0.3231 -0.1636
    7SAPS  O13B  807   3.993   6.311   6.719  0.0630  0.7632  0.1785
    7SAPS   C11  808   4.160   6.508   6.571 -0.4188  0.0247  0.0381
    7SAPS  H11A  809   4.087   6.569   6.515 -0.0655  3.1946  2.7381
    7SAPS  H11B  810   4.156   6.402   6.539  0.6792 -0.3086  0.8969
    7SAPS     P  811   4.383   6.536   6.443  0.6118  0.3176  0.0432
    7SAPS   O13  812   4.485   6.642   6.440 -0.4542  0.4473 -0.4684
    7SAPS   O14  813   4.430   6.398   6.429 -0.0837 -1.0313 -0.0107
    7SAPS   O12  814   4.293   6.556   6.571  0.4378 -0.3715  0.2547
    7SAPS   O11  815   4.277   6.545   6.333  0.8629  0.1191 -0.1074
    7SAPS    C1  816   4.255   6.664   6.253  0.0855 -0.4625 -0.6279
    7SAPS    HA  817   4.244   6.758   6.312  1.5542  0.3632 -1.5906
    7SAPS    HB  818   4.343   6.680   6.188  0.2969  0.0059 -0.2347
    7SAPS    C2  819   4.132   6.643   6.162 -0.4259 -0.1606 -0.0830
    7SAPS    HS  820   4.038   6.622   6.219 -0.5402  1.7338  0.4936
    7SAPS   O21  821   4.158   6.541   6.061  0.3788 -0.1065 -0.0469
    7SAPS   C21  822   4.052   6.501   5.992 -0.4507  0.0211 -0.2133
    7SAPS   O22  823   3.941   6.538   6.003  0.0865 -0.1388  0.0723
    7SAPS   C22  824   4.099   6.393   5.890  0.2292 -0.2205 -0.4544
    7SAPS   H2R  825   4.114   6.295   5.940 -2.3900 -0.2179  0.4832
    7SAPS   H2S  826   4.022   6.359   5.818  1.3300 -0.0135 -1.7744
    7SAPS    C3  827   4.097   6.776   6.089  0.2323 -0.1256 -0.2280
    7SAPS    HX  828   4.073   6.851   6.167 -0.2551 -0.2523 -0.2569
    7SAPS    HY  829   4.006   6.762   6.028 -0.3757 -2.8675  1.1470
    7SAPS   O31  830   4.214   6.822   6.010 -0.4136  0.6756  0.0603
    7SAPS   C31  831   4.232   6.799   5.876 -0.0192 -0.1274 -0.4876
    7SAPS   O32  832   4.153   6.744   5.810  0.2833  0.2894  0.6526
    7SAPS   C32  833   4.373   6.842   5.842 -0.4917 -0.3179 -0.0372
    7SAPS   H2X  834   4.449   6.776   5.888  2.0783  2.9821  0.8834
    7SAPS   H2Y  835   4.395   6.935   5.899  1.0656 -0.6292 -0.0862
    7SAPS   C23  836   4.219   6.439   5.814  0.1556  0.0187  0.0604
    7SAPS   H3R  837   4.306   6.468   5.878 -0.2039  0.6000  0.2913
    7SAPS   H3S  838   4.192   6.530   5.758 -1.0333 -1.2114 -1.4539
    7SAPS   C24  839   4.262   6.344   5.705 -0.4313 -0.3732  0.8644
    7SAPS   H4R  840   4.305   6.406   5.623  1.8180 -0.7330  1.6965
    7SAPS   H4S  841   4.175   6.286   5.669 -1.5162  0.3173  2.2653
    7SAPS   C25  842   4.369   6.252   5.760 -0.1058  0.1261  0.1853
    7SAPS   H5R  843   4.324   6.165   5.811 -0.4209  1.6776  2.7251
    7SAPS   C26  844   4.498   6.261   5.740 -1.3868 -0.1751 -0.3150
    7SAPS   H6R  845   4.559   6.182   5.786 -1.6917  0.0720  0.5385
    7SAPS   C27  846   4.585   6.364   5.678 -0.0109  0.1095 -0.1081
    7SAPS   H7R  847   4.690   6.350   5.712  0.3589  3.6036  0.6459
    7SAPS   H7S  848   4.568   6.466   5.719 -2.1212 -0.7740  1.3747
    7SAPS   C28  849   4.576   6.365   5.533 -0.0189 -0.0373 -0.4820
    7SAPS   H8R  850   4.477   6.369   5.486 -0.3259  2.5165  0.2367
    7SAPS   C29  851   4.680   6.364   5.453 -0.3514 -0.8262  0.0779
    7SAPS   H9R  852   4.664   6.374   5.345  0.4373  0.6498  0.0699
    7SAPS  C210  853   4.824   6.348   5.485  1.2579 -0.1844  0.6817
    7SAPS  H10R  854   4.837   6.262   5.554 -2.6382 -1.1273  0.4564
    7SAPS  H10S  855   4.871   6.441   5.523  1.3937  0.8787 -1.8726
    7SAPS  C211  856   4.906   6.305   5.362 -0.8445 -0.4824 -0.2215
    7SAPS  H11R  857   4.917   6.196   5.348  1.9208  0.0427 -3.1744
    7SAPS  C212  858   4.963   6.379   5.267  0.2849  0.6413  0.0417
    7SAPS  H12R  859   5.013   6.319   5.190 -0.9620 -2.0905  1.2363
    7SAPS  C213  860   4.959   6.530   5.257  0.6131  0.3612 -0.2920
    7SAPS  H13R  861   5.043   6.557   5.189 -1.2051  1.4303 -2.2374
    7SAPS  H13S  862   4.965   6.569   5.361 -0.6416 -0.6127  0.1753
    7SAPS  C214  863   4.828   6.572   5.202  0.7084  0.1240  0.0425
    7SAPS  H14R  864   4.753   6.591   5.281 -0.3392 -1.1645 -0.6071
    7SAPS  C215  865   4.801   6.606   5.082 -0.4501  0.0135  0.1086
    7SAPS  H15R  866   4.696   6.620   5.054 -0.7849 -0.6052  1.0152
    7SAPS  C216  867   4.905   6.616   4.975 -0.2466  0.5941 -0.6035
    7SAPS  H16R  868   4.930   6.515   4.936  1.7183  1.4823 -1.8012
    7SAPS  H16S  869   4.995   6.665   5.016  0.8620 -3.1636  1.9753
    7SAPS  C217  870   4.847   6.695   4.860  0.1827  0.3866  0.6006
    7SAPS  H17R  871   4.806   6.794   4.891 -1.8247  0.1790 -1.1178
    7SAPS  H17S  872   4.771   6.644   4.797  0.6261  1.8562 -1.2051
    7SAPS  C218  873   4.957   6.740   4.755  0.5933 -0.3508 -0.2141
    7SAPS  H18R  874   4.936   6.706   4.651  3.1223 -1.6000 -0.4029
    7SAPS  H18S  875   5.049   6.692   4.794  1.3240  0.4066 -0.9637
    7SAPS  C219  876   4.986   6.888   4.734 -0.1525  0.0050  0.2466
    7SAPS  H19R  877   4.900   6.950   4.699 -0.8929 -0.2667  1.5357
    7SAPS  H19S  878   5.059   6.914   4.655 -0.9348  0.0101 -0.5006
    7SAPS  C220  879   5.032   6.959   4.863  0.7157 -0.5127 -0.1110
    7SAPS  H20R  880   5.056   7.064   4.838  1.9472 -0.8510 -0.4533
    7SAPS  H20S  881   5.122   6.908   4.906 -1.0947 -1.6049  2.6857
    7SAPS  H20T  882   4.952   6.954   4.940  0.2432 -2.2315 -0.6629
    7SAPS   C33  883   4.392   6.867   5.685 -0.3134  0.3729 -0.8728
    7SAPS   H3X  884   4.433   6.971   5.691 -2.2820  1.2785 -2.3247
    7SAPS   H3Y  885   4.295   6.881   5.635  0.0276  1.0850 -1.3602
    7SAPS   C34  886   4.492   6.766   5.629  0.5905  0.5465  0.3477
    7SAPS   H4X  887   4.439   6.668   5.622 -0.2041  0.9258  0.8190
    7SAPS   H4Y  888   4.574   6.745   5.702 -0.9872  0.7437  2.2717
    7SAPS   C35  889   4.545   6.788   5.484  0.7298  0.0355  0.2863
    7SAPS   H5X  890   4.623   6.711   5.465  0.6365 -0.2005  0.8416
    7SAPS   H5Y  891   4.582   6.892   5.488 -0.0809  0.2887  1.6941
    7SAPS   C36  892   4.443   6.770   5.363 -0.2850 -0.2409 -0.2914
    7SAPS   H6X  893   4.489   6.814   5.272  1.1198  1.4266  1.1498
    7SAPS   H6Y  894   4.354   6.832   5.387  0.4446  0.9547 -0.5929
    7SAPS   C37  895   4.412   6.627   5.343  0.3379  0.8348  0.4804
    7SAPS   H7X  896   4.360   6.583   5.431 -1.9824 -0.0274 -1.1968
    7SAPS   H7Y  897   4.508   6.576   5.319  0.1532  0.3259  0.7987
    7SAPS   C38  898   4.313   6.608   5.223  0.0373  0.6643 -0.0374
    7SAPS   H8X  899   4.222   6.669   5.242 -1.0117 -0.2290 -1.9460
    7SAPS   H8Y  900   4.275   6.503   5.229  3.3471 -0.7299 -1.0801
    7SAPS   C39  901   4.360   6.624   5.078  0.3954  0.1821 -0.6856
    7SAPS   H9X  902   4.431   6.544   5.048 -2.0716 -2.1733 -0.5947
    7SAPS   H9Y  903   4.411   6.721   5.064 -1.3542  1.3017  0.3183
    7SAPS  C310  904   4.238   6.589   4.990  0.8313 -0.1715 -0.3361
    7SAPS  H10X  905   4.152   6.658   5.006  2.9506  2.4159  0.7487
    7SAPS  H10Y  906   4.197   6.487   5.008  2.3929 -0.5652  1.3654
    7SAPS  C311  907   4.274   6.607   4.843  0.4597  0.1164 -0.2828
    7SAPS  H11X  908   4.182   6.571   4.792 -1.7322  2.6555  1.6108
    7SAPS  H11Y  909   4.361   6.542   4.819  0.5885  0.2389 -0.1542
    7SAPS  C312  910   4.312   6.749   4.800  0.3728  0.2355  0.2175
    7SAPS  H12X  911   4.319   6.813   4.890 -0.6961  2.0681 -0.9474
    7SAPS  H12Y  912   4.232   6.793   4.738 -1.7508  1.0038  3.2628
    7SAPS  C313  913   4.450   6.751   4.721 -0.0804 -0.2254 -1.0943
    7SAPS  H13X  914   4.520   6.705   4.793 -3.5435 -1.2976  1.9034
    7SAPS  H13Y  915   4.482   6.854   4.696  1.1405 -0.2837  0.1363
    7SAPS  C314  916   4.443   6.669   4.597  0.1302  1.0489  0.7100
    7SAPS  H14X  917   4.385   6.574   4.609  0.3878  0.4908 -1.9305
    7SAPS  H14Y  918   4.550   6.643   4.583 -0.0320  0.6001  0.2901
    7SAPS  C315  919   4.400   6.752   4.472  0.0800 -0.2060  0.2456
    7SAPS  H15X  920   4.471   6.837   4.467 -1.2539  1.2102  2.7781
    7SAPS  H15Y  921   4.294   6.787   4.476 -0.1794 -0.6437 -1.8887
    7SAPS  C316  922   4.392   6.664   4.346  0.3292  0.0749  0.3891
    7SAPS  H16X  923   4.306   6.599   4.373 -0.6254  1.0398 -0.1972
    7SAPS  H16Y  924   4.490   6.614   4.337 -0.0335 -0.9689  1.8290
    7SAPS  C317  925   4.369   6.745   4.214  0.5209 -0.0839  0.8529
    7SAPS  H17X  926   4.440   6.830   4.210 -1.5430  1.6753 -0.4359
    7SAPS  H17Y  927   4.274   6.803   4.212  1.3009  1.2155 -1.3597
    7SAPS  C318  928   4.401   6.679   4.082 -0.0821  0.2226  0.4755
    7SAPS  H18X  929   4.502   6.632   4.081 -1.4306 -2.9631 -0.9337
    7SAPS  H18Y  930   4.393   6.760   4.007 -0.9108  0.4191  0.7580
    7SAPS  H18Z  931   4.334   6.592   4.063  1.2429 -0.8231  0.3875
    8SAPS     N  932   3.939   1.628   6.886 -0.1469  0.5917  0.5201
    8SAPS   HN1  933   3.879   1.697   6.936  1.7883  2.1033  0.8324
    8SAPS   HN2  934   4.029   1.675   6.863 -0.2705  0.6639  0.1685
    8SAPS   HN3  935   3.893   1.583   6.804  1.4858 -1.1826  0.5056
    8SAPS   C12  936   3.978   1.523   6.985  0.3959  0.6712 -0.0303
    8SAPS  H12A  937   4.073   1.549   7.030  0.7860 -0.6413 -0.0488
    8SAPS   C13  938   3.881   1.495   7.097  0.5716  0.5030 -0.4329
    8SAPS  O13A  939   3.769   1.555   7.098 -0.4084 -0.0271 -0.9243
    8SAPS  O13B  940   3.910   1.410   7.180  0.9827  0.5175 -0.1263
    8SAPS   C11  941   4.006   1.382   6.913 -0.3621 -0.5035  0.3802
    8SAPS  H11A  942   4.054   1.318   6.990  0.8408  0.7699  0.7346
    8SAPS  H11B  943   4.096   1.385   6.848  0.2591 -0.8822  1.2065
    8SAPS     P  944   3.863   1.360   6.692  0.5431  0.2317  0.2205
    8SAPS   O13  945   3.761   1.262   6.636 -0.1987 -0.2819  0.2123
    8SAPS   O14  946   3.829   1.504   6.675  0.0516 -0.2638  1.1270
    8SAPS   O12  947   3.891   1.330   6.848 -0.6299 -0.8066  0.3250
    8SAPS   O11  948   4.000   1.347   6.632  0.3155  0.0059 -0.8044
    8SAPS    C1  949   4.054   1.237   6.551  0.7100 -0.4288 -0.0858
    8SAPS    HA  950   4.153   1.209   6.593  0.9843  0.2201 -0.2780
    8SAPS    HB  951   3.997   1.142   6.552 -3.2441  1.7366 -0.2586
    8SAPS    C2  952   4.053   1.270   6.399  0.1344  0.9604 -0.1892
    8SAPS    HS  953   4.106   1.367   6.388 -1.8911  2.0021 -1.2622
    8SAPS   O21  954   3.919   1.275   6.356  0.3967  0.0168  0.5943
    8SAPS   C21  955   3.864   1.392   6.316 -0.2628  0.4013  0.1956
    8SAPS   O22  956   3.929   1.496   6.312 -0.4957 -0.1128  0.6195
    8SAPS   C22  957   3.712   1.375   6.309 -0.4285 -0.8037  0.3109
    8SAPS   H2R  958   3.681   1.268   6.306  0.1449 -1.0230  1.6823
    8SAPS   H2S  959   3.671   1.422   6.401 -0.3609  1.2564 -0.6701
    8SAPS    C3  960   4.122   1.147   6.328  0.7687  0.0302  0.1871
    8SAPS    HX  961   4.066   1.054   6.355  0.2183 -0.0344 -1.1212
    8SAPS    HY  962   4.229   1.132   6.356  1.2079  0.3568 -1.2707
    8SAPS   O31  963   4.135   1.160   6.191 -0.3794  0.3592 -0.0371
    8SAPS   C31  964   4.033   1.103   6.125  0.2554  0.0719  0.2718
    8SAPS   O32  965   3.935   1.048   6.176  0.2819 -0.3886  0.8628
    8SAPS   C32  966   4.079   1.104   5.975  0.4451  0.4895 -0.0655
    8SAPS   H2X  967   4.035   1.011   5.934  1.9129 -0.4609  0.4391
    8SAPS   H2Y  968   4.189   1.102   5.966  0.8360 -1.4755  3.2208
    8SAPS   C23  969   3.654   1.444   6.179 -0.5675 -0.0199 -0.1253
    8SAPS   H3R  970   3.702   1.543   6.165  0.3551 -0.1271  1.9914
    8SAPS   H3S  971   3.543   1.455   6.181 -0.5377  0.2528  0.9898
    8SAPS   C24  972   3.699   1.356   6.053 -0.3120  0.9132  0.3848
    8SAPS   H4R  973   3.799   1.314   6.076 -0.4681 -0.4228 -1.1872
    8SAPS   H4S  974   3.712   1.433   5.975 -1.8124  2.0323  1.1837
    8SAPS   C25  975   3.607   1.247   6.011  0.0805  0.0105 -0.0688
    8SAPS   H5R  976   3.580   1.176   6.091 -0.7473  2.3284  1.8193
    8SAPS   C26  977   3.562   1.222   5.889  0.0555  0.7434  0.5548
    8SAPS   H6R  978   3.495   1.139   5.861  0.8278  0.6630 -1.1767
    8SAPS   C27  979   3.603   1.300   5.761 -0.3752  0.5002 -0.1221
    8SAPS   H7R  980   3.614   1.408   5.788 -0.8375  0.5391 -0.0778
    8SAPS   H7S  981   3.518   1.316   5.691  1.5082  2.6916 -2.0975
    8SAPS   C28  982   3.719   1.249   5.678  0.0140 -0.9743  0.5516
    8SAPS   H8R  983   3.821   1.278   5.705 -0.5674 -0.7008  2.6378
    8SAPS   C29  984   3.707   1.171   5.564 -0.2958 -0.2768 -0.4377
    8SAPS   H9R  985   3.799   1.144   5.510  0.1634  1.4223 -0.5774
    8SAPS  C210  986   3.586   1.112   5.488 -0.3290  0.4678  0.4896
    8SAPS  H10R  987   3.549   1.024   5.544  1.3946  1.7457  3.9047
    8SAPS  H10S  988   3.636   1.071   5.398  1.5172 -0.8309  2.0195
    8SAPS  C211  989   3.471   1.206   5.451 -0.2027 -0.1733  0.1723
    8SAPS  H11R  990   3.385   1.213   5.519 -0.6926  0.9622 -0.5317
    8SAPS  C212  991   3.467   1.292   5.344  0.5837  0.2861  0.0510
    8SAPS  H12R  992   3.368   1.341   5.337 -0.4387 -1.2801  2.2815
    8SAPS  C213  993   3.548   1.287   5.226 -0.8193 -0.2728  0.1212
    8SAPS  H13R  994   3.479   1.291   5.139  1.7245 -0.4486 -2.0231
    8SAPS  H13S  995   3.596   1.189   5.206 -2.4220 -0.3891 -4.1268
    8SAPS  C214  996   3.649   1.409   5.216 -0.2691  0.5468  0.3208
    8SAPS  H14R  997   3.715   1.411   5.304 -1.4153 -1.0491  1.2725
    8SAPS  C215  998   3.667   1.501   5.115  0.7731  0.7466 -0.3851
    8SAPS  H15R  999   3.733   1.587   5.135 -0.5884  2.0048 -1.1134
    8SAPS  C216 1000   3.579   1.510   4.989 -0.1372 -0.4325  0.4572
    8SAPS  H16R 1001   3.476   1.493   5.028  0.6764 -2.6550  1.8201
    8SAPS  H16S 1002   3.597   1.427   4.918  1.1651 -1.7827  2.2654
    8SAPS  C217 1003   3.568   1.635   4.897 -0.2350 -0.1434 -0.6791
    8SAPS  H17R 1004   3.553   1.728   4.957  0.7723 -1.3528  1.5422
    8SAPS  H17S 1005   3.470   1.620   4.848 -0.9236 -0.2373  0.6677
    8SAPS  C218 1006   3.678   1.641   4.790  0.2131  0.4913 -0.4319
    8SAPS  H18R 1007   3.662   1.550   4.728 -1.3594 -0.0996  0.7776
    8SAPS  H18S 1008   3.779   1.637   4.835  0.7098 -2.2919 -1.5370
    8SAPS  C219 1009   3.664   1.777   4.727  0.3218  0.7754  0.4036
    8SAPS  H19R 1010   3.751   1.803   4.664 -0.2495  0.3308 -0.5826
    8SAPS  H19S 1011   3.653   1.847   4.812  0.7804  1.8349 -0.3964
    8SAPS  C220 1012   3.546   1.795   4.633 -0.7007  0.1795 -0.3078
    8SAPS  H20R 1013   3.547   1.728   4.544  1.4951 -0.9191  0.4694
    8SAPS  H20S 1014   3.561   1.898   4.594  0.1139  0.7841  1.5091
    8SAPS  H20T 1015   3.447   1.781   4.682 -0.2611 -2.1066  0.0261
    8SAPS   C33 1016   4.010   1.211   5.877  0.0064  0.4618 -0.3669
    8SAPS   H3X 1017   3.903   1.230   5.904 -0.2885  0.3704 -1.4108
    8SAPS   H3Y 1018   3.992   1.163   5.779  0.1650 -1.0926  0.3466
    8SAPS   C34 1019   4.082   1.346   5.868  0.8843  0.7628  0.0560
    8SAPS   H4X 1020   4.191   1.328   5.863  0.7709 -0.2305  0.9468
    8SAPS   H4Y 1021   4.057   1.384   5.969  0.3004  0.6365 -0.0370
    8SAPS   C35 1022   4.030   1.443   5.767 -0.2237  0.2169 -0.6029
    8SAPS   H5X 1023   4.076   1.541   5.790  0.2715 -0.1403 -0.0511
    8SAPS   H5Y 1024   3.922   1.455   5.792 -0.0608  0.7161 -0.1201
    8SAPS   C36 1025   4.057   1.408   5.622  0.1977 -0.3817 -0.6703
    8SAPS   H6X 1026   4.014   1.308   5.598  0.2576 -0.3851 -0.7655
    8SAPS   H6Y 1027   4.166   1.387   5.611  0.0475 -0.5214 -2.0768
    8SAPS   C37 1028   4.030   1.527   5.529 -0.0671 -0.5127  0.3614
    8SAPS   H7X 1029   4.081   1.618   5.565 -1.3450  0.9474 -1.3411
    8SAPS   H7Y 1030   3.920   1.542   5.523 -0.0070  0.6825  1.7580
    8SAPS   C38 1031   4.081   1.498   5.384 -0.3659  0.1352 -0.0558
    8SAPS   H8X 1032   4.031   1.404   5.353 -0.7303  0.8219 -1.6263
    8SAPS   H8Y 1033   4.190   1.473   5.386 -0.2795  0.4813  2.2300
    8SAPS   C39 1034   4.045   1.614   5.295 -0.1400  0.4749  0.5865
    8SAPS   H9X 1035   4.117   1.698   5.300 -0.9905  1.3314 -0.7771
    8SAPS   H9Y 1036   3.944   1.658   5.306 -1.2548 -0.9327 -2.7742
    8SAPS  C310 1037   4.049   1.576   5.147 -0.2303  0.1493  0.1454
    8SAPS  H10X 1038   4.041   1.662   5.077  0.2155 -0.8466 -1.1644
    8SAPS  H10Y 1039   3.959   1.515   5.127  1.8734 -2.4683 -2.1957
    8SAPS  C311 1040   4.168   1.493   5.095 -0.0351  0.1082 -0.1636
    8SAPS  H11X 1041   4.148   1.395   5.143 -4.7223  0.6814 -0.5080
    8SAPS  H11Y 1042   4.268   1.538   5.112  1.3617 -2.4051 -1.2787
    8SAPS  C312 1043   4.167   1.473   4.938 -0.1330  0.2880 -0.0175
    8SAPS  H12X 1044   4.069   1.438   4.901 -0.5280  0.9782  0.3576
    8SAPS  H12Y 1045   4.244   1.396   4.915  1.4102  1.4198  1.1158
    8SAPS  C313 1046   4.218   1.601   4.864  0.0863  0.4193  0.3178
    8SAPS  H13X 1047   4.318   1.636   4.899  0.0293  0.3079  0.5978
    8SAPS  H13Y 1048   4.150   1.684   4.894 -0.7316 -0.0299 -0.2670
    8SAPS  C314 1049   4.208   1.582   4.712  0.0429 -0.7445 -0.5612
    8SAPS  H14X 1050   4.262   1.491   4.677 -0.1236 -0.5519 -1.3438
    8SAPS  H14Y 1051   4.261   1.672   4.673 -1.6266  0.3609 -0.3890
    8SAPS  C315 1052   4.068   1.580   4.652  0.5613 -0.4493  0.1887
    8SAPS  H15X 1053   4.011   1.673   4.675  0.8266 -0.4122  0.7096
    8SAPS  H15Y 1054   4.007   1.493   4.685 -2.0575  1.8395  1.8310
    8SAPS  C316 1055   4.075   1.562   4.492 -0.1059  0.0555 -0.3566
    8SAPS  H16X 1056   4.121   1.464   4.467  2.3044  0.9199  0.4357
    8SAPS  H16Y 1057   4.128   1.641   4.436 -1.6997  1.9686  0.7087
    8SAPS  C317 1058   3.937   1.572   4.427  0.3106 -0.7948  0.3179
    8SAPS  H17X 1059   3.893   1.667   4.464  2.4181 -0.4481  2.1985
    8SAPS  H17Y 1060   3.868   1.493   4.464 -1.0590  0.1773 -0.1070
    8SAPS  C318 1061   3.931   1.571   4.277 -0.4266 -0.2139 -0.5629
    8SAPS  H18X 1062   3.983   1.483   4.234  0.1455 -1.1292  1.8654
    8SAPS  H18Y 1063   3.981   1.663   4.239 -0.4508 -0.3144 -0.8377
    8SAPS  H18Z 1064   3.827   1.576   4.238 -0.6478 -1.0882 -0.1059
    9SAPS     N 1065   1.011   3.849   6.747  0.3310 -0.0622 -0.0224
    9SAPS   HN1 1066   0.980   3.762   6.699 -0.5340  1.1225 -1.7225
    9SAPS   HN2 1067   0.934   3.881   6.809  1.4550 -1.2032  2.0698
    9SAPS   HN3 1068   1.034   3.916   6.671  0.3559 -1.3803 -1.2246
    9SAPS   C12 1069   1.126   3.829   6.840 -0.5325 -0.3867  0.1290
    9SAPS  H12A 1070   1.148   3.923   6.887  2.1036 -1.0413  0.3948
    9SAPS   C13 1071   1.106   3.729   6.951 -0.7265  0.0746  0.6507
    9SAPS  O13A 1072   0.990   3.691   6.985 -0.3826  0.3788 -0.4898
    9SAPS  O13B 1073   1.209   3.694   7.022 -0.0350  0.2756  0.4354
    9SAPS   C11 1074   1.258   3.798   6.756  0.4993 -0.0631  0.3336
    9SAPS  H11A 1075   1.236   3.707   6.696 -0.4410  1.5368 -1.8804
    9SAPS  H11B 1076   1.344   3.781   6.824 -1.4650 -0.9303  2.7312
    9SAPS     P 1077   1.351   4.044   6.694  0.1221 -0.0718 -0.5369
    9SAPS   O13 1078   1.240   4.140   6.698  0.1206 -0.1066  0.1930
    9SAPS   O14 1079   1.436   4.048   6.815 -0.4269  0.1426  0.2985
    9SAPS   O12 1080   1.294   3.903   6.664  0.6579  0.0411  0.1337
    9SAPS   O11 1081   1.440   4.068   6.567 -0.9073  0.5758  0.5380
    9SAPS    C1 1082   1.512   3.958   6.507 -0.3568 -0.0885 -0.6005
    9SAPS    HA 1083   1.547   3.887   6.585  1.2407  1.4838  0.1955
    9SAPS    HB 1084   1.446   3.895   6.444 -0.0785 -1.2917  0.2571
    9SAPS    C2 1085   1.631   4.002   6.420 -0.7132  0.3755 -0.4862
    9SAPS    HS 1086   1.691   4.066   6.489  0.2511 -2.2652  1.2600
    9SAPS   O21 1087   1.578   4.082   6.309 -0.5168 -0.3586 -0.3282
    9SAPS   C21 1088   1.659   4.186   6.274  0.2175  0.2775 -0.1256
    9SAPS   O22 1089   1.761   4.220   6.331  0.3190  0.4562 -0.2439
    9SAPS   C22 1090   1.595   4.262   6.152  0.2550  0.0259 -0.2053
    9SAPS   H2R 1091   1.516   4.195   6.112 -0.5885  0.8882 -0.0357
    9SAPS   H2S 1092   1.560   4.360   6.191  2.7082  0.1746  1.8955
    9SAPS    C3 1093   1.721   3.885   6.370 -0.0439 -1.0846  0.6916
    9SAPS    HX 1094   1.744   3.813   6.451 -0.8177 -0.3825  1.5615
    9SAPS    HY 1095   1.819   3.931   6.343 -0.3658 -1.0945 -0.5671
    9SAPS   O31 1096   1.673   3.812   6.259  0.0326  0.0310 -0.1699
    9SAPS   C31 1097   1.730   3.826   6.140 -0.2607  0.2637 -0.5527
    9SAPS   O32 1098   1.837   3.879   6.120  0.1147 -0.6556 -0.1951
    9SAPS   C32 1099   1.641   3.753   6.038  0.5519 -1.0394 -0.5902
    9SAPS   H2X 1100   1.535   3.760   6.069  1.2904 -0.2416  2.0455
    9SAPS   H2Y 1101   1.658   3.643   6.046 -2.2763 -1.5384 -0.2984
    9SAPS   C23 1102   1.696   4.298   6.044 -0.0191 -0.7020  0.1040
    9SAPS   H3R 1103   1.783   4.355   6.084  0.8725 -1.8051 -0.2409
    9SAPS   H3S 1104   1.641   4.368   5.978 -0.9742 -2.0876 -0.6159
    9SAPS   C24 1105   1.747   4.186   5.950  0.5221  0.1729  0.6811
    9SAPS   H4R 1106   1.654   4.161   5.894  1.3004  0.0391 -0.5941
    9SAPS   H4S 1107   1.780   4.097   6.007  3.2188 -0.0423 -1.0566
    9SAPS   C25 1108   1.853   4.218   5.846  0.0015 -0.5587 -0.2628
    9SAPS   H5R 1109   1.955   4.212   5.888 -0.1329 -0.2575  0.1076
    9SAPS   C26 1110   1.838   4.267   5.719 -0.5281  0.3027  0.2143
    9SAPS   H6R 1111   1.919   4.265   5.644 -1.7920  1.0664 -1.2250
    9SAPS   C27 1112   1.699   4.286   5.665 -0.1072 -0.0121 -1.4175
    9SAPS   H7R 1113   1.641   4.360   5.723 -0.4320 -0.8769 -0.6215
    9SAPS   H7S 1114   1.641   4.193   5.682 -1.5798  1.2210  0.7941
    9SAPS   C28 1115   1.705   4.339   5.524  0.3304 -0.1172 -0.0715
    9SAPS   H8R 1116   1.689   4.445   5.503 -1.3182 -0.5909 -1.4241
    9SAPS   C29 1117   1.719   4.272   5.407 -0.0576 -0.0824  0.3683
    9SAPS   H9R 1118   1.716   4.336   5.318  0.9846 -1.9237 -1.0389
    9SAPS  C210 1119   1.735   4.130   5.382 -0.3443 -0.1896  0.0516
    9SAPS  H10R 1120   1.643   4.071   5.361  0.5141 -1.4730 -0.2154
    9SAPS  H10S 1121   1.764   4.087   5.480 -0.9952  0.1803  0.4128
    9SAPS  C211 1122   1.831   4.087   5.280  0.2051 -0.2334  0.6087
    9SAPS  H11R 1123   1.934   4.085   5.319  0.0547 -0.8977  0.9838
    9SAPS  C212 1124   1.817   4.045   5.150 -0.3130 -0.0526  0.4598
    9SAPS  H12R 1125   1.912   4.038   5.094 -0.8315  1.0974 -0.6254
    9SAPS  C213 1126   1.682   4.038   5.081 -0.1981  0.7067  0.0670
    9SAPS  H13R 1127   1.619   4.126   5.106 -1.1634  0.1528 -0.3623
    9SAPS  H13S 1128   1.619   3.958   5.125  2.6269 -1.1689  0.9995
    9SAPS  C214 1129   1.706   3.984   4.943  0.3139 -0.0413 -0.1441
    9SAPS  H14R 1130   1.675   3.879   4.934 -2.7530  0.6978  0.8536
    9SAPS  C215 1131   1.742   4.041   4.823 -0.3989  0.1646 -0.5582
    9SAPS  H15R 1132   1.764   3.983   4.732 -1.3241  0.7547 -1.1719
    9SAPS  C216 1133   1.795   4.184   4.808  0.4919  0.3943  0.0554
    9SAPS  H16R 1134   1.779   4.238   4.903 -1.9447 -1.2452  0.6853
    9SAPS  H16S 1135   1.759   4.241   4.720  2.0035  4.1848  1.7088
    9SAPS  C217 1136   1.949   4.175   4.775 -0.2619 -0.4880 -0.4174
    9SAPS  H17R 1137   1.962   4.154   4.667  0.0767  2.8406 -1.1316
    9SAPS  H17S 1138   2.002   4.098   4.835 -1.4762 -1.0542 -0.0344
    9SAPS  C218 1139   2.020   4.311   4.797  0.0232 -0.0459  0.0272
    9SAPS  H18R 1140   1.983   4.387   4.724 -0.2142 -1.6321 -1.5924
    9SAPS  H18S 1141   2.125   4.296   4.767  0.2818  0.5939  0.5877
    9SAPS  C219 1142   2.041   4.346   4.941 -0.3333  0.4390  0.2301
    9SAPS  H19R 1143   2.068   4.254   4.996 -0.4412  0.2981  0.0460
    9SAPS  H19S 1144   1.940   4.367   4.983 -0.0572 -0.4384  1.3958
    9SAPS  C220 1145   2.136   4.470   4.968 -0.3426  0.5562 -0.1423
    9SAPS  H20R 1146   2.096   4.559   4.914  1.7556  1.0678 -0.9374
    9SAPS  H20S 1147   2.239   4.449   4.933  0.0207  0.4019  1.0061
    9SAPS  H20T 1148   2.143   4.494   5.076  1.6446 -1.3028  0.2057
    9SAPS   C33 1149   1.662   3.814   5.900  0.0916 -0.6110  0.5918
    9SAPS   H3X 1150   1.763   3.783   5.868  0.0974 -0.3445  0.3378
    9SAPS   H3Y 1151   1.662   3.925   5.910  0.7666 -0.6214  0.7539
    9SAPS   C34 1152   1.552   3.768   5.804 -0.9262 -0.0338 -0.2505
    9SAPS   H4X 1153   1.554   3.827   5.709 -2.3881 -1.2634 -1.0781
    9SAPS   H4Y 1154   1.454   3.795   5.848 -1.3426 -1.4729 -0.2338
    9SAPS   C35 1155   1.553   3.623   5.766  0.1691 -0.6875 -0.3446
    9SAPS   H5X 1156   1.516   3.554   5.845 -1.8739  0.6592 -0.0660
    9SAPS   H5Y 1157   1.657   3.593   5.737  1.1398  2.6350 -0.6921
    9SAPS   C36 1158   1.452   3.595   5.649  0.3587  0.3611 -0.2903
    9SAPS   H6X 1159   1.350   3.635   5.667  0.3969  0.1506  0.4548
    9SAPS   H6Y 1160   1.432   3.486   5.659  1.0123  0.3211  0.6983
    9SAPS   C37 1161   1.514   3.623   5.508  1.1529  0.0136 -0.5861
    9SAPS   H7X 1162   1.618   3.585   5.511  0.8996 -0.6480  0.3430
    9SAPS   H7Y 1163   1.517   3.734   5.497  2.0636  0.3294  1.9926
    9SAPS   C38 1164   1.435   3.554   5.391  0.1024  0.1183  0.6152
    9SAPS   H8X 1165   1.460   3.596   5.292 -2.5018  0.5037  0.0522
    9SAPS   H8Y 1166   1.325   3.566   5.405  0.1616  1.5050 -0.0042
    9SAPS   C39 1167   1.450   3.403   5.385  0.3630 -0.1349 -0.5239
    9SAPS   H9X 1168   1.421   3.363   5.485 -0.1983  1.2213 -0.1196
    9SAPS   H9Y 1169   1.558   3.379   5.381  1.1690  3.1071 -0.7767
    9SAPS  C310 1170   1.362   3.345   5.272 -0.0526  0.3472  0.2702
    9SAPS  H10X 1171   1.253   3.370   5.277 -0.2722 -0.6986  0.8329
    9SAPS  H10Y 1172   1.367   3.237   5.295  3.3983  0.6104  1.2649
    9SAPS  C311 1173   1.412   3.358   5.124 -0.1290 -0.3302  0.0857
    9SAPS  H11X 1174   1.517   3.327   5.106 -1.0916 -2.6096 -2.1115
    9SAPS  H11Y 1175   1.404   3.466   5.099  0.3053  0.5397  3.2234
    9SAPS  C312 1176   1.327   3.273   5.029  0.4075 -0.6360  0.4043
    9SAPS  H12X 1177   1.221   3.302   5.049  0.5685  0.6489 -0.4491
    9SAPS  H12Y 1178   1.346   3.166   5.049  0.2896 -0.9359 -1.0186
    9SAPS  C313 1179   1.362   3.304   4.883  0.0908  0.4282 -0.5775
    9SAPS  H13X 1180   1.471   3.310   4.864 -0.1476 -0.1093 -2.2742
    9SAPS  H13Y 1181   1.319   3.406   4.880 -0.1901  0.3866  1.0198
    9SAPS  C314 1182   1.303   3.196   4.779 -0.7569 -0.3513  0.3241
    9SAPS  H14X 1183   1.209   3.164   4.826 -0.7535  1.4422  1.6522
    9SAPS  H14Y 1184   1.375   3.112   4.792  0.8922  0.9386 -0.0154
    9SAPS  C315 1185   1.286   3.229   4.633 -0.2780  0.5777 -0.0805
    9SAPS  H15X 1186   1.249   3.139   4.579  0.4235 -0.4795  1.1493
    9SAPS  H15Y 1187   1.382   3.263   4.587  0.0459 -0.0073  0.1504
    9SAPS  C316 1188   1.191   3.349   4.616 -0.2464 -0.2626  0.0927
    9SAPS  H16X 1189   1.248   3.442   4.637 -0.2315 -0.2880  0.1645
    9SAPS  H16Y 1190   1.116   3.342   4.698  0.7711 -0.6284  1.0136
    9SAPS  C317 1191   1.126   3.329   4.478  0.3120 -0.4192 -0.8719
    9SAPS  H17X 1192   1.067   3.235   4.475 -2.0564  0.8697  1.5848
    9SAPS  H17Y 1193   1.210   3.329   4.405 -1.4005  0.6822 -2.9467
    9SAPS  C318 1194   1.030   3.445   4.443 -0.3538 -0.0897 -0.3458
    9SAPS  H18X 1195   1.074   3.547   4.439  0.9106 -0.5968  0.1463
    9SAPS  H18Y 1196   0.942   3.432   4.511 -0.3057 -2.1931 -0.6197
    9SAPS  H18Z 1197   0.998   3.430   4.338 -0.9823 -0.9374 -0.0479
   10SAPS     N 1198   1.991   6.050   6.780 -0.1434  1.1110  0.0533
   10SAPS   HN1 1199   2.083   6.021   6.818  0.7408  2.7941 -0.6597
   10SAPS   HN2 1200   1.980   6.006   6.686 -0.9498  1.2057  0.0959
   10SAPS   HN3 1201   1.990   6.154   6.766 -2.6513  1.6148  2.8587
   10SAPS   C12 1202   1.882   6.031   6.879  0.1254 -0.1508 -0.0939
   10SAPS  H12A 1203   1.888   5.930   6.918 -0.2400 -0.0976  0.1022
   10SAPS   C13 1204   1.886   6.121   7.007 -0.0223  0.1864 -0.8160
   10SAPS  O13A 1205   1.979   6.207   7.022  0.0196 -0.1890 -0.2680
   10SAPS  O13B 1206   1.802   6.087   7.097  0.2664 -0.1478  0.1394
   10SAPS   C11 1207   1.746   6.044   6.804  0.1115 -0.3731  0.5854
   10SAPS  H11A 1208   1.664   6.038   6.879 -3.2649  0.8430 -2.6637
   10SAPS  H11B 1209   1.739   5.955   6.737  5.8215  0.2174 -1.2978
   10SAPS     P 1210   1.589   6.210   6.672 -0.0627  0.0330  0.1094
   10SAPS   O13 1211   1.496   6.091   6.678  0.2830  0.0873  0.4690
   10SAPS   O14 1212   1.548   6.330   6.742  0.0461 -0.1270 -0.2604
   10SAPS   O12 1213   1.729   6.160   6.727 -0.5481  0.1385  0.4463
   10SAPS   O11 1214   1.610   6.248   6.518 -0.0634  0.3265 -0.1224
   10SAPS    C1 1215   1.726   6.225   6.439  0.4471 -0.0899 -0.3245
   10SAPS    HA 1216   1.740   6.307   6.365  3.1091 -1.9318 -2.0466
   10SAPS    HB 1217   1.814   6.226   6.507  1.5328 -1.3649 -1.6522
   10SAPS    C2 1218   1.717   6.104   6.354 -0.5279  0.0831  0.7859
   10SAPS    HS 1219   1.721   6.023   6.430 -0.3226 -0.2663  0.4026
   10SAPS   O21 1220   1.836   6.091   6.271 -0.4010  0.5540  0.2866
   10SAPS   C21 1221   1.869   5.969   6.240  0.2000  0.0618 -0.1670
   10SAPS   O22 1222   1.809   5.870   6.270 -0.2668  0.9572  0.1281
   10SAPS   C22 1223   1.993   5.971   6.162  0.3434  0.7560  0.5585
   10SAPS   H2R 1224   2.025   6.077   6.170 -0.1155  1.0068 -0.7964
   10SAPS   H2S 1225   2.056   5.900   6.220 -1.8610 -0.7058  1.2773
   10SAPS    C3 1226   1.589   6.120   6.260 -0.4062  0.3269 -0.3652
   10SAPS    HX 1227   1.596   6.215   6.202 -1.7405  0.3792 -0.4607
   10SAPS    HY 1228   1.504   6.131   6.331 -0.7718  0.1727 -0.7733
   10SAPS   O31 1229   1.579   6.018   6.157  0.0669  0.1262 -0.4141
   10SAPS   C31 1230   1.502   5.917   6.172 -0.2308 -0.0724  0.0103
   10SAPS   O32 1231   1.428   5.900   6.265 -0.0329 -0.2256 -0.3652
   10SAPS   C32 1232   1.495   5.838   6.039 -0.3929  0.7435  0.0270
   10SAPS   H2X 1233   1.389   5.806   6.030 -0.3853  0.4027  0.9580
   10SAPS   H2Y 1234   1.568   5.754   6.044 -1.8830 -0.6833 -1.0730
   10SAPS   C23 1235   1.962   5.947   6.014  0.0724 -0.1070  0.6411
   10SAPS   H3R 1236   2.027   6.006   5.946 -0.8117  1.7576  1.3327
   10SAPS   H3S 1237   1.865   5.995   5.993 -0.4042 -0.3181  2.2322
   10SAPS   C24 1238   1.952   5.795   5.974  0.6300  0.6469 -0.4635
   10SAPS   H4R 1239   1.872   5.749   6.035  1.7739  0.0680  0.6422
   10SAPS   H4S 1240   2.047   5.746   6.005 -0.0816 -0.6530 -0.3076
   10SAPS   C25 1241   1.934   5.775   5.821  0.1534  0.1202 -0.3985
   10SAPS   H5R 1242   1.863   5.850   5.780 -0.0451  1.5331  2.2873
   10SAPS   C26 1243   1.985   5.683   5.737 -0.1437 -0.2724 -0.0103
   10SAPS   H6R 1244   1.973   5.696   5.628  0.1743 -1.3020 -0.1799
   10SAPS   C27 1245   2.075   5.570   5.782  0.5408  0.2233  0.1906
   10SAPS   H7R 1246   2.000   5.493   5.809 -0.9395  2.1392  1.8343
   10SAPS   H7S 1247   2.130   5.583   5.878  0.7513 -1.5293  0.3496
   10SAPS   C28 1248   2.170   5.519   5.677 -0.7209  0.0642  0.0455
   10SAPS   H8R 1249   2.276   5.544   5.690 -0.1518 -1.4884 -1.3317
   10SAPS   C29 1250   2.134   5.446   5.565  0.0404 -0.9747 -0.3386
   10SAPS   H9R 1251   2.216   5.415   5.498 -0.4571  2.4797 -2.7937
   10SAPS  C210 1252   1.992   5.432   5.516  0.1875  0.3384 -0.5418
   10SAPS  H10R 1253   1.990   5.501   5.428 -1.7311  0.0382 -0.7600
   10SAPS  H10S 1254   1.906   5.462   5.579 -0.7526 -0.1315 -1.5594
   10SAPS  C211 1255   1.969   5.287   5.475 -0.4488 -0.7605 -0.0242
   10SAPS  H11R 1256   1.957   5.214   5.557 -2.3823  0.1019  0.5314
   10SAPS  C212 1257   1.960   5.224   5.354 -0.5268 -0.2422 -0.1241
   10SAPS  H12R 1258   1.948   5.115   5.360 -0.8103 -0.1998  0.1628
   10SAPS  C213 1259   1.964   5.294   5.221  0.3315 -0.2376 -0.9585
   10SAPS  H13R 1260   2.052   5.252   5.169  0.2375 -0.2404 -1.1147
   10SAPS  H13S 1261   1.992   5.400   5.240  2.0395 -0.7528 -0.4342
   10SAPS  C214 1262   1.851   5.289   5.123  0.0383  0.4930  0.1752
   10SAPS  H14R 1263   1.747   5.301   5.157 -0.7901 -1.1700 -1.5603
   10SAPS  C215 1264   1.869   5.273   4.992  0.1579 -0.2697 -0.4351
   10SAPS  H15R 1265   1.781   5.256   4.929  2.3364 -1.1680 -3.5142
   10SAPS  C216 1266   1.997   5.270   4.923 -0.1620  0.1047  0.1333
   10SAPS  H16R 1267   2.028   5.164   4.933 -0.2615  0.3090  3.7490
   10SAPS  H16S 1268   2.069   5.344   4.965 -0.9350  0.9801 -0.0609
   10SAPS  C217 1269   1.975   5.310   4.775  0.3557  0.5870 -0.5571
   10SAPS  H17R 1270   2.077   5.334   4.738  1.2613 -1.2523  0.6123
   10SAPS  H17S 1271   1.915   5.402   4.758 -0.9803 -0.0611  0.5537
   10SAPS  C218 1272   1.914   5.195   4.686 -0.0205  0.3275 -0.0972
   10SAPS  H18R 1273   1.818   5.148   4.717 -1.1233  1.4704 -1.6516
   10SAPS  H18S 1274   1.982   5.108   4.700 -0.8530 -0.8590 -2.7866
   10SAPS  C219 1275   1.913   5.219   4.534  0.3082 -0.3313 -0.2915
   10SAPS  H19R 1276   1.916   5.125   4.475 -0.2645  1.0616 -2.6427
   10SAPS  H19S 1277   2.015   5.259   4.517  0.5985 -1.1881 -0.6125
   10SAPS  C220 1278   1.804   5.310   4.482 -0.0690  0.1006  0.6168
   10SAPS  H20R 1279   1.805   5.417   4.515 -1.0661  0.9888 -1.9426
   10SAPS  H20S 1280   1.708   5.256   4.496 -0.0626 -0.1162 -0.1666
   10SAPS  H20T 1281   1.823   5.329   4.374 -1.3878  2.9685  0.7921
   10SAPS   C33 1282   1.519   5.932   5.920  0.5152  0.4627  0.5227
   10SAPS   H3X 1283   1.619   5.976   5.939  0.3936  1.2457 -0.5447
   10SAPS   H3Y 1284   1.445   6.015   5.919  0.4050  0.3912 -1.0363
   10SAPS   C34 1285   1.512   5.868   5.782  0.1393 -0.3240 -0.1776
   10SAPS   H4X 1286   1.428   5.796   5.790  0.0921 -0.4587 -1.6052
   10SAPS   H4Y 1287   1.604   5.813   5.754  0.2559 -0.2162 -0.0104
   10SAPS   C35 1288   1.479   5.957   5.665  0.4346 -0.7024  0.5647
   10SAPS   H5X 1289   1.568   6.022   5.653 -1.0024  1.7985  2.6026
   10SAPS   H5Y 1290   1.399   6.029   5.691  0.6932 -0.2887  0.2312
   10SAPS   C36 1291   1.451   5.891   5.530  0.4421  0.6363  0.7798
   10SAPS   H6X 1292   1.376   5.810   5.531  0.3310  0.7061 -0.5194
   10SAPS   H6Y 1293   1.550   5.848   5.502  0.0837 -0.3353  0.9742
   10SAPS   C37 1294   1.415   6.001   5.428 -0.2952 -0.2341 -0.0969
   10SAPS   H7X 1295   1.501   6.071   5.424  0.8492 -1.5890 -0.1045
   10SAPS   H7Y 1296   1.324   6.057   5.460  0.5392 -0.8129  3.7266
   10SAPS   C38 1297   1.400   5.939   5.293  0.0779  0.1816  0.5371
   10SAPS   H8X 1298   1.316   5.866   5.299  1.6260 -1.7139  0.2377
   10SAPS   H8Y 1299   1.485   5.875   5.261 -1.2325 -1.0647 -0.6088
   10SAPS   C39 1300   1.368   6.041   5.179  0.2629 -0.0377  0.1896
   10SAPS   H9X 1301   1.412   6.142   5.191 -1.1194  0.6449 -0.3031
   10SAPS   H9Y 1302   1.260   6.056   5.195  0.6064  1.5425  1.2200
   10SAPS  C310 1303   1.411   5.998   5.044  0.4976 -0.3637 -0.2512
   10SAPS  H10X 1304   1.357   5.905   5.014 -3.3689  1.5592  0.1820
   10SAPS  H10Y 1305   1.517   5.972   5.028  0.4541 -1.2370  0.7262
   10SAPS  C311 1306   1.373   6.091   4.929  0.4138  0.2581  0.3990
   10SAPS  H11X 1307   1.456   6.165   4.919  0.6323 -0.0338  0.0476
   10SAPS  H11Y 1308   1.279   6.147   4.948 -0.2562 -1.5572  2.9111
   10SAPS  C312 1309   1.345   6.021   4.792  0.6938  0.4421  0.6268
   10SAPS  H12X 1310   1.274   5.935   4.796  0.2987  0.8009  1.3316
   10SAPS  H12Y 1311   1.440   5.977   4.754 -1.3750 -1.7252 -2.6099
   10SAPS  C313 1312   1.297   6.115   4.683 -0.5266 -0.4899 -0.3586
   10SAPS  H13X 1313   1.360   6.205   4.700  2.8572 -2.7523 -0.0328
   10SAPS  H13Y 1314   1.198   6.150   4.720 -0.8044 -1.4380 -0.1940
   10SAPS  C314 1315   1.305   6.052   4.543 -0.2803 -0.3638  0.1036
   10SAPS  H14X 1316   1.232   5.969   4.532  1.5159 -2.4136  2.4978
   10SAPS  H14Y 1317   1.402   6.002   4.521 -0.4141 -1.3201  1.5463
   10SAPS  C315 1318   1.280   6.155   4.436 -0.3641 -0.1712 -0.2170
   10SAPS  H15X 1319   1.177   6.195   4.445  0.6996  2.3509  4.3732
   10SAPS  H15Y 1320   1.295   6.106   4.338  2.1101 -0.6907  0.3434
   10SAPS  C316 1321   1.377   6.284   4.434 -0.1133 -0.1454  0.1047
   10SAPS  H16X 1322   1.478   6.241   4.453 -0.6649 -1.3599  0.3541
   10SAPS  H16Y 1323   1.351   6.357   4.514  0.0754  0.2518 -0.1920
   10SAPS  C317 1324   1.352   6.368   4.306 -0.3092  0.1788  0.2610
   10SAPS  H17X 1325   1.243   6.383   4.288 -0.7804 -2.2098  0.7513
   10SAPS  H17Y 1326   1.390   6.303   4.224 -0.6260  1.5275 -0.9957
   10SAPS  C318 1327   1.436   6.493   4.317  0.0941  0.4890  0.3934
   10SAPS  H18X 1328   1.533   6.474   4.368  0.3802  0.9524  0.0253
   10SAPS  H18Y 1329   1.387   6.562   4.390  0.5887  1.4096 -0.1285
   10SAPS  H18Z 1330   1.451   6.550   4.223  2.5132  0.4494  0.6941
   11SAPS     N 1331   1.963   3.054   2.220  0.4214  0.3748 -0.4337
   11SAPS   HN1 1332   2.020   2.985   2.167 -0.5889 -0.3987 -0.5282
   11SAPS   HN2 1333   1.941   3.017   2.315 -2.9602  3.6851  0.3118
   11SAPS   HN3 1334   1.871   3.067   2.174  0.9942 -2.1226 -2.5282
   11SAPS   C12 1335   2.038   3.184   2.227 -0.5098 -0.7411  0.3918
   11SAPS  H12A 1336   2.037   3.215   2.124 -3.3157  0.4258  0.6965
   11SAPS   C13 1337   1.980   3.306   2.300  0.6422 -1.1618 -0.0393
   11SAPS  O13A 1338   1.856   3.297   2.328 -0.2281 -0.3413  0.8789
   11SAPS  O13B 1339   2.042   3.415   2.306 -0.2625 -0.0524  1.3980
   11SAPS   C11 1340   2.183   3.154   2.271 -0.4950  0.4365  0.0259
   11SAPS  H11A 1341   2.174   3.117   2.375 -2.8749  2.6356  0.6965
   11SAPS  H11B 1342   2.242   3.248   2.268 -1.3064  0.9929  0.8716
   11SAPS     P 1343   2.394   3.033   2.188 -0.0092  0.7226  0.2758
   11SAPS   O13 1344   2.414   2.884   2.179 -0.3507 -0.2792 -0.0434
   11SAPS   O14 1345   2.462   3.102   2.078 -0.5634  0.1509  0.9044
   11SAPS   O12 1346   2.238   3.059   2.179  0.1808 -0.1770  0.4899
   11SAPS   O11 1347   2.446   3.092   2.322 -0.1953 -0.0274 -0.4985
   11SAPS    C1 1348   2.590   3.091   2.335  0.2708  0.0740 -0.1956
   11SAPS    HA 1349   2.643   3.006   2.286 -2.0572 -1.1448 -0.7149
   11SAPS    HB 1350   2.637   3.183   2.297  0.2304  0.1694 -0.0149
   11SAPS    C2 1351   2.624   3.075   2.483  0.1352  0.6753 -1.1151
   11SAPS    HS 1352   2.574   2.981   2.514  2.3448 -0.2756 -0.1801
   11SAPS   O21 1353   2.571   3.189   2.552  0.5633 -0.5982  0.1208
   11SAPS   C21 1354   2.497   3.158   2.656  1.6937 -0.4253 -0.6822
   11SAPS   O22 1355   2.465   3.048   2.704  0.5923 -0.1409 -0.5332
   11SAPS   C22 1356   2.462   3.292   2.726 -0.2837 -0.4790  0.3320
   11SAPS   H2R 1357   2.559   3.336   2.756 -0.5825  2.1268 -2.1547
   11SAPS   H2S 1358   2.417   3.356   2.648  3.9698  0.9325 -1.2463
   11SAPS    C3 1359   2.780   3.057   2.522 -0.1288 -0.3933 -0.0127
   11SAPS    HX 1360   2.823   3.160   2.527 -0.0273 -0.4102 -0.4679
   11SAPS    HY 1361   2.838   3.008   2.441  0.5512  0.5951 -0.1462
   11SAPS   O31 1362   2.810   2.995   2.649 -0.2291  0.0212  0.5414
   11SAPS   C31 1363   2.847   2.870   2.644 -0.7291 -0.1840  0.3709
   11SAPS   O32 1364   2.839   2.792   2.550 -0.2057 -0.6110  0.1880
   11SAPS   C32 1365   2.915   2.828   2.777 -0.3476 -0.5300  0.0497
   11SAPS   H2X 1366   2.955   2.726   2.760  0.3325 -0.2268 -0.2022
   11SAPS   H2Y 1367   2.832   2.821   2.850  1.9258 -0.4979  2.8363
   11SAPS   C23 1368   2.364   3.266   2.850  0.4411 -0.2217  0.6170
   11SAPS   H3R 1369   2.409   3.202   2.929  0.1043  0.5369  1.4339
   11SAPS   H3S 1370   2.267   3.224   2.818  0.3418  0.0072  0.6114
   11SAPS   C24 1371   2.310   3.400   2.920  0.4841  0.9340  0.0877
   11SAPS   H4R 1372   2.212   3.379   2.969 -0.0008  2.0300 -0.3795
   11SAPS   H4S 1373   2.285   3.464   2.833 -2.1343 -0.8928 -0.6374
   11SAPS   C25 1374   2.413   3.465   3.013 -0.1433  0.1085 -0.3449
   11SAPS   H5R 1375   2.518   3.464   2.979  0.4201  0.5842  1.2870
   11SAPS   C26 1376   2.391   3.529   3.131  0.0895  0.0384 -0.0377
   11SAPS   H6R 1377   2.473   3.563   3.196  0.3614  1.8488 -1.2612
   11SAPS   C27 1378   2.261   3.529   3.208 -0.9853  0.8413 -0.1648
   11SAPS   H7R 1379   2.175   3.513   3.140 -0.4529 -1.3890 -0.4054
   11SAPS   H7S 1380   2.263   3.633   3.246  0.3946  0.9215 -0.4029
   11SAPS   C28 1381   2.250   3.415   3.312  0.0954 -0.8177  0.6124
   11SAPS   H8R 1382   2.196   3.330   3.268  1.3077 -0.5482 -1.5247
   11SAPS   C29 1383   2.302   3.398   3.436  0.4929  0.4083 -0.2866
   11SAPS   H9R 1384   2.266   3.315   3.498  1.0349  0.9961  0.8414
   11SAPS  C210 1385   2.403   3.488   3.499 -0.4770  0.1200 -0.4264
   11SAPS  H10R 1386   2.446   3.549   3.417 -0.0244 -1.3090 -1.2954
   11SAPS  H10S 1387   2.487   3.434   3.549  0.5126  1.3846 -0.6536
   11SAPS  C211 1388   2.327   3.575   3.591  0.1007 -1.3272 -0.1458
   11SAPS  H11R 1389   2.271   3.654   3.537  1.8348 -0.3566 -0.5837
   11SAPS  C212 1390   2.307   3.554   3.727  0.3092  0.4317  0.0592
   11SAPS  H12R 1391   2.238   3.620   3.782 -0.3189 -0.3209  0.1896
   11SAPS  C213 1392   2.358   3.445   3.817 -0.1765  0.5111 -0.1942
   11SAPS  H13R 1393   2.371   3.349   3.763  0.1470  1.4477 -1.8198
   11SAPS  H13S 1394   2.286   3.425   3.899 -0.7363  0.5724 -0.6676
   11SAPS  C214 1395   2.492   3.482   3.864  0.1410 -0.6123 -0.3300
   11SAPS  H14R 1396   2.576   3.475   3.793  1.1186 -0.5928  0.8101
   11SAPS  C215 1397   2.518   3.523   3.993 -0.2972 -0.2197  0.7156
   11SAPS  H15R 1398   2.619   3.550   4.028 -0.6971  0.5661  1.3034
   11SAPS  C216 1399   2.428   3.536   4.106  0.3801 -0.2776 -0.3130
   11SAPS  H16R 1400   2.430   3.443   4.166  2.5975  0.1653  0.4265
   11SAPS  H16S 1401   2.327   3.541   4.061 -0.6083 -1.4481  1.6678
   11SAPS  C217 1402   2.448   3.659   4.196  0.0191  0.1157  0.4785
   11SAPS  H17R 1403   2.366   3.675   4.270  1.3559  1.3482  1.7809
   11SAPS  H17S 1404   2.444   3.748   4.129  0.0285 -0.3916 -0.2069
   11SAPS  C218 1405   2.563   3.672   4.293 -0.4857  0.0992  0.0917
   11SAPS  H18R 1406   2.557   3.779   4.319  2.1724  0.5700 -0.8869
   11SAPS  H18S 1407   2.664   3.667   4.246 -0.0263  0.7138  0.9910
   11SAPS  C219 1408   2.554   3.586   4.418  0.0443 -0.3265  0.4338
   11SAPS  H19R 1409   2.571   3.479   4.395 -0.6956 -0.3549 -0.0188
   11SAPS  H19S 1410   2.451   3.609   4.452 -0.2819 -0.3563 -0.4953
   11SAPS  C220 1411   2.658   3.630   4.521  0.9824  0.3764  0.5245
   11SAPS  H20R 1412   2.619   3.626   4.625 -2.1244  1.4627 -0.4751
   11SAPS  H20S 1413   2.693   3.732   4.493  0.5152  0.6554  0.9530
   11SAPS  H20T 1414   2.747   3.564   4.510  0.0508 -0.7356 -0.7543
   11SAPS   C33 1415   3.022   2.927   2.830  0.2266 -0.4673 -0.4464
   11SAPS   H3X 1416   3.044   2.888   2.932 -0.0673  1.2628  0.3146
   11SAPS   H3Y 1417   2.986   3.032   2.828  2.3983  0.3399 -0.4327
   11SAPS   C34 1418   3.155   2.932   2.744 -0.1259 -0.2812  0.0119
   11SAPS   H4X 1419   3.189   3.036   2.763 -2.2738  0.7451 -1.2941
   11SAPS   H4Y 1420   3.136   2.931   2.635 -3.8533  0.6929  0.4928
   11SAPS   C35 1421   3.261   2.828   2.798 -0.0676  0.2751  0.1652
   11SAPS   H5X 1422   3.326   2.805   2.711  2.0045  2.1460  1.1275
   11SAPS   H5Y 1423   3.213   2.734   2.834 -0.5902 -0.0360 -1.2628
   11SAPS   C36 1424   3.365   2.863   2.907  0.3851  0.2568  0.2041
   11SAPS   H6X 1425   3.418   2.952   2.868 -1.4563  0.5650 -1.8259
   11SAPS   H6Y 1426   3.443   2.784   2.915 -2.0007 -2.2065  0.6374
   11SAPS   C37 1427   3.306   2.893   3.047 -0.0400  0.0388 -0.5228
   11SAPS   H7X 1428   3.240   2.811   3.080 -1.2100  1.2467  0.2567
   11SAPS   H7Y 1429   3.232   2.976   3.041 -1.4094 -1.1096  0.0083
   11SAPS   C38 1430   3.415   2.921   3.150  0.6243 -0.7352  0.7699
   11SAPS   H8X 1431   3.485   2.985   3.093 -2.4335  0.9026 -1.4885
   11SAPS   H8Y 1432   3.457   2.820   3.166 -0.4113 -1.3867 -0.3670
   11SAPS   C39 1433   3.360   2.987   3.280 -0.1125  0.0722  0.2072
   11SAPS   H9X 1434   3.440   2.969   3.354  1.5869  3.5464 -0.6012
   11SAPS   H9Y 1435   3.274   2.926   3.317 -0.0693 -0.3652 -0.3861
   11SAPS  C310 1436   3.335   3.135   3.269 -0.3429 -0.4178 -0.2767
   11SAPS  H10X 1437   3.266   3.147   3.183  1.9240 -0.0030 -2.1429
   11SAPS  H10Y 1438   3.430   3.186   3.242 -0.7522 -0.3273 -1.6135
   11SAPS  C311 1439   3.293   3.192   3.401  0.3143 -0.1921 -0.2471
   11SAPS  H11X 1440   3.193   3.157   3.433  0.1281  0.0168 -0.5900
   11SAPS  H11Y 1441   3.283   3.303   3.393  1.0457 -0.0390  0.8665
   11SAPS  C312 1442   3.379   3.160   3.522  0.1332 -0.3792  0.2985
   11SAPS  H12X 1443   3.487   3.176   3.499  0.5032 -1.1191  1.4085
   11SAPS  H12Y 1444   3.380   3.050   3.543  4.1866 -0.4717  0.4541
   11SAPS  C313 1445   3.343   3.242   3.639 -0.6390  0.0392 -0.0400
   11SAPS  H13X 1446   3.238   3.225   3.672 -0.2764 -2.8851 -0.1127
   11SAPS  H13Y 1447   3.361   3.348   3.611  0.2931 -0.1808 -0.3081
   11SAPS  C314 1448   3.438   3.214   3.758  0.7558  0.2208 -0.3004
   11SAPS  H14X 1449   3.543   3.194   3.728  1.4662 -0.0518  2.1690
   11SAPS  H14Y 1450   3.397   3.138   3.828 -1.9569  2.2616  0.4876
   11SAPS  C315 1451   3.454   3.335   3.859  0.0471  0.1483  0.0376
   11SAPS  H15X 1452   3.361   3.362   3.913  0.2150 -0.3904  0.6143
   11SAPS  H15Y 1453   3.488   3.426   3.805  1.0588 -1.1325 -1.5558
   11SAPS  C316 1454   3.538   3.299   3.988 -0.1241 -0.1412 -0.9139
   11SAPS  H16X 1455   3.631   3.251   3.949  0.7139 -0.2251  1.0711
   11SAPS  H16Y 1456   3.485   3.217   4.041  0.5414 -0.9669 -1.5001
   11SAPS  C317 1457   3.567   3.414   4.085 -0.8324 -0.0356  0.1535
   11SAPS  H17X 1458   3.474   3.465   4.117  0.1248  2.1077 -0.3080
   11SAPS  H17Y 1459   3.620   3.488   4.022 -1.4437 -0.9778 -1.5251
   11SAPS  C318 1460   3.660   3.370   4.205 -0.0878 -0.1384 -0.3136
   11SAPS  H18X 1461   3.664   3.460   4.270  0.0876  0.2773 -0.8895
   11SAPS  H18Y 1462   3.764   3.346   4.174  0.5476  1.1693  0.7211
   11SAPS  H18Z 1463   3.611   3.287   4.261 -0.2456 -1.2165 -1.9875
   12SAPS     N 1464   1.901   2.555   2.376  0.4043  0.0123 -0.2580
   12SAPS   HN1 1465   1.833   2.497   2.429  0.3786 -0.4236 -0.7558
   12SAPS   HN2 1466   1.988   2.498   2.383 -0.4873 -1.2125  1.9940
   12SAPS   HN3 1467   1.908   2.643   2.430  0.5397 -0.0302 -0.2065
   12SAPS   C12 1468   1.869   2.574   2.231 -0.4193  0.0703 -0.3471
   12SAPS  H12A 1469   1.767   2.610   2.230 -1.1538 -1.9062 -1.7440
   12SAPS   C13 1470   1.948   2.690   2.160  0.0952  0.3208  0.3390
   12SAPS  O13A 1471   2.029   2.755   2.228 -0.1773 -0.0854  0.5748
   12SAPS  O13B 1472   1.928   2.708   2.041 -0.2064  0.1159 -0.0800
   12SAPS   C11 1473   1.861   2.443   2.153 -0.0989  0.3575 -0.2618
   12SAPS  H11A 1474   1.851   2.476   2.047  1.5978  0.8279 -0.3025
   12SAPS  H11B 1475   1.771   2.380   2.169 -0.4687  0.9494  0.0424
   12SAPS     P 1476   2.049   2.258   2.113  0.2855  0.0912 -0.0955
   12SAPS   O13 1477   2.060   2.274   1.967 -0.0363 -0.0511  0.6586
   12SAPS   O14 1478   2.176   2.220   2.177  0.3661 -0.6152 -0.5223
   12SAPS   O12 1479   1.992   2.383   2.182  0.3400 -0.1808  0.6261
   12SAPS   O11 1480   1.953   2.136   2.138 -0.3757  0.4200 -0.0141
   12SAPS    C1 1481   1.904   2.110   2.275 -0.3501 -0.3237  0.0473
   12SAPS    HA 1482   1.886   2.206   2.329 -0.5068  0.5897 -1.5740
   12SAPS    HB 1483   1.804   2.062   2.266 -0.6084 -0.0755  1.3252
   12SAPS    C2 1484   1.990   2.015   2.363  0.0352 -0.5578  0.5784
   12SAPS    HS 1485   2.082   2.071   2.391 -2.2924  2.4118  3.0015
   12SAPS   O21 1486   2.030   1.899   2.286  0.4073  0.2731  0.7994
   12SAPS   C21 1487   2.127   1.823   2.345  0.2361 -0.1981  0.4045
   12SAPS   O22 1488   2.196   1.864   2.436 -0.2007 -0.2223  0.3213
   12SAPS   C22 1489   2.142   1.684   2.277  0.3522 -0.2369 -0.2308
   12SAPS   H2R 1490   2.089   1.698   2.181  1.7058 -0.5414 -1.0604
   12SAPS   H2S 1491   2.248   1.666   2.249  0.1116 -0.2156 -1.1740
   12SAPS    C3 1492   1.927   1.971   2.504  0.3798 -0.1501  0.4575
   12SAPS    HX 1493   1.935   2.064   2.563 -0.7945  1.6330 -1.9860
   12SAPS    HY 1494   1.990   1.891   2.549  1.8763  1.6431  1.7059
   12SAPS   O31 1495   1.794   1.920   2.492  0.4443  0.3891 -0.5777
   12SAPS   C31 1496   1.690   2.000   2.522  0.5038  0.0803  0.7724
   12SAPS   O32 1497   1.701   2.119   2.545  0.4916 -0.7593 -0.7605
   12SAPS   C32 1498   1.562   1.924   2.508 -0.5597 -0.0295 -0.0951
   12SAPS   H2X 1499   1.558   1.855   2.421 -1.3493 -1.5416  1.1096
   12SAPS   H2Y 1500   1.487   2.004   2.487  0.5954  1.0801 -0.1466
   12SAPS   C23 1501   2.090   1.570   2.366  0.4279  0.4304  0.6931
   12SAPS   H3R 1502   1.993   1.604   2.408  1.0008  0.3298  2.1492
   12SAPS   H3S 1503   2.162   1.567   2.451  0.0134  3.7107  1.2820
   12SAPS   C24 1504   2.065   1.429   2.306 -0.2183  0.1512  0.3539
   12SAPS   H4R 1505   2.007   1.443   2.213 -0.1340  3.3338  0.6795
   12SAPS   H4S 1506   2.000   1.373   2.377 -0.2196 -0.9505 -0.4976
   12SAPS   C25 1507   2.185   1.350   2.265  0.0505 -0.5650 -0.1694
   12SAPS   H5R 1508   2.260   1.410   2.212  0.0725 -0.3721  0.0804
   12SAPS   C26 1509   2.225   1.228   2.298 -0.0111 -0.6577  0.2534
   12SAPS   H6R 1510   2.307   1.172   2.252 -1.4235 -1.3681 -1.4888
   12SAPS   C27 1511   2.143   1.153   2.397  0.6871  0.0232 -0.1492
   12SAPS   H7R 1512   2.040   1.154   2.357 -0.0262  2.7042  1.4789
   12SAPS   H7S 1513   2.134   1.215   2.490 -2.2983  0.9294 -0.9301
   12SAPS   C28 1514   2.192   1.009   2.409 -0.1989  0.5511  0.2278
   12SAPS   H8R 1515   2.197   0.946   2.319 -1.0823  1.9105 -0.8230
   12SAPS   C29 1516   2.234   0.953   2.518  0.0310  0.9931 -0.6175
   12SAPS   H9R 1517   2.245   0.844   2.508 -1.1216  0.8026 -0.0085
   12SAPS  C210 1518   2.257   1.003   2.654  0.0698 -0.3392 -0.3833
   12SAPS  H10R 1519   2.270   1.113   2.665  0.9826 -0.5822  1.4564
   12SAPS  H10S 1520   2.362   0.975   2.679  0.5666  0.6335 -1.3222
   12SAPS  C211 1521   2.155   0.942   2.755  0.1895 -0.1835 -0.2798
   12SAPS  H11R 1522   2.129   0.836   2.739 -1.0227 -0.0651  0.7515
   12SAPS  C212 1523   2.122   1.005   2.865  0.3336  0.7433 -0.0840
   12SAPS  H12R 1524   2.041   0.964   2.927 -1.1173  0.3424 -2.1592
   12SAPS  C213 1525   2.156   1.148   2.900 -0.1976  0.1129  0.1594
   12SAPS  H13R 1526   2.146   1.201   2.803  1.4350  2.1735  1.0291
   12SAPS  H13S 1527   2.263   1.158   2.927  0.9934 -1.6166 -3.3207
   12SAPS  C214 1528   2.061   1.212   3.002 -0.4606 -0.3284 -0.0141
   12SAPS  H14R 1529   1.994   1.294   2.973  0.2897  0.3289  0.0483
   12SAPS  C215 1530   2.065   1.183   3.136  0.1756 -0.0675  0.5311
   12SAPS  H15R 1531   1.984   1.222   3.200 -1.6512  0.3125 -1.8773
   12SAPS  C216 1532   2.158   1.089   3.201 -0.2343  0.1068 -0.1497
   12SAPS  H16R 1533   2.260   1.072   3.162 -0.0107 -3.3714  1.5990
   12SAPS  H16S 1534   2.113   0.989   3.186 -0.7547  0.2835  0.1997
   12SAPS  C217 1535   2.167   1.105   3.350  0.3357 -0.0924 -0.4643
   12SAPS  H17R 1536   2.194   1.208   3.382  0.7029 -0.0010 -1.0462
   12SAPS  H17S 1537   2.234   1.026   3.389  1.1807  0.4368 -0.8154
   12SAPS  C218 1538   2.028   1.058   3.423 -0.0402 -0.5204 -0.0130
   12SAPS  H18R 1539   1.989   0.963   3.381 -0.0008 -1.3935  1.8349
   12SAPS  H18S 1540   1.951   1.129   3.386  0.4717  0.8308  1.3986
   12SAPS  C219 1541   2.043   1.029   3.569 -0.3779 -0.9552  0.1711
   12SAPS  H19R 1542   2.110   0.942   3.583  2.3491  1.0584  0.4988
   12SAPS  H19S 1543   1.949   0.999   3.619 -0.7370 -1.3310 -0.7123
   12SAPS  C220 1544   2.114   1.139   3.650  0.1334 -0.0266  0.4292
   12SAPS  H20R 1545   2.152   1.097   3.745  0.0699 -0.2288  0.3650
   12SAPS  H20S 1546   2.037   1.216   3.672 -1.5726 -0.2366 -3.8487
   12SAPS  H20T 1547   2.199   1.193   3.602 -1.1043 -0.0250 -1.9108
   12SAPS   C33 1548   1.523   1.859   2.634  0.2656 -0.2997  0.5209
   12SAPS   H3X 1549   1.426   1.805   2.629  0.5506 -0.9344  1.6213
   12SAPS   H3Y 1550   1.512   1.930   2.719  1.7448 -0.7744  1.1282
   12SAPS   C34 1551   1.617   1.756   2.687 -0.3253 -0.8026  0.4141
   12SAPS   H4X 1552   1.713   1.807   2.713 -1.2083  0.6180  0.9667
   12SAPS   H4Y 1553   1.655   1.692   2.604  1.2061 -0.6753  0.9791
   12SAPS   C35 1554   1.548   1.683   2.805 -0.0222  0.7851 -0.4600
   12SAPS   H5X 1555   1.597   1.584   2.817  0.6444  1.2386  0.7212
   12SAPS   H5Y 1556   1.438   1.669   2.798  0.0111 -1.0022  1.5806
   12SAPS   C36 1557   1.578   1.754   2.937  0.2758 -0.6459  0.0753
   12SAPS   H6X 1558   1.495   1.826   2.954  2.3719  1.6365  1.2632
   12SAPS   H6Y 1559   1.671   1.813   2.922 -1.1698  1.1597 -2.4450
   12SAPS   C37 1560   1.568   1.658   3.060  0.5771 -0.1339  0.6290
   12SAPS   H7X 1561   1.648   1.582   3.048  0.8229  0.3733 -1.1615
   12SAPS   H7Y 1562   1.468   1.608   3.057  0.8941 -0.7366 -0.5670
   12SAPS   C38 1563   1.578   1.733   3.189 -0.0231 -0.1943  0.2159
   12SAPS   H8X 1564   1.490   1.799   3.196 -0.9108 -1.4837  1.8442
   12SAPS   H8Y 1565   1.669   1.796   3.185  0.1696 -0.5322 -2.0649
   12SAPS   C39 1566   1.580   1.628   3.306  0.4573  0.0030 -0.1446
   12SAPS   H9X 1567   1.646   1.545   3.274  0.8304  0.8502 -1.6875
   12SAPS   H9Y 1568   1.483   1.576   3.315 -0.1998  0.9969 -1.2323
   12SAPS  C310 1569   1.619   1.679   3.450  0.3306  0.3299  0.1219
   12SAPS  H10X 1570   1.706   1.748   3.457 -0.2784  1.0055  1.5378
   12SAPS  H10Y 1571   1.650   1.592   3.513  0.7418  0.0665 -0.4372
   12SAPS  C311 1572   1.496   1.747   3.525  0.1160  0.7386 -0.2450
   12SAPS  H11X 1573   1.399   1.693   3.527 -1.0278  2.6954  1.3041
   12SAPS  H11Y 1574   1.477   1.849   3.484  0.4566  1.2300  0.7862
   12SAPS  C312 1575   1.523   1.780   3.675  0.3847  0.1935 -0.2861
   12SAPS  H12X 1576   1.597   1.862   3.685  1.8865 -1.2770  1.7271
   12SAPS  H12Y 1577   1.578   1.696   3.724  2.8420  0.9934 -1.5117
   12SAPS  C313 1578   1.400   1.823   3.755  0.1111 -0.0869  0.5261
   12SAPS  H13X 1579   1.322   1.744   3.762  1.8857 -1.8416  1.8311
   12SAPS  H13Y 1580   1.361   1.913   3.703  0.8121 -0.5832 -0.9267
   12SAPS  C314 1581   1.441   1.855   3.902 -0.2392 -0.1576 -0.7477
   12SAPS  H14X 1582   1.532   1.918   3.906 -0.2372 -0.2284  1.7058
   12SAPS  H14Y 1583   1.460   1.752   3.939 -2.7467 -0.1977  0.6126
   12SAPS  C315 1584   1.341   1.941   3.985  0.4008 -0.5064 -0.4231
   12SAPS  H15X 1585   1.239   1.901   3.968 -0.1173  0.0576  1.1917
   12SAPS  H15Y 1586   1.339   2.044   3.944  0.1081  0.1905  1.2300
   12SAPS  C316 1587   1.362   1.955   4.136 -0.3727  0.0701 -0.3010
   12SAPS  H16X 1588   1.465   1.994   4.149 -0.2862  0.1018 -1.0694
   12SAPS  H16Y 1589   1.351   1.852   4.179 -0.7719  0.3519  0.2968
   12SAPS  C317 1590   1.266   2.050   4.197  0.2706 -0.3580 -0.7712
   12SAPS  H17X 1591   1.161   2.016   4.186  0.0008  0.1369  0.1791
   12SAPS  H17Y 1592   1.269   2.143   4.137 -1.1745 -0.3035 -0.7908
   12SAPS  C318 1593   1.299   2.081   4.341  0.2367 -0.1838 -0.8707
   12SAPS  H18X 1594   1.271   2.186   4.364  0.3485  0.0729 -1.8565
   12SAPS  H18Y 1595   1.400   2.062   4.385 -0.5613 -2.4872  0.1311
   12SAPS  H18Z 1596   1.232   2.014   4.400 -2.4774  1.1880 -2.2081
   13SAPS     N 1597   3.918   0.335   1.652 -0.9232 -0.2454 -0.1848
   13SAPS   HN1 1598   3.968   0.275   1.721  0.2061 -0.8926 -1.5307
   13SAPS   HN2 1599   3.897   0.272   1.573 -4.4362 -0.9603  1.1019
   13SAPS   HN3 1600   3.981   0.414   1.628 -0.4852 -0.7488 -0.7124
   13SAPS   C12 1601   3.792   0.375   1.720 -0.4043  0.5440  0.7805
   13SAPS  H12A 1602   3.820   0.430   1.808  1.8590 -0.1959  0.5838
   13SAPS   C13 1603   3.715   0.460   1.621  0.2731  0.4223  0.1243
   13SAPS  O13A 1604   3.743   0.466   1.500 -0.4568  0.3033 -0.2406
   13SAPS  O13B 1605   3.607   0.512   1.665 -0.1405 -0.0194 -0.1186
   13SAPS   C11 1606   3.712   0.242   1.766  0.1760  0.4543  0.3657
   13SAPS  H11A 1607   3.698   0.182   1.673 -0.9550  1.6991 -0.2893
   13SAPS  H11B 1608   3.615   0.270   1.812  0.1194 -3.3237  3.0675
   13SAPS     P 1609   3.768   0.170   2.010 -0.2960  0.0145  0.4451
   13SAPS   O13 1610   3.768   0.312   2.065  0.1495  1.0093 -0.1686
   13SAPS   O14 1611   3.643   0.098   2.033 -0.1231 -0.7862  0.6777
   13SAPS   O12 1612   3.798   0.165   1.856 -0.2855  0.5561 -0.5703
   13SAPS   O11 1613   3.889   0.083   2.065  0.5812  0.2910 -0.4978
   13SAPS    C1 1614   3.873  -0.024   2.157 -0.3778  0.6130 -0.2891
   13SAPS    HA 1615   3.812  -0.107   2.115  2.1165 -1.1372 -0.6270
   13SAPS    HB 1616   3.969  -0.070   2.187 -0.3774  0.9370  0.2268
   13SAPS    C2 1617   3.804   0.022   2.288  0.1152  0.4522 -0.2807
   13SAPS    HS 1618   3.705   0.065   2.258 -0.7840 -0.6256  1.0445
   13SAPS   O21 1619   3.893   0.106   2.357 -0.3851  0.4807 -0.5629
   13SAPS   C21 1620   3.831   0.211   2.412  0.1784 -0.5139 -0.5555
   13SAPS   O22 1621   3.714   0.241   2.402 -0.2109  0.1606  0.0436
   13SAPS   C22 1622   3.927   0.295   2.503 -0.1039  0.5675 -0.1744
   13SAPS   H2R 1623   4.010   0.233   2.542 -0.9734  0.6478  1.9397
   13SAPS   H2S 1624   3.982   0.374   2.447 -0.3740  0.8546 -0.0428
   13SAPS    C3 1625   3.764  -0.097   2.384  0.5463  0.2246 -0.4175
   13SAPS    HX 1626   3.851  -0.165   2.398  1.4447  1.5523  0.7208
   13SAPS    HY 1627   3.685  -0.156   2.333 -0.2671  0.3572  0.6423
   13SAPS   O31 1628   3.711  -0.048   2.503  0.1794  0.7913 -0.1931
   13SAPS   C31 1629   3.658  -0.136   2.588 -0.1492 -0.0875  0.3852
   13SAPS   O32 1630   3.643  -0.254   2.570  0.6008 -0.2732  0.0563
   13SAPS   C32 1631   3.626  -0.079   2.722 -0.3412 -0.0102  0.2837
   13SAPS   H2X 1632   3.585  -0.151   2.795  1.1471  0.9083  2.1168
   13SAPS   H2Y 1633   3.544  -0.005   2.703 -1.5371 -1.4466 -0.3465
   13SAPS   C23 1634   3.852   0.365   2.625  0.5126  0.0039  1.1789
   13SAPS   H3R 1635   3.812   0.284   2.690  0.1893 -1.6167 -0.9246
   13SAPS   H3S 1636   3.767   0.417   2.577  0.9920 -0.0682  0.2293
   13SAPS   C24 1637   3.949   0.467   2.696 -0.0896  1.2289 -0.0399
   13SAPS   H4R 1638   4.053   0.430   2.703  0.8018  3.1083 -2.2961
   13SAPS   H4S 1639   3.911   0.459   2.801 -0.3724 -0.7461 -0.2519
   13SAPS   C25 1640   3.940   0.608   2.651 -0.4455 -0.0100 -0.1028
   13SAPS   H5R 1641   3.953   0.614   2.542  0.5526 -0.8321 -0.0516
   13SAPS   C26 1642   3.938   0.726   2.714  0.0076  0.3600 -0.3028
   13SAPS   H6R 1643   3.947   0.822   2.661  0.2321  0.3211 -0.3334
   13SAPS   C27 1644   3.923   0.731   2.869 -0.1226 -0.1268 -0.3154
   13SAPS   H7R 1645   4.027   0.743   2.906 -0.4408  2.0749  0.0139
   13SAPS   H7S 1646   3.888   0.641   2.923 -0.8438  0.5069  0.3157
   13SAPS   C28 1647   3.851   0.866   2.901  0.4367 -0.7974  0.3526
   13SAPS   H8R 1648   3.807   0.924   2.819 -0.6849 -1.5033  0.4345
   13SAPS   C29 1649   3.842   0.918   3.024  0.6905  0.7990 -0.1659
   13SAPS   H9R 1650   3.783   1.010   3.037  1.6812  1.7439 -1.9083
   13SAPS  C210 1651   3.894   0.847   3.154 -0.9322  0.0759  0.6148
   13SAPS  H10R 1652   3.939   0.748   3.129 -1.5415  0.3418 -1.8162
   13SAPS  H10S 1653   3.804   0.823   3.214  0.4408 -0.8400  2.4191
   13SAPS  C211 1654   4.006   0.917   3.230  0.2821  0.2201 -0.0947
   13SAPS  H11R 1655   4.061   0.987   3.165  1.2203 -1.5829 -1.3150
   13SAPS  C212 1656   4.035   0.913   3.360  0.2530 -0.2729  0.2258
   13SAPS  H12R 1657   4.106   0.989   3.395  0.4980 -0.2847 -0.2384
   13SAPS  C213 1658   3.960   0.831   3.467 -0.1676 -0.2328  0.2258
   13SAPS  H13R 1659   4.032   0.787   3.539  0.7754 -2.4473 -1.9707
   13SAPS  H13S 1660   3.890   0.757   3.423  0.8171 -1.2528  0.3576
   13SAPS  C214 1661   3.868   0.938   3.530 -0.0772  1.0185 -0.6196
   13SAPS  H14R 1662   3.771   0.950   3.477  0.1888 -1.7241 -1.9344
   13SAPS  C215 1663   3.907   1.018   3.622  0.6114 -0.2606 -0.5171
   13SAPS  H15R 1664   3.835   1.089   3.666  0.8716 -1.4294  2.0244
   13SAPS  C216 1665   4.049   1.028   3.681 -0.0052 -0.1727  0.2982
   13SAPS  H16R 1666   4.126   1.065   3.610  0.4380 -1.6715 -0.0467
   13SAPS  H16S 1667   4.090   0.931   3.716 -0.8938  0.1269  2.3094
   13SAPS  C217 1668   4.035   1.127   3.800 -0.8895  0.0056  1.0359
   13SAPS  H17R 1669   4.003   1.228   3.766 -2.5919 -1.4242 -2.1079
   13SAPS  H17S 1670   4.138   1.139   3.841 -0.5233  0.2307  0.0832
   13SAPS  C218 1671   3.945   1.070   3.911  0.9532  0.1688 -0.5367
   13SAPS  H18R 1672   3.969   0.964   3.934  1.4242  0.0485 -1.5637
   13SAPS  H18S 1673   3.837   1.088   3.889  0.6202  1.3647  1.6913
   13SAPS  C219 1674   3.975   1.130   4.051 -0.0563 -0.5984  0.2454
   13SAPS  H19R 1675   3.977   1.241   4.051 -1.2146 -0.5332 -1.1439
   13SAPS  H19S 1676   4.074   1.098   4.090  1.2329  0.5929 -1.8366
   13SAPS  C220 1677   3.871   1.080   4.153 -0.1834  0.9186 -0.7015
   13SAPS  H20R 1678   3.913   1.091   4.255  1.6294  0.7201 -1.3794
   13SAPS  H20S 1679   3.849   0.972   4.136 -0.6030  0.5753  1.7202
   13SAPS  H20T 1680   3.773   1.131   4.141 -0.2768  1.0579  0.5693
   13SAPS   C33 1681   3.750  -0.025   2.780 -0.0613 -0.7244 -0.9562
   13SAPS   H3X 1682   3.816   0.040   2.719  0.7127 -1.2406 -0.6885
   13SAPS   H3Y 1683   3.823  -0.104   2.810 -0.1198 -0.2365  0.5959
   13SAPS   C34 1684   3.726   0.048   2.915  0.7074 -0.9175  0.1563
   13SAPS   H4X 1685   3.657  -0.015   2.975  0.3666 -0.4786  0.2278
   13SAPS   H4Y 1686   3.678   0.147   2.898  0.0858 -1.1753  0.4112
   13SAPS   C35 1687   3.856   0.069   2.995 -0.1363 -0.2228  0.7295
   13SAPS   H5X 1688   3.905  -0.027   3.020  2.2212  0.1175 -1.9851
   13SAPS   H5Y 1689   3.840   0.121   3.092  0.4952 -0.1129  0.7828
   13SAPS   C36 1690   3.971   0.149   2.931  1.0659 -0.4271  0.1277
   13SAPS   H6X 1691   3.920   0.210   2.852  1.5471  0.4670  0.4976
   13SAPS   H6Y 1692   4.040   0.082   2.876  2.6753  1.7912 -0.7023
   13SAPS   C37 1693   4.043   0.225   3.038  0.4766 -0.2671 -0.2590
   13SAPS   H7X 1694   4.149   0.244   3.010  0.6320 -0.8376 -0.0730
   13SAPS   H7Y 1695   4.050   0.153   3.123  0.2404 -1.2521 -1.0491
   13SAPS   C38 1696   3.965   0.352   3.095 -0.4750 -0.6334 -0.1870
   13SAPS   H8X 1697   3.864   0.330   3.134 -0.4762  0.1209  0.2504
   13SAPS   H8Y 1698   3.951   0.431   3.017  1.5870 -0.7559 -0.7331
   13SAPS   C39 1699   4.041   0.423   3.212  0.1178 -0.6172 -0.0089
   13SAPS   H9X 1700   4.079   0.351   3.288  0.0317 -0.9536 -0.2821
   13SAPS   H9Y 1701   3.969   0.483   3.272 -0.0824 -1.7298  0.8940
   13SAPS  C310 1702   4.163   0.507   3.172 -0.5503  0.0395 -0.0184
   13SAPS  H10X 1703   4.140   0.579   3.091 -1.5915 -1.6941 -1.3030
   13SAPS  H10Y 1704   4.240   0.435   3.139 -2.9588 -3.4150  1.3793
   13SAPS  C311 1705   4.213   0.599   3.287 -0.0304  0.3108 -0.2618
   13SAPS  H11X 1706   4.132   0.668   3.320 -0.5983 -1.2921  1.9025
   13SAPS  H11Y 1707   4.295   0.668   3.257 -1.6665  2.7609  0.5901
   13SAPS  C312 1708   4.258   0.517   3.403 -0.8930  0.3204 -0.1892
   13SAPS  H12X 1709   4.343   0.453   3.369  0.3444  2.7469 -2.0090
   13SAPS  H12Y 1710   4.174   0.453   3.435 -0.7936 -0.3821 -1.2671
   13SAPS  C313 1711   4.304   0.608   3.523  0.9665 -0.1034 -0.4557
   13SAPS  H13X 1712   4.206   0.649   3.554 -0.7759 -4.0384 -0.0928
   13SAPS  H13Y 1713   4.380   0.684   3.493 -0.2340  0.4886 -2.1141
   13SAPS  C314 1714   4.374   0.548   3.648  0.6334  0.2917 -0.0985
   13SAPS  H14X 1715   4.453   0.479   3.612 -1.8505 -0.8829 -3.8993
   13SAPS  H14Y 1716   4.304   0.481   3.703 -1.2479  1.4165 -1.0155
   13SAPS  C315 1717   4.447   0.645   3.740  0.0943  0.2393 -0.4423
   13SAPS  H15X 1718   4.519   0.706   3.681  2.9365  0.8003  3.2248
   13SAPS  H15Y 1719   4.511   0.589   3.812  0.9249  0.6837 -0.8169
   13SAPS  C316 1720   4.362   0.747   3.818  0.4748  0.4469 -0.8633
   13SAPS  H16X 1721   4.290   0.696   3.885 -0.8184  2.8541 -0.3175
   13SAPS  H16Y 1722   4.301   0.797   3.740  2.1755  1.7363 -1.4511
   13SAPS  C317 1723   4.441   0.850   3.892 -0.8159  0.5684  0.7844
   13SAPS  H17X 1724   4.529   0.874   3.829 -2.6684  1.3174 -1.6893
   13SAPS  H17Y 1725   4.477   0.809   3.989 -3.2119 -1.3107  0.9831
   13SAPS  C318 1726   4.365   0.980   3.902 -0.8396  0.7169  1.1440
   13SAPS  H18X 1727   4.372   1.024   3.800  0.4030  0.4815  1.1216
   13SAPS  H18Y 1728   4.414   1.052   3.970  0.2058  1.2804 -0.1541
   13SAPS  H18Z 1729   4.259   0.976   3.937 -1.3812  2.1175 -0.2295
   14SAPS     N 1730   6.416   2.669   1.510 -0.1756 -0.3817 -0.5629
   14SAPS   HN1 1731   6.507   2.619   1.510  0.2429  0.3803 -0.5018
   14SAPS   HN2 1732   6.335   2.607   1.486 -0.9945 -0.4694  2.1521
   14SAPS   HN3 1733   6.424   2.746   1.441 -2.5129  0.5022  0.0392
   14SAPS   C12 1734   6.394   2.738   1.642 -0.1011  0.2969 -0.4489
   14SAPS  H12A 1735   6.320   2.816   1.638 -1.2192 -0.6984  0.3424
   14SAPS   C13 1736   6.348   2.634   1.750  0.4812 -0.3570 -0.8322
   14SAPS  O13A 1737   6.350   2.516   1.738  0.3981  0.0975 -0.4955
   14SAPS  O13B 1738   6.333   2.687   1.864 -0.3982 -0.3562  0.1340
   14SAPS   C11 1739   6.534   2.799   1.686  0.4279 -0.3496  0.1798
   14SAPS  H11A 1740   6.526   2.822   1.795 -1.0748  0.6783 -0.1026
   14SAPS  H11B 1741   6.549   2.901   1.645  0.5444  0.7433  2.7510
   14SAPS     P 1742   6.745   2.635   1.757 -0.4948 -0.0888  0.0407
   14SAPS   O13 1743   6.694   2.494   1.777 -0.3706 -0.3694  0.2972
   14SAPS   O14 1744   6.890   2.650   1.715 -0.4279 -0.3047 -0.2788
   14SAPS   O12 1745   6.648   2.713   1.654 -0.4002 -0.0782  0.0083
   14SAPS   O11 1746   6.730   2.713   1.893  0.3579 -0.3946  0.4635
   14SAPS    C1 1747   6.788   2.646   2.011 -0.6333 -0.5544 -0.6272
   14SAPS    HA 1748   6.724   2.566   2.054  2.8722 -1.7067  3.0542
   14SAPS    HB 1749   6.880   2.589   1.983  0.1206  0.0803  0.4798
   14SAPS    C2 1750   6.816   2.745   2.129  0.4748  0.0814 -0.0411
   14SAPS    HS 1751   6.828   2.689   2.224  0.3879  0.1997  0.0404
   14SAPS   O21 1752   6.707   2.840   2.136  0.0444 -0.3326 -0.3189
   14SAPS   C21 1753   6.592   2.795   2.193  0.0464  0.2527 -0.5826
   14SAPS   O22 1754   6.579   2.681   2.238  0.4617 -0.0006 -0.0613
   14SAPS   C22 1755   6.484   2.903   2.209 -0.0302  0.1166  0.2634
   14SAPS   H2R 1756   6.522   3.002   2.242  2.8043 -0.4722 -0.9129
   14SAPS   H2S 1757   6.427   2.901   2.113 -0.0430 -1.7458  0.2757
   14SAPS    C3 1758   6.951   2.814   2.116  0.7753  0.1040  0.1236
   14SAPS    HX 1759   6.947   2.885   2.031  0.2277 -1.1536 -0.9440
   14SAPS    HY 1760   7.024   2.732   2.097 -0.9183 -1.2135 -1.0443
   14SAPS   O31 1761   6.985   2.886   2.241 -0.6214  0.5390  0.1973
   14SAPS   C31 1762   7.056   2.820   2.339 -0.0609 -0.2792  0.2733
   14SAPS   O32 1763   7.081   2.699   2.336  0.1324 -0.3633  0.7439
   14SAPS   C32 1764   7.065   2.910   2.459  1.0016 -0.2473 -0.2155
   14SAPS   H2X 1765   6.978   2.977   2.473  2.0045  0.9076  0.7462
   14SAPS   H2Y 1766   7.143   2.986   2.436 -0.6111  1.3865 -0.5478
   14SAPS   C23 1767   6.390   2.879   2.331  0.2695  0.0970  0.6351
   14SAPS   H3R 1768   6.449   2.884   2.425  2.7501 -1.7261 -0.6834
   14SAPS   H3S 1769   6.358   2.773   2.324  0.1325  0.2643 -3.4237
   14SAPS   C24 1770   6.265   2.967   2.349 -0.2233  0.5055 -1.2432
   14SAPS   H4R 1771   6.177   2.911   2.388 -0.8887  1.4588 -1.3421
   14SAPS   H4S 1772   6.255   2.993   2.242  1.4771  0.9856 -1.3127
   14SAPS   C25 1773   6.286   3.093   2.426  0.3715  0.1759 -0.2383
   14SAPS   H5R 1774   6.362   3.159   2.381 -0.6208  0.8695 -0.9447
   14SAPS   C26 1775   6.220   3.144   2.535  0.3455 -0.5179  0.5383
   14SAPS   H6R 1776   6.258   3.238   2.577 -0.7749 -0.2634  1.0167
   14SAPS   C27 1777   6.107   3.085   2.625 -0.0435 -0.0527  0.1858
   14SAPS   H7R 1778   6.150   3.069   2.726 -0.6234  0.3668  0.5077
   14SAPS   H7S 1779   6.072   2.988   2.583  0.7967 -1.1534  1.9079
   14SAPS   C28 1780   5.985   3.167   2.652 -0.2898 -0.1450 -0.9019
   14SAPS   H8R 1781   5.891   3.139   2.602 -0.3069  1.3068 -1.7252
   14SAPS   C29 1782   5.977   3.266   2.747 -0.3577  0.0705  0.4910
   14SAPS   H9R 1783   5.879   3.315   2.762 -0.6072 -0.9580  2.5974
   14SAPS  C210 1784   6.080   3.319   2.839  0.0898 -0.2727 -0.4457
   14SAPS  H10R 1785   6.111   3.421   2.807 -1.2654 -0.6535 -3.2319
   14SAPS  H10S 1786   6.178   3.266   2.833 -0.7361 -1.7178 -2.0132
   14SAPS  C211 1787   6.021   3.314   2.979  0.5897  0.0954  0.2909
   14SAPS  H11R 1788   5.996   3.211   3.009 -2.4633  0.1080 -1.7722
   14SAPS  C212 1789   5.984   3.423   3.055  0.1242 -0.4687  0.2594
   14SAPS  H12R 1790   5.941   3.408   3.155 -1.0152  2.3403  0.2803
   14SAPS  C213 1791   6.018   3.564   3.017  0.0591  0.0043 -0.1266
   14SAPS  H13R 1792   5.944   3.624   3.075  0.1024  0.8511 -0.9316
   14SAPS  H13S 1793   6.004   3.588   2.910 -0.4862  1.6797  0.2796
   14SAPS  C214 1794   6.158   3.606   3.059  0.4718  0.1265  0.8119
   14SAPS  H14R 1795   6.237   3.588   2.985  0.5509  1.1026  0.6489
   14SAPS  C215 1796   6.182   3.675   3.174 -0.8580  0.0864  0.1195
   14SAPS  H15R 1797   6.286   3.708   3.192 -0.3724 -0.7602 -0.9874
   14SAPS  C216 1798   6.085   3.705   3.284 -0.2799 -0.3032  0.1862
   14SAPS  H16R 1799   5.988   3.725   3.234  1.4249 -0.6384 -3.6543
   14SAPS  H16S 1800   6.124   3.798   3.330 -0.5096 -0.8469  1.5196
   14SAPS  C217 1801   6.069   3.591   3.390  0.2905 -0.2079  0.0643
   14SAPS  H17R 1802   6.166   3.546   3.421 -0.3503 -0.5063  1.7505
   14SAPS  H17S 1803   6.010   3.510   3.343  0.7154 -0.0844 -0.7056
   14SAPS  C218 1804   6.010   3.626   3.528 -0.1446  0.3641  0.7383
   14SAPS  H18R 1805   6.068   3.715   3.558 -2.1225  2.0139 -0.0862
   14SAPS  H18S 1806   6.013   3.530   3.585 -0.5177 -1.1368 -1.6166
   14SAPS  C219 1807   5.877   3.685   3.528 -0.1082 -0.0700  0.6132
   14SAPS  H19R 1808   5.813   3.623   3.462  1.7471  0.2830 -1.6702
   14SAPS  H19S 1809   5.899   3.778   3.471 -0.8846 -0.3940 -0.2452
   14SAPS  C220 1810   5.814   3.717   3.662  0.3906  0.1812 -0.2865
   14SAPS  H20R 1811   5.776   3.628   3.717  1.3025 -0.8528 -1.2498
   14SAPS  H20S 1812   5.721   3.770   3.634 -0.2973 -1.3059 -0.9244
   14SAPS  H20T 1813   5.875   3.792   3.716 -0.1670  1.0114 -0.7881
   14SAPS   C33 1814   7.094   2.838   2.590 -0.6233  0.5560  0.3523
   14SAPS   H3X 1815   7.185   2.778   2.567 -0.2193  0.7309  1.4545
   14SAPS   H3Y 1816   7.012   2.766   2.612  0.4035 -0.8712 -0.2974
   14SAPS   C34 1817   7.127   2.929   2.710 -0.8403 -0.6988 -0.3549
   14SAPS   H4X 1818   7.200   3.010   2.689 -1.0245 -0.6185 -0.6804
   14SAPS   H4Y 1819   7.156   2.855   2.788 -0.7482 -0.1845  0.1070
   14SAPS   C35 1820   6.998   2.993   2.763 -0.5509 -0.6855 -0.4497
   14SAPS   H5X 1821   6.932   2.927   2.823 -0.4484  0.3414  0.8314
   14SAPS   H5Y 1822   6.928   3.028   2.684 -0.8633 -0.7741 -0.2111
   14SAPS   C36 1823   7.039   3.126   2.831 -0.4169  0.1062 -0.0327
   14SAPS   H6X 1824   7.120   3.175   2.773  1.2962 -1.8795  0.5360
   14SAPS   H6Y 1825   7.077   3.105   2.933 -0.1649  0.4355 -0.0580
   14SAPS   C37 1826   6.921   3.220   2.841  0.2161  0.5521 -0.2914
   14SAPS   H7X 1827   6.832   3.156   2.862  0.4842  0.1873 -0.2636
   14SAPS   H7Y 1828   6.909   3.248   2.734 -1.4356 -2.7481 -1.0890
   14SAPS   C38 1829   6.952   3.350   2.932 -1.0893 -0.2405  1.0430
   14SAPS   H8X 1830   6.874   3.426   2.909 -1.4119  0.0075  2.7518
   14SAPS   H8Y 1831   7.046   3.398   2.897 -0.7150 -0.5243  1.6322
   14SAPS   C39 1832   6.967   3.321   3.079  0.3061  0.0721  0.3525
   14SAPS   H9X 1833   6.985   3.416   3.134 -1.7364  0.3479  0.6477
   14SAPS   H9Y 1834   7.052   3.252   3.095  0.2089 -0.2622 -0.5661
   14SAPS  C310 1835   6.843   3.251   3.140 -0.2944 -0.4079 -0.1228
   14SAPS  H10X 1836   6.816   3.168   3.071  2.1958 -0.8285 -0.6922
   14SAPS  H10Y 1837   6.757   3.321   3.137 -0.8289 -1.0924 -1.5827
   14SAPS  C311 1838   6.863   3.210   3.292  0.0004 -0.0383  0.2403
   14SAPS  H11X 1839   6.919   3.294   3.337 -1.0503  0.6223  0.3452
   14SAPS  H11Y 1840   6.923   3.116   3.296  0.0748  0.0461  2.4754
   14SAPS  C312 1841   6.738   3.173   3.373  1.1113 -1.0070  0.2785
   14SAPS  H12X 1842   6.693   3.074   3.348 -1.7404  0.3048 -0.0902
   14SAPS  H12Y 1843   6.656   3.247   3.361  1.8153  0.2622  2.5832
   14SAPS  C313 1844   6.760   3.168   3.529 -0.1900  0.1030 -0.0055
   14SAPS  H13X 1845   6.804   3.269   3.548  1.0045 -0.7321  1.9629
   14SAPS  H13Y 1846   6.837   3.092   3.554 -0.8392  0.3374  3.1886
   14SAPS  C314 1847   6.633   3.152   3.614 -0.6439 -0.0990  0.4655
   14SAPS  H14X 1848   6.580   3.062   3.577 -0.1805  0.8881 -2.9722
   14SAPS  H14Y 1849   6.554   3.224   3.584 -0.4971 -0.2093 -0.1948
   14SAPS  C315 1850   6.662   3.170   3.757 -0.3346 -0.3194 -0.8133
   14SAPS  H15X 1851   6.572   3.206   3.811  0.6440 -0.2441  0.8250
   14SAPS  H15Y 1852   6.731   3.255   3.775  1.3429 -1.9274  0.7586
   14SAPS  C316 1853   6.725   3.051   3.817 -0.1542  0.1506  0.3815
   14SAPS  H16X 1854   6.830   3.078   3.841  0.0544 -1.2911  1.2314
   14SAPS  H16Y 1855   6.737   2.968   3.743  1.5346  1.1143 -0.5069
   14SAPS  C317 1856   6.654   2.994   3.944  0.6339  0.1678  0.3745
   14SAPS  H17X 1857   6.654   3.062   4.032 -1.1427 -1.3365  1.6422
   14SAPS  H17Y 1858   6.704   2.904   3.986 -0.0478  0.5244  2.0837
   14SAPS  C318 1859   6.502   2.968   3.920 -0.0076  0.4700 -0.5261
   14SAPS  H18X 1860   6.490   2.881   3.852  0.9127  0.8602 -1.2134
   14SAPS  H18Y 1861   6.470   3.064   3.875  2.1376  0.9404 -1.1829
   14SAPS  H18Z 1862   6.447   2.937   4.011 -1.4308 -1.9583 -2.1015
   15SAPS     N 1863   5.761   2.549   1.606  0.4787  0.2506  0.2191
   15SAPS   HN1 1864   5.864   2.534   1.595  0.0745 -4.1409  0.4265
   15SAPS   HN2 1865   5.738   2.464   1.662 -1.3306 -0.4507 -1.4800
   15SAPS   HN3 1866   5.710   2.537   1.517 -0.9190 -0.5730  1.1001
   15SAPS   C12 1867   5.709   2.675   1.663  0.0923 -0.2278  0.4886
   15SAPS  H12A 1868   5.787   2.724   1.719 -1.0228  0.9438  1.0761
   15SAPS   C13 1869   5.664   2.769   1.541 -0.0147 -0.0773 -0.7762
   15SAPS  O13A 1870   5.690   2.740   1.423 -0.4707  0.0016 -0.2931
   15SAPS  O13B 1871   5.642   2.887   1.576  0.5987  0.0942  0.1035
   15SAPS   C11 1872   5.588   2.633   1.751  0.2934 -0.3614 -0.3118
   15SAPS  H11A 1873   5.506   2.602   1.683  0.2041  1.0155 -0.8813
   15SAPS  H11B 1874   5.557   2.726   1.804  0.7807 -1.1116  1.3322
   15SAPS     P 1875   5.517   2.491   1.949  0.3144 -0.0757 -0.0826
   15SAPS   O13 1876   5.385   2.526   1.890  0.0329  0.3960 -0.4639
   15SAPS   O14 1877   5.530   2.347   1.967  0.2231 -0.2246  0.0479
   15SAPS   O12 1878   5.637   2.541   1.851 -0.5894 -0.3973 -0.1118
   15SAPS   O11 1879   5.527   2.565   2.094  0.0073  0.1703  0.5712
   15SAPS    C1 1880   5.504   2.705   2.104 -0.6675 -0.6410 -0.2106
   15SAPS    HA 1881   5.600   2.761   2.111  0.3826 -2.5123  1.8472
   15SAPS    HB 1882   5.459   2.751   2.014 -1.1842 -1.1127 -0.1978
   15SAPS    C2 1883   5.433   2.747   2.236  0.6151 -0.2271 -0.2554
   15SAPS    HS 1884   5.429   2.858   2.248  1.3159 -0.2848  0.5710
   15SAPS   O21 1885   5.483   2.675   2.345 -0.5947  0.1597 -0.3399
   15SAPS   C21 1886   5.591   2.730   2.398  0.1243 -0.2330 -0.2731
   15SAPS   O22 1887   5.651   2.826   2.352 -0.9186 -0.1214 -0.7129
   15SAPS   C22 1888   5.638   2.658   2.530  0.6442 -0.7091  0.4625
   15SAPS   H2R 1889   5.590   2.558   2.528  1.1132 -0.9356  0.5982
   15SAPS   H2S 1890   5.748   2.650   2.523  0.8549  0.1321  2.3211
   15SAPS    C3 1891   5.279   2.702   2.225  0.0616 -0.6354  0.2885
   15SAPS    HX 1892   5.287   2.598   2.185 -0.8616 -0.2771 -0.8626
   15SAPS    HY 1893   5.226   2.765   2.151 -2.1575 -0.1990  2.1466
   15SAPS   O31 1894   5.205   2.724   2.349  0.1799 -0.5001  0.2203
   15SAPS   C31 1895   5.173   2.612   2.415 -0.3668  0.1185 -0.1927
   15SAPS   O32 1896   5.220   2.502   2.390  0.5892  0.1873 -0.0690
   15SAPS   C32 1897   5.083   2.639   2.538  0.6993 -0.4207  0.0515
   15SAPS   H2X 1898   5.054   2.542   2.582  2.4737 -0.8753  0.2818
   15SAPS   H2Y 1899   4.995   2.698   2.506 -0.6307 -1.8447  0.9669
   15SAPS   C23 1900   5.599   2.729   2.666 -0.6599  0.3078  0.2725
   15SAPS   H3R 1901   5.500   2.777   2.654 -1.6864 -0.3734  4.3354
   15SAPS   H3S 1902   5.675   2.809   2.680  0.7284 -0.7932 -0.7242
   15SAPS   C24 1903   5.593   2.631   2.784 -0.5757  0.6091 -1.0644
   15SAPS   H4R 1904   5.683   2.565   2.787 -0.3613  0.9175 -0.2905
   15SAPS   H4S 1905   5.499   2.573   2.776  0.3103 -1.2257  0.7268
   15SAPS   C25 1906   5.612   2.703   2.919  0.3365 -0.4725 -0.4767
   15SAPS   H5R 1907   5.518   2.725   2.973  0.8543 -1.6561  0.9890
   15SAPS   C26 1908   5.726   2.743   2.975 -0.5512 -0.1357  0.2761
   15SAPS   H6R 1909   5.716   2.787   3.075 -2.9753  0.6320 -0.2433
   15SAPS   C27 1910   5.866   2.710   2.932  0.0540 -0.2066 -0.4373
   15SAPS   H7R 1911   5.924   2.804   2.933  0.8212 -0.6683  0.6442
   15SAPS   H7S 1912   5.872   2.683   2.824  0.7936  0.2583 -0.5185
   15SAPS   C28 1913   5.926   2.597   3.007 -0.1936 -0.4226 -0.1330
   15SAPS   H8R 1914   5.939   2.505   2.948  1.3969 -0.6080  0.4610
   15SAPS   C29 1915   5.964   2.596   3.135  0.3397  0.6687  0.8983
   15SAPS   H9R 1916   6.015   2.502   3.158 -0.4865 -0.0265 -0.0284
   15SAPS  C210 1917   5.961   2.710   3.236  0.1736  0.3565  0.4575
   15SAPS  H10R 1918   5.909   2.801   3.199 -1.0126 -0.2638  0.5475
   15SAPS  H10S 1919   6.063   2.745   3.258  0.5132 -0.8166  0.8173
   15SAPS  C211 1920   5.883   2.653   3.352 -0.0893  0.2839  0.1480
   15SAPS  H11R 1921   5.773   2.661   3.357 -0.2491 -1.4873  0.1449
   15SAPS  C212 1922   5.932   2.605   3.469 -0.3549 -0.4301 -0.3074
   15SAPS  H12R 1923   5.860   2.561   3.539 -0.3320 -0.9397 -0.5969
   15SAPS  C213 1924   6.078   2.587   3.497 -0.0483 -0.3177 -0.0156
   15SAPS  H13R 1925   6.130   2.570   3.401  0.5710 -0.3418  0.3185
   15SAPS  H13S 1926   6.095   2.496   3.559 -0.9448  0.9620  2.2138
   15SAPS  C214 1927   6.142   2.698   3.579 -0.1271  0.0418 -0.3939
   15SAPS  H14R 1928   6.074   2.748   3.650  0.8436  0.1412  0.4935
   15SAPS  C215 1929   6.274   2.730   3.565  0.0398  0.3980 -0.2925
   15SAPS  H15R 1930   6.329   2.800   3.629  2.8123 -0.2406 -1.8348
   15SAPS  C216 1931   6.375   2.656   3.479  0.3075  0.2646  0.0231
   15SAPS  H16R 1932   6.343   2.574   3.411  1.5004 -1.0669  1.0053
   15SAPS  H16S 1933   6.447   2.601   3.542 -2.5946 -2.9567  0.8473
   15SAPS  C217 1934   6.445   2.772   3.401 -0.0609  0.7709  0.0091
   15SAPS  H17R 1935   6.535   2.728   3.353  0.4320  0.9674  0.7269
   15SAPS  H17S 1936   6.486   2.854   3.464  0.5369  1.4979 -1.2842
   15SAPS  C218 1937   6.347   2.822   3.290  0.1544 -0.0559  0.3545
   15SAPS  H18R 1938   6.391   2.918   3.256  1.1556 -0.7478 -0.3715
   15SAPS  H18S 1939   6.248   2.846   3.333 -0.0550  0.1905 -0.2568
   15SAPS  C219 1940   6.327   2.738   3.167 -0.1907  0.5712 -0.4506
   15SAPS  H19R 1941   6.270   2.645   3.190 -1.0061  0.6369 -2.1042
   15SAPS  H19S 1942   6.432   2.719   3.134 -0.4502 -1.3248 -0.3072
   15SAPS  C220 1943   6.256   2.803   3.044 -0.3012 -0.4032  0.1688
   15SAPS  H20R 1944   6.181   2.874   3.085 -1.3432 -1.0423 -0.5543
   15SAPS  H20S 1945   6.220   2.729   2.969  0.7705 -1.3851  0.5812
   15SAPS  H20T 1946   6.339   2.853   2.990 -0.6814  0.6169  0.4987
   15SAPS   C33 1947   5.151   2.722   2.648 -0.5157 -0.0047 -0.3313
   15SAPS   H3X 1948   5.167   2.826   2.613 -2.7073  0.3111 -0.5199
   15SAPS   H3Y 1949   5.250   2.684   2.681 -1.4207 -1.5924  0.7180
   15SAPS   C34 1950   5.069   2.729   2.778 -0.3313 -0.3840 -0.3002
   15SAPS   H4X 1951   5.032   2.626   2.794  1.0097 -0.8129  0.2356
   15SAPS   H4Y 1952   4.974   2.786   2.772  0.0188  0.3570  0.8381
   15SAPS   C35 1953   5.148   2.777   2.903 -0.1666 -0.6505  0.4396
   15SAPS   H5X 1954   5.161   2.887   2.902 -0.5788 -0.6047 -0.3305
   15SAPS   H5Y 1955   5.247   2.728   2.916 -0.4885 -1.1946  0.8907
   15SAPS   C36 1956   5.068   2.742   3.024 -0.2363  0.0299  0.1724
   15SAPS   H6X 1957   5.086   2.633   3.034  1.7627  0.2983 -0.0937
   15SAPS   H6Y 1958   4.960   2.767   3.016  0.3699  3.1814  0.4694
   15SAPS   C37 1959   5.101   2.831   3.145 -0.5631  0.3568  0.5933
   15SAPS   H7X 1960   5.034   2.783   3.219 -0.7551  1.0106  0.8471
   15SAPS   H7Y 1961   5.059   2.934   3.137 -2.0007 -0.2991 -1.2442
   15SAPS   C38 1962   5.247   2.837   3.185  0.1776 -0.0253 -0.1854
   15SAPS   H8X 1963   5.304   2.897   3.111 -0.9097  0.2852 -0.7964
   15SAPS   H8Y 1964   5.291   2.735   3.189  0.1774  0.0128  1.9006
   15SAPS   C39 1965   5.274   2.893   3.327 -0.0295  0.2629 -0.0574
   15SAPS   H9X 1966   5.211   2.837   3.399 -0.6083  0.2531 -0.5629
   15SAPS   H9Y 1967   5.235   2.996   3.315 -0.8779 -0.0042  0.2644
   15SAPS  C310 1968   5.417   2.897   3.354 -0.1025  0.5321  0.2004
   15SAPS  H10X 1969   5.470   2.949   3.272  0.9842 -0.8803 -0.0275
   15SAPS  H10Y 1970   5.463   2.796   3.351 -1.6202 -0.1654 -2.5339
   15SAPS  C311 1971   5.455   2.954   3.489 -0.0028 -0.4718 -0.9317
   15SAPS  H11X 1972   5.377   2.914   3.557  0.6280 -0.4442 -0.1706
   15SAPS  H11Y 1973   5.458   3.065   3.492 -2.9520 -0.3395  0.0248
   15SAPS  C312 1974   5.593   2.906   3.544  0.9341 -0.0287 -0.0608
   15SAPS  H12X 1975   5.662   2.926   3.459  0.4201  0.0204 -0.4779
   15SAPS  H12Y 1976   5.590   2.795   3.549  1.2285 -0.2094 -2.5769
   15SAPS  C313 1977   5.634   2.961   3.678  0.1084 -0.9455 -0.0100
   15SAPS  H13X 1978   5.541   2.957   3.738  0.4060  1.2884  0.6734
   15SAPS  H13Y 1979   5.647   3.071   3.676  0.6942 -0.9488  1.8016
   15SAPS  C314 1980   5.739   2.895   3.762  0.2705  0.4717  0.6292
   15SAPS  H14X 1981   5.747   2.960   3.853 -1.3229  0.0032  1.1361
   15SAPS  H14Y 1982   5.836   2.902   3.709  0.4208  1.8555  1.0374
   15SAPS  C315 1983   5.702   2.745   3.797 -0.5745  0.5181  0.9172
   15SAPS  H15X 1984   5.677   2.697   3.700 -0.7247  0.7719  0.8296
   15SAPS  H15Y 1985   5.604   2.747   3.850 -0.2802  1.9518  1.4394
   15SAPS  C316 1986   5.814   2.667   3.878  0.1992 -0.8483 -1.1724
   15SAPS  H16X 1987   5.835   2.719   3.974  0.1438 -0.4398 -1.3807
   15SAPS  H16Y 1988   5.909   2.660   3.821 -0.8491  0.9871 -3.3036
   15SAPS  C317 1989   5.759   2.526   3.891 -0.4062 -0.4736 -0.1326
   15SAPS  H17X 1990   5.747   2.481   3.790 -0.8611  0.3676 -0.4614
   15SAPS  H17Y 1991   5.659   2.524   3.940 -0.1219  1.5945  0.6591
   15SAPS  C318 1992   5.863   2.438   3.969  0.3318 -0.1920  0.8146
   15SAPS  H18X 1993   5.846   2.334   3.934  0.4809  0.1501 -0.3122
   15SAPS  H18Y 1994   5.840   2.448   4.077  1.4167  3.3166  0.8494
   15SAPS  H18Z 1995   5.965   2.473   3.939 -0.4413  2.5014  1.0353
   16SAPS     N 1996   6.526   3.595   1.966  0.1278 -0.1672 -0.1186
   16SAPS   HN1 1997   6.575   3.503   1.960  0.3906  0.0747 -2.8244
   16SAPS   HN2 1998   6.437   3.594   2.019  0.2080  2.1698  0.1473
   16SAPS   HN3 1999   6.509   3.616   1.866  0.6398 -2.5241 -0.7655
   16SAPS   C12 2000   6.619   3.705   2.024  0.6100 -0.5025  0.0219
   16SAPS  H12A 2001   6.624   3.680   2.129 -0.8223  0.2791  0.3008
   16SAPS   C13 2002   6.763   3.700   1.969  0.4429  0.0428 -0.3571
   16SAPS  O13A 2003   6.787   3.624   1.872 -0.8545 -0.4489  0.4791
   16SAPS  O13B 2004   6.851   3.779   2.017  0.2149 -0.3656 -0.0817
   16SAPS   C11 2005   6.543   3.849   2.008 -0.5043 -0.3013 -0.0093
   16SAPS  H11A 2006   6.526   3.863   1.899 -0.5598  2.7188  0.3295
   16SAPS  H11B 2007   6.606   3.930   2.049 -0.7234 -0.5495  0.8454
   16SAPS     P 2008   6.325   3.967   2.090 -0.0125 -0.0261 -0.0295
   16SAPS   O13 2009   6.396   4.082   2.031  0.0297  0.5064 -0.0412
   16SAPS   O14 2010   6.199   3.919   2.041  0.1462  0.3829  0.3480
   16SAPS   O12 2011   6.422   3.847   2.069  0.1265 -0.0442 -0.0588
   16SAPS   O11 2012   6.330   3.993   2.250 -0.3318  0.2254 -0.9456
   16SAPS    C1 2013   6.334   3.894   2.351  0.4071  0.2317  0.1554
   16SAPS    HA 2014   6.300   3.930   2.450  3.3216 -0.6847  1.6039
   16SAPS    HB 2015   6.263   3.813   2.326 -1.5644  1.3976  1.7205
   16SAPS    C2 2016   6.483   3.866   2.383  0.9628  0.2875 -0.5348
   16SAPS    HS 2017   6.512   3.828   2.282 -0.6055 -0.0029 -0.8965
   16SAPS   O21 2018   6.482   3.756   2.479 -0.6726 -0.7061 -0.1999
   16SAPS   C21 2019   6.594   3.690   2.481  0.9080 -0.4956 -0.0874
   16SAPS   O22 2020   6.684   3.709   2.405  0.5925 -0.1037 -0.1108
   16SAPS   C22 2021   6.585   3.571   2.575  0.7438  0.2336  0.3347
   16SAPS   H2R 2022   6.486   3.565   2.625 -0.1301 -4.2967 -1.4578
   16SAPS   H2S 2023   6.582   3.486   2.504 -1.0744  0.4266  0.1310
   16SAPS    C3 2024   6.563   3.982   2.430  0.3054 -0.4757 -0.2329
   16SAPS    HX 2025   6.560   4.059   2.350 -2.5251 -0.9651 -0.7223
   16SAPS    HY 2026   6.668   3.948   2.439  0.4139 -1.5068 -3.7908
   16SAPS   O31 2027   6.499   4.037   2.557  0.2066  0.2547  0.0328
   16SAPS   C31 2028   6.579   4.119   2.616 -0.7038 -0.1582 -0.7739
   16SAPS   O32 2029   6.697   4.136   2.587  0.0282 -0.3983  0.4573
   16SAPS   C32 2030   6.520   4.173   2.740  0.0047  0.1713 -0.0830
   16SAPS   H2X 2031   6.472   4.092   2.799  2.0614 -1.3555 -0.4234
   16SAPS   H2Y 2032   6.443   4.244   2.702 -1.0640 -0.5202  0.6922
   16SAPS   C23 2033   6.701   3.547   2.674 -0.3718 -0.3796 -0.1251
   16SAPS   H3R 2034   6.797   3.533   2.620  0.5782  3.0887  0.4181
   16SAPS   H3S 2035   6.672   3.455   2.729 -2.5488  0.8650  0.9421
   16SAPS   C24 2036   6.709   3.663   2.779 -0.0414 -0.6788  0.1931
   16SAPS   H4R 2037   6.738   3.754   2.721  0.7753  0.7375  2.6516
   16SAPS   H4S 2038   6.799   3.633   2.836 -0.2011 -2.6399 -0.5304
   16SAPS   C25 2039   6.590   3.687   2.871  0.0509  0.2579  0.2096
   16SAPS   H5R 2040   6.500   3.737   2.833 -0.3076  1.4615  2.5201
   16SAPS   C26 2041   6.588   3.684   3.007 -0.2944  0.8509  0.3667
   16SAPS   H6R 2042   6.490   3.705   3.053 -0.4770 -3.8005  2.6935
   16SAPS   C27 2043   6.695   3.622   3.090  0.0866 -0.1645  0.1711
   16SAPS   H7R 2044   6.793   3.619   3.038  0.5096  0.0547  0.9427
   16SAPS   H7S 2045   6.655   3.519   3.107 -0.7882 -0.7160 -4.0658
   16SAPS   C28 2046   6.701   3.705   3.215  0.0862  0.2144  0.0119
   16SAPS   H8R 2047   6.745   3.800   3.182 -0.9358  0.0521 -1.9714
   16SAPS   C29 2048   6.673   3.681   3.347  0.6568  0.2561  0.5932
   16SAPS   H9R 2049   6.688   3.763   3.419 -0.1364  1.6975 -0.8013
   16SAPS  C210 2050   6.610   3.556   3.392  0.2275  0.3747 -0.1699
   16SAPS  H10R 2051   6.676   3.497   3.460 -0.8566  1.2509  1.7220
   16SAPS  H10S 2052   6.583   3.489   3.308 -0.0914 -1.3190  1.2250
   16SAPS  C211 2053   6.477   3.573   3.475 -0.0246 -0.8625  0.2477
   16SAPS  H11R 2054   6.390   3.599   3.412  0.2520  0.9325  0.5443
   16SAPS  C212 2055   6.456   3.579   3.610 -0.1266 -0.0032 -0.0184
   16SAPS  H12R 2056   6.353   3.582   3.650 -0.4865 -0.3341 -0.9058
   16SAPS  C213 2057   6.555   3.559   3.726 -0.1108 -0.2161 -0.1259
   16SAPS  H13R 2058   6.597   3.653   3.768 -0.0216  0.1958 -1.1024
   16SAPS  H13S 2059   6.641   3.499   3.691 -0.5549 -1.4168  0.7930
   16SAPS  C214 2060   6.493   3.484   3.842  0.3629 -0.2221 -0.3609
   16SAPS  H14R 2061   6.432   3.397   3.814  1.2393 -1.0927  0.3708
   16SAPS  C215 2062   6.523   3.498   3.970 -0.7706 -0.4490 -0.2809
   16SAPS  H15R 2063   6.469   3.436   4.043 -1.1575  0.0486 -0.1362
   16SAPS  C216 2064   6.626   3.584   4.048  0.0799 -0.3933 -0.2801
   16SAPS  H16R 2065   6.577   3.681   4.072 -1.8815 -0.6240 -2.9127
   16SAPS  H16S 2066   6.709   3.617   3.981  0.0371  1.1072  0.3582
   16SAPS  C217 2067   6.681   3.524   4.175 -0.7234 -0.3504 -0.2987
   16SAPS  H17R 2068   6.736   3.433   4.144 -2.3389 -1.4357 -0.0753
   16SAPS  H17S 2069   6.599   3.495   4.245 -1.9596 -3.4189 -2.8009
   16SAPS  C218 2070   6.780   3.619   4.257  0.5861  0.1169  0.2642
   16SAPS  H18R 2071   6.785   3.572   4.357  2.2114 -1.2998 -0.4372
   16SAPS  H18S 2072   6.730   3.715   4.284  1.8245  1.4842 -1.9690
   16SAPS  C219 2073   6.920   3.631   4.211 -0.3304 -0.7612  0.2816
   16SAPS  H19R 2074   6.929   3.697   4.122  1.1144 -0.2279  0.8029
   16SAPS  H19S 2075   6.960   3.530   4.191  0.5864 -0.3141 -0.2051
   16SAPS  C220 2076   7.012   3.683   4.322 -0.0201 -0.4569  0.7271
   16SAPS  H20R 2077   6.976   3.783   4.354 -0.5369 -0.6366  0.7218
   16SAPS  H20S 2078   7.117   3.705   4.294 -1.0189  3.7158 -0.4305
   16SAPS  H20T 2079   7.014   3.620   4.413 -2.1214  0.5000  1.5130
   16SAPS   C33 2080   6.630   4.258   2.819 -0.2421  0.1211 -0.0687
   16SAPS   H3X 2081   6.689   4.316   2.745 -2.0491  0.8950 -0.9451
   16SAPS   H3Y 2082   6.699   4.190   2.873 -0.2464  0.2220  0.0667
   16SAPS   C34 2083   6.575   4.354   2.931 -0.2781  1.1517 -0.7772
   16SAPS   H4X 2084   6.499   4.420   2.884  0.6473  1.6712 -1.5788
   16SAPS   H4Y 2085   6.654   4.426   2.960  1.3449 -1.2482  1.2619
   16SAPS   C35 2086   6.520   4.285   3.058  0.0503 -0.3208 -0.0500
   16SAPS   H5X 2087   6.484   4.181   3.043 -1.7821 -0.3476  3.4805
   16SAPS   H5Y 2088   6.429   4.342   3.087 -1.4886 -1.6157 -2.0422
   16SAPS   C36 2089   6.626   4.268   3.175 -0.1113 -0.3165 -0.0788
   16SAPS   H6X 2090   6.642   4.368   3.222 -2.4655 -0.9568  2.3343
   16SAPS   H6Y 2091   6.717   4.224   3.130  0.1070 -0.3101  0.3465
   16SAPS   C37 2092   6.564   4.182   3.282  0.6412  0.6103 -0.0112
   16SAPS   H7X 2093   6.520   4.085   3.250 -2.8129  1.0191  2.8126
   16SAPS   H7Y 2094   6.477   4.229   3.334  0.9987  0.3605  0.8353
   16SAPS   C38 2095   6.662   4.158   3.401 -0.0631 -0.6604 -0.0840
   16SAPS   H8X 2096   6.693   4.259   3.436 -0.1320 -1.0354  1.1105
   16SAPS   H8Y 2097   6.759   4.118   3.363  0.2968  0.7906 -0.7767
   16SAPS   C39 2098   6.606   4.075   3.516  0.2162 -0.0198 -0.5233
   16SAPS   H9X 2099   6.597   3.966   3.497 -1.6205  0.0940 -0.4297
   16SAPS   H9Y 2100   6.513   4.122   3.554  0.0768  0.4418 -1.4016
   16SAPS  C310 2101   6.697   4.069   3.640 -0.1118 -0.6759  0.1921
   16SAPS  H10X 2102   6.745   4.169   3.654 -1.0203 -0.0210 -1.1514
   16SAPS  H10Y 2103   6.780   3.997   3.624 -0.9027 -1.3081 -1.2408
   16SAPS  C311 2104   6.615   4.038   3.762  1.0967 -0.1982 -0.0064
   16SAPS  H11X 2105   6.561   3.941   3.753 -1.5389  1.1667  0.0580
   16SAPS  H11Y 2106   6.533   4.106   3.792  3.3683  2.4730  0.5435
   16SAPS  C312 2107   6.698   4.040   3.895 -0.2375  0.2314  0.1935
   16SAPS  H12X 2108   6.770   4.125   3.899  0.9240 -0.7734  2.1658
   16SAPS  H12Y 2109   6.752   3.943   3.895 -1.0023 -0.2236 -1.7350
   16SAPS  C313 2110   6.610   4.043   4.016  0.0883 -0.0012 -1.0204
   16SAPS  H13X 2111   6.560   3.945   4.000  1.0728 -0.5402 -0.8542
   16SAPS  H13Y 2112   6.531   4.122   4.009 -1.9867 -1.3398  3.5724
   16SAPS  C314 2113   6.683   4.024   4.146 -0.0543  0.2960  0.2457
   16SAPS  H14X 2114   6.712   4.125   4.184  1.6299 -0.0767  0.0533
   16SAPS  H14Y 2115   6.773   3.960   4.132  0.4592  1.3731 -1.6948
   16SAPS  C315 2116   6.592   3.954   4.255  0.5863 -0.2237 -0.1527
   16SAPS  H15X 2117   6.586   3.851   4.216  0.7218 -0.3614  0.1880
   16SAPS  H15Y 2118   6.492   4.002   4.248  0.6324 -0.3442 -2.8318
   16SAPS  C316 2119   6.645   3.968   4.397 -0.7959 -0.2240  0.1034
   16SAPS  H16X 2120   6.650   4.074   4.431 -1.4319  0.0717 -0.7226
   16SAPS  H16Y 2121   6.746   3.922   4.389 -1.3588 -1.1435 -2.9398
   16SAPS  C317 2122   6.554   3.893   4.498 -0.3837  0.2214 -0.3006
   16SAPS  H17X 2123   6.457   3.948   4.490  1.2097  2.9494 -4.1353
   16SAPS  H17Y 2124   6.576   3.921   4.603 -0.1614  0.8011 -0.4984
   16SAPS  C318 2125   6.539   3.742   4.494 -0.4933  0.1404  1.0044
   16SAPS  H18X 2126   6.512   3.704   4.393 -2.2530 -0.1336  1.5338
   16SAPS  H18Y 2127   6.455   3.718   4.563 -1.4437  0.0184 -0.1487
   16SAPS  H18Z 2128   6.634   3.694   4.526 -1.2336 -1.6604  0.6433
   17SAPS     N 2129   0.444   0.721   2.081 -0.3240  0.1582 -0.1001
   17SAPS   HN1 2130   0.505   0.711   2.164 -1.8329 -1.2784  0.9096
   17SAPS   HN2 2131   0.372   0.792   2.106 -0.5029 -0.6974  2.0049
   17SAPS   HN3 2132   0.395   0.629   2.083  1.7062 -0.9714  0.6374
   17SAPS   C12 2133   0.510   0.764   1.949  0.0518 -0.4838 -0.3195
   17SAPS  H12A 2134   0.594   0.698   1.935 -0.1835 -1.4933  2.3549
   17SAPS   C13 2135   0.410   0.738   1.834 -0.7441  0.1630 -0.5181
   17SAPS  O13A 2136   0.306   0.675   1.858  0.0064 -0.0878  0.2606
   17SAPS  O13B 2137   0.449   0.762   1.714 -0.5588  0.6747 -0.2797
   17SAPS   C11 2138   0.557   0.915   1.945  0.6198 -0.1393  0.4477
   17SAPS  H11A 2139   0.465   0.977   1.938 -0.2935 -1.5111 -0.0543
   17SAPS  H11B 2140   0.602   0.924   1.843 -1.8730 -1.3800 -0.8507
   17SAPS     P 2141   0.761   1.057   2.030 -0.4080 -0.1064  0.1997
   17SAPS   O13 2142   0.886   0.976   2.018  0.1570 -0.0080  0.2832
   17SAPS   O14 2143   0.733   1.150   1.920 -0.0973 -0.1642  0.1694
   17SAPS   O12 2144   0.634   0.966   2.048  0.0253 -0.2407 -0.4715
   17SAPS   O11 2145   0.753   1.135   2.158 -0.2620 -0.5743 -0.1940
   17SAPS    C1 2146   0.712   1.068   2.273  0.7929  0.0264 -1.2610
   17SAPS    HA 2147   0.605   1.041   2.263  1.2024 -2.4377  0.0365
   17SAPS    HB 2148   0.772   0.977   2.295 -0.8056 -1.0128 -1.0382
   17SAPS    C2 2149   0.752   1.152   2.403  0.1478 -0.4432 -0.3876
   17SAPS    HS 2150   0.690   1.242   2.382  1.3442  0.5515  0.2286
   17SAPS   O21 2151   0.887   1.184   2.391  0.6854  0.0395  0.2054
   17SAPS   C21 2152   0.922   1.309   2.428 -0.2467  0.4543  0.6037
   17SAPS   O22 2153   0.854   1.390   2.486 -0.1264 -1.0020 -0.1346
   17SAPS   C22 2154   1.075   1.328   2.393  0.2036 -0.6232  0.7751
   17SAPS   H2R 2155   1.071   1.387   2.299 -2.1389  1.8758  2.3084
   17SAPS   H2S 2156   1.109   1.399   2.471 -0.8606  0.8018 -0.0175
   17SAPS    C3 2157   0.720   1.081   2.538  0.6210 -0.0907 -0.2450
   17SAPS    HX 2158   0.779   0.987   2.537 -0.1777 -0.6101 -0.2046
   17SAPS    HY 2159   0.617   1.043   2.554  0.9934 -0.4243  1.6735
   17SAPS   O31 2160   0.753   1.164   2.647 -0.5599  0.1871  0.4049
   17SAPS   C31 2161   0.666   1.265   2.678 -0.4743 -0.6232 -0.2991
   17SAPS   O32 2162   0.562   1.277   2.614  0.0786 -0.5190 -0.4284
   17SAPS   C32 2163   0.716   1.347   2.798  0.4599  0.6414 -0.5687
   17SAPS   H2X 2164   0.733   1.448   2.754  1.1470  1.7684  2.0731
   17SAPS   H2Y 2165   0.804   1.314   2.856  0.6243 -0.0195 -1.1866
   17SAPS   C23 2166   1.160   1.206   2.378  0.4282 -0.2954 -0.3084
   17SAPS   H3R 2167   1.249   1.226   2.314 -0.6079  1.7250 -1.1849
   17SAPS   H3S 2168   1.101   1.134   2.318 -0.1361  1.0239 -1.3895
   17SAPS   C24 2169   1.199   1.151   2.514  0.2436 -0.3106 -0.0405
   17SAPS   H4R 2170   1.259   1.233   2.560 -0.8771  0.4719  0.0703
   17SAPS   H4S 2171   1.265   1.064   2.497  1.6981  1.0976 -1.9998
   17SAPS   C25 2172   1.089   1.108   2.606  0.4049  0.6173 -0.1723
   17SAPS   H5R 2173   1.003   1.064   2.552  1.4222  1.2640 -2.4300
   17SAPS   C26 2174   1.075   1.144   2.733  0.1806 -0.2631 -0.3137
   17SAPS   H6R 2175   0.983   1.109   2.782  0.9797 -0.0133  1.4386
   17SAPS   C27 2176   1.178   1.207   2.819  0.5777  0.4813  0.0322
   17SAPS   H7R 2177   1.262   1.236   2.753  1.1479 -0.9971  0.0783
   17SAPS   H7S 2178   1.223   1.140   2.895 -1.4500 -1.4774 -0.3810
   17SAPS   C28 2179   1.117   1.331   2.885  0.4210 -0.5525 -0.0177
   17SAPS   H8R 2180   1.103   1.419   2.820 -1.6206  0.2885  1.4529
   17SAPS   C29 2181   1.094   1.354   3.018  0.1330 -0.3607  0.1464
   17SAPS   H9R 2182   1.070   1.454   3.056 -1.0076  0.2715 -2.0853
   17SAPS  C210 2183   1.113   1.254   3.126 -0.5915  0.3727 -0.4545
   17SAPS  H10R 2184   1.129   1.148   3.094  0.0378 -0.5614  2.5796
   17SAPS  H10S 2185   1.023   1.249   3.190 -0.5885  2.2371 -0.2527
   17SAPS  C211 2186   1.239   1.287   3.210  0.6961  0.4337  0.0433
   17SAPS  H11R 2187   1.339   1.261   3.171  1.2765  0.9482  1.1289
   17SAPS  C212 2188   1.238   1.335   3.344  0.1256 -0.2687  0.1318
   17SAPS  H12R 2189   1.332   1.346   3.399  0.0490  0.5618  0.1078
   17SAPS  C213 2190   1.116   1.356   3.428 -0.6922  0.0970 -0.2737
   17SAPS  H13R 2191   1.061   1.261   3.444  1.7410 -1.1645  1.3224
   17SAPS  H13S 2192   1.047   1.423   3.372  0.2247  0.0816 -1.4851
   17SAPS  C214 2193   1.152   1.416   3.564 -1.0690  0.6063  0.6321
   17SAPS  H14R 2194   1.241   1.380   3.616 -1.2892  1.6373  1.7764
   17SAPS  C215 2195   1.070   1.500   3.632  0.8602  1.4454  0.4539
   17SAPS  H15R 2196   1.118   1.559   3.712 -0.8144  2.8819  0.4596
   17SAPS  C216 2197   0.930   1.554   3.601  0.1473  0.2434 -0.0815
   17SAPS  H16R 2198   0.899   1.513   3.502 -0.1258 -1.3444  0.6243
   17SAPS  H16S 2199   0.925   1.664   3.597  0.3508  0.2910  0.8424
   17SAPS  C217 2200   0.846   1.505   3.717  0.4037 -0.2373 -0.1558
   17SAPS  H17R 2201   0.834   1.395   3.723  2.0748 -0.3709  2.3611
   17SAPS  H17S 2202   0.746   1.548   3.693 -0.1135 -0.7714  0.9204
   17SAPS  C218 2203   0.871   1.565   3.860  0.2883 -0.0244 -0.0315
   17SAPS  H18R 2204   0.960   1.521   3.910 -1.1694 -1.9789  0.9617
   17SAPS  H18S 2205   0.787   1.530   3.925  0.4795 -0.3017  0.0699
   17SAPS  C219 2206   0.869   1.717   3.862 -0.4581  0.1678 -0.3104
   17SAPS  H19R 2207   0.773   1.749   3.815 -2.2384 -2.9055  0.8958
   17SAPS  H19S 2208   0.955   1.757   3.803 -0.0151 -0.5472 -0.1633
   17SAPS  C220 2209   0.893   1.776   4.008  0.4290 -0.1227  0.4824
   17SAPS  H20R 2210   0.831   1.729   4.087 -1.2353 -0.2596 -0.8369
   17SAPS  H20S 2211   0.888   1.887   4.012 -0.6780 -0.1277 -0.1020
   17SAPS  H20T 2212   0.998   1.758   4.037  0.2630  2.1264  2.8448
   17SAPS   C33 2213   0.605   1.375   2.897  0.1882 -0.8258 -0.3355
   17SAPS   H3X 2214   0.557   1.279   2.926 -1.6886 -0.0642 -0.7288
   17SAPS   H3Y 2215   0.527   1.431   2.839  0.9717  0.9121  0.2080
   17SAPS   C34 2216   0.647   1.458   3.015  1.0654  0.5878  0.8383
   17SAPS   H4X 2217   0.668   1.559   2.973  0.9426  0.4987  0.5687
   17SAPS   H4Y 2218   0.737   1.407   3.056  3.1369  1.1008 -2.6599
   17SAPS   C35 2219   0.550   1.493   3.127  0.1735  0.5800  0.1838
   17SAPS   H5X 2220   0.519   1.392   3.163  2.2422  0.6532  2.4932
   17SAPS   H5Y 2221   0.470   1.557   3.086 -1.0452 -0.7220  0.4499
   17SAPS   C36 2222   0.628   1.556   3.250 -0.7957 -0.6183  0.1488
   17SAPS   H6X 2223   0.679   1.652   3.224 -1.2369 -0.1129  1.0950
   17SAPS   H6Y 2224   0.708   1.483   3.273  1.5970  0.9178 -2.5492
   17SAPS   C37 2225   0.521   1.576   3.362  0.0547 -0.1949  0.4113
   17SAPS   H7X 2226   0.501   1.472   3.396 -0.7267 -0.2122 -0.0755
   17SAPS   H7Y 2227   0.432   1.621   3.314  1.4312 -0.2733 -2.4646
   17SAPS   C38 2228   0.576   1.678   3.461  0.3526 -0.1444  0.0563
   17SAPS   H8X 2229   0.619   1.770   3.417 -0.3883  1.0714  1.7471
   17SAPS   H8Y 2230   0.661   1.634   3.517 -0.5626  0.1511  1.7795
   17SAPS   C39 2231   0.477   1.720   3.571 -0.6993 -0.7617  0.8847
   17SAPS   H9X 2232   0.467   1.638   3.645  1.8381 -0.5322  1.5823
   17SAPS   H9Y 2233   0.382   1.748   3.521  1.3772  3.6336 -1.1776
   17SAPS  C310 2234   0.528   1.851   3.643  0.2143 -0.7761  0.4288
   17SAPS  H10X 2235   0.493   1.934   3.577  0.5222 -0.6560  0.4166
   17SAPS  H10Y 2236   0.639   1.851   3.648  0.1518 -0.6195  2.0330
   17SAPS  C311 2237   0.475   1.868   3.787 -0.2040  0.3518  0.2852
   17SAPS  H11X 2238   0.508   1.776   3.839 -0.9222 -0.4037 -0.5671
   17SAPS  H11Y 2239   0.365   1.859   3.784 -0.1839  0.1379  0.1438
   17SAPS  C312 2240   0.528   1.986   3.876  0.3113 -0.4234  0.5979
   17SAPS  H12X 2241   0.564   2.067   3.810  0.8632 -0.9185  0.2765
   17SAPS  H12Y 2242   0.616   1.940   3.927  0.5842 -0.5386  0.0402
   17SAPS  C313 2243   0.431   2.040   3.982 -0.0500 -0.5655 -0.2138
   17SAPS  H13X 2244   0.385   1.961   4.044 -1.7071  0.6818  0.2204
   17SAPS  H13Y 2245   0.358   2.102   3.925  1.9275 -0.4110 -2.8207
   17SAPS  C314 2246   0.510   2.126   4.086 -0.6074 -0.8423 -0.5555
   17SAPS  H14X 2247   0.580   2.200   4.041 -1.5617 -0.8608 -2.1754
   17SAPS  H14Y 2248   0.582   2.056   4.133  0.3413  2.0717  2.7247
   17SAPS  C315 2249   0.427   2.186   4.195 -0.3568  0.4287 -0.7940
   17SAPS  H15X 2250   0.353   2.114   4.236  0.5231  0.2535  0.5269
   17SAPS  H15Y 2251   0.384   2.281   4.158 -2.6635 -0.6744 -1.1795
   17SAPS  C316 2252   0.523   2.219   4.305  0.0654  0.8865 -0.1406
   17SAPS  H16X 2253   0.581   2.306   4.269  0.8307 -0.6933 -3.0384
   17SAPS  H16Y 2254   0.602   2.143   4.324 -2.5000 -2.3551 -1.3335
   17SAPS  C317 2255   0.466   2.272   4.441 -0.6105 -0.1926 -0.3725
   17SAPS  H17X 2256   0.387   2.203   4.479 -0.4504  0.5797  1.4711
   17SAPS  H17Y 2257   0.414   2.368   4.419  1.7349  1.1955 -0.1769
   17SAPS  C318 2258   0.574   2.301   4.545 -0.8382  0.0262 -0.0089
   17SAPS  H18X 2259   0.533   2.347   4.637  0.9012  1.5586  0.0424
   17SAPS  H18Y 2260   0.658   2.369   4.520  1.8430 -2.1692  2.2962
   17SAPS  H18Z 2261   0.613   2.202   4.578 -1.2670  0.6712  2.6624
   18SAPS     N 2262   3.491   2.247   2.022  0.4615 -0.5669 -0.2035
   18SAPS   HN1 2263   3.409   2.310   2.008 -2.2280 -3.7612 -0.0490
   18SAPS   HN2 2264   3.465   2.147   2.011 -0.2980 -0.5107  0.9593
   18SAPS   HN3 2265   3.528   2.257   2.118  0.7216 -0.0795 -0.3495
   18SAPS   C12 2266   3.594   2.294   1.926 -0.0585  0.0824 -0.1446
   18SAPS  H12A 2267   3.554   2.254   1.835  0.0402  0.9222 -0.5613
   18SAPS   C13 2268   3.615   2.447   1.924  0.4112 -0.3706 -0.6168
   18SAPS  O13A 2269   3.576   2.523   2.014  0.0864  0.1855 -0.5880
   18SAPS  O13B 2270   3.682   2.498   1.827  0.4640 -0.3668 -0.1277
   18SAPS   C11 2271   3.727   2.213   1.948  0.3849 -0.0597 -0.2182
   18SAPS  H11A 2272   3.757   2.216   2.055  0.3384  1.3403 -0.2265
   18SAPS  H11B 2273   3.805   2.259   1.882 -0.4529 -0.5833 -1.6281
   18SAPS     P 2274   3.818   1.978   1.886 -0.2016  0.1709  0.2031
   18SAPS   O13 2275   3.765   1.843   1.863  0.4822 -0.4890  0.3352
   18SAPS   O14 2276   3.910   2.039   1.791 -0.5327 -0.2658  0.3881
   18SAPS   O12 2277   3.695   2.078   1.902 -0.8580 -0.2821 -0.2501
   18SAPS   O11 2278   3.890   1.980   2.027  0.0913  0.1298 -0.0786
   18SAPS    C1 2279   3.861   1.889   2.139 -0.6988 -0.1227 -0.1528
   18SAPS    HA 2280   3.780   1.817   2.114 -1.4426 -0.9336  3.8803
   18SAPS    HB 2281   3.948   1.825   2.164  0.0981  0.0641 -2.2094
   18SAPS    C2 2282   3.815   1.972   2.259 -0.7663  0.1293 -0.8072
   18SAPS    HS 2283   3.747   2.053   2.223 -0.9560  0.2527 -0.1736
   18SAPS   O21 2284   3.941   2.015   2.319  0.1517  0.3082 -0.3976
   18SAPS   C21 2285   3.938   2.126   2.394  0.0478  0.0729  0.2641
   18SAPS   O22 2286   3.842   2.194   2.416  0.4331 -0.7698 -0.0398
   18SAPS   C22 2287   4.072   2.165   2.444 -0.2983  0.2170  0.2955
   18SAPS   H2R 2288   4.145   2.081   2.440  0.2302  0.7060 -0.8694
   18SAPS   H2S 2289   4.114   2.252   2.390 -1.4237  1.5903  1.5595
   18SAPS    C3 2290   3.738   1.876   2.364  0.6346  0.0576  0.1917
   18SAPS    HX 2291   3.794   1.781   2.369  1.2114  0.4404  1.2803
   18SAPS    HY 2292   3.638   1.862   2.318  0.6963  1.0759 -0.2833
   18SAPS   O31 2293   3.728   1.918   2.502  0.0362  1.1674  0.1248
   18SAPS   C31 2294   3.621   1.864   2.566  0.5429 -0.0303  0.0165
   18SAPS   O32 2295   3.539   1.793   2.512  0.4340  0.0466  0.0863
   18SAPS   C32 2296   3.634   1.893   2.720 -0.3057  0.5068 -0.0940
   18SAPS   H2X 2297   3.678   1.996   2.716  0.2082  0.2666 -1.2900
   18SAPS   H2Y 2298   3.703   1.824   2.772  0.3079  1.3219  0.1972
   18SAPS   C23 2299   4.064   2.222   2.586 -0.3536  0.0243  0.1575
   18SAPS   H3R 2300   4.003   2.151   2.647 -0.7183  0.3771  0.2113
   18SAPS   H3S 2301   4.010   2.318   2.599 -1.2271 -0.0768 -2.2684
   18SAPS   C24 2302   4.198   2.219   2.653  0.3556 -0.4711 -0.7068
   18SAPS   H4R 2303   4.256   2.135   2.609  1.1815 -1.0720  1.3713
   18SAPS   H4S 2304   4.191   2.214   2.764 -1.0363  0.1284 -0.7550
   18SAPS   C25 2305   4.295   2.337   2.623 -0.1399  0.3555 -0.2587
   18SAPS   H5R 2306   4.338   2.332   2.522 -1.2469  0.2239 -0.7401
   18SAPS   C26 2307   4.342   2.441   2.698 -0.1945 -0.4217  0.0716
   18SAPS   H6R 2308   4.419   2.501   2.646  1.0031 -1.5457  0.4852
   18SAPS   C27 2309   4.302   2.486   2.839  0.7609  0.5754 -0.1149
   18SAPS   H7R 2310   4.379   2.553   2.882 -1.0881  2.2139  0.8109
   18SAPS   H7S 2311   4.303   2.390   2.894  0.6511  0.3883 -0.4364
   18SAPS   C28 2312   4.160   2.545   2.845  0.1685  0.1725  0.1238
   18SAPS   H8R 2313   4.089   2.534   2.762  0.3677  0.8255 -0.1342
   18SAPS   C29 2314   4.109   2.601   2.955 -0.9815  0.5738  0.1364
   18SAPS   H9R 2315   4.014   2.657   2.953 -0.0643  2.5647  3.3747
   18SAPS  C210 2316   4.180   2.631   3.088 -0.0273  0.0425  0.3324
   18SAPS  H10R 2317   4.291   2.631   3.081  0.0672  1.7675  1.1974
   18SAPS  H10S 2318   4.168   2.541   3.152  1.0270 -0.5599 -0.2921
   18SAPS  C211 2319   4.148   2.763   3.163  0.7239 -0.4456 -0.3034
   18SAPS  H11R 2320   4.079   2.831   3.110  0.6932 -0.7994 -0.7311
   18SAPS  C212 2321   4.186   2.790   3.284  0.4228  0.1682 -0.1674
   18SAPS  H12R 2322   4.147   2.886   3.320 -0.7270 -0.7171  1.0164
   18SAPS  C213 2323   4.266   2.717   3.391  1.0798 -0.0369  0.4505
   18SAPS  H13R 2324   4.374   2.744   3.387  1.0423  0.1702  0.7763
   18SAPS  H13S 2325   4.253   2.609   3.371 -0.6766  0.4029 -1.0886
   18SAPS  C214 2326   4.226   2.740   3.534  0.3005 -0.1591  0.8902
   18SAPS  H14R 2327   4.136   2.689   3.572 -1.8708  0.9522 -2.2622
   18SAPS  C215 2328   4.266   2.834   3.621  0.2120 -0.0332  0.8163
   18SAPS  H15R 2329   4.235   2.840   3.726 -0.2203 -2.6637  0.9159
   18SAPS  C216 2330   4.365   2.936   3.581  0.0775  0.1392 -0.0881
   18SAPS  H16R 2331   4.333   3.030   3.630 -2.0987  0.9567 -2.7660
   18SAPS  H16S 2332   4.373   2.949   3.470  2.1542 -2.2539 -0.2930
   18SAPS  C217 2333   4.515   2.907   3.620 -0.0973 -0.1808 -0.2332
   18SAPS  H17R 2334   4.578   2.991   3.584 -0.0677 -0.0125  0.2030
   18SAPS  H17S 2335   4.545   2.819   3.560 -1.1080  0.1439 -1.2558
   18SAPS  C218 2336   4.545   2.885   3.771 -0.8887 -0.5556 -0.0192
   18SAPS  H18R 2337   4.651   2.860   3.792 -1.1246 -0.4546  1.3369
   18SAPS  H18S 2338   4.480   2.802   3.804 -0.3996 -1.7546 -1.9201
   18SAPS  C219 2339   4.508   3.013   3.852 -0.2914  0.2715 -0.0199
   18SAPS  H19R 2340   4.400   3.036   3.845  0.4797  4.4231 -1.2260
   18SAPS  H19S 2341   4.559   3.106   3.819  2.4276 -0.6857  1.1053
   18SAPS  C220 2342   4.535   2.991   4.006 -0.5088 -0.7582  0.6870
   18SAPS  H20R 2343   4.542   2.887   4.045 -1.4011 -1.2261 -0.3408
   18SAPS  H20S 2344   4.459   3.050   4.061 -0.1749 -0.9382  1.3620
   18SAPS  H20T 2345   4.638   3.032   4.017 -0.5529 -0.5148  0.1916
   18SAPS   C33 2346   3.501   1.885   2.789 -0.2375 -0.1668  0.1739
   18SAPS   H3X 2347   3.483   1.777   2.808  3.1572 -0.7235  0.8647
   18SAPS   H3Y 2348   3.425   1.934   2.724  0.4302  0.1654 -0.3642
   18SAPS   C34 2349   3.520   1.964   2.917  0.1730  0.0175  0.3347
   18SAPS   H4X 2350   3.419   2.006   2.937  0.4161  0.2703  1.0659
   18SAPS   H4Y 2351   3.583   2.055   2.911  0.7268 -0.2427  1.7318
   18SAPS   C35 2352   3.573   1.873   3.028 -0.5034  0.2342  0.2359
   18SAPS   H5X 2353   3.674   1.830   3.012 -0.8302 -1.5489  2.4503
   18SAPS   H5Y 2354   3.500   1.791   3.044 -0.0562 -0.3484 -0.6121
   18SAPS   C36 2355   3.571   1.950   3.161  0.0010 -0.1144  0.2404
   18SAPS   H6X 2356   3.470   1.995   3.157 -0.4445 -1.1499 -0.7549
   18SAPS   H6Y 2357   3.639   2.037   3.154  1.9052 -1.5274  0.2507
   18SAPS   C37 2358   3.603   1.882   3.301  0.2281  0.1417 -0.0196
   18SAPS   H7X 2359   3.707   1.842   3.293  0.5888  1.1232 -0.4943
   18SAPS   H7Y 2360   3.546   1.792   3.330  0.3767  0.1200  0.2095
   18SAPS   C38 2361   3.592   1.978   3.426  0.8036 -0.1595  0.3594
   18SAPS   H8X 2362   3.486   2.012   3.419  0.1750 -1.5332  2.3356
   18SAPS   H8Y 2363   3.645   2.073   3.405  0.7487 -0.1297  0.3553
   18SAPS   C39 2364   3.626   1.924   3.567  0.3760 -0.2960 -0.3013
   18SAPS   H9X 2365   3.708   1.850   3.579 -0.1744 -0.6103  1.8382
   18SAPS   H9Y 2366   3.541   1.854   3.584 -0.4697  0.8767  0.4590
   18SAPS  C310 2367   3.632   2.032   3.679  0.3304 -0.2767 -0.3323
   18SAPS  H10X 2368   3.571   2.117   3.644  1.9701 -0.3016 -3.5794
   18SAPS  H10Y 2369   3.737   2.065   3.697 -0.7944  2.7673  1.3629
   18SAPS  C311 2370   3.569   1.976   3.807 -0.3180  0.5364 -0.1266
   18SAPS  H11X 2371   3.621   1.880   3.827 -0.1225  0.7055  0.1899
   18SAPS  H11Y 2372   3.461   1.957   3.789 -0.0311 -2.2194  0.6532
   18SAPS  C312 2373   3.582   2.070   3.933  0.1067  0.7882  0.2017
   18SAPS  H12X 2374   3.501   2.144   3.920  0.7996  1.6171  0.5324
   18SAPS  H12Y 2375   3.677   2.125   3.915  0.0492  0.7555 -0.2004
   18SAPS  C313 2376   3.571   1.992   4.063  0.1577 -0.2061  0.4076
   18SAPS  H13X 2377   3.642   1.906   4.061 -0.4275 -0.6891 -1.7353
   18SAPS  H13Y 2378   3.469   1.948   4.067  0.8157 -2.0616 -1.1856
   18SAPS  C314 2379   3.585   2.077   4.192  0.0703 -0.1120  0.4919
   18SAPS  H14X 2380   3.650   2.167   4.182 -1.2029  0.8469  0.4678
   18SAPS  H14Y 2381   3.624   2.013   4.274 -0.3273 -1.3568 -0.2622
   18SAPS  C315 2382   3.446   2.133   4.246 -0.4727 -0.0419 -0.1824
   18SAPS  H15X 2383   3.466   2.170   4.349 -0.6394  2.2108 -0.9089
   18SAPS  H15Y 2384   3.372   2.050   4.257  0.2611 -0.7160 -0.2535
   18SAPS  C316 2385   3.381   2.244   4.162  0.2419 -0.7557 -0.7040
   18SAPS  H16X 2386   3.293   2.278   4.221  1.6104  0.6961  0.6030
   18SAPS  H16Y 2387   3.349   2.220   4.059  1.5084 -1.1812 -1.0219
   18SAPS  C317 2388   3.467   2.372   4.167  0.0994  0.8103  0.5094
   18SAPS  H17X 2389   3.563   2.353   4.115 -0.8518 -0.2058 -0.9710
   18SAPS  H17Y 2390   3.487   2.389   4.275 -0.3966  0.5520  0.6488
   18SAPS  C318 2391   3.419   2.500   4.117  0.5614 -0.6059 -0.2206
   18SAPS  H18X 2392   3.363   2.485   4.022  1.2221 -1.3778 -0.4996
   18SAPS  H18Y 2393   3.511   2.554   4.084  0.6065  0.8448  2.0820
   18SAPS  H18Z 2394   3.360   2.547   4.199  1.0349 -0.8222  0.2523
   19SAPS     N 2395   3.248   4.598   2.037  0.3040 -0.1894 -0.4137
   19SAPS   HN1 2396   3.331   4.661   2.039  1.3932 -1.5390  2.4946
   19SAPS   HN2 2397   3.164   4.644   1.996 -0.1658 -0.6177  0.0659
   19SAPS   HN3 2398   3.222   4.584   2.137 -1.4401  0.0767 -0.7985
   19SAPS   C12 2399   3.263   4.470   1.967  0.5685 -0.1072 -0.6818
   19SAPS  H12A 2400   3.178   4.409   1.994  1.2534  0.3139  2.8747
   19SAPS   C13 2401   3.281   4.481   1.820 -0.4202  1.1868  0.7333
   19SAPS  O13A 2402   3.263   4.592   1.755 -0.7285 -0.0227  0.4817
   19SAPS  O13B 2403   3.308   4.376   1.752  0.2257  0.2407  0.2115
   19SAPS   C11 2404   3.400   4.408   2.018 -0.7454  0.1230 -0.4043
   19SAPS  H11A 2405   3.483   4.467   1.974 -0.5055 -0.6823 -1.0577
   19SAPS  H11B 2406   3.423   4.304   1.987  1.5270  0.0387  1.3123
   19SAPS     P 2407   3.478   4.302   2.246 -0.0866  0.2085 -0.2142
   19SAPS   O13 2408   3.423   4.173   2.204  0.4626  0.7729  0.4722
   19SAPS   O14 2409   3.620   4.320   2.230 -0.0226  0.1968 -0.0821
   19SAPS   O12 2410   3.410   4.422   2.159 -0.5232 -0.3237  0.1733
   19SAPS   O11 2411   3.434   4.330   2.395 -0.0014 -0.8285 -0.4762
   19SAPS    C1 2412   3.462   4.465   2.453 -0.2384 -0.1643  0.2118
   19SAPS    HA 2413   3.572   4.483   2.452  0.0398 -1.6218  1.0449
   19SAPS    HB 2414   3.418   4.553   2.403 -2.0546 -0.9324  0.3809
   19SAPS    C2 2415   3.436   4.471   2.603 -0.1448  0.3576 -0.2217
   19SAPS    HS 2416   3.463   4.568   2.649 -2.7589  1.4841 -0.8942
   19SAPS   O21 2417   3.496   4.362   2.676  0.4431 -0.2079 -0.4841
   19SAPS   C21 2418   3.629   4.371   2.708  0.5034 -0.0634  0.2053
   19SAPS   O22 2419   3.695   4.464   2.669 -0.2992 -0.3658 -0.1931
   19SAPS   C22 2420   3.667   4.258   2.791  0.0823 -0.2289  0.0018
   19SAPS   H2R 2421   3.599   4.170   2.787  0.3180 -0.3508 -1.9558
   19SAPS   H2S 2422   3.762   4.221   2.747 -2.1133 -2.9215 -2.9396
   19SAPS    C3 2423   3.285   4.461   2.623  0.2767 -0.4101  0.6919
   19SAPS    HX 2424   3.254   4.380   2.553 -2.2805  0.8355  0.2268
   19SAPS    HY 2425   3.242   4.555   2.582  0.2511 -0.6212  0.2245
   19SAPS   O31 2426   3.244   4.443   2.760  0.0497  0.0290  0.0291
   19SAPS   C31 2427   3.135   4.375   2.779  0.2427  0.4407  0.7321
   19SAPS   O32 2428   3.055   4.347   2.691  0.3351  0.5779 -0.7976
   19SAPS   C32 2429   3.129   4.328   2.919  0.2329  0.0708 -0.4674
   19SAPS   H2X 2430   3.021   4.305   2.936  0.5793 -0.6854  0.8763
   19SAPS   H2Y 2431   3.166   4.413   2.980  1.1435 -1.1387  0.7501
   19SAPS   C23 2432   3.694   4.293   2.942 -0.5761  0.2120 -0.2692
   19SAPS   H3R 2433   3.723   4.400   2.944 -0.3585  0.1418  0.5019
   19SAPS   H3S 2434   3.788   4.239   2.969  1.6437  1.7871 -4.0211
   19SAPS   C24 2435   3.583   4.251   3.034  0.2884  0.1051  0.5142
   19SAPS   H4R 2436   3.565   4.142   3.050 -1.7608  0.4790  1.0264
   19SAPS   H4S 2437   3.488   4.290   2.995  1.1614  1.5972 -0.1850
   19SAPS   C25 2438   3.622   4.304   3.168 -0.1464  0.7458 -0.2551
   19SAPS   H5R 2439   3.684   4.235   3.227  2.3546  1.3640 -1.9850
   19SAPS   C26 2440   3.565   4.415   3.229  0.2311  0.6225 -0.9624
   19SAPS   H6R 2441   3.606   4.452   3.323 -0.6058  0.4275 -0.5073
   19SAPS   C27 2442   3.478   4.516   3.161  1.1034  0.7085 -0.0408
   19SAPS   H7R 2443   3.476   4.503   3.050  1.0320  0.6074 -0.0282
   19SAPS   H7S 2444   3.529   4.612   3.182  0.3058  1.3297 -0.8611
   19SAPS   C28 2445   3.335   4.548   3.199  0.0754  0.2430  0.1073
   19SAPS   H8R 2446   3.259   4.540   3.120  0.3478 -2.6637  0.0228
   19SAPS   C29 2447   3.291   4.611   3.306  0.2492  0.2343  0.5338
   19SAPS   H9R 2448   3.184   4.634   3.316  0.3229  0.3250  1.1508
   19SAPS  C210 2449   3.376   4.646   3.420  0.2476  0.0713  0.4169
   19SAPS  H10R 2450   3.372   4.756   3.439 -0.3542  0.1424 -0.1048
   19SAPS  H10S 2451   3.485   4.625   3.407  0.5622  1.9222 -0.2710
   19SAPS  C211 2452   3.329   4.587   3.551 -0.1042 -0.4729 -0.0662
   19SAPS  H11R 2453   3.240   4.640   3.588  1.1807  0.9375  1.1385
   19SAPS  C212 2454   3.391   4.499   3.631  0.0611  0.2256 -0.7247
   19SAPS  H12R 2455   3.343   4.457   3.721  2.4878 -1.6949 -0.1988
   19SAPS  C213 2456   3.522   4.428   3.614  0.1757 -0.0519  0.5103
   19SAPS  H13R 2457   3.587   4.450   3.701 -0.3544 -1.8822  1.4091
   19SAPS  H13S 2458   3.570   4.473   3.524 -0.6874 -3.3440 -1.8058
   19SAPS  C214 2459   3.487   4.277   3.582 -1.1822  0.1855 -0.3466
   19SAPS  H14R 2460   3.443   4.254   3.484 -1.4981  0.8358 -0.3623
   19SAPS  C215 2461   3.520   4.166   3.655  0.5862 -0.0192  0.0880
   19SAPS  H15R 2462   3.493   4.066   3.618 -0.0008  0.2886 -0.3482
   19SAPS  C216 2463   3.578   4.163   3.786  0.4518  0.0490  0.2400
   19SAPS  H16R 2464   3.663   4.234   3.780 -0.3948  1.0181 -0.8729
   19SAPS  H16S 2465   3.604   4.059   3.813  1.3373  0.2492  0.1871
   19SAPS  C217 2466   3.489   4.225   3.896 -0.0990  0.3576  0.4535
   19SAPS  H17R 2467   3.397   4.164   3.908 -0.5432  1.2363  1.6247
   19SAPS  H17S 2468   3.458   4.330   3.875 -1.5672 -0.0129  0.6829
   19SAPS  C218 2469   3.545   4.232   4.035 -0.4093 -0.5629 -0.8763
   19SAPS  H18R 2470   3.621   4.313   4.041 -1.0587  0.1211 -1.7099
   19SAPS  H18S 2471   3.590   4.137   4.071  0.6765  0.0489 -0.5781
   19SAPS  C219 2472   3.435   4.264   4.138  0.4945 -0.4457  0.0170
   19SAPS  H19R 2473   3.358   4.184   4.140 -0.4429  0.4376  1.1995
   19SAPS  H19S 2474   3.379   4.354   4.104  0.4976 -1.0527 -1.6983
   19SAPS  C220 2475   3.485   4.287   4.280  0.2235 -0.2660  0.1972
   19SAPS  H20R 2476   3.565   4.363   4.283 -1.2372  1.2979  1.3998
   19SAPS  H20S 2477   3.534   4.191   4.308 -0.9758 -1.6393 -2.1214
   19SAPS  H20T 2478   3.403   4.310   4.352  0.9319  0.0136  0.9282
   19SAPS   C33 2479   3.221   4.208   2.959  0.5854 -0.4604  0.0116
   19SAPS   H3X 2480   3.323   4.217   2.915 -0.2717  2.4659 -1.6792
   19SAPS   H3Y 2481   3.171   4.118   2.918  2.9576 -1.7849 -0.1529
   19SAPS   C34 2482   3.231   4.194   3.116  0.3745  0.3730  0.0876
   19SAPS   H4X 2483   3.142   4.238   3.165  0.2153 -1.4833  1.5727
   19SAPS   H4Y 2484   3.323   4.248   3.147  0.1353  0.3420  0.8750
   19SAPS   C35 2485   3.243   4.043   3.151  0.0868  0.0510  0.5417
   19SAPS   H5X 2486   3.336   4.002   3.106 -0.4803  0.1776 -0.8056
   19SAPS   H5Y 2487   3.160   3.976   3.122  2.5746 -2.6679 -0.8053
   19SAPS   C36 2488   3.254   4.019   3.302 -0.3042 -0.2423 -0.2697
   19SAPS   H6X 2489   3.344   4.071   3.341 -0.6831 -0.0162  0.3212
   19SAPS   H6Y 2490   3.282   3.913   3.322  0.8655  0.2847  1.0581
   19SAPS   C37 2491   3.135   4.054   3.384  0.4808 -0.5489 -0.4235
   19SAPS   H7X 2492   3.041   4.013   3.342  0.2762 -1.9008  1.2634
   19SAPS   H7Y 2493   3.136   4.164   3.399  1.9551 -0.7709  1.5147
   19SAPS   C38 2494   3.141   4.003   3.533 -0.4535 -0.2257 -0.2901
   19SAPS   H8X 2495   3.246   3.986   3.564 -0.9568 -0.3913  1.3852
   19SAPS   H8Y 2496   3.086   3.906   3.538 -0.0696 -0.4005  0.6948
   19SAPS   C39 2497   3.084   4.090   3.651 -0.4582 -1.1564  0.6841
   19SAPS   H9X 2498   2.992   4.136   3.608  0.3667 -0.7323 -0.6876
   19SAPS   H9Y 2499   3.162   4.162   3.685 -1.0392 -2.1077  4.5553
   19SAPS  C310 2500   3.041   4.013   3.771 -0.4610  0.3462 -0.3122
   19SAPS  H10X 2501   3.132   3.974   3.821 -0.3079 -0.3178 -1.0808
   19SAPS  H10Y 2502   2.986   3.922   3.740  0.0064 -0.0661  0.0553
   19SAPS  C311 2503   2.943   4.090   3.859 -0.0532 -0.5837 -0.0389
   19SAPS  H11X 2504   2.840   4.058   3.833 -0.1627 -2.0372  1.9348
   19SAPS  H11Y 2505   2.938   4.200   3.841  0.4039 -0.4395  0.6391
   19SAPS  C312 2506   2.972   4.071   4.007 -0.3670 -0.2862 -0.5274
   19SAPS  H12X 2507   2.909   4.133   4.074  1.2468  2.6915 -1.5863
   19SAPS  H12Y 2508   3.077   4.098   4.032 -0.2914 -1.5206  0.6133
   19SAPS  C313 2509   2.961   3.921   4.044  0.1512  0.1917  0.1029
   19SAPS  H13X 2510   3.028   3.862   3.978 -0.2662  1.0074 -1.0769
   19SAPS  H13Y 2511   2.852   3.904   4.029 -0.4628  4.0543 -1.1490
   19SAPS  C314 2512   2.990   3.911   4.200 -0.2438  0.1660  0.0117
   19SAPS  H14X 2513   3.086   3.962   4.222 -0.1346 -0.3131  0.6865
   19SAPS  H14Y 2514   3.017   3.806   4.227 -1.1236  0.8614  4.3869
   19SAPS  C315 2515   2.879   3.951   4.297  0.3040  0.0322  0.1765
   19SAPS  H15X 2516   2.778   3.911   4.274  0.0774  0.9113 -0.4262
   19SAPS  H15Y 2517   2.874   4.061   4.282  0.5095  0.0578  0.2926
   19SAPS  C316 2518   2.900   3.921   4.446  0.3200 -0.1622  0.1456
   19SAPS  H16X 2519   2.995   3.964   4.485  0.6026 -1.9333  1.5203
   19SAPS  H16Y 2520   2.907   3.810   4.455  0.1708 -0.1680  0.1952
   19SAPS  C317 2521   2.789   3.987   4.537 -0.3715 -0.0864 -0.1650
   19SAPS  H17X 2522   2.691   3.977   4.485  0.0027 -2.5450 -0.5293
   19SAPS  H17Y 2523   2.795   4.098   4.538 -0.1166 -0.0961 -0.3420
   19SAPS  C318 2524   2.798   3.929   4.680 -0.2331 -0.1083  0.6120
   19SAPS  H18X 2525   2.797   3.818   4.686 -0.1191 -0.2876 -1.6783
   19SAPS  H18Y 2526   2.715   3.971   4.741 -0.6658 -3.0942  2.2553
   19SAPS  H18Z 2527   2.898   3.954   4.720  0.6177  0.5617 -1.7993
   20SAPS     N 2528   5.127   4.657   1.971 -0.2462  0.0712 -0.1200
   20SAPS   HN1 2529   5.145   4.608   1.881 -0.9678 -1.9489  0.7569
   20SAPS   HN2 2530   5.214   4.647   2.027 -0.0148 -0.7356 -0.6099
   20SAPS   HN3 2531   5.048   4.618   2.028  0.2667  1.8971  1.9739
   20SAPS   C12 2532   5.101   4.807   1.948  0.0791 -0.4112  0.0045
   20SAPS  H12A 2533   5.173   4.849   1.880 -1.8687  0.0485 -1.8835
   20SAPS   C13 2534   4.972   4.857   1.876  0.1243  0.2915  1.2085
   20SAPS  O13A 2535   4.890   4.775   1.832  0.2659 -0.0095 -0.1384
   20SAPS  O13B 2536   4.960   4.979   1.846  0.2421  0.7393  0.6253
   20SAPS   C11 2537   5.107   4.872   2.080 -0.1834 -0.1365 -0.1703
   20SAPS  H11A 2538   5.023   4.836   2.144  0.3417  0.2027  0.7382
   20SAPS  H11B 2539   5.086   4.980   2.067  0.9818  0.2004  0.5036
   20SAPS     P 2540   5.321   4.960   2.206  0.0435  0.3427  0.2460
   20SAPS   O13 2541   5.443   4.897   2.259 -0.4710 -0.0052 -0.0932
   20SAPS   O14 2542   5.330   5.073   2.108  0.9424 -0.1220  0.1123
   20SAPS   O12 2543   5.234   4.846   2.148  0.2537 -0.1156 -0.4123
   20SAPS   O11 2544   5.233   5.002   2.333 -0.5687  0.4097 -0.0613
   20SAPS    C1 2545   5.183   4.902   2.422  1.0155  1.0844  0.1524
   20SAPS    HA 2546   5.072   4.897   2.425  1.0327 -1.2888 -0.8856
   20SAPS    HB 2547   5.221   4.800   2.401 -0.1632  0.6352  0.1009
   20SAPS    C2 2548   5.220   4.935   2.573  0.5054  0.1643  0.4612
   20SAPS    HS 2549   5.173   4.860   2.641 -0.8866  0.4386 -0.1617
   20SAPS   O21 2550   5.182   5.070   2.606 -0.4130 -0.4921  0.0883
   20SAPS   C21 2551   5.049   5.088   2.620  0.5473  0.8479  0.0897
   20SAPS   O22 2552   4.965   4.998   2.628 -0.0092 -0.0222 -1.3283
   20SAPS   C22 2553   5.019   5.237   2.645 -0.5599  0.1783 -0.3816
   20SAPS   H2R 2554   5.108   5.289   2.604 -1.0548  0.3848 -1.1963
   20SAPS   H2S 2555   4.931   5.255   2.580 -0.8671 -2.4690 -0.8000
   20SAPS    C3 2556   5.367   4.916   2.592 -0.5946  0.1828  0.1479
   20SAPS    HX 2557   5.423   4.990   2.530 -0.8228 -1.0959 -1.6384
   20SAPS    HY 2558   5.387   4.812   2.560 -0.5872  1.0115 -2.7672
   20SAPS   O31 2559   5.403   4.931   2.734  0.4839 -0.3335  0.0576
   20SAPS   C31 2560   5.529   4.982   2.748  0.3120  0.0312  0.6907
   20SAPS   O32 2561   5.613   4.992   2.662 -0.1470  0.1054  0.4231
   20SAPS   C32 2562   5.553   5.019   2.894  0.0127  0.0201  0.0057
   20SAPS   H2X 2563   5.563   4.925   2.953 -0.4488  0.6134  1.0410
   20SAPS   H2Y 2564   5.461   5.068   2.932  0.6486  1.3657 -0.1420
   20SAPS   C23 2565   4.995   5.251   2.796  0.0369 -0.5332  0.5942
   20SAPS   H3R 2566   4.941   5.158   2.825 -2.4729  0.0793 -1.6195
   20SAPS   H3S 2567   4.931   5.341   2.810  1.5195  0.5056  0.8762
   20SAPS   C24 2568   5.128   5.285   2.864 -0.0605 -0.4987  0.2698
   20SAPS   H4R 2569   5.204   5.209   2.839 -0.4485 -1.3964  1.6707
   20SAPS   H4S 2570   5.117   5.265   2.973  2.8050 -0.8988  0.5451
   20SAPS   C25 2571   5.172   5.431   2.836  1.2265  0.2592 -0.2335
   20SAPS   H5R 2572   5.159   5.465   2.732  0.3816  0.8389  0.0534
   20SAPS   C26 2573   5.233   5.508   2.928 -0.1206 -0.4591  0.3724
   20SAPS   H6R 2574   5.272   5.603   2.888 -1.9715  1.0438  1.9429
   20SAPS   C27 2575   5.268   5.479   3.073  0.3145  0.1177  0.5114
   20SAPS   H7R 2576   5.198   5.407   3.121  1.3284 -1.7680 -0.6764
   20SAPS   H7S 2577   5.252   5.577   3.122  1.8634  2.0094 -2.4435
   20SAPS   C28 2578   5.412   5.438   3.090 -0.3172 -0.0572 -0.2675
   20SAPS   H8R 2579   5.449   5.370   3.012 -0.4400  1.1548 -1.4321
   20SAPS   C29 2580   5.498   5.477   3.186  0.4003 -0.2068 -0.0296
   20SAPS   H9R 2581   5.601   5.438   3.186  0.1778 -0.8194 -1.0328
   20SAPS  C210 2582   5.470   5.559   3.307 -0.1568 -0.4966 -0.1573
   20SAPS  H10R 2583   5.407   5.640   3.264 -1.3208 -1.0407  0.4845
   20SAPS  H10S 2584   5.570   5.603   3.328  0.7384 -2.0536 -0.9776
   20SAPS  C211 2585   5.403   5.500   3.433 -0.2555 -0.6723  0.3423
   20SAPS  H11R 2586   5.327   5.423   3.415  2.1095 -3.3137  0.9318
   20SAPS  C212 2587   5.421   5.540   3.560  0.0967  0.6073  0.7259
   20SAPS  H12R 2588   5.363   5.485   3.635  1.5636  0.2448  1.6377
   20SAPS  C213 2589   5.525   5.651   3.595  0.3830  0.6055  0.0185
   20SAPS  H13R 2590   5.549   5.724   3.514  1.1990 -0.0009 -0.2984
   20SAPS  H13S 2591   5.626   5.617   3.626  0.6267  2.3447  1.3163
   20SAPS  C214 2592   5.479   5.748   3.709 -0.7012  0.0438 -0.0194
   20SAPS  H14R 2593   5.472   5.853   3.677  0.2147 -0.4588 -2.0676
   20SAPS  C215 2594   5.452   5.725   3.837  0.0211  0.6077  2.0893
   20SAPS  H15R 2595   5.434   5.809   3.906 -1.6395 -0.5428  3.1564
   20SAPS  C216 2596   5.471   5.591   3.896 -0.7178  0.6056 -0.0738
   20SAPS  H16R 2597   5.514   5.519   3.824 -2.4722 -0.3028 -0.2651
   20SAPS  H16S 2598   5.374   5.551   3.934  0.5635 -1.7122  0.9578
   20SAPS  C217 2599   5.568   5.585   4.015  0.6477 -0.2649 -0.2356
   20SAPS  H17R 2600   5.663   5.638   3.993  0.1524  0.4727 -0.6415
   20SAPS  H17S 2601   5.588   5.486   4.059  2.1636  0.7312  1.4511
   20SAPS  C218 2602   5.508   5.657   4.137 -0.3298  0.2000  0.1624
   20SAPS  H18R 2603   5.408   5.610   4.147 -1.1171  1.4732 -1.3483
   20SAPS  H18S 2604   5.488   5.765   4.125  1.5540  0.5644 -0.0200
   20SAPS  C219 2605   5.595   5.644   4.260 -0.0126 -0.1440  0.3329
   20SAPS  H19R 2606   5.690   5.697   4.234 -0.0702 -0.3767 -0.3598
   20SAPS  H19S 2607   5.613   5.536   4.275 -0.2968 -0.3242 -0.6006
   20SAPS  C220 2608   5.540   5.702   4.386  0.0852  0.6469 -0.1310
   20SAPS  H20R 2609   5.452   5.646   4.424 -0.2063  1.2529  0.1006
   20SAPS  H20S 2610   5.487   5.797   4.362  0.0710  0.5822 -0.3562
   20SAPS  H20T 2611   5.628   5.711   4.454 -0.0287  1.1042 -0.0437
   20SAPS   C33 2612   5.670   5.114   2.928  0.1868  0.2057 -0.3903
   20SAPS   H3X 2613   5.674   5.214   2.881 -1.0762  0.0603 -0.8675
   20SAPS   H3Y 2614   5.751   5.054   2.881 -1.4757 -1.8059 -0.8690
   20SAPS   C34 2615   5.676   5.127   3.080 -0.0929 -0.0600  0.3567
   20SAPS   H4X 2616   5.678   5.031   3.136  0.6249 -0.3393 -0.1313
   20SAPS   H4Y 2617   5.598   5.195   3.119  1.4352  1.6203  0.5871
   20SAPS   C35 2618   5.816   5.178   3.118 -0.4168 -0.0903 -0.3177
   20SAPS   H5X 2619   5.814   5.285   3.089 -0.0827  0.1648  0.5777
   20SAPS   H5Y 2620   5.904   5.134   3.066  0.5758  1.2219  0.2037
   20SAPS   C36 2621   5.849   5.172   3.269 -0.2540  0.2603  0.5783
   20SAPS   H6X 2622   5.952   5.206   3.294 -0.1293 -0.1676  0.6534
   20SAPS   H6Y 2623   5.862   5.065   3.296  2.2808  0.6411  1.1571
   20SAPS   C37 2624   5.751   5.245   3.357 -0.0145 -0.2387 -0.3337
   20SAPS   H7X 2625   5.644   5.219   3.341  0.0376  0.3068 -1.7639
   20SAPS   H7Y 2626   5.753   5.355   3.344 -0.3726 -0.1199  0.5324
   20SAPS   C38 2627   5.785   5.227   3.501 -0.0768 -0.0037  0.5112
   20SAPS   H8X 2628   5.893   5.200   3.505 -0.2829 -0.7623  1.3368
   20SAPS   H8Y 2629   5.740   5.138   3.550 -1.9974  0.6709  0.0816
   20SAPS   C39 2630   5.759   5.351   3.585 -0.2024 -0.6894 -0.7966
   20SAPS   H9X 2631   5.648   5.358   3.592 -0.2965 -1.5073 -1.3708
   20SAPS   H9Y 2632   5.796   5.440   3.531  2.6041 -0.9921  0.4494
   20SAPS  C310 2633   5.819   5.326   3.724  0.3729 -0.0545 -0.0265
   20SAPS  H10X 2634   5.771   5.236   3.768  1.6748 -0.9553 -0.3968
   20SAPS  H10Y 2635   5.796   5.417   3.783 -1.4572 -0.8661  0.5864
   20SAPS  C311 2636   5.979   5.300   3.728  0.5039  0.0827 -0.2446
   20SAPS  H11X 2637   6.036   5.370   3.662 -1.4273  1.2642 -0.7341
   20SAPS  H11Y 2638   5.997   5.203   3.678  0.3991  0.7922 -1.7151
   20SAPS  C312 2639   6.031   5.303   3.871 -1.2682  0.0428 -1.0120
   20SAPS  H12X 2640   6.134   5.261   3.879 -0.5976  1.9185  1.9565
   20SAPS  H12Y 2641   5.961   5.250   3.939 -0.4415 -0.6349 -0.6703
   20SAPS  C313 2642   6.036   5.442   3.929  1.0185  0.2369  0.2842
   20SAPS  H13X 2643   5.937   5.491   3.928  1.8246  2.0426  1.8195
   20SAPS  H13Y 2644   6.102   5.497   3.858 -2.0700  2.5127 -1.0220
   20SAPS  C314 2645   6.074   5.445   4.075  0.1360  1.1024  0.2995
   20SAPS  H14X 2646   6.158   5.373   4.088  1.0086  1.8937 -0.7567
   20SAPS  H14Y 2647   5.997   5.392   4.136  1.0789 -1.5593 -0.6863
   20SAPS  C315 2648   6.097   5.580   4.143  0.0745 -0.0111  0.0401
   20SAPS  H15X 2649   6.003   5.610   4.193  0.4648 -1.7005  1.9048
   20SAPS  H15Y 2650   6.132   5.655   4.067  0.1818  0.5864  0.6691
   20SAPS  C316 2651   6.199   5.579   4.258 -0.3434  0.1375 -0.5411
   20SAPS  H16X 2652   6.193   5.682   4.299  0.9929 -0.8542  2.4417
   20SAPS  H16Y 2653   6.301   5.555   4.223  0.0392 -0.2233  0.7598
   20SAPS  C317 2654   6.162   5.478   4.370  0.2850 -0.4375  0.0777
   20SAPS  H17X 2655   6.196   5.378   4.336  1.1926 -0.3736  0.7722
   20SAPS  H17Y 2656   6.052   5.489   4.359  0.3887 -0.2242 -0.8629
   20SAPS  C318 2657   6.204   5.525   4.507 -0.3654 -0.4941  0.3265
   20SAPS  H18X 2658   6.181   5.443   4.580 -3.0335 -3.3558 -3.3380
   20SAPS  H18Y 2659   6.167   5.623   4.544  1.3583 -1.0132  3.9177
   20SAPS  H18Z 2660   6.314   5.540   4.504  0.0218 -2.6703  1.1539
   21CHL1    C3 2661   2.896   3.299   5.925  0.2424 -0.0449  0.6868
   21CHL1    H3 2662   2.915   3.407   5.946  2.0498 -0.2142  0.0546
   21CHL1    O3 2663   2.874   3.247   6.053 -0.1612  0.0378  0.6958
   21CHL1   H3' 2664   2.820   3.314   6.096 -2.0159 -0.7985 -0.2341
   21CHL1    C4 2665   2.772   3.266   5.842 -0.2356  0.2818 -0.4067
   21CHL1   H4A 2666   2.767   3.155   5.849  2.9154  0.0748  0.1103
   21CHL1   H4B 2667   2.683   3.297   5.902  0.2763 -0.7027  0.9211
   21CHL1    C5 2668   2.775   3.315   5.704  0.2806 -0.2972  0.4737
   21CHL1    C6 2669   2.677   3.388   5.649  0.1446  1.4248  0.1359
   21CHL1    H6 2670   2.586   3.405   5.708 -0.1191  0.0981  0.1467
   21CHL1    C7 2671   2.676   3.446   5.512 -0.3452  0.1059 -0.9203
   21CHL1   H7A 2672   2.576   3.444   5.462 -0.0907  4.2179 -1.8936
   21CHL1   H7B 2673   2.700   3.553   5.525 -1.4049  0.1374  1.1328
   21CHL1    C8 2674   2.785   3.378   5.424 -0.0099 -0.5484 -0.0915
   21CHL1    H8 2675   2.749   3.277   5.395 -1.6807  0.2213 -0.8643
   21CHL1   C14 2676   2.798   3.456   5.301 -0.5449  0.0094  0.0640
   21CHL1   H14 2677   2.829   3.557   5.336  0.5799  0.4634 -2.1029
   21CHL1   C15 2678   2.680   3.494   5.213 -0.6287  0.7853  0.4795
   21CHL1  H15A 2679   2.610   3.410   5.193  0.0555  0.1796  0.6275
   21CHL1  H15B 2680   2.629   3.576   5.268  1.4815  1.8539  0.9415
   21CHL1   C16 2681   2.747   3.544   5.079 -0.2765 -0.3846 -0.7196
   21CHL1  H16A 2682   2.703   3.480   4.999  0.1142 -2.1535  0.4327
   21CHL1  H16B 2683   2.728   3.652   5.064 -2.0766 -0.8618 -2.3090
   21CHL1   C17 2684   2.900   3.524   5.093 -0.8145  0.5351  0.3756
   21CHL1   H17 2685   2.937   3.619   5.139 -0.5096  0.0879  1.0685
   21CHL1   C13 2686   2.909   3.416   5.204 -0.1376  0.0643 -0.9039
   21CHL1   C18 2687   2.870   3.280   5.151  0.1445  0.3557 -0.0854
   21CHL1  H18A 2688   2.777   3.277   5.091  0.2890 -0.0010 -0.2940
   21CHL1  H18B 2689   2.952   3.240   5.089 -0.7798 -1.2680 -0.3280
   21CHL1  H18C 2690   2.853   3.200   5.226 -0.3961 -1.2074 -1.8070
   21CHL1   C12 2691   3.042   3.420   5.279  0.5222  0.7507 -0.1914
   21CHL1  H12A 2692   3.121   3.387   5.208  0.7063 -0.1457  0.4223
   21CHL1  H12B 2693   3.053   3.524   5.317  0.8982  0.7547 -0.3088
   21CHL1   C11 2694   3.038   3.322   5.402  0.2484 -0.1311 -0.0105
   21CHL1  H11A 2695   3.030   3.220   5.358 -1.4047  0.5310 -1.3953
   21CHL1  H11B 2696   3.136   3.335   5.453  1.6692  0.3420 -2.6558
   21CHL1    C9 2697   2.922   3.365   5.495 -0.1864  0.1219 -0.4734
   21CHL1    H9 2698   2.943   3.467   5.534 -0.9792  0.8016 -1.7704
   21CHL1   C10 2699   2.905   3.275   5.628 -0.3537 -0.0898  0.2896
   21CHL1   C19 2700   2.911   3.122   5.581 -0.0440 -0.3962  0.1078
   21CHL1  H19A 2701   2.864   3.052   5.652 -0.0192 -1.4558 -0.8901
   21CHL1  H19B 2702   2.855   3.102   5.487  0.2989 -0.8948  0.0063
   21CHL1  H19C 2703   3.016   3.088   5.573  0.4217  1.0058 -0.1881
   21CHL1    C1 2704   3.031   3.290   5.720 -0.7160 -0.0141 -0.2994
   21CHL1   H1A 2705   3.122   3.256   5.667 -0.5889  2.3809 -1.7921
   21CHL1   H1B 2706   3.055   3.398   5.729 -0.9782  0.1337 -1.2411
   21CHL1    C2 2707   3.017   3.231   5.862 -0.1798 -0.0885  0.1860
   21CHL1   H2A 2708   3.109   3.253   5.919  0.3373  1.6483 -1.2242
   21CHL1   H2B 2709   3.005   3.121   5.864  0.4562 -0.1939  3.2356
   21CHL1   C20 2710   2.962   3.501   4.952  0.1996  0.1804 -0.3477
   21CHL1   H20 2711   2.928   3.398   4.926 -4.4221  1.5094 -0.4761
   21CHL1   C21 2712   3.116   3.505   4.969  0.0388 -0.0678 -0.1421
   21CHL1  H21A 2713   3.173   3.549   4.885  1.4366 -3.3283 -1.0481
   21CHL1  H21B 2714   3.159   3.407   4.998  1.5125  0.8993  1.0770
   21CHL1  H21C 2715   3.144   3.568   5.056  1.8944 -1.2075  0.1300
   21CHL1   C22 2716   2.910   3.604   4.852  0.2944 -0.3476 -0.4747
   21CHL1  H22A 2717   2.802   3.590   4.830  0.1931 -0.5452  0.1261
   21CHL1  H22B 2718   2.908   3.707   4.893 -2.4727 -0.7963  0.7184
   21CHL1   C23 2719   2.978   3.606   4.714  0.4312  0.5930 -0.1259
   21CHL1  H23A 2720   2.931   3.674   4.640 -0.2489 -0.1571 -0.3916
   21CHL1  H23B 2721   3.078   3.652   4.732  0.2172  1.0773 -0.1597
   21CHL1   C24 2722   2.990   3.461   4.654 -0.5346  0.3824  0.9604
   21CHL1  H24A 2723   3.045   3.393   4.722 -1.1446  0.8492  1.9456
   21CHL1  H24B 2724   2.892   3.411   4.649 -0.0802 -0.5367  1.0818
   21CHL1   C25 2725   3.053   3.444   4.516 -0.1278 -0.0488  0.2261
   21CHL1   H25 2726   2.998   3.516   4.452  0.9026  0.6667  0.1348
   21CHL1   C26 2727   3.197   3.495   4.519 -0.8832 -0.1168  0.2303
   21CHL1  H26A 2728   3.247   3.458   4.612 -0.7302  0.1963  0.2756
   21CHL1  H26B 2729   3.250   3.454   4.430 -0.6695 -1.5965  1.0070
   21CHL1  H26C 2730   3.191   3.606   4.514 -0.1262  0.0963  2.5483
   21CHL1   C27 2731   3.047   3.303   4.466 -0.1141 -0.0722 -0.2024
   21CHL1  H27A 2732   3.090   3.306   4.363 -3.3385  1.6075 -1.6507
   21CHL1  H27B 2733   3.108   3.229   4.522  0.2247 -0.6485 -1.2927
   21CHL1  H27C 2734   2.947   3.258   4.452 -0.8024  1.9085 -2.2772
   22CHL1    C3 2735   2.408   1.231   5.589  0.0814 -1.2079 -0.2384
   22CHL1    H3 2736   2.431   1.137   5.534 -2.6001 -1.9360 -0.2507
   22CHL1    O3 2737   2.419   1.207   5.732  0.1579  0.5441  0.0343
   22CHL1   H3' 2738   2.460   1.292   5.750 -0.3693  1.2554 -1.8418
   22CHL1    C4 2739   2.507   1.344   5.550 -0.0946 -0.0169  0.4688
   22CHL1   H4A 2740   2.478   1.433   5.611 -1.2178  0.2585 -0.4299
   22CHL1   H4B 2741   2.608   1.314   5.584  0.0380 -2.7427 -1.9981
   22CHL1    C5 2742   2.489   1.381   5.403  0.4924  0.6997  1.0305
   22CHL1    C6 2743   2.591   1.370   5.313  0.1624 -0.0934  0.6488
   22CHL1    H6 2744   2.689   1.339   5.353 -0.0338 -0.5037  0.8192
   22CHL1    C7 2745   2.585   1.413   5.166 -0.0912 -0.0300  0.7268
   22CHL1   H7A 2746   2.661   1.491   5.143  1.0467 -0.6848  2.1439
   22CHL1   H7B 2747   2.602   1.328   5.095 -1.6374  0.2618 -0.0329
   22CHL1    C8 2748   2.444   1.473   5.123 -0.0353 -0.2925  0.3129
   22CHL1    H8 2749   2.431   1.580   5.151 -0.9696 -1.1086  3.4014
   22CHL1   C14 2750   2.429   1.459   4.981 -1.1401 -0.1778 -0.4626
   22CHL1   H14 2751   2.429   1.351   4.956  1.7454 -0.4919  0.5976
   22CHL1   C15 2752   2.543   1.515   4.889 -0.1880  0.2230  0.0393
   22CHL1  H15A 2753   2.571   1.609   4.942 -1.0517  0.2541  0.4572
   22CHL1  H15B 2754   2.629   1.445   4.884  0.1871  0.7581 -2.6509
   22CHL1   C16 2755   2.473   1.548   4.754 -0.0496  0.0836 -0.2242
   22CHL1  H16A 2756   2.470   1.659   4.746 -2.1159 -0.0748 -2.7823
   22CHL1  H16B 2757   2.516   1.500   4.663 -0.9724 -0.2468 -0.4940
   22CHL1   C17 2758   2.325   1.488   4.769  1.2654 -0.7578 -0.0899
   22CHL1   H17 2759   2.332   1.380   4.744  2.2340 -0.2470 -2.2891
   22CHL1   C13 2760   2.293   1.506   4.920 -0.4331  0.6813 -0.1658
   22CHL1   C18 2761   2.275   1.649   4.960  0.3173 -0.6340  0.1517
   22CHL1  H18A 2762   2.201   1.702   4.896 -0.1635 -0.1424  1.0954
   22CHL1  H18B 2763   2.226   1.658   5.060 -0.0390  2.4639 -0.2222
   22CHL1  H18C 2764   2.372   1.702   4.962  0.7104 -1.3298 -0.2004
   22CHL1   C12 2765   2.186   1.419   4.981  0.2958  0.5129 -0.6267
   22CHL1  H12A 2766   2.084   1.461   4.964 -1.6828 -3.3898  0.2692
   22CHL1  H12B 2767   2.193   1.317   4.937 -1.0914  1.2548 -2.7425
   22CHL1   C11 2768   2.198   1.422   5.134  1.2577  0.2870  0.1273
   22CHL1  H11A 2769   2.156   1.516   5.176 -0.1509  0.4351 -1.5188
   22CHL1  H11B 2770   2.131   1.337   5.160  0.4342 -0.1904 -3.1081
   22CHL1    C9 2771   2.337   1.395   5.198  0.5095  0.2694  0.3651
   22CHL1    H9 2772   2.357   1.288   5.176  0.1625 -0.0593  1.5907
   22CHL1   C10 2773   2.348   1.407   5.353 -0.7133 -0.1289  0.2977
   22CHL1   C19 2774   2.310   1.549   5.399 -0.0236 -0.5863  0.5372
   22CHL1  H19A 2775   2.376   1.634   5.370 -1.9619  0.1886 -1.9864
   22CHL1  H19B 2776   2.206   1.575   5.368 -1.0856 -4.3497  0.4145
   22CHL1  H19C 2777   2.315   1.544   5.509  3.1113  2.5871  0.7329
   22CHL1    C1 2778   2.251   1.293   5.399 -0.6130 -0.5507  0.1198
   22CHL1   H1A 2779   2.144   1.322   5.389 -0.0769  2.2606  1.2823
   22CHL1   H1B 2780   2.277   1.202   5.343  1.2604  1.3085 -2.2356
   22CHL1    C2 2781   2.262   1.265   5.550  0.3169 -0.3204 -0.5156
   22CHL1   H2A 2782   2.207   1.170   5.570  1.5651 -1.0627 -0.5079
   22CHL1   H2B 2783   2.231   1.349   5.616  1.2842 -0.5190  0.2061
   22CHL1   C20 2784   2.229   1.559   4.666 -0.3054 -0.5221 -0.5690
   22CHL1   H20 2785   2.211   1.659   4.712 -0.3205 -1.5703  1.8475
   22CHL1   C21 2786   2.093   1.482   4.643 -0.2822 -0.2462 -0.6687
   22CHL1  H21A 2787   2.115   1.390   4.584 -0.1490 -2.0128  1.9473
   22CHL1  H21B 2788   2.025   1.555   4.596 -0.7789  0.6511  1.3139
   22CHL1  H21C 2789   2.048   1.459   4.742 -1.0021  0.9991 -0.6885
   22CHL1   C22 2790   2.298   1.583   4.525 -0.3107  0.6479  0.2880
   22CHL1  H22A 2791   2.391   1.640   4.546 -0.2057 -0.3989  3.1231
   22CHL1  H22B 2792   2.322   1.480   4.490 -1.0340  0.6466 -0.2327
   22CHL1   C23 2793   2.224   1.665   4.423 -0.4427 -0.0323  0.8214
   22CHL1  H23A 2794   2.119   1.626   4.425 -0.3591 -0.4324 -0.8309
   22CHL1  H23B 2795   2.224   1.771   4.456  0.3592  0.5171 -0.8162
   22CHL1   C24 2796   2.283   1.659   4.285 -0.4611 -0.3638  0.3789
   22CHL1  H24A 2797   2.393   1.665   4.287 -0.3521 -0.8664 -1.6025
   22CHL1  H24B 2798   2.257   1.557   4.248  1.8652 -1.1918  0.8898
   22CHL1   C25 2799   2.230   1.756   4.179 -0.1591  0.2955  0.5352
   22CHL1   H25 2800   2.271   1.857   4.200 -0.5122  0.0050  2.9177
   22CHL1   C26 2801   2.287   1.726   4.043  0.2107  0.1890  0.3793
   22CHL1  H26A 2802   2.397   1.733   4.030  0.1413  0.6197 -0.0265
   22CHL1  H26B 2803   2.260   1.624   4.006 -0.3734  0.8228 -0.9916
   22CHL1  H26C 2804   2.253   1.783   3.954  0.5310 -0.0724  0.0839
   22CHL1   C27 2805   2.079   1.760   4.159 -0.6222  0.0709 -0.4569
   22CHL1  H27A 2806   2.062   1.675   4.089  2.2677  0.0864 -1.3020
   22CHL1  H27B 2807   2.039   1.744   4.261 -0.5619 -0.5531 -0.5228
   22CHL1  H27C 2808   2.034   1.850   4.111 -1.1759  1.3310  2.2551
   23CHL1    C3 2809   2.384   3.080   6.255  0.2079 -0.0341  0.5658
   23CHL1    H3 2810   2.372   2.969   6.260  0.4909 -0.1112 -0.2925
   23CHL1    O3 2811   2.411   3.139   6.376  0.3381  0.0223  0.0885
   23CHL1   H3' 2812   2.443   3.229   6.366 -0.5501  0.2796 -0.4867
   23CHL1    C4 2813   2.512   3.099   6.163  0.0380  0.2549 -0.1522
   23CHL1   H4A 2814   2.553   3.202   6.168 -3.0938  1.6665 -1.4117
   23CHL1   H4B 2815   2.594   3.043   6.213  0.5132  1.1836  0.1366
   23CHL1    C5 2816   2.498   3.042   6.027  0.6383 -0.3032 -0.4405
   23CHL1    C6 2817   2.588   2.969   5.965  1.0006  0.7359 -0.4498
   23CHL1    H6 2818   2.679   2.953   6.025 -0.6822 -1.6583  1.6769
   23CHL1    C7 2819   2.587   2.927   5.821 -0.3236 -0.7437  0.4588
   23CHL1   H7A 2820   2.686   2.934   5.771 -0.4931 -0.3750  0.1755
   23CHL1   H7B 2821   2.564   2.818   5.820 -0.3245 -0.7441 -0.9919
   23CHL1    C8 2822   2.492   3.010   5.742  0.8339  0.0370  0.0196
   23CHL1    H8 2823   2.539   3.109   5.724 -0.2561  0.2024 -2.2966
   23CHL1   C14 2824   2.460   2.935   5.603  0.8377 -0.8698 -0.9067
   23CHL1   H14 2825   2.409   2.845   5.642  1.6349  0.5287  4.0476
   23CHL1   C15 2826   2.582   2.892   5.520  0.3809 -0.1111 -0.4444
   23CHL1  H15A 2827   2.665   2.966   5.527  1.0574  0.0165 -5.6520
   23CHL1  H15B 2828   2.604   2.793   5.566 -1.3352 -0.0474  0.6075
   23CHL1   C16 2829   2.527   2.890   5.374  0.5226 -0.1265  0.0493
   23CHL1  H16A 2830   2.588   2.956   5.309  0.9480 -1.2527 -0.7368
   23CHL1  H16B 2831   2.527   2.788   5.330 -3.4454  0.3124 -1.3076
   23CHL1   C17 2832   2.379   2.943   5.383 -0.6855 -0.0822  0.1266
   23CHL1   H17 2833   2.320   2.855   5.417 -3.2211  1.6617  0.4762
   23CHL1   C13 2834   2.362   3.019   5.516 -0.6260 -0.6964 -0.4493
   23CHL1   C18 2835   2.434   3.154   5.492  0.5612  0.2469 -0.2608
   23CHL1  H18A 2836   2.436   3.216   5.585 -1.5164 -1.7152  1.1920
   23CHL1  H18B 2837   2.531   3.144   5.438 -0.5497  0.8943 -2.4824
   23CHL1  H18C 2838   2.376   3.217   5.422  0.5289  1.3288  0.7066
   23CHL1   C12 2839   2.229   3.032   5.589 -0.1082 -0.4663  0.1777
   23CHL1  H12A 2840   2.160   3.088   5.523  0.1429 -0.9198 -0.4752
   23CHL1  H12B 2841   2.185   2.930   5.598 -0.0045 -0.6563 -1.3144
   23CHL1   C11 2842   2.245   3.095   5.729  0.2497 -0.3387  0.0699
   23CHL1  H11A 2843   2.259   3.205   5.723 -0.2643 -0.1713  1.4972
   23CHL1  H11B 2844   2.152   3.081   5.789 -0.9814  0.4515 -1.5823
   23CHL1    C9 2845   2.357   3.026   5.817  0.1491  0.2117  0.4606
   23CHL1    H9 2846   2.323   2.922   5.836  0.3642  0.2242  0.9155
   23CHL1   C10 2847   2.375   3.107   5.956  0.8453  0.3763  0.1726
   23CHL1   C19 2848   2.385   3.257   5.937 -0.0093 -0.0291  0.6661
   23CHL1  H19A 2849   2.296   3.298   5.884  1.3101  1.8151 -0.2417
   23CHL1  H19B 2850   2.399   3.311   6.033  0.1405  0.1886  0.5211
   23CHL1  H19C 2851   2.481   3.275   5.885  0.3300  1.3653  1.7004
   23CHL1    C1 2852   2.250   3.082   6.048 -0.7084 -0.3279  0.3797
   23CHL1   H1A 2853   2.161   3.124   5.996  0.8265 -0.4390 -2.5265
   23CHL1   H1B 2854   2.241   2.971   6.049  0.7598 -0.4707  2.1004
   23CHL1    C2 2855   2.257   3.136   6.189 -0.3734  0.4113 -0.2103
   23CHL1   H2A 2856   2.165   3.116   6.247  1.0015 -2.0917  1.2613
   23CHL1   H2B 2857   2.261   3.247   6.186 -1.9307  0.4903 -0.0445
   23CHL1   C20 2858   2.322   3.000   5.254  0.1394  0.1238 -0.2572
   23CHL1   H20 2859   2.237   3.068   5.278  1.4551  1.6587  0.2788
   23CHL1   C21 2860   2.257   2.884   5.168 -0.2904  0.4567 -0.6934
   23CHL1  H21A 2861   2.184   2.840   5.239  2.0327  0.0146  1.5568
   23CHL1  H21B 2862   2.336   2.809   5.147 -1.0335 -1.0410  1.5841
   23CHL1  H21C 2863   2.204   2.918   5.076 -1.3772  1.0193  0.1139
   23CHL1   C22 2864   2.416   3.082   5.160  0.0410  0.0320  0.5141
   23CHL1  H22A 2865   2.464   3.157   5.226 -1.7999  0.7328  1.1438
   23CHL1  H22B 2866   2.489   3.014   5.112  0.8573 -0.9519  2.9886
   23CHL1   C23 2867   2.340   3.153   5.047 -0.1887  0.2215  0.1561
   23CHL1  H23A 2868   2.303   3.085   4.967  2.1608 -1.2243  0.2229
   23CHL1  H23B 2869   2.250   3.210   5.080 -1.1572 -0.8321 -0.5722
   23CHL1   C24 2870   2.428   3.262   4.984  0.1749  0.0911 -0.0936
   23CHL1  H24A 2871   2.445   3.334   5.067 -1.9305  0.8574 -0.2847
   23CHL1  H24B 2872   2.532   3.225   4.972  0.7292  0.7189  2.2770
   23CHL1   C25 2873   2.380   3.331   4.851  0.1017  0.3026 -0.2196
   23CHL1   H25 2874   2.343   3.254   4.780 -0.9040 -0.5340  1.1634
   23CHL1   C26 2875   2.271   3.435   4.873  0.2227  0.3241 -0.4524
   23CHL1  H26A 2876   2.175   3.385   4.895  0.6602 -0.9041 -1.2535
   23CHL1  H26B 2877   2.294   3.518   4.944 -2.7061  0.1845  0.7976
   23CHL1  H26C 2878   2.272   3.481   4.772 -0.4452  1.2262 -0.0648
   23CHL1   C27 2879   2.499   3.399   4.776  0.3337  0.1542 -0.2084
   23CHL1  H27A 2880   2.453   3.430   4.679 -1.7182 -0.7884  0.4046
   23CHL1  H27B 2881   2.529   3.485   4.839 -1.3536  1.1352 -0.6683
   23CHL1  H27C 2882   2.585   3.329   4.764  0.5929  0.8881 -3.7892
   24CHL1    C3 2883   3.046   5.275   6.096 -0.2384 -0.1984 -0.0380
   24CHL1    H3 2884   3.079   5.170   6.079  0.6639  0.4939 -3.2709
   24CHL1    O3 2885   2.996   5.300   6.226 -0.1034 -0.0091  0.2311
   24CHL1   H3' 2886   2.955   5.387   6.225 -1.3894 -0.5831  0.7310
   24CHL1    C4 2887   3.160   5.372   6.061  0.8592 -0.7096 -0.2765
   24CHL1   H4A 2888   3.125   5.476   6.072 -1.4260 -1.5133  0.4718
   24CHL1   H4B 2889   3.240   5.355   6.136 -0.5589  3.3302  2.4786
   24CHL1    C5 2890   3.214   5.353   5.920  1.3191 -0.6068  0.5625
   24CHL1    C6 2891   3.343   5.339   5.888  0.9057 -0.4679  0.1524
   24CHL1    H6 2892   3.419   5.317   5.965  0.5373 -2.4725 -0.0095
   24CHL1    C7 2893   3.385   5.320   5.745 -0.3770  0.0273 -0.6777
   24CHL1   H7A 2894   3.491   5.355   5.737 -1.0693  3.0136  1.3742
   24CHL1   H7B 2895   3.395   5.213   5.719  0.3774  0.2156 -1.1884
   24CHL1    C8 2896   3.284   5.376   5.641  0.1777 -0.0337  0.7285
   24CHL1    H8 2897   3.289   5.486   5.647 -1.7131  0.0839  0.7684
   24CHL1   C14 2898   3.318   5.336   5.504  0.3505  0.0645  1.1311
   24CHL1   H14 2899   3.315   5.225   5.508 -0.2120  0.1149  2.8596
   24CHL1   C15 2900   3.459   5.370   5.452 -0.4428  0.0816  0.5066
   24CHL1  H15A 2901   3.471   5.479   5.466  0.4835  0.2622 -1.4652
   24CHL1  H15B 2902   3.543   5.317   5.501  1.1406  2.5240  0.5832
   24CHL1   C16 2903   3.449   5.349   5.296 -0.0523 -0.4840  0.2173
   24CHL1  H16A 2904   3.487   5.439   5.242  1.1320  0.5506  2.6270
   24CHL1  H16B 2905   3.513   5.264   5.263 -1.7011 -2.0183  0.8227
   24CHL1   C17 2906   3.293   5.321   5.266 -0.1419 -0.1317 -0.2220
   24CHL1   H17 2907   3.275   5.212   5.282 -0.1612 -0.1094 -0.0897
   24CHL1   C13 2908   3.220   5.377   5.386 -0.0251 -0.1256  0.0772
   24CHL1   C18 2909   3.216   5.528   5.362  0.1489  0.2260  0.0598
   24CHL1  H18A 2910   3.129   5.549   5.297 -0.0788 -0.1725  0.2269
   24CHL1  H18B 2911   3.201   5.585   5.456 -3.0755 -1.9776  1.0537
   24CHL1  H18C 2912   3.309   5.556   5.309 -1.0742  0.5380 -2.0451
   24CHL1   C12 2913   3.092   5.320   5.418  0.4267  0.2448  0.3744
   24CHL1  H12A 2914   3.029   5.358   5.335  0.4599 -3.3557 -1.5164
   24CHL1  H12B 2915   3.106   5.210   5.413 -0.9901  0.0765 -0.3520
   24CHL1   C11 2916   3.046   5.365   5.555 -0.2870  0.2497 -0.1583
   24CHL1  H11A 2917   3.046   5.476   5.552  0.2299  0.2582 -0.0405
   24CHL1  H11B 2918   2.940   5.333   5.561 -0.7410  1.8403  1.0356
   24CHL1    C9 2919   3.140   5.326   5.669 -0.0729  0.5116 -1.0985
   24CHL1    H9 2920   3.137   5.215   5.666 -1.9271  0.5268 -0.9348
   24CHL1   C10 2921   3.100   5.366   5.815  0.6006 -0.1218 -0.1168
   24CHL1   C19 2922   3.063   5.517   5.806  0.3616  0.8138 -0.3103
   24CHL1  H19A 2923   3.029   5.556   5.904 -0.3075  0.0134 -0.2056
   24CHL1  H19B 2924   3.141   5.576   5.755  0.4659 -0.0403 -1.1719
   24CHL1  H19C 2925   2.975   5.539   5.741 -0.3549  2.2157  1.0812
   24CHL1    C1 2926   2.966   5.285   5.850 -0.7711  0.0187 -0.3252
   24CHL1   H1A 2927   2.886   5.322   5.784 -0.0346 -1.8955 -2.4255
   24CHL1   H1B 2928   2.988   5.178   5.827  1.4074 -0.4599  3.1177
   24CHL1    C2 2929   2.926   5.300   5.998 -0.5963  0.1317 -0.5496
   24CHL1   H2A 2930   2.846   5.227   6.024 -2.8295  2.0968 -1.5069
   24CHL1   H2B 2931   2.888   5.402   6.019 -1.0382  0.2341 -1.8023
   24CHL1   C20 2932   3.249   5.347   5.118 -0.2579 -0.1943 -0.6029
   24CHL1   H20 2933   3.140   5.333   5.134 -0.1777  0.4803  0.7067
   24CHL1   C21 2934   3.292   5.229   5.032 -0.7772  0.5013  0.3692
   24CHL1  H21A 2935   3.244   5.233   4.932  0.1482  1.3574 -0.0493
   24CHL1  H21B 2936   3.284   5.128   5.078  0.7831 -0.3872 -1.1815
   24CHL1  H21C 2937   3.400   5.244   5.013 -0.6994 -1.0508 -0.6089
   24CHL1   C22 2938   3.289   5.484   5.054  0.1849 -0.3879  0.3030
   24CHL1  H22A 2939   3.235   5.559   5.115 -2.6233 -1.2138 -1.0121
   24CHL1  H22B 2940   3.395   5.506   5.079 -0.3434  3.2096 -0.1145
   24CHL1   C23 2941   3.239   5.503   4.907  0.3187 -0.5075 -0.2253
   24CHL1  H23A 2942   3.271   5.426   4.833  0.9930  1.1569 -1.7316
   24CHL1  H23B 2943   3.130   5.512   4.892  0.5501 -2.1360 -4.3606
   24CHL1   C24 2944   3.289   5.638   4.853  0.8097  0.3375  0.3445
   24CHL1  H24A 2945   3.250   5.723   4.912  2.2467  1.6062 -0.4462
   24CHL1  H24B 2946   3.400   5.646   4.853  0.9971 -1.3778 -1.6937
   24CHL1   C25 2947   3.250   5.670   4.707 -0.1624  0.0896 -0.0643
   24CHL1   H25 2948   3.312   5.757   4.679  0.4123  0.5561  2.3876
   24CHL1   C26 2949   3.310   5.567   4.608 -0.3995  0.2503 -0.6263
   24CHL1  H26A 2950   3.412   5.547   4.646 -1.0084 -0.4539  0.7272
   24CHL1  H26B 2951   3.254   5.471   4.611  0.4681 -0.2832 -1.1098
   24CHL1  H26C 2952   3.312   5.611   4.506  1.4116 -2.6719 -1.9849
   24CHL1   C27 2953   3.104   5.685   4.677 -0.5324 -0.5282 -1.1551
   24CHL1  H27A 2954   3.039   5.722   4.759 -0.4035 -0.4332 -1.0949
   24CHL1  H27B 2955   3.093   5.767   4.603  0.7807  0.8131  0.0416
   24CHL1  H27C 2956   3.068   5.589   4.635 -0.6562 -1.3303  0.6825
   25CHL1    C3 2957   6.343   4.000   5.926 -0.5161  0.4855  0.6363
   25CHL1    H3 2958   6.297   4.100   5.941  3.1932  2.3659  0.6013
   25CHL1    O3 2959   6.387   3.967   6.059  0.8331 -0.7233 -0.5193
   25CHL1   H3' 2960   6.475   4.002   6.075  0.4134 -0.6064  1.7126
   25CHL1    C4 2961   6.260   3.880   5.870  0.0344  0.6442 -0.4595
   25CHL1   H4A 2962   6.328   3.793   5.881 -0.6527 -0.5339 -4.1988
   25CHL1   H4B 2963   6.168   3.883   5.933 -0.0626 -2.7097 -0.2698
   25CHL1    C5 2964   6.221   3.905   5.720  0.4550 -0.3043  1.0379
   25CHL1    C6 2965   6.093   3.899   5.691  0.6210 -0.4510 -0.3866
   25CHL1    H6 2966   6.017   3.881   5.768 -2.1526  2.2889 -2.2291
   25CHL1    C7 2967   6.049   3.917   5.549  0.2268 -0.1020  1.0419
   25CHL1   H7A 2968   5.972   3.839   5.532  0.6163 -0.1799 -0.4398
   25CHL1   H7B 2969   6.001   4.017   5.537  0.4719  0.1223  1.8368
   25CHL1    C8 2970   6.170   3.906   5.448 -0.1025  0.1077  0.8915
   25CHL1    H8 2971   6.203   3.800   5.438  1.1825  0.6478 -1.1747
   25CHL1   C14 2972   6.128   3.958   5.316  0.3657  0.5768 -0.4846
   25CHL1   H14 2973   6.103   4.065   5.327  1.5932  0.9584 -1.1926
   25CHL1   C15 2974   5.996   3.896   5.259 -0.2742  0.2665  0.5099
   25CHL1  H15A 2975   5.988   3.790   5.292 -1.3033  0.6149  1.4471
   25CHL1  H15B 2976   5.912   3.957   5.297  0.4210  0.8977  1.0572
   25CHL1   C16 2977   6.003   3.919   5.100  0.1219 -0.1289 -0.1470
   25CHL1  H16A 2978   6.005   3.818   5.054 -0.2923 -1.1501  1.9331
   25CHL1  H16B 2979   5.913   3.975   5.066  0.2514  1.3314  1.6791
   25CHL1   C17 2980   6.143   4.000   5.084  0.3415  0.4203  0.6779
   25CHL1   H17 2981   6.123   4.108   5.099  1.2003  0.3473  2.5505
   25CHL1   C13 2982   6.227   3.950   5.199  0.2089 -1.0341  0.4455
   25CHL1   C18 2983   6.280   3.804   5.173 -0.0384  0.6198  0.0661
   25CHL1  H18A 2984   6.369   3.808   5.106  0.8429  0.6369  1.2134
   25CHL1  H18B 2985   6.323   3.753   5.262 -1.2673  0.3431  0.5125
   25CHL1  H18C 2986   6.197   3.739   5.138 -0.6447  1.7109 -0.5577
   25CHL1   C12 2987   6.347   4.047   5.237 -0.5242  1.2173  0.1563
   25CHL1  H12A 2988   6.421   4.048   5.154  1.9649 -0.4373  2.1869
   25CHL1  H12B 2989   6.325   4.155   5.252  1.6451  1.4246  2.5027
   25CHL1   C11 2990   6.399   4.000   5.372 -0.4008  0.7940 -0.2977
   25CHL1  H11A 2991   6.471   3.916   5.361  2.7288  2.9886  1.7890
   25CHL1  H11B 2992   6.463   4.082   5.412 -0.0286 -0.2167  1.2749
   25CHL1    C9 2993   6.291   3.983   5.490  0.1840  0.2349  0.1875
   25CHL1    H9 2994   6.250   4.084   5.509  0.4897  0.3057  0.4684
   25CHL1   C10 2995   6.336   3.930   5.627 -0.4642 -1.0899  0.1771
   25CHL1   C19 2996   6.416   3.801   5.615 -0.2105 -0.1585 -0.0685
   25CHL1  H19A 2997   6.359   3.728   5.554  1.2793 -0.6044 -0.9932
   25CHL1  H19B 2998   6.514   3.829   5.570 -1.1039  1.6625 -0.9801
   25CHL1  H19C 2999   6.445   3.761   5.715 -1.5285  0.4302  0.5680
   25CHL1    C1 3000   6.433   4.038   5.686  0.0564  0.1993  0.3047
   25CHL1   H1A 3001   6.528   4.028   5.629 -0.7117 -1.8757 -0.7374
   25CHL1   H1B 3002   6.388   4.138   5.673 -1.2088 -0.3415  0.3876
   25CHL1    C2 3003   6.471   4.017   5.833  0.2546 -0.1022 -0.9976
   25CHL1   H2A 3004   6.539   4.095   5.872  0.4694  1.5998 -4.3938
   25CHL1   H2B 3005   6.523   3.919   5.830  0.4834 -0.0437  0.4493
   25CHL1   C20 3006   6.197   3.976   4.936  0.1498 -0.6071  0.4126
   25CHL1   H20 3007   6.219   3.870   4.912 -0.1316 -0.1333 -2.1191
   25CHL1   C21 3008   6.330   4.052   4.913  0.2916 -0.3060  0.4676
   25CHL1  H21A 3009   6.357   4.087   4.811  2.0247  0.7442  1.2300
   25CHL1  H21B 3010   6.417   3.989   4.942 -0.3417 -2.0394 -1.2019
   25CHL1  H21C 3011   6.338   4.135   4.987  0.0404  0.7030 -0.6037
   25CHL1   C22 3012   6.085   4.032   4.837 -0.8914 -0.1016 -0.0375
   25CHL1  H22A 3013   5.982   3.993   4.847 -0.2810 -2.0199 -0.8481
   25CHL1  H22B 3014   6.077   4.141   4.857  2.8022  0.8004 -2.4935
   25CHL1   C23 3015   6.111   4.001   4.692 -0.3180  0.4792  0.3537
   25CHL1  H23A 3016   6.203   4.053   4.658 -0.2295  0.8401  1.1258
   25CHL1  H23B 3017   6.122   3.891   4.675  0.2521  0.3686  1.3977
   25CHL1   C24 3018   5.994   4.055   4.605  0.3058  0.0677  0.9550
   25CHL1  H24A 3019   5.898   4.008   4.636 -0.6858  0.8324 -0.8341
   25CHL1  H24B 3020   6.013   4.164   4.619  1.1809  0.1137 -0.3714
   25CHL1   C25 3021   6.005   4.026   4.455 -0.4405  0.6010 -0.3101
   25CHL1   H25 3022   6.028   3.919   4.438 -1.2603  0.5810 -1.4520
   25CHL1   C26 3023   5.878   4.060   4.378 -0.7380 -0.0679  0.6923
   25CHL1  H26A 3024   5.832   4.155   4.415 -1.3057  0.0378 -0.2736
   25CHL1  H26B 3025   5.901   4.087   4.273  0.9876 -2.2090  0.4647
   25CHL1  H26C 3026   5.805   3.977   4.384  0.0697 -0.7772  0.8542
   25CHL1   C27 3027   6.122   4.107   4.388 -0.2095 -0.1761 -0.2421
   25CHL1  H27A 3028   6.214   4.090   4.449 -0.9923 -1.0446  0.7413
   25CHL1  H27B 3029   6.146   4.086   4.282 -0.4326  2.2491 -0.8330
   25CHL1  H27C 3030   6.105   4.217   4.397  0.9533 -0.0296  0.5394
   26CHL1    C3 3031   4.803   3.902   6.483 -0.1291 -0.4945  0.8006
   26CHL1    H3 3032   4.776   3.802   6.441  1.1133 -0.7647  0.5945
   26CHL1    O3 3033   4.804   3.933   6.624  0.0873  0.0456 -0.4765
   26CHL1   H3' 3034   4.875   3.997   6.628  0.2272 -0.1306 -0.0282
   26CHL1    C4 3035   4.935   3.962   6.434 -0.1901  0.0575  0.1477
   26CHL1   H4A 3036   4.938   4.064   6.477 -0.3079 -0.1884  0.7479
   26CHL1   H4B 3037   5.022   3.910   6.478  0.4740 -0.1300 -1.3435
   26CHL1    C5 3038   4.937   3.963   6.282 -0.7276  0.2685 -0.0968
   26CHL1    C6 3039   5.024   3.888   6.214 -0.1119  0.1270  0.0052
   26CHL1    H6 3040   5.096   3.828   6.272 -1.1525 -1.0998  0.0833
   26CHL1    C7 3041   5.041   3.892   6.063  0.4015 -0.2547 -0.5326
   26CHL1   H7A 3042   5.150   3.899   6.045  1.2081 -3.8549  1.8440
   26CHL1   H7B 3043   5.023   3.789   6.025  0.4116 -0.6968  0.6151
   26CHL1    C8 3044   4.965   4.009   5.997  0.1962  0.0465 -0.1288
   26CHL1    H8 3045   5.034   4.092   6.022  3.0833 -2.0871 -0.5532
   26CHL1   C14 3046   4.958   3.986   5.849  0.1514 -0.3259  0.2799
   26CHL1   H14 3047   4.891   3.897   5.842  2.3598 -2.2097  1.6487
   26CHL1   C15 3048   5.087   3.955   5.778 -0.0427  0.6582 -0.3579
   26CHL1  H15A 3049   5.183   4.004   5.805  0.4748 -0.2772 -0.4467
   26CHL1  H15B 3050   5.106   3.849   5.805  1.2849  0.6668 -1.1805
   26CHL1   C16 3051   5.061   3.999   5.634  0.3526  0.8141  0.2769
   26CHL1  H16A 3052   5.118   4.087   5.597 -1.0187  1.5485 -0.1584
   26CHL1  H16B 3053   5.073   3.912   5.566  0.5279 -0.1897  1.5575
   26CHL1   C17 3054   4.908   4.051   5.628  0.8689  0.2373 -0.3920
   26CHL1   H17 3055   4.844   3.960   5.617 -0.8158  1.2955  0.2152
   26CHL1   C13 3056   4.881   4.096   5.771 -0.5267 -0.9784 -1.2512
   26CHL1   C18 3057   4.950   4.236   5.779  0.0042  0.0082  0.0206
   26CHL1  H18A 3058   5.047   4.232   5.725 -0.5097  1.1701 -1.0542
   26CHL1  H18B 3059   4.889   4.316   5.732  2.5301  0.9606 -1.8534
   26CHL1  H18C 3060   4.971   4.269   5.883  0.8515  1.4115 -0.5700
   26CHL1   C12 3061   4.736   4.091   5.822 -0.2994  0.0846  0.1285
   26CHL1  H12A 3062   4.662   4.162   5.780 -0.6238 -0.6637 -0.5954
   26CHL1  H12B 3063   4.699   3.991   5.791  0.2538  0.8608 -3.4422
   26CHL1   C11 3064   4.729   4.118   5.977  0.2510 -0.3322  0.3770
   26CHL1  H11A 3065   4.742   4.228   5.983  1.2960 -0.5179  2.2385
   26CHL1  H11B 3066   4.625   4.100   6.011 -0.3222  2.3256  0.2255
   26CHL1    C9 3067   4.823   4.022   6.056 -0.3134 -0.0008 -0.1750
   26CHL1    H9 3068   4.779   3.921   6.047 -0.7729  0.2134 -0.3349
   26CHL1   C10 3069   4.827   4.049   6.210 -0.1297  0.4045  0.0628
   26CHL1   C19 3070   4.845   4.204   6.234 -0.8394 -0.1815 -0.0163
   26CHL1  H19A 3071   4.767   4.259   6.177  2.0410  0.4912 -3.7002
   26CHL1  H19B 3072   4.844   4.221   6.344  0.4952  0.1870 -0.0414
   26CHL1  H19C 3073   4.942   4.234   6.190 -1.3397 -2.4864 -3.0181
   26CHL1    C1 3074   4.698   4.001   6.271  0.2682 -0.2114 -0.5720
   26CHL1   H1A 3075   4.616   4.069   6.238 -0.6608 -0.6367  0.7527
   26CHL1   H1B 3076   4.669   3.896   6.246 -2.0512 -0.0320  1.0266
   26CHL1    C2 3077   4.687   4.000   6.426 -0.1889  0.4150  0.2655
   26CHL1   H2A 3078   4.593   3.948   6.450 -0.1579 -0.8404 -1.9803
   26CHL1   H2B 3079   4.707   4.103   6.463  2.6191  0.0949 -0.0849
   26CHL1   C20 3080   4.865   4.135   5.506 -0.5596 -0.3471 -0.1344
   26CHL1   H20 3081   4.907   4.238   5.506 -0.2305 -0.4820  0.3512
   26CHL1   C21 3082   4.706   4.131   5.487 -0.3711 -0.2413 -0.0328
   26CHL1  H21A 3083   4.649   4.169   5.575  0.5284 -0.4079  0.6256
   26CHL1  H21B 3084   4.676   4.028   5.458 -0.8623  0.1830 -1.1081
   26CHL1  H21C 3085   4.677   4.193   5.399 -1.2267 -0.1404  0.3103
   26CHL1   C22 3086   4.934   4.095   5.370  0.1925  0.2733  0.1813
   26CHL1  H22A 3087   5.044   4.103   5.380  0.0857  2.3034  0.0932
   26CHL1  H22B 3088   4.911   3.988   5.350  0.3527  0.3421 -0.4033
   26CHL1   C23 3089   4.883   4.177   5.243 -0.6517 -0.3515  0.4367
   26CHL1  H23A 3090   4.786   4.147   5.199 -0.4216  0.6917 -0.8365
   26CHL1  H23B 3091   4.870   4.286   5.259  0.4367 -0.4302  2.0670
   26CHL1   C24 3092   4.984   4.146   5.131  0.7551  0.1953 -0.4599
   26CHL1  H24A 3093   5.074   4.210   5.140  1.5014 -0.8368 -0.3516
   26CHL1  H24B 3094   5.012   4.042   5.161 -1.0793  0.2084  1.5861
   26CHL1   C25 3095   4.910   4.150   4.994 -0.4867 -0.5353  0.4775
   26CHL1   H25 3096   4.854   4.246   4.993  0.0115 -0.2107 -1.6731
   26CHL1   C26 3097   5.008   4.160   4.879  0.3152 -0.5603  0.7303
   26CHL1  H26A 3098   5.068   4.067   4.880 -1.5807 -1.8250  1.3550
   26CHL1  H26B 3099   4.953   4.152   4.783  1.4686 -0.9365  0.0824
   26CHL1  H26C 3100   5.070   4.253   4.886 -0.7735  0.2982 -0.5771
   26CHL1   C27 3101   4.816   4.027   4.969  0.0755  0.7298 -0.7514
   26CHL1  H27A 3102   4.762   4.035   4.873  0.2302 -0.0296 -0.9093
   26CHL1  H27B 3103   4.874   3.932   4.967 -1.4093 -0.2841  0.6613
   26CHL1  H27C 3104   4.747   4.022   5.056  2.1535  1.1916  1.0075
   27CHL1    C3 3105   0.963   0.876   5.901  0.6857 -0.2923  0.1720
   27CHL1    H3 3106   1.014   0.799   5.963 -0.2303  0.0838  1.4411
   27CHL1    O3 3107   0.886   0.961   5.980  0.1929 -0.2066 -0.4949
   27CHL1   H3' 3108   0.855   1.031   5.923 -0.0232 -1.8677 -2.5143
   27CHL1    C4 3109   1.065   0.969   5.830  0.1816  0.5460 -0.1940
   27CHL1   H4A 3110   1.018   1.069   5.817 -1.0978 -0.0815 -0.5013
   27CHL1   H4B 3111   1.147   0.974   5.905  0.5150 -1.9283 -0.3067
   27CHL1    C5 3112   1.120   0.912   5.700 -0.5365 -0.1732 -0.0785
   27CHL1    C6 3113   1.250   0.889   5.683 -0.4674 -0.3600 -0.5365
   27CHL1    H6 3114   1.315   0.902   5.770 -2.5960 -1.5704  1.3585
   27CHL1    C7 3115   1.305   0.827   5.554 -0.2685 -0.3585  1.0899
   27CHL1   H7A 3116   1.403   0.872   5.527 -0.6029 -0.7045 -0.7979
   27CHL1   H7B 3117   1.304   0.716   5.564  3.5003 -0.5481  0.9496
   27CHL1    C8 3118   1.213   0.856   5.435 -1.0614  0.2032  0.0378
   27CHL1    H8 3119   1.212   0.964   5.409 -2.3073  0.0181 -0.7425
   27CHL1   C14 3120   1.253   0.766   5.310  0.0055  0.2313  0.4754
   27CHL1   H14 3121   1.220   0.666   5.345  0.2007  0.0599  0.1633
   27CHL1   C15 3122   1.405   0.753   5.265 -0.0825 -0.4696 -0.1599
   27CHL1  H15A 3123   1.440   0.858   5.263 -1.9251  0.1957  0.0589
   27CHL1  H15B 3124   1.474   0.693   5.329  1.2253  0.0768 -1.0276
   27CHL1   C16 3125   1.398   0.703   5.126 -0.1650  0.7636  0.0791
   27CHL1  H16A 3126   1.471   0.758   5.062 -0.3852  0.3072 -0.5713
   27CHL1  H16B 3127   1.436   0.599   5.120  2.0341  1.5291 -0.3257
   27CHL1   C17 3128   1.247   0.704   5.082 -0.5212 -0.0110 -0.9026
   27CHL1   H17 3129   1.215   0.604   5.119 -0.3183  0.9917  2.1883
   27CHL1   C13 3130   1.172   0.799   5.183 -0.0563  0.4242  0.2423
   27CHL1   C18 3131   1.184   0.952   5.145  0.1659 -0.2861  0.1836
   27CHL1  H18A 3132   1.175   1.015   5.236 -0.2387 -1.9187  1.3236
   27CHL1  H18B 3133   1.277   0.969   5.087  0.0987  1.4863  0.5316
   27CHL1  H18C 3134   1.101   0.983   5.078 -0.4162  1.2644  1.5535
   27CHL1   C12 3135   1.025   0.765   5.212  0.2603 -0.3419 -0.5912
   27CHL1  H12A 3136   0.962   0.785   5.123 -0.1114  1.8277  0.1002
   27CHL1  H12B 3137   1.015   0.655   5.226 -0.4714 -0.0096  1.9684
   27CHL1   C11 3138   0.974   0.828   5.346  0.7214 -0.0845  0.5472
   27CHL1  H11A 3139   0.951   0.930   5.310  0.3103  0.2924  1.8508
   27CHL1  H11B 3140   0.871   0.795   5.371  0.4023  0.9536  0.6481
   27CHL1    C9 3141   1.068   0.816   5.468 -0.0469  0.0144 -0.1802
   27CHL1    H9 3142   1.076   0.708   5.493  0.2570 -0.0432 -0.5221
   27CHL1   C10 3143   1.012   0.878   5.597  0.2768  0.8254 -0.4553
   27CHL1   C19 3144   0.936   1.009   5.558 -0.0530  0.0803  0.9757
   27CHL1  H19A 3145   0.837   0.976   5.520  1.3701 -0.4328 -2.6426
   27CHL1  H19B 3146   0.916   1.056   5.656  1.7516  2.5936  0.2322
   27CHL1  H19C 3147   0.981   1.087   5.494 -0.0515 -0.3685  0.4230
   27CHL1    C1 3148   0.918   0.773   5.665 -0.1969 -0.6806  0.0811
   27CHL1   H1A 3149   0.834   0.759   5.594  0.5352 -2.5701 -0.4721
   27CHL1   H1B 3150   0.979   0.684   5.690 -3.0604 -1.6772  4.7598
   27CHL1    C2 3151   0.858   0.819   5.803  0.0678  0.7764  0.5128
   27CHL1   H2A 3152   0.792   0.743   5.850 -0.5428  1.5950  1.0107
   27CHL1   H2B 3153   0.780   0.891   5.772 -0.2963  0.0405 -0.3267
   27CHL1   C20 3154   1.223   0.708   4.933  0.5997 -0.5560 -0.0616
   27CHL1   H20 3155   1.264   0.802   4.890 -1.9772 -0.2928 -2.2282
   27CHL1   C21 3156   1.079   0.706   4.882 -0.3089 -0.0491  0.1823
   27CHL1  H21A 3157   1.083   0.718   4.771 -1.3971  2.3563  0.3543
   27CHL1  H21B 3158   1.022   0.787   4.932 -1.7056 -1.1283  0.4014
   27CHL1  H21C 3159   1.032   0.609   4.909 -1.7995  0.5255 -0.2769
   27CHL1   C22 3160   1.310   0.611   4.856 -0.1944  0.1948 -0.0818
   27CHL1  H22A 3161   1.289   0.632   4.749  0.8993 -0.4544 -0.4386
   27CHL1  H22B 3162   1.416   0.643   4.862 -0.0614  0.4260 -2.6286
   27CHL1   C23 3163   1.287   0.463   4.880  0.0681  0.0519  0.5901
   27CHL1  H23A 3164   1.320   0.434   4.982 -1.4819 -1.8319  0.5907
   27CHL1  H23B 3165   1.180   0.436   4.878  0.5997 -2.2061  0.1454
   27CHL1   C24 3166   1.372   0.382   4.780 -0.3905  0.5080 -0.0400
   27CHL1  H24A 3167   1.334   0.406   4.678 -1.6785  2.2071  0.7850
   27CHL1  H24B 3168   1.473   0.427   4.784 -0.4410  0.5552  0.8839
   27CHL1   C25 3169   1.372   0.224   4.791  0.6361  0.1788 -0.0049
   27CHL1   H25 3170   1.391   0.187   4.894  1.0962 -0.7157 -0.4014
   27CHL1   C26 3171   1.232   0.171   4.766 -0.0664  0.3704  0.0079
   27CHL1  H26A 3172   1.151   0.226   4.818  0.6610  0.8148  0.6969
   27CHL1  H26B 3173   1.205   0.174   4.658  0.8217  1.0806 -0.2071
   27CHL1  H26C 3174   1.228   0.063   4.794  0.2261  1.0095  2.7697
   27CHL1   C27 3175   1.474   0.160   4.697 -0.2054 -0.2189  0.1879
   27CHL1  H27A 3176   1.446   0.191   4.594  2.3653  2.8750  0.2752
   27CHL1  H27B 3177   1.470   0.049   4.705  0.7637 -0.2047  0.9908
   27CHL1  H27C 3178   1.581   0.188   4.705  0.0301 -0.7723 -0.7552
   28CHL1    C3 3179   0.184   2.354   5.941 -0.0290 -0.2616  0.4447
   28CHL1    H3 3180   0.237   2.261   5.910 -2.3925 -0.9307 -1.9550
   28CHL1    O3 3181   0.208   2.355   6.083 -0.1316 -0.6876  0.3990
   28CHL1   H3' 3182   0.168   2.434   6.121  1.5367 -0.3281  1.5104
   28CHL1    C4 3183   0.255   2.464   5.865 -0.9054 -0.3693 -0.3888
   28CHL1   H4A 3184   0.204   2.550   5.916  0.8037 -1.6398  3.9258
   28CHL1   H4B 3185   0.360   2.475   5.901 -1.5036 -0.6222  1.5946
   28CHL1    C5 3186   0.239   2.481   5.717  0.5944  0.0807  0.4220
   28CHL1    C6 3187   0.341   2.502   5.631  0.0928 -0.3750 -0.9122
   28CHL1    H6 3188   0.444   2.519   5.666 -0.3586  0.5421  0.0296
   28CHL1    C7 3189   0.321   2.514   5.481  0.0332 -0.5849  0.3491
   28CHL1   H7A 3190   0.359   2.611   5.441  1.5886 -1.1875  0.2669
   28CHL1   H7B 3191   0.376   2.431   5.431  3.0974  1.5734 -0.1877
   28CHL1    C8 3192   0.172   2.516   5.431 -0.3462  0.4078 -0.3080
   28CHL1    H8 3193   0.131   2.619   5.437 -0.2647  0.4057  0.3719
   28CHL1   C14 3194   0.165   2.469   5.292  0.1320 -0.0239  0.5251
   28CHL1   H14 3195   0.197   2.362   5.287 -0.8735 -0.3899  1.4609
   28CHL1   C15 3196   0.257   2.535   5.187  0.5931  0.0759 -0.0681
   28CHL1  H15A 3197   0.275   2.642   5.210 -0.4110 -0.0392  1.3713
   28CHL1  H15B 3198   0.345   2.467   5.185 -0.1283 -0.8896  0.2224
   28CHL1   C16 3199   0.189   2.511   5.052 -0.2015 -0.2045 -0.4343
   28CHL1  H16A 3200   0.167   2.605   4.998  2.0139  1.4724  1.3558
   28CHL1  H16B 3201   0.261   2.465   4.980 -0.5087  2.0847 -2.3168
   28CHL1   C17 3202   0.056   2.431   5.074 -0.6067 -0.0444 -1.2329
   28CHL1   H17 3203   0.083   2.323   5.064  1.7485  0.5277 -1.6485
   28CHL1   C13 3204   0.025   2.467   5.226  0.7851  0.0402 -0.1092
   28CHL1   C18 3205  -0.032   2.617   5.227 -0.2831  0.2580  0.2054
   28CHL1  H18A 3206  -0.143   2.610   5.223 -0.3865  0.7570  1.6259
   28CHL1  H18B 3207  -0.014   2.671   5.322  1.7381  1.3119 -0.7171
   28CHL1  H18C 3208   0.008   2.679   5.145  0.0746 -0.5124 -0.2133
   28CHL1   C12 3209  -0.066   2.372   5.312 -0.1148 -0.2414  0.3624
   28CHL1  H12A 3210  -0.170   2.364   5.272 -0.6300  0.9363  1.4155
   28CHL1  H12B 3211  -0.028   2.267   5.309  0.1094 -0.2092  1.7560
   28CHL1   C11 3212  -0.061   2.420   5.462  0.3667  0.0236  0.3582
   28CHL1  H11A 3213  -0.105   2.522   5.469  1.3263  0.6140 -1.4370
   28CHL1  H11B 3214  -0.126   2.345   5.512 -1.5406  1.5713  0.3375
   28CHL1    C9 3215   0.084   2.424   5.517 -0.8183  0.1038 -0.4717
   28CHL1    H9 3216   0.129   2.324   5.500  0.7759  0.6104  0.5043
   28CHL1   C10 3217   0.091   2.464   5.670 -0.4541  0.0769  1.2046
   28CHL1   C19 3218   0.004   2.594   5.707 -0.0550 -0.5868  0.3835
   28CHL1  H19A 3219   0.037   2.633   5.805  0.6237 -1.6537  0.6045
   28CHL1  H19B 3220   0.027   2.670   5.629 -1.8143  1.3181  1.6413
   28CHL1  H19C 3221  -0.100   2.560   5.690 -0.2900 -1.3596  2.9802
   28CHL1    C1 3222   0.025   2.344   5.755 -0.2608  0.2936  0.0446
   28CHL1   H1A 3223  -0.078   2.346   5.713  0.2587 -1.0189 -1.3724
   28CHL1   H1B 3224   0.060   2.243   5.724 -0.3177  0.0211  0.8606
   28CHL1    C2 3225   0.032   2.354   5.910  0.6803  0.1392 -1.0343
   28CHL1   H2A 3226  -0.032   2.274   5.953  0.7534 -0.9623 -2.8649
   28CHL1   H2B 3227  -0.011   2.453   5.939  0.1872 -0.3653  0.0055
   28CHL1   C20 3228  -0.049   2.468   4.969  1.3129 -0.0966  0.3096
   28CHL1   H20 3229  -0.100   2.566   4.985 -1.5540 -1.4718  0.1770
   28CHL1   C21 3230  -0.147   2.355   4.977  0.2676  0.2166 -0.5518
   28CHL1  H21A 3231  -0.110   2.250   4.972  0.3058  0.1554  0.6009
   28CHL1  H21B 3232  -0.226   2.367   4.900  1.1399 -2.3737 -1.9556
   28CHL1  H21C 3233  -0.210   2.356   5.069  0.5121 -0.5762 -0.3668
   28CHL1   C22 3234   0.005   2.483   4.821 -0.4485  0.6779  0.2530
   28CHL1  H22A 3235   0.075   2.569   4.828  0.7783 -0.2896  0.2115
   28CHL1  H22B 3236   0.048   2.385   4.790 -1.1847  0.3325  0.3124
   28CHL1   C23 3237  -0.108   2.507   4.722  0.9290 -0.2568 -0.6545
   28CHL1  H23A 3238  -0.185   2.430   4.697 -2.0237  2.4335 -0.4456
   28CHL1  H23B 3239  -0.167   2.589   4.767 -0.2835 -0.1440 -2.3305
   28CHL1   C24 3240  -0.061   2.557   4.584 -0.0892 -0.2045  0.1197
   28CHL1  H24A 3241   0.021   2.630   4.606  0.1586 -0.0890 -1.0835
   28CHL1  H24B 3242  -0.015   2.478   4.521  0.8380  0.0809  0.4178
   28CHL1   C25 3243  -0.164   2.623   4.495  0.0611  0.7790  0.7939
   28CHL1   H25 3244  -0.258   2.563   4.500  1.0367 -1.0799 -1.3658
   28CHL1   C26 3245  -0.194   2.760   4.543  0.4492  0.1952 -0.5278
   28CHL1  H26A 3246  -0.099   2.816   4.556 -0.2948  1.4726 -0.3862
   28CHL1  H26B 3247  -0.257   2.822   4.475  0.3137  1.0597  0.3667
   28CHL1  H26C 3248  -0.238   2.771   4.644 -0.0651  0.5578 -0.7875
   28CHL1   C27 3249  -0.129   2.644   4.351 -0.0049 -0.7725  0.3520
   28CHL1  H27A 3250  -0.103   2.545   4.306  0.9286  0.3799 -1.8145
   28CHL1  H27B 3251  -0.222   2.679   4.302 -0.8265 -1.0421  1.6563
   28CHL1  H27C 3252  -0.048   2.719   4.346  1.2676 -2.0969  0.2927
   29CHL1    C3 3253   4.094   3.214   5.959 -0.4047  0.6608  0.5613
   29CHL1    H3 3254   4.173   3.291   5.947  0.7058 -0.6780 -1.3915
   29CHL1    O3 3255   4.089   3.172   6.093 -0.2007  0.0631 -0.5999
   29CHL1   H3' 3256   3.994   3.170   6.105 -0.2726 -0.1045 -1.1428
   29CHL1    C4 3257   3.956   3.275   5.920  0.1595 -0.4984 -0.0673
   29CHL1   H4A 3258   3.887   3.190   5.937  0.8757 -1.0889 -0.1000
   29CHL1   H4B 3259   3.933   3.347   6.001 -0.4978 -0.8335  0.0516
   29CHL1    C5 3260   3.948   3.327   5.780  0.5037  0.1020  0.0543
   29CHL1    C6 3261   3.918   3.454   5.750 -0.4803 -0.6872  0.8744
   29CHL1    H6 3262   3.885   3.517   5.835 -1.5514 -0.9299  0.6473
   29CHL1    C7 3263   3.924   3.518   5.614 -0.0097  0.5632 -0.1617
   29CHL1   H7A 3264   3.833   3.581   5.604 -0.7871 -0.3968  0.6166
   29CHL1   H7B 3265   4.024   3.566   5.606  1.6285 -1.5787  4.1192
   29CHL1    C8 3266   3.925   3.411   5.501  0.0433  0.5421 -0.6876
   29CHL1    H8 3267   3.823   3.368   5.509  1.2409 -2.4438  0.2982
   29CHL1   C14 3268   3.954   3.483   5.373  0.9020  0.1421  0.4321
   29CHL1   H14 3269   4.046   3.543   5.389  1.3755 -0.1581 -1.0344
   29CHL1   C15 3270   3.845   3.582   5.328  0.0499 -0.3895  1.0174
   29CHL1  H15A 3271   3.741   3.549   5.353 -1.5469  4.3211  1.5844
   29CHL1  H15B 3272   3.854   3.680   5.379  0.1437  1.3182 -2.1037
   29CHL1   C16 3273   3.874   3.613   5.182 -0.3079  0.2854 -0.2284
   29CHL1  H16A 3274   3.787   3.594   5.116 -0.1250  0.0328 -0.3998
   29CHL1  H16B 3275   3.918   3.714   5.176  1.2342 -0.2997  0.7415
   29CHL1   C17 3276   3.994   3.515   5.145 -0.0544  0.7276  0.3343
   29CHL1   H17 3277   4.088   3.570   5.167  2.5317 -3.0527 -0.3248
   29CHL1   C13 3278   3.971   3.403   5.249 -0.0225 -0.1602  1.3889
   29CHL1   C18 3279   3.839   3.325   5.226 -0.5208 -0.6373  0.3675
   29CHL1  H18A 3280   3.782   3.293   5.315 -0.6871 -0.9989  0.1363
   29CHL1  H18B 3281   3.765   3.388   5.173  0.6769 -0.1163 -0.7417
   29CHL1  H18C 3282   3.862   3.241   5.157  3.4455 -0.5921  1.3823
   29CHL1   C12 3283   4.082   3.304   5.286 -0.4896  0.4902  1.0463
   29CHL1  H12A 3284   4.114   3.241   5.200 -0.6398 -0.7599  1.8869
   29CHL1  H12B 3285   4.170   3.371   5.289 -0.9168  1.1482 -0.3118
   29CHL1   C11 3286   4.061   3.221   5.412 -0.3183 -0.0499 -0.0273
   29CHL1  H11A 3287   3.983   3.145   5.391  0.4881 -0.6626 -0.8407
   29CHL1  H11B 3288   4.152   3.160   5.432 -0.5444 -1.2613 -2.3963
   29CHL1    C9 3289   4.022   3.302   5.538 -0.1716 -1.0657 -0.0212
   29CHL1    H9 3290   4.117   3.357   5.558 -1.5073  1.7242 -0.9542
   29CHL1   C10 3291   4.003   3.230   5.672 -0.2584 -0.5764  0.1296
   29CHL1   C19 3292   3.894   3.116   5.656 -0.1427 -0.4739 -0.3269
   29CHL1  H19A 3293   3.900   3.051   5.747  2.6214  0.5569  0.3407
   29CHL1  H19B 3294   3.793   3.159   5.644  0.6546  0.8033 -3.0832
   29CHL1  H19C 3295   3.915   3.061   5.562  1.3944 -0.2929 -0.1226
   29CHL1    C1 3296   4.133   3.162   5.714 -0.4347 -0.3254 -0.3910
   29CHL1   H1A 3297   4.144   3.074   5.647 -1.4029 -0.3344 -0.5568
   29CHL1   H1B 3298   4.218   3.233   5.702 -1.8093  1.4148 -0.2306
   29CHL1    C2 3299   4.127   3.101   5.855 -0.2589  0.1595 -0.6600
   29CHL1   H2A 3300   4.231   3.071   5.878 -0.9746 -1.3806  0.7161
   29CHL1   H2B 3301   4.053   3.018   5.866  1.9210 -1.6146  1.9111
   29CHL1   C20 3302   4.000   3.470   4.999  0.0490 -0.9377 -0.4831
   29CHL1   H20 3303   3.929   3.388   4.973 -2.4807  1.4336 -1.5854
   29CHL1   C21 3304   4.148   3.424   4.965 -0.1297  0.4956  0.2378
   29CHL1  H21A 3305   4.146   3.380   4.863 -1.5282 -2.2097  1.3277
   29CHL1  H21B 3306   4.176   3.339   5.032 -0.3610  0.1748 -0.0723
   29CHL1  H21C 3307   4.226   3.502   4.981 -0.7917  0.5851  4.1474
   29CHL1   C22 3308   3.980   3.596   4.906  0.0841 -0.4298 -0.2920
   29CHL1  H22A 3309   3.882   3.644   4.929 -1.3939 -3.3907  0.1560
   29CHL1  H22B 3310   4.047   3.683   4.919 -0.0957  0.0366 -2.3022
   29CHL1   C23 3311   3.986   3.561   4.760  0.2312  0.3441  0.6136
   29CHL1  H23A 3312   4.085   3.522   4.731  0.0259 -1.5035  2.2242
   29CHL1  H23B 3313   3.913   3.479   4.744  2.1065 -0.9598 -1.8685
   29CHL1   C24 3314   3.927   3.681   4.668  0.0347 -0.2032 -0.9300
   29CHL1  H24A 3315   3.830   3.712   4.713  0.3340 -2.3503  1.4279
   29CHL1  H24B 3316   3.985   3.772   4.693 -2.4500  1.3143 -0.3374
   29CHL1   C25 3317   3.942   3.647   4.516 -0.7491  0.3381 -0.0507
   29CHL1   H25 3318   3.917   3.740   4.460  4.2569  1.8729 -0.2338
   29CHL1   C26 3319   4.079   3.611   4.467 -0.6697 -0.2733  0.3067
   29CHL1  H26A 3320   4.122   3.515   4.504 -0.0540 -0.0149  0.2747
   29CHL1  H26B 3321   4.087   3.610   4.357 -2.6843 -0.8648  0.1314
   29CHL1  H26C 3322   4.142   3.690   4.512 -1.0660 -0.5782  1.4505
   29CHL1   C27 3323   3.845   3.535   4.465  0.8246 -0.3473 -0.2769
   29CHL1  H27A 3324   3.875   3.435   4.500  0.4686  0.3456  2.1547
   29CHL1  H27B 3325   3.742   3.561   4.497  1.0156 -1.3648  1.2512
   29CHL1  H27C 3326   3.850   3.544   4.354 -0.1803 -2.0085 -0.4843
   30CHL1    C3 3327   4.659   3.580   6.225 -0.7282 -0.4468  0.4409
   30CHL1    H3 3328   4.620   3.683   6.240  0.5013  0.0152  0.5823
   30CHL1    O3 3329   4.696   3.537   6.349 -0.3774 -0.6137  0.3112
   30CHL1   H3' 3330   4.712   3.443   6.346  0.6942 -0.4569  0.4823
   30CHL1    C4 3331   4.559   3.488   6.168  0.0671 -0.6944 -0.3210
   30CHL1   H4A 3332   4.601   3.385   6.174 -0.7036 -1.1217 -1.6770
   30CHL1   H4B 3333   4.467   3.493   6.229 -0.5323 -0.2520 -1.2521
   30CHL1    C5 3334   4.532   3.506   6.020 -0.2120 -0.3789 -0.5674
   30CHL1    C6 3335   4.403   3.523   5.979 -0.0750  0.6811  0.1694
   30CHL1    H6 3336   4.322   3.499   6.050 -0.1008  0.1396 -0.0321
   30CHL1    C7 3337   4.362   3.561   5.838  0.2635  0.2266  0.1300
   30CHL1   H7A 3338   4.269   3.509   5.806 -0.1824  1.3177 -0.4149
   30CHL1   H7B 3339   4.345   3.669   5.858 -0.7886 -0.0852  1.0036
   30CHL1    C8 3340   4.478   3.543   5.739 -0.9596 -0.2699  0.2432
   30CHL1    H8 3341   4.490   3.435   5.716 -1.7074 -0.0607 -1.2459
   30CHL1   C14 3342   4.449   3.609   5.605 -0.2259 -0.2949  0.2643
   30CHL1   H14 3343   4.441   3.720   5.617 -2.4331 -0.1756 -1.5714
   30CHL1   C15 3344   4.313   3.580   5.540 -1.0596  0.6701  0.3393
   30CHL1  H15A 3345   4.312   3.470   5.550 -0.3821  0.4341 -1.6627
   30CHL1  H15B 3346   4.230   3.621   5.602 -1.0621  0.6930  0.3212
   30CHL1   C16 3347   4.326   3.626   5.396 -0.2157  0.1645 -0.3712
   30CHL1  H16A 3348   4.291   3.546   5.327 -3.1959  0.7077  0.3902
   30CHL1  H16B 3349   4.255   3.710   5.381  0.6761  1.8386  3.5404
   30CHL1   C17 3350   4.479   3.665   5.378 -0.1570 -0.3168 -0.6738
   30CHL1   H17 3351   4.482   3.772   5.407  1.1805 -0.0998 -1.5376
   30CHL1   C13 3352   4.554   3.599   5.491  0.1913  0.1315  0.4731
   30CHL1   C18 3353   4.577   3.453   5.440 -0.1658  1.3241 -0.3803
   30CHL1  H18A 3354   4.645   3.451   5.352 -2.5240  0.1985 -2.3050
   30CHL1  H18B 3355   4.625   3.392   5.519  0.6707  1.0222 -1.1017
   30CHL1  H18C 3356   4.486   3.403   5.400  0.2929  0.4742 -0.3863
   30CHL1   C12 3357   4.686   3.665   5.546  0.8837  0.0532  0.2656
   30CHL1  H12A 3358   4.778   3.636   5.491  0.1885  0.1661 -0.9934
   30CHL1  H12B 3359   4.687   3.776   5.550  0.0893  0.0668  0.2853
   30CHL1   C11 3360   4.727   3.600   5.680  0.1862  0.0306 -0.3339
   30CHL1  H11A 3361   4.763   3.495   5.667  0.9011  0.1502  0.5370
   30CHL1  H11B 3362   4.811   3.661   5.720 -0.3365 -0.6391  1.9579
   30CHL1    C9 3363   4.614   3.593   5.791  0.3846  0.2992  0.0386
   30CHL1    H9 3364   4.599   3.701   5.812  0.7153  0.3554 -0.0055
   30CHL1   C10 3365   4.655   3.527   5.929  1.1433  0.1488  1.1844
   30CHL1   C19 3366   4.726   3.393   5.895 -0.0858  0.0786 -0.2810
   30CHL1  H19A 3367   4.824   3.408   5.845 -0.8609  0.9387 -1.5950
   30CHL1  H19B 3368   4.748   3.333   5.986 -0.8849  2.6191  1.7105
   30CHL1  H19C 3369   4.670   3.334   5.820  0.0958  1.4523 -1.5289
   30CHL1    C1 3370   4.761   3.620   5.994 -0.2773 -1.0169  0.1166
   30CHL1   H1A 3371   4.846   3.621   5.922 -1.4118  0.5919 -1.2825
   30CHL1   H1B 3372   4.724   3.724   5.983  0.9135 -0.6952 -1.2005
   30CHL1    C2 3373   4.782   3.588   6.139 -0.3896  0.0621  0.6088
   30CHL1   H2A 3374   4.848   3.668   6.180  0.2485 -1.5931  3.0374
   30CHL1   H2B 3375   4.848   3.499   6.129 -0.8374 -0.2616  0.5236
   30CHL1   C20 3376   4.534   3.664   5.231  0.5093 -0.5577 -0.1328
   30CHL1   H20 3377   4.525   3.557   5.201  0.4058 -1.2747  2.2907
   30CHL1   C21 3378   4.679   3.713   5.225  0.3051  1.0859  0.2061
   30CHL1  H21A 3379   4.745   3.637   5.272 -1.7573 -0.5365  0.6195
   30CHL1  H21B 3380   4.686   3.816   5.266 -1.0119  0.6966  1.4847
   30CHL1  H21C 3381   4.710   3.713   5.118 -0.3658 -1.5296 -0.0477
   30CHL1   C22 3382   4.452   3.754   5.132 -0.4340  0.4483 -0.3382
   30CHL1  H22A 3383   4.344   3.745   5.157  0.2365 -0.2852  2.7206
   30CHL1  H22B 3384   4.485   3.860   5.140  0.9915  0.1296 -1.4860
   30CHL1   C23 3385   4.465   3.730   4.973  0.6690 -0.1948 -0.4851
   30CHL1  H23A 3386   4.572   3.722   4.944  0.2535 -0.6857 -1.9438
   30CHL1  H23B 3387   4.410   3.638   4.946 -1.6239  1.0583 -0.3841
   30CHL1   C24 3388   4.391   3.842   4.898  0.3465 -0.1262  0.3515
   30CHL1  H24A 3389   4.289   3.843   4.943 -0.6740 -0.1212 -1.8438
   30CHL1  H24B 3390   4.453   3.934   4.913  1.1054 -0.6975  0.7758
   30CHL1   C25 3391   4.389   3.817   4.744  0.7094  0.5478 -0.4157
   30CHL1   H25 3392   4.359   3.712   4.722  2.1668  0.0444 -0.1471
   30CHL1   C26 3393   4.286   3.898   4.677  0.0415 -0.2227  0.4523
   30CHL1  H26A 3394   4.186   3.904   4.724  0.1898  0.2653  0.7134
   30CHL1  H26B 3395   4.323   4.003   4.673  1.4393 -0.7258 -1.8872
   30CHL1  H26C 3396   4.267   3.860   4.574  0.6357 -0.1955  0.3269
   30CHL1   C27 3397   4.521   3.840   4.675  0.8983 -0.2990 -0.3817
   30CHL1  H27A 3398   4.540   3.950   4.684 -0.3797 -0.1568  0.8130
   30CHL1  H27B 3399   4.594   3.783   4.736 -0.6574  1.3221  3.3023
   30CHL1  H27C 3400   4.512   3.809   4.568 -0.6239 -0.8309 -0.1184
   31CHL1    C3 3401   1.142   5.632   6.177  0.3256 -0.5607  0.1525
   31CHL1    H3 3402   1.246   5.615   6.141  0.5053 -0.5006  0.6435
   31CHL1    O3 3403   1.133   5.646   6.318 -0.0644 -0.0112  0.0605
   31CHL1   H3' 3404   1.054   5.700   6.323 -1.2041 -1.3752 -2.1118
   31CHL1    C4 3405   1.088   5.764   6.118 -0.9675 -0.5061  0.2826
   31CHL1   H4A 3406   0.990   5.780   6.169 -1.1062 -2.0089  0.5516
   31CHL1   H4B 3407   1.147   5.847   6.161 -1.1873 -0.5309  0.6355
   31CHL1    C5 3408   1.084   5.762   5.966 -0.0561 -0.1095  0.2999
   31CHL1    C6 3409   1.142   5.865   5.897  0.2200  0.6528  0.9107
   31CHL1    H6 3410   1.193   5.942   5.956 -1.2182  1.6055  0.9607
   31CHL1    C7 3411   1.134   5.869   5.747 -0.3270 -0.1113 -0.5887
   31CHL1   H7A 3412   1.119   5.977   5.728  0.6892  0.0033 -0.7776
   31CHL1   H7B 3413   1.236   5.849   5.708 -0.5275  0.0206 -1.1904
   31CHL1    C8 3414   1.035   5.771   5.692  0.3781  0.4902 -0.4807
   31CHL1    H8 3415   0.938   5.820   5.715 -0.3886 -0.7072 -1.0658
   31CHL1   C14 3416   1.049   5.772   5.539  0.5642  0.3196  0.4372
   31CHL1   H14 3417   1.152   5.732   5.526  0.0746 -1.2268  1.1174
   31CHL1   C15 3418   1.033   5.903   5.460  0.4169 -0.5701 -0.6943
   31CHL1  H15A 3419   0.963   5.968   5.517 -0.3003 -2.5802  0.8360
   31CHL1  H15B 3420   1.133   5.950   5.444  1.4111 -2.7273 -1.1424
   31CHL1   C16 3421   0.994   5.865   5.316  0.4047 -0.1077  0.1109
   31CHL1  H16A 3422   0.895   5.911   5.295 -1.1296 -3.2110 -0.1704
   31CHL1  H16B 3423   1.081   5.898   5.255  0.6023  2.3808  1.6176
   31CHL1   C17 3424   0.977   5.708   5.313 -0.1083 -0.0279  0.2210
   31CHL1   H17 3425   1.078   5.663   5.298 -0.4643 -0.1302 -2.2646
   31CHL1   C13 3426   0.957   5.676   5.466  0.0365 -0.0227 -0.0146
   31CHL1   C18 3427   0.798   5.695   5.497 -0.1146  0.0438 -0.6174
   31CHL1  H18A 3428   0.765   5.781   5.435 -0.9497  0.7639  0.7800
   31CHL1  H18B 3429   0.739   5.605   5.470  0.3545 -0.1286 -1.0909
   31CHL1  H18C 3430   0.784   5.734   5.600 -0.3447 -1.2193 -0.1539
   31CHL1   C12 3431   0.982   5.538   5.524 -0.4750  0.2931  0.0240
   31CHL1  H12A 3432   0.902   5.468   5.493 -1.2508  0.1138  2.2763
   31CHL1  H12B 3433   1.082   5.495   5.500 -0.2977 -0.6932  2.3363
   31CHL1   C11 3434   0.964   5.521   5.678 -0.1398 -0.2554  0.0025
   31CHL1  H11A 3435   0.855   5.520   5.700  0.0483 -1.7684  1.0670
   31CHL1  H11B 3436   1.012   5.425   5.706  0.3874 -0.2100 -0.7229
   31CHL1    C9 3437   1.044   5.630   5.756  0.5861  0.1410 -0.5890
   31CHL1    H9 3438   1.148   5.593   5.742  1.1203 -0.2006  3.2673
   31CHL1   C10 3439   1.021   5.637   5.905  0.3225 -0.0748 -0.0728
   31CHL1   C19 3440   0.866   5.646   5.936 -0.4534 -0.1572 -0.8708
   31CHL1  H19A 3441   0.816   5.553   5.899 -0.3793 -0.5502 -0.0166
   31CHL1  H19B 3442   0.854   5.667   6.044  1.6324  1.1112 -0.8358
   31CHL1  H19C 3443   0.831   5.730   5.873  0.5608  0.5404 -0.5236
   31CHL1    C1 3444   1.073   5.501   5.971  0.7472 -0.2009  0.5907
   31CHL1   H1A 3445   1.005   5.422   5.934  1.2124 -0.4415  0.2333
   31CHL1   H1B 3446   1.175   5.481   5.930  0.6333  2.4239 -1.2439
   31CHL1    C2 3447   1.067   5.500   6.122 -0.2234 -1.0951 -1.0690
   31CHL1   H2A 3448   1.128   5.414   6.156  0.1418 -0.6198 -0.4916
   31CHL1   H2B 3449   0.961   5.489   6.156  0.6581 -3.7252  1.2258
   31CHL1   C20 3450   0.885   5.669   5.197 -0.0596  0.1644  0.4112
   31CHL1   H20 3451   0.783   5.710   5.211  0.2010  1.3484 -0.8969
   31CHL1   C21 3452   0.874   5.516   5.201  0.2264  0.3349 -0.2323
   31CHL1  H21A 3453   0.978   5.475   5.200 -0.2063 -0.8523  1.2283
   31CHL1  H21B 3454   0.825   5.476   5.110  0.7009 -0.4113 -0.1722
   31CHL1  H21C 3455   0.817   5.472   5.285 -0.0861  0.8762 -0.1610
   31CHL1   C22 3456   0.922   5.725   5.057 -0.4640  0.1577  0.7003
   31CHL1  H22A 3457   0.836   5.692   4.995  0.6680  0.8265 -1.3208
   31CHL1  H22B 3458   0.910   5.836   5.055 -3.7476 -0.1176  0.2029
   31CHL1   C23 3459   1.052   5.687   4.998 -0.0134  0.5405  0.0838
   31CHL1  H23A 3460   1.126   5.745   5.058 -1.5143  2.8236 -0.1690
   31CHL1  H23B 3461   1.074   5.578   5.011  1.0777  0.8530  1.0993
   31CHL1   C24 3462   1.078   5.726   4.848 -0.7218  0.7665 -0.2520
   31CHL1  H24A 3463   1.038   5.828   4.831 -2.6978  0.1249  0.2796
   31CHL1  H24B 3464   1.189   5.725   4.841 -0.5442 -0.6881  1.7708
   31CHL1   C25 3465   1.023   5.632   4.735 -0.5264 -0.0701  0.0096
   31CHL1   H25 3466   0.916   5.614   4.760 -0.8517  1.3433 -0.3102
   31CHL1   C26 3467   1.031   5.702   4.597  0.0651 -0.2711  0.5344
   31CHL1  H26A 3468   0.986   5.643   4.516 -0.2049  0.0526  0.4457
   31CHL1  H26B 3469   0.961   5.789   4.596 -0.5997 -0.8050  0.3377
   31CHL1  H26C 3470   1.134   5.742   4.583  0.8250 -1.8932  1.2382
   31CHL1   C27 3471   1.091   5.497   4.731  0.1961 -0.0806 -0.0191
   31CHL1  H27A 3472   1.120   5.467   4.834  1.5348  1.6647  0.1652
   31CHL1  H27B 3473   1.022   5.422   4.686  0.1619 -0.2869  0.3701
   31CHL1  H27C 3474   1.187   5.505   4.676  0.0930 -0.8984 -0.3285
   32CHL1    C3 3475   3.768   1.922   6.031 -0.0804 -0.7160  0.3293
   32CHL1    H3 3476   3.757   2.026   6.068 -1.4583 -0.2898 -1.1605
   32CHL1    O3 3477   3.751   1.834   6.140 -0.1276 -0.1184  0.2192
   32CHL1   H3' 3478   3.825   1.852   6.199 -0.0134 -3.7997  1.4671
   32CHL1    C4 3479   3.651   1.895   5.932  0.1187  0.5517 -0.5078
   32CHL1   H4A 3480   3.648   1.784   5.929  1.6447  0.4442  0.8081
   32CHL1   H4B 3481   3.557   1.930   5.979 -0.0349 -0.2583 -0.1850
   32CHL1    C5 3482   3.665   1.959   5.798 -0.1317 -0.0030 -0.0641
   32CHL1    C6 3483   3.569   2.035   5.745 -0.2462  0.1518  0.2830
   32CHL1    H6 3484   3.475   2.046   5.801 -0.6955 -1.9979  0.0213
   32CHL1    C7 3485   3.566   2.075   5.601  0.0394  1.3623  0.9128
   32CHL1   H7A 3486   3.462   2.061   5.565  0.1158  2.7978  0.0429
   32CHL1   H7B 3487   3.582   2.185   5.594 -0.6378  1.4794  1.1752
   32CHL1    C8 3488   3.676   2.010   5.511 -0.2623 -0.4234  0.3018
   32CHL1    H8 3489   3.637   1.908   5.489 -1.4527  0.1536 -0.3659
   32CHL1   C14 3490   3.708   2.096   5.383 -0.0218  0.1003 -0.6245
   32CHL1   H14 3491   3.774   2.176   5.423 -0.0240  0.0535 -0.5266
   32CHL1   C15 3492   3.588   2.144   5.302  0.3682 -0.1658  0.2441
   32CHL1  H15A 3493   3.522   2.060   5.275  1.5431 -1.0587  0.0760
   32CHL1  H15B 3494   3.520   2.218   5.349 -2.3692 -0.9514 -2.1579
   32CHL1   C16 3495   3.655   2.196   5.175 -0.3876 -0.3655  0.1754
   32CHL1  H16A 3496   3.595   2.159   5.089 -1.3985  0.0929  0.6595
   32CHL1  H16B 3497   3.652   2.307   5.179 -3.0513 -0.3510 -0.2936
   32CHL1   C17 3498   3.800   2.137   5.175  0.6850  0.4609 -0.1754
   32CHL1   H17 3499   3.866   2.224   5.196 -0.6691  1.8655 -1.4930
   32CHL1   C13 3500   3.810   2.034   5.288  0.0821  0.5153 -0.1545
   32CHL1   C18 3501   3.752   1.903   5.229  0.8290 -0.2623 -0.2643
   32CHL1  H18A 3502   3.797   1.846   5.145  0.2006 -0.6891 -0.3178
   32CHL1  H18B 3503   3.741   1.832   5.314 -1.0380 -0.7900 -0.9019
   32CHL1  H18C 3504   3.647   1.914   5.194  0.9559  1.5509 -0.1573
   32CHL1   C12 3505   3.945   2.015   5.359  0.0578  0.5862 -0.6637
   32CHL1  H12A 3506   4.016   1.953   5.301 -1.7486 -0.8389 -1.4672
   32CHL1  H12B 3507   3.984   2.119   5.366  0.0955  0.4882  1.2033
   32CHL1   C11 3508   3.932   1.954   5.500 -0.1987 -0.2788  0.1017
   32CHL1  H11A 3509   3.918   1.846   5.480  2.2676 -0.8985  1.3350
   32CHL1  H11B 3510   4.029   1.967   5.553  0.2271 -1.0320 -0.4793
   32CHL1    C9 3511   3.810   1.999   5.590  0.1633 -0.4743  0.7992
   32CHL1    H9 3512   3.840   2.101   5.622  0.3546 -0.3734  0.3127
   32CHL1   C10 3513   3.798   1.918   5.725 -0.3048 -0.2098 -0.4020
   32CHL1   C19 3514   3.796   1.770   5.688 -0.0159 -0.5816 -0.0239
   32CHL1  H19A 3515   3.892   1.725   5.655 -0.3288 -0.9320 -0.4667
   32CHL1  H19B 3516   3.758   1.714   5.776  1.3710 -0.7372  0.4925
   32CHL1  H19C 3517   3.718   1.752   5.611  0.5172 -5.2871  0.2654
   32CHL1    C1 3518   3.918   1.947   5.825 -0.4916 -0.3206 -0.9603
   32CHL1   H1A 3519   4.016   1.922   5.779  0.3682 -0.1283  0.7122
   32CHL1   H1B 3520   3.919   2.056   5.850  1.3245 -0.4918 -0.1678
   32CHL1    C2 3521   3.897   1.883   5.965 -0.1240 -1.1414  0.8336
   32CHL1   H2A 3522   3.974   1.921   6.034  1.6304 -2.1788 -0.4668
   32CHL1   H2B 3523   3.893   1.772   5.953  2.7432 -1.5705  2.8855
   32CHL1   C20 3524   3.839   2.094   5.032 -0.5682  0.1226 -0.7161
   32CHL1   H20 3525   3.764   2.018   5.001  1.8837 -2.5894 -0.4804
   32CHL1   C21 3526   3.985   2.036   5.034 -0.1765 -0.4196 -0.1767
   32CHL1  H21A 3527   3.986   1.932   5.073  0.3356 -0.6806 -0.8585
   32CHL1  H21B 3528   4.062   2.096   5.087 -2.5787  2.0341  0.7213
   32CHL1  H21C 3529   4.007   2.020   4.926  0.3138 -0.7495 -0.0329
   32CHL1   C22 3530   3.833   2.197   4.917 -0.1030  0.4186 -1.0609
   32CHL1  H22A 3531   3.747   2.266   4.934  0.2672  0.2783  1.8009
   32CHL1  H22B 3532   3.927   2.256   4.922  0.1627 -0.0893  0.2959
   32CHL1   C23 3533   3.816   2.144   4.774 -0.0203  0.2385  0.4789
   32CHL1  H23A 3534   3.877   2.053   4.757  1.1731  0.2835  3.8446
   32CHL1  H23B 3535   3.713   2.103   4.759 -0.9166  1.6165  2.3585
   32CHL1   C24 3536   3.857   2.247   4.666 -0.5175  0.4079  0.2762
   32CHL1  H24A 3537   3.799   2.340   4.688 -4.4113 -1.3916 -1.4002
   32CHL1  H24B 3538   3.965   2.270   4.661 -0.6345  1.1591  0.8326
   32CHL1   C25 3539   3.804   2.209   4.528  0.2632 -0.7313 -0.2725
   32CHL1   H25 3540   3.695   2.217   4.548  0.6376  0.2555  1.6029
   32CHL1   C26 3541   3.844   2.307   4.420  0.2178 -0.1213  0.3945
   32CHL1  H26A 3542   3.954   2.298   4.406  0.1285  0.1422 -0.5262
   32CHL1  H26B 3543   3.811   2.286   4.316  1.7757  2.7485 -0.7747
   32CHL1  H26C 3544   3.832   2.409   4.461  0.6829  0.0252  0.1677
   32CHL1   C27 3545   3.844   2.066   4.494 -0.2200 -0.0261  0.3754
   32CHL1  H27A 3546   3.954   2.048   4.500 -0.3302 -0.2954  2.1943
   32CHL1  H27B 3547   3.797   1.995   4.566 -2.5902 -1.9439 -2.8061
   32CHL1  H27C 3548   3.801   2.040   4.395 -2.0374  1.2486  0.7832
   33CHL1    C3 3549   2.629   0.761   5.963  0.2888  0.0145  0.1904
   33CHL1    H3 3550   2.576   0.667   5.935  1.4499 -0.6055 -0.0297
   33CHL1    O3 3551   2.630   0.763   6.108 -0.4300 -0.5048  0.7845
   33CHL1   H3' 3552   2.675   0.843   6.135  1.2923 -1.1318 -0.0215
   33CHL1    C4 3553   2.777   0.743   5.920 -0.1829  0.1792 -0.6109
   33CHL1   H4A 3554   2.824   0.836   5.958 -4.0747  1.9401  0.4044
   33CHL1   H4B 3555   2.814   0.660   5.984 -3.3253  0.7350  2.1537
   33CHL1    C5 3556   2.789   0.748   5.773 -0.2420 -0.7380  1.0593
   33CHL1    C6 3557   2.851   0.646   5.712 -0.5189  0.0187 -0.6075
   33CHL1    H6 3558   2.901   0.565   5.767 -0.0590  0.7879  0.1339
   33CHL1    C7 3559   2.868   0.640   5.563 -0.5458 -0.6296  0.0010
   33CHL1   H7A 3560   2.973   0.608   5.543 -0.4358 -1.6860  1.9738
   33CHL1   H7B 3561   2.808   0.565   5.507 -1.1252 -0.5019  0.4438
   33CHL1    C8 3562   2.833   0.770   5.481 -0.2820  0.5348  0.7011
   33CHL1    H8 3563   2.918   0.838   5.503  1.9499 -2.1783  0.8923
   33CHL1   C14 3564   2.807   0.754   5.332  0.7428 -0.0309  0.0487
   33CHL1   H14 3565   2.732   0.674   5.317  2.6134 -1.6393 -1.2622
   33CHL1   C15 3566   2.919   0.688   5.250 -0.0030 -0.6036  0.0199
   33CHL1  H15A 3567   3.017   0.737   5.265 -0.5282  0.9145 -1.2644
   33CHL1  H15B 3568   2.929   0.580   5.275  1.4419 -0.3577  0.5920
   33CHL1   C16 3569   2.872   0.714   5.103  0.3204  0.1308  0.1676
   33CHL1  H16A 3570   2.959   0.752   5.046  0.1621 -0.2017 -0.2975
   33CHL1  H16B 3571   2.832   0.618   5.063 -0.3372 -0.6287  2.4863
   33CHL1   C17 3572   2.760   0.820   5.106  0.0329 -0.6388  0.3653
   33CHL1   H17 3573   2.661   0.771   5.092 -0.3396 -0.1254  1.1196
   33CHL1   C13 3574   2.762   0.873   5.249  0.2874 -0.5016 -0.2464
   33CHL1   C18 3575   2.873   0.985   5.261  1.2572 -0.0181  0.1355
   33CHL1  H18A 3576   2.892   1.025   5.363 -2.1925  2.2050  0.0728
   33CHL1  H18B 3577   2.968   0.957   5.212  1.2512  1.7439 -0.9547
   33CHL1  H18C 3578   2.834   1.079   5.217 -2.0173 -1.3968 -0.2917
   33CHL1   C12 3579   2.627   0.916   5.310  0.6918 -0.0261 -0.3333
   33CHL1  H12A 3580   2.582   1.004   5.259 -0.1426  1.6461  3.0001
   33CHL1  H12B 3581   2.559   0.831   5.290  1.3098 -0.6037 -0.0009
   33CHL1   C11 3582   2.638   0.945   5.459  0.1425 -0.5025  0.8961
   33CHL1  H11A 3583   2.693   1.040   5.474 -1.7298  1.2009 -2.0361
   33CHL1  H11B 3584   2.534   0.964   5.494  0.3083  0.3205  0.9496
   33CHL1    C9 3585   2.706   0.832   5.540  1.3007  0.6318 -0.0073
   33CHL1    H9 3586   2.631   0.750   5.541  1.0082  0.8984  0.5766
   33CHL1   C10 3587   2.708   0.863   5.694  0.0926  0.6869  0.1689
   33CHL1   C19 3588   2.785   0.994   5.723 -0.2191 -0.0803 -0.7961
   33CHL1  H19A 3589   2.722   1.068   5.670 -2.0058 -0.7388  0.2893
   33CHL1  H19B 3590   2.779   1.020   5.831  2.7449  2.3940 -1.1162
   33CHL1  H19C 3591   2.888   0.995   5.681  1.0337 -1.4295  1.9959
   33CHL1    C1 3592   2.561   0.872   5.748 -0.2900  0.2951  0.1531
   33CHL1   H1A 3593   2.503   0.948   5.691  0.2902 -0.4324 -1.4716
   33CHL1   H1B 3594   2.508   0.777   5.724  1.0131  0.1168 -2.2553
   33CHL1    C2 3595   2.558   0.879   5.898  0.4759  0.3185  0.7160
   33CHL1   H2A 3596   2.452   0.878   5.932 -1.2560  0.4673 -3.9585
   33CHL1   H2B 3597   2.592   0.978   5.934 -0.4399  0.0785  2.3224
   33CHL1   C20 3598   2.774   0.916   4.989  0.0730 -0.5490 -0.6929
   33CHL1   H20 3599   2.854   0.991   5.004 -1.4823  0.6522  2.9626
   33CHL1   C21 3600   2.639   0.996   4.980 -0.1652 -0.4556 -0.6685
   33CHL1  H21A 3601   2.545   0.938   4.990 -0.4417 -0.3107 -2.1990
   33CHL1  H21B 3602   2.623   1.039   4.878  0.2939 -1.1689 -1.0459
   33CHL1  H21C 3603   2.637   1.078   5.056 -0.0412 -1.0305 -0.0388
   33CHL1   C22 3604   2.805   0.843   4.858  0.1571 -0.0989  0.3976
   33CHL1  H22A 3605   2.897   0.780   4.859 -0.2754 -0.8093  2.8665
   33CHL1  H22B 3606   2.725   0.770   4.832  0.2892 -0.4551  0.9833
   33CHL1   C23 3607   2.814   0.927   4.731  0.0072  0.0018  0.6827
   33CHL1  H23A 3608   2.842   0.868   4.641  0.9241  2.2884 -0.6261
   33CHL1  H23B 3609   2.716   0.970   4.699  1.8198  3.6740 -0.5267
   33CHL1   C24 3610   2.916   1.040   4.742  0.1839  0.0194  0.0669
   33CHL1  H24A 3611   2.868   1.120   4.802 -0.7329 -0.6216  0.2195
   33CHL1  H24B 3612   3.005   1.002   4.794  1.9676  0.5729 -2.3822
   33CHL1   C25 3613   2.960   1.101   4.599  0.1107 -0.0449 -0.2905
   33CHL1   H25 3614   3.009   1.193   4.638 -0.6541  0.6701 -0.9776
   33CHL1   C26 3615   3.071   1.024   4.530  0.0640  0.7228  0.0641
   33CHL1  H26A 3616   3.038   0.921   4.505  1.9851 -0.1646  0.9809
   33CHL1  H26B 3617   3.100   1.070   4.433  2.3257  0.9981  0.8105
   33CHL1  H26C 3618   3.157   1.002   4.596 -2.1027  1.3187  3.2784
   33CHL1   C27 3619   2.836   1.129   4.502  0.0669  0.1137 -0.0399
   33CHL1  H27A 3620   2.873   1.164   4.403 -0.9535 -1.0523 -0.8671
   33CHL1  H27B 3621   2.771   1.040   4.493 -0.8591  0.4922  2.2693
   33CHL1  H27C 3622   2.766   1.207   4.538  0.1164  0.6020 -0.9732
   34CHL1    C3 3623   3.758   2.486   6.078 -0.1511 -0.1960 -0.2191
   34CHL1    H3 3624   3.860   2.531   6.081  0.0967 -0.7753  1.8854
   34CHL1    O3 3625   3.728   2.444   6.206  0.6113 -0.4254  0.2053
   34CHL1   H3' 3626   3.778   2.362   6.214  0.4587 -0.6088 -0.5867
   34CHL1    C4 3627   3.650   2.593   6.029  0.1734 -0.1894 -0.5227
   34CHL1   H4A 3628   3.552   2.541   6.032  0.2381 -0.2739  0.0954
   34CHL1   H4B 3629   3.646   2.680   6.097  1.3040 -0.4501 -0.1040
   34CHL1    C5 3630   3.678   2.635   5.882 -0.0590  0.5440 -0.3549
   34CHL1    C6 3631   3.687   2.763   5.840 -0.8844 -0.2312 -0.5236
   34CHL1    H6 3632   3.657   2.844   5.908 -2.4595 -1.0966 -0.1372
   34CHL1    C7 3633   3.715   2.806   5.703  0.1920 -0.3770 -0.3920
   34CHL1   H7A 3634   3.678   2.907   5.674  2.1505  1.0652  1.8006
   34CHL1   H7B 3635   3.822   2.824   5.681 -0.2560  0.9993 -1.6200
   34CHL1    C8 3636   3.680   2.691   5.605  0.1564 -0.0566  0.4213
   34CHL1    H8 3637   3.571   2.674   5.592  0.7231 -2.8542 -1.5262
   34CHL1   C14 3638   3.728   2.732   5.461 -0.0263  0.6337  0.4218
   34CHL1   H14 3639   3.837   2.748   5.471  0.2502 -1.4117  1.2476
   34CHL1   C15 3640   3.666   2.858   5.393 -0.4510  0.4540  0.1383
   34CHL1  H15A 3641   3.555   2.861   5.399 -0.4042  0.8948  0.9348
   34CHL1  H15B 3642   3.699   2.954   5.437 -1.2144  0.3953  0.8781
   34CHL1   C16 3643   3.726   2.846   5.247  0.0753  1.1069  0.4182
   34CHL1  H16A 3644   3.639   2.870   5.182 -0.8605 -1.3989  0.6554
   34CHL1  H16B 3645   3.809   2.920   5.240 -0.7046  1.8741 -1.3262
   34CHL1   C17 3646   3.772   2.701   5.226  0.3641 -0.7291 -0.5284
   34CHL1   H17 3647   3.881   2.687   5.241  0.0640 -3.0569 -0.1930
   34CHL1   C13 3648   3.709   2.622   5.348  0.0524 -0.5582 -0.1681
   34CHL1   C18 3649   3.558   2.596   5.324  0.0608 -0.3879 -0.2805
   34CHL1  H18A 3650   3.552   2.519   5.245 -0.7224  0.5323 -1.1339
   34CHL1  H18B 3651   3.502   2.571   5.417 -2.2137  1.0838 -1.1889
   34CHL1  H18C 3652   3.505   2.684   5.282 -3.2147 -2.5657 -1.0482
   34CHL1   C12 3653   3.799   2.501   5.395  0.2551 -1.6556  0.3809
   34CHL1  H12A 3654   3.776   2.415   5.328 -0.2340  0.3044 -2.1245
   34CHL1  H12B 3655   3.909   2.514   5.388  0.2250 -1.9037 -4.9329
   34CHL1   C11 3656   3.740   2.457   5.531  0.1046  0.2444  1.0455
   34CHL1  H11A 3657   3.632   2.432   5.519  0.3001 -0.5642  0.9021
   34CHL1  H11B 3658   3.793   2.363   5.555  2.8184  1.5134  0.4308
   34CHL1    C9 3659   3.751   2.563   5.644  0.2614  0.3337  0.9032
   34CHL1    H9 3660   3.858   2.593   5.653  0.4567  0.4874 -1.5135
   34CHL1   C10 3661   3.699   2.515   5.787  0.0992 -0.6020  0.8815
   34CHL1   C19 3662   3.556   2.457   5.761  0.5553  0.0312 -0.5178
   34CHL1  H19A 3663   3.488   2.543   5.744  0.4274 -0.2716 -1.6146
   34CHL1  H19B 3664   3.544   2.382   5.680  2.9329 -0.8674 -0.1229
   34CHL1  H19C 3665   3.511   2.408   5.850  0.5163  0.0066 -0.5511
   34CHL1    C1 3666   3.795   2.410   5.845  0.2921 -0.5558  0.7471
   34CHL1   H1A 3667   3.813   2.326   5.775 -0.2970 -1.2413  1.3946
   34CHL1   H1B 3668   3.894   2.461   5.840 -0.6104  1.2959  0.8522
   34CHL1    C2 3669   3.762   2.368   5.986 -0.1547 -0.1848 -0.8238
   34CHL1   H2A 3670   3.840   2.300   6.026 -1.1571  0.1571  1.9049
   34CHL1   H2B 3671   3.669   2.307   5.989  0.2293 -0.7590 -0.3635
   34CHL1   C20 3672   3.746   2.645   5.083 -0.4996 -1.3257 -0.2658
   34CHL1   H20 3673   3.636   2.631   5.081 -0.8879  1.1983  0.7745
   34CHL1   C21 3674   3.817   2.507   5.042  0.4195 -0.0319 -0.8359
   34CHL1  H21A 3675   3.926   2.519   5.058  0.3376 -0.6203  0.2674
   34CHL1  H21B 3676   3.782   2.469   4.944 -2.1030  0.1893 -0.0900
   34CHL1  H21C 3677   3.787   2.440   5.126  1.0721 -0.6533 -1.0952
   34CHL1   C22 3678   3.764   2.748   4.971  0.1511 -0.0353 -0.0381
   34CHL1  H22A 3679   3.692   2.829   4.996  0.4319 -0.1658  1.2972
   34CHL1  H22B 3680   3.865   2.791   4.986  0.5420 -0.7944 -0.4178
   34CHL1   C23 3681   3.735   2.698   4.826 -0.0584 -0.6867  0.0472
   34CHL1  H23A 3682   3.736   2.770   4.742 -0.0639 -1.5485 -0.7132
   34CHL1  H23B 3683   3.812   2.624   4.797  0.0624  0.2758 -2.2767
   34CHL1   C24 3684   3.592   2.630   4.813 -0.7905 -0.1279 -0.8662
   34CHL1  H24A 3685   3.569   2.551   4.888 -1.5267  1.8017  1.0074
   34CHL1  H24B 3686   3.520   2.714   4.815  0.8592  1.3280  0.0790
   34CHL1   C25 3687   3.557   2.560   4.673  0.2832  0.6120  0.1922
   34CHL1   H25 3688   3.642   2.492   4.648 -1.1830 -1.5867  0.9288
   34CHL1   C26 3689   3.437   2.465   4.686 -0.1144  0.4810 -0.2884
   34CHL1  H26A 3690   3.405   2.431   4.585 -0.6879  2.1810 -0.7173
   34CHL1  H26B 3691   3.465   2.384   4.757 -0.2378  0.1672 -0.5953
   34CHL1  H26C 3692   3.352   2.529   4.719  1.7447  3.2573 -0.5807
   34CHL1   C27 3693   3.537   2.659   4.556 -0.5905 -0.0806 -0.6558
   34CHL1  H27A 3694   3.629   2.715   4.530 -0.7946  0.3023 -0.5503
   34CHL1  H27B 3695   3.493   2.608   4.467 -1.7096 -0.0008 -0.1624
   34CHL1  H27C 3696   3.458   2.730   4.587  0.8294  1.2481  0.0176
   35CHL1    C3 3697   5.582   3.956   5.921 -0.0628  0.5551 -0.5236
   35CHL1    H3 3698   5.658   4.038   5.918 -0.4495  0.9080 -2.3336
   35CHL1    O3 3699   5.582   3.902   6.052  0.8953  0.7906  0.4219
   35CHL1   H3' 3700   5.575   3.978   6.110  2.0890  1.4698 -0.2788
   35CHL1    C4 3701   5.436   4.007   5.871  0.2659  0.3377  0.9671
   35CHL1   H4A 3702   5.373   3.918   5.892 -1.9872  1.2431 -1.4780
   35CHL1   H4B 3703   5.407   4.087   5.943 -0.6542  0.2246  0.7274
   35CHL1    C5 3704   5.427   4.041   5.725 -0.1281 -0.2443 -0.5884
   35CHL1    C6 3705   5.394   4.166   5.694  0.7463 -0.0752  1.2144
   35CHL1    H6 3706   5.346   4.224   5.774 -2.0163 -1.3032  0.5966
   35CHL1    C7 3707   5.381   4.225   5.555 -0.0338 -0.3848 -0.7067
   35CHL1   H7A 3708   5.277   4.264   5.553 -0.1429  0.0751  3.5901
   35CHL1   H7B 3709   5.456   4.307   5.560 -0.4536 -0.0431  0.0845
   35CHL1    C8 3710   5.414   4.120   5.443 -0.7705 -0.4736 -0.4628
   35CHL1    H8 3711   5.323   4.059   5.423  0.2533 -1.9689 -0.7161
   35CHL1   C14 3712   5.474   4.186   5.328  0.1042  0.2596  0.3737
   35CHL1   H14 3713   5.570   4.230   5.364  0.0877 -0.3291  1.1674
   35CHL1   C15 3714   5.399   4.305   5.265  0.2474 -0.0616 -0.6854
   35CHL1  H15A 3715   5.294   4.273   5.253 -0.1854  1.6360 -1.6359
   35CHL1  H15B 3716   5.398   4.401   5.320 -0.3908  1.0919 -2.6341
   35CHL1   C16 3717   5.472   4.333   5.132 -0.2798 -0.4795  0.1177
   35CHL1  H16A 3718   5.422   4.371   5.040 -0.7555  1.6478  1.2017
   35CHL1  H16B 3719   5.550   4.410   5.153 -1.5644  0.9876 -0.2873
   35CHL1   C17 3720   5.554   4.204   5.106 -0.2870  0.3209  0.5237
   35CHL1   H17 3721   5.658   4.218   5.143  0.2749  0.4980 -1.0073
   35CHL1   C13 3722   5.499   4.097   5.201 -0.2112 -0.4061  0.3613
   35CHL1   C18 3723   5.363   4.042   5.148  0.2448  0.6502  0.0341
   35CHL1  H18A 3724   5.285   4.116   5.121 -0.6437 -0.8681 -1.8035
   35CHL1  H18B 3725   5.387   3.969   5.067  2.2325  1.4419 -0.1576
   35CHL1  H18C 3726   5.303   3.991   5.226  0.7301  0.3881  0.2433
   35CHL1   C12 3727   5.590   3.983   5.240  0.0902 -0.1561 -0.5926
   35CHL1  H12A 3728   5.604   3.912   5.155 -1.8752  1.0026 -1.9700
   35CHL1  H12B 3729   5.690   4.028   5.256 -1.1304  2.3749  0.3850
   35CHL1   C11 3730   5.547   3.912   5.374  0.3254  0.7032  0.2437
   35CHL1  H11A 3731   5.454   3.854   5.354  0.8766  0.1024 -0.6692
   35CHL1  H11B 3732   5.627   3.838   5.398  0.9693  1.4635  0.5172
   35CHL1    C9 3733   5.512   4.008   5.495 -0.2063  0.4898 -0.1206
   35CHL1    H9 3734   5.611   4.056   5.510  0.9581 -2.0954  1.1345
   35CHL1   C10 3735   5.493   3.937   5.626  0.3205 -0.3379 -0.1665
   35CHL1   C19 3736   5.389   3.822   5.608 -0.0110 -0.3507  0.1261
   35CHL1  H19A 3737   5.418   3.740   5.539 -0.6101  0.3150 -0.9370
   35CHL1  H19B 3738   5.377   3.779   5.710  0.9132  0.0839  0.4297
   35CHL1  H19C 3739   5.294   3.871   5.579  0.2867 -0.5724 -1.3106
   35CHL1    C1 3740   5.623   3.882   5.684 -0.0188  0.3820  0.0505
   35CHL1   H1A 3741   5.647   3.794   5.621  0.8767  1.2790 -0.9126
   35CHL1   H1B 3742   5.701   3.957   5.658  0.3208 -0.2031 -0.6621
   35CHL1    C2 3743   5.623   3.844   5.831  0.0900  0.0047 -0.2662
   35CHL1   H2A 3744   5.726   3.812   5.857 -0.0551 -1.7174 -1.6322
   35CHL1   H2B 3745   5.555   3.759   5.851  0.3164 -1.3499 -4.2994
   35CHL1   C20 3746   5.563   4.156   4.956  0.0343  0.5819  0.2810
   35CHL1   H20 3747   5.564   4.045   4.955 -1.6485  0.5328  0.3031
   35CHL1   C21 3748   5.696   4.201   4.902  0.6438 -0.8367  0.1104
   35CHL1  H21A 3749   5.706   4.308   4.873 -2.2988 -0.3850  0.4623
   35CHL1  H21B 3750   5.713   4.155   4.802  1.3401  0.3683 -0.3451
   35CHL1  H21C 3751   5.784   4.158   4.954  1.8627  1.2160 -0.1613
   35CHL1   C22 3752   5.445   4.202   4.868  0.8504  0.1368  0.0900
   35CHL1  H22A 3753   5.354   4.194   4.932  0.8132 -0.3324 -0.0157
   35CHL1  H22B 3754   5.466   4.309   4.846  1.4585  0.2487  1.1443
   35CHL1   C23 3755   5.433   4.138   4.726 -0.8119 -0.5450  0.1953
   35CHL1  H23A 3756   5.343   4.187   4.685  0.4956  2.0893  0.2653
   35CHL1  H23B 3757   5.511   4.175   4.656 -0.9685  0.0916  0.3515
   35CHL1   C24 3758   5.418   3.985   4.727 -0.2805 -0.4832  0.4396
   35CHL1  H24A 3759   5.496   3.948   4.796  0.8237  0.2815 -0.3699
   35CHL1  H24B 3760   5.315   3.967   4.765 -1.3969  2.8107 -0.6334
   35CHL1   C25 3761   5.434   3.919   4.588 -0.1177 -0.3133 -0.4313
   35CHL1   H25 3762   5.461   3.814   4.614  0.6722  0.0681  0.3532
   35CHL1   C26 3763   5.299   3.902   4.514 -0.5054  1.0885 -0.3961
   35CHL1  H26A 3764   5.242   3.823   4.568  2.3294 -1.8122 -1.3384
   35CHL1  H26B 3765   5.239   3.995   4.521  1.3564  2.2622  0.7684
   35CHL1  H26C 3766   5.319   3.869   4.410  0.9621 -1.2441  0.5559
   35CHL1   C27 3767   5.541   3.979   4.503 -0.1336 -0.0744 -0.4520
   35CHL1  H27A 3768   5.558   3.906   4.422 -1.2655 -0.2437 -0.5550
   35CHL1  H27B 3769   5.513   4.081   4.470  2.9937  1.0735  0.0944
   35CHL1  H27C 3770   5.634   3.998   4.561 -1.4838  0.9190  1.5126
   36CHL1    C3 3771   2.256   3.566   6.127  0.7445 -0.4899  0.0871
   36CHL1    H3 3772   2.246   3.466   6.079 -0.9219  0.0615 -0.7666
   36CHL1    O3 3773   2.292   3.551   6.264  0.0053 -0.3449  0.1214
   36CHL1   H3' 3774   2.254   3.630   6.302 -0.6252  0.9002 -2.8798
   36CHL1    C4 3775   2.359   3.646   6.057  0.5831  0.2172  0.9248
   36CHL1   H4A 3776   2.362   3.754   6.082 -2.3914  0.9197 -1.2513
   36CHL1   H4B 3777   2.461   3.607   6.081  0.9630  0.6080 -0.0027
   36CHL1    C5 3778   2.317   3.643   5.907 -0.4172  0.4400 -0.0259
   36CHL1    C6 3779   2.400   3.589   5.816 -0.5843 -0.2524 -0.2509
   36CHL1    H6 3780   2.500   3.558   5.850 -0.2489  2.1195  1.1723
   36CHL1    C7 3781   2.368   3.568   5.672  0.3259 -0.3301  0.8653
   36CHL1   H7A 3782   2.457   3.603   5.615 -1.3852  2.0463 -0.5364
   36CHL1   H7B 3783   2.368   3.459   5.650  0.8947  0.1700 -2.0791
   36CHL1    C8 3784   2.235   3.640   5.627 -0.7432 -0.4301  0.0654
   36CHL1    H8 3785   2.259   3.748   5.613 -1.5504 -0.6172 -3.9150
   36CHL1   C14 3786   2.175   3.587   5.496  0.1772 -0.4117  0.0773
   36CHL1   H14 3787   2.144   3.485   5.527  2.0966 -0.7617  0.9778
   36CHL1   C15 3788   2.264   3.565   5.372 -0.3294 -0.6668  0.2754
   36CHL1  H15A 3789   2.336   3.648   5.357 -1.3510 -0.1378 -2.0685
   36CHL1  H15B 3790   2.323   3.472   5.390 -0.1076 -0.6018 -0.1082
   36CHL1   C16 3791   2.162   3.560   5.259 -0.8614 -0.2015  0.0519
   36CHL1  H16A 3792   2.179   3.652   5.200 -2.0498 -0.3486 -0.5414
   36CHL1  H16B 3793   2.183   3.462   5.211  4.6186 -1.4298  3.9426
   36CHL1   C17 3794   2.026   3.584   5.319 -0.2043  0.1416 -0.7215
   36CHL1   H17 3795   1.977   3.487   5.343  0.3378 -0.3616 -1.6144
   36CHL1   C13 3796   2.052   3.661   5.447 -0.6525  0.5539  0.1737
   36CHL1   C18 3797   2.099   3.805   5.417  0.0945 -0.6719 -0.0823
   36CHL1  H18A 3798   2.182   3.805   5.343 -2.1260 -0.4577 -2.7234
   36CHL1  H18B 3799   2.017   3.869   5.379  2.3284  1.0133 -2.4179
   36CHL1  H18C 3800   2.131   3.866   5.504 -1.3429  1.8061 -1.1753
   36CHL1   C12 3801   1.941   3.653   5.554 -0.1237  0.2980 -0.5287
   36CHL1  H12A 3802   1.856   3.712   5.514  0.3827 -0.7686 -3.3595
   36CHL1  H12B 3803   1.903   3.550   5.575  0.5794  0.1528  0.0692
   36CHL1   C11 3804   1.998   3.701   5.689 -0.2193 -0.1719  0.1734
   36CHL1  H11A 3805   2.011   3.809   5.671  2.1904 -0.3684  0.4782
   36CHL1  H11B 3806   1.917   3.696   5.766 -0.0386 -1.1572  0.3198
   36CHL1    C9 3807   2.129   3.638   5.735  0.4142  0.2105 -0.3792
   36CHL1    H9 3808   2.099   3.532   5.742  0.8759 -0.0722 -2.1845
   36CHL1   C10 3809   2.174   3.686   5.869 -0.1685  0.7457  0.6921
   36CHL1   C19 3810   2.174   3.842   5.870  0.0280  0.0973  0.9540
   36CHL1  H19A 3811   2.221   3.873   5.966  1.7552 -0.5089  0.3348
   36CHL1  H19B 3812   2.231   3.890   5.787 -0.3828 -0.3617  0.4007
   36CHL1  H19C 3813   2.072   3.886   5.870  0.1184  0.4410 -1.7068
   36CHL1    C1 3814   2.067   3.641   5.973  0.0088  0.6485 -0.5253
   36CHL1   H1A 3815   1.972   3.699   5.969 -0.4932  0.1722  2.4518
   36CHL1   H1B 3816   2.049   3.534   5.949 -0.5827  0.6281  0.0026
   36CHL1    C2 3817   2.121   3.636   6.117 -0.3285 -0.2125 -0.7046
   36CHL1   H2A 3818   2.045   3.592   6.184  1.2000  0.4095  1.5347
   36CHL1   H2B 3819   2.140   3.739   6.155 -1.6064 -0.7713  1.5992
   36CHL1   C20 3820   1.938   3.650   5.204  0.2507  0.0990 -0.6136
   36CHL1   H20 3821   1.987   3.747   5.183 -0.6870  0.3224 -1.9159
   36CHL1   C21 3822   1.800   3.685   5.251  0.8334  0.1484 -0.5126
   36CHL1  H21A 3823   1.804   3.767   5.327  1.1190 -0.9565  0.7057
   36CHL1  H21B 3824   1.758   3.600   5.309 -3.1235  1.0026 -1.8246
   36CHL1  H21C 3825   1.718   3.721   5.185 -1.1391  0.3907  1.9218
   36CHL1   C22 3826   1.923   3.562   5.079 -0.0416 -0.5959 -0.2304
   36CHL1  H22A 3827   2.012   3.507   5.041 -1.1990 -1.4619 -1.8167
   36CHL1  H22B 3828   1.845   3.486   5.099 -0.3603 -0.2390 -0.1129
   36CHL1   C23 3829   1.881   3.649   4.964  0.8089 -0.4216  0.5713
   36CHL1  H23A 3830   1.774   3.679   4.973 -0.1181 -2.4806 -2.0295
   36CHL1  H23B 3831   1.938   3.744   4.966  0.4254 -0.1939  0.6272
   36CHL1   C24 3832   1.889   3.581   4.828 -0.5033 -0.4482 -0.2028
   36CHL1  H24A 3833   1.902   3.661   4.751  0.2332  2.2941  2.5466
   36CHL1  H24B 3834   1.978   3.516   4.824  1.4083  2.0659 -1.7382
   36CHL1   C25 3835   1.772   3.499   4.780  0.7303  0.1224  0.3017
   36CHL1   H25 3836   1.693   3.573   4.755  1.3472  0.0567 -2.0384
   36CHL1   C26 3837   1.810   3.443   4.640 -0.1103  0.8916  0.2964
   36CHL1  H26A 3838   1.888   3.365   4.652  0.0156  1.0733  0.6553
   36CHL1  H26B 3839   1.724   3.396   4.587  1.2798 -1.2744 -0.1805
   36CHL1  H26C 3840   1.844   3.524   4.573  0.1117 -0.2359 -1.0124
   36CHL1   C27 3841   1.720   3.377   4.867 -0.4745 -0.4057  0.3224
   36CHL1  H27A 3842   1.813   3.334   4.910  0.8147  3.3662  1.7235
   36CHL1  H27B 3843   1.650   3.404   4.949 -2.8772  1.5285 -2.1522
   36CHL1  H27C 3844   1.661   3.308   4.803 -0.2725 -0.1359 -0.1630
   37CHL1    C3 3845   0.982   4.964   6.230  0.1078  0.2835  0.3183
   37CHL1    H3 3846   1.044   4.884   6.185 -0.6638  0.2723 -0.7517
   37CHL1    O3 3847   0.995   4.968   6.367  0.6050  0.4517 -0.8255
   37CHL1   H3' 3848   0.934   4.906   6.407 -0.1965  0.4870 -1.9470
   37CHL1    C4 3849   1.027   5.106   6.170  0.4963 -0.5544 -0.3387
   37CHL1   H4A 3850   0.960   5.183   6.212 -1.6264 -0.3255 -3.8377
   37CHL1   H4B 3851   1.129   5.133   6.208  0.4215  0.9880 -1.1652
   37CHL1    C5 3852   1.011   5.110   6.021 -0.1645  0.2328  0.4467
   37CHL1    C6 3853   1.113   5.149   5.939  0.5559 -0.1050  0.0808
   37CHL1    H6 3854   1.198   5.198   5.989 -1.1780  1.7367  1.3801
   37CHL1    C7 3855   1.118   5.132   5.794  0.5713 -1.0546 -0.1522
   37CHL1   H7A 3856   1.173   5.216   5.747  3.8899 -3.5278 -1.1376
   37CHL1   H7B 3857   1.169   5.040   5.758 -1.2689 -0.8817 -3.6588
   37CHL1    C8 3858   0.976   5.120   5.739 -0.8667  0.4745  0.0832
   37CHL1    H8 3859   0.923   5.217   5.752 -0.0485  0.6975  2.0792
   37CHL1   C14 3860   0.999   5.082   5.593 -0.1272  0.3992  1.0098
   37CHL1   H14 3861   1.044   4.981   5.595 -1.7985 -0.3735  3.4511
   37CHL1   C15 3862   1.101   5.156   5.501 -0.3755  0.1263  0.2990
   37CHL1  H15A 3863   1.081   5.265   5.501 -0.7260  0.1349 -2.5221
   37CHL1  H15B 3864   1.203   5.126   5.532  0.2980  0.7337 -1.2050
   37CHL1   C16 3865   1.071   5.101   5.356  0.2917  0.0444  0.3402
   37CHL1  H16A 3866   1.071   5.186   5.285 -1.8405 -0.8408 -0.7782
   37CHL1  H16B 3867   1.155   5.032   5.331 -0.7671 -0.9576 -0.5545
   37CHL1   C17 3868   0.939   5.018   5.371 -0.3175 -0.2350 -0.7605
   37CHL1   H17 3869   0.967   4.910   5.376  1.9140  0.1559 -2.8155
   37CHL1   C13 3870   0.874   5.054   5.512  0.2148 -0.1887 -0.2699
   37CHL1   C18 3871   0.792   5.189   5.506  0.1799  0.2835  0.0309
   37CHL1  H18A 3872   0.862   5.255   5.450  0.5865 -0.3301 -0.1975
   37CHL1  H18B 3873   0.698   5.177   5.448 -0.7633  0.2392  1.5317
   37CHL1  H18C 3874   0.772   5.237   5.604 -1.3347  2.9445 -1.4419
   37CHL1   C12 3875   0.800   4.943   5.583  0.1727 -0.2595 -0.1866
   37CHL1  H12A 3876   0.708   4.928   5.524  0.0815  0.8094 -0.3316
   37CHL1  H12B 3877   0.861   4.850   5.585  0.1875 -0.2458  0.0178
   37CHL1   C11 3878   0.765   4.971   5.735  0.4788 -0.3638 -0.6788
   37CHL1  H11A 3879   0.700   5.061   5.739  0.1546 -0.6174 -0.2686
   37CHL1  H11B 3880   0.715   4.882   5.778  0.8973 -0.2059  0.1698
   37CHL1    C9 3881   0.898   5.007   5.812 -0.1687  0.0901  0.1979
   37CHL1    H9 3882   0.967   4.920   5.805  1.3114  1.3256 -1.2734
   37CHL1   C10 3883   0.885   5.042   5.963  0.7420 -0.6440  0.6017
   37CHL1   C19 3884   0.764   5.142   5.975  0.8851  0.0970  0.4526
   37CHL1  H19A 3885   0.764   5.218   5.895  0.4779 -0.1826  0.1849
   37CHL1  H19B 3886   0.675   5.081   5.949  0.9363  0.5635 -0.8945
   37CHL1  H19C 3887   0.750   5.185   6.076  0.1122  1.5599 -0.2481
   37CHL1    C1 3888   0.836   4.915   6.048  0.4651  0.1390 -0.0539
   37CHL1   H1A 3889   0.731   4.890   6.025  0.6833  0.1677 -1.1127
   37CHL1   H1B 3890   0.901   4.831   6.017  0.9798  0.7872 -0.7672
   37CHL1    C2 3891   0.839   4.938   6.197 -0.2480  0.1363 -0.2120
   37CHL1   H2A 3892   0.796   4.842   6.234 -2.3207 -0.3858 -3.5709
   37CHL1   H2B 3893   0.772   5.024   6.219  0.3950  1.1879 -2.1536
   37CHL1   C20 3894   0.843   5.035   5.249  0.0861  0.1073 -0.2916
   37CHL1   H20 3895   0.825   5.144   5.237 -2.3190 -0.1568  0.4368
   37CHL1   C21 3896   0.709   4.960   5.266 -0.4435 -0.3759  0.1488
   37CHL1  H21A 3897   0.725   4.850   5.278 -0.2671 -1.0851 -4.7229
   37CHL1  H21B 3898   0.649   4.962   5.172  0.0886  2.7111 -0.2141
   37CHL1  H21C 3899   0.641   5.009   5.339  2.8359  1.2874  2.3341
   37CHL1   C22 3900   0.909   4.982   5.124  0.3493  0.2776 -0.3219
   37CHL1  H22A 3901   0.980   4.901   5.153 -2.3230 -1.8742  0.5608
   37CHL1  H22B 3902   0.829   4.932   5.066  0.9033 -0.6224 -0.3265
   37CHL1   C23 3903   0.977   5.099   5.046 -0.3242  0.1096  0.4197
   37CHL1  H23A 3904   0.942   5.200   5.073  2.1287  1.3995 -0.9251
   37CHL1  H23B 3905   1.078   5.103   5.091  0.2516 -1.7406 -0.5963
   37CHL1   C24 3906   0.987   5.083   4.894  0.1556 -0.3077 -0.3784
   37CHL1  H24A 3907   1.046   5.163   4.845  0.8637  0.0986  1.0797
   37CHL1  H24B 3908   1.046   4.990   4.879  0.8047  0.0768 -0.2412
   37CHL1   C25 3909   0.859   5.070   4.806 -0.4720 -0.6157 -0.1047
   37CHL1   H25 3910   0.791   4.988   4.835 -0.2346 -0.5121  0.7786
   37CHL1   C26 3911   0.783   5.209   4.814 -0.0880  0.4093  0.5223
   37CHL1  H26A 3912   0.678   5.200   4.779 -0.5728 -0.8112  2.1780
   37CHL1  H26B 3913   0.779   5.241   4.920 -3.0913 -1.8260  1.1961
   37CHL1  H26C 3914   0.840   5.276   4.746  0.8255 -1.7868 -0.9981
   37CHL1   C27 3915   0.910   5.038   4.672  0.9256 -0.5386  0.4175
   37CHL1  H27A 3916   0.822   5.012   4.609  2.1145 -1.0334 -1.1047
   37CHL1  H27B 3917   0.969   5.116   4.619  1.7333 -0.7050  1.0513
   37CHL1  H27C 3918   0.981   4.954   4.686 -0.8393 -1.8235  2.2857
   38CHL1    C3 3919   3.900   6.776   5.585  0.4093 -0.0878  0.2944
   38CHL1    H3 3920   3.969   6.860   5.561 -1.5797  1.3440 -0.7460
   38CHL1    O3 3921   3.885   6.774   5.726 -0.3853  0.1941  0.3926
   38CHL1   H3' 3922   3.976   6.753   5.747  0.0189  0.2139 -1.2059
   38CHL1    C4 3923   3.756   6.803   5.524  1.7111 -0.0928  0.4107
   38CHL1   H4A 3924   3.684   6.730   5.566 -1.6350  2.0801 -1.0599
   38CHL1   H4B 3925   3.725   6.907   5.549  1.6285  0.2028 -0.8726
   38CHL1    C5 3926   3.752   6.788   5.373  0.8211 -0.2997  0.1741
   38CHL1    C6 3927   3.714   6.884   5.287  0.6523 -0.3384  1.0415
   38CHL1    H6 3928   3.670   6.971   5.337 -0.2923 -1.2205  1.7848
   38CHL1    C7 3929   3.696   6.869   5.139 -0.2796 -0.4288  0.1787
   38CHL1   H7A 3930   3.602   6.911   5.098 -0.3149 -0.7087 -0.0300
   38CHL1   H7B 3931   3.777   6.928   5.090 -0.3611  0.2133  0.8086
   38CHL1    C8 3932   3.706   6.718   5.095  0.5140 -0.3222 -0.4816
   38CHL1    H8 3933   3.607   6.670   5.108 -0.1050  0.7309 -1.1971
   38CHL1   C14 3934   3.744   6.726   4.948 -0.1751  0.2215  0.2686
   38CHL1   H14 3935   3.846   6.768   4.931 -0.4265 -0.3168 -3.1737
   38CHL1   C15 3936   3.664   6.819   4.855  0.0408  0.6177 -0.5477
   38CHL1  H15A 3937   3.555   6.818   4.874 -0.8874 -1.9586 -4.7224
   38CHL1  H15B 3938   3.694   6.924   4.878  0.5896  0.1640  0.9409
   38CHL1   C16 3939   3.682   6.751   4.717 -0.1033  0.6809 -0.2358
   38CHL1  H16A 3940   3.577   6.722   4.694  0.1889 -1.4228  0.8176
   38CHL1  H16B 3941   3.728   6.826   4.651 -0.7067  1.8151  0.5934
   38CHL1   C17 3942   3.779   6.637   4.735 -0.5232 -0.1363  0.3144
   38CHL1   H17 3943   3.877   6.689   4.748 -0.8124 -0.0663  2.6768
   38CHL1   C13 3944   3.755   6.591   4.879  0.1049 -0.5299 -0.2183
   38CHL1   C18 3945   3.615   6.521   4.895  0.3716 -0.7461 -0.1505
   38CHL1  H18A 3946   3.612   6.429   4.833 -2.8055 -0.3785 -0.6937
   38CHL1  H18B 3947   3.580   6.501   4.998  0.8231 -0.7417  0.0051
   38CHL1  H18C 3948   3.535   6.586   4.853  0.6173 -0.6841 -0.5275
   38CHL1   C12 3949   3.866   6.509   4.951  0.9527  0.1210  0.9719
   38CHL1  H12A 3950   3.869   6.406   4.908  1.4593 -0.6821  2.8464
   38CHL1  H12B 3951   3.964   6.558   4.931  0.8245 -0.3093 -0.8708
   38CHL1   C11 3952   3.843   6.501   5.099  0.3723 -0.1674 -0.3269
   38CHL1  H11A 3953   3.754   6.441   5.124 -0.5372  0.8988 -0.8854
   38CHL1  H11B 3954   3.929   6.453   5.149 -1.2582 -1.9392  0.8974
   38CHL1    C9 3955   3.818   6.646   5.161  0.0466  0.4395  0.4957
   38CHL1    H9 3956   3.910   6.707   5.148 -0.5623  1.5172  1.0992
   38CHL1   C10 3957   3.806   6.655   5.316  0.2959 -0.7195 -0.7541
   38CHL1   C19 3958   3.698   6.561   5.362  0.4375  0.2681 -0.5256
   38CHL1  H19A 3959   3.595   6.599   5.340 -0.2522 -1.2252 -0.0070
   38CHL1  H19B 3960   3.706   6.461   5.316  0.1958 -0.1236  0.2719
   38CHL1  H19C 3961   3.697   6.546   5.472  1.0220  1.8611 -0.2691
   38CHL1    C1 3962   3.944   6.621   5.386  0.0692 -0.2595  0.0670
   38CHL1   H1A 3963   3.973   6.517   5.362 -0.3121  0.1335 -2.2589
   38CHL1   H1B 3964   4.024   6.691   5.354  1.2378 -1.2514  0.7655
   38CHL1    C2 3965   3.949   6.640   5.543  0.2581  0.9440 -0.6342
   38CHL1   H2A 3966   4.057   6.626   5.567  0.6891  0.0943 -2.8208
   38CHL1   H2B 3967   3.885   6.560   5.586 -1.3378  2.4982 -0.0235
   38CHL1   C20 3968   3.785   6.530   4.622  0.4633 -0.3536  0.0404
   38CHL1   H20 3969   3.787   6.428   4.665  0.6328  0.8079  3.0320
   38CHL1   C21 3970   3.922   6.543   4.552 -0.5108 -0.1511 -0.4276
   38CHL1  H21A 3971   3.929   6.463   4.475 -0.9313  1.4214 -2.1979
   38CHL1  H21B 3972   4.009   6.530   4.619 -0.1735 -0.8543 -0.9823
   38CHL1  H21C 3973   3.940   6.642   4.504 -1.0488  0.7075  1.0859
   38CHL1   C22 3974   3.667   6.541   4.524  0.1657 -0.1130 -0.3652
   38CHL1  H22A 3975   3.575   6.520   4.582  1.2268  0.1539  1.5230
   38CHL1  H22B 3976   3.655   6.646   4.489 -3.7254  0.1528  1.2206
   38CHL1   C23 3977   3.661   6.445   4.405 -0.3845 -0.1312 -0.2137
   38CHL1  H23A 3978   3.743   6.466   4.332 -1.1695 -0.8718 -1.3572
   38CHL1  H23B 3979   3.686   6.347   4.451  0.4895  0.8145  1.4109
   38CHL1   C24 3980   3.524   6.425   4.340 -0.0565  0.3068 -0.0571
   38CHL1  H24A 3981   3.473   6.363   4.417  0.1440 -0.7747 -0.7689
   38CHL1  H24B 3982   3.477   6.523   4.322  1.8582  1.9065  2.7977
   38CHL1   C25 3983   3.531   6.339   4.213 -0.0159  0.7784  0.1208
   38CHL1   H25 3984   3.429   6.305   4.184  0.0342 -1.3787  2.1481
   38CHL1   C26 3985   3.595   6.425   4.103 -0.2594 -0.3299 -0.5881
   38CHL1  H26A 3986   3.629   6.368   4.013  0.4479  1.0718 -1.2426
   38CHL1  H26B 3987   3.535   6.515   4.081 -0.0457 -0.0718 -0.1283
   38CHL1  H26C 3988   3.690   6.469   4.140 -0.6343  1.6325 -1.8167
   38CHL1   C27 3989   3.616   6.207   4.231  0.4378  0.4824 -0.3576
   38CHL1  H27A 3990   3.582   6.144   4.316  0.8795  0.6160 -0.0812
   38CHL1  H27B 3991   3.596   6.146   4.140 -1.5496  2.2826 -1.2152
   38CHL1  H27C 3992   3.724   6.233   4.236  0.7835 -1.1148  1.5177
   39CHL1    C3 3993   4.312   1.545   6.271 -0.6934 -0.4987 -0.0097
   39CHL1    H3 3994   4.229   1.473   6.252  0.1768 -1.6357  0.4111
   39CHL1    O3 3995   4.343   1.560   6.408 -0.1380  0.9581 -0.0264
   39CHL1   H3' 3996   4.391   1.643   6.410  0.7992  0.4348 -0.1353
   39CHL1    C4 3997   4.443   1.513   6.196 -0.2266 -0.4200 -0.3921
   39CHL1   H4A 3998   4.516   1.579   6.247 -1.0341 -0.8941  1.4912
   39CHL1   H4B 3999   4.466   1.412   6.236 -0.4715  0.4823  2.2518
   39CHL1    C5 4000   4.427   1.532   6.047  0.1250  0.4106 -0.5603
   39CHL1    C6 4001   4.448   1.440   5.956  0.2315 -0.1664 -0.3320
   39CHL1    H6 4002   4.477   1.337   5.984 -0.8436 -1.0627 -2.3027
   39CHL1    C7 4003   4.446   1.450   5.806  0.0486  0.0735 -0.3282
   39CHL1   H7A 4004   4.538   1.402   5.768 -1.3861 -1.3450 -2.1526
   39CHL1   H7B 4005   4.352   1.410   5.763  0.7060 -4.0016  1.5650
   39CHL1    C8 4006   4.455   1.599   5.767  0.1948  0.1703 -0.4986
   39CHL1    H8 4007   4.558   1.622   5.803  1.0687 -2.7523 -0.8989
   39CHL1   C14 4008   4.428   1.617   5.619  0.0917 -0.7489 -0.6659
   39CHL1   H14 4009   4.322   1.588   5.603 -0.6456  1.9331 -1.0086
   39CHL1   C15 4010   4.521   1.541   5.523  0.0646  0.5365  0.2965
   39CHL1  H15A 4011   4.629   1.534   5.547 -0.0705  0.3225  0.8765
   39CHL1  H15B 4012   4.484   1.436   5.527 -0.0793  0.5526 -0.4292
   39CHL1   C16 4013   4.497   1.612   5.391 -0.6508  0.6272 -0.0806
   39CHL1  H16A 4014   4.598   1.637   5.352 -0.1683  2.3261  2.0529
   39CHL1  H16B 4015   4.443   1.543   5.323  0.7050 -0.9794  0.3776
   39CHL1   C17 4016   4.419   1.747   5.422 -0.4977 -0.1403 -0.6161
   39CHL1   H17 4017   4.311   1.726   5.408 -0.4997 -1.3785  0.8912
   39CHL1   C13 4018   4.438   1.765   5.571 -0.4493 -0.4172  0.5878
   39CHL1   C18 4019   4.580   1.826   5.600 -0.2247  0.2321  0.9408
   39CHL1  H18A 4020   4.603   1.800   5.705  0.6196 -4.2261 -0.1556
   39CHL1  H18B 4021   4.654   1.782   5.529 -1.1306  1.0596 -0.5888
   39CHL1  H18C 4022   4.590   1.935   5.581 -0.4357 -0.0224 -0.8867
   39CHL1   C12 4023   4.327   1.849   5.644  0.1344  0.2176 -0.7576
   39CHL1  H12A 4024   4.307   1.952   5.605  0.1414  0.5488  0.0945
   39CHL1  H12B 4025   4.235   1.792   5.619  0.5645 -0.3281 -1.1116
   39CHL1   C11 4026   4.340   1.836   5.792  0.5902 -0.6572  0.2568
   39CHL1  H11A 4027   4.431   1.884   5.836  1.2572 -2.1233  0.5295
   39CHL1  H11B 4028   4.253   1.884   5.840  1.2588 -1.5076  2.4382
   39CHL1    C9 4029   4.355   1.682   5.848 -0.5200 -0.7930 -0.5858
   39CHL1    H9 4030   4.256   1.637   5.828 -0.3718 -0.6875 -1.5892
   39CHL1   C10 4031   4.380   1.673   6.005 -0.0504 -0.3228  0.0011
   39CHL1   C19 4032   4.487   1.777   6.050  0.0608  0.1950  0.0431
   39CHL1  H19A 4033   4.574   1.786   5.982  0.5131  1.4783  0.7552
   39CHL1  H19B 4034   4.427   1.871   6.045 -1.6010 -0.8610 -2.9735
   39CHL1  H19C 4035   4.523   1.766   6.154 -1.3613 -0.4846  0.4918
   39CHL1    C1 4036   4.247   1.697   6.073 -0.0312  0.0189 -0.5699
   39CHL1   H1A 4037   4.211   1.794   6.032  2.1439  0.9892 -0.3109
   39CHL1   H1B 4038   4.173   1.627   6.028  0.2377  0.1984 -1.3037
   39CHL1    C2 4039   4.253   1.681   6.227 -0.0915 -0.2348 -0.1840
   39CHL1   H2A 4040   4.150   1.683   6.269  0.0746  1.7061  0.2148
   39CHL1   H2B 4041   4.297   1.766   6.283 -1.5782  0.0622  0.5966
   39CHL1   C20 4042   4.445   1.857   5.319 -0.1608 -0.2720 -0.7276
   39CHL1   H20 4043   4.553   1.882   5.327 -0.5994  1.3282  0.8751
   39CHL1   C21 4044   4.364   1.985   5.348  0.0244 -0.2747 -0.5133
   39CHL1  H21A 4045   4.261   1.976   5.388  0.1236  0.1629 -0.1389
   39CHL1  H21B 4046   4.342   2.043   5.256 -2.8883 -0.3559  0.0462
   39CHL1  H21C 4047   4.431   2.038   5.420  0.1109  1.8181 -2.0335
   39CHL1   C22 4048   4.431   1.809   5.172 -0.3913 -0.0783  0.1242
   39CHL1  H22A 4049   4.487   1.713   5.163 -1.1032 -0.4242 -0.7525
   39CHL1  H22B 4050   4.326   1.780   5.153 -0.5254  0.3426  0.2106
   39CHL1   C23 4051   4.468   1.908   5.063  0.4275 -0.4694 -0.4800
   39CHL1  H23A 4052   4.397   1.994   5.060 -0.7959 -1.4142  0.2765
   39CHL1  H23B 4053   4.569   1.946   5.092 -0.5086 -0.2111  2.8384
   39CHL1   C24 4054   4.466   1.865   4.915 -0.8979  0.2092 -0.3123
   39CHL1  H24A 4055   4.517   1.766   4.912 -0.7629  0.1543  1.9092
   39CHL1  H24B 4056   4.364   1.865   4.872 -0.4212  1.2425 -1.5115
   39CHL1   C25 4057   4.544   1.975   4.837  0.4116  0.5858  0.0453
   39CHL1   H25 4058   4.548   2.067   4.900 -0.5767 -0.1886  1.3067
   39CHL1   C26 4059   4.694   1.938   4.818  0.4159  0.6599 -0.9207
   39CHL1  H26A 4060   4.749   1.925   4.914 -1.2172 -0.4255 -0.0922
   39CHL1  H26B 4061   4.699   1.844   4.760 -1.4584  1.8610 -3.2147
   39CHL1  H26C 4062   4.744   2.008   4.747  1.6358 -1.5152 -2.3198
   39CHL1   C27 4063   4.469   2.012   4.712  0.0863 -0.3257 -0.4075
   39CHL1  H27A 4064   4.375   2.060   4.749 -1.1056 -2.5142 -0.4586
   39CHL1  H27B 4065   4.525   2.085   4.650  0.7333 -0.3063  0.1753
   39CHL1  H27C 4066   4.440   1.928   4.647  0.0156  2.0667 -3.7057
   40CHL1    C3 4067   2.894   3.724   6.122  0.5683 -0.3628 -0.0615
   40CHL1    H3 4068   2.914   3.616   6.138 -0.2797 -0.5829 -0.4238
   40CHL1    O3 4069   2.813   3.756   6.236  0.0930  0.2401 -0.2891
   40CHL1   H3' 4070   2.786   3.844   6.212  1.4929  0.1808 -2.2324
   40CHL1    C4 4071   3.021   3.811   6.118  0.8157 -0.1860 -0.2806
   40CHL1   H4A 4072   2.995   3.919   6.121 -0.4712 -0.4765 -0.4867
   40CHL1   H4B 4073   3.087   3.792   6.205  0.0674 -0.9422  0.1404
   40CHL1    C5 4074   3.091   3.786   5.987 -0.0534 -0.1176  0.3279
   40CHL1    C6 4075   3.223   3.758   5.995 -0.2535  0.2622  0.7626
   40CHL1    H6 4076   3.271   3.752   6.094  3.7698 -0.9275 -1.0507
   40CHL1    C7 4077   3.306   3.734   5.870 -0.6595  0.7888  0.1031
   40CHL1   H7A 4078   3.410   3.771   5.882 -0.0607 -1.1403  1.2679
   40CHL1   H7B 4079   3.315   3.625   5.851  1.0441  0.9276 -0.0165
   40CHL1    C8 4080   3.254   3.798   5.740  0.1625 -1.2242 -0.2501
   40CHL1    H8 4081   3.269   3.907   5.753  2.0574 -1.2679 -1.7327
   40CHL1   C14 4082   3.326   3.739   5.630  0.1277 -0.6934  0.2564
   40CHL1   H14 4083   3.314   3.630   5.647  1.3950 -0.8233  0.4196
   40CHL1   C15 4084   3.479   3.748   5.632 -0.0913  0.3620  0.0112
   40CHL1  H15A 4085   3.520   3.848   5.657  1.0697 -0.5815  2.2042
   40CHL1  H15B 4086   3.527   3.680   5.706 -0.3049  1.0814  0.8352
   40CHL1   C16 4087   3.518   3.718   5.487  0.2114  0.2999  0.0358
   40CHL1  H16A 4088   3.579   3.801   5.445  0.6313  0.2966  0.6326
   40CHL1  H16B 4089   3.570   3.621   5.480 -1.5598 -0.7469  0.5603
   40CHL1   C17 4090   3.385   3.702   5.409 -0.0659  0.4522  0.1489
   40CHL1   H17 4091   3.360   3.594   5.422  2.8153 -0.2556  0.4340
   40CHL1   C13 4092   3.279   3.774   5.488 -0.3918  0.0504  0.2323
   40CHL1   C18 4093   3.285   3.927   5.479 -0.8299 -0.2253 -0.1248
   40CHL1  H18A 4094   3.388   3.969   5.490 -0.9945  0.8432 -2.1840
   40CHL1  H18B 4095   3.247   3.944   5.376  0.1379 -0.6781 -0.5744
   40CHL1  H18C 4096   3.221   3.981   5.551 -1.3261 -0.8232 -0.1117
   40CHL1   C12 4097   3.133   3.723   5.478 -0.9143 -0.4748  0.3870
   40CHL1  H12A 4098   3.089   3.739   5.377 -0.4640  1.9916  0.5208
   40CHL1  H12B 4099   3.135   3.613   5.493 -0.4442 -0.7295 -1.2913
   40CHL1   C11 4100   3.039   3.783   5.582 -0.2418 -0.0117 -0.5711
   40CHL1  H11A 4101   3.020   3.889   5.556 -0.3333  0.2329  0.4426
   40CHL1  H11B 4102   2.940   3.733   5.568 -0.1432 -0.0283 -1.2604
   40CHL1    C9 4103   3.106   3.763   5.725 -0.3190 -0.0832 -0.8024
   40CHL1    H9 4104   3.097   3.653   5.739 -0.5474  0.1231  0.8564
   40CHL1   C10 4105   3.022   3.809   5.854  0.3196 -0.7230  0.6531
   40CHL1   C19 4106   2.973   3.953   5.831  0.3922 -0.2293 -0.6060
   40CHL1  H19A 4107   3.060   4.018   5.807 -0.3791  1.3673  0.7114
   40CHL1  H19B 4108   2.904   3.963   5.745  0.3580  0.9372 -0.4504
   40CHL1  H19C 4109   2.923   3.999   5.919 -0.0695 -0.4948 -0.7312
   40CHL1    C1 4110   2.896   3.715   5.870  0.2778  0.6363 -0.6706
   40CHL1   H1A 4111   2.825   3.735   5.787 -1.9741  0.9845  1.2284
   40CHL1   H1B 4112   2.924   3.608   5.863  0.8073  0.6151  1.3178
   40CHL1    C2 4113   2.811   3.746   6.001 -0.2481  0.4198 -0.1776
   40CHL1   H2A 4114   2.727   3.673   5.998 -1.1067  1.2883  1.2618
   40CHL1   H2B 4115   2.780   3.852   5.990 -0.0109  0.5491  0.3790
   40CHL1   C20 4116   3.397   3.723   5.254  0.9876  0.3015  0.4423
   40CHL1   H20 4117   3.294   3.720   5.212  0.7051 -0.1127  1.1505
   40CHL1   C21 4118   3.472   3.593   5.210 -0.1073  0.7450  0.0932
   40CHL1  H21A 4119   3.578   3.596   5.244 -0.1892  3.6788  0.3801
   40CHL1  H21B 4120   3.465   3.580   5.100  2.9864 -2.9837  0.1323
   40CHL1  H21C 4121   3.421   3.502   5.248 -0.0847  1.2160  1.2992
   40CHL1   C22 4122   3.463   3.844   5.201  0.0878 -0.3049  0.3721
   40CHL1  H22A 4123   3.426   3.944   5.231 -0.8418 -0.2878 -0.7921
   40CHL1  H22B 4124   3.572   3.844   5.221  0.3222  2.1233 -0.6527
   40CHL1   C23 4125   3.451   3.859   5.049 -0.2201  0.5314 -0.2578
   40CHL1  H23A 4126   3.499   3.772   5.000 -0.6485  1.0240 -1.5963
   40CHL1  H23B 4127   3.345   3.860   5.018 -0.5873  1.5488  0.9506
   40CHL1   C24 4128   3.534   3.972   4.989 -0.0705  0.1688  0.5188
   40CHL1  H24A 4129   3.511   4.066   5.043  1.9842  0.2704  1.3087
   40CHL1  H24B 4130   3.644   3.962   5.003 -0.2501 -0.6288  1.4543
   40CHL1   C25 4131   3.521   3.972   4.834  0.0474 -0.5372  0.2978
   40CHL1   H25 4132   3.416   3.956   4.802 -0.1598 -0.6874  1.0537
   40CHL1   C26 4133   3.559   4.118   4.795  0.1406 -0.2881  0.4842
   40CHL1  H26A 4134   3.553   4.122   4.684 -1.9597  2.3801  0.5899
   40CHL1  H26B 4135   3.478   4.184   4.832 -1.2192 -0.7886 -1.4197
   40CHL1  H26C 4136   3.660   4.141   4.835 -0.2743  0.5961  1.0449
   40CHL1   C27 4137   3.617   3.868   4.764  1.2998  0.0261 -0.1824
   40CHL1  H27A 4138   3.574   3.855   4.663  0.4416  0.4465  0.1222
   40CHL1  H27B 4139   3.721   3.907   4.753  0.4696  2.5067  0.0903
   40CHL1  H27C 4140   3.620   3.767   4.811  1.6193  0.9289  1.8766
   41CHL1    C3 4141   1.338   4.819   6.212  1.2554 -0.5015 -0.2456
   41CHL1    H3 4142   1.267   4.899   6.184  0.7682 -1.1599 -0.9014
   41CHL1    O3 4143   1.359   4.823   6.353 -0.5844 -0.3651  0.6721
   41CHL1   H3' 4144   1.402   4.905   6.379  0.8526 -1.3706  1.6972
   41CHL1    C4 4145   1.289   4.677   6.178 -0.7600  0.1888  0.6874
   41CHL1   H4A 4146   1.374   4.607   6.188 -2.1735 -1.7613 -0.3686
   41CHL1   H4B 4147   1.214   4.651   6.256  0.8933 -1.3279  1.8369
   41CHL1    C5 4148   1.257   4.666   6.033 -0.0932 -0.3221 -0.4950
   41CHL1    C6 4149   1.132   4.631   5.995 -0.3571 -0.2259  0.0873
   41CHL1    H6 4150   1.060   4.617   6.076 -0.1596  0.8833  0.4646
   41CHL1    C7 4151   1.085   4.622   5.847 -0.2855 -0.3074 -0.8704
   41CHL1   H7A 4152   1.017   4.535   5.829  3.6476 -4.1041  0.7479
   41CHL1   H7B 4153   1.028   4.715   5.830 -2.3678 -1.4856 -0.6894
   41CHL1    C8 4154   1.207   4.620   5.747 -0.5974 -0.8823 -0.4398
   41CHL1    H8 4155   1.250   4.517   5.752  0.0235 -0.5786  3.3933
   41CHL1   C14 4156   1.163   4.651   5.609 -0.7170 -0.0909 -1.0821
   41CHL1   H14 4157   1.133   4.758   5.608  3.4993  1.3015 -0.3843
   41CHL1   C15 4158   1.043   4.573   5.555 -1.0559 -0.2584  0.2323
   41CHL1  H15A 4159   1.048   4.463   5.553 -1.2255 -0.3056  1.5910
   41CHL1  H15B 4160   0.944   4.587   5.603 -1.3178  0.4856 -0.4897
   41CHL1   C16 4161   1.040   4.619   5.412  0.0157 -0.1784  0.3226
   41CHL1  H16A 4162   1.005   4.546   5.337  0.5833  1.1307 -1.2775
   41CHL1  H16B 4163   0.968   4.703   5.402  1.2705  1.0952  1.4579
   41CHL1   C17 4164   1.187   4.668   5.373  0.5494  0.0508  0.2250
   41CHL1   H17 4165   1.189   4.779   5.370  0.3798  0.1128  1.6420
   41CHL1   C13 4166   1.270   4.642   5.496  0.0822  0.1388 -0.8118
   41CHL1   C18 4167   1.330   4.497   5.490 -0.2769  0.2198  0.2842
   41CHL1  H18A 4168   1.250   4.422   5.475  2.9535 -3.9423  1.8355
   41CHL1  H18B 4169   1.391   4.496   5.397 -0.8025 -2.3175 -0.0968
   41CHL1  H18C 4170   1.392   4.473   5.579 -1.7427  3.2726  2.2952
   41CHL1   C12 4171   1.378   4.746   5.535 -0.5128  0.1562 -0.8722
   41CHL1  H12A 4172   1.462   4.737   5.463  1.4618  0.2633  1.2915
   41CHL1  H12B 4173   1.335   4.847   5.525  1.4438  1.0615 -0.7373
   41CHL1   C11 4174   1.432   4.728   5.681  0.2258  0.2672 -0.0917
   41CHL1  H11A 4175   1.489   4.633   5.678  1.8710  1.2198 -0.9190
   41CHL1  H11B 4176   1.503   4.811   5.702 -0.3198  1.1213 -1.4966
   41CHL1    C9 4177   1.321   4.721   5.790  0.1517 -0.0772  0.5155
   41CHL1    H9 4178   1.275   4.823   5.792 -1.1163 -0.6361  2.1001
   41CHL1   C10 4179   1.374   4.704   5.935  1.1592 -0.0996 -0.4355
   41CHL1   C19 4180   1.469   4.583   5.941  0.6654  0.4187 -0.1356
   41CHL1  H19A 4181   1.557   4.582   5.873  1.9059 -0.3979  1.3974
   41CHL1  H19B 4182   1.502   4.561   6.045 -0.4126  2.1520  0.6145
   41CHL1  H19C 4183   1.412   4.495   5.903 -2.0515  1.8385  0.4242
   41CHL1    C1 4184   1.442   4.845   5.989  0.4651 -0.2493  0.8275
   41CHL1   H1A 4185   1.541   4.845   5.937  0.5643  1.5590  0.9777
   41CHL1   H1B 4186   1.374   4.928   5.962  0.3959 -0.0076  1.7305
   41CHL1    C2 4187   1.468   4.853   6.140  0.9179 -0.6698 -0.3842
   41CHL1   H2A 4188   1.500   4.953   6.176 -2.1742  0.0231  0.7214
   41CHL1   H2B 4189   1.548   4.782   6.171  0.1243 -1.4708 -0.1400
   41CHL1   C20 4190   1.223   4.622   5.233 -0.1239  0.2583  0.8834
   41CHL1   H20 4191   1.215   4.512   5.237 -0.6831  0.2978  0.9468
   41CHL1   C21 4192   1.364   4.687   5.189  0.3137  0.1416  0.2884
   41CHL1  H21A 4193   1.370   4.668   5.080 -0.7612  1.8349 -0.0987
   41CHL1  H21B 4194   1.441   4.631   5.246  0.9174  0.7087  0.0390
   41CHL1  H21C 4195   1.369   4.796   5.206 -0.0880  0.3563 -0.8995
   41CHL1   C22 4196   1.123   4.661   5.120 -0.0746 -0.6031 -0.2016
   41CHL1  H22A 4197   1.017   4.649   5.149  0.2487  0.5068  1.5685
   41CHL1  H22B 4198   1.128   4.771   5.102 -0.4380 -0.0240  2.7928
   41CHL1   C23 4199   1.140   4.597   4.981 -0.2111  0.7361 -0.1719
   41CHL1  H23A 4200   1.235   4.627   4.930 -0.6934  1.1864 -0.8169
   41CHL1  H23B 4201   1.145   4.486   4.990 -1.5639  0.5332 -1.5439
   41CHL1   C24 4202   1.020   4.629   4.895  0.4983  0.5651  0.3651
   41CHL1  H24A 4203   0.934   4.574   4.939 -0.6437  2.6344  0.8590
   41CHL1  H24B 4204   0.992   4.737   4.896  0.2298  0.5266  2.7628
   41CHL1   C25 4205   1.050   4.568   4.752 -0.4090 -0.1090  0.6470
   41CHL1   H25 4206   1.112   4.476   4.762 -0.0167  0.1177  0.3312
   41CHL1   C26 4207   0.921   4.538   4.677  0.8788  0.6863  0.4647
   41CHL1  H26A 4208   0.937   4.477   4.585 -3.3093  0.3699 -0.2477
   41CHL1  H26B 4209   0.841   4.483   4.731 -0.1982  1.5378 -0.2294
   41CHL1  H26C 4210   0.871   4.629   4.638  1.6361  0.2176 -1.7561
   41CHL1   C27 4211   1.141   4.658   4.663  0.1271 -0.4207 -0.6026
   41CHL1  H27A 4212   1.174   4.603   4.572  1.8019  0.2470 -0.4224
   41CHL1  H27B 4213   1.082   4.748   4.636 -1.3701 -1.1440  0.1476
   41CHL1  H27C 4214   1.239   4.686   4.707 -0.1256 -2.4704  1.3999
   42CHL1    C3 4215   6.488   1.443   5.959 -0.3751 -0.5904  0.2473
   42CHL1    H3 4216   6.571   1.515   5.941  0.0706 -0.6271  1.9917
   42CHL1    O3 4217   6.466   1.432   6.097  0.1712 -0.0772 -0.4370
   42CHL1   H3' 4218   6.517   1.492   6.151 -2.0447 -1.9591  4.4299
   42CHL1    C4 4219   6.356   1.497   5.908  0.3462 -0.2488  0.3154
   42CHL1   H4A 4220   6.268   1.431   5.920  0.5840 -0.3640  1.6589
   42CHL1   H4B 4221   6.320   1.590   5.958 -2.6606 -1.0766 -0.1561
   42CHL1    C5 4222   6.353   1.506   5.759  0.6010 -1.0865 -0.1222
   42CHL1    C6 4223   6.337   1.632   5.707  1.0244 -0.3252 -0.0834
   42CHL1    H6 4224   6.301   1.705   5.782  0.8443 -0.8549  0.3574
   42CHL1    C7 4225   6.344   1.671   5.559 -0.1249  0.1097 -0.2384
   42CHL1   H7A 4226   6.264   1.745   5.539 -2.0248 -2.0482 -0.9412
   42CHL1   H7B 4227   6.446   1.713   5.539  0.3635 -1.3135 -0.8159
   42CHL1    C8 4228   6.328   1.545   5.472 -0.6371 -0.1123 -0.0157
   42CHL1    H8 4229   6.222   1.516   5.485 -0.6998 -0.5837 -1.3661
   42CHL1   C14 4230   6.360   1.571   5.324 -0.3810  0.2141 -0.4972
   42CHL1   H14 4231   6.465   1.607   5.320 -0.2914  0.5653  2.6815
   42CHL1   C15 4232   6.281   1.688   5.262 -0.5058 -0.2728  0.4214
   42CHL1  H15A 4233   6.174   1.677   5.288 -0.8045  0.9710 -0.2069
   42CHL1  H15B 4234   6.309   1.783   5.312 -0.4808 -1.9320  3.8322
   42CHL1   C16 4235   6.309   1.667   5.108  0.1841  0.0100  0.3376
   42CHL1  H16A 4236   6.208   1.663   5.063  0.3266  0.9436 -0.0803
   42CHL1  H16B 4237   6.359   1.755   5.062  1.8356 -0.0498  1.8989
   42CHL1   C17 4238   6.379   1.526   5.101  0.4164 -0.2158  0.1583
   42CHL1   H17 4239   6.487   1.551   5.107  0.2425  1.1680 -1.6327
   42CHL1   C13 4240   6.343   1.447   5.234 -0.0412  0.5001  0.8092
   42CHL1   C18 4241   6.195   1.395   5.235 -0.5851 -0.5720 -0.0099
   42CHL1  H18A 4242   6.168   1.375   5.341 -1.6418 -1.0351 -0.3590
   42CHL1  H18B 4243   6.124   1.474   5.201  1.1118  2.0553  2.0671
   42CHL1  H18C 4244   6.185   1.305   5.172  0.1809 -0.4231 -0.3524
   42CHL1   C12 4245   6.445   1.343   5.283 -0.4245 -0.2585  0.0683
   42CHL1  H12A 4246   6.439   1.250   5.224 -1.8526 -0.3609  0.3301
   42CHL1  H12B 4247   6.542   1.397   5.275 -0.2800 -0.0567  2.3569
   42CHL1   C11 4248   6.415   1.301   5.428  0.6116  0.4672 -0.0339
   42CHL1  H11A 4249   6.316   1.251   5.423  2.0029 -2.4717 -0.3352
   42CHL1  H11B 4250   6.487   1.237   5.482 -1.0912  0.2471  2.1070
   42CHL1    C9 4251   6.414   1.421   5.516 -0.5898 -0.4338 -0.1306
   42CHL1    H9 4252   6.516   1.464   5.515 -1.2573  1.1977 -0.7019
   42CHL1   C10 4253   6.399   1.389   5.670 -0.0298  0.5467  0.8848
   42CHL1   C19 4254   6.280   1.286   5.674 -0.5128 -0.0825 -0.7603
   42CHL1  H19A 4255   6.192   1.300   5.608 -0.1704 -0.5957 -1.3286
   42CHL1  H19B 4256   6.322   1.188   5.643  0.4680 -0.2368  0.9299
   42CHL1  H19C 4257   6.244   1.271   5.778  2.0474  1.0038  0.3698
   42CHL1    C1 4258   6.525   1.334   5.732  0.2450  0.6175 -0.0359
   42CHL1   H1A 4259   6.543   1.240   5.677 -1.9847  1.2100 -1.9121
   42CHL1   H1B 4260   6.602   1.410   5.709 -0.6431  1.1967 -1.1589
   42CHL1    C2 4261   6.525   1.317   5.884 -0.2281  0.2653 -0.0667
   42CHL1   H2A 4262   6.626   1.278   5.908 -1.1890 -2.4060 -0.0704
   42CHL1   H2B 4263   6.460   1.236   5.922  0.2143  0.1011  0.3507
   42CHL1   C20 4264   6.360   1.450   4.965 -0.2824 -0.6158  0.0492
   42CHL1   H20 4265   6.395   1.346   4.984 -0.8105 -0.8033 -0.0080
   42CHL1   C21 4266   6.455   1.530   4.876 -0.3175  0.4974  0.1182
   42CHL1  H21A 4267   6.559   1.514   4.911 -0.5014 -2.5030 -0.4582
   42CHL1  H21B 4268   6.432   1.639   4.869 -0.3758  0.6057  1.5984
   42CHL1  H21C 4269   6.463   1.483   4.776 -1.3856  0.4335  0.0483
   42CHL1   C22 4270   6.224   1.454   4.910  0.6876 -0.3696 -0.1337
   42CHL1  H22A 4271   6.146   1.415   4.978  1.0917 -1.7142 -0.3988
   42CHL1  H22B 4272   6.186   1.554   4.880  2.9665  0.0277 -2.0487
   42CHL1   C23 4273   6.191   1.367   4.785 -0.3039 -0.5245  0.1017
   42CHL1  H23A 4274   6.085   1.390   4.762  0.3654  0.8407 -1.9602
   42CHL1  H23B 4275   6.242   1.411   4.696  1.4160 -1.6945  0.4643
   42CHL1   C24 4276   6.222   1.221   4.811  0.8650  0.0086  0.2269
   42CHL1  H24A 4277   6.332   1.214   4.824  0.8376  0.8473  0.9701
   42CHL1  H24B 4278   6.163   1.187   4.899 -2.3116  3.0346 -0.5449
   42CHL1   C25 4279   6.208   1.121   4.694  0.1778  0.4423  0.0048
   42CHL1   H25 4280   6.289   1.130   4.618  1.1275 -2.0842  0.6362
   42CHL1   C26 4281   6.206   0.971   4.741  0.0944 -0.3549 -0.0816
   42CHL1  H26A 4282   6.215   0.908   4.650  3.2696  0.6207 -0.5741
   42CHL1  H26B 4283   6.304   0.952   4.790  1.0180 -2.4718 -2.5267
   42CHL1  H26C 4284   6.116   0.938   4.796 -0.7134  1.8467  0.0255
   42CHL1   C27 4285   6.069   1.142   4.625  0.2836  0.3585  0.0121
   42CHL1  H27A 4286   5.988   1.154   4.700 -0.6517  0.2572 -0.9618
   42CHL1  H27B 4287   6.072   1.237   4.567 -0.5837 -0.6336 -1.7375
   42CHL1  H27C 4288   6.043   1.063   4.551 -0.7179  1.7123 -1.1212
   43CHL1    C3 4289   0.055   0.851   5.894  0.0604 -0.4389  0.1800
   43CHL1    H3 4290   0.142   0.782   5.905 -0.7470 -1.3747  0.7988
   43CHL1    O3 4291  -0.022   0.861   6.011  0.1507 -0.1206 -0.0725
   43CHL1   H3' 4292  -0.018   0.771   6.043 -0.4915  0.0960  0.6480
   43CHL1    C4 4293   0.107   0.993   5.857  0.0690 -0.0070 -0.1836
   43CHL1   H4A 4294   0.018   1.058   5.875 -0.4923 -0.3731 -1.5394
   43CHL1   H4B 4295   0.184   1.020   5.932  0.3703 -0.1737 -0.4322
   43CHL1    C5 4296   0.151   1.013   5.719 -0.2486 -0.1016  0.3053
   43CHL1    C6 4297   0.265   1.076   5.689  0.8425 -0.3961 -0.7915
   43CHL1    H6 4298   0.325   1.109   5.775  0.0168  0.9280 -0.6975
   43CHL1    C7 4299   0.319   1.093   5.548  0.9190  0.1123 -0.4461
   43CHL1   H7A 4300   0.363   1.193   5.528  1.8864 -0.0890  0.5605
   43CHL1   H7B 4301   0.400   1.018   5.538  1.7625  0.9169  0.1621
   43CHL1    C8 4302   0.212   1.065   5.447  0.2742  0.1169  0.7843
   43CHL1    H8 4303   0.145   1.154   5.448 -0.8551 -0.6567 -1.2060
   43CHL1   C14 4304   0.267   1.053   5.299  0.0410  0.2430  0.4583
   43CHL1   H14 4305   0.334   0.964   5.297 -0.6338 -0.2611 -0.0389
   43CHL1   C15 4306   0.370   1.158   5.258 -0.0234  0.8842 -0.0047
   43CHL1  H15A 4307   0.338   1.254   5.303 -0.8820  0.9263 -0.6712
   43CHL1  H15B 4308   0.473   1.136   5.292 -0.8557 -0.0704  2.0402
   43CHL1   C16 4309   0.352   1.163   5.104  0.2338 -0.4588  0.2445
   43CHL1  H16A 4310   0.294   1.255   5.081  2.1586  1.2529  1.8483
   43CHL1  H16B 4311   0.444   1.148   5.045  1.1161  1.1619  1.1249
   43CHL1   C17 4312   0.251   1.048   5.068  0.0072 -0.5980 -0.3834
   43CHL1   H17 4313   0.308   0.953   5.056 -2.3023 -1.8404 -2.3819
   43CHL1   C13 4314   0.160   1.027   5.198  0.8399  0.2587  0.2090
   43CHL1   C18 4315   0.050   1.142   5.197  0.0963  0.3335 -0.1469
   43CHL1  H18A 4316   0.012   1.167   5.298  0.8188 -0.7758  0.4166
   43CHL1  H18B 4317   0.104   1.234   5.166  0.8154  0.0445  0.2342
   43CHL1  H18C 4318  -0.028   1.101   5.129 -1.2030 -1.3936  2.2508
   43CHL1   C12 4319   0.104   0.886   5.222 -0.2731 -0.7768 -0.4482
   43CHL1  H12A 4320   0.025   0.854   5.151  0.1785 -1.5729 -0.6123
   43CHL1  H12B 4321   0.190   0.817   5.213 -0.5926 -1.1109 -1.0234
   43CHL1   C11 4322   0.040   0.883   5.364 -0.2462  0.2462  0.3296
   43CHL1  H11A 4323  -0.063   0.923   5.365 -0.8906 -1.3237  1.7850
   43CHL1  H11B 4324   0.014   0.777   5.384  0.0917 -0.1625 -1.2616
   43CHL1    C9 4325   0.129   0.937   5.477  0.4322  0.3193  0.0834
   43CHL1    H9 4326   0.210   0.862   5.487  0.1300  0.0252  0.3202
   43CHL1   C10 4327   0.066   0.945   5.608  0.5234 -0.5014  0.5267
   43CHL1   C19 4328  -0.058   1.035   5.602  0.4138  0.2980 -0.2144
   43CHL1  H19A 4329  -0.038   1.139   5.566 -2.2162  0.7595 -0.5146
   43CHL1  H19B 4330  -0.137   0.996   5.535 -0.3311  2.7464 -0.8707
   43CHL1  H19C 4331  -0.100   1.044   5.704  0.1818 -2.2481 -0.0359
   43CHL1    C1 4332   0.028   0.802   5.648  0.7290 -0.4175 -0.6185
   43CHL1   H1A 4333  -0.049   0.754   5.583  0.9006  0.3426 -1.4032
   43CHL1   H1B 4334   0.123   0.744   5.645  1.6147  0.9197  0.4525
   43CHL1    C2 4335  -0.035   0.795   5.786  0.1262 -0.1179 -0.5853
   43CHL1   H2A 4336  -0.060   0.688   5.800  0.6900 -0.3499 -1.3598
   43CHL1   H2B 4337  -0.128   0.857   5.781  1.6603  2.2998 -0.6789
   43CHL1   C20 4338   0.190   1.068   4.928 -0.0133  0.7733  0.4028
   43CHL1   H20 4339   0.117   1.151   4.933 -1.7349 -0.7162  1.5571
   43CHL1   C21 4340   0.107   0.942   4.897  0.5678  0.3202  0.1263
   43CHL1  H21A 4341   0.006   0.958   4.941  0.5781  0.7891 -0.0089
   43CHL1  H21B 4342   0.163   0.852   4.930  0.4472  0.1126 -0.2267
   43CHL1  H21C 4343   0.101   0.933   4.786  0.4568 -0.0081  0.1578
   43CHL1   C22 4344   0.294   1.090   4.818  0.1732  0.1874 -0.4040
   43CHL1  H22A 4345   0.359   1.176   4.843 -0.5674  0.5633  0.2507
   43CHL1  H22B 4346   0.352   0.996   4.806  0.9962  0.4412  1.3177
   43CHL1   C23 4347   0.236   1.136   4.674 -0.4892 -0.0365 -0.7595
   43CHL1  H23A 4348   0.164   1.064   4.630 -0.1654 -0.3791 -0.7331
   43CHL1  H23B 4349   0.173   1.227   4.679 -1.5466 -0.7792 -0.2735
   43CHL1   C24 4350   0.345   1.171   4.576 -0.3933 -0.3841 -0.4608
   43CHL1  H24A 4351   0.414   1.257   4.591 -2.0166  1.5185 -2.9869
   43CHL1  H24B 4352   0.401   1.075   4.573 -1.1955 -0.9612  1.3285
   43CHL1   C25 4353   0.294   1.196   4.435 -0.4277 -0.4583  0.2035
   43CHL1   H25 4354   0.226   1.116   4.399  1.3684 -2.8517  1.8101
   43CHL1   C26 4355   0.232   1.335   4.404  0.0239 -0.1890  0.2449
   43CHL1  H26A 4356   0.181   1.374   4.495 -1.7922  0.1758 -0.8879
   43CHL1  H26B 4357   0.306   1.414   4.378 -0.1983  0.5146  1.6721
   43CHL1  H26C 4358   0.154   1.330   4.326 -0.3394  1.1660  0.4895
   43CHL1   C27 4359   0.412   1.177   4.336  0.7894  0.1838 -0.1772
   43CHL1  H27A 4360   0.387   1.237   4.246  1.6454  1.1686  0.2206
   43CHL1  H27B 4361   0.506   1.218   4.378  1.2702 -0.7597 -0.3058
   43CHL1  H27C 4362   0.432   1.071   4.308  2.0566  0.6233 -1.0381
   44CHL1    C3 4363   1.739   1.116   5.787  0.6850  0.0028 -0.4191
   44CHL1    H3 4364   1.715   1.224   5.795 -0.0310 -0.2242  0.8386
   44CHL1    O3 4365   1.730   1.072   5.921 -0.5065  0.4775  0.5681
   44CHL1   H3' 4366   1.805   1.012   5.934 -0.9701 -0.1008  0.6106
   44CHL1    C4 4367   1.633   1.034   5.702 -0.5467 -0.3545 -0.0189
   44CHL1   H4A 4368   1.667   0.930   5.722  0.4287  0.1140  0.8069
   44CHL1   H4B 4369   1.533   1.046   5.750 -0.6150  0.6936 -0.3995
   44CHL1    C5 4370   1.627   1.078   5.555 -0.4358  0.4489 -0.0715
   44CHL1    C6 4371   1.517   1.118   5.488 -0.0969  1.0162 -0.6460
   44CHL1    H6 4372   1.422   1.129   5.543  0.5945 -0.7289  1.0133
   44CHL1    C7 4373   1.518   1.153   5.342 -0.2985  0.0612 -0.3189
   44CHL1   H7A 4374   1.434   1.100   5.293  0.0945 -0.1996 -0.7294
   44CHL1   H7B 4375   1.513   1.264   5.330 -1.6316  0.0686  0.1598
   44CHL1    C8 4376   1.643   1.104   5.269 -0.0988 -0.2027 -0.1385
   44CHL1    H8 4377   1.635   0.996   5.245  2.4738 -0.6425  0.7508
   44CHL1   C14 4378   1.659   1.155   5.136  0.5950  0.3961 -0.1326
   44CHL1   H14 4379   1.675   1.263   5.157  0.0625  0.5328 -0.4061
   44CHL1   C15 4380   1.536   1.149   5.049  0.4769  0.0469 -1.1359
   44CHL1  H15A 4381   1.478   1.054   5.060  0.9188  0.0626  2.4108
   44CHL1  H15B 4382   1.471   1.234   5.077  2.4325  1.3355 -0.2707
   44CHL1   C16 4383   1.588   1.163   4.903  0.2425  0.0870 -0.6855
   44CHL1  H16A 4384   1.566   1.068   4.849  1.2662 -1.0948  0.8868
   44CHL1  H16B 4385   1.533   1.247   4.857 -0.5692 -1.2484 -2.2587
   44CHL1   C17 4386   1.742   1.173   4.919 -0.3888 -1.0987 -0.2290
   44CHL1   H17 4387   1.762   1.281   4.942  1.9957 -1.5914  0.3448
   44CHL1   C13 4388   1.777   1.099   5.053 -0.1633  0.2875 -0.3023
   44CHL1   C18 4389   1.764   0.948   5.031 -0.4702 -0.5211 -0.4040
   44CHL1  H18A 4390   1.666   0.920   4.987  0.0382 -1.9562 -0.6794
   44CHL1  H18B 4391   1.843   0.908   4.965  0.4083 -0.2154  0.4414
   44CHL1  H18C 4392   1.763   0.899   5.131 -3.1705 -4.0307 -1.9340
   44CHL1   C12 4393   1.903   1.142   5.123 -0.3399 -0.2787  0.2669
   44CHL1  H12A 4394   1.997   1.124   5.066 -0.5438  1.4465 -0.6961
   44CHL1  H12B 4395   1.897   1.253   5.134 -0.1603 -0.1971 -0.3708
   44CHL1   C11 4396   1.906   1.089   5.263  0.1135 -0.1505 -0.3155
   44CHL1  H11A 4397   1.916   0.979   5.253 -1.6786 -0.7125  2.9273
   44CHL1  H11B 4398   1.994   1.124   5.321 -0.5253  0.0920  0.5273
   44CHL1    C9 4399   1.777   1.131   5.347  0.1670 -0.8660 -0.0318
   44CHL1    H9 4400   1.780   1.240   5.369  0.1429 -0.9053  0.1698
   44CHL1   C10 4401   1.767   1.064   5.488  0.2841 -0.5607  0.6269
   44CHL1   C19 4402   1.789   0.916   5.466  0.5761 -0.4433 -0.1840
   44CHL1  H19A 4403   1.720   0.873   5.390 -1.3211 -0.5275  1.4848
   44CHL1  H19B 4404   1.897   0.900   5.446  1.0311 -0.7802  2.1862
   44CHL1  H19C 4405   1.775   0.856   5.559  0.7319  1.5716  1.2079
   44CHL1    C1 4406   1.874   1.129   5.580 -0.3290 -0.6832  0.1389
   44CHL1   H1A 4407   1.976   1.099   5.546 -0.1044  0.6068 -0.3667
   44CHL1   H1B 4408   1.866   1.240   5.579 -0.2991 -0.6016  2.5988
   44CHL1    C2 4409   1.870   1.086   5.731  0.7246  0.3734 -0.4880
   44CHL1   H2A 4410   1.948   1.129   5.797 -0.0996  0.7594  0.2599
   44CHL1   H2B 4411   1.882   0.976   5.741 -1.5720  0.2010  1.2691
   44CHL1   C20 4412   1.810   1.149   4.784  0.3886 -0.3596 -0.4230
   44CHL1   H20 4413   1.771   1.051   4.748  0.4230 -0.6399  0.2935
   44CHL1   C21 4414   1.961   1.134   4.801  0.7999  0.4694 -0.5276
   44CHL1  H21A 4415   2.005   1.122   4.700 -2.4664  1.6332 -2.2206
   44CHL1  H21B 4416   1.973   1.032   4.846 -0.6210  0.0910 -0.9583
   44CHL1  H21C 4417   2.004   1.210   4.869  1.9611 -2.4248  2.2413
   44CHL1   C22 4418   1.767   1.256   4.669  0.1931  0.1577 -0.4943
   44CHL1  H22A 4419   1.657   1.250   4.652  0.1031 -1.0263  0.4317
   44CHL1  H22B 4420   1.793   1.353   4.718 -1.5711  0.8580 -0.8658
   44CHL1   C23 4421   1.819   1.229   4.522  0.1038 -0.5949 -0.7792
   44CHL1  H23A 4422   1.930   1.226   4.511  0.4485 -0.7540  2.0294
   44CHL1  H23B 4423   1.785   1.131   4.482 -0.3234 -1.5190  1.7324
   44CHL1   C24 4424   1.755   1.330   4.430 -0.5595  1.1725  0.3597
   44CHL1  H24A 4425   1.646   1.313   4.425 -0.4012 -0.2769  1.1875
   44CHL1  H24B 4426   1.770   1.434   4.465  1.2421  0.7639  0.9448
   44CHL1   C25 4427   1.816   1.327   4.283  0.1606  0.0456  0.0138
   44CHL1   H25 4428   1.925   1.348   4.282 -0.3415  3.0320 -1.9296
   44CHL1   C26 4429   1.779   1.186   4.213 -0.2008 -0.7080  0.5561
   44CHL1  H26A 4430   1.671   1.158   4.212 -0.8404  1.0349 -3.9230
   44CHL1  H26B 4431   1.820   1.197   4.110  3.6151 -0.2332  1.9572
   44CHL1  H26C 4432   1.841   1.111   4.266  2.0664  0.9355  0.3495
   44CHL1   C27 4433   1.760   1.448   4.209  0.3249 -0.5707  0.2886
   44CHL1  H27A 4434   1.649   1.446   4.203  0.3257 -0.3662  0.1968
   44CHL1  H27B 4435   1.805   1.539   4.255  0.9071 -1.3816  1.3663
   44CHL1  H27C 4436   1.790   1.439   4.102 -1.7558 -1.0129 -0.2970
   45CHL1    C3 4437   1.360   2.290   6.102 -0.6267  0.1941  0.5785
   45CHL1    H3 4438   1.307   2.388   6.113 -0.8697  0.2027 -0.5167
   45CHL1    O3 4439   1.372   2.240   6.233 -0.4806 -0.0780 -0.6601
   45CHL1   H3' 4440   1.449   2.182   6.232 -0.5862 -0.3051  1.2356
   45CHL1    C4 4441   1.276   2.187   6.033 -0.3815 -0.3770 -0.7648
   45CHL1   H4A 4442   1.344   2.100   6.040 -1.7268 -1.3398  0.9648
   45CHL1   H4B 4443   1.188   2.157   6.093  2.2867  0.2580  3.9876
   45CHL1    C5 4444   1.252   2.218   5.889 -0.0211  0.1310  0.4884
   45CHL1    C6 4445   1.126   2.228   5.848  0.1368 -0.2520 -0.1471
   45CHL1    H6 4446   1.043   2.205   5.917 -0.1468  0.6019 -0.1982
   45CHL1    C7 4447   1.096   2.263   5.707  0.0057 -0.8100 -0.0664
   45CHL1   H7A 4448   1.017   2.193   5.673 -1.4606  1.0776 -0.6688
   45CHL1   H7B 4449   1.053   2.365   5.705  1.1287 -0.2593  1.5721
   45CHL1    C8 4450   1.216   2.253   5.609  0.9405 -0.1114  0.1652
   45CHL1    H8 4451   1.229   2.146   5.581 -2.0357  0.1171 -2.6524
   45CHL1   C14 4452   1.187   2.326   5.477  0.6424  0.2060 -0.5485
   45CHL1   H14 4453   1.184   2.435   5.500 -2.0417  0.0303  0.2504
   45CHL1   C15 4454   1.052   2.312   5.408  0.2792 -0.2209 -0.0815
   45CHL1  H15A 4455   1.025   2.205   5.419  0.6750 -0.1003  2.8187
   45CHL1  H15B 4456   0.984   2.383   5.460 -0.4685 -0.0141 -1.2984
   45CHL1   C16 4457   1.071   2.349   5.265  0.2119  0.0781  0.7696
   45CHL1  H16A 4458   1.048   2.281   5.181  1.3332  1.2980 -0.5781
   45CHL1  H16B 4459   0.997   2.428   5.238 -0.9497 -1.3789 -0.4680
   45CHL1   C17 4460   1.222   2.401   5.253  0.2398  0.5453  0.7578
   45CHL1   H17 4461   1.223   2.507   5.287  2.3525  0.2360  1.7765
   45CHL1   C13 4462   1.294   2.314   5.366 -0.1929  0.5525  0.7323
   45CHL1   C18 4463   1.313   2.170   5.315 -0.2070  0.1178  0.6164
   45CHL1  H18A 4464   1.333   2.108   5.406 -1.8405  2.2770  2.5727
   45CHL1  H18B 4465   1.223   2.132   5.262  0.1143 -1.3843  1.0941
   45CHL1  H18C 4466   1.395   2.163   5.241  1.7053  0.8937  2.5635
   45CHL1   C12 4467   1.426   2.366   5.432 -0.7011  0.4893  0.2245
   45CHL1  H12A 4468   1.503   2.338   5.357 -2.6107 -2.5134 -0.7883
   45CHL1  H12B 4469   1.425   2.475   5.454  1.8389  0.2373  1.9977
   45CHL1   C11 4470   1.460   2.292   5.563 -1.4439 -0.1659  0.4578
   45CHL1  H11A 4471   1.486   2.189   5.531 -2.0926 -0.5778  1.1910
   45CHL1  H11B 4472   1.552   2.336   5.607 -0.8057  0.7937 -1.7199
   45CHL1    C9 4473   1.347   2.298   5.665  1.0201  0.7606 -0.0574
   45CHL1    H9 4474   1.340   2.407   5.687  0.1123  0.5938  0.5551
   45CHL1   C10 4475   1.384   2.239   5.806  0.5560  0.0714 -0.0560
   45CHL1   C19 4476   1.451   2.104   5.774  0.5153 -0.4485 -0.7223
   45CHL1  H19A 4477   1.551   2.127   5.732 -0.3921  2.1688 -1.6382
   45CHL1  H19B 4478   1.471   2.048   5.868  3.9992 -1.6684 -2.0599
   45CHL1  H19C 4479   1.382   2.032   5.724 -2.1118 -0.1606  2.1745
   45CHL1    C1 4480   1.477   2.335   5.881 -0.3344  0.2132 -0.1380
   45CHL1   H1A 4481   1.572   2.336   5.824 -0.4108  1.7136 -0.2715
   45CHL1   H1B 4482   1.430   2.435   5.875 -1.0331 -0.0069  1.1593
   45CHL1    C2 4483   1.498   2.305   6.037 -0.4030  0.1237 -0.1475
   45CHL1   H2A 4484   1.567   2.382   6.078 -0.2672 -1.4018  2.7689
   45CHL1   H2B 4485   1.566   2.217   6.045  1.4234  1.4106 -0.9037
   45CHL1   C20 4486   1.269   2.393   5.109 -1.1603 -0.4923 -0.3846
   45CHL1   H20 4487   1.294   2.289   5.080 -0.6776 -0.9909  1.6671
   45CHL1   C21 4488   1.389   2.491   5.099 -0.0200 -0.5123  0.0630
   45CHL1  H21A 4489   1.438   2.473   5.197 -0.0880 -0.3157  0.1340
   45CHL1  H21B 4490   1.366   2.600   5.091 -0.1749 -0.5328  0.2289
   45CHL1  H21C 4491   1.458   2.469   5.016  1.1129  0.7821  0.6282
   45CHL1   C22 4492   1.161   2.439   5.009 -0.1303  0.2661  0.2521
   45CHL1  H22A 4493   1.082   2.362   4.999  1.2595 -1.0233 -1.8607
   45CHL1  H22B 4494   1.122   2.533   5.052 -2.2024 -2.0125  3.8011
   45CHL1   C23 4495   1.204   2.467   4.867  0.1995  0.3855  0.0902
   45CHL1  H23A 4496   1.257   2.561   4.843  0.8735 -0.1124 -0.4043
   45CHL1  H23B 4497   1.272   2.387   4.833 -1.3611 -0.5522 -0.9570
   45CHL1   C24 4498   1.075   2.460   4.778  0.4737 -0.0827 -0.5923
   45CHL1  H24A 4499   1.022   2.364   4.793 -1.3829  1.0877  0.7595
   45CHL1  H24B 4500   1.003   2.537   4.813  0.1438 -0.3923 -0.5872
   45CHL1   C25 4501   1.093   2.481   4.627  0.0930 -0.1017 -0.3123
   45CHL1   H25 4502   1.115   2.588   4.603 -0.3322 -0.1561 -0.9685
   45CHL1   C26 4503   1.206   2.391   4.569  0.0488 -0.4077  0.1397
   45CHL1  H26A 4504   1.186   2.285   4.596 -0.2840 -0.4176 -0.1320
   45CHL1  H26B 4505   1.200   2.382   4.458  1.6506 -2.2578  0.1557
   45CHL1  H26C 4506   1.302   2.412   4.620 -0.8613  0.7095  1.4728
   45CHL1   C27 4507   0.963   2.456   4.555  0.6054  0.7275  0.5740
   45CHL1  H27A 4508   0.959   2.346   4.538 -0.8679  1.0631 -1.6766
   45CHL1  H27B 4509   0.868   2.492   4.600  0.7319  0.9805  0.6372
   45CHL1  H27C 4510   0.970   2.488   4.449  2.8374 -2.0252 -0.2496
   46CHL1    C3 4511   3.141   6.849   5.852  0.0356 -0.7327  0.1690
   46CHL1    H3 4512   3.034   6.873   5.838  0.3637  0.2210 -0.9126
   46CHL1    O3 4513   3.181   6.856   5.987 -0.2795  0.4734  0.1534
   46CHL1   H3' 4514   3.158   6.771   6.026 -0.6523  0.4187 -0.1830
   46CHL1    C4 4515   3.159   6.704   5.804 -0.0295 -0.3534 -0.7182
   46CHL1   H4A 4516   3.262   6.675   5.832  0.7604  1.1677 -1.9032
   46CHL1   H4B 4517   3.092   6.638   5.864 -1.1923  2.3729  1.1680
   46CHL1    C5 4518   3.134   6.683   5.651 -0.1684 -0.4612 -0.3171
   46CHL1    C6 4519   3.032   6.609   5.605 -0.1785  0.3559 -0.1344
   46CHL1    H6 4520   2.962   6.564   5.678  0.3246 -0.2008  0.0185
   46CHL1    C7 4521   3.002   6.600   5.463 -0.7336  0.4414 -0.2864
   46CHL1   H7A 4522   2.980   6.493   5.443  3.0866 -0.5796  0.3338
   46CHL1   H7B 4523   2.910   6.660   5.441 -1.6986 -0.3497  1.4279
   46CHL1    C8 4524   3.120   6.640   5.371 -0.1249 -0.0781 -0.3178
   46CHL1    H8 4525   3.209   6.574   5.383  1.4138  2.2846  2.5932
   46CHL1   C14 4526   3.080   6.649   5.222  0.2778 -0.2608  0.8159
   46CHL1   H14 4527   3.000   6.726   5.226 -0.3232 -0.8820  0.8927
   46CHL1   C15 4528   3.004   6.529   5.155 -0.5027 -0.2493  0.2505
   46CHL1  H15A 4529   3.052   6.434   5.186  0.5457 -0.4238 -1.7507
   46CHL1  H15B 4530   2.897   6.519   5.182 -0.6049  0.3165  0.0846
   46CHL1   C16 4531   3.019   6.556   5.004 -0.2420 -0.2451 -0.1867
   46CHL1  H16A 4532   3.081   6.467   4.980  1.9136  0.2338  2.9864
   46CHL1  H16B 4533   2.920   6.558   4.953 -0.7164  1.2641  0.7394
   46CHL1   C17 4534   3.103   6.693   4.984 -0.0186  0.2336 -0.7756
   46CHL1   H17 4535   3.025   6.772   4.994 -1.9382 -1.7533  0.9387
   46CHL1   C13 4536   3.186   6.699   5.121 -1.0203 -0.1013  0.1246
   46CHL1   C18 4537   3.296   6.595   5.115 -0.1974  0.1501  0.1229
   46CHL1  H18A 4538   3.367   6.601   5.200 -0.3464  0.7573  0.2078
   46CHL1  H18B 4539   3.269   6.488   5.099  1.3542 -0.5960  2.1064
   46CHL1  H18C 4540   3.358   6.614   5.024 -1.0900  0.4691 -0.4382
   46CHL1   C12 4541   3.246   6.829   5.163 -1.4021 -0.1039  0.3831
   46CHL1  H12A 4542   3.337   6.849   5.102 -0.0788 -3.1646  1.1585
   46CHL1  H12B 4543   3.177   6.914   5.147 -0.0935  0.7620 -0.9952
   46CHL1   C11 4544   3.285   6.823   5.310 -0.2098 -0.6428 -0.4663
   46CHL1  H11A 4545   3.364   6.748   5.331  0.9827  1.1444  1.8128
   46CHL1  H11B 4546   3.324   6.923   5.337 -1.2725 -0.6186  1.0765
   46CHL1    C9 4547   3.172   6.775   5.416  0.0130  0.0216  0.3580
   46CHL1    H9 4548   3.102   6.856   5.385  1.5335  0.5106 -2.1913
   46CHL1   C10 4549   3.222   6.779   5.564  0.1177  0.2675 -0.8599
   46CHL1   C19 4550   3.372   6.735   5.571  0.4027 -0.1152 -0.1019
   46CHL1  H19A 4551   3.429   6.824   5.536  1.2130 -0.8313 -0.6185
   46CHL1  H19B 4552   3.401   6.717   5.676 -1.9928  0.6557  0.7723
   46CHL1  H19C 4553   3.392   6.647   5.506 -0.3738 -0.1684 -0.2832
   46CHL1    C1 4554   3.208   6.921   5.617 -0.1925  0.8094 -0.2159
   46CHL1   H1A 4555   3.271   6.993   5.562 -1.2853  1.1197 -1.1159
   46CHL1   H1B 4556   3.104   6.955   5.595 -0.3879 -0.2099 -0.9736
   46CHL1    C2 4557   3.230   6.939   5.769  0.6108 -0.1258  0.1474
   46CHL1   H2A 4558   3.214   7.047   5.790 -0.7329 -0.2205 -0.2813
   46CHL1   H2B 4559   3.335   6.910   5.789  0.9284  0.8758 -0.0188
   46CHL1   C20 4560   3.170   6.696   4.851  0.0269  0.2308 -0.4083
   46CHL1   H20 4561   3.245   6.614   4.843  0.2909  0.4199  0.0925
   46CHL1   C21 4562   3.248   6.830   4.821  0.4172 -0.5442 -0.0577
   46CHL1  H21A 4563   3.167   6.906   4.816  0.4607 -0.4281  0.7995
   46CHL1  H21B 4564   3.310   6.821   4.729  1.1383 -1.0683  0.4716
   46CHL1  H21C 4565   3.318   6.856   4.903 -1.2613  1.1035  0.9444
   46CHL1   C22 4566   3.076   6.673   4.734  0.1264  0.7037  0.2499
   46CHL1  H22A 4567   3.012   6.584   4.748  1.2844  0.0406  1.6176
   46CHL1  H22B 4568   3.008   6.761   4.730 -0.5512  0.1252 -2.1771
   46CHL1   C23 4569   3.151   6.655   4.602 -0.0242 -0.1371  0.3099
   46CHL1  H23A 4570   3.206   6.749   4.578  0.6483 -0.2112  1.5263
   46CHL1  H23B 4571   3.216   6.565   4.609 -2.1152 -1.9024 -1.5022
   46CHL1   C24 4572   3.052   6.621   4.482 -0.4525 -0.4352 -0.8470
   46CHL1  H24A 4573   2.997   6.538   4.532  0.0427  0.3828  1.1299
   46CHL1  H24B 4574   2.989   6.711   4.464  0.7592  0.9582  1.4506
   46CHL1   C25 4575   3.119   6.585   4.350  0.0340  0.0553 -0.0790
   46CHL1   H25 4576   3.206   6.517   4.362  1.0891  1.2392 -0.7876
   46CHL1   C26 4577   3.017   6.507   4.257  0.0407 -0.5402 -0.4244
   46CHL1  H26A 4578   3.065   6.471   4.163 -0.5045 -1.1312 -0.4790
   46CHL1  H26B 4579   2.963   6.420   4.300 -2.3375 -0.8610 -3.7157
   46CHL1  H26C 4580   2.935   6.573   4.220  0.8812 -0.5963 -2.5419
   46CHL1   C27 4581   3.171   6.708   4.274  0.2491 -0.1047  0.1217
   46CHL1  H27A 4582   3.242   6.760   4.341  0.9317  1.1452 -1.5055
   46CHL1  H27B 4583   3.216   6.686   4.174  0.3088 -0.3846  0.2078
   46CHL1  H27C 4584   3.091   6.781   4.250  1.1553  1.7151  2.3237
   47CHL1    C3 4585   3.554   4.727   6.102 -0.2174 -0.9503 -0.3914
   47CHL1    H3 4586   3.571   4.618   6.085 -0.2802 -1.0856  0.3801
   47CHL1    O3 4587   3.567   4.755   6.244  0.1639  0.2028  0.1386
   47CHL1   H3' 4588   3.614   4.839   6.247 -0.1244  0.3373  0.9767
   47CHL1    C4 4589   3.654   4.814   6.022  0.2069 -0.3442 -1.1541
   47CHL1   H4A 4590   3.645   4.918   6.058  0.3296 -1.3682  2.2103
   47CHL1   H4B 4591   3.754   4.778   6.057 -0.7173 -2.3264 -0.4206
   47CHL1    C5 4592   3.623   4.796   5.871  0.3076 -0.0035  0.0614
   47CHL1    C6 4593   3.714   4.748   5.783 -0.1196  0.2955  0.4692
   47CHL1    H6 4594   3.810   4.714   5.822 -0.4705 -2.4856 -0.8687
   47CHL1    C7 4595   3.692   4.725   5.636  0.2714 -0.2258 -0.6876
   47CHL1   H7A 4596   3.787   4.753   5.585  0.7580  0.6523  0.6623
   47CHL1   H7B 4597   3.662   4.619   5.619 -2.6850  0.6139 -1.1933
   47CHL1    C8 4598   3.569   4.810   5.586 -0.7354 -0.2607  0.8594
   47CHL1    H8 4599   3.599   4.917   5.581  0.4892 -0.6345 -0.9629
   47CHL1   C14 4600   3.528   4.763   5.445  0.2688  0.0108 -0.2295
   47CHL1   H14 4601   3.481   4.667   5.475 -1.7574  0.8643 -0.4845
   47CHL1   C15 4602   3.632   4.727   5.334  0.3633  0.3221  0.2331
   47CHL1  H15A 4603   3.701   4.814   5.323 -0.5503  1.0871  0.4185
   47CHL1  H15B 4604   3.688   4.633   5.354 -0.5305 -0.9330 -2.6562
   47CHL1   C16 4605   3.552   4.716   5.206 -0.1717 -1.0537 -0.5836
   47CHL1  H16A 4606   3.595   4.776   5.123  1.7567 -0.0506  1.0338
   47CHL1  H16B 4607   3.539   4.612   5.170 -0.4953 -0.3773 -2.5234
   47CHL1   C17 4608   3.407   4.759   5.250  0.3071 -0.4116  0.2564
   47CHL1   H17 4609   3.351   4.666   5.271  1.2780 -0.8165  1.2052
   47CHL1   C13 4610   3.416   4.840   5.376  0.2488  0.1788 -0.2273
   47CHL1   C18 4611   3.467   4.985   5.343 -0.3080 -0.3538  0.1400
   47CHL1  H18A 4612   3.516   5.028   5.432  1.3385  0.1036 -0.9405
   47CHL1  H18B 4613   3.553   5.002   5.275 -0.5962  0.8536  0.0550
   47CHL1  H18C 4614   3.385   5.049   5.302  0.2321  0.5240  0.4071
   47CHL1   C12 4615   3.297   4.841   5.472  0.4035  0.1507  0.2976
   47CHL1  H12A 4616   3.228   4.920   5.434  2.6436  2.4628  0.7249
   47CHL1  H12B 4617   3.233   4.751   5.479  0.1107  0.2178 -1.2821
   47CHL1   C11 4618   3.335   4.882   5.621 -0.0085  0.1370  0.4406
   47CHL1  H11A 4619   3.367   4.988   5.611 -0.8096  0.3549  0.0761
   47CHL1  H11B 4620   3.243   4.878   5.683 -0.6628 -2.4072 -0.5471
   47CHL1    C9 4621   3.451   4.799   5.680  0.1515 -0.4797 -0.0897
   47CHL1    H9 4622   3.430   4.690   5.684 -0.9518 -0.3788 -1.7398
   47CHL1   C10 4623   3.486   4.839   5.833 -0.3694  0.2670 -0.0720
   47CHL1   C19 4624   3.446   4.990   5.854  0.3523 -0.0054 -0.3896
   47CHL1  H19A 4625   3.469   5.016   5.959  1.2229  0.1124 -0.6074
   47CHL1  H19B 4626   3.510   5.052   5.788  2.7796 -2.0620 -0.1091
   47CHL1  H19C 4627   3.337   5.005   5.837 -0.1701  0.5530  2.8795
   47CHL1    C1 4628   3.390   4.752   5.914 -0.0000 -0.5380  0.0499
   47CHL1   H1A 4629   3.288   4.784   5.887  0.1119  0.4209  0.7307
   47CHL1   H1B 4630   3.393   4.647   5.878 -2.2528  0.0857 -2.1818
   47CHL1    C2 4631   3.409   4.755   6.066  0.6344  0.0066 -0.1340
   47CHL1   H2A 4632   3.348   4.671   6.105  0.3972 -0.9400 -2.3816
   47CHL1   H2B 4633   3.379   4.849   6.117  1.1101  0.1229 -0.0617
   47CHL1   C20 4634   3.309   4.812   5.142 -0.2731 -0.5230 -0.3202
   47CHL1   H20 4635   3.316   4.923   5.138  0.6614 -0.5285  0.7873
   47CHL1   C21 4636   3.164   4.788   5.160 -0.6199 -0.0752 -0.6328
   47CHL1  H21A 4637   3.139   4.681   5.174 -0.1069 -0.2475 -1.0034
   47CHL1  H21B 4638   3.105   4.832   5.077  0.2098  2.3460 -0.0223
   47CHL1  H21C 4639   3.127   4.847   5.246  2.4144 -0.0144  0.7415
   47CHL1   C22 4640   3.349   4.774   4.999  0.3241 -0.0702 -0.1877
   47CHL1  H22A 4641   3.455   4.801   4.980  1.1277 -3.0557 -0.3963
   47CHL1  H22B 4642   3.345   4.664   4.987 -0.3125 -0.2056  1.0674
   47CHL1   C23 4643   3.263   4.823   4.880 -0.2228  0.0266 -0.0265
   47CHL1  H23A 4644   3.156   4.792   4.882 -0.6587  1.4956  1.4681
   47CHL1  H23B 4645   3.270   4.932   4.865  1.6055  0.0053  0.4135
   47CHL1   C24 4646   3.311   4.759   4.751 -0.1386  0.5827 -1.0429
   47CHL1  H24A 4647   3.418   4.788   4.738  0.2804 -0.5591 -0.2430
   47CHL1  H24B 4648   3.303   4.648   4.754 -3.1529  0.7453  0.1373
   47CHL1   C25 4649   3.252   4.812   4.619 -0.1022 -0.3671 -1.0397
   47CHL1   H25 4650   3.285   4.917   4.605  0.9241 -0.7909 -1.9099
   47CHL1   C26 4651   3.321   4.748   4.500  0.1715  0.4552  0.2897
   47CHL1  H26A 4652   3.274   4.789   4.408 -1.6047 -0.7840  0.5856
   47CHL1  H26B 4653   3.431   4.763   4.501  0.1688  0.4664  1.1582
   47CHL1  H26C 4654   3.285   4.643   4.497  0.8450  0.2368 -1.3821
   47CHL1   C27 4655   3.094   4.788   4.616 -0.0581  0.6724 -0.3081
   47CHL1  H27A 4656   3.062   4.833   4.519 -0.7439  0.3984 -0.2139
   47CHL1  H27B 4657   3.077   4.680   4.636  1.0170  0.6148  0.3896
   47CHL1  H27C 4658   3.044   4.846   4.696  2.5737  1.0224  1.1994
   48CHL1    C3 4659   1.606   5.355   6.233  0.0306  0.3600  0.9020
   48CHL1    H3 4660   1.511   5.299   6.248 -0.8752  1.6301  0.2047
   48CHL1    O3 4661   1.657   5.377   6.361 -0.3347 -0.5360  0.1997
   48CHL1   H3' 4662   1.741   5.421   6.355 -1.3386  1.5512  0.5836
   48CHL1    C4 4663   1.700   5.281   6.144 -0.0906  0.6899 -0.4498
   48CHL1   H4A 4664   1.801   5.327   6.137  0.5323 -0.2573  1.5923
   48CHL1   H4B 4665   1.708   5.175   6.177 -1.7751  0.2293 -1.3714
   48CHL1    C5 4666   1.651   5.268   6.001  0.0363  0.6646  0.9230
   48CHL1    C6 4667   1.647   5.147   5.934  0.2606 -0.2976 -0.1960
   48CHL1    H6 4668   1.681   5.060   5.993 -0.3091  1.6786  3.3585
   48CHL1    C7 4669   1.605   5.124   5.791 -0.0014  0.9597  0.3711
   48CHL1   H7A 4670   1.671   5.049   5.742  1.1362  3.2239 -1.7766
   48CHL1   H7B 4671   1.510   5.069   5.803 -0.2428  1.5937  1.5962
   48CHL1    C8 4672   1.590   5.257   5.716  0.8548  0.4768 -0.0423
   48CHL1    H8 4673   1.690   5.294   5.684 -0.2117  1.7889 -2.0189
   48CHL1   C14 4674   1.512   5.238   5.593 -0.2127 -0.2233 -0.2894
   48CHL1   H14 4675   1.409   5.209   5.622 -0.3254 -0.5129 -0.9882
   48CHL1   C15 4676   1.560   5.132   5.494 -0.4069 -0.7055 -0.8710
   48CHL1  H15A 4677   1.670   5.134   5.486 -0.3285 -1.9957 -0.3761
   48CHL1  H15B 4678   1.529   5.031   5.528 -1.3820  0.2210  1.2320
   48CHL1   C16 4679   1.498   5.183   5.361  0.2871 -0.3743  0.4071
   48CHL1  H16A 4680   1.580   5.205   5.290 -1.1305  4.3435 -0.0966
   48CHL1  H16B 4681   1.429   5.117   5.305  1.7790  0.3108 -2.4137
   48CHL1   C17 4682   1.425   5.312   5.389  0.7187  0.0272 -0.6615
   48CHL1   H17 4683   1.321   5.284   5.415 -0.3170  2.0924 -2.2293
   48CHL1   C13 4684   1.491   5.370   5.512  0.2055  0.1582 -0.5427
   48CHL1   C18 4685   1.628   5.424   5.468 -0.7726 -0.0665  0.0595
   48CHL1  H18A 4686   1.612   5.500   5.388 -1.6379 -2.5051 -2.2350
   48CHL1  H18B 4687   1.688   5.448   5.558  1.0927 -3.5196 -0.0821
   48CHL1  H18C 4688   1.689   5.342   5.423  0.3503  0.4933  0.5087
   48CHL1   C12 4689   1.412   5.472   5.590 -0.1225  0.0170 -0.3464
   48CHL1  H12A 4690   1.410   5.571   5.539  0.6583 -0.2876 -0.9994
   48CHL1  H12B 4691   1.310   5.430   5.604  0.0929 -0.4411 -0.1192
   48CHL1   C11 4692   1.461   5.495   5.733 -0.6757  0.1428 -0.1442
   48CHL1  H11A 4693   1.526   5.583   5.750 -0.4480 -0.3950  2.0578
   48CHL1  H11B 4694   1.376   5.526   5.796  0.7677  1.4491  1.2481
   48CHL1    C9 4695   1.515   5.364   5.802  0.7194 -0.1269 -0.0664
   48CHL1    H9 4696   1.421   5.312   5.832  1.4650 -1.3913  0.1938
   48CHL1   C10 4697   1.595   5.394   5.936 -0.1392 -0.6183 -0.3582
   48CHL1   C19 4698   1.718   5.475   5.897  0.2379 -0.6336 -0.3118
   48CHL1  H19A 4699   1.774   5.440   5.807  0.2354  1.6470 -1.2462
   48CHL1  H19B 4700   1.695   5.579   5.867  0.8495 -0.4233 -0.0643
   48CHL1  H19C 4701   1.785   5.486   5.985  1.6234 -0.3110 -1.3857
   48CHL1    C1 4702   1.503   5.473   6.033 -0.1482 -0.6529  0.1529
   48CHL1   H1A 4703   1.480   5.569   5.983  0.9038  0.0761  1.0169
   48CHL1   H1B 4704   1.407   5.419   6.050  0.1998 -1.4460 -0.2985
   48CHL1    C2 4705   1.564   5.499   6.174  0.2625 -0.2986  0.0961
   48CHL1   H2A 4706   1.495   5.552   6.243  0.6486  0.7839 -0.3301
   48CHL1   H2B 4707   1.654   5.563   6.169 -0.2882  0.4504 -0.4058
   48CHL1   C20 4708   1.412   5.404   5.263 -0.2444  0.2616  0.1281
   48CHL1   H20 4709   1.511   5.434   5.222  0.0952 -0.5910  0.3003
   48CHL1   C21 4710   1.317   5.530   5.284 -0.3936  0.0636 -0.3637
   48CHL1  H21A 4711   1.368   5.612   5.339  1.5878 -1.8239  0.8195
   48CHL1  H21B 4712   1.273   5.571   5.191  0.4179  2.4361  0.2189
   48CHL1  H21C 4713   1.232   5.498   5.349 -0.8480 -0.4471 -1.1923
   48CHL1   C22 4714   1.351   5.326   5.144  0.2744 -0.2926  0.3782
   48CHL1  H22A 4715   1.408   5.231   5.138  2.8772  1.1922  0.1844
   48CHL1  H22B 4716   1.247   5.309   5.178 -0.1296  0.5647 -0.3963
   48CHL1   C23 4717   1.361   5.403   5.009 -0.1075  0.3468 -0.3174
   48CHL1  H23A 4718   1.334   5.330   4.930 -0.6665 -0.5404  0.6633
   48CHL1  H23B 4719   1.287   5.486   5.010 -1.3610 -0.7228  1.6178
   48CHL1   C24 4720   1.494   5.461   4.973 -0.3021 -0.0646 -0.1643
   48CHL1  H24A 4721   1.525   5.532   5.052 -0.0827 -1.2154  0.8028
   48CHL1  H24B 4722   1.570   5.381   4.970 -0.6873 -0.4168 -1.2374
   48CHL1   C25 4723   1.495   5.536   4.842 -0.2220  0.7159  0.3827
   48CHL1   H25 4724   1.399   5.590   4.827 -3.8581 -4.6941  1.2413
   48CHL1   C26 4725   1.611   5.636   4.831 -0.3006 -0.3211 -0.7528
   48CHL1  H26A 4726   1.609   5.711   4.913 -0.2866  0.6392 -1.6014
   48CHL1  H26B 4727   1.706   5.581   4.845  1.1612  2.1562 -0.2091
   48CHL1  H26C 4728   1.619   5.691   4.735 -0.7260  2.8882  0.8928
   48CHL1   C27 4729   1.492   5.425   4.728 -0.0219 -0.0394  0.0417
   48CHL1  H27A 4730   1.397   5.368   4.726  1.0786 -1.9753 -1.4235
   48CHL1  H27B 4731   1.517   5.469   4.630  2.1712 -0.7275  0.2303
   48CHL1  H27C 4732   1.570   5.352   4.761  0.2147  0.4781  0.6556
   49CHL1    C3 4733   4.402   3.638   3.063 -0.9424  0.8374  0.1575
   49CHL1    H3 4734   4.300   3.617   3.102  0.2702 -4.2963  1.4247
   49CHL1    O3 4735   4.422   3.554   2.951 -0.6334  0.2316 -0.3225
   49CHL1   H3' 4736   4.503   3.590   2.913 -0.5201  1.5639  1.1066
   49CHL1    C4 4737   4.415   3.790   3.035  0.3297  0.4386 -0.3818
   49CHL1   H4A 4738   4.500   3.808   2.965 -0.2716  0.0743 -1.2259
   49CHL1   H4B 4739   4.319   3.811   2.984 -0.2860 -1.2383  0.0032
   49CHL1    C5 4740   4.415   3.879   3.154  0.5340 -0.9053 -0.4430
   49CHL1    C6 4741   4.334   3.987   3.158  0.4384  0.3548 -0.7972
   49CHL1    H6 4742   4.268   4.004   3.072 -1.9971  0.3959  0.9890
   49CHL1    C7 4743   4.330   4.085   3.276 -0.5579 -0.5562  0.1615
   49CHL1   H7A 4744   4.326   4.186   3.230  2.2544 -0.8300 -0.8918
   49CHL1   H7B 4745   4.246   4.071   3.348  0.9152  1.0369  2.3397
   49CHL1    C8 4746   4.453   4.069   3.363  0.1801  0.1189 -0.9487
   49CHL1    H8 4747   4.545   4.113   3.321  1.3916 -1.5445 -0.1591
   49CHL1   C14 4748   4.426   4.137   3.498 -0.1080  0.2820 -0.5292
   49CHL1   H14 4749   4.336   4.087   3.539  0.2177  0.3467  0.2818
   49CHL1   C15 4750   4.387   4.284   3.498  0.2052 -0.1728  0.7385
   49CHL1  H15A 4751   4.444   4.344   3.423 -1.2977  1.9523  1.1826
   49CHL1  H15B 4752   4.286   4.318   3.463  1.1682  1.2278 -0.8685
   49CHL1   C16 4753   4.412   4.329   3.647 -1.0082 -0.0687  0.0726
   49CHL1  H16A 4754   4.473   4.421   3.658 -1.1243 -0.0978  1.0685
   49CHL1  H16B 4755   4.314   4.356   3.693 -1.7511  0.1927 -1.5832
   49CHL1   C17 4756   4.478   4.204   3.719  0.2339  0.0241 -0.2579
   49CHL1   H17 4757   4.389   4.157   3.765 -0.9253  1.5510 -0.8383
   49CHL1   C13 4758   4.537   4.124   3.603  0.2056  0.0292 -0.3814
   49CHL1   C18 4759   4.670   4.195   3.557 -0.0707 -0.4830  0.1746
   49CHL1  H18A 4760   4.740   4.215   3.640 -0.3359 -0.4375  0.3912
   49CHL1  H18B 4761   4.714   4.136   3.474  1.0288 -0.8117  0.9777
   49CHL1  H18C 4762   4.643   4.291   3.507 -0.4209 -1.8162 -2.3416
   49CHL1   C12 4763   4.554   3.979   3.623 -0.4217  0.8482  0.2825
   49CHL1  H12A 4764   4.641   3.968   3.691  0.9090 -1.4811 -1.6340
   49CHL1  H12B 4765   4.459   3.935   3.658 -0.0638 -1.8227 -1.6989
   49CHL1   C11 4766   4.583   3.902   3.496  0.4015  0.0602 -0.2300
   49CHL1  H11A 4767   4.668   3.953   3.447  1.1316  0.0174  0.9536
   49CHL1  H11B 4768   4.584   3.792   3.516  1.6223  0.3788  1.7697
   49CHL1    C9 4769   4.475   3.917   3.389 -0.0126 -0.1281 -0.1055
   49CHL1    H9 4770   4.380   3.883   3.435 -0.2448 -1.2687 -1.3604
   49CHL1   C10 4771   4.506   3.839   3.259 -0.0499  0.1768 -0.7023
   49CHL1   C19 4772   4.652   3.867   3.216  0.1140  0.0819  0.5789
   49CHL1  H19A 4773   4.677   3.975   3.208 -2.5749  1.2518  4.8795
   49CHL1  H19B 4774   4.718   3.829   3.297 -0.3919  1.8718  1.8913
   49CHL1  H19C 4775   4.672   3.814   3.120 -1.7817 -0.0099  0.2125
   49CHL1    C1 4776   4.492   3.686   3.284 -0.5210  0.3213 -0.2392
   49CHL1   H1A 4777   4.569   3.670   3.362  1.3627  0.4043 -1.9910
   49CHL1   H1B 4778   4.393   3.672   3.331 -1.1336  0.2243 -1.5303
   49CHL1    C2 4779   4.507   3.596   3.164  0.2246 -1.1616 -0.2907
   49CHL1   H2A 4780   4.488   3.492   3.200  1.6814 -1.0663  0.8875
   49CHL1   H2B 4781   4.607   3.594   3.115  0.2724 -0.3848 -0.2255
   49CHL1   C20 4782   4.569   4.254   3.833 -0.8250  0.2267 -0.0778
   49CHL1   H20 4783   4.654   4.316   3.797 -0.2457  0.1238  1.0414
   49CHL1   C21 4784   4.621   4.133   3.910  0.0129  1.0073  0.6301
   49CHL1  H21A 4785   4.702   4.068   3.870 -1.7555 -0.6182 -0.4794
   49CHL1  H21B 4786   4.542   4.058   3.932  0.5826  0.2045  0.0005
   49CHL1  H21C 4787   4.668   4.172   4.003  0.3176  3.0989 -0.3480
   49CHL1   C22 4788   4.496   4.346   3.931  0.0214 -0.4616  0.8693
   49CHL1  H22A 4789   4.448   4.428   3.874  0.7339 -0.3820  0.3736
   49CHL1  H22B 4790   4.420   4.283   3.982  0.3428 -2.4723 -0.9946
   49CHL1   C23 4791   4.588   4.434   4.021 -0.9331  0.6098  0.3250
   49CHL1  H23A 4792   4.676   4.373   4.050 -0.8102 -0.0239 -1.2552
   49CHL1  H23B 4793   4.627   4.521   3.963 -0.1370  0.6166  0.8630
   49CHL1   C24 4794   4.508   4.486   4.136  0.8584 -0.1719 -0.6863
   49CHL1  H24A 4795   4.416   4.540   4.107 -0.0234 -2.0741 -1.5804
   49CHL1  H24B 4796   4.468   4.403   4.198  1.1644  1.0949  1.2849
   49CHL1   C25 4797   4.600   4.564   4.236 -0.4851 -0.9211  0.4637
   49CHL1   H25 4798   4.601   4.668   4.198 -2.8988  0.1852  3.1175
   49CHL1   C26 4799   4.535   4.576   4.374 -0.4707  0.1062  0.1778
   49CHL1  H26A 4800   4.425   4.588   4.359 -0.6722  0.7115  1.8571
   49CHL1  H26B 4801   4.548   4.485   4.437  0.0828  1.0277  1.4416
   49CHL1  H26C 4802   4.581   4.662   4.428 -0.3739  0.1577  0.0153
   49CHL1   C27 4803   4.743   4.509   4.253 -0.5178 -0.3583 -0.0082
   49CHL1  H27A 4804   4.794   4.514   4.155  0.1242  3.0483  0.3607
   49CHL1  H27B 4805   4.805   4.563   4.328 -1.9257 -1.7138  2.2750
   49CHL1  H27C 4806   4.738   4.406   4.293 -0.6145 -0.0657  0.7691
   50CHL1    C3 4807   3.030   1.370   2.579 -0.2758  0.1519 -0.4800
   50CHL1    H3 4808   2.994   1.273   2.619  0.0996 -0.7878 -2.3270
   50CHL1    O3 4809   3.015   1.373   2.438  0.1673  0.2305  0.1508
   50CHL1   H3' 4810   3.031   1.463   2.410 -0.9343  0.0023 -1.3491
   50CHL1    C4 4811   2.958   1.498   2.635 -0.1529  0.3017 -0.2357
   50CHL1   H4A 4812   2.983   1.593   2.583 -0.0135  0.8936  0.8748
   50CHL1   H4B 4813   2.853   1.481   2.605 -0.2616  0.4650  0.0496
   50CHL1    C5 4814   2.983   1.518   2.782 -0.2950  0.3284  0.2749
   50CHL1    C6 4815   2.886   1.538   2.872 -0.1391 -0.2626 -1.0819
   50CHL1    H6 4816   2.785   1.544   2.827 -0.2045 -1.2852 -1.0904
   50CHL1    C7 4817   2.894   1.554   3.021  0.5750  0.4071 -0.3300
   50CHL1   H7A 4818   2.825   1.633   3.057  0.6700 -0.4437  1.8730
   50CHL1   H7B 4819   2.855   1.462   3.071 -1.0569 -0.0468 -2.2768
   50CHL1    C8 4820   3.040   1.576   3.061 -0.5692 -0.1061 -0.0057
   50CHL1    H8 4821   3.068   1.682   3.042  2.2717 -0.3674  2.0850
   50CHL1   C14 4822   3.055   1.548   3.206 -0.0392 -0.4105 -0.0152
   50CHL1   H14 4823   3.044   1.438   3.206 -1.0286 -0.3363 -1.0535
   50CHL1   C15 4824   2.958   1.615   3.303 -0.4902 -0.1230  0.1141
   50CHL1  H15A 4825   2.949   1.723   3.281 -3.3430 -0.3078  0.0000
   50CHL1  H15B 4826   2.852   1.584   3.292 -0.9972  1.3834  0.5262
   50CHL1   C16 4827   3.017   1.603   3.444  0.2167 -0.4048  0.6198
   50CHL1  H16A 4828   3.015   1.700   3.498 -1.3172 -0.5261  0.8150
   50CHL1  H16B 4829   2.962   1.528   3.505 -1.1184  0.9630  1.1307
   50CHL1   C17 4830   3.164   1.551   3.413 -0.0314 -0.5337 -0.1591
   50CHL1   H17 4831   3.148   1.441   3.423  0.9381 -0.6685 -0.0147
   50CHL1   C13 4832   3.189   1.580   3.259 -0.3772  0.3454 -0.1841
   50CHL1   C18 4833   3.225   1.731   3.250 -0.1576 -0.3340  0.8331
   50CHL1  H18A 4834   3.328   1.732   3.292 -1.2685 -0.6277  3.7585
   50CHL1  H18B 4835   3.228   1.772   3.146 -0.8668  0.0131  0.9412
   50CHL1  H18C 4836   3.157   1.796   3.310 -2.0349 -0.9501 -0.5207
   50CHL1   C12 4837   3.286   1.495   3.187  0.0085 -0.1027  0.8145
   50CHL1  H12A 4838   3.387   1.506   3.234  0.3671 -1.8410  0.5291
   50CHL1  H12B 4839   3.252   1.390   3.202 -2.9309  0.6796  0.2997
   50CHL1   C11 4840   3.285   1.511   3.038 -0.2356 -0.1394 -0.5646
   50CHL1  H11A 4841   3.317   1.615   3.016  0.6898 -0.7840 -2.4899
   50CHL1  H11B 4842   3.350   1.443   2.979 -0.2982  0.1041 -0.9169
   50CHL1    C9 4843   3.144   1.497   2.973 -0.1425 -0.8264  0.0798
   50CHL1    H9 4844   3.116   1.391   2.989 -1.7827 -0.4692 -0.2375
   50CHL1   C10 4845   3.137   1.513   2.816 -0.0656 -0.0464  0.0458
   50CHL1   C19 4846   3.209   1.640   2.769 -0.1492 -0.0297  0.5697
   50CHL1  H19A 4847   3.315   1.629   2.801 -0.0451 -2.5360 -0.4170
   50CHL1  H19B 4848   3.217   1.647   2.659  1.8364  1.3321  0.7340
   50CHL1  H19C 4849   3.172   1.733   2.817  1.1020  0.2932  0.9508
   50CHL1    C1 4850   3.196   1.386   2.761  0.4791  0.5035  0.0786
   50CHL1   H1A 4851   3.306   1.387   2.776  0.7260 -0.2316 -1.4966
   50CHL1   H1B 4852   3.152   1.296   2.808  0.5144  1.4234  1.9671
   50CHL1    C2 4853   3.174   1.374   2.607 -0.8573  0.0593  1.2005
   50CHL1   H2A 4854   3.226   1.290   2.556 -1.8571  0.2697 -0.2094
   50CHL1   H2B 4855   3.226   1.463   2.565  0.1392 -0.7207  0.7240
   50CHL1   C20 4856   3.260   1.603   3.521 -0.1235 -0.0867  0.8608
   50CHL1   H20 4857   3.259   1.711   3.499 -4.4046 -0.0324  0.4152
   50CHL1   C21 4858   3.402   1.540   3.501 -0.1119 -0.2077 -0.1010
   50CHL1  H21A 4859   3.455   1.586   3.414  1.4501  1.0951  1.4580
   50CHL1  H21B 4860   3.394   1.432   3.479 -2.2037  0.3766 -2.7101
   50CHL1  H21C 4861   3.471   1.566   3.585 -1.6648 -1.8679  1.7742
   50CHL1   C22 4862   3.214   1.586   3.666 -0.1659 -0.3737 -0.7158
   50CHL1  H22A 4863   3.104   1.598   3.673 -0.0955  0.0531 -0.3099
   50CHL1  H22B 4864   3.239   1.480   3.688  1.0683  0.0719  0.1274
   50CHL1   C23 4865   3.287   1.678   3.770  0.5223  0.5034  0.1880
   50CHL1  H23A 4866   3.390   1.636   3.772  0.7059  0.9034 -0.5066
   50CHL1  H23B 4867   3.289   1.788   3.755 -4.3549  1.1770  2.5414
   50CHL1   C24 4868   3.211   1.657   3.900 -0.2880 -0.2120  0.5852
   50CHL1  H24A 4869   3.105   1.685   3.880  0.0811 -0.4310 -2.0455
   50CHL1  H24B 4870   3.226   1.551   3.931  0.9111  0.0315  0.8660
   50CHL1   C25 4871   3.246   1.730   4.029 -0.8815  0.2014 -0.4327
   50CHL1   H25 4872   3.243   1.841   4.018  0.7933  0.2813 -0.3271
   50CHL1   C26 4873   3.141   1.710   4.140 -0.1205  0.7804  0.1394
   50CHL1  H26A 4874   3.055   1.779   4.127 -0.0397  0.7258 -0.7534
   50CHL1  H26B 4875   3.105   1.605   4.148  0.0466  0.4922 -2.2385
   50CHL1  H26C 4876   3.190   1.741   4.235  1.6786 -1.0764 -0.1224
   50CHL1   C27 4877   3.395   1.685   4.068  0.1098 -0.1762 -0.9289
   50CHL1  H27A 4878   3.431   1.737   4.159  3.2229 -1.4039 -1.3503
   50CHL1  H27B 4879   3.396   1.575   4.084 -2.3878 -0.1587 -0.1706
   50CHL1  H27C 4880   3.454   1.711   3.978 -0.6242  0.0990 -1.3382
   51CHL1    C3 4881   3.696   2.397   2.666  0.1399  0.1071 -0.9308
   51CHL1    H3 4882   3.798   2.438   2.649 -0.5350  2.1043 -0.4871
   51CHL1    O3 4883   3.619   2.378   2.547  0.0537  0.4870  0.1276
   51CHL1   H3' 4884   3.559   2.452   2.537  1.6052  1.7131 -0.6202
   51CHL1    C4 4885   3.712   2.266   2.748 -0.5182  0.0288  0.5831
   51CHL1   H4A 4886   3.609   2.226   2.750 -0.1457 -0.9492  1.8445
   51CHL1   H4B 4887   3.776   2.198   2.687 -0.4268  0.2985  0.3758
   51CHL1    C5 4888   3.760   2.300   2.890  0.1533  0.2111 -0.0735
   51CHL1    C6 4889   3.874   2.239   2.945 -0.7866 -0.0677  0.4038
   51CHL1    H6 4890   3.933   2.165   2.888  0.9165  0.5207  1.3518
   51CHL1    C7 4891   3.921   2.263   3.081  0.0873  0.2379 -0.8135
   51CHL1   H7A 4892   3.964   2.172   3.129  0.3430  0.8769  0.1978
   51CHL1   H7B 4893   4.004   2.336   3.081  1.0053 -0.7769 -0.3409
   51CHL1    C8 4894   3.815   2.329   3.170 -0.5467  0.3872 -0.6767
   51CHL1    H8 4895   3.738   2.251   3.187 -1.4300  0.8609 -2.2886
   51CHL1   C14 4896   3.864   2.372   3.309  0.2564  0.3742 -0.7813
   51CHL1   H14 4897   3.931   2.452   3.270  0.8011 -0.3628 -1.3852
   51CHL1   C15 4898   3.955   2.279   3.393  0.1178  0.6067  0.0813
   51CHL1  H15A 4899   3.911   2.178   3.401  3.3009 -1.0373 -1.2957
   51CHL1  H15B 4900   4.049   2.267   3.333  2.0694  2.1412  2.6187
   51CHL1   C16 4901   3.976   2.366   3.520 -0.1678  0.2406 -0.4134
   51CHL1  H16A 4902   3.949   2.308   3.611  1.5160 -0.0478 -0.0658
   51CHL1  H16B 4903   4.084   2.394   3.526 -0.2395  0.1453  2.1618
   51CHL1   C17 4904   3.879   2.489   3.519  0.0844  1.1796  0.1822
   51CHL1   H17 4905   3.928   2.580   3.480  0.1904  1.6498  1.3812
   51CHL1   C13 4906   3.781   2.449   3.404  1.3774  0.8512 -0.1609
   51CHL1   C18 4907   3.677   2.349   3.473  0.1497 -0.2770  0.0282
   51CHL1  H18A 4908   3.629   2.294   3.389 -0.8222  1.4954 -0.6494
   51CHL1  H18B 4909   3.733   2.286   3.544  1.6962 -1.2172 -1.9384
   51CHL1  H18C 4910   3.614   2.408   3.543 -0.2158 -0.1029 -0.4424
   51CHL1   C12 4911   3.706   2.559   3.328 -0.0548 -0.4623  0.7909
   51CHL1  H12A 4912   3.632   2.603   3.399 -0.7592 -4.3364  2.7107
   51CHL1  H12B 4913   3.781   2.641   3.319 -2.4415  1.6568 -1.4763
   51CHL1   C11 4914   3.646   2.514   3.195 -0.0998 -0.1429 -0.0624
   51CHL1  H11A 4915   3.559   2.454   3.232  0.0119  1.7349  3.8044
   51CHL1  H11B 4916   3.597   2.602   3.149 -2.1795 -0.6208  1.1100
   51CHL1    C9 4917   3.744   2.447   3.103 -0.2308  0.0562  0.0669
   51CHL1    H9 4918   3.824   2.520   3.077 -0.9096  2.4826  3.9627
   51CHL1   C10 4919   3.671   2.405   2.971  0.8556 -0.3714 -0.8575
   51CHL1   C19 4920   3.534   2.342   3.014 -0.3637  0.2602 -0.0820
   51CHL1  H19A 4921   3.493   2.275   2.936  1.2880 -0.7206 -0.1500
   51CHL1  H19B 4922   3.556   2.277   3.102  1.9246 -1.2958 -1.6809
   51CHL1  H19C 4923   3.462   2.421   3.045  0.9054  0.7848  1.7024
   51CHL1    C1 4924   3.659   2.527   2.882  0.2336  0.4907 -0.0799
   51CHL1   H1A 4925   3.586   2.587   2.940 -3.2347 -1.5695 -1.9047
   51CHL1   H1B 4926   3.755   2.581   2.874 -0.5385  2.0059  0.4140
   51CHL1    C2 4927   3.608   2.500   2.746 -0.2121  0.1129  0.4150
   51CHL1   H2A 4928   3.605   2.591   2.682 -0.6431 -2.1851 -3.0899
   51CHL1   H2B 4929   3.502   2.467   2.748 -0.5635  1.2674  1.7210
   51CHL1   C20 4930   3.833   2.525   3.659 -0.0829  0.6153 -0.0461
   51CHL1   H20 4931   3.765   2.446   3.698 -2.0204  1.8074 -0.9006
   51CHL1   C21 4932   3.755   2.657   3.652  0.7571 -0.2540  0.2438
   51CHL1  H21A 4933   3.667   2.647   3.584  0.0829 -2.1877  1.3346
   51CHL1  H21B 4934   3.814   2.744   3.616 -1.2222  2.2779  2.6522
   51CHL1  H21C 4935   3.705   2.693   3.745 -1.5203 -2.1561 -0.1525
   51CHL1   C22 4936   3.950   2.542   3.761  0.4650  0.6118 -0.1606
   51CHL1  H22A 4937   4.027   2.462   3.757 -0.2912 -0.3174  2.2160
   51CHL1  H22B 4938   3.998   2.638   3.732 -0.4103  1.1829  0.2410
   51CHL1   C23 4939   3.902   2.538   3.904 -0.2370 -0.6055  0.0281
   51CHL1  H23A 4940   3.833   2.623   3.924  1.0270  0.4326  0.1058
   51CHL1  H23B 4941   3.851   2.444   3.935 -0.6322  0.2738  2.2379
   51CHL1   C24 4942   4.010   2.562   4.012 -0.0513  0.0395 -0.6769
   51CHL1  H24A 4943   4.092   2.490   3.993 -0.2208  0.0434 -1.4753
   51CHL1  H24B 4944   4.047   2.664   3.988  0.7491 -0.2130 -0.5447
   51CHL1   C25 4945   3.968   2.544   4.162  0.2471  0.7257  0.1976
   51CHL1   H25 4946   3.913   2.448   4.172 -0.4369  0.6674 -2.9602
   51CHL1   C26 4947   4.088   2.546   4.256  0.9451  0.0703  0.0561
   51CHL1  H26A 4948   4.137   2.646   4.256  2.5191 -0.6438 -1.2490
   51CHL1  H26B 4949   4.044   2.518   4.354  0.5362 -0.5747 -0.3048
   51CHL1  H26C 4950   4.162   2.470   4.227 -0.0015 -0.6422 -0.5526
   51CHL1   C27 4951   3.878   2.660   4.201 -0.2367 -0.5314 -0.5413
   51CHL1  H27A 4952   3.831   2.656   4.302 -2.6425 -0.0311 -1.5657
   51CHL1  H27B 4953   3.935   2.756   4.200  1.4072 -1.4737 -0.1247
   51CHL1  H27C 4954   3.795   2.676   4.129 -1.9042  0.6496  1.4967
   52CHL1    C3 4955   4.892   3.170   2.650 -0.8400  0.6599  0.2657
   52CHL1    H3 4956   4.933   3.272   2.632 -1.4214  0.8358 -0.0973
   52CHL1    O3 4957   4.892   3.096   2.526  0.5244  0.4515 -0.0023
   52CHL1   H3' 4958   4.855   3.012   2.555  0.0089  1.2844  1.8966
   52CHL1    C4 4959   4.987   3.104   2.748  0.4334  0.7254  0.4182
   52CHL1   H4A 4960   4.978   2.994   2.748 -0.8258  0.8110  0.0949
   52CHL1   H4B 4961   5.085   3.126   2.701  0.5845 -1.1810 -0.2426
   52CHL1    C5 4962   4.984   3.154   2.890  0.3738 -0.3442 -0.0777
   52CHL1    C6 4963   5.095   3.190   2.958 -0.0238 -0.4406  0.4439
   52CHL1    H6 4964   5.195   3.183   2.914  0.1080 -1.4572  0.8830
   52CHL1    C7 4965   5.099   3.227   3.107  0.4985  0.4178  0.5593
   52CHL1   H7A 4966   5.176   3.170   3.164  0.5346 -0.0646  0.0373
   52CHL1   H7B 4967   5.116   3.336   3.119 -0.4300  0.6628 -0.2451
   52CHL1    C8 4968   4.957   3.213   3.178 -0.2271 -0.2721  0.2210
   52CHL1    H8 4969   4.953   3.105   3.203  0.0424 -0.7839 -1.7929
   52CHL1   C14 4970   4.959   3.303   3.309  0.2343 -0.1307  0.1095
   52CHL1   H14 4971   4.971   3.410   3.281 -1.2580  0.3057  0.9928
   52CHL1   C15 4972   5.064   3.275   3.422  0.1194 -0.2984  0.2184
   52CHL1  H15A 4973   5.075   3.168   3.451 -0.2053 -0.5442 -0.5385
   52CHL1  H15B 4974   5.165   3.312   3.396 -0.8875  0.5676 -2.8720
   52CHL1   C16 4975   5.007   3.350   3.547  0.7801 -0.2563 -0.1209
   52CHL1  H16A 4976   5.014   3.290   3.641  1.6273  0.1689  0.0922
   52CHL1  H16B 4977   5.066   3.440   3.575 -0.7383  0.6442  0.2905
   52CHL1   C17 4978   4.856   3.385   3.514  0.4425  0.9168  0.1963
   52CHL1   H17 4979   4.871   3.489   3.480  3.2354  0.9528  1.3170
   52CHL1   C13 4980   4.827   3.296   3.393  0.0698 -0.7799  0.9950
   52CHL1   C18 4981   4.794   3.161   3.443 -0.0049  0.1486  0.6414
   52CHL1  H18A 4982   4.859   3.136   3.530 -1.0122  0.0754  1.3917
   52CHL1  H18B 4983   4.689   3.156   3.477 -0.8367  0.9570 -1.6042
   52CHL1  H18C 4984   4.815   3.078   3.371  1.4745  0.7133  0.3734
   52CHL1   C12 4985   4.719   3.347   3.294  0.5900 -0.0366 -0.3994
   52CHL1  H12A 4986   4.620   3.373   3.339  1.2463  2.2322 -0.1653
   52CHL1  H12B 4987   4.753   3.447   3.259 -1.4302  1.6766  2.1474
   52CHL1   C11 4988   4.704   3.269   3.163 -0.4692  0.0152  0.9067
   52CHL1  H11A 4989   4.661   3.169   3.184 -1.9927  0.8409  1.9582
   52CHL1  H11B 4990   4.642   3.326   3.090 -0.0960  3.7534  3.2263
   52CHL1    C9 4991   4.836   3.251   3.081 -0.3336  0.7721 -0.5854
   52CHL1    H9 4992   4.865   3.355   3.053 -1.2844  1.5272  1.1215
   52CHL1   C10 4993   4.843   3.160   2.952  0.3473 -0.6223 -0.1179
   52CHL1   C19 4994   4.799   3.015   2.991 -0.2609  0.0273 -0.1882
   52CHL1  H19A 4995   4.691   2.998   3.011 -0.2201  0.9553  0.9534
   52CHL1  H19B 4996   4.813   2.946   2.905 -0.7592 -1.8322  1.1578
   52CHL1  H19C 4997   4.859   2.968   3.072  0.8316  2.3163  0.4151
   52CHL1    C1 4998   4.742   3.225   2.854  0.8231  0.3777  0.3578
   52CHL1   H1A 4999   4.636   3.226   2.887 -0.3539  1.3541 -3.0285
   52CHL1   H1B 5000   4.770   3.332   2.845 -1.0442  0.7387 -2.2269
   52CHL1    C2 5001   4.750   3.168   2.707  0.3184  0.6199 -0.0104
   52CHL1   H2A 5002   4.672   3.224   2.651 -0.2409  1.5076  1.5816
   52CHL1   H2B 5003   4.717   3.062   2.709  0.2308  0.6438 -0.1620
   52CHL1   C20 5004   4.765   3.374   3.638  0.6590 -0.3106 -0.2254
   52CHL1   H20 5005   4.769   3.268   3.673 -3.3842 -0.8676 -0.9371
   52CHL1   C21 5006   4.614   3.410   3.608  0.1934  0.1098 -0.4466
   52CHL1  H21A 5007   4.571   3.338   3.535  1.7222  0.0125 -1.2754
   52CHL1  H21B 5008   4.615   3.517   3.576 -0.6874  0.8840  1.8487
   52CHL1  H21C 5009   4.553   3.423   3.700 -0.7327  1.4215 -1.2151
   52CHL1   C22 5010   4.809   3.466   3.752 -0.1631 -0.0727  0.0831
   52CHL1  H22A 5011   4.901   3.519   3.720 -0.0789  1.4013  2.5232
   52CHL1  H22B 5012   4.730   3.543   3.763 -1.1113 -0.8693 -0.8773
   52CHL1   C23 5013   4.826   3.398   3.893 -0.0656  0.4867 -0.3008
   52CHL1  H23A 5014   4.723   3.368   3.923  0.0705  1.9426  1.7712
   52CHL1  H23B 5015   4.885   3.304   3.886 -0.5593  0.2190 -1.0456
   52CHL1   C24 5016   4.874   3.481   4.015 -0.0770 -0.3345  0.4682
   52CHL1  H24A 5017   4.977   3.517   3.993 -0.3998 -0.1331 -0.8281
   52CHL1  H24B 5018   4.811   3.572   4.022  2.4088  1.5026  0.5180
   52CHL1   C25 5019   4.871   3.411   4.149 -0.8332  0.8292  0.3893
   52CHL1   H25 5020   4.777   3.352   4.143 -0.8182  0.9498 -3.0912
   52CHL1   C26 5021   4.993   3.313   4.164  0.1972 -0.5504  0.8160
   52CHL1  H26A 5022   5.089   3.370   4.161 -0.2107  0.1067 -0.6661
   52CHL1  H26B 5023   4.978   3.247   4.253 -0.2775 -1.8536 -0.1953
   52CHL1  H26C 5024   4.988   3.249   4.073 -0.0116  0.6797 -0.0625
   52CHL1   C27 5025   4.860   3.510   4.259 -0.1879  0.5604 -0.5005
   52CHL1  H27A 5026   4.775   3.579   4.239 -0.9720 -0.6437 -1.4635
   52CHL1  H27B 5027   4.840   3.451   4.351 -1.4418  1.7398  0.0351
   52CHL1  H27C 5028   4.961   3.556   4.264  0.0670  0.1760 -1.8212
   53CHL1    C3 5029   2.605   2.418   2.855 -0.1392  0.1113  0.0515
   53CHL1    H3 5030   2.591   2.528   2.848 -1.1994  0.1046  1.5993
   53CHL1    O3 5031   2.622   2.369   2.724 -0.4685  0.3054 -0.3359
   53CHL1   H3' 5032   2.716   2.357   2.708 -0.4178 -1.0028  0.7720
   53CHL1    C4 5033   2.727   2.375   2.939  0.7761 -0.3288  0.4425
   53CHL1   H4A 5034   2.732   2.264   2.936 -0.0368 -0.4275  2.1222
   53CHL1   H4B 5035   2.817   2.421   2.892  1.1605 -0.4392  1.0591
   53CHL1    C5 5036   2.705   2.431   3.079  0.3769  0.7824  0.2226
   53CHL1    C6 5037   2.792   2.514   3.134  0.0874  0.8752 -0.2218
   53CHL1    H6 5038   2.871   2.553   3.067 -0.0890  2.7139  0.5808
   53CHL1    C7 5039   2.780   2.574   3.273  0.1384 -1.0255 -0.6180
   53CHL1   H7A 5040   2.883   2.572   3.315  1.0908  1.0697 -2.5781
   53CHL1   H7B 5041   2.751   2.681   3.282  0.1172 -1.1952  2.9355
   53CHL1    C8 5042   2.681   2.495   3.362 -0.1249 -0.9567 -0.1331
   53CHL1    H8 5043   2.732   2.400   3.388 -1.2363 -1.0585  1.8595
   53CHL1   C14 5044   2.651   2.563   3.498 -0.3109 -0.0730 -0.3288
   53CHL1   H14 5045   2.602   2.659   3.471  1.8395  0.6848 -1.8676
   53CHL1   C15 5046   2.776   2.611   3.571  0.3376  0.0608  0.8587
   53CHL1  H15A 5047   2.846   2.525   3.577 -1.7044 -1.6499  1.3112
   53CHL1  H15B 5048   2.834   2.694   3.525  0.4306 -0.8904 -0.8178
   53CHL1   C16 5049   2.727   2.651   3.708  0.3574 -0.3775  0.2857
   53CHL1  H16A 5050   2.789   2.602   3.786  2.8503  1.3546 -0.5050
   53CHL1  H16B 5051   2.734   2.761   3.717 -2.7834  0.0125 -0.7714
   53CHL1   C17 5052   2.579   2.595   3.715  0.3133  0.1178 -0.1142
   53CHL1   H17 5053   2.516   2.684   3.695  1.1970  0.9750  0.8353
   53CHL1   C13 5054   2.562   2.495   3.597  0.5956  0.4434  0.6783
   53CHL1   C18 5055   2.626   2.362   3.631 -0.6014 -0.0678  0.3075
   53CHL1  H18A 5056   2.554   2.312   3.699 -4.6533  2.7430 -1.4949
   53CHL1  H18B 5057   2.649   2.294   3.547 -3.1923  0.1681 -0.6774
   53CHL1  H18C 5058   2.727   2.372   3.677 -0.1021 -1.1902 -0.4888
   53CHL1   C12 5059   2.425   2.478   3.519 -0.4850 -0.9571 -0.6289
   53CHL1  H12A 5060   2.368   2.400   3.575 -2.2042 -1.5064 -2.9524
   53CHL1  H12B 5061   2.372   2.575   3.510  0.0599 -0.7164 -1.4014
   53CHL1   C11 5062   2.446   2.406   3.383 -0.2444 -0.4486  0.0204
   53CHL1  H11A 5063   2.469   2.302   3.413  0.8209  0.0188  0.8936
   53CHL1  H11B 5064   2.345   2.396   3.338 -1.0816  0.7618  1.4914
   53CHL1    C9 5065   2.551   2.466   3.287  0.2534 -0.0988 -0.1009
   53CHL1    H9 5066   2.517   2.568   3.261 -1.3686 -0.8496 -1.0260
   53CHL1   C10 5067   2.577   2.388   3.154 -0.5559  0.4900 -0.3382
   53CHL1   C19 5068   2.587   2.245   3.188 -0.7569 -0.1343 -0.3129
   53CHL1  H19A 5069   2.623   2.186   3.101  1.2234  1.4752 -0.6854
   53CHL1  H19B 5070   2.668   2.230   3.262  0.2258 -1.4615 -1.5968
   53CHL1  H19C 5071   2.492   2.201   3.223 -0.2376 -0.0924  1.2059
   53CHL1    C1 5072   2.461   2.408   3.057 -0.2611 -0.0971  0.1342
   53CHL1   H1A 5073   2.373   2.356   3.103 -0.1885 -0.0857  0.2871
   53CHL1   H1B 5074   2.430   2.515   3.048  0.9687  0.3404  0.8662
   53CHL1    C2 5075   2.475   2.355   2.912 -0.0749 -0.3434  0.0435
   53CHL1   H2A 5076   2.385   2.388   2.856  1.4026  1.7415 -1.2849
   53CHL1   H2B 5077   2.487   2.245   2.913 -0.5217 -0.4185 -1.1222
   53CHL1   C20 5078   2.540   2.553   3.859 -0.4457 -0.3362  0.2328
   53CHL1   H20 5079   2.617   2.479   3.892  2.1065  2.5795  1.2775
   53CHL1   C21 5080   2.402   2.491   3.861 -0.7467 -0.3730 -0.2850
   53CHL1  H21A 5081   2.402   2.423   3.949 -1.7949 -1.0364 -0.7764
   53CHL1  H21B 5082   2.370   2.425   3.778 -0.9065  0.5745 -0.9949
   53CHL1  H21C 5083   2.332   2.571   3.895 -0.0990  0.0524  0.0680
   53CHL1   C22 5084   2.551   2.669   3.960  0.1815  0.1264  0.4249
   53CHL1  H22A 5085   2.651   2.717   3.953 -0.4210  1.4259  0.3353
   53CHL1  H22B 5086   2.486   2.745   3.911  2.1853  0.9141 -1.1789
   53CHL1   C23 5087   2.524   2.626   4.108  0.1257  0.6229  0.1015
   53CHL1  H23A 5088   2.543   2.707   4.181 -1.1291  0.8858  0.1469
   53CHL1  H23B 5089   2.418   2.601   4.130  0.2452 -1.9376 -1.6789
   53CHL1   C24 5090   2.614   2.510   4.144 -0.0111 -0.9613 -0.0814
   53CHL1  H24A 5091   2.558   2.418   4.117 -1.4328  0.2124 -1.2772
   53CHL1  H24B 5092   2.707   2.514   4.084  0.1623 -4.0512 -0.1962
   53CHL1   C25 5093   2.635   2.516   4.300  0.0096  0.8113 -0.1189
   53CHL1   H25 5094   2.550   2.567   4.349  0.4491  1.4680 -0.0217
   53CHL1   C26 5095   2.627   2.368   4.356  0.2742 -0.1681 -0.3748
   53CHL1  H26A 5096   2.718   2.311   4.325  0.6242 -0.6205  1.3558
   53CHL1  H26B 5097   2.644   2.378   4.466  2.1064  0.6012 -0.6890
   53CHL1  H26C 5098   2.538   2.307   4.333  0.7360 -0.7804 -0.5751
   53CHL1   C27 5099   2.764   2.592   4.311  0.3862  0.0622 -0.1258
   53CHL1  H27A 5100   2.749   2.699   4.283  1.6113  0.7273  1.5824
   53CHL1  H27B 5101   2.782   2.606   4.420 -0.4944  2.2660 -0.2062
   53CHL1  H27C 5102   2.850   2.537   4.268  1.5456 -0.1940  2.3643
   54CHL1    C3 5103   3.732   3.635   2.678 -1.3616 -0.0235 -0.4005
   54CHL1    H3 5104   3.702   3.543   2.732 -0.4720  0.3575  0.7898
   54CHL1    O3 5105   3.705   3.611   2.541  0.1725  0.4970 -0.0072
   54CHL1   H3' 5106   3.641   3.540   2.552  2.7846 -1.9576  0.6470
   54CHL1    C4 5107   3.646   3.757   2.736  0.0733 -0.2291 -0.8930
   54CHL1   H4A 5108   3.675   3.844   2.674 -1.6531 -0.2066 -1.7184
   54CHL1   H4B 5109   3.538   3.737   2.719 -0.0798  0.2721 -0.5198
   54CHL1    C5 5110   3.678   3.785   2.880 -0.6015 -0.0800  0.7989
   54CHL1    C6 5111   3.584   3.782   2.972  0.0326  0.4059 -0.4579
   54CHL1    H6 5112   3.484   3.755   2.936 -0.1256 -0.2965  0.4511
   54CHL1    C7 5113   3.612   3.812   3.118 -0.6326 -0.3214 -1.0631
   54CHL1   H7A 5114   3.540   3.889   3.155 -2.2687 -1.9926 -0.5905
   54CHL1   H7B 5115   3.607   3.720   3.180 -2.0318 -0.8713 -1.9429
   54CHL1    C8 5116   3.750   3.882   3.141 -0.3806  0.6515 -0.4622
   54CHL1    H8 5117   3.736   3.980   3.092  1.3481  0.9022 -0.4903
   54CHL1   C14 5118   3.775   3.891   3.292  0.2903 -0.2621 -0.4144
   54CHL1   H14 5119   3.783   3.786   3.326  0.5373  0.6403  2.6396
   54CHL1   C15 5120   3.662   3.956   3.382 -1.0636 -0.5975  0.1096
   54CHL1  H15A 5121   3.631   4.051   3.334 -3.3343 -1.4795 -0.2943
   54CHL1  H15B 5122   3.578   3.887   3.406 -0.8679 -0.4211  1.3885
   54CHL1   C16 5123   3.744   3.983   3.512 -0.1982 -0.1552  0.2812
   54CHL1  H16A 5124   3.750   4.087   3.550  3.1215 -0.3175  0.4561
   54CHL1  H16B 5125   3.711   3.924   3.601 -1.5658  2.0721  1.3215
   54CHL1   C17 5126   3.894   3.935   3.487 -0.1291  0.3879 -0.4870
   54CHL1   H17 5127   3.899   3.827   3.513  2.2335  0.6039  0.2204
   54CHL1   C13 5128   3.911   3.944   3.334  0.1535 -0.6696  0.1255
   54CHL1   C18 5129   3.924   4.087   3.292 -0.7082  0.1012 -0.7936
   54CHL1  H18A 5130   3.843   4.144   3.344 -1.6280 -1.6432 -0.2433
   54CHL1  H18B 5131   4.023   4.127   3.324 -1.9552  1.3909  1.8068
   54CHL1  H18C 5132   3.913   4.104   3.183 -1.5725  3.4348 -0.3185
   54CHL1   C12 5133   4.019   3.853   3.273  0.1371 -0.1781  0.3775
   54CHL1  H12A 5134   4.124   3.886   3.293 -0.6958  2.4678  0.8411
   54CHL1  H12B 5135   3.995   3.754   3.317 -1.4070 -0.0640 -0.1583
   54CHL1   C11 5136   4.001   3.848   3.115 -0.0622 -0.4471  0.2181
   54CHL1  H11A 5137   4.027   3.949   3.078  1.5567 -0.5486  0.9928
   54CHL1  H11B 5138   4.073   3.779   3.067  1.9106  2.0268 -0.5841
   54CHL1    C9 5139   3.861   3.807   3.067  0.0984  0.2947  0.5449
   54CHL1    H9 5140   3.864   3.704   3.110  0.4685  0.5094  1.0391
   54CHL1   C10 5141   3.828   3.807   2.914  0.7246 -0.1068  0.4135
   54CHL1   C19 5142   3.859   3.947   2.858 -0.1454 -0.4255  0.6436
   54CHL1  H19A 5143   3.852   3.932   2.748 -2.3879 -1.8348  0.9120
   54CHL1  H19B 5144   3.790   4.028   2.888  1.4933  0.6932  1.5500
   54CHL1  H19C 5145   3.959   3.990   2.880 -0.9666  2.6730 -1.0335
   54CHL1    C1 5146   3.913   3.693   2.852  0.2173 -0.0444  0.0329
   54CHL1   H1A 5147   4.022   3.717   2.854  0.0867  0.8083 -1.5950
   54CHL1   H1B 5148   3.904   3.599   2.910 -0.8065 -0.3614 -0.6080
   54CHL1    C2 5149   3.882   3.655   2.703 -0.0183 -0.2855  0.5187
   54CHL1   H2A 5150   3.928   3.560   2.668  0.5185  0.0097  0.4241
   54CHL1   H2B 5151   3.923   3.731   2.634 -1.1074 -1.2658 -1.2806
   54CHL1   C20 5152   3.999   3.996   3.575 -0.7684 -0.8344  0.2251
   54CHL1   H20 5153   4.035   4.092   3.532 -0.5267  0.0105  2.2012
   54CHL1   C21 5154   4.123   3.907   3.587  0.0469 -0.1254  0.2263
   54CHL1  H21A 5155   4.104   3.827   3.662  0.4429 -0.5298 -0.0986
   54CHL1  H21B 5156   4.198   3.968   3.642 -2.2745  1.1256  2.2414
   54CHL1  H21C 5157   4.163   3.860   3.495  0.0184 -2.0776  1.1583
   54CHL1   C22 5158   3.943   4.050   3.711 -0.2376  0.0546 -0.0129
   54CHL1  H22A 5159   3.861   4.124   3.694 -0.7169 -1.0151 -3.1204
   54CHL1  H22B 5160   3.908   3.966   3.774  2.3384 -1.1852 -0.0896
   54CHL1   C23 5161   4.049   4.141   3.776  0.2043  0.4585 -1.0814
   54CHL1  H23A 5162   4.133   4.074   3.807 -0.7397 -0.9845 -1.5455
   54CHL1  H23B 5163   4.101   4.211   3.707  0.9118  0.6819 -0.3348
   54CHL1   C24 5164   3.973   4.206   3.890  0.2061 -0.2592  0.6735
   54CHL1  H24A 5165   3.889   4.270   3.856 -0.5624 -1.2965  0.5544
   54CHL1  H24B 5166   3.921   4.124   3.944  0.6549 -1.5574 -0.7904
   54CHL1   C25 5167   4.051   4.296   3.985  0.2475  0.0064  0.2285
   54CHL1   H25 5168   3.995   4.305   4.080 -0.4254 -2.1517  0.0893
   54CHL1   C26 5169   4.171   4.219   4.030 -0.8994  0.1836 -0.3825
   54CHL1  H26A 5170   4.244   4.220   3.946  0.7685  0.3166  1.0217
   54CHL1  H26B 5171   4.227   4.257   4.118  0.5320  1.9700 -1.9600
   54CHL1  H26C 5172   4.136   4.117   4.056  0.5569  0.1578  1.7425
   54CHL1   C27 5173   4.090   4.433   3.924 -0.1969  0.4363 -0.6452
   54CHL1  H27A 5174   4.163   4.423   3.842  1.4021  0.5124  0.7092
   54CHL1  H27B 5175   4.010   4.483   3.866  0.8877  1.5381 -1.2207
   54CHL1  H27C 5176   4.127   4.493   4.010  1.5057 -0.9474 -0.3481
   55CHL1    C3 5177   4.789   5.653   2.798  0.4737 -0.0928 -0.2206
   55CHL1    H3 5178   4.891   5.610   2.786  0.0897 -1.2800  0.5616
   55CHL1    O3 5179   4.707   5.606   2.695 -0.1978  0.7366  0.6494
   55CHL1   H3' 5180   4.696   5.510   2.702  0.2300  0.5183 -1.0450
   55CHL1    C4 5181   4.734   5.603   2.938  0.3153 -0.1507  0.3539
   55CHL1   H4A 5182   4.629   5.638   2.941  0.8437  1.6983 -0.6964
   55CHL1   H4B 5183   4.736   5.492   2.936  0.7368 -0.1385 -1.4312
   55CHL1    C5 5184   4.806   5.669   3.059 -0.1080 -0.2534 -0.0891
   55CHL1    C6 5185   4.856   5.595   3.154 -0.6476 -0.2589  0.3317
   55CHL1    H6 5186   4.836   5.488   3.168  0.2921 -0.1954  2.9039
   55CHL1    C7 5187   4.924   5.653   3.273  0.7961  0.3294 -0.4081
   55CHL1   H7A 5188   4.908   5.589   3.363  3.5940  1.2717  0.8960
   55CHL1   H7B 5189   5.035   5.647   3.264  1.0157  1.9830  0.6597
   55CHL1    C8 5190   4.910   5.801   3.298 -0.2316 -0.5968 -0.0313
   55CHL1    H8 5191   4.813   5.817   3.348  0.2664 -1.8099  1.3851
   55CHL1   C14 5192   5.023   5.851   3.382 -0.5560  0.5635 -0.0075
   55CHL1   H14 5193   5.115   5.831   3.322 -1.6687 -0.6296 -1.3883
   55CHL1   C15 5194   5.063   5.773   3.510 -0.0239  0.4224 -0.4170
   55CHL1  H15A 5195   4.978   5.733   3.569  0.5793 -1.2506 -0.6203
   55CHL1  H15B 5196   5.128   5.683   3.501 -1.3008 -0.8415  1.9753
   55CHL1   C16 5197   5.136   5.877   3.600 -0.9224  0.1660  0.8221
   55CHL1  H16A 5198   5.077   5.894   3.693 -0.8318  4.3495  0.2800
   55CHL1  H16B 5199   5.242   5.847   3.613 -1.3316 -1.9266 -0.1455
   55CHL1   C17 5200   5.127   6.008   3.520 -0.9134  0.0451  0.5457
   55CHL1   H17 5201   5.219   6.019   3.458 -1.5601  1.6219 -0.2148
   55CHL1   C13 5202   5.007   5.998   3.419  0.0377  0.3239 -0.5096
   55CHL1   C18 5203   4.883   6.030   3.499  0.6396  0.6032  0.3620
   55CHL1  H18A 5204   4.869   6.140   3.502 -3.3326  0.2307  0.4699
   55CHL1  H18B 5205   4.791   5.999   3.445  1.3113 -0.5534 -0.1318
   55CHL1  H18C 5206   4.878   5.986   3.601 -0.0900 -0.9826 -0.3335
   55CHL1   C12 5207   5.031   6.082   3.292  0.0482 -0.5315  0.2297
   55CHL1  H12A 5208   5.017   6.187   3.324  0.8921 -0.2186 -0.3974
   55CHL1  H12B 5209   5.132   6.061   3.250 -0.5720  1.5175 -2.5804
   55CHL1   C11 5210   4.928   6.037   3.186 -0.0238  0.8184  0.9021
   55CHL1  H11A 5211   4.830   6.079   3.219  0.4903  2.4265  0.4441
   55CHL1  H11B 5212   4.963   6.079   3.090  1.6780 -2.2942  0.0133
   55CHL1    C9 5213   4.921   5.876   3.162  0.1551 -0.1401 -0.1538
   55CHL1    H9 5214   5.023   5.846   3.132  0.9668  2.5226 -0.3386
   55CHL1   C10 5215   4.831   5.821   3.056  0.0600 -0.0049  0.2217
   55CHL1   C19 5216   4.688   5.869   3.093 -0.1500 -0.3617 -0.3050
   55CHL1  H19A 5217   4.674   5.977   3.074  0.4412 -0.4384 -1.1970
   55CHL1  H19B 5218   4.609   5.828   3.027 -0.3253 -1.5687  0.6111
   55CHL1  H19C 5219   4.658   5.852   3.199 -3.5534 -2.0335 -1.4060
   55CHL1    C1 5220   4.887   5.862   2.913 -0.5181  0.7514 -0.5925
   55CHL1   H1A 5221   4.903   5.972   2.904  1.3534  0.6923  1.3081
   55CHL1   H1B 5222   4.990   5.820   2.908 -0.4632  0.9981 -2.0367
   55CHL1    C2 5223   4.800   5.805   2.794 -0.0145  0.0719 -0.1323
   55CHL1   H2A 5224   4.834   5.843   2.696 -1.7597  2.0727 -0.0320
   55CHL1   H2B 5225   4.699   5.847   2.815  0.0201 -0.9640  2.4771
   55CHL1   C20 5226   5.136   6.135   3.612 -0.4615 -0.3201 -0.5890
   55CHL1   H20 5227   5.040   6.141   3.666  0.1881 -0.1401  0.5881
   55CHL1   C21 5228   5.156   6.259   3.533 -0.0369 -0.4820  1.1308
   55CHL1  H21A 5229   5.223   6.245   3.445 -1.7234  1.9171 -0.6520
   55CHL1  H21B 5230   5.189   6.348   3.591 -2.3803 -0.5082  2.6071
   55CHL1  H21C 5231   5.064   6.301   3.488 -0.3684 -0.4954  1.7940
   55CHL1   C22 5232   5.244   6.116   3.720 -0.1072  0.4402 -0.1245
   55CHL1  H22A 5233   5.226   6.029   3.787  2.5073 -0.1684 -0.1244
   55CHL1  H22B 5234   5.339   6.092   3.669 -0.3461 -1.2845  0.1821
   55CHL1   C23 5235   5.270   6.245   3.810 -0.3527  0.9684  0.3124
   55CHL1  H23A 5236   5.327   6.324   3.757  1.3585  1.0399  2.1336
   55CHL1  H23B 5237   5.166   6.277   3.828 -1.0367  0.7181 -2.6990
   55CHL1   C24 5238   5.346   6.201   3.943  0.0405 -0.0728  1.0903
   55CHL1  H24A 5239   5.332   6.285   4.014  0.0531 -0.1448  1.1780
   55CHL1  H24B 5240   5.291   6.113   3.982  0.2014 -1.4105 -1.4738
   55CHL1   C25 5241   5.491   6.148   3.928 -0.7909 -0.6609 -0.2287
   55CHL1   H25 5242   5.491   6.077   3.842 -1.2668 -2.1730  0.9642
   55CHL1   C26 5243   5.580   6.277   3.912  0.6811  1.1056 -0.1817
   55CHL1  H26A 5244   5.553   6.337   4.001 -1.8067  0.7494 -0.6289
   55CHL1  H26B 5245   5.690   6.261   3.902  0.5644 -0.2293  0.4199
   55CHL1  H26C 5246   5.555   6.334   3.820 -2.8105 -0.1231 -0.1406
   55CHL1   C27 5247   5.524   6.067   4.047  0.7518  0.1215 -0.0260
   55CHL1  H27A 5248   5.629   6.030   4.049  0.9303  0.6294  1.0986
   55CHL1  H27B 5249   5.512   6.127   4.140 -0.5341  1.3956 -0.9632
   55CHL1  H27C 5250   5.457   5.980   4.058  0.8961 -0.0101 -0.1880
   56CHL1    C3 5251   4.979   0.640   3.203  0.5841  0.4374  0.0645
   56CHL1    H3 5252   5.057   0.718   3.198  2.6117 -1.5716 -1.9102
   56CHL1    O3 5253   4.976   0.574   3.080 -0.0585 -0.1545 -0.1718
   56CHL1   H3' 5254   5.059   0.529   3.063  0.3210  0.6071 -0.3849
   56CHL1    C4 5255   5.013   0.528   3.306 -0.1836  0.1430  0.7276
   56CHL1   H4A 5256   4.933   0.450   3.307  1.0885 -1.2061  0.9050
   56CHL1   H4B 5257   5.102   0.468   3.280 -0.8782 -1.4518  1.8325
   56CHL1    C5 5258   5.030   0.584   3.447 -0.4751  1.1887  0.1249
   56CHL1    C6 5259   5.143   0.568   3.521 -1.2520  0.4422 -0.6017
   56CHL1    H6 5260   5.226   0.512   3.474 -0.0346  1.9120 -0.2911
   56CHL1    C7 5261   5.147   0.607   3.663 -0.6440 -0.6660  0.4691
   56CHL1   H7A 5262   5.186   0.522   3.723  1.6438  0.0957  0.1721
   56CHL1   H7B 5263   5.225   0.687   3.671  0.5261 -1.5327 -1.4450
   56CHL1    C8 5264   5.016   0.661   3.724 -0.2656 -0.6204 -0.0527
   56CHL1    H8 5265   4.951   0.578   3.759 -1.0790 -0.8736 -2.0180
   56CHL1   C14 5266   5.053   0.744   3.844 -0.2996 -0.3773 -0.6421
   56CHL1   H14 5267   5.121   0.826   3.811 -1.0347  0.6793  0.3516
   56CHL1   C15 5268   5.128   0.669   3.959  0.3531  0.6173 -0.2481
   56CHL1  H15A 5269   5.083   0.569   3.973 -0.9009  1.2229  0.1416
   56CHL1  H15B 5270   5.238   0.668   3.943  0.2308  0.4748 -1.1315
   56CHL1   C16 5271   5.099   0.756   4.082  0.1496  0.0852  0.1211
   56CHL1  H16A 5272   5.061   0.696   4.167 -1.5485 -0.3422 -0.8949
   56CHL1  H16B 5273   5.195   0.804   4.112 -0.3712  0.9298  0.4604
   56CHL1   C17 5274   5.011   0.871   4.032 -0.6680 -0.8196  0.2137
   56CHL1   H17 5275   5.090   0.936   3.989 -0.1017 -2.0128 -0.6334
   56CHL1   C13 5276   4.936   0.806   3.910  0.3156  0.4471 -0.2979
   56CHL1   C18 5277   4.834   0.714   3.975  0.5561 -0.2771 -0.5361
   56CHL1  H18A 5278   4.745   0.778   3.990  0.0802 -0.9260 -0.5431
   56CHL1  H18B 5279   4.796   0.640   3.901  0.2906 -0.6324 -0.0465
   56CHL1  H18C 5280   4.854   0.677   4.078 -1.9301  4.1193  1.7944
   56CHL1   C12 5281   4.871   0.899   3.816 -0.1777 -0.4899  0.5285
   56CHL1  H12A 5282   4.777   0.944   3.856 -0.1326 -0.2540  0.3618
   56CHL1  H12B 5283   4.943   0.980   3.795 -0.3113 -0.1471  1.3404
   56CHL1   C11 5284   4.826   0.833   3.689  0.1384  0.2816  0.4442
   56CHL1  H11A 5285   4.740   0.770   3.717 -0.6531  0.1895 -1.9781
   56CHL1  H11B 5286   4.786   0.908   3.618 -1.5572 -0.1133  0.9485
   56CHL1    C9 5287   4.940   0.749   3.618 -0.1530  0.0163  0.8714
   56CHL1    H9 5288   5.018   0.825   3.597  0.0265  0.4336  2.8530
   56CHL1   C10 5289   4.900   0.667   3.493  0.4922  0.0263 -0.5576
   56CHL1   C19 5290   4.795   0.558   3.527 -0.2542 -0.2759 -0.3904
   56CHL1  H19A 5291   4.775   0.490   3.442 -1.0631 -1.4874  0.7196
   56CHL1  H19B 5292   4.830   0.477   3.594 -1.4170 -1.4986 -1.2053
   56CHL1  H19C 5293   4.701   0.596   3.573 -0.9137 -1.6959 -0.5193
   56CHL1    C1 5294   4.851   0.762   3.380  0.0624 -0.6062 -0.0071
   56CHL1   H1A 5295   4.751   0.807   3.398 -0.2978 -0.5442 -1.9615
   56CHL1   H1B 5296   4.924   0.846   3.382 -1.2453  0.5366  1.1258
   56CHL1    C2 5297   4.849   0.714   3.231 -0.3445  0.0446  0.1160
   56CHL1   H2A 5298   4.833   0.804   3.169 -1.1924 -0.5582 -0.5578
   56CHL1   H2B 5299   4.765   0.643   3.218  0.5730 -1.0081 -0.2188
   56CHL1   C20 5300   4.928   0.933   4.151  0.6233  0.1472 -0.0817
   56CHL1   H20 5301   4.846   0.862   4.176  0.0889  0.1421 -1.6934
   56CHL1   C21 5302   4.857   1.073   4.105 -1.0282  1.1719  0.3799
   56CHL1  H21A 5303   4.809   1.119   4.194  2.1407 -0.2958  3.0290
   56CHL1  H21B 5304   4.792   1.057   4.016  1.3375  0.6530 -1.3675
   56CHL1  H21C 5305   4.938   1.139   4.069  0.8176 -2.0086 -1.8158
   56CHL1   C22 5306   5.015   0.963   4.274  0.1292 -0.3332 -0.2519
   56CHL1  H22A 5307   5.085   0.885   4.311  3.2651  1.7955 -1.2530
   56CHL1  H22B 5308   5.089   1.040   4.243 -0.3783  0.5631  0.6850
   56CHL1   C23 5309   4.928   1.000   4.397 -0.4357  0.3964  0.8426
   56CHL1  H23A 5310   4.868   1.092   4.382 -0.2380  0.7680  2.2248
   56CHL1  H23B 5311   4.862   0.911   4.404 -1.7834  1.4726  2.7942
   56CHL1   C24 5312   4.995   1.016   4.530  0.4787  0.5636 -0.1635
   56CHL1  H24A 5313   5.056   0.925   4.546 -2.5264 -1.4414  0.5143
   56CHL1  H24B 5314   5.043   1.117   4.533  2.0236 -0.1113 -0.8847
   56CHL1   C25 5315   4.897   1.017   4.649 -1.1800  0.9768 -0.1077
   56CHL1   H25 5316   4.833   0.927   4.638 -1.3280  1.0394  0.2370
   56CHL1   C26 5317   4.980   1.003   4.777 -0.4247 -0.5186  0.4148
   56CHL1  H26A 5318   5.054   1.086   4.780 -1.3952  0.5914 -2.7175
   56CHL1  H26B 5319   4.907   1.016   4.860 -1.3145  0.5071 -0.5073
   56CHL1  H26C 5320   5.016   0.898   4.777 -3.2356 -1.5705  0.6767
   56CHL1   C27 5321   4.806   1.132   4.649 -0.4573 -0.1219  0.1711
   56CHL1  H27A 5322   4.736   1.124   4.735 -0.8758 -2.1895 -0.3174
   56CHL1  H27B 5323   4.867   1.225   4.650 -1.5586  0.6166  0.3020
   56CHL1  H27C 5324   4.743   1.123   4.558 -0.1956  0.3977 -0.0668
   57CHL1    C3 5325   6.013   6.799   2.830 -0.6077  0.0734 -0.2555
   57CHL1    H3 5326   6.042   6.906   2.824 -2.0014  0.4730 -0.0908
   57CHL1    O3 5327   5.927   6.772   2.721 -0.2484  0.3276  0.1098
   57CHL1   H3' 5328   5.951   6.681   2.702  0.8181  0.4120  0.9683
   57CHL1    C4 5329   6.123   6.684   2.845  0.5499  0.0549  0.1783
   57CHL1   H4A 5330   6.076   6.584   2.843 -1.7716  1.0553  1.4451
   57CHL1   H4B 5331   6.188   6.693   2.755 -0.0748  0.8273 -0.2092
   57CHL1    C5 5332   6.204   6.689   2.973 -0.9222  0.1693 -0.1277
   57CHL1    C6 5333   6.340   6.700   2.972  0.3451 -0.2837 -0.1881
   57CHL1    H6 5334   6.394   6.686   2.877 -0.3071 -2.5623 -0.2618
   57CHL1    C7 5335   6.423   6.711   3.102 -0.3521 -0.6565  0.0221
   57CHL1   H7A 5336   6.498   6.629   3.104 -0.8238 -1.0872  1.4013
   57CHL1   H7B 5337   6.471   6.811   3.111 -0.7449 -0.5840  1.7749
   57CHL1    C8 5338   6.332   6.686   3.231 -0.3923  0.2702 -0.3217
   57CHL1    H8 5339   6.305   6.579   3.241 -0.2514  0.2009 -0.6733
   57CHL1   C14 5340   6.418   6.727   3.353 -0.1218  0.6792  0.1119
   57CHL1   H14 5341   6.434   6.837   3.351 -0.0046  0.6774  0.8648
   57CHL1   C15 5342   6.556   6.659   3.369 -0.1375 -0.4695 -0.8446
   57CHL1  H15A 5343   6.566   6.552   3.339 -0.1625 -0.4470 -0.9348
   57CHL1  H15B 5344   6.638   6.706   3.310 -0.1000 -2.9786 -2.9941
   57CHL1   C16 5345   6.583   6.668   3.518  0.1111 -0.6845 -0.1754
   57CHL1  H16A 5346   6.567   6.571   3.571  0.0715 -0.8788 -0.5393
   57CHL1  H16B 5347   6.684   6.701   3.550 -0.0550 -1.5800  1.3951
   57CHL1   C17 5348   6.472   6.757   3.579  0.0993  0.0816 -0.2805
   57CHL1   H17 5349   6.500   6.863   3.558 -0.3178  0.0138 -1.2156
   57CHL1   C13 5350   6.349   6.723   3.483 -0.4299  0.0735 -0.0589
   57CHL1   C18 5351   6.308   6.578   3.513  0.4852 -0.5485  0.0179
   57CHL1  H18A 5352   6.282   6.555   3.619 -0.6458  0.9788  0.0948
   57CHL1  H18B 5353   6.221   6.562   3.445  1.6358 -0.5829 -1.4979
   57CHL1  H18C 5354   6.389   6.509   3.479  0.2733 -0.6619 -0.2626
   57CHL1   C12 5355   6.230   6.818   3.475  0.8558 -0.1097  0.3578
   57CHL1  H12A 5356   6.167   6.823   3.567 -1.0441  2.2176 -0.9568
   57CHL1  H12B 5357   6.273   6.920   3.460 -1.9280  1.0818 -0.0079
   57CHL1   C11 5358   6.134   6.789   3.361  0.1027 -0.1982  0.4755
   57CHL1  H11A 5359   6.071   6.699   3.378 -1.9693  1.0815 -0.0018
   57CHL1  H11B 5360   6.056   6.867   3.352 -0.8682 -1.2302 -0.3392
   57CHL1    C9 5361   6.209   6.766   3.223  0.1904  0.0297 -0.1630
   57CHL1    H9 5362   6.238   6.869   3.197  0.9761 -0.5448 -1.6949
   57CHL1   C10 5363   6.121   6.708   3.100 -0.4774 -0.3740  0.0109
   57CHL1   C19 5364   6.062   6.572   3.136  0.7156 -0.2983  0.0656
   57CHL1  H19A 5365   6.022   6.569   3.240 -0.8705  1.8924 -0.4093
   57CHL1  H19B 5366   5.981   6.545   3.064 -1.5717 -0.5548  2.5474
   57CHL1  H19C 5367   6.132   6.487   3.122  0.5897 -0.3526 -0.2523
   57CHL1    C1 5368   6.008   6.812   3.079  0.5712  0.8517  0.2442
   57CHL1   H1A 5369   5.951   6.820   3.174  2.0509  0.2663  1.2139
   57CHL1   H1B 5370   6.050   6.912   3.052 -1.4106  1.5796 -0.3398
   57CHL1    C2 5371   5.918   6.792   2.948  0.0309 -0.4549  0.1551
   57CHL1   H2A 5372   5.845   6.876   2.950  1.8314  1.1945  0.8443
   57CHL1   H2B 5373   5.873   6.692   2.965 -0.8877  0.2243  2.0237
   57CHL1   C20 5374   6.449   6.734   3.730 -0.0356 -0.1079 -0.6117
   57CHL1   H20 5375   6.388   6.644   3.755  0.6567 -0.7642 -1.2105
   57CHL1   C21 5376   6.365   6.849   3.787  0.0555  0.6079  0.3642
   57CHL1  H21A 5377   6.276   6.867   3.723  1.7778  1.3866 -1.9429
   57CHL1  H21B 5378   6.430   6.939   3.776 -1.6698  1.7485 -1.1360
   57CHL1  H21C 5379   6.343   6.841   3.896 -1.4759 -2.8717 -0.0714
   57CHL1   C22 5380   6.587   6.707   3.796  0.0537 -0.1020 -0.1673
   57CHL1  H22A 5381   6.650   6.622   3.761 -2.0722 -2.7372  1.9585
   57CHL1  H22B 5382   6.646   6.801   3.791 -1.7469  1.2001  1.4728
   57CHL1   C23 5383   6.564   6.679   3.952 -0.0827 -0.5960  0.2361
   57CHL1  H23A 5384   6.495   6.748   4.006  2.8887  3.3355 -0.4766
   57CHL1  H23B 5385   6.521   6.579   3.974  0.3006 -0.6090  0.9655
   57CHL1   C24 5386   6.699   6.684   4.022  0.0290 -0.1383 -0.0795
   57CHL1  H24A 5387   6.771   6.625   3.962 -0.0046 -1.5313  1.1861
   57CHL1  H24B 5388   6.727   6.791   4.034 -1.9391  0.1084  4.4328
   57CHL1   C25 5389   6.697   6.611   4.158 -0.5414 -0.0743  0.3374
   57CHL1   H25 5390   6.665   6.506   4.139  0.5565 -0.6078  1.3387
   57CHL1   C26 5391   6.842   6.612   4.209  0.5788  0.4764 -0.6241
   57CHL1  H26A 5392   6.844   6.550   4.301  0.9563  0.4007 -0.6792
   57CHL1  H26B 5393   6.900   6.556   4.132  1.1118  1.0121 -0.6207
   57CHL1  H26C 5394   6.879   6.717   4.211 -1.4601  1.2201  1.1842
   57CHL1   C27 5395   6.604   6.667   4.272  0.4920  0.3227  0.3613
   57CHL1  H27A 5396   6.614   6.622   4.373 -3.2154 -1.5561  0.0353
   57CHL1  H27B 5397   6.623   6.776   4.287 -0.1978  0.4792  0.1533
   57CHL1  H27C 5398   6.498   6.647   4.245  1.1241 -1.3402 -1.0621
   58CHL1    C3 5399   3.013   6.717   2.756 -0.0902  0.5198  0.4286
   58CHL1    H3 5400   2.956   6.631   2.797  2.2632 -0.9596  0.7785
   58CHL1    O3 5401   2.991   6.729   2.614  0.2625 -0.3999 -0.5004
   58CHL1   H3' 5402   3.058   6.679   2.567  0.4996  0.6292 -1.3181
   58CHL1    C4 5403   2.968   6.845   2.827 -0.5885  0.0604 -0.4589
   58CHL1   H4A 5404   3.029   6.926   2.784  1.6942 -0.7060  1.1338
   58CHL1   H4B 5405   2.862   6.874   2.810 -0.7583  0.7200  1.4137
   58CHL1    C5 5406   2.994   6.848   2.975  0.2534 -0.4953  0.2079
   58CHL1    C6 5407   2.894   6.855   3.067 -0.5376 -0.6234 -0.7129
   58CHL1    H6 5408   2.793   6.873   3.028 -1.3646 -1.9442  0.7238
   58CHL1    C7 5409   2.909   6.854   3.219 -0.5619  0.3435  0.0181
   58CHL1   H7A 5410   2.846   6.931   3.267 -1.4770 -0.5414  0.2872
   58CHL1   H7B 5411   2.874   6.752   3.248 -1.3579  0.7612  0.5506
   58CHL1    C8 5412   3.058   6.873   3.260  0.3798 -0.3790  0.3568
   58CHL1    H8 5413   3.085   6.978   3.239 -1.6343  0.2862  0.8867
   58CHL1   C14 5414   3.078   6.841   3.409 -0.7523  0.2768 -0.1943
   58CHL1   H14 5415   3.062   6.731   3.412  0.5022  0.1057  0.7454
   58CHL1   C15 5416   2.984   6.910   3.508  0.1458 -0.4122  0.5542
   58CHL1  H15A 5417   2.962   7.013   3.473 -2.0417 -1.2662 -0.7640
   58CHL1  H15B 5418   2.887   6.859   3.523 -0.4837  0.5296 -0.2376
   58CHL1   C16 5419   3.064   6.919   3.641 -0.2719 -0.0970  0.1319
   58CHL1  H16A 5420   3.080   7.028   3.654 -0.3544 -0.1216  0.4378
   58CHL1  H16B 5421   3.006   6.876   3.726  0.0706 -0.9492 -0.0508
   58CHL1   C17 5422   3.197   6.843   3.613 -0.1027  0.7569  0.3240
   58CHL1   H17 5423   3.178   6.738   3.642  1.6122  0.5678  0.8757
   58CHL1   C13 5424   3.224   6.854   3.459 -0.8972  0.0200 -0.0516
   58CHL1   C18 5425   3.285   6.994   3.428 -0.0202  0.1829 -0.1521
   58CHL1  H18A 5426   3.231   7.069   3.489 -0.8031 -0.0563 -0.5245
   58CHL1  H18B 5427   3.389   6.996   3.467 -0.4901 -0.8217  1.2561
   58CHL1  H18C 5428   3.275   7.014   3.319 -0.0364 -0.6604 -0.3159
   58CHL1   C12 5429   3.306   6.740   3.382  1.2750 -0.0388 -0.1687
   58CHL1  H12A 5430   3.409   6.745   3.423  0.6828 -1.5346  1.6772
   58CHL1  H12B 5431   3.255   6.647   3.415  1.4342 -0.0909 -0.0673
   58CHL1   C11 5432   3.293   6.757   3.227 -0.2665 -0.1733  0.1073
   58CHL1  H11A 5433   3.364   6.839   3.201  0.6990 -1.0235  0.0374
   58CHL1  H11B 5434   3.344   6.672   3.179 -0.4184  0.2978 -0.9127
   58CHL1    C9 5435   3.151   6.780   3.172  0.3455  0.0420  0.4570
   58CHL1    H9 5436   3.106   6.678   3.176  1.6541 -0.6604 -1.3665
   58CHL1   C10 5437   3.137   6.817   3.018 -0.1345 -0.2069 -0.8654
   58CHL1   C19 5438   3.229   6.941   3.001  0.0162 -0.0087 -0.3614
   58CHL1  H19A 5439   3.200   7.018   2.926 -0.6298  2.3828  2.1773
   58CHL1  H19B 5440   3.238   6.997   3.096 -1.0697  0.8932 -0.7717
   58CHL1  H19C 5441   3.331   6.907   2.974 -0.1587 -0.8149 -0.0535
   58CHL1    C1 5442   3.191   6.701   2.934 -0.5357  0.1204 -0.4226
   58CHL1   H1A 5443   3.298   6.685   2.956 -1.2595 -2.0330  2.0221
   58CHL1   H1B 5444   3.144   6.609   2.975 -1.2034  0.2506 -0.8789
   58CHL1    C2 5445   3.165   6.703   2.782  0.2055 -0.9905  0.7604
   58CHL1   H2A 5446   3.199   6.604   2.744  0.9906  0.1812 -1.7982
   58CHL1   H2B 5447   3.221   6.786   2.734  2.3781 -2.6693  0.1813
   58CHL1   C20 5448   3.310   6.873   3.713 -0.3262  0.2331  0.9178
   58CHL1   H20 5449   3.337   6.974   3.678 -0.2174 -0.4924 -1.2291
   58CHL1   C21 5450   3.427   6.768   3.677  0.0163  0.6014  0.2607
   58CHL1  H21A 5451   3.493   6.746   3.764 -0.8344  2.5030  1.4552
   58CHL1  H21B 5452   3.504   6.800   3.603 -0.9584  0.2346 -0.9463
   58CHL1  H21C 5453   3.385   6.676   3.632 -1.7469  1.2887  0.4181
   58CHL1   C22 5454   3.260   6.878   3.857  0.8838  0.0508 -0.2167
   58CHL1  H22A 5455   3.193   6.966   3.862 -1.6086 -1.5219 -2.9995
   58CHL1  H22B 5456   3.196   6.791   3.881  1.1171  0.0316  0.3733
   58CHL1   C23 5457   3.354   6.888   3.982  0.4808  0.1443  0.6193
   58CHL1  H23A 5458   3.303   6.899   4.080 -0.9271 -1.2032  0.0730
   58CHL1  H23B 5459   3.403   6.789   3.994  3.5942  1.6156  1.0438
   58CHL1   C24 5460   3.460   6.998   3.966  0.0909 -0.3932  0.3607
   58CHL1  H24A 5461   3.497   6.988   3.861 -1.0023 -1.0251  0.0243
   58CHL1  H24B 5462   3.425   7.104   3.974  2.3614  0.4459  0.0248
   58CHL1   C25 5463   3.577   6.988   4.073  0.2929 -0.3304  0.4594
   58CHL1   H25 5464   3.528   7.001   4.172 -1.1877 -0.7597 -0.1799
   58CHL1   C26 5465   3.649   6.847   4.055 -0.0262  0.0978  0.0284
   58CHL1  H26A 5466   3.652   6.841   3.945 -1.1703  2.3668 -0.2077
   58CHL1  H26B 5467   3.752   6.853   4.094 -0.4483  3.4057  0.9769
   58CHL1  H26C 5468   3.591   6.766   4.105  0.3408  0.8017  1.6914
   58CHL1   C27 5469   3.679   7.097   4.039 -0.1668  0.3024 -0.2813
   58CHL1  H27A 5470   3.762   7.097   4.114  0.7335 -0.4745 -1.2457
   58CHL1  H27B 5471   3.720   7.082   3.937 -2.0730 -0.7986 -0.9432
   58CHL1  H27C 5472   3.641   7.201   4.053  0.8047  0.5055  1.1299
   59CHL1    C3 5473   2.140   5.817   2.667 -0.6789  0.7012 -0.6748
   59CHL1    H3 5474   2.219   5.739   2.663 -1.1512  0.1960 -0.3961
   59CHL1    O3 5475   2.094   5.840   2.535  0.2317 -0.0513 -0.5074
   59CHL1   H3' 5476   2.082   5.933   2.516  0.7548  0.0134 -0.5178
   59CHL1    C4 5477   2.028   5.766   2.765  0.1350  0.2632 -0.1187
   59CHL1   H4A 5478   1.952   5.847   2.767  0.5035  0.6658 -1.2230
   59CHL1   H4B 5479   1.980   5.677   2.720 -0.1141 -0.7573  2.0344
   59CHL1    C5 5480   2.071   5.732   2.907 -0.1300 -0.1141 -0.3608
   59CHL1    C6 5481   2.061   5.612   2.970  0.1156  0.9323  0.2763
   59CHL1    H6 5482   2.019   5.528   2.912 -2.5125  2.4042 -0.1158
   59CHL1    C7 5483   2.118   5.590   3.108 -0.0248 -0.6067 -0.6903
   59CHL1   H7A 5484   2.047   5.525   3.164 -0.9493  1.3877  0.5912
   59CHL1   H7B 5485   2.220   5.547   3.100  0.0290 -0.3182 -1.6499
   59CHL1    C8 5486   2.144   5.722   3.190 -0.1165 -0.3002  0.3128
   59CHL1    H8 5487   2.048   5.775   3.210  0.3608  0.5297  0.4381
   59CHL1   C14 5488   2.229   5.701   3.313  0.1176  0.6170 -0.1470
   59CHL1   H14 5489   2.330   5.673   3.275  0.7309  1.4710  0.7772
   59CHL1   C15 5490   2.174   5.590   3.403  0.1248  0.0093  0.2128
   59CHL1  H15A 5491   2.063   5.590   3.406  0.1332  0.6721  1.7214
   59CHL1  H15B 5492   2.188   5.485   3.371  2.8713  0.6119 -0.8107
   59CHL1   C16 5493   2.229   5.618   3.546  0.6085  0.5998  0.1027
   59CHL1  H16A 5494   2.149   5.614   3.623  0.3809  1.8116 -0.0637
   59CHL1  H16B 5495   2.286   5.525   3.571  0.1376  0.1417 -0.4970
   59CHL1   C17 5496   2.313   5.752   3.527 -0.0124 -0.7770  0.1779
   59CHL1   H17 5497   2.412   5.711   3.499  0.0060 -0.4454 -0.2455
   59CHL1   C13 5498   2.254   5.821   3.401  0.0176  0.0479  0.7839
   59CHL1   C18 5499   2.114   5.878   3.446 -0.2188 -0.3763  0.5338
   59CHL1  H18A 5500   2.051   5.800   3.493 -3.4507  1.2612 -0.7166
   59CHL1  H18B 5501   2.115   5.966   3.514 -1.0293  1.3713 -1.5877
   59CHL1  H18C 5502   2.060   5.911   3.354  1.2613 -0.3352 -0.3539
   59CHL1   C12 5503   2.337   5.914   3.310 -0.4568 -0.7313 -0.0361
   59CHL1  H12A 5504   2.367   6.007   3.364 -0.3434 -1.8052  1.8378
   59CHL1  H12B 5505   2.430   5.863   3.276 -0.4873  0.0679 -1.3989
   59CHL1   C11 5506   2.261   5.953   3.180  0.2050 -0.4285 -0.0745
   59CHL1  H11A 5507   2.179   6.018   3.215  2.3390  0.6844  3.2513
   59CHL1  H11B 5508   2.331   6.009   3.115 -0.0148  1.2189  1.0674
   59CHL1    C9 5509   2.215   5.829   3.102  0.2016  0.6948 -0.5397
   59CHL1    H9 5510   2.310   5.780   3.073  0.3420  0.4688  0.2802
   59CHL1   C10 5511   2.141   5.859   2.973  0.2435 -0.2578  0.6903
   59CHL1   C19 5512   2.029   5.957   3.006  0.1063  0.3131 -0.4936
   59CHL1  H19A 5513   1.973   5.986   2.915  0.5050  0.4779 -0.6876
   59CHL1  H19B 5514   1.966   5.924   3.092 -1.4540  0.4077 -1.5463
   59CHL1  H19C 5515   2.073   6.055   3.031  0.0686  0.2426 -0.1509
   59CHL1    C1 5516   2.241   5.913   2.865  0.0214  0.8914 -0.1714
   59CHL1   H1A 5517   2.270   6.012   2.905  0.1442  0.7714  0.0373
   59CHL1   H1B 5518   2.329   5.846   2.854 -1.4068 -1.0015 -0.6522
   59CHL1    C2 5519   2.195   5.939   2.720  0.4850 -0.5531 -0.4341
   59CHL1   H2A 5520   2.278   5.974   2.655 -0.3089  1.8253 -0.2700
   59CHL1   H2B 5521   2.129   6.027   2.734  1.6549  0.4085 -0.8062
   59CHL1   C20 5522   2.341   5.839   3.655 -0.5210 -0.7933 -0.1018
   59CHL1   H20 5523   2.287   5.936   3.647  0.7991 -0.0430 -0.1909
   59CHL1   C21 5524   2.492   5.872   3.647  0.4805  0.0006 -0.4497
   59CHL1  H21A 5525   2.557   5.784   3.629  0.7944  0.0675  0.3496
   59CHL1  H21B 5526   2.527   5.923   3.739  0.0414 -0.5955  0.0583
   59CHL1  H21C 5527   2.504   5.951   3.569  1.5256  1.0991  0.7885
   59CHL1   C22 5528   2.301   5.767   3.788 -0.2822 -0.0126 -0.6363
   59CHL1  H22A 5529   2.194   5.737   3.786 -0.4556  0.4857  0.3012
   59CHL1  H22B 5530   2.362   5.677   3.811  2.5662  2.5509  3.3262
   59CHL1   C23 5531   2.323   5.867   3.913 -0.0833  0.4640  0.1153
   59CHL1  H23A 5532   2.429   5.898   3.903  0.5548 -1.4442  0.4579
   59CHL1  H23B 5533   2.247   5.947   3.912 -0.2012  0.3601  0.5238
   59CHL1   C24 5534   2.320   5.777   4.044 -0.7190 -0.2770  0.9761
   59CHL1  H24A 5535   2.218   5.733   4.056 -1.0985  0.5687  0.9243
   59CHL1  H24B 5536   2.389   5.693   4.019 -0.4566 -0.0043  0.7833
   59CHL1   C25 5537   2.382   5.845   4.172 -0.0587 -0.6351  0.3734
   59CHL1   H25 5538   2.463   5.912   4.136 -0.3747 -1.1038 -1.2939
   59CHL1   C26 5539   2.283   5.918   4.260  0.1391 -0.7674 -0.2915
   59CHL1  H26A 5540   2.343   5.963   4.342 -1.6633  1.6643 -0.1880
   59CHL1  H26B 5541   2.251   6.006   4.200  0.6522 -0.3636  0.0248
   59CHL1  H26C 5542   2.196   5.857   4.292 -0.5385  0.5090  0.3809
   59CHL1   C27 5543   2.453   5.738   4.259  0.0285 -0.0550  0.0214
   59CHL1  H27A 5544   2.381   5.660   4.292 -0.2793  0.9129  1.7875
   59CHL1  H27B 5545   2.533   5.690   4.199 -0.3833  0.8894 -1.3289
   59CHL1  H27C 5546   2.492   5.788   4.351 -1.1104 -0.7217  0.9012
   60CHL1    C3 5547   5.996   4.545   2.696 -0.0010 -0.3301  0.6699
   60CHL1    H3 5548   5.942   4.640   2.675  1.3498 -0.1314 -2.5339
   60CHL1    O3 5549   6.030   4.514   2.562  0.1032 -0.1689 -0.4775
   60CHL1   H3' 5550   6.082   4.433   2.568 -0.0397 -0.1946  0.7923
   60CHL1    C4 5551   6.123   4.583   2.771  0.8937 -0.9219 -0.2191
   60CHL1   H4A 5552   6.192   4.497   2.775 -0.8761 -2.5054 -1.5412
   60CHL1   H4B 5553   6.173   4.662   2.711  0.7975  1.2191  2.3206
   60CHL1    C5 5554   6.090   4.636   2.903  0.6120 -0.0151  0.2944
   60CHL1    C6 5555   6.116   4.764   2.932  0.7157 -0.3459 -0.0316
   60CHL1    H6 5556   6.172   4.826   2.861  0.9261  0.9827  1.2337
   60CHL1    C7 5557   6.100   4.833   3.069  0.2785  0.3683 -0.5377
   60CHL1   H7A 5558   6.189   4.881   3.113 -0.0114 -0.2121  0.7298
   60CHL1   H7B 5559   6.023   4.913   3.076  0.6816  0.9804 -2.4792
   60CHL1    C8 5560   6.060   4.719   3.169  0.1929 -0.3192  0.3086
   60CHL1    H8 5561   6.145   4.654   3.200  0.5603  0.2701  0.5519
   60CHL1   C14 5562   6.003   4.778   3.297  0.1955 -0.0046  0.2651
   60CHL1   H14 5563   5.923   4.848   3.264  0.2443  1.2263  2.5728
   60CHL1   C15 5564   6.094   4.883   3.362 -0.2365 -0.0332 -0.1422
   60CHL1  H15A 5565   6.198   4.845   3.373 -0.6079 -1.0666 -0.0745
   60CHL1  H15B 5566   6.087   4.979   3.307  0.7335 -0.1812 -0.5420
   60CHL1   C16 5567   6.023   4.898   3.501  0.0258 -1.0524  0.5789
   60CHL1  H16A 5568   6.096   4.853   3.572 -0.8153 -2.2436  0.7122
   60CHL1  H16B 5569   6.004   5.002   3.534  1.9143 -1.0568  1.8445
   60CHL1   C17 5570   5.907   4.796   3.517 -0.0717  0.1642 -1.1507
   60CHL1   H17 5571   5.821   4.842   3.465 -0.1424  2.2968  0.7237
   60CHL1   C13 5572   5.949   4.686   3.408 -0.3948 -0.1282  0.5292
   60CHL1   C18 5573   6.066   4.600   3.465  0.4575  0.8585 -0.8033
   60CHL1  H18A 5574   6.162   4.649   3.492  0.1510  1.7512 -1.3066
   60CHL1  H18B 5575   6.035   4.559   3.564 -0.2271  1.3585 -0.8089
   60CHL1  H18C 5576   6.078   4.514   3.396 -1.0044  0.4676 -0.6035
   60CHL1   C12 5577   5.842   4.592   3.341  0.1179 -0.1739 -0.4732
   60CHL1  H12A 5578   5.806   4.514   3.412 -0.5651  0.2702 -0.3240
   60CHL1  H12B 5579   5.755   4.657   3.316  0.7079  1.3644  1.2712
   60CHL1   C11 5580   5.893   4.520   3.212  0.5207  0.0742 -0.0762
   60CHL1  H11A 5581   5.947   4.427   3.240  0.1560 -0.7092 -1.8464
   60CHL1  H11B 5582   5.802   4.482   3.163  0.2038  1.5319 -0.6737
   60CHL1    C9 5583   5.960   4.620   3.110  0.3051  0.1039 -0.4299
   60CHL1    H9 5584   5.873   4.683   3.080 -0.3286  0.1309  1.3749
   60CHL1   C10 5585   6.011   4.538   2.989 -0.2402  0.0706 -0.6919
   60CHL1   C19 5586   6.099   4.417   3.017 -0.1063 -0.6238  0.3061
   60CHL1  H19A 5587   6.194   4.448   3.064  0.1087  1.6574 -1.4616
   60CHL1  H19B 5588   6.056   4.343   3.089 -1.3607  0.2122  0.4491
   60CHL1  H19C 5589   6.119   4.354   2.928 -1.0594  1.0886 -1.1751
   60CHL1    C1 5590   5.886   4.488   2.911  0.5666 -0.1907 -0.2377
   60CHL1   H1A 5591   5.843   4.401   2.965 -1.8381  0.8260 -0.3920
   60CHL1   H1B 5592   5.803   4.560   2.896 -2.3303 -2.8970  1.5324
   60CHL1    C2 5593   5.919   4.442   2.765  0.4695 -0.8407 -0.4309
   60CHL1   H2A 5594   5.832   4.417   2.701  0.9316 -2.2610 -0.5383
   60CHL1   H2B 5595   5.986   4.353   2.766  1.4804 -0.0890  0.0913
   60CHL1   C20 5596   5.872   4.761   3.661 -0.1971 -0.0287 -0.8655
   60CHL1   H20 5597   5.953   4.698   3.706 -0.4539  0.8473  0.8930
   60CHL1   C21 5598   5.749   4.670   3.668 -0.2916  0.1237  0.3099
   60CHL1  H21A 5599   5.774   4.569   3.629  1.1420  0.5220  0.1534
   60CHL1  H21B 5600   5.661   4.706   3.610 -0.0040  1.2800  0.5654
   60CHL1  H21C 5601   5.726   4.660   3.776  2.1761 -1.4095  0.7674
   60CHL1   C22 5602   5.851   4.892   3.753 -0.7724 -0.1556 -0.1938
   60CHL1  H22A 5603   5.946   4.949   3.761 -1.7025  1.2384  1.7587
   60CHL1  H22B 5604   5.788   4.959   3.693 -0.6473 -1.1370 -1.4517
   60CHL1   C23 5605   5.828   4.869   3.906  0.2893 -0.0362 -0.0174
   60CHL1  H23A 5606   5.720   4.846   3.918  0.5158 -1.1046  0.0084
   60CHL1  H23B 5607   5.882   4.779   3.943 -1.0782 -0.7124  0.3984
   60CHL1   C24 5608   5.872   4.988   3.993  0.2739 -0.7052  0.5282
   60CHL1  H24A 5609   5.978   5.011   3.971  0.5830 -1.4983  1.1402
   60CHL1  H24B 5610   5.801   5.070   3.968 -1.6248 -2.3912  0.1360
   60CHL1   C25 5611   5.849   4.961   4.143 -0.7284 -0.2385  0.2556
   60CHL1   H25 5612   5.916   4.887   4.192  0.4282  1.1272  0.8147
   60CHL1   C26 5613   5.880   5.091   4.215 -0.3567  0.3526  0.5744
   60CHL1  H26A 5614   5.808   5.172   4.192  1.0615  1.6660  0.5977
   60CHL1  H26B 5615   5.879   5.070   4.324  1.7790  2.0466  1.0020
   60CHL1  H26C 5616   5.981   5.135   4.194 -0.9723  2.3354  1.5073
   60CHL1   C27 5617   5.706   4.926   4.181  0.8199 -0.2353 -0.0527
   60CHL1  H27A 5618   5.635   5.001   4.138 -0.3158 -0.9292  0.5525
   60CHL1  H27B 5619   5.676   4.825   4.146 -0.2793 -0.2355  0.8199
   60CHL1  H27C 5620   5.694   4.939   4.290 -0.1454  4.2261 -0.4912
   61CHL1    C3 5621   4.573   1.742   2.386 -1.0191 -0.1404 -0.4918
   61CHL1    H3 5622   4.605   1.837   2.338 -0.0985  0.0835  0.5209
   61CHL1    O3 5623   4.577   1.649   2.277  0.3451 -0.6035 -0.6717
   61CHL1   H3' 5624   4.514   1.579   2.297  2.7816 -2.2064  2.3313
   61CHL1    C4 5625   4.671   1.701   2.497  0.2124 -0.3165 -0.2807
   61CHL1   H4A 5626   4.646   1.599   2.533  1.0470  0.4263  2.6601
   61CHL1   H4B 5627   4.778   1.691   2.469 -0.0672 -0.3949 -1.3780
   61CHL1    C5 5628   4.658   1.808   2.610  0.2782 -0.1629 -0.3552
   61CHL1    C6 5629   4.769   1.869   2.659  0.4875  0.3705  0.1653
   61CHL1    H6 5630   4.865   1.839   2.614  1.3262 -0.0986  2.1626
   61CHL1    C7 5631   4.772   1.961   2.778 -0.0177 -0.7321  0.0913
   61CHL1   H7A 5632   4.865   1.951   2.838  0.9543  2.8733 -0.5378
   61CHL1   H7B 5633   4.769   2.068   2.747 -0.3545  0.1757  2.9521
   61CHL1    C8 5634   4.641   1.940   2.865 -0.3220  0.5472  0.1240
   61CHL1    H8 5635   4.650   1.842   2.917 -0.4401  0.7311  0.4910
   61CHL1   C14 5636   4.631   2.049   2.970  0.7421 -0.3067  0.2737
   61CHL1   H14 5637   4.635   2.144   2.913  0.3032 -0.8364 -0.6761
   61CHL1   C15 5638   4.743   2.061   3.084  0.6301 -0.4315  0.0771
   61CHL1  H15A 5639   4.750   1.956   3.121  3.2048 -0.6637 -0.8548
   61CHL1  H15B 5640   4.839   2.096   3.039  2.0207 -1.5743  1.9717
   61CHL1   C16 5641   4.671   2.142   3.193 -0.6002 -0.1154  0.4010
   61CHL1  H16A 5642   4.670   2.074   3.281 -0.6108 -1.7560 -0.8226
   61CHL1  H16B 5643   4.730   2.233   3.218  0.3287 -0.7391  0.5116
   61CHL1   C17 5644   4.529   2.177   3.144 -0.9033 -0.0189  0.0845
   61CHL1   H17 5645   4.541   2.265   3.077 -0.3376  0.2621  0.5430
   61CHL1   C13 5646   4.496   2.055   3.054  0.3655 -0.6853  0.9391
   61CHL1   C18 5647   4.465   1.931   3.139  0.2966 -0.1164 -0.1789
   61CHL1  H18A 5648   4.371   1.953   3.193  0.6183 -1.2049  0.8730
   61CHL1  H18B 5649   4.458   1.837   3.079  0.6876 -0.6825  0.6394
   61CHL1  H18C 5650   4.542   1.917   3.219 -0.4627 -0.5786  0.4903
   61CHL1   C12 5651   4.384   2.074   2.953 -0.1171 -0.5163  0.1256
   61CHL1  H12A 5652   4.288   2.083   3.008  0.6007  1.3602  1.2024
   61CHL1  H12B 5653   4.402   2.178   2.917  1.1603 -1.8838 -3.5959
   61CHL1   C11 5654   4.376   1.975   2.844 -0.3077  0.5183  0.4275
   61CHL1  H11A 5655   4.321   1.884   2.876  2.0908 -0.6121  1.6315
   61CHL1  H11B 5656   4.309   2.014   2.764  1.3896  0.8708 -0.8935
   61CHL1    C9 5657   4.519   1.944   2.778  0.7332  0.5251 -0.3212
   61CHL1    H9 5658   4.530   2.043   2.729  0.7271  1.7334  1.9723
   61CHL1   C10 5659   4.520   1.827   2.674 -0.1680  0.3102 -0.3548
   61CHL1   C19 5660   4.482   1.698   2.744 -1.2186 -0.0544 -0.5398
   61CHL1  H19A 5661   4.381   1.689   2.789 -0.4047  0.1198  1.4197
   61CHL1  H19B 5662   4.503   1.609   2.681 -0.2162 -0.6338  0.5643
   61CHL1  H19C 5663   4.546   1.686   2.834  0.6811 -0.1866 -1.8438
   61CHL1    C1 5664   4.428   1.861   2.560  0.4549 -0.7380  0.0804
   61CHL1   H1A 5665   4.323   1.869   2.597  0.3589  3.1774 -0.6368
   61CHL1   H1B 5666   4.458   1.962   2.527 -1.5661  0.1571  0.7842
   61CHL1    C2 5667   4.434   1.763   2.445  0.5551  0.8437  0.6853
   61CHL1   H2A 5668   4.364   1.802   2.368 -1.3471 -2.8104  0.3478
   61CHL1   H2B 5669   4.392   1.662   2.464 -0.5535  0.8586 -1.3390
   61CHL1   C20 5670   4.430   2.218   3.251 -0.0539 -0.5977 -0.3999
   61CHL1   H20 5671   4.379   2.124   3.282  0.7606 -0.8533  0.2004
   61CHL1   C21 5672   4.322   2.309   3.190 -0.2290  0.3485  0.0749
   61CHL1  H21A 5673   4.352   2.414   3.169  0.3221 -0.0877 -1.3963
   61CHL1  H21B 5674   4.233   2.325   3.255 -0.2792 -1.2779  0.4332
   61CHL1  H21C 5675   4.281   2.252   3.104  0.7440  0.0247 -0.1898
   61CHL1   C22 5676   4.480   2.278   3.385  0.0544  0.2624 -0.3626
   61CHL1  H22A 5677   4.538   2.198   3.437 -0.3053 -1.4176 -2.4253
   61CHL1  H22B 5678   4.551   2.361   3.367  0.8849  0.2262  2.2803
   61CHL1   C23 5679   4.374   2.325   3.485 -0.5980 -0.0996  0.3055
   61CHL1  H23A 5680   4.319   2.407   3.434 -0.4150  0.0781  0.3946
   61CHL1  H23B 5681   4.308   2.240   3.512  1.0227 -1.3308  0.5435
   61CHL1   C24 5682   4.443   2.382   3.612 -0.3893  0.4325 -0.0407
   61CHL1  H24A 5683   4.517   2.312   3.656 -0.8943  0.9462  1.6948
   61CHL1  H24B 5684   4.499   2.474   3.585  0.9403 -0.3066  0.1130
   61CHL1   C25 5685   4.333   2.420   3.712  0.4668 -0.1048  0.8736
   61CHL1   H25 5686   4.254   2.469   3.653  1.2668 -0.3307 -0.4214
   61CHL1   C26 5687   4.258   2.306   3.786 -0.3887 -0.2383 -0.0380
   61CHL1  H26A 5688   4.214   2.227   3.722  0.0609 -0.8412  0.3787
   61CHL1  H26B 5689   4.328   2.261   3.860 -0.8505 -0.1232  0.4699
   61CHL1  H26C 5690   4.185   2.343   3.861 -0.7570 -0.0782 -0.4720
   61CHL1   C27 5691   4.390   2.514   3.812  0.7895 -0.1903  0.0239
   61CHL1  H27A 5692   4.459   2.464   3.883  1.0716  0.5489  0.2822
   61CHL1  H27B 5693   4.445   2.600   3.768  1.6786 -0.3723  0.7413
   61CHL1  H27C 5694   4.311   2.562   3.872  0.3122  0.2551 -0.9337
   62CHL1    C3 5695   2.848   6.192   2.855  0.0377  0.3072  0.0476
   62CHL1    H3 5696   2.886   6.093   2.890 -0.5725 -1.1393 -3.0557
   62CHL1    O3 5697   2.849   6.177   2.710  0.3096  0.7608 -0.1848
   62CHL1   H3' 5698   2.835   6.268   2.682 -0.3376  1.4276  2.0549
   62CHL1    C4 5699   2.708   6.231   2.890  0.3049 -0.2801 -0.6680
   62CHL1   H4A 5700   2.680   6.322   2.833 -0.7310  0.0764  0.3814
   62CHL1   H4B 5701   2.634   6.153   2.864 -0.0444 -0.0019 -0.5143
   62CHL1    C5 5702   2.699   6.256   3.042 -0.0592  0.4659 -0.1932
   62CHL1    C6 5703   2.602   6.197   3.115  0.7741  0.3409 -0.4865
   62CHL1    H6 5704   2.532   6.124   3.071 -2.0322  1.3774  1.9524
   62CHL1    C7 5705   2.581   6.225   3.263  0.0387  0.3882  0.1065
   62CHL1   H7A 5706   2.474   6.223   3.295  0.0826  0.8740  0.2811
   62CHL1   H7B 5707   2.618   6.131   3.310 -1.2395  0.0290  0.4409
   62CHL1    C8 5708   2.643   6.356   3.315 -0.2812 -0.1117  0.1573
   62CHL1    H8 5709   2.572   6.433   3.277  0.4418 -0.3747 -1.8178
   62CHL1   C14 5710   2.659   6.349   3.464 -0.4787 -0.0447 -0.5026
   62CHL1   H14 5711   2.733   6.269   3.484  0.4230  0.0177 -3.1897
   62CHL1   C15 5712   2.531   6.313   3.552  0.2968 -0.5408 -0.4369
   62CHL1  H15A 5713   2.443   6.370   3.517 -0.0149 -0.6254  0.1991
   62CHL1  H15B 5714   2.505   6.205   3.556 -2.5138  0.0996  1.0172
   62CHL1   C16 5715   2.567   6.371   3.689  0.8440  0.0149  0.5666
   62CHL1  H16A 5716   2.475   6.424   3.723 -1.9587 -3.6394 -0.5651
   62CHL1  H16B 5717   2.569   6.287   3.762 -3.7333 -0.3883  0.5430
   62CHL1   C17 5718   2.697   6.456   3.677  1.0542 -0.0220  0.8793
   62CHL1   H17 5719   2.781   6.387   3.699  2.0417 -0.3831 -3.2043
   62CHL1   C13 5720   2.711   6.482   3.523 -0.2478 -0.7325  0.5289
   62CHL1   C18 5721   2.611   6.601   3.489 -0.7399 -0.1796 -0.2322
   62CHL1  H18A 5722   2.513   6.585   3.538  0.0947  0.9403  1.9151
   62CHL1  H18B 5723   2.658   6.695   3.523  4.5511 -2.3551 -0.5216
   62CHL1  H18C 5724   2.593   6.621   3.381 -0.1075 -0.1729 -0.3436
   62CHL1   C12 5725   2.851   6.506   3.462  0.7107 -0.3493 -0.0762
   62CHL1  H12A 5726   2.880   6.610   3.486  0.7379  0.0371 -1.7150
   62CHL1  H12B 5727   2.932   6.439   3.501 -0.4774 -1.7657  0.0472
   62CHL1   C11 5728   2.842   6.511   3.306  0.2208  0.3723  0.1423
   62CHL1  H11A 5729   2.767   6.587   3.276 -2.0219 -1.7030  0.1575
   62CHL1  H11B 5730   2.935   6.544   3.254  0.3330  0.4447  0.3895
   62CHL1    C9 5731   2.784   6.378   3.249 -0.1796 -0.0239 -0.0208
   62CHL1    H9 5732   2.851   6.304   3.299 -2.4004 -3.2902 -1.5446
   62CHL1   C10 5733   2.792   6.366   3.099  0.9678 -0.2235 -0.5262
   62CHL1   C19 5734   2.743   6.506   3.044  0.1469  0.6720 -0.2002
   62CHL1  H19A 5735   2.729   6.500   2.934 -2.6972  0.6195  0.1064
   62CHL1  H19B 5736   2.640   6.518   3.084 -0.0907 -2.1662  0.2499
   62CHL1  H19C 5737   2.816   6.588   3.060 -0.8499  1.7083 -0.8113
   62CHL1    C1 5738   2.939   6.332   3.042  0.1573 -0.8678  0.0627
   62CHL1   H1A 5739   3.010   6.409   3.077 -2.0401  1.5736 -0.5620
   62CHL1   H1B 5740   2.965   6.244   3.105  0.7109 -2.3606 -2.0921
   62CHL1    C2 5741   2.960   6.296   2.900  0.6199  0.3477 -0.4652
   62CHL1   H2A 5742   3.062   6.259   2.876  1.5705  1.1333  2.0180
   62CHL1   H2B 5743   2.943   6.381   2.830 -0.2588 -1.3676 -2.4368
   62CHL1   C20 5744   2.695   6.569   3.770 -0.6664 -0.2180 -0.2574
   62CHL1   H20 5745   2.616   6.641   3.739  0.9156  3.0681  2.6325
   62CHL1   C21 5746   2.832   6.639   3.768  0.1770 -0.3861 -0.3574
   62CHL1  H21A 5747   2.821   6.714   3.686  0.6888  0.3126  0.2014
   62CHL1  H21B 5748   2.916   6.569   3.747  0.9894  1.0405 -2.2081
   62CHL1  H21C 5749   2.846   6.691   3.865  1.3267  0.7259 -1.0724
   62CHL1   C22 5750   2.650   6.535   3.913  0.5249  0.2772 -0.1160
   62CHL1  H22A 5751   2.632   6.630   3.967 -0.2261 -1.7438  3.5118
   62CHL1  H22B 5752   2.548   6.490   3.911  0.5920  0.0156  1.1860
   62CHL1   C23 5753   2.750   6.443   3.993  0.5979  0.6788 -0.5761
   62CHL1  H23A 5754   2.780   6.347   3.944 -0.9568  0.1670 -0.5869
   62CHL1  H23B 5755   2.849   6.493   3.993  1.2537 -0.5799 -0.2083
   62CHL1   C24 5756   2.695   6.415   4.137 -0.9488  0.5389 -0.2985
   62CHL1  H24A 5757   2.780   6.366   4.191  1.2193  1.9491 -2.2154
   62CHL1  H24B 5758   2.683   6.519   4.175  1.7182  0.2241  1.7422
   62CHL1   C25 5759   2.561   6.342   4.152 -0.2712  0.4101 -0.6551
   62CHL1   H25 5760   2.479   6.394   4.096 -0.5275 -2.9204 -3.7528
   62CHL1   C26 5761   2.562   6.198   4.087  0.6769 -0.4483 -0.5642
   62CHL1  H26A 5762   2.643   6.134   4.127  0.8829 -0.3260 -0.7871
   62CHL1  H26B 5763   2.466   6.143   4.095  1.2958 -1.8991 -2.4623
   62CHL1  H26C 5764   2.587   6.205   3.979  0.4923 -1.9253 -0.7182
   62CHL1   C27 5765   2.525   6.340   4.299 -0.2691  0.0679  0.1898
   62CHL1  H27A 5766   2.423   6.299   4.316 -1.8476  2.3618 -2.7992
   62CHL1  H27B 5767   2.601   6.274   4.346  0.5615 -0.2392 -1.5237
   62CHL1  H27C 5768   2.531   6.443   4.340 -1.5662 -0.6068  2.2368
   63CHL1    C3 5769   5.024   4.671   2.900  1.0706  0.9812  0.5485
   63CHL1    H3 5770   4.920   4.685   2.937  1.3952 -0.6924  2.2637
   63CHL1    O3 5771   5.037   4.604   2.777  0.6960 -0.1678  0.1243
   63CHL1   H3' 5772   5.128   4.585   2.754  0.5419 -0.9601  0.1207
   63CHL1    C4 5773   5.098   4.803   2.898  0.6239  0.0135  0.4169
   63CHL1   H4A 5774   5.197   4.794   2.848  0.5556  0.8428  0.1170
   63CHL1   H4B 5775   5.047   4.872   2.828 -2.5235 -2.7134 -0.2047
   63CHL1    C5 5776   5.117   4.863   3.040 -0.2189 -0.2027 -0.2181
   63CHL1    C6 5777   5.083   4.983   3.074 -0.0179 -0.2021 -0.1900
   63CHL1    H6 5778   5.022   5.032   2.997 -1.4184 -0.6822  0.5780
   63CHL1    C7 5779   5.112   5.048   3.211 -0.3187  0.8305 -0.0252
   63CHL1   H7A 5780   5.143   5.154   3.198 -0.6531  1.2199  2.0350
   63CHL1   H7B 5781   5.023   5.048   3.277  0.0866  0.6421  0.5336
   63CHL1    C8 5782   5.232   4.970   3.290  0.4768 -1.0762  0.6922
   63CHL1    H8 5783   5.329   4.999   3.244  0.3620 -1.7559  0.0011
   63CHL1   C14 5784   5.240   5.013   3.436 -0.7493 -0.2510 -0.8679
   63CHL1   H14 5785   5.144   4.982   3.483 -1.1430 -1.0528 -2.1660
   63CHL1   C15 5786   5.242   5.164   3.465  0.0120  0.5194 -0.7714
   63CHL1  H15A 5787   5.307   5.205   3.385  0.2987  0.1804 -0.7177
   63CHL1  H15B 5788   5.143   5.213   3.452  0.2688  0.8814 -1.3886
   63CHL1   C16 5789   5.287   5.164   3.612 -0.6451  0.1222  0.0176
   63CHL1  H16A 5790   5.370   5.234   3.633  0.0603  0.0459 -2.2660
   63CHL1  H16B 5791   5.200   5.190   3.677  0.2307  2.8209  0.2269
   63CHL1   C17 5792   5.328   5.019   3.654 -0.0047  0.4380 -0.0127
   63CHL1   H17 5793   5.232   4.974   3.688  0.1708 -0.4278 -0.6409
   63CHL1   C13 5794   5.347   4.943   3.520  0.5021 -0.6549  0.0711
   63CHL1   C18 5795   5.491   4.977   3.474  1.2888 -0.4836 -0.4252
   63CHL1  H18A 5796   5.554   4.915   3.541  1.4886  0.2900  0.1170
   63CHL1  H18B 5797   5.508   4.952   3.366 -1.7591  1.9033 -1.5926
   63CHL1  H18C 5798   5.521   5.084   3.477 -0.3897  0.0295 -1.0212
   63CHL1   C12 5799   5.311   4.794   3.511  0.0310 -0.2444  0.4634
   63CHL1  H12A 5800   5.394   4.731   3.551  1.0094  0.5881 -0.1985
   63CHL1  H12B 5801   5.209   4.775   3.551 -0.7922  1.5861 -0.6563
   63CHL1   C11 5802   5.312   4.747   3.368  0.3255 -0.4795 -0.4459
   63CHL1  H11A 5803   5.415   4.747   3.327 -0.2874 -3.4011 -2.3086
   63CHL1  H11B 5804   5.288   4.639   3.359  0.1740 -0.3917 -1.1496
   63CHL1    C9 5805   5.207   4.818   3.283 -1.0389  0.0602  0.4235
   63CHL1    H9 5806   5.106   4.790   3.321 -0.9607 -0.6018  0.1689
   63CHL1   C10 5807   5.188   4.764   3.135  0.1973 -0.1408 -0.4736
   63CHL1   C19 5808   5.329   4.744   3.077  0.5792 -0.4467 -0.6478
   63CHL1  H19A 5809   5.327   4.707   2.972 -1.5826 -0.4793 -0.6473
   63CHL1  H19B 5810   5.388   4.838   3.079  1.2283 -0.7554 -2.5662
   63CHL1  H19C 5811   5.381   4.666   3.136 -0.6102 -0.3493  0.5735
   63CHL1    C1 5812   5.112   4.629   3.134  0.3471 -0.0961  0.5863
   63CHL1   H1A 5813   5.169   4.556   3.197 -1.4066 -1.1259  1.0385
   63CHL1   H1B 5814   5.013   4.645   3.180 -1.2818  1.2382 -3.0442
   63CHL1    C2 5815   5.087   4.570   2.996  0.6735  0.1073  0.0053
   63CHL1   H2A 5816   5.014   4.488   3.012  0.9459 -0.7951 -2.8460
   63CHL1   H2B 5817   5.177   4.522   2.954 -1.3121 -2.0978 -2.0004
   63CHL1   C20 5818   5.421   5.018   3.774  0.0714  0.7002  0.4417
   63CHL1   H20 5819   5.527   5.026   3.745  0.0638  1.5574  0.6410
   63CHL1   C21 5820   5.410   4.880   3.841 -0.0348  0.3730 -0.6312
   63CHL1  H21A 5821   5.494   4.871   3.913  0.0005 -0.6578 -0.7840
   63CHL1  H21B 5822   5.412   4.801   3.763 -1.6244  1.5736 -1.9631
   63CHL1  H21C 5823   5.319   4.876   3.904  2.0065 -2.3433  2.4916
   63CHL1   C22 5824   5.377   5.130   3.874 -0.1416 -0.0139 -0.5643
   63CHL1  H22A 5825   5.406   5.229   3.831 -0.0835 -0.6345 -2.0037
   63CHL1  H22B 5826   5.269   5.121   3.895  0.0580 -1.5619 -0.0948
   63CHL1   C23 5827   5.457   5.127   4.001 -0.5737 -0.8080 -0.0800
   63CHL1  H23A 5828   5.437   5.033   4.057 -0.2281 -0.6346  0.3459
   63CHL1  H23B 5829   5.566   5.124   3.980 -0.9334 -0.7251 -2.1250
   63CHL1   C24 5830   5.408   5.239   4.101  0.0497 -0.5382  1.0331
   63CHL1  H24A 5831   5.479   5.262   4.183 -0.1987  1.4111  0.7573
   63CHL1  H24B 5832   5.391   5.331   4.041  0.1603  1.0596  3.3088
   63CHL1   C25 5833   5.263   5.218   4.170 -0.4868  0.3914  0.4862
   63CHL1   H25 5834   5.198   5.188   4.086 -1.1669  1.5966  0.5626
   63CHL1   C26 5835   5.256   5.103   4.273  0.0482  0.1115 -0.3004
   63CHL1  H26A 5836   5.296   5.006   4.236 -1.7512 -0.8576  0.1694
   63CHL1  H26B 5837   5.310   5.121   4.368  0.6554  0.7038 -0.7470
   63CHL1  H26C 5838   5.155   5.080   4.313  1.3389 -1.1834  2.5389
   63CHL1   C27 5839   5.211   5.345   4.227 -0.5284  0.8508 -0.0597
   63CHL1  H27A 5840   5.271   5.366   4.318 -0.9562  2.6896 -0.1760
   63CHL1  H27B 5841   5.234   5.423   4.152 -0.9332 -1.1868 -2.4596
   63CHL1  H27C 5842   5.104   5.320   4.247 -0.4361 -4.7253 -4.0966
   64CHL1    C3 5843   1.962   2.239   2.927  0.1863 -0.2928  0.2064
   64CHL1    H3 5844   1.888   2.321   2.942  1.4438  1.4266 -2.2232
   64CHL1    O3 5845   1.981   2.234   2.778 -0.0272  0.4893  0.1494
   64CHL1   H3' 5846   2.023   2.150   2.760  1.5886  1.1955  0.4669
   64CHL1    C4 5847   2.086   2.288   2.997  0.7265 -0.1139 -0.0608
   64CHL1   H4A 5848   2.171   2.224   2.964 -0.4216 -1.0513 -1.3409
   64CHL1   H4B 5849   2.102   2.392   2.963  1.0163 -0.9426 -2.6855
   64CHL1    C5 5850   2.058   2.280   3.150 -0.2566 -0.3583  0.2812
   64CHL1    C6 5851   2.089   2.387   3.221 -0.0685  0.0209 -0.2639
   64CHL1    H6 5852   2.139   2.476   3.181 -1.5070  0.8538 -0.2706
   64CHL1    C7 5853   2.070   2.400   3.368  0.2139 -0.4922 -0.6695
   64CHL1   H7A 5854   2.154   2.461   3.409 -0.8591  0.5924  0.0068
   64CHL1   H7B 5855   1.976   2.457   3.388 -0.9115 -2.9265  1.4711
   64CHL1    C8 5856   2.060   2.264   3.434  0.8411 -0.7186 -0.4334
   64CHL1    H8 5857   2.154   2.206   3.448 -0.1203 -2.0777  0.7009
   64CHL1   C14 5858   2.000   2.270   3.578 -0.6485 -0.7923 -0.2770
   64CHL1   H14 5859   1.904   2.321   3.558  0.4905  0.5988 -2.5856
   64CHL1   C15 5860   2.069   2.365   3.682 -0.6135  0.0939 -0.5412
   64CHL1  H15A 5861   2.180   2.354   3.686 -0.3591  2.5370  1.0301
   64CHL1  H15B 5862   2.046   2.469   3.650  1.7976  0.9159  0.1715
   64CHL1   C16 5863   2.002   2.325   3.810 -0.1103  0.8689  0.1044
   64CHL1  H16A 5864   2.087   2.312   3.880 -0.1069  0.3642  0.0094
   64CHL1  H16B 5865   1.940   2.410   3.846  1.0353  2.0027 -0.4927
   64CHL1   C17 5866   1.929   2.192   3.793  0.1359 -0.2065  0.8824
   64CHL1   H17 5867   1.819   2.210   3.788  0.2304  1.2128  2.7982
   64CHL1   C13 5868   1.969   2.142   3.655  0.1773 -0.1363 -1.1537
   64CHL1   C18 5869   2.101   2.058   3.664  0.2623 -0.0849 -0.1251
   64CHL1  H18A 5870   2.089   1.969   3.731 -0.6172  1.7420  2.2998
   64CHL1  H18B 5871   2.132   2.023   3.563 -0.1443  0.8755 -0.5879
   64CHL1  H18C 5872   2.186   2.117   3.706  0.8921 -1.6051  0.8409
   64CHL1   C12 5873   1.868   2.056   3.573  0.3007  0.1316  0.7684
   64CHL1  H12A 5874   1.843   1.963   3.628 -0.9171  2.3359  4.2256
   64CHL1  H12B 5875   1.769   2.107   3.572 -0.1748 -0.7210 -0.9645
   64CHL1   C11 5876   1.914   2.039   3.428  0.0300 -0.1677 -0.3697
   64CHL1  H11A 5877   2.001   1.971   3.416 -1.4547 -1.9084 -1.5957
   64CHL1  H11B 5878   1.836   1.984   3.372  1.0302 -2.5133  0.3959
   64CHL1    C9 5879   1.959   2.175   3.353  0.0844  0.4862  0.0529
   64CHL1    H9 5880   1.867   2.236   3.347  0.4924  0.9672 -2.4284
   64CHL1   C10 5881   1.994   2.152   3.201 -0.5622  0.4665  0.0222
   64CHL1   C19 5882   2.115   2.050   3.189 -0.2637 -0.2509  0.1954
   64CHL1  H19A 5883   2.089   1.951   3.231 -0.4737 -0.3532 -0.1682
   64CHL1  H19B 5884   2.153   2.033   3.085 -0.3242 -0.5334  0.2177
   64CHL1  H19C 5885   2.200   2.094   3.246  0.3648 -1.0576 -0.0992
   64CHL1    C1 5886   1.873   2.102   3.118 -0.2231  0.6452  0.0358
   64CHL1   H1A 5887   1.836   2.000   3.142  0.8726  0.6424  1.9565
   64CHL1   H1B 5888   1.788   2.170   3.140  0.9731  1.6992  1.7083
   64CHL1    C2 5889   1.903   2.101   2.970  0.1107 -0.2080  0.0543
   64CHL1   H2A 5890   1.807   2.086   2.916 -0.8016  1.2545  1.1543
   64CHL1   H2B 5891   1.971   2.018   2.942 -0.6514 -0.6820 -0.4062
   64CHL1   C20 5892   1.925   2.107   3.920  0.4554 -0.4565 -1.2924
   64CHL1   H20 5893   2.028   2.073   3.945 -0.3571 -0.5996  2.5275
   64CHL1   C21 5894   1.844   1.980   3.893  0.3209 -0.1376  0.4927
   64CHL1  H21A 5895   1.881   1.920   3.807 -0.1766  0.8729 -0.4462
   64CHL1  H21B 5896   1.742   2.001   3.855  0.4853 -0.5926 -0.2147
   64CHL1  H21C 5897   1.846   1.902   3.972  0.2346 -1.2588 -0.5830
   64CHL1   C22 5898   1.862   2.175   4.039  0.1741  0.2363 -0.6217
   64CHL1  H22A 5899   1.905   2.277   4.048  0.6829  0.0838 -1.2660
   64CHL1  H22B 5900   1.752   2.185   4.029 -0.0200 -1.2999 -0.2652
   64CHL1   C23 5901   1.885   2.097   4.175 -0.2952 -1.0473 -0.1756
   64CHL1  H23A 5902   1.822   2.008   4.193 -0.2179 -1.0251  0.2245
   64CHL1  H23B 5903   1.994   2.073   4.171 -0.2023 -0.8244  0.6635
   64CHL1   C24 5904   1.875   2.181   4.303 -0.2061 -0.5406 -0.3601
   64CHL1  H24A 5905   1.928   2.129   4.385 -0.8940  0.2889  0.6272
   64CHL1  H24B 5906   1.912   2.285   4.289  0.1818 -0.4897  0.9149
   64CHL1   C25 5907   1.735   2.197   4.371  0.3994  0.1155  0.3564
   64CHL1   H25 5908   1.677   2.103   4.357  0.4786  0.3745 -1.9956
   64CHL1   C26 5909   1.744   2.242   4.525  0.0232 -0.3300 -0.4813
   64CHL1  H26A 5910   1.648   2.247   4.581  0.8728 -1.0021  1.1106
   64CHL1  H26B 5911   1.808   2.168   4.578  0.5108 -1.7960 -2.9410
   64CHL1  H26C 5912   1.806   2.335   4.515 -0.0414 -0.2000  0.2779
   64CHL1   C27 5913   1.650   2.303   4.303 -0.8115 -0.9649  0.4063
   64CHL1  H27A 5914   1.708   2.398   4.292 -0.4968 -1.2973 -1.1484
   64CHL1  H27B 5915   1.621   2.264   4.203  0.5672 -1.2908  0.1133
   64CHL1  H27C 5916   1.555   2.327   4.356 -0.4587 -0.4116  0.8028
   65CHL1    C3 5917   0.554   0.864   2.812 -0.4382 -0.2980  0.3028
   65CHL1    H3 5918   0.509   0.966   2.815  1.1861  0.5031 -0.8484
   65CHL1    O3 5919   0.571   0.824   2.676  0.1775 -0.8469 -0.4093
   65CHL1   H3' 5920   0.636   0.753   2.673  0.9284 -0.1605 -0.7009
   65CHL1    C4 5921   0.694   0.860   2.877 -0.3378 -0.5098 -0.2841
   65CHL1   H4A 5922   0.740   0.759   2.877  0.5400 -0.2301  2.9729
   65CHL1   H4B 5923   0.765   0.920   2.817 -1.6544 -0.0171 -1.3826
   65CHL1    C5 5924   0.674   0.920   3.017  0.0608  0.6792  0.7291
   65CHL1    C6 5925   0.736   1.040   3.051  0.2119  0.4267 -0.0394
   65CHL1    H6 5926   0.803   1.084   2.976  0.2113 -3.1244 -2.3715
   65CHL1    C7 5927   0.730   1.103   3.189 -0.5342 -0.2298 -0.3189
   65CHL1   H7A 5928   0.832   1.121   3.229 -1.1237 -2.1583  2.3124
   65CHL1   H7B 5929   0.672   1.198   3.193 -1.4747 -0.8331  2.8089
   65CHL1    C8 5930   0.674   1.002   3.301  0.0187  0.4209 -0.4865
   65CHL1    H8 5931   0.749   0.928   3.335 -0.7858  0.0738  0.5553
   65CHL1   C14 5932   0.625   1.082   3.418 -0.5682  0.5938  0.0492
   65CHL1   H14 5933   0.549   1.146   3.370  0.4483  1.8199  0.0235
   65CHL1   C15 5934   0.717   1.187   3.477 -0.6891 -0.4153 -0.0607
   65CHL1  H15A 5935   0.815   1.136   3.494 -1.6833 -1.9712  1.4121
   65CHL1  H15B 5936   0.735   1.280   3.420  0.6279 -0.4629  0.2339
   65CHL1   C16 5937   0.649   1.229   3.604 -0.7229  0.1588 -0.4837
   65CHL1  H16A 5938   0.718   1.247   3.690 -0.0710 -0.6349 -0.8219
   65CHL1  H16B 5939   0.593   1.322   3.579 -2.1018 -1.2189 -2.8182
   65CHL1   C17 5940   0.537   1.122   3.632 -0.4738  0.2972  0.4431
   65CHL1   H17 5941   0.439   1.164   3.601 -0.6732 -1.5810 -1.7812
   65CHL1   C13 5942   0.560   1.003   3.527  1.0683 -0.7912 -0.3404
   65CHL1   C18 5943   0.675   0.908   3.586  0.3738 -0.2083 -0.3140
   65CHL1  H18A 5944   0.720   0.841   3.509  1.1789  1.1282 -1.0311
   65CHL1  H18B 5945   0.756   0.972   3.626  0.3557  0.1290 -0.8108
   65CHL1  H18C 5946   0.633   0.841   3.664  0.0295  0.5728  0.1828
   65CHL1   C12 5947   0.444   0.923   3.471  0.1287 -0.1895 -0.6807
   65CHL1  H12A 5948   0.397   0.863   3.552 -0.1320 -0.4190 -0.9990
   65CHL1  H12B 5949   0.360   0.993   3.452 -1.2332 -1.4962  0.2448
   65CHL1   C11 5950   0.482   0.842   3.352 -0.2090  0.4357  0.3119
   65CHL1  H11A 5951   0.549   0.761   3.388 -1.0415  0.1102  1.1739
   65CHL1  H11B 5952   0.389   0.790   3.321  1.7201 -1.1985 -3.3410
   65CHL1    C9 5953   0.550   0.927   3.249 -0.2713  0.1482 -0.2502
   65CHL1    H9 5954   0.473   0.999   3.215 -2.9775 -3.3695 -2.2283
   65CHL1   C10 5955   0.584   0.854   3.118  1.0402  0.1117 -0.3353
   65CHL1   C19 5956   0.654   0.720   3.162  0.7708 -0.6257 -0.4595
   65CHL1  H19A 5957   0.687   0.662   3.072  0.9608 -0.6537 -0.3712
   65CHL1  H19B 5958   0.737   0.749   3.229  0.7446  2.5658 -1.6695
   65CHL1  H19C 5959   0.581   0.652   3.212 -0.2558  0.9239  0.2125
   65CHL1    C1 5960   0.451   0.821   3.038 -0.0275  0.6990  0.0382
   65CHL1   H1A 5961   0.395   0.735   3.081 -0.2255  1.6259  1.7095
   65CHL1   H1B 5962   0.391   0.915   3.034  0.9908  1.3318 -2.2669
   65CHL1    C2 5963   0.465   0.771   2.889 -0.0137  0.3893 -0.1857
   65CHL1   H2A 5964   0.364   0.777   2.843  0.5449  0.4387 -1.4488
   65CHL1   H2B 5965   0.500   0.666   2.893 -1.2156 -0.0276 -0.2451
   65CHL1   C20 5966   0.519   1.089   3.781  0.2800  0.0052  0.2553
   65CHL1   H20 5967   0.615   1.043   3.813  1.7754  1.8177 -1.3194
   65CHL1   C21 5968   0.405   0.991   3.805  0.7315 -0.6257 -0.0405
   65CHL1  H21A 5969   0.419   0.897   3.747 -1.0234 -0.6272 -0.5184
   65CHL1  H21B 5970   0.312   1.031   3.759  0.5903  0.5226  1.1992
   65CHL1  H21C 5971   0.392   0.979   3.915  0.6363  2.3421  0.3333
   65CHL1   C22 5972   0.499   1.219   3.876  0.1603  0.1742 -0.7857
   65CHL1  H22A 5973   0.478   1.183   3.979  0.0537 -0.3878 -0.9979
   65CHL1  H22B 5974   0.600   1.264   3.882  0.0593  0.2580  0.4152
   65CHL1   C23 5975   0.389   1.318   3.830 -0.1830 -0.2309  0.3643
   65CHL1  H23A 5976   0.405   1.333   3.721 -0.8554 -1.0210  0.1440
   65CHL1  H23B 5977   0.288   1.271   3.840 -0.2893 -0.0131  0.3299
   65CHL1   C24 5978   0.402   1.443   3.909 -0.4121  0.2985  0.2072
   65CHL1  H24A 5979   0.457   1.427   4.004 -1.6034 -0.0813  0.8498
   65CHL1  H24B 5980   0.467   1.520   3.861 -1.3478  3.4192  3.4865
   65CHL1   C25 5981   0.275   1.522   3.953 -0.0527  0.5871 -0.0755
   65CHL1   H25 5982   0.205   1.456   4.009 -1.0234  1.4735 -0.2062
   65CHL1   C26 5983   0.307   1.641   4.046  0.6002  0.1433  0.4124
   65CHL1  H26A 5984   0.225   1.687   4.105 -0.1984 -1.7773  0.8622
   65CHL1  H26B 5985   0.395   1.607   4.105  0.5050  1.0376  1.0916
   65CHL1  H26C 5986   0.348   1.724   3.983 -0.5206  1.1341  0.9494
   65CHL1   C27 5987   0.190   1.571   3.836 -0.1682 -0.0171  0.7341
   65CHL1  H27A 5988   0.156   1.485   3.775  0.1553  0.4497 -0.1215
   65CHL1  H27B 5989   0.095   1.617   3.871  1.2883  3.1806  0.8646
   65CHL1  H27C 5990   0.234   1.653   3.775 -0.1209 -0.5207  0.0777
   66CHL1    C3 5991   2.561   2.827   3.008  0.6384  0.1487  0.1479
   66CHL1    H3 5992   2.597   2.732   3.052  0.6521  0.3934  0.6772
   66CHL1    O3 5993   2.585   2.850   2.866  0.0190 -0.2270  0.1519
   66CHL1   H3' 5994   2.548   2.931   2.830 -1.2731 -0.1615  1.5398
   66CHL1    C4 5995   2.405   2.834   3.017 -0.0561  0.2321  0.1042
   66CHL1   H4A 5996   2.382   2.926   2.960 -0.6892 -0.3015 -0.5154
   66CHL1   H4B 5997   2.373   2.741   2.966 -2.2362  1.4289 -0.8390
   66CHL1    C5 5998   2.348   2.843   3.153 -0.2335 -0.2055  0.1880
   66CHL1    C6 5999   2.245   2.764   3.193  0.1762  0.2208 -0.1657
   66CHL1    H6 6000   2.197   2.690   3.128  0.3279 -2.3741  2.4433
   66CHL1    C7 6001   2.181   2.775   3.328 -0.9066 -0.1843  0.1707
   66CHL1   H7A 6002   2.070   2.769   3.322 -0.9257 -0.3127  0.6497
   66CHL1   H7B 6003   2.212   2.687   3.387 -0.4785  0.3125  0.6992
   66CHL1    C8 6004   2.228   2.893   3.413 -0.0223  0.8326  0.7854
   66CHL1    H8 6005   2.173   2.984   3.380 -0.7372 -0.3218 -1.4173
   66CHL1   C14 6006   2.194   2.867   3.561 -0.7487 -0.3403 -0.3824
   66CHL1   H14 6007   2.263   2.784   3.587  0.2732  0.9724  1.2885
   66CHL1   C15 6008   2.058   2.817   3.594  0.5521  0.4690 -0.4986
   66CHL1  H15A 6009   1.974   2.875   3.551 -2.2735 -1.4392  1.9213
   66CHL1  H15B 6010   2.036   2.712   3.565  0.2913  0.0772  0.9993
   66CHL1   C16 6011   2.061   2.819   3.748  0.0403 -0.2228 -0.0068
   66CHL1  H16A 6012   1.964   2.862   3.782 -0.4937 -0.9701 -0.5531
   66CHL1  H16B 6013   2.075   2.722   3.800  1.5905  1.6956  3.5527
   66CHL1   C17 6014   2.194   2.906   3.793  0.0681  0.1579 -0.0947
   66CHL1   H17 6015   2.274   2.833   3.816 -0.9478 -1.4138 -1.3078
   66CHL1   C13 6016   2.227   2.972   3.664 -0.1146 -0.3191 -0.4285
   66CHL1   C18 6017   2.142   3.101   3.644  0.1355  0.4091 -0.2184
   66CHL1  H18A 6018   2.181   3.184   3.706 -1.2948 -0.4703  1.9904
   66CHL1  H18B 6019   2.157   3.121   3.536  1.0562 -0.9318 -0.3632
   66CHL1  H18C 6020   2.035   3.087   3.672 -0.0542  1.4839 -0.3751
   66CHL1   C12 6021   2.376   3.010   3.634 -0.6350  0.1155  0.5797
   66CHL1  H12A 6022   2.415   3.091   3.700  1.2452 -0.9216  0.8032
   66CHL1  H12B 6023   2.441   2.924   3.661 -1.8051 -1.4951 -1.4699
   66CHL1   C11 6024   2.409   3.041   3.489 -0.6323  0.1390 -0.2830
   66CHL1  H11A 6025   2.354   3.133   3.460 -1.4614 -0.5059 -0.8001
   66CHL1  H11B 6026   2.518   3.055   3.471 -0.4057  0.4301  1.1709
   66CHL1    C9 6027   2.372   2.923   3.394  0.2824 -0.3239  0.1962
   66CHL1    H9 6028   2.422   2.829   3.425 -0.2330 -0.8421 -0.5077
   66CHL1   C10 6029   2.419   2.939   3.247  0.0515 -0.3449 -0.2553
   66CHL1   C19 6030   2.389   3.086   3.203  0.3186 -0.1558  0.0880
   66CHL1  H19A 6031   2.282   3.108   3.226  0.4934  2.6420 -1.3373
   66CHL1  H19B 6032   2.449   3.163   3.256 -1.9867  0.2688  2.3314
   66CHL1  H19C 6033   2.406   3.103   3.095  0.3340 -0.4449  0.0440
   66CHL1    C1 6034   2.577   2.921   3.243  0.8011  0.8198 -0.1787
   66CHL1   H1A 6035   2.625   2.995   3.311  1.8405  0.5904 -0.6297
   66CHL1   H1B 6036   2.607   2.821   3.280  1.6179  0.9934 -0.3511
   66CHL1    C2 6037   2.628   2.937   3.097  0.0891  0.2905  0.6223
   66CHL1   H2A 6038   2.738   2.930   3.113 -0.1578  2.0777  4.0479
   66CHL1   H2B 6039   2.592   3.031   3.049 -0.4776  0.0303  0.5330
   66CHL1   C20 6040   2.166   2.990   3.917  0.0991  0.0556  0.3040
   66CHL1   H20 6041   2.091   3.072   3.905  0.7495  1.6448  4.8374
   66CHL1   C21 6042   2.303   3.059   3.961  0.9757  0.3056  0.2077
   66CHL1  H21A 6043   2.292   3.112   4.058  0.5856  0.4665  0.0783
   66CHL1  H21B 6044   2.341   3.128   3.883 -0.9074 -0.2898 -1.3274
   66CHL1  H21C 6045   2.380   2.982   3.983  0.6440  0.2362  1.1585
   66CHL1   C22 6046   2.113   2.906   4.039 -0.0560  0.0775  0.5019
   66CHL1  H22A 6047   2.071   2.973   4.116 -2.8771  0.7505 -1.4769
   66CHL1  H22B 6048   2.018   2.855   4.010  1.1954 -1.7048 -0.7063
   66CHL1   C23 6049   2.197   2.790   4.090 -0.5929  0.8483  0.3211
   66CHL1  H23A 6050   2.222   2.712   4.014  0.6398 -1.3761  2.8278
   66CHL1  H23B 6051   2.298   2.820   4.126  0.2653 -1.7156  0.2677
   66CHL1   C24 6052   2.132   2.722   4.215 -0.0357 -0.7767  0.4805
   66CHL1  H24A 6053   2.201   2.646   4.255  1.9679 -0.2404 -1.7187
   66CHL1  H24B 6054   2.125   2.804   4.290 -0.4089  0.6236 -1.0163
   66CHL1   C25 6055   1.993   2.655   4.192  0.0469 -0.5774  1.0945
   66CHL1   H25 6056   1.922   2.723   4.141  1.8564 -0.0383 -0.8416
   66CHL1   C26 6057   2.013   2.550   4.082  0.2281 -0.3831  0.3659
   66CHL1  H26A 6058   2.054   2.589   3.986 -0.3336 -0.3870  0.1186
   66CHL1  H26B 6059   2.064   2.455   4.108  0.3011 -0.4921 -0.1554
   66CHL1  H26C 6060   1.913   2.518   4.046  0.2529  0.8782 -0.9234
   66CHL1   C27 6061   1.934   2.598   4.315 -0.1281 -0.3217 -0.3721
   66CHL1  H27A 6062   1.846   2.533   4.299 -2.3563  2.8251 -2.1043
   66CHL1  H27B 6063   1.915   2.690   4.375  1.8261 -0.2464  0.2105
   66CHL1  H27C 6064   2.018   2.545   4.365 -0.4617  2.2902  3.3773
   67CHL1    C3 6065   5.337   5.966   2.849 -0.0349 -0.2948 -0.4032
   67CHL1    H3 6066   5.407   5.880   2.847  1.2675  0.7356 -0.1107
   67CHL1    O3 6067   5.231   5.959   2.753 -0.2073 -0.0795  0.2686
   67CHL1   H3' 6068   5.207   6.046   2.718 -1.6988 -1.4037 -2.3312
   67CHL1    C4 6069   5.272   5.983   2.984 -0.2255 -0.5721 -0.8836
   67CHL1   H4A 6070   5.196   6.063   2.984  1.2539  0.9854  1.5730
   67CHL1   H4B 6071   5.204   5.901   3.015 -0.3592 -0.0999  0.1290
   67CHL1    C5 6072   5.370   6.001   3.098 -0.1809  0.4373 -0.2297
   67CHL1    C6 6073   5.387   5.920   3.201  0.2170  0.8548 -0.2333
   67CHL1    H6 6074   5.321   5.832   3.204  0.3871  0.6061 -2.2097
   67CHL1    C7 6075   5.481   5.945   3.319  0.4065  0.2551  0.3371
   67CHL1   H7A 6076   5.420   5.918   3.407  1.0727 -0.5380  0.5770
   67CHL1   H7B 6077   5.556   5.863   3.328  1.5164  1.2823  0.7084
   67CHL1    C8 6078   5.544   6.091   3.324  1.0272 -0.0017  1.3438
   67CHL1    H8 6079   5.464   6.158   3.360  0.7515 -1.2183  3.1117
   67CHL1   C14 6080   5.666   6.098   3.411  0.0016 -0.3783 -0.0558
   67CHL1   H14 6081   5.737   6.038   3.350 -0.0519  0.8901 -1.4189
   67CHL1   C15 6082   5.670   6.041   3.556 -0.3048  0.6839  0.3409
   67CHL1  H15A 6083   5.574   6.072   3.603 -0.7297 -0.5432  0.3072
   67CHL1  H15B 6084   5.681   5.931   3.547 -0.3752  0.8321 -4.9643
   67CHL1   C16 6085   5.783   6.114   3.620  0.0909  0.2300  0.5953
   67CHL1  H16A 6086   5.751   6.171   3.710 -1.5514  1.0105 -0.4420
   67CHL1  H16B 6087   5.855   6.036   3.651  1.1954  0.4770 -1.1804
   67CHL1   C17 6088   5.850   6.208   3.516 -0.1222  0.2223  0.5694
   67CHL1   H17 6089   5.927   6.153   3.458 -1.5713 -0.1001 -1.1180
   67CHL1   C13 6090   5.730   6.232   3.422  0.3228 -0.3953  0.3188
   67CHL1   C18 6091   5.626   6.332   3.500  0.1930  0.0245 -0.5586
   67CHL1  H18A 6092   5.619   6.304   3.607  0.5850 -0.4056 -0.6413
   67CHL1  H18B 6093   5.671   6.434   3.506  0.7144 -0.2565  0.6852
   67CHL1  H18C 6094   5.527   6.339   3.451  0.1495  1.1654 -0.3436
   67CHL1   C12 6095   5.773   6.286   3.274 -0.1865  0.1482  0.2492
   67CHL1  H12A 6096   5.792   6.395   3.275 -1.0545  0.3073  0.1371
   67CHL1  H12B 6097   5.868   6.235   3.248 -0.3228  0.4318 -0.8203
   67CHL1   C11 6098   5.661   6.268   3.169 -0.1418  0.0035 -0.2133
   67CHL1  H11A 6099   5.596   6.351   3.205  1.4890  0.6972  1.2668
   67CHL1  H11B 6100   5.703   6.286   3.068  1.7233 -1.0862  0.3250
   67CHL1    C9 6101   5.580   6.133   3.179  0.7831  0.6833  0.4788
   67CHL1    H9 6102   5.645   6.048   3.149  0.1059 -0.5146  2.2407
   67CHL1   C10 6103   5.463   6.124   3.079 -0.1513 -0.5259 -0.1407
   67CHL1   C19 6104   5.367   6.248   3.074  0.0791  0.1013 -0.0455
   67CHL1  H19A 6105   5.293   6.247   2.991 -0.2566 -1.6567  0.2176
   67CHL1  H19B 6106   5.309   6.247   3.169 -0.2720  0.1891 -0.2606
   67CHL1  H19C 6107   5.418   6.346   3.071 -2.3946  1.4584 -0.2202
   67CHL1    C1 6108   5.526   6.107   2.934 -1.3762  0.3937 -0.0252
   67CHL1   H1A 6109   5.600   6.187   2.912  2.0225 -1.4838  3.3248
   67CHL1   H1B 6110   5.593   6.018   2.935 -0.1717  1.2421 -1.0552
   67CHL1    C2 6111   5.429   6.089   2.821  0.8300  0.6266  0.3151
   67CHL1   H2A 6112   5.476   6.063   2.723 -0.2817 -0.3133  0.0075
   67CHL1   H2B 6113   5.372   6.184   2.813 -0.8663 -0.3834 -0.1987
   67CHL1   C20 6114   5.914   6.333   3.574 -0.2734  0.2347  0.0917
   67CHL1   H20 6115   5.837   6.392   3.628  1.0680  0.6628  1.6095
   67CHL1   C21 6116   5.977   6.424   3.476  0.2954 -0.4527 -0.1699
   67CHL1  H21A 6117   5.911   6.504   3.435  0.1756 -0.3964  0.1275
   67CHL1  H21B 6118   6.028   6.369   3.395  2.4560 -1.2572  1.6525
   67CHL1  H21C 6119   6.063   6.466   3.531 -1.0427  0.4109  1.3697
   67CHL1   C22 6120   6.010   6.307   3.695 -0.5873  0.3415  0.1106
   67CHL1  H22A 6121   5.994   6.208   3.744 -0.6321  0.1103 -0.3718
   67CHL1  H22B 6122   6.118   6.312   3.670 -0.2820 -0.9722  0.9988
   67CHL1   C23 6123   5.997   6.416   3.804 -0.0958 -0.1645 -0.2248
   67CHL1  H23A 6124   6.048   6.508   3.768  0.0487  0.2086  0.8993
   67CHL1  H23B 6125   5.892   6.435   3.832 -0.7499 -2.2453 -1.0479
   67CHL1   C24 6126   6.076   6.382   3.941  0.0534 -0.1359  0.4504
   67CHL1  H24A 6127   6.013   6.309   3.995  0.5433  0.5730  2.0408
   67CHL1  H24B 6128   6.166   6.322   3.917 -0.2337 -1.0039  1.4703
   67CHL1   C25 6129   6.089   6.504   4.037 -0.3419 -0.0925  0.4885
   67CHL1   H25 6130   5.994   6.561   4.033 -0.0075  0.5208  1.2253
   67CHL1   C26 6131   6.106   6.449   4.176  0.3291  0.0007 -0.1895
   67CHL1  H26A 6132   6.014   6.390   4.195  0.7956 -0.4208  0.8351
   67CHL1  H26B 6133   6.199   6.388   4.184 -0.1199 -1.0063 -2.1559
   67CHL1  H26C 6134   6.099   6.538   4.243  0.6605 -1.1773  1.4812
   67CHL1   C27 6135   6.207   6.592   3.999  0.2738  0.3784  0.0562
   67CHL1  H27A 6136   6.193   6.629   3.895  2.7317  2.1316  0.2594
   67CHL1  H27B 6137   6.211   6.689   4.054  3.2651  0.8135 -0.7435
   67CHL1  H27C 6138   6.306   6.546   4.020  0.4698  0.6957 -0.1723
   68CHL1    C3 6139   1.577   4.324   3.096 -0.5094  0.3073 -0.0300
   68CHL1    H3 6140   1.644   4.235   3.090 -0.1077  0.6357 -0.4696
   68CHL1    O3 6141   1.502   4.341   2.968 -0.5067  0.0185 -0.7077
   68CHL1   H3' 6142   1.573   4.370   2.911  0.0078  1.3234  0.5506
   68CHL1    C4 6143   1.480   4.348   3.209 -0.1857  0.0981 -0.0232
   68CHL1   H4A 6144   1.415   4.438   3.203  0.8357  1.0170  1.9524
   68CHL1   H4B 6145   1.408   4.264   3.197  2.5610 -2.5162  0.6390
   68CHL1    C5 6146   1.539   4.347   3.346  0.2166 -0.5200  0.2049
   68CHL1    C6 6147   1.498   4.261   3.442 -0.2902  0.0776 -0.3484
   68CHL1    H6 6148   1.413   4.196   3.418 -0.9069  1.1495 -1.1336
   68CHL1    C7 6149   1.551   4.258   3.586 -0.2802  0.0522  0.4782
   68CHL1   H7A 6150   1.477   4.260   3.669  1.1874 -0.1143  1.8328
   68CHL1   H7B 6151   1.612   4.167   3.602  0.3017  0.0035 -1.7099
   68CHL1    C8 6152   1.647   4.379   3.616 -0.3703 -0.5930  0.0416
   68CHL1    H8 6153   1.583   4.467   3.636 -1.5071 -1.5749  0.9122
   68CHL1   C14 6154   1.737   4.341   3.735  0.1885  0.3600 -0.3703
   68CHL1   H14 6155   1.792   4.250   3.703  0.7794  0.6032 -0.0649
   68CHL1   C15 6156   1.674   4.283   3.867  0.0384  0.2585  0.0458
   68CHL1  H15A 6157   1.584   4.342   3.896 -1.4621 -2.9875  2.7419
   68CHL1  H15B 6158   1.635   4.186   3.830  0.6339  0.6704 -1.7322
   68CHL1   C16 6159   1.788   4.297   3.968 -0.3265  0.2136 -0.1407
   68CHL1  H16A 6160   1.756   4.355   4.058  0.0695  1.5192 -0.8084
   68CHL1  H16B 6161   1.821   4.195   3.996 -1.6425 -0.5311 -1.2204
   68CHL1   C17 6162   1.905   4.366   3.897  0.0259 -0.1558  0.1123
   68CHL1   H17 6163   1.961   4.285   3.846 -0.3414  0.1484 -0.7963
   68CHL1   C13 6164   1.840   4.440   3.783  0.0211 -0.0800  0.2247
   68CHL1   C18 6165   1.772   4.574   3.837  0.0660  0.2828  0.2121
   68CHL1  H18A 6166   1.856   4.644   3.861  0.2407 -0.1412  0.8775
   68CHL1  H18B 6167   1.700   4.622   3.769 -1.4335  0.3657  1.7821
   68CHL1  H18C 6168   1.712   4.569   3.931  0.9599 -1.7785  0.7344
   68CHL1   C12 6169   1.934   4.470   3.659 -0.1882  0.1021  1.0812
   68CHL1  H12A 6170   2.001   4.557   3.678 -0.0429  0.2786 -0.1303
   68CHL1  H12B 6171   1.986   4.374   3.643 -1.9253 -0.9939  1.7278
   68CHL1   C11 6172   1.846   4.506   3.531 -0.2816  0.0085 -0.0026
   68CHL1  H11A 6173   1.793   4.603   3.538  1.7114  1.3607 -2.0276
   68CHL1  H11B 6174   1.920   4.504   3.448 -0.8934 -3.0387 -0.5998
   68CHL1    C9 6175   1.733   4.409   3.493  0.9758 -0.2021 -0.1464
   68CHL1    H9 6176   1.785   4.314   3.465 -0.0129 -1.0811  0.8826
   68CHL1   C10 6177   1.652   4.448   3.369 -0.5890 -0.0436  0.1345
   68CHL1   C19 6178   1.587   4.594   3.377 -0.2509  0.6512 -0.3510
   68CHL1  H19A 6179   1.669   4.668   3.393  0.1190  0.5304 -1.6263
   68CHL1  H19B 6180   1.540   4.623   3.281 -0.2420 -0.3369 -0.6619
   68CHL1  H19C 6181   1.521   4.605   3.466  1.5548  0.6801  1.0674
   68CHL1    C1 6182   1.746   4.448   3.247 -0.2093 -0.1798 -0.2720
   68CHL1   H1A 6183   1.815   4.535   3.251 -1.4718  0.8269  0.3616
   68CHL1   H1B 6184   1.817   4.363   3.262 -1.2539 -0.8081  1.4106
   68CHL1    C2 6185   1.679   4.440   3.104  0.4247 -0.0141  0.3334
   68CHL1   H2A 6186   1.750   4.444   3.018  0.6087 -0.5636  0.4581
   68CHL1   H2B 6187   1.620   4.534   3.105 -1.2057 -0.9962  0.3540
   68CHL1   C20 6188   2.008   4.442   3.988 -0.6177 -0.1915  0.9519
   68CHL1   H20 6189   2.059   4.525   3.935 -0.2208 -1.1143 -0.1693
   68CHL1   C21 6190   2.119   4.337   4.015 -0.2226  0.0523  0.0976
   68CHL1  H21A 6191   2.092   4.236   4.050  0.3939 -0.1239  0.0901
   68CHL1  H21B 6192   2.185   4.364   4.101 -1.8381  0.0567  1.3748
   68CHL1  H21C 6193   2.179   4.330   3.922 -1.4127 -1.5102 -0.5821
   68CHL1   C22 6194   1.950   4.499   4.115 -0.7579 -0.8369  0.5172
   68CHL1  H22A 6195   1.869   4.566   4.079 -0.8311 -0.2625  1.7238
   68CHL1  H22B 6196   1.907   4.420   4.181 -2.2552 -0.5072 -0.0241
   68CHL1   C23 6197   2.037   4.588   4.210  0.4147  0.1050  0.6936
   68CHL1  H23A 6198   2.137   4.538   4.216  0.5651 -0.0566 -1.9578
   68CHL1  H23B 6199   2.050   4.691   4.171  0.3622 -0.1391  0.0295
   68CHL1   C24 6200   1.967   4.595   4.344  0.4296  0.3536 -0.2320
   68CHL1  H24A 6201   1.867   4.640   4.325 -1.3589 -2.0164  2.5457
   68CHL1  H24B 6202   1.955   4.489   4.378  2.9856 -0.5817 -1.9887
   68CHL1   C25 6203   2.027   4.679   4.462  0.6592  0.1911 -0.0866
   68CHL1   H25 6204   2.049   4.780   4.423  1.2124 -0.0863 -0.5120
   68CHL1   C26 6205   1.924   4.703   4.576 -0.2057  0.8564 -0.3913
   68CHL1  H26A 6206   1.839   4.769   4.552  0.3029  2.9167  2.8556
   68CHL1  H26B 6207   1.865   4.612   4.599 -0.8163  1.3756  0.1285
   68CHL1  H26C 6208   1.965   4.750   4.669 -0.7639  0.2569  0.1654
   68CHL1   C27 6209   2.152   4.611   4.514  0.4278  0.3941  0.3630
   68CHL1  H27A 6210   2.234   4.589   4.443  1.3827  1.8911  0.9352
   68CHL1  H27B 6211   2.203   4.666   4.596  0.3734 -0.8455  1.2560
   68CHL1  H27C 6212   2.127   4.512   4.558  2.2304 -1.1234 -1.8477
   69CHL1    C3 6213   1.102   1.840   2.617 -0.4957 -0.1572 -0.6579
   69CHL1    H3 6214   1.209   1.869   2.610  0.4057 -3.0568 -0.4589
   69CHL1    O3 6215   1.083   1.800   2.484  0.0195  0.0770 -0.1563
   69CHL1   H3' 6216   0.992   1.769   2.476 -0.4702  1.3965 -0.1258
   69CHL1    C4 6217   1.088   1.720   2.709 -0.3664  0.3456 -0.4415
   69CHL1   H4A 6218   0.993   1.667   2.682 -0.0886  0.3314 -1.4344
   69CHL1   H4B 6219   1.175   1.656   2.685 -1.3623 -0.6777 -1.5034
   69CHL1    C5 6220   1.099   1.767   2.854  1.1233  0.7378 -0.5589
   69CHL1    C6 6221   1.186   1.707   2.939  0.1132  0.2938 -0.6679
   69CHL1    H6 6222   1.267   1.637   2.912  1.6793  1.2550  1.2325
   69CHL1    C7 6223   1.189   1.736   3.083  0.6475 -0.2955 -0.7992
   69CHL1   H7A 6224   1.188   1.642   3.142  1.4191  0.2040  0.0315
   69CHL1   H7B 6225   1.284   1.788   3.109  0.6437 -0.3012 -0.7732
   69CHL1    C8 6226   1.065   1.823   3.133  0.4177  0.0308 -0.2996
   69CHL1    H8 6227   0.977   1.756   3.135 -0.1070  0.6853 -0.9506
   69CHL1   C14 6228   1.084   1.886   3.268 -0.4296 -0.2789 -0.3540
   69CHL1   H14 6229   1.173   1.952   3.260 -2.3156  2.6224  0.7699
   69CHL1   C15 6230   1.119   1.788   3.390  0.2287 -0.2499 -0.2793
   69CHL1  H15A 6231   1.054   1.698   3.398 -0.3126  0.2361  1.1357
   69CHL1  H15B 6232   1.227   1.765   3.375 -0.0148 -0.7872 -1.3260
   69CHL1   C16 6233   1.109   1.881   3.512  0.3789 -0.1984  0.0802
   69CHL1  H16A 6234   1.054   1.825   3.591 -0.8723 -0.9253 -1.2360
   69CHL1  H16B 6235   1.212   1.913   3.539  0.3102  0.1559 -0.0712
   69CHL1   C17 6236   1.022   1.996   3.460  0.0446  0.7484  0.0164
   69CHL1   H17 6237   1.097   2.074   3.438 -0.5810  1.5694  0.7131
   69CHL1   C13 6238   0.969   1.964   3.323  0.1011 -0.2540  0.7724
   69CHL1   C18 6239   0.838   1.877   3.327  0.1013 -0.1945 -0.4959
   69CHL1  H18A 6240   0.757   1.922   3.388  0.1198 -0.0781 -0.5583
   69CHL1  H18B 6241   0.785   1.861   3.230 -2.6699 -2.8001  1.2677
   69CHL1  H18C 6242   0.849   1.778   3.377 -1.1412 -0.1775 -0.1574
   69CHL1   C12 6243   0.944   2.077   3.216 -0.3610  0.3849 -0.0819
   69CHL1  H12A 6244   0.850   2.125   3.251  1.4494  2.5654  2.2408
   69CHL1  H12B 6245   1.012   2.164   3.230 -1.9386  1.5601  0.5935
   69CHL1   C11 6246   0.927   2.041   3.079  0.4793  0.1322  0.1408
   69CHL1  H11A 6247   0.824   2.008   3.052 -0.6815  2.9322  0.7832
   69CHL1  H11B 6248   0.937   2.140   3.030 -3.5250  1.9410  2.4232
   69CHL1    C9 6249   1.025   1.933   3.034 -0.4424  0.1116  0.2450
   69CHL1    H9 6250   1.122   1.986   3.023  0.1087 -0.6458  1.3440
   69CHL1   C10 6251   1.000   1.876   2.893  1.0868 -0.3958  0.3631
   69CHL1   C19 6252   0.866   1.798   2.881  0.3199 -0.4262  0.0850
   69CHL1  H19A 6253   0.841   1.773   2.775  0.5498 -0.4848  0.0424
   69CHL1  H19B 6254   0.859   1.698   2.930 -1.8626 -2.1735 -3.3799
   69CHL1  H19C 6255   0.783   1.856   2.925  1.3900  2.2877 -1.2769
   69CHL1    C1 6256   1.020   1.997   2.801  0.6727  0.7202  0.7493
   69CHL1   H1A 6257   0.938   2.070   2.816  1.5092  1.6795  0.7843
   69CHL1   H1B 6258   1.118   2.045   2.824  0.5806  1.0832  0.3947
   69CHL1    C2 6259   1.012   1.955   2.651  0.5494 -0.4916  0.1754
   69CHL1   H2A 6260   1.043   2.045   2.594  0.8601  2.2460  4.2451
   69CHL1   H2B 6261   0.903   1.934   2.639  0.3670  0.6649 -0.3160
   69CHL1   C20 6262   0.931   2.063   3.569  0.3639 -0.0414 -0.1332
   69CHL1   H20 6263   0.867   1.978   3.600 -0.4735  0.3772 -0.6663
   69CHL1   C21 6264   0.840   2.173   3.507  0.1720  0.3050  0.3918
   69CHL1  H21A 6265   0.788   2.224   3.591  0.5911 -1.5913  1.9005
   69CHL1  H21B 6266   0.766   2.126   3.438  0.5829  0.2316 -0.0042
   69CHL1  H21C 6267   0.893   2.252   3.451 -0.0987 -0.5336 -1.1185
   69CHL1   C22 6268   1.014   2.116   3.688  0.0964  0.0522 -0.1024
   69CHL1  H22A 6269   1.058   2.026   3.736 -0.8839 -1.8190 -2.5047
   69CHL1  H22B 6270   1.087   2.185   3.643  0.2440  0.1255  0.2458
   69CHL1   C23 6271   0.939   2.192   3.794  0.2628 -0.4508  0.4824
   69CHL1  H23A 6272   0.916   2.293   3.752 -2.2499 -1.3554 -0.5132
   69CHL1  H23B 6273   0.837   2.150   3.810 -1.0932  2.7135  1.0729
   69CHL1   C24 6274   1.026   2.220   3.918  0.4582  0.3727  0.2067
   69CHL1  H24A 6275   1.046   2.123   3.969  2.3288 -1.1171 -3.0536
   69CHL1  H24B 6276   1.124   2.265   3.894  0.8763  0.3085  1.7320
   69CHL1   C25 6277   0.956   2.316   4.015  0.2497 -0.6255 -0.3166
   69CHL1   H25 6278   0.851   2.280   4.021 -0.2157  0.4033 -1.5889
   69CHL1   C26 6279   1.005   2.321   4.160 -0.4184 -0.4075  0.7444
   69CHL1  H26A 6280   0.986   2.223   4.208 -0.2045 -1.8115 -1.8489
   69CHL1  H26B 6281   1.115   2.340   4.155 -0.3562 -0.3039  2.1427
   69CHL1  H26C 6282   0.946   2.398   4.213 -1.2566 -0.7787  0.3674
   69CHL1   C27 6283   0.957   2.459   3.961 -0.3129  0.0807 -0.8185
   69CHL1  H27A 6284   1.065   2.484   3.968 -0.0365 -1.3439  0.7864
   69CHL1  H27B 6285   0.914   2.475   3.860 -0.0308 -1.4404 -1.2088
   69CHL1  H27C 6286   0.907   2.525   4.035  1.4995  0.5383  0.0539
   70CHL1    C3 6287   3.384   0.455   2.735 -0.5299 -0.2249 -0.4050
   70CHL1    H3 6288   3.274   0.452   2.754 -0.6105  1.2022 -0.5304
   70CHL1    O3 6289   3.401   0.444   2.599  0.4275  0.4740  0.1917
   70CHL1   H3' 6290   3.345   0.514   2.563  1.0523  1.4200  0.9900
   70CHL1    C4 6291   3.445   0.591   2.785  0.6144 -0.3625  0.5934
   70CHL1   H4A 6292   3.551   0.575   2.753 -0.0851 -1.7617 -1.2792
   70CHL1   H4B 6293   3.398   0.671   2.725  2.2498  1.8739  2.1469
   70CHL1    C5 6294   3.422   0.609   2.931  0.0360  0.2634 -0.2913
   70CHL1    C6 6295   3.352   0.708   2.976 -0.0362 -0.5330  0.0470
   70CHL1    H6 6296   3.303   0.776   2.905 -0.6851 -2.5905 -1.6018
   70CHL1    C7 6297   3.318   0.738   3.111  0.5972 -0.6333  0.0308
   70CHL1   H7A 6298   3.328   0.847   3.130  2.0009 -0.8083  0.3869
   70CHL1   H7B 6299   3.213   0.705   3.126 -0.4685  1.8759 -1.3101
   70CHL1    C8 6300   3.404   0.667   3.213 -0.6104  0.2235  0.4309
   70CHL1    H8 6301   3.501   0.720   3.219 -0.0116 -0.9337  1.5574
   70CHL1   C14 6302   3.338   0.658   3.344 -0.2761  0.2551  0.4844
   70CHL1   H14 6303   3.254   0.587   3.328  0.5291 -0.3550 -1.3325
   70CHL1   C15 6304   3.291   0.786   3.404 -0.0200  0.2937 -0.1232
   70CHL1  H15A 6305   3.355   0.874   3.381 -0.2413  0.5685  0.3117
   70CHL1  H15B 6306   3.187   0.808   3.372 -0.7867 -2.5915  0.1045
   70CHL1   C16 6307   3.282   0.749   3.558  0.0234  0.1967  0.2737
   70CHL1  H16A 6308   3.349   0.812   3.620  0.5325 -1.5856  1.6026
   70CHL1  H16B 6309   3.174   0.750   3.581 -0.8844 -1.3710 -3.2359
   70CHL1   C17 6310   3.341   0.610   3.577 -0.1552 -0.2655 -0.2296
   70CHL1   H17 6311   3.257   0.538   3.568 -1.3842  1.3480 -2.5943
   70CHL1   C13 6312   3.426   0.585   3.455  1.0081 -0.0766  0.2878
   70CHL1   C18 6313   3.561   0.661   3.469 -0.0375  0.7094  0.1289
   70CHL1  H18A 6314   3.627   0.667   3.380 -0.6835 -1.3068 -0.5309
   70CHL1  H18B 6315   3.558   0.756   3.528 -0.1427  0.1669  1.0105
   70CHL1  H18C 6316   3.627   0.597   3.532 -1.1302 -1.3795 -0.7548
   70CHL1   C12 6317   3.451   0.437   3.419  0.0490 -0.1666 -0.7667
   70CHL1  H12A 6318   3.524   0.394   3.490 -2.3400 -1.2318  1.1658
   70CHL1  H12B 6319   3.359   0.375   3.426  0.8260 -1.3039 -0.2836
   70CHL1   C11 6320   3.518   0.435   3.281  0.5382  0.1260  0.1629
   70CHL1  H11A 6321   3.619   0.483   3.287  0.0744  1.2482 -0.6172
   70CHL1  H11B 6322   3.532   0.328   3.255 -0.5107 -0.2366  1.0356
   70CHL1    C9 6323   3.438   0.520   3.169 -0.1533 -0.1143 -0.0583
   70CHL1    H9 6324   3.341   0.465   3.172  0.7047 -1.6692  0.2485
   70CHL1   C10 6325   3.481   0.498   3.016 -0.5328 -0.2001 -0.0702
   70CHL1   C19 6326   3.637   0.501   3.029 -0.3728 -0.2454 -0.0281
   70CHL1  H19A 6327   3.684   0.485   2.929  0.9086  0.6233  0.4028
   70CHL1  H19B 6328   3.680   0.596   3.068 -0.3672  0.0461 -0.7272
   70CHL1  H19C 6329   3.662   0.409   3.086 -2.1951 -0.6597  0.1564
   70CHL1    C1 6330   3.436   0.362   2.960  1.0130 -0.5921 -0.0079
   70CHL1   H1A 6331   3.474   0.272   3.012  1.5605  0.3617  1.3223
   70CHL1   H1B 6332   3.326   0.356   2.976  1.2187 -1.3662  1.2452
   70CHL1    C2 6333   3.448   0.337   2.810 -0.2109  0.5025 -0.2680
   70CHL1   H2A 6334   3.400   0.240   2.786  1.0433 -0.5781  1.2922
   70CHL1   H2B 6335   3.552   0.323   2.772  0.8418 -0.3380  2.5922
   70CHL1   C20 6336   3.401   0.590   3.717  0.0673 -0.1070 -0.0692
   70CHL1   H20 6337   3.497   0.645   3.728  0.7190 -1.4744  1.5352
   70CHL1   C21 6338   3.431   0.446   3.762  0.4659  0.5176 -0.2079
   70CHL1  H21A 6339   3.465   0.439   3.868  1.9811 -0.9454 -0.7451
   70CHL1  H21B 6340   3.517   0.403   3.706  0.6078 -0.2604  0.5817
   70CHL1  H21C 6341   3.336   0.388   3.760  0.2954  0.8079 -0.6141
   70CHL1   C22 6342   3.312   0.653   3.837  0.5690 -0.1148 -0.0179
   70CHL1  H22A 6343   3.374   0.640   3.928  1.0239 -0.1511 -0.3325
   70CHL1  H22B 6344   3.299   0.763   3.828 -4.1781 -0.5963 -1.6652
   70CHL1   C23 6345   3.169   0.605   3.862 -0.3612 -0.3927 -0.5009
   70CHL1  H23A 6346   3.119   0.623   3.765 -2.1911  1.6548  0.7303
   70CHL1  H23B 6347   3.163   0.501   3.902 -0.6796  0.0188  0.5647
   70CHL1   C24 6348   3.091   0.690   3.964 -0.2649  0.1659  0.6918
   70CHL1  H24A 6349   3.092   0.796   3.932 -0.5273  0.7923  2.6818
   70CHL1  H24B 6350   2.984   0.660   3.966 -0.1548 -0.6039 -1.3953
   70CHL1   C25 6351   3.142   0.689   4.112  0.7395  0.6785 -0.5766
   70CHL1   H25 6352   3.251   0.710   4.102  0.3150  2.7518 -1.4253
   70CHL1   C26 6353   3.095   0.808   4.205 -0.3418 -0.0667  0.4337
   70CHL1  H26A 6354   3.144   0.902   4.174 -0.9002 -0.2609 -1.1131
   70CHL1  H26B 6355   2.985   0.823   4.200 -0.4385 -0.4349  1.2408
   70CHL1  H26C 6356   3.116   0.774   4.309 -0.1325 -3.0572 -0.4953
   70CHL1   C27 6357   3.103   0.554   4.189 -0.6262  0.8299  0.3516
   70CHL1  H27A 6358   2.997   0.535   4.218  0.2286 -4.3194  1.0894
   70CHL1  H27B 6359   3.138   0.470   4.125  0.5000 -0.6127  2.7208
   70CHL1  H27C 6360   3.160   0.542   4.284 -1.5615 -1.9413  0.6535
   71CHL1    C3 6361   6.429   5.317   2.602  0.1066  0.1866 -0.3497
   71CHL1    H3 6362   6.337   5.259   2.578  0.6619 -0.1386 -1.8476
   71CHL1    O3 6363   6.462   5.369   2.481 -0.0300  0.3900 -0.2378
   71CHL1   H3' 6364   6.526   5.431   2.516  0.3796 -1.0878  1.8117
   71CHL1    C4 6365   6.387   5.427   2.696  0.0977 -0.7225 -0.1437
   71CHL1   H4A 6366   6.476   5.491   2.714 -0.0446 -0.7973  0.8526
   71CHL1   H4B 6367   6.307   5.495   2.661  0.6425  0.5010  0.9170
   71CHL1    C5 6368   6.357   5.378   2.841 -0.0037  0.1509  0.4165
   71CHL1    C6 6369   6.243   5.398   2.909 -0.2692  0.0028  0.8141
   71CHL1    H6 6370   6.165   5.462   2.865 -0.5226  0.6456  2.1189
   71CHL1    C7 6371   6.208   5.346   3.048 -0.2768 -0.5042  0.4942
   71CHL1   H7A 6372   6.149   5.421   3.104 -1.3025 -1.0243  0.1444
   71CHL1   H7B 6373   6.160   5.247   3.032  3.4853 -2.2156 -1.5950
   71CHL1    C8 6374   6.340   5.300   3.121  0.5740 -0.7191 -0.1941
   71CHL1    H8 6375   6.394   5.394   3.147 -1.1541  0.7549 -1.6293
   71CHL1   C14 6376   6.314   5.239   3.259  0.9409  1.2041  0.6812
   71CHL1   H14 6377   6.240   5.161   3.230  0.1485  1.7845  1.1018
   71CHL1   C15 6378   6.238   5.331   3.358  0.0431  0.3133 -0.4933
   71CHL1  H15A 6379   6.294   5.427   3.361 -0.4153  0.5735 -0.1364
   71CHL1  H15B 6380   6.130   5.349   3.341 -0.5927 -2.0511  0.6983
   71CHL1   C16 6381   6.250   5.254   3.490 -0.6315  0.2635  0.0886
   71CHL1  H16A 6382   6.311   5.314   3.560  0.3396 -0.5921 -0.0030
   71CHL1  H16B 6383   6.154   5.221   3.538  0.4330  0.2362  2.3376
   71CHL1   C17 6384   6.344   5.131   3.459  0.1530 -0.4379  0.3511
   71CHL1   H17 6385   6.264   5.057   3.435 -0.3096  0.8468 -2.5282
   71CHL1   C13 6386   6.425   5.166   3.332 -0.5441 -0.7852  0.6451
   71CHL1   C18 6387   6.537   5.273   3.370  0.2012 -0.2291 -0.0798
   71CHL1  H18A 6388   6.630   5.224   3.406 -0.8321 -1.4275  1.0730
   71CHL1  H18B 6389   6.549   5.332   3.277 -1.7100  1.0695  0.4527
   71CHL1  H18C 6390   6.509   5.338   3.455 -0.2421 -0.4877 -0.0240
   71CHL1   C12 6391   6.485   5.062   3.240  0.0102  0.0828 -0.0753
   71CHL1  H12A 6392   6.570   5.003   3.280 -1.3010 -0.7562  1.6406
   71CHL1  H12B 6393   6.399   4.992   3.226 -0.3514 -0.4005  3.5029
   71CHL1   C11 6394   6.530   5.130   3.105 -0.0313  0.0173  0.2111
   71CHL1  H11A 6395   6.615   5.198   3.129  1.2061 -1.4465  0.1176
   71CHL1  H11B 6396   6.571   5.047   3.044  2.7706  1.5484 -0.1936
   71CHL1    C9 6397   6.413   5.207   3.028 -0.6082 -0.0030 -0.1889
   71CHL1    H9 6398   6.333   5.136   2.998 -3.2232  2.8657 -0.4393
   71CHL1   C10 6399   6.458   5.281   2.904 -0.3654 -0.2241  0.1109
   71CHL1   C19 6400   6.583   5.363   2.927  1.0700  0.0588  0.6415
   71CHL1  H19A 6401   6.563   5.441   3.003 -2.1178  0.6086 -0.6059
   71CHL1  H19B 6402   6.666   5.291   2.947  1.9824  0.7044 -0.6753
   71CHL1  H19C 6403   6.621   5.415   2.836 -0.4840 -1.4706 -0.9632
   71CHL1    C1 6404   6.495   5.172   2.798  0.4824 -0.2077  0.3789
   71CHL1   H1A 6405   6.570   5.098   2.834  0.3906 -1.1136 -1.2147
   71CHL1   H1B 6406   6.407   5.107   2.781 -0.0425  0.6102 -0.0921
   71CHL1    C2 6407   6.538   5.232   2.662 -0.2314  0.2049 -0.1745
   71CHL1   H2A 6408   6.558   5.144   2.597 -2.7527 -0.2047 -0.5113
   71CHL1   H2B 6409   6.633   5.289   2.662 -1.1965  1.9104 -1.0330
   71CHL1   C20 6410   6.416   5.074   3.581 -0.0419  0.3254 -0.3872
   71CHL1   H20 6411   6.517   5.111   3.608 -1.0145  1.7202  1.6056
   71CHL1   C21 6412   6.434   4.928   3.537 -0.5042  0.5496 -0.0807
   71CHL1  H21A 6413   6.493   4.903   3.447 -2.8415 -4.3232 -0.6138
   71CHL1  H21B 6414   6.337   4.877   3.515  0.8136 -2.4643  0.4811
   71CHL1  H21C 6415   6.491   4.872   3.615 -1.5879 -1.2894 -0.5361
   71CHL1   C22 6416   6.338   5.081   3.715 -0.0080 -0.0029 -0.5768
   71CHL1  H22A 6417   6.310   5.188   3.727  0.0627  0.0850 -1.1580
   71CHL1  H22B 6418   6.251   5.013   3.703  0.7940 -0.8728 -1.6029
   71CHL1   C23 6419   6.431   5.035   3.828 -0.8018 -0.1269 -0.3334
   71CHL1  H23A 6420   6.465   4.930   3.821  0.5481  0.2363  0.4193
   71CHL1  H23B 6421   6.521   5.101   3.827 -0.2548 -0.8410  0.5333
   71CHL1   C24 6422   6.360   5.040   3.969  1.2162 -0.0372  0.0068
   71CHL1  H24A 6423   6.338   5.147   3.991  0.1073 -0.2349 -0.0570
   71CHL1  H24B 6424   6.259   4.993   3.964  1.4271 -0.5035  0.1328
   71CHL1   C25 6425   6.437   4.973   4.076  0.2572  0.1932 -0.4102
   71CHL1   H25 6426   6.545   5.000   4.071  0.2915  0.3709  0.8818
   71CHL1   C26 6427   6.379   5.010   4.222  0.0468 -0.2365  0.6588
   71CHL1  H26A 6428   6.442   4.961   4.299  0.4044  0.7644  1.0113
   71CHL1  H26B 6429   6.382   5.119   4.241  1.3165  0.3821 -2.4452
   71CHL1  H26C 6430   6.278   4.962   4.223 -0.3868  0.6503  0.4079
   71CHL1   C27 6431   6.443   4.815   4.067  0.3502  0.6198 -1.0543
   71CHL1  H27A 6432   6.503   4.771   4.150  0.0996  2.0110 -0.0952
   71CHL1  H27B 6433   6.339   4.777   4.075  0.6979  0.0015  1.1306
   71CHL1  H27C 6434   6.482   4.782   3.968  0.0502 -2.5372 -0.2317
   72CHL1    C3 6435   1.453   3.717   2.991  0.4405  0.2532 -0.8481
   72CHL1    H3 6436   1.541   3.780   3.015  0.4539 -1.1696  3.7687
   72CHL1    O3 6437   1.463   3.662   2.859  0.0832 -0.3395  0.4378
   72CHL1   H3' 6438   1.372   3.670   2.829 -0.1068 -2.5229  0.2918
   72CHL1    C4 6439   1.435   3.601   3.093 -0.0350 -0.4095  0.6151
   72CHL1   H4A 6440   1.341   3.547   3.070 -1.3851  2.3618 -0.8750
   72CHL1   H4B 6441   1.525   3.540   3.072 -0.4059 -0.4877 -0.8266
   72CHL1    C5 6442   1.438   3.660   3.234 -0.0660 -0.3018 -0.5796
   72CHL1    C6 6443   1.535   3.621   3.326 -0.4135 -0.5643 -0.2299
   72CHL1    H6 6444   1.616   3.555   3.291 -0.3040 -0.7880  0.4193
   72CHL1    C7 6445   1.542   3.672   3.469  0.3657 -0.0593 -0.3241
   72CHL1   H7A 6446   1.569   3.591   3.541 -3.4746 -2.1913 -1.0378
   72CHL1   H7B 6447   1.619   3.752   3.474  1.1559 -0.6225 -2.3985
   72CHL1    C8 6448   1.405   3.738   3.509  0.0765  0.2653 -0.7179
   72CHL1    H8 6449   1.330   3.660   3.534  0.0076  0.4950 -0.1911
   72CHL1   C14 6450   1.436   3.825   3.626 -0.5791  0.0007 -0.7688
   72CHL1   H14 6451   1.497   3.904   3.578  1.6489 -1.1265  0.0668
   72CHL1   C15 6452   1.509   3.752   3.742  0.5467  0.3958  0.0290
   72CHL1  H15A 6453   1.466   3.650   3.758  1.7453 -0.0748  0.4085
   72CHL1  H15B 6454   1.618   3.735   3.726  0.6296  0.5885  0.3801
   72CHL1   C16 6455   1.485   3.838   3.861 -0.3371  0.0879 -0.0667
   72CHL1  H16A 6456   1.448   3.776   3.946  2.6439 -0.9440  0.6254
   72CHL1  H16B 6457   1.580   3.889   3.890 -0.7181  0.6020  0.2809
   72CHL1   C17 6458   1.383   3.951   3.819  0.0492 -0.7241  0.1209
   72CHL1   H17 6459   1.445   4.032   3.775 -1.9262 -0.6132 -2.8382
   72CHL1   C13 6460   1.312   3.884   3.692  0.2397 -0.1596  0.0605
   72CHL1   C18 6461   1.201   3.792   3.740 -0.5453  0.3131 -0.0263
   72CHL1  H18A 6462   1.162   3.729   3.657  2.0604 -1.9618  0.3066
   72CHL1  H18B 6463   1.253   3.721   3.808  0.5229  0.8376 -0.2713
   72CHL1  H18C 6464   1.119   3.851   3.784 -1.0652 -0.3342 -0.1118
   72CHL1   C12 6465   1.257   3.983   3.585  0.0398 -0.0787  0.0980
   72CHL1  H12A 6466   1.170   4.039   3.625 -0.7195 -1.2069  0.0868
   72CHL1  H12B 6467   1.343   4.049   3.564 -0.9047  0.7690 -1.1950
   72CHL1   C11 6468   1.221   3.906   3.457  0.1399  0.3019 -0.8053
   72CHL1  H11A 6469   1.129   3.845   3.471 -1.2213  2.1857 -1.2554
   72CHL1  H11B 6470   1.190   3.983   3.384  1.0694  1.1579 -0.3243
   72CHL1    C9 6471   1.341   3.829   3.398  0.2840  0.3136  0.4679
   72CHL1    H9 6472   1.420   3.908   3.386 -0.3755  0.9554  0.2845
   72CHL1   C10 6473   1.322   3.764   3.259 -1.0433  0.3150 -0.2447
   72CHL1   C19 6474   1.193   3.676   3.281 -0.7382 -0.3499  0.7879
   72CHL1  H19A 6475   1.219   3.612   3.368  3.1802  2.4939  2.0141
   72CHL1  H19B 6476   1.102   3.740   3.288  0.5212  1.4271  2.0004
   72CHL1  H19C 6477   1.180   3.610   3.193 -2.1667  1.9424 -0.8419
   72CHL1    C1 6478   1.297   3.863   3.146 -0.0131 -0.0664  0.7600
   72CHL1   H1A 6479   1.201   3.918   3.149  0.1509  0.1807  2.1948
   72CHL1   H1B 6480   1.381   3.937   3.152 -0.8962  0.9050  1.4601
   72CHL1    C2 6481   1.327   3.800   3.002  0.3544 -0.0791 -0.1259
   72CHL1   H2A 6482   1.336   3.884   2.930 -0.1131  0.1596  0.0900
   72CHL1   H2B 6483   1.236   3.742   2.975 -1.0160  0.7828  2.3052
   72CHL1   C20 6484   1.310   3.997   3.935 -0.1821 -0.3504 -0.4994
   72CHL1   H20 6485   1.239   3.919   3.972  0.7809 -0.8267  0.4019
   72CHL1   C21 6486   1.225   4.121   3.889  0.3810 -0.1207  0.0489
   72CHL1  H21A 6487   1.177   4.182   3.968 -0.0066 -2.0855  1.4005
   72CHL1  H21B 6488   1.154   4.089   3.810  1.7609 -1.7154 -0.6202
   72CHL1  H21C 6489   1.296   4.184   3.831 -0.5699 -0.6417 -1.7482
   72CHL1   C22 6490   1.399   4.029   4.061  0.2654  0.3280  0.9928
   72CHL1  H22A 6491   1.459   3.941   4.094  0.6223  0.1760 -0.0245
   72CHL1  H22B 6492   1.474   4.107   4.037  1.3915 -0.6914  1.0560
   72CHL1   C23 6493   1.320   4.057   4.186 -0.1303 -0.3417  0.6933
   72CHL1  H23A 6494   1.270   4.156   4.188 -0.2772 -0.4296  2.3104
   72CHL1  H23B 6495   1.236   3.985   4.187 -1.4650  0.9069 -3.0227
   72CHL1   C24 6496   1.408   4.048   4.318  0.2940 -0.0152  0.1765
   72CHL1  H24A 6497   1.457   3.948   4.320 -1.9813 -1.2393 -0.7224
   72CHL1  H24B 6498   1.489   4.123   4.309  0.6797 -0.2020  1.9220
   72CHL1   C25 6499   1.319   4.085   4.442 -0.0480  0.4371  0.4305
   72CHL1   H25 6500   1.289   4.192   4.439 -1.6608  0.1733  3.6757
   72CHL1   C26 6501   1.187   4.007   4.450 -0.3939 -0.4056  0.0233
   72CHL1  H26A 6502   1.135   4.019   4.547  1.0137  0.2104  0.7323
   72CHL1  H26B 6503   1.117   4.035   4.368 -0.9245  0.0570  0.6306
   72CHL1  H26C 6504   1.209   3.898   4.444  0.9665 -0.1094 -0.9232
   72CHL1   C27 6505   1.402   4.060   4.571 -0.7644 -0.0050  0.1676
   72CHL1  H27A 6506   1.403   3.952   4.594 -0.2143 -0.7310 -2.8737
   72CHL1  H27B 6507   1.508   4.094   4.568 -0.9053  0.4081 -0.5030
   72CHL1  H27C 6508   1.356   4.120   4.652  1.0164  0.0911  1.1677
   73CHL1    C3 6509   0.759   5.406   2.491  0.0113 -0.6521  0.7731
   73CHL1    H3 6510   0.780   5.300   2.518  0.5422  0.1401  3.8502
   73CHL1    O3 6511   0.764   5.426   2.349 -0.1015  0.1482  0.1537
   73CHL1   H3' 6512   0.731   5.515   2.333 -0.4547  0.0490  0.3198
   73CHL1    C4 6513   0.626   5.454   2.540 -0.2804 -0.6837 -0.0408
   73CHL1   H4A 6514   0.614   5.561   2.511  0.7964 -0.7830 -0.9063
   73CHL1   H4B 6515   0.542   5.399   2.492 -0.2626 -1.4099  0.7349
   73CHL1    C5 6516   0.607   5.422   2.683 -0.4215 -0.3285 -0.6010
   73CHL1    C6 6517   0.520   5.334   2.737  0.1270  0.2601  0.1005
   73CHL1    H6 6518   0.459   5.276   2.665  0.4237 -0.6163  0.5365
   73CHL1    C7 6519   0.484   5.335   2.882  0.0792  0.1814  0.0758
   73CHL1   H7A 6520   0.375   5.353   2.897 -0.0220  0.3682 -0.7909
   73CHL1   H7B 6521   0.508   5.232   2.915  1.0266 -1.0749 -3.8885
   73CHL1    C8 6522   0.560   5.433   2.966 -0.4339 -0.7652 -0.2868
   73CHL1    H8 6523   0.519   5.536   2.953  3.5436  1.6538  3.6158
   73CHL1   C14 6524   0.549   5.392   3.110  0.1312  0.3803 -0.7292
   73CHL1   H14 6525   0.608   5.298   3.110 -1.9685 -1.0488 -2.5740
   73CHL1   C15 6526   0.419   5.339   3.175  0.1467  0.1065  0.3829
   73CHL1  H15A 6527   0.341   5.402   3.126  1.5676  1.3544 -0.3683
   73CHL1  H15B 6528   0.399   5.241   3.127 -3.9722  1.9652 -2.3488
   73CHL1   C16 6529   0.445   5.357   3.325 -0.5271  0.2615 -0.2607
   73CHL1  H16A 6530   0.363   5.403   3.384  0.5586  1.7894  0.1100
   73CHL1  H16B 6531   0.454   5.255   3.367 -3.5327 -0.7043 -1.6554
   73CHL1   C17 6532   0.593   5.415   3.339  0.5454  0.1252  0.8232
   73CHL1   H17 6533   0.664   5.330   3.344  1.2622  0.6096 -0.5216
   73CHL1   C13 6534   0.615   5.491   3.206 -0.7981 -0.3403  0.3259
   73CHL1   C18 6535   0.539   5.628   3.207 -0.1595 -0.4810  0.6387
   73CHL1  H18A 6536   0.553   5.675   3.107 -0.6310 -2.9630 -0.6780
   73CHL1  H18B 6537   0.432   5.608   3.232 -0.2769  2.8097  3.5592
   73CHL1  H18C 6538   0.580   5.701   3.280  0.7684  0.3948 -0.7003
   73CHL1   C12 6539   0.761   5.506   3.161  0.0762 -0.7075 -0.2125
   73CHL1  H12A 6540   0.811   5.578   3.229  2.5114 -1.4103 -1.1676
   73CHL1  H12B 6541   0.803   5.404   3.170 -1.3328 -1.3621 -0.6401
   73CHL1   C11 6542   0.782   5.559   3.022 -0.1148 -0.3263 -0.2380
   73CHL1  H11A 6543   0.742   5.663   3.023  1.8488  0.5363  2.5414
   73CHL1  H11B 6544   0.890   5.555   2.996 -0.2165  1.7721 -1.2243
   73CHL1    C9 6545   0.706   5.462   2.929  0.7867 -0.0458 -0.3860
   73CHL1    H9 6546   0.764   5.368   2.940 -0.5782 -0.7036  1.6887
   73CHL1   C10 6547   0.714   5.496   2.770 -0.2163 -0.1450 -0.3288
   73CHL1   C19 6548   0.692   5.653   2.772  0.7684  0.2903 -0.4668
   73CHL1  H19A 6549   0.775   5.710   2.817  1.3991 -1.8576  1.2640
   73CHL1  H19B 6550   0.682   5.680   2.664 -1.6222 -1.7267 -0.8343
   73CHL1  H19C 6551   0.601   5.691   2.823  1.2362 -0.6020  1.0990
   73CHL1    C1 6552   0.848   5.461   2.714 -0.0063  0.1617 -0.3215
   73CHL1   H1A 6553   0.922   5.516   2.775  1.8859 -1.4358 -1.0544
   73CHL1   H1B 6554   0.865   5.353   2.733  0.2139  0.2353 -0.1026
   73CHL1    C2 6555   0.864   5.480   2.564  0.0711 -0.6481 -0.5812
   73CHL1   H2A 6556   0.961   5.461   2.514  0.7070  1.8055 -0.4199
   73CHL1   H2B 6557   0.856   5.588   2.537 -1.7337 -0.6678 -0.2156
   73CHL1   C20 6558   0.617   5.497   3.470 -0.4263 -0.5894  0.0053
   73CHL1   H20 6559   0.590   5.605   3.464  2.4531  0.3414  1.8766
   73CHL1   C21 6560   0.771   5.499   3.486 -0.5496 -0.2679 -0.5564
   73CHL1  H21A 6561   0.820   5.400   3.473  0.7217  0.3869 -0.9898
   73CHL1  H21B 6562   0.780   5.514   3.596  1.7383  1.3347 -0.8873
   73CHL1  H21C 6563   0.826   5.581   3.434  1.7925 -0.3951  1.5194
   73CHL1   C22 6564   0.542   5.428   3.595 -0.1752 -0.1810  0.6069
   73CHL1  H22A 6565   0.435   5.444   3.570  0.0392  0.3095 -0.0310
   73CHL1  H22B 6566   0.569   5.320   3.595  0.5911 -0.2009 -3.9998
   73CHL1   C23 6567   0.563   5.486   3.732  0.5468  0.8402  0.0892
   73CHL1  H23A 6568   0.669   5.485   3.767  0.2528 -1.4630  1.0788
   73CHL1  H23B 6569   0.520   5.588   3.739 -1.0185  0.2298 -0.1916
   73CHL1   C24 6570   0.488   5.399   3.837  0.1879  0.0241  0.1809
   73CHL1  H24A 6571   0.382   5.378   3.810  0.7217 -0.6797 -1.4782
   73CHL1  H24B 6572   0.544   5.304   3.850 -1.4884 -0.8961  1.0264
   73CHL1   C25 6573   0.487   5.472   3.973  0.4794 -0.4284  0.7591
   73CHL1   H25 6574   0.591   5.503   3.995  0.8924 -0.2403 -1.3448
   73CHL1   C26 6575   0.405   5.606   3.976  0.4230 -0.8149  0.1885
   73CHL1  H26A 6576   0.321   5.608   3.904 -1.2830  1.0285  2.0924
   73CHL1  H26B 6577   0.357   5.626   4.074 -2.4804 -0.6885 -1.1602
   73CHL1  H26C 6578   0.479   5.687   3.955  0.0375 -0.2558  0.9306
   73CHL1   C27 6579   0.434   5.379   4.083  0.1076  0.2095  0.3490
   73CHL1  H27A 6580   0.344   5.330   4.040  1.2319 -0.0886 -1.8429
   73CHL1  H27B 6581   0.507   5.297   4.097 -0.4228 -0.1126  1.3384
   73CHL1  H27C 6582   0.411   5.430   4.179  0.6702  1.0578  0.0425
   74CHL1    C3 6583   1.208   4.550   2.683 -0.4954 -0.0662  0.1518
   74CHL1    H3 6584   1.298   4.485   2.693 -1.4207 -1.3481  0.3874
   74CHL1    O3 6585   1.197   4.588   2.547  0.1519  0.2626 -0.2801
   74CHL1   H3' 6586   1.124   4.650   2.543 -0.6299 -0.2664  2.7980
   74CHL1    C4 6587   1.086   4.465   2.735 -0.0414  0.1375  1.1734
   74CHL1   H4A 6588   0.992   4.515   2.704 -1.3970 -1.1542  2.9720
   74CHL1   H4B 6589   1.083   4.367   2.683  0.4119 -0.6465  2.5737
   74CHL1    C5 6590   1.078   4.442   2.883  0.1419 -0.6642 -0.2747
   74CHL1    C6 6591   1.067   4.320   2.944  0.3645  0.6257 -0.2080
   74CHL1    H6 6592   1.056   4.230   2.881  0.2163  1.4567 -1.3970
   74CHL1    C7 6593   1.073   4.297   3.094  0.2205  0.3651  0.2935
   74CHL1   H7A 6594   0.990   4.248   3.149  0.2100  0.8492  0.7239
   74CHL1   H7B 6595   1.171   4.257   3.126  0.7511  1.9665  0.7498
   74CHL1    C8 6596   1.054   4.428   3.180  0.4164  0.2769 -0.0541
   74CHL1    H8 6597   0.951   4.469   3.188 -0.0830 -0.9658  0.0616
   74CHL1   C14 6598   1.101   4.397   3.323 -0.1511 -0.4876  0.8072
   74CHL1   H14 6599   1.204   4.356   3.312 -1.0238 -2.4685 -0.5602
   74CHL1   C15 6600   1.037   4.293   3.415  0.7731 -0.2110  0.0966
   74CHL1  H15A 6601   0.927   4.303   3.424  0.8474 -0.8764  2.1998
   74CHL1  H15B 6602   1.052   4.189   3.378 -1.5531 -0.6576  0.2944
   74CHL1   C16 6603   1.108   4.319   3.548  0.3815 -0.3624 -0.3867
   74CHL1  H16A 6604   1.048   4.323   3.642  2.6496  1.4236  1.1004
   74CHL1  H16B 6605   1.197   4.252   3.552 -0.1175 -1.3345 -3.2135
   74CHL1   C17 6606   1.172   4.465   3.549 -0.1346 -0.0798  0.6970
   74CHL1   H17 6607   1.278   4.445   3.524 -0.0747 -0.5576  1.3297
   74CHL1   C13 6608   1.115   4.523   3.413 -0.0140  0.2579  0.1920
   74CHL1   C18 6609   0.970   4.589   3.436  0.7566  0.4660 -0.0099
   74CHL1  H18A 6610   0.926   4.620   3.338 -0.1616  1.3643  0.6663
   74CHL1  H18B 6611   0.893   4.516   3.471 -2.2892  3.0895 -0.7568
   74CHL1  H18C 6612   0.965   4.680   3.499 -0.0462  1.9344 -2.0875
   74CHL1   C12 6613   1.203   4.632   3.339 -0.4198  0.6482 -0.5020
   74CHL1  H12A 6614   1.205   4.724   3.401 -1.1523  0.2665  0.1064
   74CHL1  H12B 6615   1.307   4.592   3.328  0.0219  1.9129 -1.1836
   74CHL1   C11 6616   1.163   4.664   3.199  0.3235 -0.8972  0.2838
   74CHL1  H11A 6617   1.073   4.729   3.196  1.6026  0.9194 -0.5663
   74CHL1  H11B 6618   1.249   4.718   3.153  0.5292  0.2207  1.9326
   74CHL1    C9 6619   1.141   4.535   3.116 -0.4286  0.1346  0.4876
   74CHL1    H9 6620   1.236   4.480   3.097 -0.6534  0.6188 -2.6481
   74CHL1   C10 6621   1.111   4.570   2.965 -0.6399 -0.0933 -0.7365
   74CHL1   C19 6622   0.990   4.665   2.959 -0.0759 -0.7333 -0.0499
   74CHL1  H19A 6623   0.936   4.657   2.863 -0.5198 -0.1509  0.1457
   74CHL1  H19B 6624   0.913   4.645   3.037 -0.9691  1.5242 -0.2586
   74CHL1  H19C 6625   1.019   4.773   2.966  0.2989 -0.5606 -3.0023
   74CHL1    C1 6626   1.238   4.642   2.907 -0.2306 -0.8697 -0.6426
   74CHL1   H1A 6627   1.255   4.737   2.962  0.3648 -0.6378 -1.2203
   74CHL1   H1B 6628   1.325   4.573   2.916  0.0062 -0.8561 -2.4733
   74CHL1    C2 6629   1.235   4.677   2.759  0.4564 -0.3850 -0.4120
   74CHL1   H2A 6630   1.331   4.722   2.727  1.4312  1.4253  4.2779
   74CHL1   H2B 6631   1.155   4.750   2.735  1.2475  0.3117 -0.9729
   74CHL1   C20 6632   1.176   4.547   3.678  0.2044  0.0597  0.0508
   74CHL1   H20 6633   1.069   4.547   3.708  0.7213  1.5108  2.1205
   74CHL1   C21 6634   1.217   4.691   3.660 -0.2970 -0.5149 -0.2398
   74CHL1  H21A 6635   1.158   4.752   3.588  1.6167  2.3079  0.4282
   74CHL1  H21B 6636   1.325   4.693   3.634 -0.2773 -0.2466 -0.1417
   74CHL1  H21C 6637   1.205   4.744   3.757 -2.5143  0.3050 -0.8776
   74CHL1   C22 6638   1.255   4.463   3.784 -0.0374 -0.2814  0.1481
   74CHL1  H22A 6639   1.206   4.366   3.806  0.4807 -0.6665 -0.3993
   74CHL1  H22B 6640   1.354   4.444   3.739 -0.6266 -0.8011 -0.9579
   74CHL1   C23 6641   1.273   4.537   3.927 -0.0378  0.0615  0.3481
   74CHL1  H23A 6642   1.339   4.625   3.909 -0.3682 -0.1473 -2.4619
   74CHL1  H23B 6643   1.174   4.576   3.959  0.1028  0.2603  0.5419
   74CHL1   C24 6644   1.322   4.451   4.037 -0.1271 -0.1053  0.5628
   74CHL1  H24A 6645   1.268   4.357   4.058 -0.0190 -0.5571 -1.0766
   74CHL1  H24B 6646   1.415   4.402   4.002 -1.1831 -2.0438  0.3470
   74CHL1   C25 6647   1.353   4.525   4.168 -0.3050 -0.6167 -0.3221
   74CHL1   H25 6648   1.437   4.594   4.144 -0.6994  0.0311  0.1189
   74CHL1   C26 6649   1.235   4.601   4.231 -0.3779  0.0104 -0.2093
   74CHL1  H26A 6650   1.147   4.549   4.188 -1.0370 -1.7661  2.9305
   74CHL1  H26B 6651   1.244   4.604   4.342 -0.3130 -0.1789 -0.2095
   74CHL1  H26C 6652   1.237   4.707   4.197  0.8300 -0.6251 -2.2811
   74CHL1   C27 6653   1.406   4.419   4.266 -0.0909  0.0497  0.2074
   74CHL1  H27A 6654   1.482   4.353   4.220  0.0513  1.0935 -1.0998
   74CHL1  H27B 6655   1.455   4.474   4.350  1.4864  1.7064 -1.6956
   74CHL1  H27C 6656   1.328   4.350   4.305 -0.2899  0.2644  0.1920
   75CHL1    C3 6657   0.851   2.334   2.629 -0.6778 -0.1121 -0.0387
   75CHL1    H3 6658   0.918   2.251   2.661  0.0964  1.0280  1.4114
   75CHL1    O3 6659   0.879   2.336   2.493 -0.6525 -0.3649  0.5977
   75CHL1   H3' 6660   0.815   2.275   2.455  0.2153 -1.2212  0.4547
   75CHL1    C4 6661   0.704   2.294   2.651 -1.1011  0.0766  0.5114
   75CHL1   H4A 6662   0.634   2.371   2.614 -1.8581 -0.2615  1.2073
   75CHL1   H4B 6663   0.677   2.194   2.611  0.1313 -0.3683  0.7443
   75CHL1    C5 6664   0.658   2.285   2.795 -0.6825 -0.1662 -0.1644
   75CHL1    C6 6665   0.599   2.184   2.856 -0.4227 -0.0901  0.2702
   75CHL1    H6 6666   0.577   2.091   2.802  0.7288  0.0781 -0.5220
   75CHL1    C7 6667   0.562   2.186   2.999  0.0201  0.3152 -0.6074
   75CHL1   H7A 6668   0.456   2.153   3.007  0.6091 -1.6720 -0.5144
   75CHL1   H7B 6669   0.622   2.119   3.063 -1.0801  0.1748  0.3136
   75CHL1    C8 6670   0.561   2.327   3.061 -0.7824  0.0866  0.2526
   75CHL1    H8 6671   0.471   2.379   3.022  0.0640  0.4186 -1.3510
   75CHL1   C14 6672   0.554   2.312   3.214  0.4348  0.4449  0.3341
   75CHL1   H14 6673   0.644   2.252   3.240  1.6717  1.3667 -1.6728
   75CHL1   C15 6674   0.435   2.234   3.283  0.8795  0.2973 -0.2270
   75CHL1  H15A 6675   0.334   2.257   3.244  0.1377  0.8270  1.8685
   75CHL1  H15B 6676   0.450   2.124   3.279 -1.1184  0.0094 -0.5034
   75CHL1   C16 6677   0.436   2.294   3.428  0.1209  0.3318 -0.7242
   75CHL1  H16A 6678   0.338   2.344   3.446 -0.1027 -0.0453 -0.8772
   75CHL1  H16B 6679   0.444   2.216   3.505  0.6702  2.1899  1.2007
   75CHL1   C17 6680   0.550   2.402   3.436  0.6398 -0.0492  0.4652
   75CHL1   H17 6681   0.646   2.351   3.457  0.0062 -1.1708  0.7474
   75CHL1   C13 6682   0.569   2.451   3.287 -0.0476  1.3625  0.2856
   75CHL1   C18 6683   0.450   2.538   3.245  0.0341 -0.0484 -0.2411
   75CHL1  H18A 6684   0.449   2.558   3.135  0.8264  0.3967 -0.1767
   75CHL1  H18B 6685   0.358   2.477   3.255 -1.1720  1.6766 -0.2950
   75CHL1  H18C 6686   0.440   2.628   3.309  0.7524 -0.5348  0.5887
   75CHL1   C12 6687   0.700   2.509   3.261  0.5620 -0.1182 -0.2788
   75CHL1  H12A 6688   0.725   2.604   3.313 -0.4997 -1.0848  2.1129
   75CHL1  H12B 6689   0.767   2.427   3.296 -0.9935 -2.0909 -1.6848
   75CHL1   C11 6690   0.725   2.530   3.112  0.5364  0.3000  0.2393
   75CHL1  H11A 6691   0.666   2.617   3.078 -0.0869  0.6106  2.0199
   75CHL1  H11B 6692   0.831   2.559   3.096  0.9807 -0.5656  1.4595
   75CHL1    C9 6693   0.687   2.401   3.025 -0.5199 -0.3642 -0.8819
   75CHL1    H9 6694   0.770   2.333   3.056 -0.7912  1.1577  4.0676
   75CHL1   C10 6695   0.696   2.416   2.870  0.2141  0.0500  0.0087
   75CHL1   C19 6696   0.597   2.528   2.837  0.4304 -0.0572  0.0636
   75CHL1  H19A 6697   0.613   2.560   2.731 -1.2407  0.0789 -0.1705
   75CHL1  H19B 6698   0.492   2.497   2.853  0.5985 -0.6488  0.0399
   75CHL1  H19C 6699   0.619   2.623   2.892 -0.7804  1.2041 -1.5225
   75CHL1    C1 6700   0.838   2.460   2.841  0.9669 -0.3414  0.1724
   75CHL1   H1A 6701   0.850   2.564   2.878 -0.9756 -0.3108  0.8152
   75CHL1   H1B 6702   0.919   2.394   2.878  2.9896  1.0000 -1.5972
   75CHL1    C2 6703   0.874   2.466   2.691  0.2612  0.2306  0.2202
   75CHL1   H2A 6704   0.984   2.478   2.680 -0.0414  3.7689  0.0122
   75CHL1   H2B 6705   0.823   2.541   2.628  0.0522  0.1436  0.2849
   75CHL1   C20 6706   0.516   2.511   3.539 -0.1639  0.0755 -0.4257
   75CHL1   H20 6707   0.414   2.549   3.517 -0.3750 -0.5964 -0.6026
   75CHL1   C21 6708   0.618   2.621   3.543  0.1670 -0.7215  0.5179
   75CHL1  H21A 6709   0.616   2.679   3.448  0.3307 -3.0055 -0.9535
   75CHL1  H21B 6710   0.720   2.583   3.563  0.1763  0.4309  3.1243
   75CHL1  H21C 6711   0.596   2.696   3.623  0.2317  2.0947 -1.9370
   75CHL1   C22 6712   0.506   2.447   3.687 -0.3683 -0.7019  0.4671
   75CHL1  H22A 6713   0.427   2.369   3.689 -0.3231 -0.7557  0.1939
   75CHL1  H22B 6714   0.604   2.397   3.704  0.9515  2.3863  2.9915
   75CHL1   C23 6715   0.460   2.543   3.798 -0.5379 -0.1673  0.0602
   75CHL1  H23A 6716   0.525   2.633   3.794 -2.0465  0.9646 -0.0498
   75CHL1  H23B 6717   0.358   2.587   3.785 -0.7573 -1.1618 -1.8411
   75CHL1   C24 6718   0.474   2.481   3.939  0.4653  0.5791  0.1066
   75CHL1  H24A 6719   0.412   2.389   3.932  1.1101  0.0561  1.0562
   75CHL1  H24B 6720   0.576   2.440   3.953  0.3012 -0.1147 -0.6671
   75CHL1   C25 6721   0.423   2.574   4.055  0.4066 -0.3970  0.1285
   75CHL1   H25 6722   0.446   2.512   4.145 -1.8328 -1.5833 -0.0394
   75CHL1   C26 6723   0.501   2.708   4.052 -0.5376  0.2313 -0.3968
   75CHL1  H26A 6724   0.470   2.781   3.974 -0.0326  2.8302  1.7202
   75CHL1  H26B 6725   0.491   2.763   4.148 -1.1779  0.9639 -0.8660
   75CHL1  H26C 6726   0.603   2.673   4.027 -1.1874 -2.2281  0.0849
   75CHL1   C27 6727   0.269   2.606   4.049 -0.4975  0.2469 -0.1147
   75CHL1  H27A 6728   0.242   2.669   3.962  1.6785 -0.6956 -1.5904
   75CHL1  H27B 6729   0.224   2.506   4.027 -2.0701  0.7362  0.7614
   75CHL1  H27C 6730   0.243   2.651   4.147  0.5413 -0.7009  0.6230
   76CHL1    C3 6731   0.191   3.864   2.632 -0.5726  0.6007  0.3347
   76CHL1    H3 6732   0.083   3.858   2.658 -0.2678 -0.2510  1.4542
   76CHL1    O3 6733   0.205   3.853   2.489 -0.1282 -0.7078 -0.2197
   76CHL1   H3' 6734   0.168   3.767   2.467 -1.4261 -0.4535  0.8703
   76CHL1    C4 6735   0.241   4.003   2.683  0.0896  0.4093  0.6027
   76CHL1   H4A 6736   0.344   4.015   2.644 -0.4322  2.0100 -0.3691
   76CHL1   H4B 6737   0.182   4.081   2.631 -1.5091 -0.2367  1.3918
   76CHL1    C5 6738   0.228   4.005   2.833 -0.2492 -0.0943 -0.0812
   76CHL1    C6 6739   0.154   4.098   2.885 -0.0353 -0.2817  0.2722
   76CHL1    H6 6740   0.095   4.166   2.822  2.6773  0.5864 -1.5133
   76CHL1    C7 6741   0.142   4.114   3.030 -0.2760 -0.0953  0.4698
   76CHL1   H7A 6742   0.140   4.222   3.057  1.0142 -0.6794  3.3263
   76CHL1   H7B 6743   0.037   4.086   3.056 -0.6360  1.1665  0.4314
   76CHL1    C8 6744   0.241   4.040   3.116 -0.3050 -0.2399 -0.2848
   76CHL1    H8 6745   0.337   4.095   3.103 -0.3849 -0.5445 -2.8343
   76CHL1   C14 6746   0.200   4.041   3.260  0.5449  0.3697 -0.5855
   76CHL1   H14 6747   0.096   4.002   3.256  1.0649 -1.1449  0.0536
   76CHL1   C15 6748   0.190   4.183   3.323  0.1628  0.2360 -0.3510
   76CHL1  H15A 6749   0.267   4.250   3.279  1.7827 -1.8933 -0.9087
   76CHL1  H15B 6750   0.092   4.229   3.295 -1.3548 -2.9973 -0.7784
   76CHL1   C16 6751   0.186   4.160   3.483 -0.1987 -0.0414  0.0186
   76CHL1  H16A 6752   0.270   4.220   3.524 -1.2712  0.8125  1.0061
   76CHL1  H16B 6753   0.085   4.177   3.525 -0.5155  0.1381 -0.7852
   76CHL1   C17 6754   0.228   4.009   3.493  0.0033 -0.3566 -0.1795
   76CHL1   H17 6755   0.131   3.954   3.496  0.1207 -0.5831  2.8362
   76CHL1   C13 6756   0.294   3.967   3.357  1.1376  0.3141 -0.2258
   76CHL1   C18 6757   0.441   4.028   3.356 -0.4613 -0.6055  0.0568
   76CHL1  H18A 6758   0.500   3.978   3.435 -1.3769 -0.4538  0.8512
   76CHL1  H18B 6759   0.495   4.018   3.259  1.1504 -0.6626  0.9324
   76CHL1  H18C 6760   0.444   4.134   3.386  2.1918 -0.4649 -0.4417
   76CHL1   C12 6761   0.301   3.821   3.313  0.7621 -0.8612  0.0642
   76CHL1  H12A 6762   0.379   3.771   3.375  0.7320 -1.5100 -0.4146
   76CHL1  H12B 6763   0.204   3.769   3.329 -0.7000  2.0135  1.2441
   76CHL1   C11 6764   0.341   3.809   3.164 -0.4765  0.0384  0.3285
   76CHL1  H11A 6765   0.450   3.823   3.147 -0.4448 -1.3779 -0.7959
   76CHL1  H11B 6766   0.314   3.707   3.128  0.1317 -0.0224  0.0355
   76CHL1    C9 6767   0.255   3.895   3.063  0.6205  0.9104  0.0934
   76CHL1    H9 6768   0.155   3.847   3.074  0.2099  1.3155 -1.6322
   76CHL1   C10 6769   0.300   3.893   2.912  0.4491 -0.0728 -0.5493
   76CHL1   C19 6770   0.451   3.902   2.903 -0.0774 -0.2959  0.6137
   76CHL1  H19A 6771   0.494   4.002   2.926 -1.3244  1.1279 -2.7429
   76CHL1  H19B 6772   0.503   3.820   2.959 -2.2563 -2.1954 -0.0092
   76CHL1  H19C 6773   0.481   3.893   2.796 -1.1527 -0.0409  0.2882
   76CHL1    C1 6774   0.259   3.760   2.853  0.0293  0.6840  0.1727
   76CHL1   H1A 6775   0.312   3.672   2.895 -1.3455 -0.7902 -1.0127
   76CHL1   H1B 6776   0.152   3.741   2.875  0.2335  2.1164  2.7720
   76CHL1    C2 6777   0.273   3.753   2.700  0.6492 -0.1817  0.1086
   76CHL1   H2A 6778   0.254   3.651   2.659  3.2960 -0.9363  0.6122
   76CHL1   H2B 6779   0.380   3.760   2.674  0.9534 -0.8801  1.1162
   76CHL1   C20 6780   0.303   3.975   3.621  0.0380 -0.2994  0.4045
   76CHL1   H20 6781   0.384   4.050   3.632  1.1999 -1.3335 -0.7583
   76CHL1   C21 6782   0.370   3.834   3.625  0.0394  0.1230  0.4005
   76CHL1  H21A 6783   0.473   3.836   3.582 -0.2969 -1.0900 -0.5141
   76CHL1  H21B 6784   0.310   3.761   3.567  2.0533 -0.4115 -1.1390
   76CHL1  H21C 6785   0.380   3.793   3.728  2.3688  1.7459  0.9040
   76CHL1   C22 6786   0.213   3.991   3.743 -0.3135 -0.1638 -1.3164
   76CHL1  H22A 6787   0.155   4.086   3.738 -0.7661 -0.4591 -1.8177
   76CHL1  H22B 6788   0.139   3.910   3.757 -1.9460  1.3200 -0.9054
   76CHL1   C23 6789   0.290   4.003   3.874 -0.3896  0.3628 -0.5836
   76CHL1  H23A 6790   0.332   3.901   3.887  0.5178  0.2785 -3.4886
   76CHL1  H23B 6791   0.377   4.066   3.845 -0.4445  0.2935 -0.9041
   76CHL1   C24 6792   0.214   4.037   4.003  0.3207 -0.3128  0.8003
   76CHL1  H24A 6793   0.163   4.132   3.976  0.0978 -0.8202 -0.6200
   76CHL1  H24B 6794   0.126   3.971   4.018 -0.5535  1.0379  1.8952
   76CHL1   C25 6795   0.299   4.060   4.132  0.6133 -0.3440  0.2419
   76CHL1   H25 6796   0.365   3.973   4.149  0.3448 -0.1621  2.6019
   76CHL1   C26 6797   0.389   4.188   4.120  0.1283  0.8804 -0.1974
   76CHL1  H26A 6798   0.460   4.176   4.035  0.4145 -0.2545  0.1744
   76CHL1  H26B 6799   0.320   4.274   4.115 -0.1850  0.9836  3.4102
   76CHL1  H26C 6800   0.453   4.204   4.209 -1.3002 -1.7142  1.4148
   76CHL1   C27 6801   0.207   4.076   4.254  0.2919  0.3139 -0.2350
   76CHL1  H27A 6802   0.170   3.975   4.283 -2.3649  1.0827 -0.6742
   76CHL1  H27B 6803   0.267   4.115   4.339 -2.1065  0.3770  1.5228
   76CHL1  H27C 6804   0.124   4.140   4.217 -0.0231 -0.6432 -1.2354
   77SOPE     N 6805   4.242   3.052   6.471  0.1466 -0.4156  0.5333
   77SOPE   HN1 6806   4.308   3.123   6.432 -1.2003 -0.1229 -1.3651
   77SOPE   HN2 6807   4.151   3.103   6.472 -0.3301 -0.7796 -4.0222
   77SOPE   HN3 6808   4.265   3.026   6.569 -0.9521  0.6403  1.1043
   77SOPE   C12 6809   4.237   2.939   6.378  0.9427 -0.4104  0.3021
   77SOPE  H12A 6810   4.180   2.974   6.290 -1.2787 -0.6052  1.5992
   77SOPE  H12B 6811   4.190   2.854   6.432  2.2150  0.3866  2.8142
   77SOPE   C11 6812   4.373   2.897   6.328  0.0147  0.2807 -0.1197
   77SOPE  H11A 6813   4.417   2.987   6.280  0.5466 -0.8285 -1.8431
   77SOPE  H11B 6814   4.372   2.814   6.254  1.1325 -1.1984  1.4495
   77SOPE     P 6815   4.570   2.751   6.423  0.3274 -0.0029 -0.3151
   77SOPE   O13 6816   4.502   2.622   6.425  0.8055 -0.2792  0.2666
   77SOPE   O14 6817   4.660   2.782   6.531  0.0364 -0.5066  0.0549
   77SOPE   O12 6818   4.458   2.864   6.436 -0.5144  0.8166  0.1373
   77SOPE   O11 6819   4.622   2.780   6.272 -0.5127  0.1280 -0.2006
   77SOPE    C1 6820   4.726   2.882   6.258  0.1234 -0.0052  0.5176
   77SOPE    HA 6821   4.815   2.850   6.316  0.4926 -0.2249 -0.1581
   77SOPE    HB 6822   4.699   2.976   6.311  2.6309  0.5836  0.8718
   77SOPE    C2 6823   4.757   2.903   6.101  0.6814  0.0086 -0.9960
   77SOPE    HS 6824   4.820   2.994   6.088 -2.3366  1.9488 -3.5358
   77SOPE   O21 6825   4.638   2.922   6.027  0.0638  0.3268 -0.2238
   77SOPE   C21 6826   4.580   3.046   6.056 -1.0833 -0.1287 -0.7567
   77SOPE   O22 6827   4.629   3.130   6.133  0.3697  0.2409 -0.2215
   77SOPE   C22 6828   4.469   3.068   5.960  0.2721  0.7957  0.2049
   77SOPE   H2R 6829   4.415   3.153   6.006  0.2672  0.0168  1.6818
   77SOPE   H2S 6830   4.400   2.982   5.958 -0.4841  1.3931 -0.1498
   77SOPE    C3 6831   4.834   2.776   6.059  0.0008 -0.7586 -1.2128
   77SOPE    HX 6832   4.768   2.687   6.063 -0.7647 -0.1896 -0.7165
   77SOPE    HY 6833   4.916   2.774   6.134 -0.0810  2.6214 -0.8445
   77SOPE   O31 6834   4.881   2.789   5.922 -0.2984  0.3426 -0.1460
   77SOPE   C31 6835   4.929   2.678   5.873 -0.3466  0.1389 -0.3479
   77SOPE   O32 6836   4.915   2.569   5.930 -0.2208  0.3649  0.2265
   77SOPE   C32 6837   4.998   2.712   5.740 -0.0478 -0.6938  0.2091
   77SOPE   H2X 6838   5.089   2.770   5.766  0.2913 -0.2314 -1.8562
   77SOPE   H2Y 6839   4.931   2.775   5.678  2.3943  1.2083 -0.6699
   77SOPE   C23 6840   4.519   3.083   5.812  0.9829  0.3650  0.2472
   77SOPE   H3R 6841   4.621   3.127   5.804  0.6857  1.2847  1.2569
   77SOPE   H3S 6842   4.450   3.153   5.761 -1.3914 -0.8058  1.6776
   77SOPE   C24 6843   4.507   2.944   5.741  0.5080 -0.8695  0.4352
   77SOPE   H4R 6844   4.577   2.882   5.801  0.5731  2.1220  3.8081
   77SOPE   H4S 6845   4.405   2.903   5.758  0.3669 -0.1827  1.3818
   77SOPE   C25 6846   4.548   2.932   5.594 -0.6296  0.1512 -0.4049
   77SOPE   H5R 6847   4.653   2.968   5.590 -0.6846  0.1889 -2.6535
   77SOPE   H5S 6848   4.551   2.826   5.562  0.4937 -0.3266  1.1773
   77SOPE   C26 6849   4.454   3.017   5.507 -0.2504  0.1060  0.2929
   77SOPE   H6R 6850   4.348   2.991   5.530 -0.1703 -0.8965 -0.4154
   77SOPE   H6S 6851   4.474   3.120   5.543  1.1303 -0.3234  0.8024
   77SOPE   C27 6852   4.475   2.988   5.359 -0.0236  0.4834  0.1237
   77SOPE   H7R 6853   4.573   2.953   5.323 -1.0384 -1.4870 -0.8585
   77SOPE   H7S 6854   4.399   2.909   5.343 -0.8608  1.1004  0.9014
   77SOPE   C28 6855   4.448   3.102   5.258  0.9126 -0.2125  0.3145
   77SOPE   H8R 6856   4.396   3.065   5.167  1.3385  2.1787 -1.0194
   77SOPE   H8S 6857   4.373   3.179   5.286  0.9213  0.2193 -0.7713
   77SOPE   C29 6858   4.572   3.184   5.229 -0.0885 -0.0198 -0.4704
   77SOPE   H91 6859   4.641   3.186   5.315 -2.2358  0.5174  1.3378
   77SOPE  C210 6860   4.616   3.208   5.104  0.0507 -0.8665  0.6923
   77SOPE  H101 6861   4.716   3.251   5.093  0.0753 -0.7286  1.3734
   77SOPE  C211 6862   4.537   3.208   4.979  0.8882  0.0422  0.6928
   77SOPE  H11R 6863   4.426   3.215   4.985  0.9127  1.1354  0.1415
   77SOPE  H11S 6864   4.568   3.120   4.918  0.1461  0.8012 -0.8418
   77SOPE  C212 6865   4.582   3.324   4.890  0.4383 -0.5479  0.5973
   77SOPE  H12R 6866   4.675   3.286   4.842 -0.2791 -1.2087 -0.3375
   77SOPE  H12S 6867   4.597   3.413   4.954  1.7472 -1.4605  1.6146
   77SOPE  C213 6868   4.477   3.352   4.782  0.4370 -0.4492  0.4350
   77SOPE  H13R 6869   4.406   3.430   4.816  3.3630  1.4898  2.6447
   77SOPE  H13S 6870   4.428   3.258   4.750  2.5194 -0.7222 -2.3441
   77SOPE  C214 6871   4.554   3.406   4.653  0.2198 -1.0936  0.3941
   77SOPE  H14R 6872   4.622   3.324   4.621 -0.3041 -1.4537  0.1834
   77SOPE  H14S 6873   4.610   3.497   4.680 -1.5042  1.1019 -2.7407
   77SOPE  C215 6874   4.448   3.448   4.549  0.0884  0.1847  0.2376
   77SOPE  H15R 6875   4.405   3.547   4.574  1.0814  0.6276  0.2348
   77SOPE  H15S 6876   4.359   3.381   4.552  1.3542 -1.7832 -1.9061
   77SOPE  C216 6877   4.504   3.462   4.402  0.4686  0.0081 -0.1914
   77SOPE  H16R 6878   4.582   3.386   4.378 -1.4848 -2.0662 -0.4006
   77SOPE  H16S 6879   4.555   3.559   4.387 -1.7747  0.9363 -2.6115
   77SOPE  C217 6880   4.396   3.449   4.290  0.1236  0.3626  0.6927
   77SOPE  H17R 6881   4.308   3.515   4.302  0.8629  1.6256 -0.5380
   77SOPE  H17S 6882   4.358   3.345   4.296 -0.9590  0.6382 -0.9256
   77SOPE  C218 6883   4.458   3.476   4.155 -0.0753  0.6875 -0.0788
   77SOPE  H18R 6884   4.531   3.556   4.180 -1.1237  2.0162 -1.1416
   77SOPE  H18S 6885   4.384   3.515   4.082 -0.0768 -1.5939 -1.3716
   77SOPE  H18T 6886   4.515   3.391   4.112 -1.2763 -1.2271  1.8723
   77SOPE   C33 6887   5.045   2.587   5.670 -0.5970 -0.4812  0.1364
   77SOPE   H3X 6888   4.960   2.518   5.649 -1.7213  1.1489 -0.8760
   77SOPE   H3Y 6889   5.122   2.540   5.734  0.1652  0.9361  0.2709
   77SOPE   C34 6890   5.111   2.609   5.535  0.2261  1.0029 -1.1507
   77SOPE   H4X 6891   5.174   2.700   5.535  0.5774  0.8722  2.0325
   77SOPE   H4Y 6892   5.024   2.607   5.466 -0.5262  2.5180 -0.2652
   77SOPE   C35 6893   5.205   2.493   5.496 -0.5420  0.4817  0.5137
   77SOPE   H5X 6894   5.149   2.400   5.521  3.1560 -2.6252 -1.5888
   77SOPE   H5Y 6895   5.292   2.493   5.566 -0.4407 -2.4320  0.5195
   77SOPE   C36 6896   5.250   2.496   5.351  0.2357  0.2379 -0.1262
   77SOPE   H6X 6897   5.355   2.461   5.349 -0.1595 -0.9761 -1.0979
   77SOPE   H6Y 6898   5.263   2.602   5.320  0.3258  0.1413 -0.4238
   77SOPE   C37 6899   5.167   2.422   5.244 -0.5343 -0.1651 -0.0887
   77SOPE   H7X 6900   5.062   2.458   5.237 -0.2909  0.2628 -1.8994
   77SOPE   H7Y 6901   5.168   2.313   5.267  1.7589 -0.2294 -0.3086
   77SOPE   C38 6902   5.243   2.439   5.115  0.5051 -0.5771  0.5728
   77SOPE   H8X 6903   5.200   2.386   5.028 -1.1625  0.8280  0.4855
   77SOPE   H8Y 6904   5.345   2.396   5.103  1.0371  1.2327 -2.8321
   77SOPE   C39 6905   5.250   2.588   5.066 -0.4556 -0.3702 -0.0087
   77SOPE   H9X 6906   5.329   2.638   5.126 -0.2819 -1.4979  0.7317
   77SOPE   H9Y 6907   5.152   2.639   5.076  0.9629  2.2664  1.3718
   77SOPE  C310 6908   5.297   2.603   4.923 -0.4404 -0.1345  0.2512
   77SOPE  H10X 6909   5.212   2.556   4.868 -0.4101  0.1402 -0.0306
   77SOPE  H10Y 6910   5.385   2.543   4.893 -0.3994  0.6542 -1.3194
   77SOPE  C311 6911   5.325   2.740   4.887  0.8951  0.6996  1.1874
   77SOPE  H11X 6912   5.401   2.783   4.956  0.1517  0.4240  2.2085
   77SOPE  H11Y 6913   5.230   2.796   4.899 -0.5481 -1.3089 -0.2696
   77SOPE  C312 6914   5.374   2.753   4.737  0.2777  0.2075 -0.6356
   77SOPE  H12X 6915   5.295   2.720   4.666 -1.1215  2.1079 -0.0589
   77SOPE  H12Y 6916   5.459   2.682   4.730  1.2510  1.3288 -0.4605
   77SOPE  C313 6917   5.419   2.897   4.706 -0.0332  0.3160 -0.1152
   77SOPE  H13X 6918   5.495   2.925   4.782  0.9593  0.3473 -1.1000
   77SOPE  H13Y 6919   5.339   2.974   4.708  0.0299  0.3873 -0.3705
   77SOPE  C314 6920   5.474   2.914   4.560 -0.0917  0.2654  0.0949
   77SOPE  H14X 6921   5.480   3.019   4.524 -0.2042  1.2607  2.7049
   77SOPE  H14Y 6922   5.403   2.863   4.492 -2.0171 -1.7091  3.3304
   77SOPE  C315 6923   5.615   2.858   4.541  0.0915  0.1877 -0.0497
   77SOPE  H15X 6924   5.617   2.750   4.518  0.7947  0.6443 -2.5289
   77SOPE  H15Y 6925   5.676   2.883   4.631 -2.4694  1.3903  1.4663
   77SOPE  C316 6926   5.666   2.913   4.406 -0.0426 -0.4041  0.5118
   77SOPE  H16X 6927   5.773   2.884   4.419 -0.4614 -2.5887 -0.4892
   77SOPE  H16Y 6928   5.664   3.023   4.389  0.7811 -0.5583 -0.7394
   77SOPE  C317 6929   5.612   2.832   4.282  0.1403  0.0078 -0.0503
   77SOPE  H17X 6930   5.501   2.833   4.280  0.0875 -0.5597 -3.4894
   77SOPE  H17Y 6931   5.638   2.724   4.285 -1.7641 -0.4693  0.9657
   77SOPE  C318 6932   5.657   2.889   4.152 -0.2531  0.0523 -0.2610
   77SOPE  H18X 6933   5.628   2.996   4.163 -0.1592  0.0517 -0.0139
   77SOPE  H18Y 6934   5.612   2.834   4.067  3.8481 -1.7401 -1.5325
   77SOPE  H18Z 6935   5.766   2.893   4.134  0.1284 -1.5869  1.4203
   78SOPE     N 6936   3.042   1.725   6.772  1.1056  0.4155 -0.0440
   78SOPE   HN1 6937   2.988   1.648   6.817 -0.1830  0.8673 -0.7436
   78SOPE   HN2 6938   2.996   1.751   6.682 -0.5609 -1.3273  0.2321
   78SOPE   HN3 6939   3.136   1.690   6.747 -0.1268 -2.4393 -1.0406
   78SOPE   C12 6940   3.051   1.849   6.862 -0.2744  1.1832  0.0143
   78SOPE  H12A 6941   3.117   1.823   6.947  1.2127  2.2668 -0.7690
   78SOPE  H12B 6942   2.950   1.870   6.904 -1.0534 -0.7561 -0.7684
   78SOPE   C11 6943   3.111   1.964   6.784 -0.1361 -0.1700 -0.1875
   78SOPE  H11A 6944   3.141   2.036   6.863 -1.7104  0.9939 -0.5888
   78SOPE  H11B 6945   3.034   2.021   6.727 -0.5031 -1.3420 -0.9099
   78SOPE     P 6946   3.326   2.020   6.639 -0.1664 -0.1175  0.0849
   78SOPE   O13 6947   3.466   1.984   6.666  0.0201 -0.3425  0.0030
   78SOPE   O14 6948   3.299   2.165   6.657  0.3578 -0.0856 -0.4872
   78SOPE   O12 6949   3.223   1.932   6.707  0.2622  0.4680 -0.1977
   78SOPE   O11 6950   3.299   1.989   6.492  0.0600 -0.0431 -0.2786
   78SOPE    C1 6951   3.213   1.875   6.456 -0.1968 -0.6875  0.6516
   78SOPE    HA 6952   3.108   1.885   6.492 -0.0977 -1.2350  1.1056
   78SOPE    HB 6953   3.250   1.782   6.503  2.5008 -0.4751 -0.8576
   78SOPE    C2 6954   3.219   1.853   6.302 -0.5147 -0.8654 -0.4164
   78SOPE    HS 6955   3.318   1.829   6.259  1.2609  2.7338  1.2486
   78SOPE   O21 6956   3.166   1.969   6.240 -0.0492  0.0227  0.5104
   78SOPE   C21 6957   3.259   2.058   6.185  0.7380 -0.1599  0.1349
   78SOPE   O22 6958   3.379   2.052   6.185  0.2289  0.0256 -0.6855
   78SOPE   C22 6959   3.180   2.164   6.111  0.3129 -0.1560  0.2151
   78SOPE   H2R 6960   3.172   2.257   6.172 -2.3818  0.9876 -1.6924
   78SOPE   H2S 6961   3.080   2.118   6.097 -0.2100  1.1351 -0.5163
   78SOPE    C3 6962   3.131   1.731   6.276 -0.0463 -0.1245  0.2218
   78SOPE    HX 6963   3.023   1.750   6.293 -0.4295  0.7696 -2.6750
   78SOPE    HY 6964   3.162   1.652   6.348 -0.0153 -0.1076  0.2269
   78SOPE   O31 6965   3.146   1.678   6.138 -0.2187  0.0617 -0.1341
   78SOPE   C31 6966   3.241   1.589   6.126  0.4428 -0.1785 -0.5976
   78SOPE   O32 6967   3.339   1.578   6.205  0.2580  0.1591  0.4699
   78SOPE   C32 6968   3.228   1.523   5.994  0.1491  0.6567 -0.4150
   78SOPE   H2X 6969   3.149   1.446   5.995  0.0176  0.6726  3.4728
   78SOPE   H2Y 6970   3.333   1.485   5.990  0.3077  0.9580  0.6797
   78SOPE   C23 6971   3.246   2.189   5.971 -0.2055  0.0853  0.5967
   78SOPE   H3R 6972   3.244   2.092   5.917  2.0672  0.7616 -0.8429
   78SOPE   H3S 6973   3.346   2.236   5.985 -0.6023  0.8158  1.0607
   78SOPE   C24 6974   3.176   2.300   5.890 -0.5096  1.0265 -0.0222
   78SOPE   H4R 6975   3.066   2.288   5.893 -0.6086  1.7309 -0.7248
   78SOPE   H4S 6976   3.204   2.400   5.928 -0.9847  0.7732  1.0411
   78SOPE   C25 6977   3.216   2.283   5.743  0.9160  0.0041 -0.2105
   78SOPE   H5R 6978   3.322   2.292   5.711  0.7178 -3.7970 -2.5907
   78SOPE   H5S 6979   3.191   2.178   5.714  0.5342  0.1271 -0.3363
   78SOPE   C26 6980   3.130   2.369   5.650 -0.4217  0.1210  0.5665
   78SOPE   H6R 6981   3.025   2.339   5.672 -0.5982 -0.1384 -0.5368
   78SOPE   H6S 6982   3.143   2.475   5.678 -0.1881  0.4321 -0.6745
   78SOPE   C27 6983   3.159   2.349   5.494 -0.7652 -0.3955 -0.3574
   78SOPE   H7R 6984   3.076   2.396   5.437 -2.0741 -1.8367  0.2987
   78SOPE   H7S 6985   3.251   2.408   5.474 -0.5716 -0.3794  0.5648
   78SOPE   C28 6986   3.179   2.203   5.457  0.0372 -0.4332 -0.4064
   78SOPE   H8R 6987   3.219   2.216   5.354 -1.3304  1.0112 -0.8065
   78SOPE   H8S 6988   3.253   2.145   5.516 -1.5392 -1.2656  0.8501
   78SOPE   C29 6989   3.052   2.125   5.456  0.5739 -0.8745 -0.3573
   78SOPE   H91 6990   3.017   2.093   5.555 -1.5332 -0.3539 -0.8959
   78SOPE  C210 6991   2.980   2.094   5.345  0.5376  0.0493 -0.1080
   78SOPE  H101 6992   2.884   2.043   5.362  0.2632  0.8723  0.9549
   78SOPE  C211 6993   3.009   2.129   5.200  0.3249 -0.6820 -0.4717
   78SOPE  H11R 6994   3.029   2.036   5.143  1.4637  1.2996 -3.5385
   78SOPE  H11S 6995   3.103   2.188   5.194 -0.1334  0.0994 -0.2038
   78SOPE  C212 6996   2.898   2.212   5.160  0.8563 -0.2508  0.6335
   78SOPE  H12R 6997   2.900   2.301   5.225  1.7013  0.1002  0.1466
   78SOPE  H12S 6998   2.803   2.157   5.173  0.6512 -1.3649 -3.7355
   78SOPE  C213 6999   2.904   2.240   5.006  0.6447 -0.8336  0.7245
   78SOPE  H13R 7000   2.799   2.243   4.969  0.6574  1.7315  0.7087
   78SOPE  H13S 7001   2.960   2.163   4.949 -0.1241 -0.2491 -0.8908
   78SOPE  C214 7002   2.973   2.380   4.964 -0.4313  0.3295  0.3520
   78SOPE  H14R 7003   2.900   2.447   5.013 -4.9781 -3.6606 -0.2569
   78SOPE  H14S 7004   2.987   2.391   4.854  0.4962 -1.4252  0.2569
   78SOPE  C215 7005   3.109   2.402   5.036  0.5986 -0.3691  0.2983
   78SOPE  H15R 7006   3.182   2.331   4.994 -1.2948 -2.2007 -0.0670
   78SOPE  H15S 7007   3.098   2.386   5.146 -1.6780  2.0974  0.5505
   78SOPE  C216 7008   3.162   2.545   5.017 -0.2036 -0.2216  0.4121
   78SOPE  H16R 7009   3.088   2.620   5.052  0.6407  1.0512 -0.4820
   78SOPE  H16S 7010   3.175   2.552   4.907 -1.6454 -0.0855  0.2329
   78SOPE  C217 7011   3.288   2.569   5.097 -0.3641  0.4466 -0.1073
   78SOPE  H17R 7012   3.365   2.493   5.074 -0.0587  0.5741  0.4561
   78SOPE  H17S 7013   3.274   2.553   5.206  1.6260 -0.4512  0.0558
   78SOPE  C218 7014   3.335   2.715   5.062  0.2788 -0.1245  0.2578
   78SOPE  H18R 7015   3.328   2.716   4.952  2.2823 -1.7398  0.0476
   78SOPE  H18S 7016   3.436   2.749   5.093 -1.0690  1.8794  2.8121
   78SOPE  H18T 7017   3.259   2.788   5.097 -0.7567 -1.8354  1.7662
   78SOPE   C33 7018   3.218   1.603   5.861  0.0121 -0.6337  0.1731
   78SOPE   H3X 7019   3.140   1.680   5.876  0.4585 -0.5985  2.8532
   78SOPE   H3Y 7020   3.198   1.530   5.780 -0.7578  2.0708 -2.2051
   78SOPE   C34 7021   3.352   1.665   5.828  0.8153  0.0579  0.3125
   78SOPE   H4X 7022   3.437   1.594   5.838 -0.5495 -1.5662  0.9531
   78SOPE   H4Y 7023   3.385   1.742   5.900  2.6327 -0.3433 -0.0474
   78SOPE   C35 7024   3.360   1.725   5.686  0.2692  0.1785  0.0150
   78SOPE   H5X 7025   3.433   1.808   5.693  1.6171 -1.0897  2.3718
   78SOPE   H5Y 7026   3.263   1.770   5.656  0.0783 -0.5619 -0.5120
   78SOPE   C36 7027   3.415   1.619   5.584  0.1968 -0.0715 -0.5170
   78SOPE   H6X 7028   3.349   1.531   5.572  1.3376 -1.2612  1.4254
   78SOPE   H6Y 7029   3.516   1.577   5.606 -0.6888 -2.7122 -1.1737
   78SOPE   C37 7030   3.428   1.670   5.442 -0.2008  0.0020  1.5625
   78SOPE   H7X 7031   3.477   1.588   5.385  2.1376  3.3182 -1.6655
   78SOPE   H7Y 7032   3.504   1.751   5.434  0.7011 -0.7356  2.3982
   78SOPE   C38 7033   3.304   1.716   5.363 -0.8720 -0.2300 -0.8514
   78SOPE   H8X 7034   3.255   1.800   5.417 -2.2331 -1.4589 -0.1009
   78SOPE   H8Y 7035   3.233   1.631   5.374  0.5642 -2.0005 -3.9173
   78SOPE   C39 7036   3.342   1.746   5.221  0.2462 -0.2447 -0.5011
   78SOPE   H9X 7037   3.388   1.659   5.170  0.4043 -0.4712  0.0209
   78SOPE   H9Y 7038   3.412   1.832   5.232 -0.8284  0.8925 -2.0874
   78SOPE  C310 7039   3.231   1.786   5.135  0.4168 -0.9414 -0.1889
   78SOPE  H10X 7040   3.151   1.855   5.169 -2.5327 -3.6881 -1.1460
   78SOPE  H10Y 7041   3.169   1.702   5.098 -1.2698 -0.0836  0.6033
   78SOPE  C311 7042   3.280   1.855   5.000  0.0625  0.4236 -0.6896
   78SOPE  H11X 7043   3.190   1.863   4.936 -0.0982  0.2178 -0.4931
   78SOPE  H11Y 7044   3.354   1.784   4.958  1.7292  1.9379 -0.3941
   78SOPE  C312 7045   3.338   2.003   5.015 -0.5955 -0.1843  0.2745
   78SOPE  H12X 7046   3.447   1.982   5.014 -0.4185  0.5375  1.7813
   78SOPE  H12Y 7047   3.327   2.037   5.120  1.1256 -0.8590  0.7060
   78SOPE  C313 7048   3.274   2.093   4.904  0.0916  0.4532 -0.2827
   78SOPE  H13X 7049   3.310   2.197   4.916 -0.2238  0.4421  0.9548
   78SOPE  H13Y 7050   3.163   2.086   4.905  0.1579 -0.7504  0.5028
   78SOPE  C314 7051   3.328   2.032   4.771 -0.3366  0.0759  0.1925
   78SOPE  H14X 7052   3.276   1.934   4.762  0.7545 -0.5220  0.2119
   78SOPE  H14Y 7053   3.438   2.015   4.775 -0.2264  0.6113 -0.4335
   78SOPE  C315 7054   3.300   2.115   4.644  0.3853 -1.0779 -0.6052
   78SOPE  H15X 7055   3.301   2.054   4.551 -3.0146  0.5156 -1.8310
   78SOPE  H15Y 7056   3.385   2.188   4.642 -0.3125 -0.2445 -0.2524
   78SOPE  C316 7057   3.166   2.188   4.635 -0.3503  0.5567 -0.0191
   78SOPE  H16X 7058   3.168   2.265   4.715 -1.6864  0.2042  0.3735
   78SOPE  H16Y 7059   3.083   2.117   4.652  1.6187 -2.0330 -0.6522
   78SOPE  C317 7060   3.151   2.254   4.492 -0.5392 -0.7746 -0.5196
   78SOPE  H17X 7061   3.162   2.176   4.414 -1.4353 -1.0048 -0.4292
   78SOPE  H17Y 7062   3.228   2.332   4.478 -0.9053  0.3164  2.7459
   78SOPE  C318 7063   3.011   2.318   4.476  0.2828 -0.4874  0.2613
   78SOPE  H18X 7064   2.976   2.376   4.563  3.2505  1.8877  0.0378
   78SOPE  H18Y 7065   2.933   2.244   4.450  0.0984 -0.0045 -0.5965
   78SOPE  H18Z 7066   3.011   2.390   4.391 -1.6289 -1.7466 -0.8739
   79SOPE     N 7067   5.324   6.750   6.334  0.3420 -0.9958  0.2772
   79SOPE   HN1 7068   5.284   6.790   6.422  2.0816 -1.8271  1.5187
   79SOPE   HN2 7069   5.256   6.679   6.301 -2.0378  0.6740  1.2584
   79SOPE   HN3 7070   5.419   6.709   6.347 -0.0549 -1.4820  1.8911
   79SOPE   C12 7071   5.336   6.857   6.232  0.4024  0.0324  0.3954
   79SOPE  H12A 7072   5.306   6.954   6.278  1.8134  0.7431 -0.1284
   79SOPE  H12B 7073   5.272   6.837   6.144  1.3937 -1.0191 -0.1170
   79SOPE   C11 7074   5.483   6.863   6.200 -0.1684  0.2347  1.0309
   79SOPE  H11A 7075   5.496   6.929   6.111  0.2640  0.6567  1.4024
   79SOPE  H11B 7076   5.536   6.776   6.154  0.6318  1.6843 -0.9335
   79SOPE     P 7077   5.566   7.034   6.375  0.1610  0.0579  0.3928
   79SOPE   O13 7078   5.699   7.037   6.440 -0.1923  0.5868  0.1025
   79SOPE   O14 7079   5.451   7.071   6.461  0.0970 -0.5823 -0.4865
   79SOPE   O12 7080   5.552   6.889   6.311 -0.0963 -0.2961  0.1040
   79SOPE   O11 7081   5.563   7.134   6.258 -0.6572 -0.1832 -0.9855
   79SOPE    C1 7082   5.674   7.157   6.168  0.6359  0.3788  0.1417
   79SOPE    HA 7083   5.719   7.058   6.143  4.2094  1.6530  0.9632
   79SOPE    HB 7084   5.747   7.224   6.216 -1.5200  2.7948  0.2594
   79SOPE    C2 7085   5.626   7.238   6.042  0.3343  0.0254  1.1126
   79SOPE    HS 7086   5.583   7.332   6.082 -0.3190  0.5687 -0.7641
   79SOPE   O21 7087   5.526   7.160   5.970  0.5763  0.7770 -0.5012
   79SOPE   C21 7088   5.442   7.233   5.903  0.0699 -0.5329  0.4264
   79SOPE   O22 7089   5.434   7.355   5.896 -0.5540  0.4484  0.7630
   79SOPE   C22 7090   5.326   7.140   5.854 -0.1812 -0.0447  0.6865
   79SOPE   H2R 7091   5.238   7.162   5.919 -1.1506 -1.9502  0.1028
   79SOPE   H2S 7092   5.357   7.037   5.881  0.7657  0.1833  0.4932
   79SOPE    C3 7093   5.746   7.259   5.943 -0.3135  0.0006 -0.3066
   79SOPE    HX 7094   5.771   7.155   5.912 -3.4326 -0.5137 -1.4133
   79SOPE    HY 7095   5.827   7.312   5.998 -1.1818  0.6993  0.3120
   79SOPE   O31 7096   5.712   7.337   5.822  0.2277  0.3323  0.1124
   79SOPE   C31 7097   5.703   7.467   5.835  0.6434  0.1256  0.2476
   79SOPE   O32 7098   5.738   7.529   5.934  0.5281 -0.8525  0.5928
   79SOPE   C32 7099   5.639   7.513   5.708 -0.2802 -0.1065 -0.0550
   79SOPE   H2X 7100   5.626   7.623   5.707 -0.9626 -0.1561  1.0043
   79SOPE   H2Y 7101   5.534   7.476   5.713 -0.0223 -1.1897 -1.9833
   79SOPE   C23 7102   5.278   7.156   5.708  0.1891  0.3704 -0.2738
   79SOPE   H3R 7103   5.240   7.259   5.693 -0.7478 -0.2279 -2.4026
   79SOPE   H3S 7104   5.196   7.081   5.700  0.1780  0.4483 -0.9691
   79SOPE   C24 7105   5.379   7.117   5.606 -0.3883 -0.3411 -0.5455
   79SOPE   H4R 7106   5.462   7.190   5.606 -0.5779 -0.0969  1.1995
   79SOPE   H4S 7107   5.420   7.022   5.647 -0.9616 -0.3868 -0.0739
   79SOPE   C25 7108   5.317   7.098   5.464  0.4215  0.5153  0.7706
   79SOPE   H5R 7109   5.254   7.184   5.433  0.6446  0.5199  0.3167
   79SOPE   H5S 7110   5.399   7.093   5.390 -0.1561 -0.9474  0.1954
   79SOPE   C26 7111   5.236   6.967   5.453 -0.4497 -0.5845 -0.4962
   79SOPE   H6R 7112   5.142   6.964   5.512  0.7585  1.2549  1.6998
   79SOPE   H6S 7113   5.194   6.967   5.350 -1.0420 -1.0377 -0.2595
   79SOPE   C27 7114   5.317   6.842   5.481 -0.1767 -0.5419 -0.1272
   79SOPE   H7R 7115   5.418   6.849   5.437 -0.4455  1.7554 -0.4662
   79SOPE   H7S 7116   5.345   6.824   5.587  1.5642  0.0617 -0.4621
   79SOPE   C28 7117   5.241   6.718   5.424 -0.4717 -0.5373 -0.3295
   79SOPE   H8R 7118   5.142   6.705   5.473 -1.1473  3.7135 -0.1695
   79SOPE   H8S 7119   5.211   6.758   5.325  0.0363  0.4575 -0.0981
   79SOPE   C29 7120   5.312   6.587   5.406  0.4081 -0.1381 -0.5009
   79SOPE   H91 7121   5.339   6.537   5.500  0.7336  0.2658 -0.3776
   79SOPE  C210 7122   5.364   6.535   5.298 -0.3797 -0.4115 -0.5566
   79SOPE  H101 7123   5.422   6.441   5.292  0.8532  0.1805  1.3221
   79SOPE  C211 7124   5.353   6.595   5.158  0.6210 -0.1659  0.1692
   79SOPE  H11R 7125   5.261   6.655   5.140  0.1355 -0.9562 -0.0381
   79SOPE  H11S 7126   5.342   6.510   5.088 -0.8046  1.7020 -2.0223
   79SOPE  C212 7127   5.474   6.676   5.120 -0.0891 -0.5769 -0.0909
   79SOPE  H12R 7128   5.569   6.627   5.151  0.6825 -0.2408 -1.8116
   79SOPE  H12S 7129   5.467   6.776   5.168 -0.3686 -0.2445 -0.7999
   79SOPE  C213 7130   5.494   6.685   4.972 -0.5752  0.5137  0.2687
   79SOPE  H13R 7131   5.485   6.587   4.921  1.5730  0.3693  0.0860
   79SOPE  H13S 7132   5.596   6.718   4.944 -0.2069  1.6311  2.6547
   79SOPE  C214 7133   5.399   6.778   4.895  0.3397 -0.1332  0.2844
   79SOPE  H14R 7134   5.400   6.870   4.956 -1.5940 -0.5056  0.9328
   79SOPE  H14S 7135   5.302   6.724   4.901 -0.3540  0.9788 -0.5853
   79SOPE  C215 7136   5.454   6.802   4.757  0.1877 -0.0522  0.0160
   79SOPE  H15R 7137   5.453   6.707   4.700 -0.3208  0.7727 -1.4058
   79SOPE  H15S 7138   5.561   6.833   4.753  0.0740  0.2564 -1.7633
   79SOPE  C216 7139   5.391   6.915   4.671 -0.4194  0.1364  0.1597
   79SOPE  H16R 7140   5.404   7.000   4.741  2.6708 -0.9834  1.1323
   79SOPE  H16S 7141   5.286   6.881   4.659 -0.0455 -2.5765  3.1276
   79SOPE  C217 7142   5.448   6.940   4.536 -0.2961 -0.1496 -0.1160
   79SOPE  H17R 7143   5.384   7.018   4.489  0.2654  1.0534  1.0217
   79SOPE  H17S 7144   5.449   6.855   4.465 -1.2907 -0.6208  0.4238
   79SOPE  C218 7145   5.589   7.003   4.543 -0.0971 -0.7733 -0.1870
   79SOPE  H18R 7146   5.650   6.949   4.618 -1.3124  0.2059  1.5703
   79SOPE  H18S 7147   5.587   7.112   4.565  0.0974 -0.3131 -2.1681
   79SOPE  H18T 7148   5.646   6.986   4.449 -2.2313  0.5611 -1.8231
   79SOPE   C33 7149   5.719   7.470   5.588 -0.6922 -0.7543  0.5027
   79SOPE   H3X 7150   5.735   7.361   5.578 -2.1758 -0.7903 -2.7043
   79SOPE   H3Y 7151   5.818   7.521   5.590 -1.6348  1.1997 -0.0156
   79SOPE   C34 7152   5.658   7.521   5.454 -0.7243 -0.5967 -0.2227
   79SOPE   H4X 7153   5.630   7.627   5.472 -1.8056 -1.0538  0.9370
   79SOPE   H4Y 7154   5.573   7.458   5.421 -1.8379  1.4641 -1.5019
   79SOPE   C35 7155   5.752   7.506   5.338 -0.3452 -0.1749  0.4692
   79SOPE   H5X 7156   5.782   7.400   5.328 -1.3418 -0.3430 -1.0141
   79SOPE   H5Y 7157   5.850   7.557   5.352  0.1702 -0.9369 -0.2567
   79SOPE   C36 7158   5.693   7.553   5.202  0.1727 -0.1025 -0.6677
   79SOPE   H6X 7159   5.669   7.661   5.219  3.3026  0.4546  0.8560
   79SOPE   H6Y 7160   5.593   7.507   5.189  0.0138 -0.5450  1.6207
   79SOPE   C37 7161   5.784   7.539   5.081 -0.8014  0.3512  0.4328
   79SOPE   H7X 7162   5.806   7.432   5.061  0.9382  0.8519 -0.4893
   79SOPE   H7Y 7163   5.876   7.599   5.099 -0.1494 -0.0112 -1.4566
   79SOPE   C38 7164   5.727   7.610   4.957  1.1195 -0.0029  0.6884
   79SOPE   H8X 7165   5.680   7.705   4.990 -1.6277 -0.8791 -0.4803
   79SOPE   H8Y 7166   5.649   7.545   4.914  0.7921  1.7917 -1.5644
   79SOPE   C39 7167   5.835   7.625   4.851  0.0499 -0.0781  1.4372
   79SOPE   H9X 7168   5.934   7.666   4.881  1.8870  0.1870 -3.9717
   79SOPE   H9Y 7169   5.792   7.702   4.783  0.7165  0.9753  2.1821
   79SOPE  C310 7170   5.850   7.492   4.778 -1.0514 -0.1112 -0.7692
   79SOPE  H10X 7171   5.745   7.467   4.750 -1.3415 -0.7575  0.7806
   79SOPE  H10Y 7172   5.882   7.406   4.841  0.3579 -1.3089 -3.0140
   79SOPE  C311 7173   5.926   7.504   4.637  0.0989 -0.2343  0.3736
   79SOPE  H11X 7174   6.031   7.538   4.652 -0.2979  1.4909 -0.4641
   79SOPE  H11Y 7175   5.882   7.594   4.590 -1.4832 -0.3810  1.5189
   79SOPE  C312 7176   5.915   7.381   4.544  0.4131  0.0701 -0.6585
   79SOPE  H12X 7177   5.940   7.303   4.619 -0.7649 -0.9233 -1.2709
   79SOPE  H12Y 7178   5.995   7.387   4.467 -0.5858  0.0245 -1.7080
   79SOPE  C313 7179   5.778   7.356   4.483  0.1387 -0.2443  0.1790
   79SOPE  H13X 7180   5.743   7.455   4.447 -0.9589 -0.2914  1.0650
   79SOPE  H13Y 7181   5.701   7.316   4.551 -0.1033 -2.1714 -1.1553
   79SOPE  C314 7182   5.801   7.277   4.353  0.3312  0.1430 -0.4147
   79SOPE  H14X 7183   5.852   7.349   4.287 -0.9025  1.0470 -0.4108
   79SOPE  H14Y 7184   5.708   7.247   4.299 -0.2710 -1.9809  1.6214
   79SOPE  C315 7185   5.877   7.146   4.379  0.0478 -0.0008  0.1492
   79SOPE  H15X 7186   5.850   7.104   4.478 -1.1916 -0.7814 -0.5038
   79SOPE  H15Y 7187   5.987   7.159   4.374  0.4081 -1.9497  1.9017
   79SOPE  C316 7188   5.848   7.029   4.281 -0.1718 -0.2337 -0.4901
   79SOPE  H16X 7189   5.897   7.038   4.182  1.4825  1.5805  0.4311
   79SOPE  H16Y 7190   5.737   7.024   4.279 -0.1347 -0.9832 -1.3616
   79SOPE  C317 7191   5.888   6.889   4.336  0.2977  0.0367 -0.0375
   79SOPE  H17X 7192   5.801   6.823   4.313 -0.4963  0.9739  0.1744
   79SOPE  H17Y 7193   5.908   6.902   4.444  0.9356  2.1189 -0.3613
   79SOPE  C318 7194   6.006   6.827   4.262 -0.0242  0.0074 -0.2373
   79SOPE  H18X 7195   6.017   6.723   4.300 -0.5562 -0.0710 -0.2966
   79SOPE  H18Y 7196   6.098   6.887   4.277  0.0756 -0.4257  0.9917
   79SOPE  H18Z 7197   5.996   6.820   4.152  2.0548  1.2025 -0.5604
   80SOPE     N 7198   2.547   3.154   6.617 -0.3016 -0.3184  0.0981
   80SOPE   HN1 7199   2.581   3.248   6.645 -1.0743  0.3689 -1.1797
   80SOPE   HN2 7200   2.488   3.177   6.535 -2.2997  0.8223  1.7388
   80SOPE   HN3 7201   2.482   3.112   6.687 -0.6202  1.9926  1.2671
   80SOPE   C12 7202   2.668   3.060   6.595 -0.6047 -0.3001  0.2513
   80SOPE  H12A 7203   2.628   2.963   6.558 -0.3067 -0.0065 -0.9015
   80SOPE  H12B 7204   2.719   3.045   6.693 -0.6532  0.6330  0.4295
   80SOPE   C11 7205   2.773   3.102   6.490  0.2051  0.3193  0.2638
   80SOPE  H11A 7206   2.742   3.059   6.393 -1.9481  0.5067  0.8227
   80SOPE  H11B 7207   2.863   3.042   6.518  0.0256 -0.3279 -0.5369
   80SOPE     P 7208   2.921   3.303   6.570  0.0440  0.3068 -0.2471
   80SOPE   O13 7209   2.953   3.224   6.688  1.0802  0.0931 -0.2010
   80SOPE   O14 7210   2.899   3.450   6.579  0.0337  0.1477 -0.8633
   80SOPE   O12 7211   2.794   3.244   6.493 -0.4252  0.0311 -0.1193
   80SOPE   O11 7212   3.043   3.287   6.469 -0.3438  1.1698 -0.3302
   80SOPE    C1 7213   3.028   3.275   6.321 -0.3341 -1.0786 -0.3685
   80SOPE    HA 7214   3.000   3.376   6.283  0.7009  0.5841  2.8779
   80SOPE    HB 7215   2.966   3.188   6.291 -1.4318 -1.3747  2.4727
   80SOPE    C2 7216   3.175   3.283   6.270  0.6504 -0.3434 -0.0248
   80SOPE    HS 7217   3.172   3.281   6.159 -0.3038 -2.3226 -0.0073
   80SOPE   O21 7218   3.252   3.166   6.312  0.3773  0.0909  0.3353
   80SOPE   C21 7219   3.244   3.060   6.225 -0.3430 -0.0762  0.3957
   80SOPE   O22 7220   3.157   3.046   6.144  0.4243 -0.0972  0.1220
   80SOPE   C22 7221   3.351   2.956   6.271 -0.3568 -0.5999 -0.2232
   80SOPE   H2R 7222   3.301   2.902   6.354 -2.1146  1.9440  0.4703
   80SOPE   H2S 7223   3.444   3.010   6.299  0.8773 -1.6090 -2.1360
   80SOPE    C3 7224   3.252   3.421   6.300  0.2595  0.7520  1.1839
   80SOPE    HX 7225   3.285   3.416   6.406 -0.3462  0.3572  1.3597
   80SOPE    HY 7226   3.188   3.508   6.276 -0.4794 -0.7396 -2.9891
   80SOPE   O31 7227   3.375   3.429   6.226 -0.2376  0.4513 -0.0287
   80SOPE   C31 7228   3.444   3.538   6.238 -0.4855 -0.0642  0.3145
   80SOPE   O32 7229   3.409   3.647   6.272 -0.1494 -0.8169 -0.3621
   80SOPE   C32 7230   3.583   3.517   6.177  1.2492  0.6429 -0.4917
   80SOPE   H2X 7231   3.608   3.413   6.208  0.4973  0.4495 -0.5182
   80SOPE   H2Y 7232   3.657   3.578   6.234  1.1675  0.5135 -0.2444
   80SOPE   C23 7233   3.396   2.872   6.149 -0.0001  0.1702 -0.7747
   80SOPE   H3R 7234   3.490   2.825   6.184 -1.5008 -0.7401  2.3574
   80SOPE   H3S 7235   3.416   2.940   6.063  0.1915  1.8270  0.5184
   80SOPE   C24 7236   3.304   2.761   6.105 -0.2959 -0.2920  0.4683
   80SOPE   H4R 7237   3.336   2.664   6.149  0.2218 -0.7095 -0.8079
   80SOPE   H4S 7238   3.198   2.762   6.140 -0.4140 -0.5461  0.1238
   80SOPE   C25 7239   3.314   2.734   5.954  0.3172 -0.6380  0.9289
   80SOPE   H5R 7240   3.421   2.740   5.926 -0.0971 -0.0009 -0.6496
   80SOPE   H5S 7241   3.268   2.634   5.941  1.1056 -0.7218 -2.0398
   80SOPE   C26 7242   3.233   2.833   5.862 -0.5550  0.9083  0.0404
   80SOPE   H6R 7243   3.124   2.841   5.883 -0.7689  1.6148 -1.2268
   80SOPE   H6S 7244   3.276   2.931   5.891  0.0918  0.7472 -0.3548
   80SOPE   C27 7245   3.253   2.808   5.714 -0.4564 -0.1980 -0.2484
   80SOPE   H7R 7246   3.355   2.833   5.675 -0.9393  2.2563 -0.0504
   80SOPE   H7S 7247   3.231   2.702   5.689  1.6495 -1.2114  1.7408
   80SOPE   C28 7248   3.162   2.896   5.624 -0.6736 -0.1768 -0.5172
   80SOPE   H8R 7249   3.060   2.887   5.668 -0.0853 -0.3865  0.8523
   80SOPE   H8S 7250   3.202   2.999   5.639 -0.0379 -0.2722 -1.4707
   80SOPE   C29 7251   3.189   2.864   5.478 -0.4401 -0.4507 -0.2350
   80SOPE   H91 7252   3.289   2.888   5.437 -0.5091  0.6638  0.2109
   80SOPE  C210 7253   3.106   2.795   5.400 -0.0919 -0.2311  0.7869
   80SOPE  H101 7254   3.141   2.780   5.296 -1.8560  0.0836  0.1099
   80SOPE  C211 7255   2.974   2.743   5.436 -0.0381  0.6546  0.4531
   80SOPE  H11R 7256   2.922   2.826   5.488  0.5088  0.6354  1.0549
   80SOPE  H11S 7257   2.976   2.660   5.510  1.7195 -0.5053 -0.8182
   80SOPE  C212 7258   2.894   2.696   5.312  0.8737  0.1131  0.2666
   80SOPE  H12R 7259   2.790   2.674   5.343  0.5593  3.5350  2.1438
   80SOPE  H12S 7260   2.948   2.610   5.268  1.8559  0.5198  0.6306
   80SOPE  C213 7261   2.878   2.808   5.207  0.1324 -0.5706  0.4682
   80SOPE  H13R 7262   2.976   2.824   5.157 -0.6097  3.2732 -0.0425
   80SOPE  H13S 7263   2.852   2.902   5.261  0.6193  0.1591 -0.5338
   80SOPE  C214 7264   2.770   2.756   5.100 -1.1029  0.1489  0.7176
   80SOPE  H14R 7265   2.671   2.730   5.144 -0.4940  0.0467  2.0694
   80SOPE  H14S 7266   2.820   2.663   5.065 -1.4167  0.2341  0.0247
   80SOPE  C215 7267   2.737   2.857   4.991 -0.5982 -0.2052 -0.0888
   80SOPE  H15R 7268   2.672   2.938   5.030 -1.2811 -0.0748 -1.4414
   80SOPE  H15S 7269   2.678   2.800   4.916 -0.3313  2.9058 -2.9116
   80SOPE  C216 7270   2.863   2.923   4.936  0.1930  0.4666  0.1787
   80SOPE  H16R 7271   2.927   2.849   4.884  0.7797  0.9753  0.1667
   80SOPE  H16S 7272   2.935   2.950   5.016 -0.6639 -0.7224  1.4057
   80SOPE  C217 7273   2.832   3.049   4.852  0.2057  0.4358  0.2758
   80SOPE  H17R 7274   2.780   3.126   4.913  0.6221 -0.6096  2.0159
   80SOPE  H17S 7275   2.769   3.006   4.771  1.9028 -2.2887  0.2834
   80SOPE  C218 7276   2.953   3.107   4.792 -0.8133 -0.2431 -0.2073
   80SOPE  H18R 7277   3.013   3.165   4.866 -2.4975  1.0806  0.1835
   80SOPE  H18S 7278   2.924   3.170   4.706  0.3065 -0.2649 -0.6240
   80SOPE  H18T 7279   3.018   3.030   4.746 -0.1599  0.4300 -0.4411
   80SOPE   C33 7280   3.601   3.526   6.026  0.3728  0.2205  0.4119
   80SOPE   H3X 7281   3.706   3.512   5.992 -0.0859  1.0927 -1.4467
   80SOPE   H3Y 7282   3.562   3.623   5.987 -1.0609  0.1307  1.5166
   80SOPE   C34 7283   3.520   3.422   5.946  0.1608 -0.2416 -0.9836
   80SOPE   H4X 7284   3.528   3.440   5.837 -2.0861  1.2775 -0.9718
   80SOPE   H4Y 7285   3.414   3.437   5.977  1.2678  0.5209  3.1404
   80SOPE   C35 7286   3.550   3.275   5.966 -0.4270 -0.5959  0.7654
   80SOPE   H5X 7287   3.554   3.246   6.074 -3.3967 -0.7447  0.9028
   80SOPE   H5Y 7288   3.657   3.263   5.936 -0.0415  1.6209  1.0483
   80SOPE   C36 7289   3.454   3.180   5.886  0.0306 -0.0341 -0.7337
   80SOPE   H6X 7290   3.357   3.173   5.940  0.4023  1.7948  0.2337
   80SOPE   H6Y 7291   3.498   3.078   5.880  0.3366  0.0251  0.3612
   80SOPE   C37 7292   3.426   3.223   5.740  0.2085  0.2457  0.4032
   80SOPE   H7X 7293   3.364   3.315   5.733 -0.4004 -0.1915 -0.1327
   80SOPE   H7Y 7294   3.340   3.161   5.705  0.4892 -0.0127  0.1562
   80SOPE   C38 7295   3.544   3.216   5.643 -0.2805 -0.0709  0.0459
   80SOPE   H8X 7296   3.596   3.118   5.653 -1.1342 -0.5314  0.0554
   80SOPE   H8Y 7297   3.608   3.299   5.679 -1.2275  0.9820 -0.6445
   80SOPE   C39 7298   3.503   3.251   5.495 -0.4403 -0.0375 -0.4644
   80SOPE   H9X 7299   3.594   3.242   5.433 -0.7550  2.5575 -1.4077
   80SOPE   H9Y 7300   3.465   3.355   5.503 -0.0550  0.0934 -0.3065
   80SOPE  C310 7301   3.400   3.165   5.417  0.6230 -0.0347  0.2595
   80SOPE  H10X 7302   3.294   3.191   5.439  0.4314 -1.0476  0.5943
   80SOPE  H10Y 7303   3.415   3.057   5.437  0.7265 -0.0593  0.0503
   80SOPE  C311 7304   3.422   3.203   5.275 -0.0413  0.3813  0.8591
   80SOPE  H11X 7305   3.525   3.168   5.253  0.1286  0.4263  1.5489
   80SOPE  H11Y 7306   3.427   3.310   5.246 -3.2734 -0.1142 -2.2250
   80SOPE  C312 7307   3.329   3.128   5.175  0.2366 -0.1059 -0.0542
   80SOPE  H12X 7308   3.223   3.160   5.183 -0.2041 -1.7475  1.6195
   80SOPE  H12Y 7309   3.334   3.019   5.196  1.3823 -0.0221  0.1743
   80SOPE  C313 7310   3.367   3.132   5.024 -0.5002 -0.4946  0.1728
   80SOPE  H13X 7311   3.363   3.239   4.993 -0.0141 -0.5470 -0.0764
   80SOPE  H13Y 7312   3.302   3.070   4.959 -2.2423  1.2957  0.0729
   80SOPE  C314 7313   3.517   3.091   5.003  0.1208 -0.4023 -0.1567
   80SOPE  H14X 7314   3.523   2.986   5.040  1.9566 -0.2357  0.1215
   80SOPE  H14Y 7315   3.584   3.163   5.055 -0.7773 -0.0940  0.6076
   80SOPE  C315 7316   3.570   3.090   4.857 -0.7981  0.0807 -0.0866
   80SOPE  H15X 7317   3.494   3.033   4.799  1.2449 -1.3465 -1.4974
   80SOPE  H15Y 7318   3.669   3.041   4.848  0.7038  2.9014 -0.2476
   80SOPE  C316 7319   3.563   3.220   4.780  0.1325 -0.1418 -0.3461
   80SOPE  H16X 7320   3.457   3.250   4.771 -0.2405 -1.2826  0.0363
   80SOPE  H16Y 7321   3.612   3.213   4.680  0.1175  1.1839 -0.4592
   80SOPE  C317 7322   3.629   3.343   4.844 -0.3841 -0.1360  0.3422
   80SOPE  H17X 7323   3.737   3.317   4.837 -0.4407  0.0122 -4.9032
   80SOPE  H17Y 7324   3.591   3.355   4.948 -1.0679 -1.0195  0.2081
   80SOPE  C318 7325   3.594   3.481   4.780 -0.6121 -0.3617 -0.5145
   80SOPE  H18X 7326   3.602   3.473   4.670 -0.1539 -0.8193 -0.4483
   80SOPE  H18Y 7327   3.673   3.545   4.825 -0.3953 -1.9130  1.4825
   80SOPE  H18Z 7328   3.500   3.532   4.811  1.1649  1.7591  1.9780
   81SOPE     N 7329   6.259   5.731   6.422  0.2611 -0.1386  0.2075
   81SOPE   HN1 7330   6.328   5.773   6.487  0.3836 -0.9594  0.6112
   81SOPE   HN2 7331   6.283   5.754   6.323  0.1152 -0.2257  0.1514
   81SOPE   HN3 7332   6.166   5.777   6.433  0.0046 -0.3076 -1.0256
   81SOPE   C12 7333   6.244   5.582   6.443  0.1478 -1.2511  0.5422
   81SOPE  H12A 7334   6.137   5.559   6.428 -0.2959  1.2838 -0.6963
   81SOPE  H12B 7335   6.265   5.553   6.548  1.8089 -0.1302  0.5763
   81SOPE   C11 7336   6.346   5.507   6.351  0.2890 -0.2913 -0.4856
   81SOPE  H11A 7337   6.313   5.508   6.245  1.1419  4.0404 -0.8746
   81SOPE  H11B 7338   6.357   5.397   6.368  1.1408 -0.2735 -0.8647
   81SOPE     P 7339   6.603   5.500   6.399 -0.6175 -0.1077 -0.1326
   81SOPE   O13 7340   6.598   5.484   6.546 -0.1258  0.3019  0.1888
   81SOPE   O14 7341   6.723   5.574   6.353  0.2035 -0.8169 -0.0744
   81SOPE   O12 7342   6.469   5.573   6.354  0.1700 -0.6098 -0.3381
   81SOPE   O11 7343   6.595   5.358   6.342 -0.4230 -0.5607 -1.1368
   81SOPE    C1 7344   6.588   5.337   6.199  0.0559  0.4731  0.4434
   81SOPE    HA 7345   6.567   5.430   6.142 -0.6428  0.2153  0.2717
   81SOPE    HB 7346   6.510   5.262   6.178  0.9422 -0.0870 -1.0078
   81SOPE    C2 7347   6.722   5.293   6.142  0.0818  0.3254 -0.2549
   81SOPE    HS 7348   6.798   5.350   6.200 -1.5621 -0.2865  2.6871
   81SOPE   O21 7349   6.727   5.308   6.001  0.0569 -0.7208 -0.4165
   81SOPE   C21 7350   6.847   5.290   5.932  0.2915 -0.2257  0.1141
   81SOPE   O22 7351   6.956   5.282   5.988 -0.0757  0.8452 -0.4885
   81SOPE   C22 7352   6.815   5.285   5.785  0.4839 -0.8164  0.2109
   81SOPE   H2R 7353   6.740   5.365   5.768  0.3511 -1.2673 -1.5060
   81SOPE   H2S 7354   6.774   5.187   5.751  0.6117 -0.3347 -1.4381
   81SOPE    C3 7355   6.767   5.147   6.182 -0.3707 -0.4377  0.2640
   81SOPE    HX 7356   6.741   5.142   6.290 -0.4488  1.0944  0.3364
   81SOPE    HY 7357   6.876   5.127   6.179 -0.1243  0.3471  2.4642
   81SOPE   O31 7358   6.689   5.049   6.117  0.2455 -0.4041 -0.1329
   81SOPE   C31 7359   6.711   4.924   6.149 -0.7393  0.5507 -0.2371
   81SOPE   O32 7360   6.791   4.891   6.240  0.0491  0.3785  0.0161
   81SOPE   C32 7361   6.650   4.831   6.042 -0.3685  0.1324  0.1301
   81SOPE   H2X 7362   6.661   4.727   6.081  1.8250  0.1577 -0.3063
   81SOPE   H2Y 7363   6.714   4.842   5.952  1.0681 -0.0887  1.0875
   81SOPE   C23 7364   6.934   5.311   5.694  0.7443  0.3108  0.4045
   81SOPE   H3R 7365   7.005   5.388   5.732 -1.1450  2.7308 -0.6375
   81SOPE   H3S 7366   6.899   5.348   5.595 -0.6220 -0.8118  0.4498
   81SOPE   C24 7367   7.007   5.178   5.649  0.4865  0.6500  0.2497
   81SOPE   H4R 7368   7.035   5.118   5.739 -2.0788 -3.2238 -1.2453
   81SOPE   H4S 7369   6.924   5.124   5.598  1.2355 -0.8939  0.6120
   81SOPE   C25 7370   7.133   5.192   5.559 -0.0960 -0.2108  0.4184
   81SOPE   H5R 7371   7.130   5.294   5.515 -0.5375 -0.6279 -0.5604
   81SOPE   H5S 7372   7.215   5.197   5.633  0.2364  2.2448 -0.0438
   81SOPE   C26 7373   7.148   5.087   5.449  0.5179 -0.7645 -0.3426
   81SOPE   H6R 7374   7.258   5.084   5.433  1.1175  0.7613  2.7179
   81SOPE   H6S 7375   7.106   4.989   5.478  1.3020 -0.7937  0.7767
   81SOPE   C27 7376   7.085   5.146   5.319 -0.8439  0.5473  0.4395
   81SOPE   H7R 7377   6.985   5.187   5.343 -1.0426  1.8993 -2.3033
   81SOPE   H7S 7378   7.125   5.242   5.279 -0.9159 -0.1396 -1.3874
   81SOPE   C28 7379   7.079   5.036   5.209 -0.4697 -0.0494  0.0509
   81SOPE   H8R 7380   7.032   4.948   5.258 -0.8678  0.3555  0.4161
   81SOPE   H8S 7381   7.018   5.077   5.125  3.1529  2.2998 -1.6878
   81SOPE   C29 7382   7.214   5.010   5.143  0.2937  0.1563  0.0854
   81SOPE   H91 7383   7.273   4.932   5.193  0.8960  0.4540 -0.1586
   81SOPE  C210 7384   7.259   5.056   5.032  0.3117  0.0950 -0.5259
   81SOPE  H101 7385   7.362   5.029   5.004  0.2277  0.6564 -1.4056
   81SOPE  C211 7386   7.197   5.142   4.927 -0.1939 -0.1131  0.6269
   81SOPE  H11R 7387   7.270   5.223   4.905  0.4046 -0.5920  0.8345
   81SOPE  H11S 7388   7.109   5.190   4.975  0.3014  1.1268  0.3245
   81SOPE  C212 7389   7.141   5.064   4.807 -0.5895 -0.0825  0.7394
   81SOPE  H12R 7390   7.091   5.143   4.747 -1.1438 -0.3516  0.8402
   81SOPE  H12S 7391   7.065   4.991   4.842 -0.9085 -0.9363 -1.5547
   81SOPE  C213 7392   7.253   5.001   4.718  0.3624 -0.2251  0.4395
   81SOPE  H13R 7393   7.266   4.892   4.729 -2.9157 -0.8236 -0.3422
   81SOPE  H13S 7394   7.347   5.059   4.729  0.8110 -0.4696 -1.7297
   81SOPE  C214 7395   7.218   5.009   4.565 -0.0880 -0.2191 -0.1349
   81SOPE  H14R 7396   7.195   5.116   4.546 -1.2696 -0.3520  0.4719
   81SOPE  H14S 7397   7.127   4.952   4.539 -1.0138  0.8796  0.5885
   81SOPE  C215 7398   7.327   4.960   4.468 -0.4799  0.3857  0.2709
   81SOPE  H15R 7399   7.401   5.043   4.470  0.6769 -0.6258  1.5472
   81SOPE  H15S 7400   7.276   4.961   4.369  1.9752  1.7004 -1.0997
   81SOPE  C216 7401   7.394   4.830   4.502  0.8379 -0.1422 -0.6845
   81SOPE  H16R 7402   7.300   4.776   4.523  0.9316  0.8028  2.7721
   81SOPE  H16S 7403   7.438   4.839   4.604 -0.1433 -0.5244 -0.2200
   81SOPE  C217 7404   7.487   4.778   4.393  0.3142  0.1875  1.2405
   81SOPE  H17R 7405   7.441   4.810   4.297 -0.2657 -1.5263  0.9076
   81SOPE  H17S 7406   7.490   4.667   4.387 -0.4291  0.2275 -3.4364
   81SOPE  C218 7407   7.629   4.830   4.405  0.0214  0.2397 -0.6725
   81SOPE  H18R 7408   7.695   4.785   4.328  0.2763  0.4255 -0.5653
   81SOPE  H18S 7409   7.662   4.803   4.508  0.0740  2.9830  0.1124
   81SOPE  H18T 7410   7.624   4.941   4.404  3.0881  0.5177  1.2117
   81SOPE   C33 7411   6.513   4.866   5.989 -0.0311  0.3180  0.5548
   81SOPE   H3X 7412   6.489   4.974   5.979 -1.1556 -0.0794 -1.4461
   81SOPE   H3Y 7413   6.440   4.807   6.048  0.0902 -1.2785 -0.8366
   81SOPE   C34 7414   6.499   4.805   5.852 -0.5055  0.7352  0.2471
   81SOPE   H4X 7415   6.391   4.785   5.832 -0.6186 -0.9810  2.1635
   81SOPE   H4Y 7416   6.554   4.709   5.844  1.1283  1.6716 -0.0381
   81SOPE   C35 7417   6.536   4.901   5.739  0.2150  0.2934 -0.4131
   81SOPE   H5X 7418   6.621   4.964   5.773  1.1785 -1.1407 -0.0569
   81SOPE   H5Y 7419   6.454   4.976   5.738 -0.2329  0.1215  3.8655
   81SOPE   C36 7420   6.574   4.823   5.607 -0.6801 -0.2921  0.4457
   81SOPE   H6X 7421   6.483   4.765   5.582 -0.8795 -0.3958  1.3673
   81SOPE   H6Y 7422   6.662   4.755   5.621  0.6889  0.3227 -3.8937
   81SOPE   C37 7423   6.600   4.919   5.487 -0.1877 -0.0166  0.2937
   81SOPE   H7X 7424   6.682   4.991   5.506 -1.8529  2.2634 -0.7767
   81SOPE   H7Y 7425   6.523   4.998   5.478 -0.3633 -0.1839  0.3116
   81SOPE   C38 7426   6.621   4.857   5.345 -0.2063  0.5268 -0.1134
   81SOPE   H8X 7427   6.536   4.794   5.309  0.9502  0.0494 -2.1563
   81SOPE   H8Y 7428   6.709   4.790   5.346 -0.2113  0.4901 -1.0092
   81SOPE   C39 7429   6.631   4.963   5.233  0.7317 -0.1301 -0.0627
   81SOPE   H9X 7430   6.712   5.039   5.241 -1.2491  2.1698 -0.7847
   81SOPE   H9Y 7431   6.543   5.030   5.232 -1.2667 -2.4629 -3.2551
   81SOPE  C310 7432   6.660   4.898   5.095  0.1693  0.3197  0.8785
   81SOPE  H10X 7433   6.586   4.826   5.057  0.6423  1.4517 -2.4907
   81SOPE  H10Y 7434   6.755   4.842   5.112  0.3857  1.0245  2.1349
   81SOPE  C311 7435   6.685   4.994   4.981  0.7103  0.1582  0.5545
   81SOPE  H11X 7436   6.782   5.047   4.994  1.1942  0.3727 -3.0233
   81SOPE  H11Y 7437   6.600   5.065   4.979  0.9615  0.4723  0.9199
   81SOPE  C312 7438   6.703   4.919   4.846 -0.3350 -0.3534 -0.2995
   81SOPE  H12X 7439   6.607   4.865   4.829 -0.4112 -0.0567 -0.8782
   81SOPE  H12Y 7440   6.777   4.837   4.854  1.8048  1.4662 -0.5175
   81SOPE  C313 7441   6.744   5.010   4.727 -0.0179 -0.2907 -0.3346
   81SOPE  H13X 7442   6.762   4.946   4.638  0.1713  0.9564 -1.2057
   81SOPE  H13Y 7443   6.842   5.052   4.758  0.6898 -1.5516 -0.7782
   81SOPE  C314 7444   6.635   5.109   4.684  0.0485 -0.2168 -0.6097
   81SOPE  H14X 7445   6.610   5.165   4.776 -0.4087 -2.0678  0.4470
   81SOPE  H14Y 7446   6.551   5.044   4.651  0.1097  0.0675 -1.3586
   81SOPE  C315 7447   6.673   5.186   4.564 -0.4651 -0.0642  0.7289
   81SOPE  H15X 7448   6.755   5.247   4.606 -0.4291 -2.1156  4.0339
   81SOPE  H15Y 7449   6.592   5.258   4.540  1.4665  2.8014  2.2346
   81SOPE  C316 7450   6.715   5.109   4.428 -0.1113  0.0150  0.6799
   81SOPE  H16X 7451   6.632   5.053   4.381  0.6037 -0.6032  0.1085
   81SOPE  H16Y 7452   6.808   5.049   4.442  1.4028  1.1191 -3.2135
   81SOPE  C317 7453   6.767   5.216   4.322  0.0335  0.0024  0.0124
   81SOPE  H17X 7454   6.792   5.163   4.227  1.8749  1.6745 -0.4829
   81SOPE  H17Y 7455   6.870   5.241   4.354 -0.0469 -1.0099  1.1426
   81SOPE  C318 7456   6.691   5.345   4.293 -0.2469 -0.0321 -0.3268
   81SOPE  H18X 7457   6.581   5.336   4.278 -1.2117  3.2445  3.3160
   81SOPE  H18Y 7458   6.736   5.389   4.202 -0.9811 -1.2135 -1.2970
   81SOPE  H18Z 7459   6.683   5.416   4.377 -0.8657  0.4241 -0.7610
   82SOPE     N 7460   4.020   6.111   6.535 -0.3259 -0.2511  0.2864
   82SOPE   HN1 7461   4.009   6.174   6.617 -0.6718 -2.2428  1.8515
   82SOPE   HN2 7462   4.088   6.033   6.541 -2.7436 -2.4923  0.2853
   82SOPE   HN3 7463   4.031   6.168   6.448 -2.6985 -1.0043 -0.5849
   82SOPE   C12 7464   3.886   6.031   6.523  0.4924  0.2491 -0.4629
   82SOPE  H12A 7465   3.864   5.982   6.621 -2.3573 -0.5871 -1.4332
   82SOPE  H12B 7466   3.890   5.957   6.440  2.3020  0.1357 -0.3087
   82SOPE   C11 7467   3.765   6.129   6.512 -0.5379  0.1922 -0.0839
   82SOPE  H11A 7468   3.786   6.177   6.414 -0.8347 -0.4562 -0.4749
   82SOPE  H11B 7469   3.773   6.212   6.585  2.5785  0.4314 -0.5724
   82SOPE     P 7470   3.507   6.115   6.580  0.5566 -0.1650  0.1110
   82SOPE   O13 7471   3.542   6.193   6.704 -0.0723 -0.1396  0.0505
   82SOPE   O14 7472   3.404   6.012   6.590 -0.2034  0.0215  0.3316
   82SOPE   O12 7473   3.642   6.060   6.515 -0.0413 -0.7949  0.5052
   82SOPE   O11 7474   3.467   6.212   6.461 -0.1676 -0.2631 -0.1731
   82SOPE    C1 7475   3.465   6.182   6.327 -0.2047  0.2799 -0.1813
   82SOPE    HA 7476   3.368   6.132   6.305 -0.0819  0.1720 -0.4837
   82SOPE    HB 7477   3.547   6.110   6.307 -0.4458 -0.4061  1.2063
   82SOPE    C2 7478   3.492   6.310   6.244  0.8476  0.0574 -0.1401
   82SOPE    HS 7479   3.476   6.391   6.318 -2.0466 -0.4645 -0.0608
   82SOPE   O21 7480   3.399   6.324   6.134  0.1259  0.0593  0.2185
   82SOPE   C21 7481   3.269   6.325   6.164 -0.1781  0.1718  0.4153
   82SOPE   O22 7482   3.218   6.326   6.273 -0.1791 -0.5747  0.7006
   82SOPE   C22 7483   3.183   6.332   6.038 -0.9291  0.2971  0.3707
   82SOPE   H2R 7484   3.241   6.298   5.950 -0.9401  0.7890  0.1689
   82SOPE   H2S 7485   3.170   6.442   6.033  0.7382  0.5592  1.2233
   82SOPE    C3 7486   3.638   6.312   6.186 -0.0206 -0.1125  0.1227
   82SOPE    HX 7487   3.711   6.309   6.269 -0.7675 -0.7720  0.7682
   82SOPE    HY 7488   3.646   6.407   6.129  2.5173 -0.5491 -0.3909
   82SOPE   O31 7489   3.654   6.195   6.102  0.7778 -0.6165 -0.0980
   82SOPE   C31 7490   3.768   6.174   6.043  0.3788 -0.5660 -0.1891
   82SOPE   O32 7491   3.874   6.237   6.050  0.2716  0.2356 -0.2352
   82SOPE   C32 7492   3.753   6.037   5.973 -0.3102  0.2804 -1.0978
   82SOPE   H2X 7493   3.659   6.048   5.915 -1.8607 -0.8480  1.0738
   82SOPE   H2Y 7494   3.746   5.959   6.051  0.6034 -1.1008 -2.3523
   82SOPE   C23 7495   3.055   6.255   6.041 -0.7882  0.6124 -0.3550
   82SOPE   H3R 7496   2.999   6.287   6.131  0.5383 -0.5010  0.9116
   82SOPE   H3S 7497   3.082   6.148   6.050  1.1113  1.1739  1.3689
   82SOPE   C24 7498   2.967   6.296   5.923 -0.4874  0.0811 -0.3513
   82SOPE   H4R 7499   2.861   6.275   5.947 -1.0630  0.5568 -2.3295
   82SOPE   H4S 7500   2.992   6.404   5.919 -2.0995  0.4607 -0.8413
   82SOPE   C25 7501   2.990   6.230   5.788 -0.1997  0.8515 -0.0254
   82SOPE   H5R 7502   2.906   6.269   5.727  0.4127  1.2200 -0.6640
   82SOPE   H5S 7503   3.075   6.284   5.739 -1.7629  1.9154 -1.6852
   82SOPE   C26 7504   3.010   6.077   5.778  0.0673 -0.1194 -0.3907
   82SOPE   H6R 7505   3.092   6.056   5.850 -0.1071 -0.6376 -0.3386
   82SOPE   H6S 7506   2.920   6.025   5.817 -1.1319 -0.8767 -3.7949
   82SOPE   C27 7507   3.049   6.026   5.641  0.1034 -0.5848 -0.5952
   82SOPE   H7R 7508   2.979   6.055   5.559  1.2591  0.2085 -1.3193
   82SOPE   H7S 7509   3.136   6.086   5.608 -1.6422  2.6003  0.0945
   82SOPE   C28 7510   3.092   5.883   5.652 -0.2240  0.4459  0.9534
   82SOPE   H8R 7511   3.144   5.875   5.554 -0.1372  1.2713  0.9222
   82SOPE   H8S 7512   3.159   5.873   5.740  1.7451  0.8627 -0.4167
   82SOPE   C29 7513   2.972   5.789   5.652 -0.3403 -0.3019 -0.2779
   82SOPE   H91 7514   2.935   5.759   5.751 -0.5127 -1.3954 -0.6581
   82SOPE  C210 7515   2.901   5.749   5.546  0.1898 -0.3912 -0.5551
   82SOPE  H101 7516   2.821   5.675   5.560 -0.1229  0.1381  0.5526
   82SOPE  C211 7517   2.938   5.794   5.405 -0.8210  0.8481  0.2184
   82SOPE  H11R 7518   3.041   5.756   5.385 -1.3685 -2.1513  2.3329
   82SOPE  H11S 7519   2.943   5.904   5.391  1.5656  0.9750  1.4821
   82SOPE  C212 7520   2.840   5.733   5.311 -0.1852  0.0971 -0.6220
   82SOPE  H12R 7521   2.734   5.734   5.347  0.4114 -2.4440  1.5839
   82SOPE  H12S 7522   2.852   5.623   5.295 -1.9673 -0.5258  1.6388
   82SOPE  C213 7523   2.850   5.808   5.179 -0.3418  0.9760  0.1405
   82SOPE  H13R 7524   2.946   5.783   5.129 -0.2286 -2.6925  1.8828
   82SOPE  H13S 7525   2.846   5.918   5.199 -0.5497  0.8039  1.0904
   82SOPE  C214 7526   2.735   5.779   5.084  0.1728 -0.0194 -0.6041
   82SOPE  H14R 7527   2.654   5.851   5.107 -0.4149 -0.5887 -0.8337
   82SOPE  H14S 7528   2.703   5.673   5.101  0.0564  0.4622  2.8135
   82SOPE  C215 7529   2.777   5.807   4.941  0.5526 -0.9303  0.6581
   82SOPE  H15R 7530   2.847   5.722   4.926  0.1984 -1.2015  0.5157
   82SOPE  H15S 7531   2.832   5.902   4.922  0.0396 -0.9206 -0.8903
   82SOPE  C216 7532   2.665   5.808   4.832 -0.2899  0.1198  0.0067
   82SOPE  H16R 7533   2.597   5.892   4.859 -1.7513 -0.5722 -1.3361
   82SOPE  H16S 7534   2.613   5.711   4.849 -1.4912  1.0343  1.8893
   82SOPE  C217 7535   2.702   5.806   4.688  0.3466 -0.3773  0.4490
   82SOPE  H17R 7536   2.615   5.768   4.630  0.2745  0.9666 -0.3671
   82SOPE  H17S 7537   2.789   5.740   4.669  0.0038 -0.5833 -0.4457
   82SOPE  C218 7538   2.741   5.947   4.637 -0.0812 -0.0390 -1.0347
   82SOPE  H18R 7539   2.845   5.967   4.670  0.2360 -2.0682 -0.6552
   82SOPE  H18S 7540   2.671   6.021   4.680 -1.0487 -2.4589  1.9043
   82SOPE  H18T 7541   2.749   5.951   4.527  1.3010 -0.6972 -0.9827
   82SOPE   C33 7542   3.873   6.022   5.880  0.2788  0.5435  0.0631
   82SOPE   H3X 7543   3.890   5.918   5.846  0.1590 -0.5085  2.9262
   82SOPE   H3Y 7544   3.961   6.058   5.937  0.4920 -0.4359  0.3763
   82SOPE   C34 7545   3.859   6.122   5.758 -0.3489  0.4290 -0.0935
   82SOPE   H4X 7546   3.870   6.228   5.789 -0.5030  1.2597 -2.6481
   82SOPE   H4Y 7547   3.761   6.100   5.710 -1.7435  2.4149  1.6588
   82SOPE   C35 7548   3.961   6.092   5.645 -0.4875  0.1921 -0.5558
   82SOPE   H5X 7549   3.937   5.992   5.604 -0.6674 -0.7215  1.6712
   82SOPE   H5Y 7550   4.067   6.100   5.678 -0.1970  0.4983 -1.5317
   82SOPE   C36 7551   3.945   6.187   5.525  0.5981 -1.1209 -0.0362
   82SOPE   H6X 7552   3.962   6.290   5.563 -0.5679 -0.9851  0.1750
   82SOPE   H6Y 7553   3.835   6.184   5.508  0.2050 -3.8668  2.2267
   82SOPE   C37 7554   4.025   6.152   5.396 -0.5084 -0.2523  0.7164
   82SOPE   H7X 7555   3.982   6.209   5.311  0.1680  0.8363  1.0829
   82SOPE   H7Y 7556   4.011   6.045   5.369  0.1985 -0.6090  1.6903
   82SOPE   C38 7557   4.172   6.200   5.405 -0.2740 -0.3024  0.0594
   82SOPE   H8X 7558   4.216   6.128   5.477 -2.9390 -1.7168  0.3964
   82SOPE   H8Y 7559   4.182   6.304   5.441 -0.3932 -0.7672  1.4772
   82SOPE   C39 7560   4.240   6.195   5.265  0.1218 -0.4636 -0.4036
   82SOPE   H9X 7561   4.192   6.280   5.211 -1.1819 -0.9919 -0.1185
   82SOPE   H9Y 7562   4.209   6.107   5.204  0.4395 -0.7959 -0.0868
   82SOPE  C310 7563   4.387   6.219   5.256  0.1505  0.0402 -0.0670
   82SOPE  H10X 7564   4.434   6.156   5.334 -0.4867  0.6633  0.8471
   82SOPE  H10Y 7565   4.408   6.325   5.281  0.5792 -0.2696  0.9119
   82SOPE  C311 7566   4.442   6.193   5.113  0.0269 -0.1464  0.5886
   82SOPE  H11X 7567   4.383   6.258   5.044  1.8164  1.1518  0.1888
   82SOPE  H11Y 7568   4.429   6.087   5.084 -1.5084  0.2882 -0.4511
   82SOPE  C312 7569   4.594   6.237   5.113  0.7659  1.0116 -0.0181
   82SOPE  H12X 7570   4.639   6.187   5.201  0.7668 -0.2227 -0.6932
   82SOPE  H12Y 7571   4.596   6.346   5.133  0.3739  1.2143 -0.9888
   82SOPE  C313 7572   4.670   6.198   4.994 -0.4406 -0.1327 -0.2430
   82SOPE  H13X 7573   4.670   6.089   4.972 -3.3978 -0.7620  2.2064
   82SOPE  H13Y 7574   4.777   6.216   5.019  0.3032 -1.1223 -2.4872
   82SOPE  C314 7575   4.633   6.285   4.877  0.0969  0.7785  0.1728
   82SOPE  H14X 7576   4.638   6.389   4.917 -2.3332  0.5210  1.3434
   82SOPE  H14Y 7577   4.527   6.281   4.842  0.3824 -1.1114 -0.6307
   82SOPE  C315 7578   4.728   6.292   4.764 -0.1003  0.8697  0.6977
   82SOPE  H15X 7579   4.748   6.190   4.726 -1.9483  0.7832 -0.1495
   82SOPE  H15Y 7580   4.828   6.322   4.800  1.1981 -1.4978 -0.7305
   82SOPE  C316 7581   4.695   6.367   4.630  0.2721 -0.8509  0.4416
   82SOPE  H16X 7582   4.647   6.461   4.666  0.5312 -1.0197  1.2621
   82SOPE  H16Y 7583   4.626   6.295   4.583  0.9273 -1.1765 -0.0360
   82SOPE  C317 7584   4.822   6.399   4.548  0.1279  0.0673 -0.2116
   82SOPE  H17X 7585   4.899   6.319   4.545  1.3435  1.2130 -0.4137
   82SOPE  H17Y 7586   4.867   6.488   4.598 -1.9597  2.1099 -1.7369
   82SOPE  C318 7587   4.791   6.433   4.407 -0.0483 -0.7594 -0.0710
   82SOPE  H18X 7588   4.735   6.529   4.400  1.1253 -0.1029 -0.7589
   82SOPE  H18Y 7589   4.744   6.350   4.351  0.4479 -0.5471 -0.8237
   82SOPE  H18Z 7590   4.876   6.470   4.346 -0.8462 -0.2035 -0.8820
   83SOPE     N 7591   1.849   3.598   2.387  0.1059  0.3734 -0.0385
   83SOPE   HN1 7592   1.793   3.611   2.301  2.2472 -0.2487 -1.6199
   83SOPE   HN2 7593   1.925   3.668   2.401  2.3727 -1.8236 -0.6326
   83SOPE   HN3 7594   1.896   3.505   2.384 -1.4313 -0.4529  0.5830
   83SOPE   C12 7595   1.755   3.600   2.493  0.5317  0.2622  0.6202
   83SOPE  H12A 7596   1.712   3.702   2.495  1.2981  0.5881  0.5684
   83SOPE  H12B 7597   1.813   3.594   2.588  1.0194 -0.6259  0.2799
   83SOPE   C11 7598   1.638   3.501   2.488 -0.0217  0.1940 -0.7533
   83SOPE  H11A 7599   1.582   3.532   2.579  1.3325  1.9987 -0.4711
   83SOPE  H11B 7600   1.677   3.397   2.491  1.8147  0.8409 -1.0311
   83SOPE     P 7601   1.412   3.522   2.351  0.6283 -0.1240 -0.3558
   83SOPE   O13 7602   1.374   3.421   2.250 -0.1093  0.1251  0.3878
   83SOPE   O14 7603   1.358   3.659   2.331 -0.3312  0.1376  0.1709
   83SOPE   O12 7604   1.565   3.518   2.370  0.3556  0.6390  0.3525
   83SOPE   O11 7605   1.363   3.472   2.491  0.3088 -0.3958 -0.8608
   83SOPE    C1 7606   1.307   3.339   2.506  0.1253  0.2602 -0.2529
   83SOPE    HA 7607   1.368   3.254   2.469  0.9290  0.5642  0.3301
   83SOPE    HB 7608   1.211   3.340   2.451 -1.5961  0.9376  2.5220
   83SOPE    C2 7609   1.284   3.295   2.657  0.1169  0.1031  0.7250
   83SOPE    HS 7610   1.266   3.185   2.654 -4.0387  0.6443  0.3298
   83SOPE   O21 7611   1.166   3.347   2.723 -0.0005 -0.1271 -0.1406
   83SOPE   C21 7612   1.047   3.307   2.678  0.4107 -0.0199  0.3865
   83SOPE   O22 7613   1.024   3.223   2.595 -0.4013  0.1226  0.5199
   83SOPE   C22 7614   0.933   3.378   2.736 -0.9358 -0.3858 -0.1888
   83SOPE   H2R 7615   0.855   3.301   2.749  0.7811 -2.1973 -0.1166
   83SOPE   H2S 7616   0.904   3.456   2.663 -0.1013  1.1630  1.0491
   83SOPE    C3 7617   1.415   3.317   2.738 -0.8924 -0.0061 -0.0652
   83SOPE    HX 7618   1.433   3.426   2.733  1.7933 -0.3671  0.3973
   83SOPE    HY 7619   1.495   3.266   2.681 -0.9643  1.3810 -1.4487
   83SOPE   O31 7620   1.401   3.272   2.876  0.2358  0.2651  0.2962
   83SOPE   C31 7621   1.441   3.152   2.894 -0.3179  0.2726  0.4505
   83SOPE   O32 7622   1.501   3.078   2.816  0.5027 -0.5656  0.5940
   83SOPE   C32 7623   1.447   3.124   3.037 -0.6424  0.2435  0.2809
   83SOPE   H2X 7624   1.554   3.131   3.067 -0.6369 -1.6983  0.8493
   83SOPE   H2Y 7625   1.417   3.017   3.042  0.7947 -0.1686  0.4526
   83SOPE   C23 7626   0.962   3.443   2.875 -0.4713  0.1054  0.4360
   83SOPE   H3R 7627   0.874   3.509   2.889  0.4210  1.5395 -0.4602
   83SOPE   H3S 7628   1.056   3.503   2.874  1.6177 -2.9181  1.2532
   83SOPE   C24 7629   0.963   3.341   2.987 -0.7123 -0.1785  0.2204
   83SOPE   H4R 7630   0.871   3.281   2.968 -0.7663  0.1905 -0.7385
   83SOPE   H4S 7631   1.057   3.282   2.984 -0.1104  0.7882 -1.2206
   83SOPE   C25 7632   0.950   3.422   3.116  0.1110  0.6432  0.0050
   83SOPE   H5R 7633   1.034   3.495   3.105  0.5224  0.0599 -0.8130
   83SOPE   H5S 7634   0.856   3.482   3.119 -0.3386 -0.0142 -0.6407
   83SOPE   C26 7635   0.946   3.347   3.249  0.0168 -0.1633  0.1529
   83SOPE   H6R 7636   0.869   3.268   3.240 -0.9858  0.7762  0.2705
   83SOPE   H6S 7637   1.042   3.293   3.262 -1.0846 -2.5986 -1.1410
   83SOPE   C27 7638   0.932   3.440   3.369 -0.1436  0.4841 -0.2736
   83SOPE   H7R 7639   1.020   3.497   3.404 -1.6196  0.9089  3.1556
   83SOPE   H7S 7640   0.847   3.510   3.350 -1.6353 -1.0778  0.3667
   83SOPE   C28 7641   0.887   3.362   3.494  0.2626  0.1749 -0.4209
   83SOPE   H8R 7642   0.820   3.279   3.463  1.6931 -1.9966  1.8728
   83SOPE   H8S 7643   0.973   3.310   3.542 -1.0223 -1.6156  0.0742
   83SOPE   C29 7644   0.813   3.442   3.594  0.3006 -0.4549 -0.3108
   83SOPE   H91 7645   0.711   3.478   3.572  0.8092  1.6475  0.4335
   83SOPE  C210 7646   0.857   3.478   3.721 -0.7499 -0.3374  0.9450
   83SOPE  H101 7647   0.780   3.527   3.783 -0.7176 -0.2348  0.9046
   83SOPE  C211 7648   0.991   3.451   3.774  0.2881  0.6425  0.1546
   83SOPE  H11R 7649   1.065   3.497   3.705  0.8676  1.5461  1.3382
   83SOPE  H11S 7650   0.998   3.343   3.802 -3.0157  0.0636 -0.8023
   83SOPE  C212 7651   1.022   3.520   3.913 -0.5967  0.9697  0.0192
   83SOPE  H12R 7652   0.948   3.498   3.993  1.0412 -0.9822  1.0696
   83SOPE  H12S 7653   1.026   3.630   3.896  0.7496  0.7522 -1.2248
   83SOPE  C213 7654   1.160   3.464   3.969  1.0222 -0.9176 -0.5591
   83SOPE  H13R 7655   1.230   3.470   3.883  1.1006 -0.0504 -0.4438
   83SOPE  H13S 7656   1.157   3.359   4.004 -2.1196 -0.9698 -0.6678
   83SOPE  C214 7657   1.215   3.558   4.077 -0.5845  0.1985 -0.7144
   83SOPE  H14R 7658   1.165   3.550   4.176 -0.6632  2.5190 -0.5051
   83SOPE  H14S 7659   1.214   3.667   4.054 -3.5850  0.7465  1.3854
   83SOPE  C215 7660   1.355   3.521   4.123 -0.0319 -0.7643  0.8888
   83SOPE  H15R 7661   1.425   3.534   4.038 -0.1471 -1.4658  0.6765
   83SOPE  H15S 7662   1.377   3.412   4.132 -1.3932 -0.9564  2.1289
   83SOPE  C216 7663   1.405   3.593   4.247  0.0660  0.3009  0.1189
   83SOPE  H16R 7664   1.354   3.553   4.337 -1.0631 -1.7221 -1.3460
   83SOPE  H16S 7665   1.386   3.702   4.235  1.4260  0.4118 -1.4034
   83SOPE  C217 7666   1.552   3.573   4.280  0.9720 -0.0530  0.2978
   83SOPE  H17R 7667   1.555   3.642   4.367 -0.3333 -0.6863  0.8759
   83SOPE  H17S 7668   1.612   3.604   4.193  0.1468 -0.4820 -0.4380
   83SOPE  C218 7669   1.598   3.439   4.314  0.6023 -0.0171 -0.2631
   83SOPE  H18R 7670   1.614   3.383   4.220 -0.7407  0.6357 -0.9196
   83SOPE  H18S 7671   1.528   3.393   4.387  0.6492  1.7389  0.9653
   83SOPE  H18T 7672   1.695   3.448   4.366  0.1003  0.5526  0.6108
   83SOPE   C33 7673   1.367   3.212   3.139 -0.1840 -0.2733  0.0226
   83SOPE   H3X 7674   1.259   3.208   3.111 -0.0380 -2.0473 -0.4302
   83SOPE   H3Y 7675   1.400   3.318   3.132 -0.5716 -0.1315  0.2711
   83SOPE   C34 7676   1.370   3.168   3.285  0.0641  0.6309  0.6035
   83SOPE   H4X 7677   1.420   3.069   3.284  2.2410  1.6595  1.2023
   83SOPE   H4Y 7678   1.263   3.153   3.310 -1.3538  2.4746 -3.3809
   83SOPE   C35 7679   1.411   3.267   3.392 -0.2709 -1.1388 -0.5606
   83SOPE   H5X 7680   1.340   3.352   3.388  0.3103 -0.5740  0.7010
   83SOPE   H5Y 7681   1.511   3.306   3.363 -0.9638  1.8544  0.6936
   83SOPE   C36 7682   1.411   3.225   3.542  0.0676  0.4489 -0.1058
   83SOPE   H6X 7683   1.477   3.136   3.554 -0.8419 -0.2256  0.0389
   83SOPE   H6Y 7684   1.314   3.188   3.581  0.8155  1.5472  3.0592
   83SOPE   C37 7685   1.445   3.346   3.633 -0.3969 -0.0085 -0.3442
   83SOPE   H7X 7686   1.371   3.428   3.622  1.1452  1.6016  0.6224
   83SOPE   H7Y 7687   1.541   3.383   3.592 -0.6791  0.0235 -0.9791
   83SOPE   C38 7688   1.448   3.311   3.781  0.0373  0.2103  0.0506
   83SOPE   H8X 7689   1.354   3.265   3.816 -2.2836  1.6178 -3.6233
   83SOPE   H8Y 7690   1.447   3.410   3.832 -0.7849 -0.2933  1.0301
   83SOPE   C39 7691   1.575   3.233   3.818 -0.1692  0.4952 -0.5181
   83SOPE   H9X 7692   1.666   3.289   3.786 -0.0762  1.1415  0.8064
   83SOPE   H9Y 7693   1.572   3.128   3.784 -1.7517 -0.0690  1.1886
   83SOPE  C310 7694   1.585   3.207   3.967 -0.0570 -0.0345 -0.5397
   83SOPE  H10X 7695   1.497   3.168   4.023  1.5023 -0.5589  1.7099
   83SOPE  H10Y 7696   1.612   3.303   4.018 -0.7842  0.7143 -1.5237
   83SOPE  C311 7697   1.702   3.107   3.993  0.0862 -0.0922  0.3075
   83SOPE  H11X 7698   1.796   3.138   3.942 -0.2145 -0.5045 -0.5037
   83SOPE  H11Y 7699   1.684   3.009   3.944 -0.1112 -0.9345  1.9800
   83SOPE  C312 7700   1.742   3.060   4.138  0.0477 -0.4159 -0.6466
   83SOPE  H12X 7701   1.780   3.148   4.194 -0.7329 -0.1241 -0.5750
   83SOPE  H12Y 7702   1.823   2.984   4.137 -0.7358 -1.3177  0.8943
   83SOPE  C313 7703   1.626   2.994   4.213  0.0391 -0.4578 -0.1236
   83SOPE  H13X 7704   1.586   2.910   4.152  2.0193 -0.6168 -1.2879
   83SOPE  H13Y 7705   1.546   3.070   4.226  0.6448 -0.1681  2.4236
   83SOPE  C314 7706   1.663   2.935   4.350 -0.2498 -0.4334  0.8386
   83SOPE  H14X 7707   1.715   3.013   4.410  1.4032 -2.0713  1.6580
   83SOPE  H14Y 7708   1.740   2.856   4.334 -1.3375 -1.2924 -0.3208
   83SOPE  C315 7709   1.545   2.882   4.428 -0.6871 -0.1502  0.3595
   83SOPE  H15X 7710   1.486   2.819   4.359  0.9920 -0.2009 -1.1119
   83SOPE  H15Y 7711   1.479   2.965   4.462 -0.9294  0.6655 -1.9673
   83SOPE  C316 7712   1.583   2.806   4.555 -0.4962  0.0785  1.0971
   83SOPE  H16X 7713   1.643   2.857   4.634  2.5619 -1.2027 -0.2320
   83SOPE  H16Y 7714   1.656   2.730   4.517 -0.3835 -0.3905  2.2024
   83SOPE  C317 7715   1.470   2.723   4.621  0.1272 -0.8167 -0.2015
   83SOPE  H17X 7716   1.428   2.662   4.538 -1.4292  0.7521 -0.6111
   83SOPE  H17Y 7717   1.402   2.797   4.669  3.0541  0.5939  2.0516
   83SOPE  C318 7718   1.528   2.631   4.724 -0.4543  0.3425 -0.7867
   83SOPE  H18X 7719   1.551   2.695   4.812  0.7679 -0.4173 -0.5387
   83SOPE  H18Y 7720   1.608   2.566   4.684  1.6530  3.1321 -1.4040
   83SOPE  H18Z 7721   1.443   2.565   4.753  0.9575 -1.4408 -0.5404
   84SOPE     N 7722   1.005   0.781   2.181 -0.2851 -0.2060 -0.0749
   84SOPE   HN1 7723   1.084   0.717   2.159  1.3623  0.1086  4.0209
   84SOPE   HN2 7724   0.926   0.714   2.169 -0.2911 -0.2686  0.2903
   84SOPE   HN3 7725   0.985   0.857   2.113 -1.3145  0.3968  0.8537
   84SOPE   C12 7726   1.031   0.821   2.326  0.7865  0.6787 -0.2229
   84SOPE  H12A 7727   0.997   0.927   2.331  1.4387  0.9227 -0.7715
   84SOPE  H12B 7728   1.138   0.810   2.354  0.5005 -0.0533  0.6290
   84SOPE   C11 7729   0.948   0.748   2.430 -0.6783  0.2338  0.1836
   84SOPE  H11A 7730   0.965   0.798   2.528 -1.6134  1.8048 -0.4216
   84SOPE  H11B 7731   0.981   0.642   2.436  0.5832  0.5453 -0.7877
   84SOPE     P 7732   0.726   0.639   2.337  0.0063  0.1822 -0.1714
   84SOPE   O13 7733   0.796   0.594   2.212 -0.0032 -0.4426  0.2437
   84SOPE   O14 7734   0.581   0.667   2.318 -1.0872 -0.1717 -0.2511
   84SOPE   O12 7735   0.812   0.766   2.391 -0.6917  0.6856 -0.5065
   84SOPE   O11 7736   0.751   0.527   2.449  0.4489  0.5753 -0.6006
   84SOPE    C1 7737   0.717   0.390   2.415  0.1628 -0.8508  0.0252
   84SOPE    HA 7738   0.736   0.364   2.308  0.1093  1.0373 -0.4957
   84SOPE    HB 7739   0.606   0.385   2.426  0.0474  2.5305  1.8161
   84SOPE    C2 7740   0.778   0.292   2.518  0.1143 -0.3799 -0.2811
   84SOPE    HS 7741   0.721   0.196   2.518  1.2520 -1.0878 -1.6291
   84SOPE   O21 7742   0.793   0.350   2.649  0.3745  0.1425  0.3712
   84SOPE   C21 7743   0.702   0.320   2.744 -0.1201  0.5273 -0.4145
   84SOPE   O22 7744   0.618   0.235   2.724  0.6123 -0.3866 -0.3966
   84SOPE   C22 7745   0.735   0.384   2.876 -0.4321 -0.1341 -0.5254
   84SOPE   H2R 7746   0.646   0.441   2.910  0.5760  0.6229  0.9752
   84SOPE   H2S 7747   0.816   0.457   2.856  2.1363 -2.0166  2.2280
   84SOPE    C3 7748   0.907   0.247   2.448 -0.7701 -0.6331 -0.3963
   84SOPE    HX 7749   0.954   0.333   2.396 -2.6193 -0.2971 -1.6048
   84SOPE    HY 7750   0.868   0.177   2.371 -0.8761  2.3898 -3.2884
   84SOPE   O31 7751   0.993   0.169   2.533 -0.0089 -0.1346 -0.1885
   84SOPE   C31 7752   1.122   0.168   2.506  0.2150 -0.0201  0.3903
   84SOPE   O32 7753   1.180   0.246   2.429 -1.1892  0.6509 -0.5882
   84SOPE   C32 7754   1.183   0.050   2.577 -0.2344 -0.0715  0.3834
   84SOPE   H2X 7755   1.293   0.059   2.575 -0.3397  1.3758  0.3407
   84SOPE   H2Y 7756   1.147  -0.042   2.525 -0.0058  0.8389 -1.4811
   84SOPE   C23 7757   0.771   0.277   2.981 -0.2538 -0.0436 -0.5303
   84SOPE   H3R 7758   0.857   0.218   2.942  0.5496  2.9634 -3.7986
   84SOPE   H3S 7759   0.690   0.208   3.014  0.0566 -0.2464 -0.1931
   84SOPE   C24 7760   0.810   0.344   3.109  0.0623 -0.4855 -0.6894
   84SOPE   H4R 7761   0.909   0.394   3.101  2.5378 -4.1052  3.3727
   84SOPE   H4S 7762   0.730   0.414   3.142 -0.5530 -1.9769  1.1632
   84SOPE   C25 7763   0.825   0.249   3.228  0.1620 -0.0281 -0.1233
   84SOPE   H5R 7764   0.731   0.192   3.249  0.1082 -0.0818 -0.4938
   84SOPE   H5S 7765   0.911   0.183   3.206  0.6767  0.3738  0.6402
   84SOPE   C26 7766   0.850   0.324   3.363 -0.8120 -0.6666  0.4606
   84SOPE   H6R 7767   0.768   0.398   3.378 -0.2122  0.4785 -1.4866
   84SOPE   H6S 7768   0.850   0.252   3.447  0.0596 -1.3881 -0.1453
   84SOPE   C27 7769   0.986   0.390   3.367  0.2829 -0.3755  0.2054
   84SOPE   H7R 7770   1.072   0.325   3.340  1.1209  0.8665 -0.2727
   84SOPE   H7S 7771   0.984   0.474   3.294 -0.5701 -1.4625 -1.0616
   84SOPE   C28 7772   1.028   0.457   3.505  0.4239 -0.1706  0.4706
   84SOPE   H8R 7773   1.110   0.528   3.481  1.4173 -2.0129 -1.9098
   84SOPE   H8S 7774   0.949   0.513   3.559 -0.8182 -2.1206  0.7716
   84SOPE   C29 7775   1.077   0.353   3.597 -0.4705  0.3583 -0.1585
   84SOPE   H91 7776   1.159   0.288   3.562  0.7868  1.1959  1.1540
   84SOPE  C210 7777   1.038   0.334   3.727 -0.1602 -0.6534 -0.4567
   84SOPE  H101 7778   1.096   0.262   3.787  0.9900  0.0028 -0.7514
   84SOPE  C211 7779   0.940   0.411   3.809 -0.1249  0.3665 -0.0160
   84SOPE  H11R 7780   0.854   0.343   3.829  0.1757  0.2317  0.8599
   84SOPE  H11S 7781   0.896   0.491   3.746  0.3855 -0.8342 -1.9933
   84SOPE  C212 7782   0.986   0.465   3.947  0.0636 -0.3747 -0.0023
   84SOPE  H12R 7783   1.036   0.391   4.014 -0.0538  1.3254  2.0903
   84SOPE  H12S 7784   0.894   0.500   3.999 -0.3848 -0.9571 -0.4064
   84SOPE  C213 7785   1.072   0.593   3.944 -1.0910  0.3060 -0.3748
   84SOPE  H13R 7786   1.011   0.665   3.886 -0.9952  0.4869 -0.2514
   84SOPE  H13S 7787   1.165   0.563   3.890  0.5012  3.8119  0.1336
   84SOPE  C214 7788   1.106   0.651   4.080 -0.3184  0.1627 -0.4288
   84SOPE  H14R 7789   1.031   0.619   4.155 -1.0392  1.7239 -0.4451
   84SOPE  H14S 7790   1.095   0.761   4.070  1.7207  0.3091 -1.6253
   84SOPE  C215 7791   1.247   0.614   4.127 -1.1566 -0.2541  0.1371
   84SOPE  H15R 7792   1.321   0.659   4.058 -0.7175  1.2623  1.5419
   84SOPE  H15S 7793   1.259   0.504   4.121 -0.4919 -0.1879  0.1203
   84SOPE  C216 7794   1.283   0.661   4.263 -0.4564  0.4075  0.2426
   84SOPE  H16R 7795   1.236   0.604   4.346  0.0007 -0.1141  0.1477
   84SOPE  H16S 7796   1.264   0.771   4.271  2.3981  0.9070  1.4553
   84SOPE  C217 7797   1.433   0.655   4.275 -0.7993  0.3568  0.1778
   84SOPE  H17R 7798   1.485   0.719   4.201  0.8628 -0.4740  0.5823
   84SOPE  H17S 7799   1.464   0.549   4.258 -0.5738  0.4789 -0.1819
   84SOPE  C218 7800   1.475   0.684   4.419  0.0643 -0.5701  0.1421
   84SOPE  H18R 7801   1.432   0.779   4.458  1.5021 -0.2400  0.9934
   84SOPE  H18S 7802   1.585   0.682   4.433  0.0405 -0.0324  0.4591
   84SOPE  H18T 7803   1.446   0.596   4.480  0.4827 -0.6487  0.2255
   84SOPE   C33 7804   1.143   0.061   2.726 -0.2916  0.5068 -0.1680
   84SOPE   H3X 7805   1.169  -0.032   2.780  0.2004  0.7668  0.0489
   84SOPE   H3Y 7806   1.034   0.068   2.742 -0.7358 -1.1709 -1.9787
   84SOPE   C34 7807   1.232   0.164   2.791  0.2260 -0.4531  0.4449
   84SOPE   H4X 7808   1.204   0.265   2.756  2.7815  0.0845 -0.3036
   84SOPE   H4Y 7809   1.333   0.141   2.749  0.5020  2.3626 -0.6286
   84SOPE   C35 7810   1.248   0.149   2.940 -0.4540 -0.6982 -0.4311
   84SOPE   H5X 7811   1.289   0.052   2.976  2.0913 -0.3236 -2.0645
   84SOPE   H5Y 7812   1.143   0.166   2.973 -0.0836  1.2269 -0.1287
   84SOPE   C36 7813   1.340   0.257   2.994  0.2981  0.5142  0.6052
   84SOPE   H6X 7814   1.317   0.350   2.938  0.0447 -0.7000 -1.4127
   84SOPE   H6Y 7815   1.443   0.242   2.954 -1.2315 -1.8293 -3.0201
   84SOPE   C37 7816   1.338   0.279   3.140  0.1523 -0.1000  0.4839
   84SOPE   H7X 7817   1.376   0.190   3.195  0.7927  0.2538  0.6174
   84SOPE   H7Y 7818   1.232   0.297   3.171 -0.3092 -1.7520 -0.0005
   84SOPE   C38 7819   1.411   0.411   3.179  0.1734  0.1414  0.1709
   84SOPE   H8X 7820   1.378   0.500   3.121 -0.0739  0.3465  0.6218
   84SOPE   H8Y 7821   1.519   0.411   3.155  0.1774 -1.2661  0.1349
   84SOPE   C39 7822   1.385   0.449   3.327  0.5812 -0.6100  0.2529
   84SOPE   H9X 7823   1.454   0.383   3.384  1.8088 -0.0170 -0.4961
   84SOPE   H9Y 7824   1.281   0.435   3.361  0.8727  0.6536  1.7744
   84SOPE  C310 7825   1.432   0.593   3.366  0.1773 -0.5431  0.3436
   84SOPE  H10X 7826   1.359   0.667   3.327 -0.0743 -1.0649 -0.1988
   84SOPE  H10Y 7827   1.530   0.612   3.316  0.4193  2.8269  1.8142
   84SOPE  C311 7828   1.436   0.618   3.515 -0.5084 -0.2787 -0.7182
   84SOPE  H11X 7829   1.519   0.553   3.548 -1.2717 -2.4205 -2.7423
   84SOPE  H11Y 7830   1.344   0.605   3.575  2.1114 -1.9523  3.3232
   84SOPE  C312 7831   1.487   0.763   3.551  0.0976  0.3274 -0.0627
   84SOPE  H12X 7832   1.410   0.832   3.509 -2.4680 -0.7965  2.4940
   84SOPE  H12Y 7833   1.582   0.768   3.493  0.3448 -1.0314  0.1959
   84SOPE  C313 7834   1.517   0.785   3.699 -0.5204 -0.2279  0.6875
   84SOPE  H13X 7835   1.418   0.774   3.747  0.0562  1.5538  2.4122
   84SOPE  H13Y 7836   1.558   0.887   3.712 -0.1024 -0.4442  1.0890
   84SOPE  C314 7837   1.613   0.678   3.763 -0.5839  0.5960 -0.0434
   84SOPE  H14X 7838   1.699   0.666   3.694  0.8387  1.4784  1.5037
   84SOPE  H14Y 7839   1.559   0.581   3.763  1.5786 -0.7569  2.5607
   84SOPE  C315 7840   1.655   0.724   3.900 -0.9430  0.4908  0.5880
   84SOPE  H15X 7841   1.567   0.754   3.962 -1.1642  0.7977  0.1349
   84SOPE  H15Y 7842   1.703   0.823   3.887  0.3780 -0.0087  1.5111
   84SOPE  C316 7843   1.760   0.625   3.962  0.0151 -0.2971 -0.1266
   84SOPE  H16X 7844   1.847   0.619   3.892 -1.1772 -0.5569 -1.6449
   84SOPE  H16Y 7845   1.703   0.530   3.973 -2.6375  0.8915 -2.4903
   84SOPE  C317 7846   1.798   0.669   4.098  0.4098  0.0282  0.0415
   84SOPE  H17X 7847   1.873   0.596   4.135  0.0641  0.3909  1.5248
   84SOPE  H17Y 7848   1.706   0.657   4.160 -0.7748  2.4826 -1.1274
   84SOPE  C318 7849   1.858   0.805   4.112  0.2481  0.0380 -0.3676
   84SOPE  H18X 7850   1.950   0.822   4.053  0.2387 -0.2592 -0.4686
   84SOPE  H18Y 7851   1.866   0.835   4.219 -1.3054  1.7198 -0.6600
   84SOPE  H18Z 7852   1.793   0.885   4.069  0.6623  0.9283  0.6129
   85SOPE     N 7853   5.784   3.795   1.824 -0.0811 -0.1867  0.0213
   85SOPE   HN1 7854   5.812   3.737   1.742  0.4791  1.2101 -0.8187
   85SOPE   HN2 7855   5.712   3.860   1.788 -0.5117 -0.2935  0.6798
   85SOPE   HN3 7856   5.864   3.849   1.863 -0.5041 -0.4187  1.2506
   85SOPE   C12 7857   5.752   3.704   1.935 -0.1780 -0.2774 -0.6934
   85SOPE  H12A 7858   5.823   3.716   2.020 -0.3008  0.2093 -0.6583
   85SOPE  H12B 7859   5.747   3.601   1.895  0.0169 -0.4321 -0.3307
   85SOPE   C11 7860   5.617   3.728   1.994 -0.3355 -0.0950 -0.6253
   85SOPE  H11A 7861   5.610   3.672   2.090 -0.5647  0.1400 -0.5042
   85SOPE  H11B 7862   5.543   3.687   1.923 -1.4996  0.9601 -0.0446
   85SOPE     P 7863   5.477   3.939   2.012 -0.3982 -0.2603  0.4991
   85SOPE   O13 7864   5.432   3.931   1.873  0.2266  0.4391  0.1346
   85SOPE   O14 7865   5.487   4.076   2.066 -0.0825  0.5192  1.0411
   85SOPE   O12 7866   5.615   3.867   2.026 -0.0002  0.0382 -0.1891
   85SOPE   O11 7867   5.376   3.854   2.102  0.1630  0.1048  0.0441
   85SOPE    C1 7868   5.356   3.897   2.235 -0.2346  0.6653  0.2182
   85SOPE    HA 7869   5.268   3.847   2.281  0.5396 -0.3192  0.6386
   85SOPE    HB 7870   5.320   4.003   2.235  0.8067  1.0307  0.7051
   85SOPE    C2 7871   5.474   3.883   2.331  0.8164 -0.2827  0.1792
   85SOPE    HS 7872   5.567   3.909   2.277  0.3045 -1.5683 -1.4237
   85SOPE   O21 7873   5.480   3.739   2.357  0.5483 -0.5117  0.1929
   85SOPE   C21 7874   5.595   3.680   2.352 -0.0731  0.1509  0.3417
   85SOPE   O22 7875   5.702   3.735   2.335 -0.1965 -0.5918  0.5971
   85SOPE   C22 7876   5.582   3.535   2.355  0.5776 -0.0641 -1.1194
   85SOPE   H2R 7877   5.679   3.483   2.341  1.7257  0.4756  3.3347
   85SOPE   H2S 7878   5.502   3.515   2.281  0.5090  1.7807 -1.5967
   85SOPE    C3 7879   5.458   3.944   2.476  0.4353  0.0236 -0.4429
   85SOPE    HX 7880   5.367   3.897   2.518  0.8401 -0.3497  0.0328
   85SOPE    HY 7881   5.435   4.052   2.472  1.4680  0.2307 -1.5788
   85SOPE   O31 7882   5.573   3.922   2.562  0.2879  0.3712 -0.4490
   85SOPE   C31 7883   5.576   4.001   2.673  0.0900 -0.6399 -0.0878
   85SOPE   O32 7884   5.498   4.089   2.695 -0.1302  0.4537 -0.5037
   85SOPE   C32 7885   5.704   3.966   2.756  0.2246 -0.2986  0.0804
   85SOPE   H2X 7886   5.788   3.959   2.684  1.7680  0.5830  1.7432
   85SOPE   H2Y 7887   5.674   3.862   2.784 -0.3088 -0.1766 -0.0234
   85SOPE   C23 7888   5.538   3.489   2.504 -1.0279  0.2424  0.1338
   85SOPE   H3R 7889   5.523   3.380   2.490  1.4808 -0.3047  1.1524
   85SOPE   H3S 7890   5.438   3.527   2.533 -0.7422  0.9062  0.2586
   85SOPE   C24 7891   5.643   3.516   2.611  0.2294 -0.5244 -0.6641
   85SOPE   H4R 7892   5.718   3.435   2.608  1.6470  0.6455  0.9290
   85SOPE   H4S 7893   5.695   3.614   2.598 -0.5585 -0.2622 -2.0674
   85SOPE   C25 7894   5.566   3.526   2.744 -0.5395  0.3499  0.0462
   85SOPE   H5R 7895   5.512   3.622   2.761  1.3707  1.3940  0.6502
   85SOPE   H5S 7896   5.487   3.450   2.757  0.2083 -0.3826  0.3795
   85SOPE   C26 7897   5.665   3.531   2.866 -0.0808  0.5706  0.3862
   85SOPE   H6R 7898   5.723   3.437   2.858 -1.6252 -0.4868  1.2877
   85SOPE   H6S 7899   5.728   3.619   2.842 -1.5287  1.7045  0.6078
   85SOPE   C27 7900   5.591   3.546   2.996  0.0287 -0.6797 -0.1028
   85SOPE   H7R 7901   5.481   3.550   2.978  0.0863  0.0100 -0.3390
   85SOPE   H7S 7902   5.613   3.455   3.057 -0.0343 -0.8158 -0.2836
   85SOPE   C28 7903   5.632   3.667   3.086 -0.0810  0.7680  0.2697
   85SOPE   H8R 7904   5.638   3.630   3.191 -2.0816  0.2696  0.2512
   85SOPE   H8S 7905   5.733   3.701   3.056  0.2557 -0.6839 -0.3106
   85SOPE   C29 7906   5.532   3.775   3.061  0.6112  0.3899 -0.2022
   85SOPE   H91 7907   5.534   3.808   2.956  1.0857 -2.2218 -1.0632
   85SOPE  C210 7908   5.442   3.827   3.148 -0.7321  0.3701  0.1070
   85SOPE  H101 7909   5.379   3.908   3.108  0.0684 -0.2039 -2.5228
   85SOPE  C211 7910   5.431   3.778   3.289 -0.0742  0.3744 -0.2957
   85SOPE  H11R 7911   5.520   3.728   3.333 -0.4295 -1.0317 -1.1300
   85SOPE  H11S 7912   5.347   3.706   3.291  0.3860 -0.2146 -1.5255
   85SOPE  C212 7913   5.394   3.897   3.371  0.5308 -0.5092  0.1266
   85SOPE  H12R 7914   5.294   3.935   3.341  1.7160  2.6100 -0.1367
   85SOPE  H12S 7915   5.476   3.969   3.354  2.5377 -2.5630  0.6412
   85SOPE  C213 7916   5.385   3.847   3.520 -0.8900 -0.1085  0.6734
   85SOPE  H13R 7917   5.476   3.785   3.537  0.0151  1.1010  0.3230
   85SOPE  H13S 7918   5.299   3.776   3.522  0.8080 -2.3055 -0.0232
   85SOPE  C214 7919   5.378   3.962   3.624 -0.3140 -0.1096 -0.2798
   85SOPE  H14R 7920   5.283   4.018   3.611 -0.3689 -0.3124 -0.7814
   85SOPE  H14S 7921   5.466   4.026   3.603  1.0937 -2.4317 -2.0789
   85SOPE  C215 7922   5.391   3.898   3.758 -0.0400  0.3131 -0.0096
   85SOPE  H15R 7923   5.484   3.842   3.780  0.1879  0.8665  0.4512
   85SOPE  H15S 7924   5.308   3.824   3.765 -0.8619  0.8870 -2.4686
   85SOPE  C216 7925   5.371   4.005   3.865  0.1281  0.9158  1.2943
   85SOPE  H16R 7926   5.269   4.044   3.844 -0.7472 -2.0724 -0.6077
   85SOPE  H16S 7927   5.435   4.095   3.851  0.0969  1.0509  1.9589
   85SOPE  C217 7928   5.391   3.954   4.007 -0.4817 -0.1645 -0.0861
   85SOPE  H17R 7929   5.468   3.873   4.007 -0.1681  0.1324  0.2791
   85SOPE  H17S 7930   5.294   3.915   4.044 -1.9238  4.4919  1.7012
   85SOPE  C218 7931   5.440   4.060   4.102 -0.0373  0.9724 -0.2290
   85SOPE  H18R 7932   5.434   4.017   4.204 -0.6191 -1.0299 -1.0384
   85SOPE  H18S 7933   5.385   4.155   4.089 -0.1708  1.0183  0.6404
   85SOPE  H18T 7934   5.544   4.090   4.077  0.0285  0.5853 -0.4427
   85SOPE   C33 7935   5.732   4.057   2.871 -0.2921  1.0944 -0.3818
   85SOPE   H3X 7936   5.642   4.063   2.936  0.4646  0.9018  0.6936
   85SOPE   H3Y 7937   5.759   4.158   2.833  2.7347  0.8680  0.9651
   85SOPE   C34 7938   5.852   4.007   2.956  0.0916 -0.0797  0.4977
   85SOPE   H4X 7939   5.947   4.016   2.899  2.1158 -1.2892  3.4026
   85SOPE   H4Y 7940   5.841   3.900   2.985 -1.5996  0.2849  1.3114
   85SOPE   C35 7941   5.887   4.100   3.069 -0.7485  0.7877  0.5158
   85SOPE   H5X 7942   5.836   4.198   3.059  0.1783  1.3020  0.7532
   85SOPE   H5Y 7943   5.998   4.106   3.076 -0.3663 -1.1710 -2.1886
   85SOPE   C36 7944   5.847   4.044   3.204  0.3992  0.0476  0.8047
   85SOPE   H6X 7945   5.912   3.955   3.208 -0.3918 -0.8456 -2.6661
   85SOPE   H6Y 7946   5.743   4.004   3.196  1.5251 -2.8564 -0.9357
   85SOPE   C37 7947   5.867   4.148   3.314 -0.1594 -0.2944 -0.5883
   85SOPE   H7X 7948   5.790   4.228   3.309 -0.2380 -0.3185  0.1211
   85SOPE   H7Y 7949   5.974   4.176   3.303  0.3916 -2.0076  0.1554
   85SOPE   C38 7950   5.847   4.088   3.450  0.7785  0.8341 -0.6556
   85SOPE   H8X 7951   5.930   4.019   3.477  0.3635  0.1594 -1.0565
   85SOPE   H8Y 7952   5.745   4.044   3.456  0.4896  1.0176 -3.3006
   85SOPE   C39 7953   5.842   4.209   3.542  0.3099 -0.3894  0.3594
   85SOPE   H9X 7954   5.755   4.270   3.512  0.0908 -0.7647  0.2271
   85SOPE   H9Y 7955   5.934   4.267   3.521 -1.5673  2.5554 -0.2258
   85SOPE  C310 7956   5.835   4.183   3.689  0.1664 -0.1339 -0.7862
   85SOPE  H10X 7957   5.911   4.108   3.719  1.1715  1.2563  0.2465
   85SOPE  H10Y 7958   5.735   4.139   3.712 -0.2611  0.0826 -2.1311
   85SOPE  C311 7959   5.855   4.316   3.762 -0.1480 -0.2117  0.6503
   85SOPE  H11X 7960   5.774   4.388   3.735  0.9673  1.2521  1.0942
   85SOPE  H11Y 7961   5.957   4.350   3.733 -1.4635  1.1442 -3.0260
   85SOPE  C312 7962   5.872   4.300   3.912  0.7102 -0.1022 -0.1722
   85SOPE  H12X 7963   5.957   4.239   3.950  1.9998  1.1513 -0.9503
   85SOPE  H12Y 7964   5.780   4.254   3.956  1.8163  0.0820  2.5188
   85SOPE  C313 7965   5.891   4.434   3.977 -0.1493  0.1770 -0.4220
   85SOPE  H13X 7966   5.803   4.501   3.961 -0.1196  0.9839  2.2315
   85SOPE  H13Y 7967   5.982   4.481   3.933 -1.0695  2.3146 -0.1527
   85SOPE  C314 7968   5.900   4.418   4.130 -0.3684 -0.7134 -0.0511
   85SOPE  H14X 7969   5.993   4.364   4.157 -1.1823 -1.6026  1.0555
   85SOPE  H14Y 7970   5.811   4.364   4.169 -0.5884 -1.2483 -1.2479
   85SOPE  C315 7971   5.919   4.554   4.199 -0.2734 -0.6187 -0.6108
   85SOPE  H15X 7972   5.834   4.621   4.173 -0.5481 -0.6896  0.0751
   85SOPE  H15Y 7973   6.020   4.582   4.161 -0.0567 -0.0709  0.3201
   85SOPE  C316 7974   5.939   4.541   4.353 -0.2491  0.0519  0.0950
   85SOPE  H16X 7975   6.024   4.476   4.380 -0.0686  0.0766 -0.3984
   85SOPE  H16Y 7976   5.844   4.500   4.395  0.4507 -1.4078  0.3003
   85SOPE  C317 7977   5.952   4.670   4.432  0.0225  0.5819  0.6347
   85SOPE  H17X 7978   5.933   4.653   4.540  1.8485 -1.3370  0.7328
   85SOPE  H17Y 7979   5.878   4.741   4.390  0.8755  1.3410  0.3697
   85SOPE  C318 7980   6.087   4.738   4.415  0.1995  0.2702 -0.2925
   85SOPE  H18X 7981   6.118   4.731   4.309 -0.7736 -0.3466 -0.5406
   85SOPE  H18Y 7982   6.164   4.680   4.471 -0.1867 -0.1209 -0.1604
   85SOPE  H18Z 7983   6.082   4.844   4.448 -1.3807  0.4512 -1.0642
   86SOPE     N 7984   5.563   0.646   2.217  0.1128  0.3795 -0.3045
   86SOPE   HN1 7985   5.566   0.542   2.225  2.9188  0.1816 -2.3944
   86SOPE   HN2 7986   5.502   0.662   2.134  2.8729 -0.9623 -2.7663
   86SOPE   HN3 7987   5.658   0.686   2.206  0.8420 -1.2758 -0.3091
   86SOPE   C12 7988   5.511   0.692   2.343 -0.0523  0.2050 -0.0738
   86SOPE  H12A 7989   5.500   0.802   2.341 -1.1511  0.1175  0.2496
   86SOPE  H12B 7990   5.578   0.658   2.424 -0.1162 -0.6305 -0.3547
   86SOPE   C11 7991   5.372   0.626   2.374  0.3170 -0.2352  0.2906
   86SOPE  H11A 7992   5.290   0.669   2.313  1.2048  1.4897  0.2645
   86SOPE  H11B 7993   5.362   0.663   2.478 -0.7306 -0.7282  0.3834
   86SOPE     P 7994   5.282   0.388   2.440  0.3826  0.1462  0.3461
   86SOPE   O13 7995   5.334   0.252   2.410  0.5173  0.5855  1.1310
   86SOPE   O14 7996   5.137   0.413   2.417  0.2070 -0.1479 -0.6278
   86SOPE   O12 7997   5.370   0.484   2.356 -0.2079 -0.1926  0.1552
   86SOPE   O11 7998   5.325   0.426   2.587 -0.3043 -0.0794  0.3295
   86SOPE    C1 7999   5.384   0.327   2.671 -0.2094  0.3624 -0.7055
   86SOPE    HA 8000   5.494   0.334   2.659 -0.2772  0.0837 -1.6027
   86SOPE    HB 8001   5.347   0.224   2.652  0.3201 -0.1019  0.6923
   86SOPE    C2 8002   5.345   0.338   2.828  0.2422  0.4578 -0.1197
   86SOPE    HS 8003   5.234   0.339   2.836  0.1468 -2.6995  0.1767
   86SOPE   O21 8004   5.411   0.457   2.877 -0.8600  0.7210 -0.7202
   86SOPE   C21 8005   5.336   0.520   2.968 -0.0173 -0.0114  1.0520
   86SOPE   O22 8006   5.227   0.484   3.016 -0.1871 -0.5103 -0.1231
   86SOPE   C22 8007   5.415   0.639   3.025  0.0255  0.1114  0.2107
   86SOPE   H2R 8008   5.411   0.726   2.957  0.8614  0.8855  1.1102
   86SOPE   H2S 8009   5.523   0.614   3.018  0.1800  1.2737 -2.6896
   86SOPE    C3 8010   5.404   0.215   2.901 -0.3307 -0.5509 -0.1273
   86SOPE    HX 8011   5.511   0.201   2.878 -0.3854 -1.4702  0.1252
   86SOPE    HY 8012   5.361   0.122   2.858  1.0363 -1.9088  1.3247
   86SOPE   O31 8013   5.388   0.218   3.046  0.1587 -0.8101  0.4395
   86SOPE   C31 8014   5.271   0.170   3.088 -0.5004  0.6897 -0.7163
   86SOPE   O32 8015   5.185   0.121   3.019 -0.0482  0.1598  0.3803
   86SOPE   C32 8016   5.261   0.171   3.245  0.8610 -0.5351  0.5988
   86SOPE   H2X 8017   5.291   0.270   3.286 -0.7639 -0.2427  1.1642
   86SOPE   H2Y 8018   5.334   0.094   3.279  1.6384 -0.8757 -1.6320
   86SOPE   C23 8019   5.374   0.677   3.168  0.5659 -0.6617 -0.0632
   86SOPE   H3R 8020   5.353   0.592   3.236 -0.0943 -1.5524 -1.3352
   86SOPE   H3S 8021   5.282   0.739   3.160  1.1258  0.3097  0.9213
   86SOPE   C24 8022   5.486   0.766   3.226 -0.0060 -0.0100  0.2818
   86SOPE   H4R 8023   5.573   0.703   3.256  0.2182 -0.7974 -1.8539
   86SOPE   H4S 8024   5.520   0.839   3.149 -1.5618  0.4861  0.0367
   86SOPE   C25 8025   5.435   0.832   3.354 -0.2828 -0.2149 -0.4446
   86SOPE   H5R 8026   5.379   0.914   3.305 -3.3889 -1.4583  0.7510
   86SOPE   H5S 8027   5.372   0.774   3.424 -0.3478  2.1128  1.5245
   86SOPE   C26 8028   5.560   0.891   3.433 -0.3779 -0.4840 -0.2937
   86SOPE   H6R 8029   5.620   0.810   3.479  1.2331  0.9231  0.1935
   86SOPE   H6S 8030   5.622   0.951   3.364  1.2269  0.5848  1.9385
   86SOPE   C27 8031   5.504   0.966   3.560 -0.0948 -0.3068  0.1647
   86SOPE   H7R 8032   5.593   1.005   3.614  0.8982  0.2615 -1.7800
   86SOPE   H7S 8033   5.444   1.049   3.516 -0.4422 -0.7088 -0.1249
   86SOPE   C28 8034   5.423   0.888   3.663 -0.4300 -0.2294  1.0436
   86SOPE   H8R 8035   5.334   0.841   3.617  0.0141  0.6616 -0.8375
   86SOPE   H8S 8036   5.488   0.808   3.704 -1.5684 -1.4374  0.5472
   86SOPE   C29 8037   5.371   0.984   3.763  0.0329  0.1001 -0.0759
   86SOPE   H91 8038   5.287   1.042   3.723 -1.9499 -2.1956  0.5126
   86SOPE  C210 8039   5.413   1.003   3.890  0.9814  0.6558 -0.2188
   86SOPE  H101 8040   5.363   1.084   3.945 -1.7154 -1.0542 -0.0069
   86SOPE  C211 8041   5.525   0.920   3.961  0.0170 -0.1810 -0.3544
   86SOPE  H11R 8042   5.612   0.987   3.977 -1.1738  1.5996 -1.1091
   86SOPE  H11S 8043   5.561   0.834   3.900  1.2204  0.7725 -1.0373
   86SOPE  C212 8044   5.482   0.860   4.101  0.5744 -1.5132 -0.1203
   86SOPE  H12R 8045   5.416   0.773   4.079 -1.8758  0.3185 -0.5500
   86SOPE  H12S 8046   5.414   0.928   4.156  0.4212 -0.3258 -1.7109
   86SOPE  C213 8047   5.600   0.831   4.190 -0.0176 -0.2225 -0.3078
   86SOPE  H13R 8048   5.681   0.774   4.139 -0.1517 -0.0842 -0.6773
   86SOPE  H13S 8049   5.557   0.767   4.270 -0.0275 -0.9782 -0.9037
   86SOPE  C214 8050   5.667   0.961   4.244  0.3471  0.1599 -0.4601
   86SOPE  H14R 8051   5.648   1.040   4.168 -0.1100  1.0016  0.5087
   86SOPE  H14S 8052   5.776   0.939   4.242  0.3992 -0.1048  1.9746
   86SOPE  C215 8053   5.619   1.008   4.385  0.9682  0.7624  0.3017
   86SOPE  H15R 8054   5.649   0.932   4.460  1.3307  1.5656  0.9852
   86SOPE  H15S 8055   5.508   1.011   4.387  0.9445 -0.2254  1.4535
   86SOPE  C216 8056   5.688   1.135   4.431  0.5362 -0.1960  0.8249
   86SOPE  H16R 8057   5.680   1.206   4.346 -0.0515 -1.5287 -0.2908
   86SOPE  H16S 8058   5.795   1.115   4.451  0.5453  0.4758  1.4583
   86SOPE  C217 8059   5.620   1.207   4.541  0.4101  0.2591  0.1940
   86SOPE  H17R 8060   5.511   1.214   4.516  0.5345 -1.4945 -1.0204
   86SOPE  H17S 8061   5.659   1.310   4.553 -0.2557  0.5492 -0.0406
   86SOPE  C218 8062   5.619   1.134   4.674  0.2787  0.0901  0.0951
   86SOPE  H18R 8063   5.560   1.192   4.748  2.4882  2.9791 -0.2251
   86SOPE  H18S 8064   5.718   1.142   4.725 -0.4836 -0.1761  1.6574
   86SOPE  H18T 8065   5.574   1.033   4.665 -2.4493  1.2281  0.1482
   86SOPE   C33 8066   5.116   0.147   3.302  0.3495 -0.7854  0.1210
   86SOPE   H3X 8067   5.074   0.063   3.243 -4.5483  1.1982  0.3648
   86SOPE   H3Y 8068   5.050   0.232   3.274  2.7407  0.7342 -1.3669
   86SOPE   C34 8069   5.119   0.091   3.447 -0.3868 -0.1079  0.1747
   86SOPE   H4X 8070   5.185   0.002   3.439  0.0348  0.2273 -0.2010
   86SOPE   H4Y 8071   5.023   0.039   3.465 -0.9250 -0.1149 -2.3082
   86SOPE   C35 8072   5.155   0.183   3.565 -0.2905  1.1260 -0.7140
   86SOPE   H5X 8073   5.093   0.275   3.566 -4.1546 -1.1567  2.7880
   86SOPE   H5Y 8074   5.263   0.200   3.544  0.4425 -4.5962 -3.3412
   86SOPE   C36 8075   5.150   0.122   3.711 -0.0203 -0.1462  0.0545
   86SOPE   H6X 8076   5.228   0.044   3.723 -0.0598 -0.1082  0.5726
   86SOPE   H6Y 8077   5.049   0.083   3.737  0.0334  1.7273  3.7225
   86SOPE   C37 8078   5.184   0.229   3.812  0.0035 -0.1914  0.3862
   86SOPE   H7X 8079   5.101   0.303   3.802  0.2093 -0.0821 -0.5693
   86SOPE   H7Y 8080   5.280   0.283   3.805  0.6955 -0.9940  2.6349
   86SOPE   C38 8081   5.171   0.185   3.957  0.0030  0.5815 -0.2006
   86SOPE   H8X 8082   5.243   0.103   3.977  2.1132  2.8047  2.1045
   86SOPE   H8Y 8083   5.067   0.149   3.975  0.3578  0.3322  1.4456
   86SOPE   C39 8084   5.203   0.290   4.059  0.1070  0.3775  0.1400
   86SOPE   H9X 8085   5.139   0.377   4.034  0.7464  1.0714  0.9124
   86SOPE   H9Y 8086   5.306   0.328   4.043  0.1920  0.5265  0.9934
   86SOPE  C310 8087   5.188   0.245   4.207 -0.4074  1.0445  0.2099
   86SOPE  H10X 8088   5.245   0.153   4.233 -0.3733  0.5322 -1.5754
   86SOPE  H10Y 8089   5.081   0.217   4.218 -0.3612  0.7745 -0.0177
   86SOPE  C311 8090   5.223   0.364   4.308  0.1854 -0.3325 -0.3714
   86SOPE  H11X 8091   5.176   0.334   4.405 -2.4661 -0.4753 -1.6237
   86SOPE  H11Y 8092   5.173   0.453   4.264  3.4036  1.5425 -0.6016
   86SOPE  C312 8093   5.373   0.401   4.304 -0.6752  0.0055  0.5949
   86SOPE  H12X 8094   5.411   0.414   4.200 -1.9791 -4.4364 -0.6590
   86SOPE  H12Y 8095   5.434   0.318   4.346 -0.9646 -0.7415 -0.4290
   86SOPE  C313 8096   5.413   0.526   4.380 -0.3544 -0.4290 -0.0936
   86SOPE  H13X 8097   5.349   0.604   4.334 -2.0888 -2.4372 -1.2520
   86SOPE  H13Y 8098   5.522   0.546   4.371  0.2596 -1.2999  3.7969
   86SOPE  C314 8099   5.380   0.524   4.531 -0.4930  0.7574 -0.1684
   86SOPE  H14X 8100   5.450   0.452   4.577  0.7934  1.7334 -0.5286
   86SOPE  H14Y 8101   5.279   0.486   4.554  0.5187 -1.5245  0.7372
   86SOPE  C315 8102   5.386   0.661   4.594 -0.1211  0.2015  0.1716
   86SOPE  H15X 8103   5.333   0.735   4.530  1.0723  0.6979 -0.2681
   86SOPE  H15Y 8104   5.492   0.692   4.602  0.0038  1.0139 -3.1175
   86SOPE  C316 8105   5.324   0.660   4.735  0.6294  0.3678  0.0930
   86SOPE  H16X 8106   5.395   0.599   4.796  0.2626 -1.6691 -1.4070
   86SOPE  H16Y 8107   5.225   0.610   4.734  0.2366  1.0466 -2.3531
   86SOPE  C317 8108   5.315   0.800   4.812  0.1843 -0.7060  0.1527
   86SOPE  H17X 8109   5.258   0.861   4.738  0.9373  0.3434  0.4106
   86SOPE  H17Y 8110   5.418   0.842   4.820 -0.0438 -0.2294  0.6226
   86SOPE  C318 8111   5.240   0.795   4.947 -0.1799  0.3405  0.2644
   86SOPE  H18X 8112   5.133   0.791   4.919  0.2604 -1.5763 -1.4215
   86SOPE  H18Y 8113   5.259   0.887   5.006  1.2965  0.2165  0.0176
   86SOPE  H18Z 8114   5.274   0.709   5.009  2.5463  0.1379 -1.3503
   87SOPE     N 8115   6.737   6.603   2.247 -0.4375  0.2683  0.4748
   87SOPE   HN1 8116   6.840   6.619   2.244 -0.5030  0.6645 -1.7810
   87SOPE   HN2 8117   6.729   6.512   2.198 -2.4293  0.0963  1.0479
   87SOPE   HN3 8118   6.694   6.681   2.193 -0.0912 -0.1516 -0.4366
   87SOPE   C12 8119   6.705   6.618   2.388  0.0261 -0.1902  0.0289
   87SOPE  H12A 8120   6.764   6.550   2.453  2.6509  0.3863 -1.6437
   87SOPE  H12B 8121   6.595   6.603   2.397 -0.3958  2.1512 -0.7394
   87SOPE   C11 8122   6.751   6.761   2.436 -0.1154  0.1168 -0.2417
   87SOPE  H11A 8123   6.861   6.769   2.445  0.0414  1.5473 -2.5912
   87SOPE  H11B 8124   6.704   6.779   2.535 -1.2949 -1.3624 -0.4917
   87SOPE     P 8125   6.571   6.937   2.336 -0.1497 -0.1499  0.0886
   87SOPE   O13 8126   6.454   6.845   2.334  0.2076  0.6223 -0.0331
   87SOPE   O14 8127   6.584   7.046   2.235 -0.6704  0.3908 -0.4485
   87SOPE   O12 8128   6.710   6.858   2.340 -0.0579 -0.1782  0.0982
   87SOPE   O11 8129   6.564   7.009   2.478  0.1630  0.1382 -0.4436
   87SOPE    C1 8130   6.685   7.074   2.518  0.8486  0.2227  0.4004
   87SOPE    HA 8131   6.720   7.150   2.445 -0.8531 -1.6206 -2.5417
   87SOPE    HB 8132   6.759   6.996   2.546 -1.5522 -2.0444  0.8873
   87SOPE    C2 8133   6.652   7.169   2.635 -0.2384 -0.1363  0.2047
   87SOPE    HS 8134   6.740   7.230   2.664  0.0864 -0.7337  0.5016
   87SOPE   O21 8135   6.611   7.100   2.757 -0.7900 -0.2786  0.3880
   87SOPE   C21 8136   6.716   7.041   2.811 -0.1221  0.0270  0.2590
   87SOPE   O22 8137   6.830   7.035   2.767  0.4238 -0.0054 -0.1150
   87SOPE   C22 8138   6.671   6.981   2.943  0.0419 -0.3172  0.0230
   87SOPE   H2R 8139   6.660   6.871   2.932 -0.5426 -0.2317 -0.2765
   87SOPE   H2S 8140   6.575   7.029   2.973  0.4587  1.8071 -1.7945
   87SOPE    C3 8141   6.539   7.279   2.600 -0.3920 -1.3241 -0.0579
   87SOPE    HX 8142   6.452   7.220   2.565 -0.9319  0.4477 -1.9437
   87SOPE    HY 8143   6.573   7.352   2.523 -0.3337 -0.1358  1.0557
   87SOPE   O31 8144   6.504   7.357   2.713  0.5032  0.8007 -0.1127
   87SOPE   C31 8145   6.596   7.453   2.744  0.3972  0.6079 -0.3026
   87SOPE   O32 8146   6.699   7.464   2.682  0.3212  0.5763 -0.0230
   87SOPE   C32 8147   6.548   7.553   2.843 -0.6075  0.5272  0.1705
   87SOPE   H2X 8148   6.521   7.504   2.939  1.8666 -0.6975  0.3336
   87SOPE   H2Y 8149   6.454   7.598   2.806  0.5590  1.6783 -1.5625
   87SOPE   C23 8150   6.767   7.011   3.050 -1.4629 -0.0556 -0.2949
   87SOPE   H3R 8151   6.770   7.120   3.070 -2.5244 -0.4881  2.6920
   87SOPE   H3S 8152   6.871   6.983   3.023 -0.8158  2.1604 -0.2683
   87SOPE   C24 8153   6.729   6.937   3.177 -0.6393  1.2475  0.2578
   87SOPE   H4R 8154   6.623   6.964   3.194 -1.0204 -0.0267  0.0355
   87SOPE   H4S 8155   6.723   6.827   3.159 -1.0873  1.1034  1.2310
   87SOPE   C25 8156   6.823   6.943   3.298  0.9381  0.4818 -0.2487
   87SOPE   H5R 8157   6.814   6.849   3.356  1.5851  0.7832  0.3601
   87SOPE   H5S 8158   6.927   6.942   3.257  0.4638 -0.9268 -1.5112
   87SOPE   C26 8159   6.796   7.061   3.384 -0.1319  0.3172 -0.5182
   87SOPE   H6R 8160   6.770   7.146   3.317  1.2868  0.4317 -0.9586
   87SOPE   H6S 8161   6.705   7.057   3.447 -0.0539  2.6288 -0.1676
   87SOPE   C27 8162   6.899   7.109   3.484 -0.5987 -0.3409 -0.1340
   87SOPE   H7R 8163   6.967   7.180   3.432 -0.6815  1.3780  1.9461
   87SOPE   H7S 8164   6.850   7.161   3.570 -1.8694  0.1297 -1.1169
   87SOPE   C28 8165   6.994   7.005   3.558  0.0728  0.1709  0.0546
   87SOPE   H8R 8166   7.042   6.943   3.479  2.0296 -0.1428  1.3978
   87SOPE   H8S 8167   7.080   7.062   3.601  1.8773 -1.1575 -1.5722
   87SOPE   C29 8168   6.926   6.919   3.667  0.2480 -0.2344 -0.0674
   87SOPE   H91 8169   6.837   6.861   3.637  0.3291 -0.1818 -0.4110
   87SOPE  C210 8170   6.972   6.887   3.784 -0.2203 -0.1745 -0.0085
   87SOPE  H101 8171   6.898   6.841   3.851 -0.4010 -2.1137 -1.4796
   87SOPE  C211 8172   7.103   6.931   3.848  0.0860  0.0221 -0.7160
   87SOPE  H11R 8173   7.168   6.980   3.772  1.3907 -1.1671 -0.3985
   87SOPE  H11S 8174   7.158   6.850   3.900 -0.2643  1.0671  1.3870
   87SOPE  C212 8175   7.071   7.039   3.960  0.4787  0.0395  1.2572
   87SOPE  H12R 8176   6.990   7.106   3.926  0.7462 -0.6727 -1.0199
   87SOPE  H12S 8177   7.165   7.099   3.967 -0.1250  0.9939  1.3218
   87SOPE  C213 8178   7.040   6.965   4.095 -0.3395 -0.2844 -0.5657
   87SOPE  H13R 8179   7.134   6.911   4.119 -1.3262 -2.4298 -1.3364
   87SOPE  H13S 8180   6.952   6.899   4.079 -1.8602  0.6592  2.9613
   87SOPE  C214 8181   7.005   7.064   4.201  0.0793  0.4534 -0.6393
   87SOPE  H14R 8182   6.958   7.152   4.153  0.6427  0.3012 -1.4991
   87SOPE  H14S 8183   7.104   7.097   4.241  0.8401 -1.2545 -1.0140
   87SOPE  C215 8184   6.923   6.999   4.314  0.1329  0.9844  0.0623
   87SOPE  H15R 8185   6.966   6.898   4.333 -1.3162  0.1800 -0.7508
   87SOPE  H15S 8186   6.820   6.981   4.277 -0.7502  1.8562  1.9884
   87SOPE  C216 8187   6.907   7.080   4.445  0.5123  0.3753  0.0001
   87SOPE  H16R 8188   7.002   7.136   4.459  0.5493  0.1388  0.7408
   87SOPE  H16S 8189   6.914   6.998   4.519 -0.3978  0.2155 -0.0750
   87SOPE  C217 8190   6.790   7.170   4.477 -0.5814 -0.0291 -0.3062
   87SOPE  H17R 8191   6.791   7.249   4.399  0.3368 -0.9536 -1.2642
   87SOPE  H17S 8192   6.812   7.233   4.566  0.7322  1.0888 -1.3648
   87SOPE  C218 8193   6.657   7.105   4.500  0.0023  0.1803  0.0941
   87SOPE  H18R 8194   6.644   7.036   4.587 -1.1485  3.6655  2.9350
   87SOPE  H18S 8195   6.617   7.066   4.404  2.6373 -0.4458 -0.8330
   87SOPE  H18T 8196   6.585   7.184   4.529 -0.4955 -0.1205 -0.3017
   87SOPE   C33 8197   6.648   7.668   2.880 -0.5479  0.1513  0.3212
   87SOPE   H3X 8198   6.684   7.708   2.782 -0.0494 -0.5879  0.1936
   87SOPE   H3Y 8199   6.738   7.629   2.933 -0.6001  1.0925  1.1162
   87SOPE   C34 8200   6.575   7.785   2.940  0.0920  0.2523  0.1493
   87SOPE   H4X 8201   6.495   7.810   2.867  1.1321 -0.8020 -1.4265
   87SOPE   H4Y 8202   6.647   7.869   2.948  1.6713 -1.0934  0.7910
   87SOPE   C35 8203   6.539   7.756   3.079  0.0388 -0.2751  0.2167
   87SOPE   H5X 8204   6.632   7.725   3.131 -0.1148 -0.9285  0.0988
   87SOPE   H5Y 8205   6.471   7.669   3.080 -2.0836  1.2279 -2.0210
   87SOPE   C36 8206   6.469   7.876   3.133  0.4585 -0.5636 -0.0927
   87SOPE   H6X 8207   6.374   7.905   3.083 -0.3100 -2.0510  0.4514
   87SOPE   H6Y 8208   6.539   7.960   3.117  0.0319 -0.5317 -1.9741
   87SOPE   C37 8209   6.432   7.873   3.284 -0.4227  0.3212  0.4395
   87SOPE   H7X 8210   6.388   7.964   3.328 -1.3944 -0.6006  1.4417
   87SOPE   H7Y 8211   6.520   7.835   3.340 -1.7999  0.0437  2.5070
   87SOPE   C38 8212   6.313   7.775   3.313 -0.6980 -0.4365 -0.4362
   87SOPE   H8X 8213   6.307   7.691   3.240 -0.4647 -2.5417  1.8442
   87SOPE   H8Y 8214   6.217   7.832   3.308 -0.3824  0.2539  0.8947
   87SOPE   C39 8215   6.325   7.699   3.445 -0.1025  0.1649 -0.3657
   87SOPE   H9X 8216   6.407   7.629   3.422 -0.5851 -0.2381 -0.8928
   87SOPE   H9Y 8217   6.234   7.646   3.483  0.8427 -0.9437  0.4083
   87SOPE  C310 8218   6.373   7.785   3.562  0.1440 -0.5501 -0.2190
   87SOPE  H10X 8219   6.309   7.873   3.583  1.0929 -0.4777  3.0066
   87SOPE  H10Y 8220   6.477   7.819   3.541  0.1229 -0.2819  0.1090
   87SOPE  C311 8221   6.386   7.708   3.692  0.7423 -0.4663  0.3335
   87SOPE  H11X 8222   6.287   7.670   3.723 -0.6493  1.3691 -1.5685
   87SOPE  H11Y 8223   6.432   7.773   3.770  2.8914  0.2282 -1.3906
   87SOPE  C312 8224   6.484   7.593   3.683  0.0118 -0.4086 -0.0745
   87SOPE  H12X 8225   6.588   7.631   3.671  0.2872 -1.2326 -0.3971
   87SOPE  H12Y 8226   6.453   7.524   3.601 -0.8948  1.3731 -1.2911
   87SOPE  C313 8227   6.470   7.496   3.799  0.1613  0.1638 -1.0788
   87SOPE  H13X 8228   6.365   7.462   3.811  0.9076 -1.8676  0.2164
   87SOPE  H13Y 8229   6.478   7.556   3.892 -1.9187  0.3328 -0.9441
   87SOPE  C314 8230   6.564   7.371   3.791  0.0468 -0.0679 -0.4247
   87SOPE  H14X 8231   6.671   7.396   3.805  0.2822 -1.2167 -0.0930
   87SOPE  H14Y 8232   6.548   7.319   3.695  0.4952  0.4721 -0.7957
   87SOPE  C315 8233   6.535   7.285   3.918  0.9099  0.1212 -0.3397
   87SOPE  H15X 8234   6.436   7.237   3.906  0.3814  0.8529  0.8443
   87SOPE  H15Y 8235   6.529   7.350   4.008  2.5613 -0.6931  0.4060
   87SOPE  C316 8236   6.633   7.166   3.945  0.6728 -0.0053  0.1961
   87SOPE  H16X 8237   6.737   7.190   3.918  0.4353 -0.1655 -0.8888
   87SOPE  H16Y 8238   6.611   7.088   3.869 -0.5980  0.6076 -0.1032
   87SOPE  C317 8239   6.630   7.098   4.074 -0.9028 -0.4682  0.0400
   87SOPE  H17X 8240   6.677   7.164   4.150  0.4504 -2.2226  0.8002
   87SOPE  H17Y 8241   6.700   7.013   4.062  0.1770  0.7144 -2.8931
   87SOPE  C318 8242   6.489   7.059   4.120 -0.8220  0.1510  0.3888
   87SOPE  H18X 8243   6.452   6.998   4.035  1.7128  0.8920 -1.3796
   87SOPE  H18Y 8244   6.421   7.142   4.147 -2.1076 -0.9643  0.6717
   87SOPE  H18Z 8245   6.491   6.985   4.203 -2.9844 -0.0753  0.2945
   88SOPE     N 8246   1.691   5.962   1.737  0.0503 -0.6399  0.0174
   88SOPE   HN1 8247   1.781   5.919   1.709  1.0035  0.6237  1.0100
   88SOPE   HN2 8248   1.664   6.033   1.666 -1.4466 -2.5992 -1.4524
   88SOPE   HN3 8249   1.719   6.024   1.816  1.7532 -2.2751  0.7727
   88SOPE   C12 8250   1.579   5.870   1.790  0.0638  0.9476 -0.0516
   88SOPE  H12A 8251   1.569   5.791   1.712 -0.6442  0.5355  0.4463
   88SOPE  H12B 8252   1.487   5.932   1.785 -0.6810 -0.1551 -0.4519
   88SOPE   C11 8253   1.578   5.816   1.931 -0.2537 -0.2359 -0.8512
   88SOPE  H11A 8254   1.477   5.780   1.959 -0.2219  1.4145  1.6735
   88SOPE  H11B 8255   1.598   5.885   2.015 -0.3976 -0.1095 -0.9194
   88SOPE     P 8256   1.656   5.566   1.938  0.1053 -0.0100 -0.1171
   88SOPE   O13 8257   1.789   5.505   1.919  0.0228  0.1043 -0.1610
   88SOPE   O14 8258   1.548   5.532   1.842 -0.3449  0.5312 -0.0615
   88SOPE   O12 8259   1.680   5.719   1.945  0.2953  0.0349 -0.5584
   88SOPE   O11 8260   1.611   5.541   2.082  0.0316 -0.0498  0.2681
   88SOPE    C1 8261   1.479   5.499   2.107 -0.2741  0.6658  0.4977
   88SOPE    HA 8262   1.454   5.403   2.058  2.8976 -0.3713  0.6568
   88SOPE    HB 8263   1.398   5.573   2.090 -1.7789 -0.8859  0.7119
   88SOPE    C2 8264   1.460   5.472   2.261 -0.7078  0.2555  0.5142
   88SOPE    HS 8265   1.476   5.572   2.307  0.2422  0.1841  0.3463
   88SOPE   O21 8266   1.566   5.382   2.298 -0.8878 -0.0179 -0.0735
   88SOPE   C21 8267   1.599   5.394   2.424  0.6869 -0.2427 -1.0079
   88SOPE   O22 8268   1.568   5.487   2.499  0.3153  0.4617 -0.1271
   88SOPE   C22 8269   1.697   5.279   2.468 -0.2619 -0.3828  0.4238
   88SOPE   H2R 8270   1.738   5.231   2.377  1.0782  0.7727  0.3983
   88SOPE   H2S 8271   1.639   5.216   2.539 -0.0903  0.3263  1.2119
   88SOPE    C3 8272   1.317   5.422   2.297 -0.8521  0.4861 -0.0556
   88SOPE    HX 8273   1.311   5.311   2.293 -0.4892  0.3850  1.5107
   88SOPE    HY 8274   1.246   5.468   2.225 -1.9381 -0.0427  0.6462
   88SOPE   O31 8275   1.272   5.477   2.423  0.4061  0.2411 -0.3675
   88SOPE   C31 8276   1.276   5.410   2.539  0.1322  0.6262 -0.0535
   88SOPE   O32 8277   1.269   5.286   2.543 -0.3644 -1.0805 -0.4992
   88SOPE   C32 8278   1.251   5.508   2.654  0.1546 -0.4232 -0.3323
   88SOPE   H2X 8279   1.155   5.560   2.633  0.4891  0.5696  0.4988
   88SOPE   H2Y 8280   1.336   5.579   2.650  0.4376 -0.7957 -0.9779
   88SOPE   C23 8281   1.808   5.332   2.558  0.3611  0.2127 -0.1195
   88SOPE   H3R 8282   1.770   5.380   2.651  0.2725  0.8497 -0.4850
   88SOPE   H3S 8283   1.861   5.413   2.504  1.2014 -1.3641 -1.7709
   88SOPE   C24 8284   1.928   5.244   2.582  0.0674 -0.2296  0.1458
   88SOPE   H4R 8285   1.935   5.180   2.491 -0.8573 -0.2544  0.0781
   88SOPE   H4S 8286   2.021   5.304   2.588  0.7257 -0.8846 -2.3736
   88SOPE   C25 8287   1.897   5.161   2.709  0.1842 -0.1940 -0.0333
   88SOPE   H5R 8288   1.794   5.119   2.706  0.1993 -0.7631  3.1917
   88SOPE   H5S 8289   1.964   5.072   2.715 -0.1401 -0.3399  2.4471
   88SOPE   C26 8290   1.913   5.242   2.840  0.1556  0.0236 -0.3563
   88SOPE   H6R 8291   2.004   5.304   2.829 -0.8005  1.4715 -0.4063
   88SOPE   H6S 8292   1.827   5.313   2.846  1.0444  1.1596 -0.6198
   88SOPE   C27 8293   1.910   5.155   2.967  0.2570  0.5487 -0.6474
   88SOPE   H7R 8294   1.817   5.095   2.975  0.8526 -0.1626  1.5194
   88SOPE   H7S 8295   1.989   5.077   2.958 -0.7715 -0.6520  0.3020
   88SOPE   C28 8296   1.918   5.239   3.096 -0.4345  0.9644  0.1127
   88SOPE   H8R 8297   1.927   5.166   3.179 -0.5876  1.0765  0.2293
   88SOPE   H8S 8298   2.018   5.287   3.098  0.0957 -0.1408  0.5561
   88SOPE   C29 8299   1.799   5.325   3.111 -0.8504 -0.3048 -0.4815
   88SOPE   H91 8300   1.790   5.407   3.039  2.0612  1.5857  1.1058
   88SOPE  C210 8301   1.721   5.316   3.224 -0.0883  0.3509  0.4100
   88SOPE  H101 8302   1.629   5.375   3.237  0.3115  0.5742  2.5258
   88SOPE  C211 8303   1.733   5.217   3.337  0.2204 -0.4556  0.1335
   88SOPE  H11R 8304   1.743   5.118   3.287  1.7309 -0.7007  0.8715
   88SOPE  H11S 8305   1.636   5.217   3.391  0.7583 -0.3500  1.1150
   88SOPE  C212 8306   1.851   5.231   3.436  0.5838  0.0430 -0.2484
   88SOPE  H12R 8307   1.944   5.238   3.375  1.1428 -1.4691  0.3985
   88SOPE  H12S 8308   1.857   5.143   3.503  0.8771  1.0610  1.0903
   88SOPE  C213 8309   1.834   5.349   3.532 -0.6858  0.3680 -0.6212
   88SOPE  H13R 8310   1.727   5.355   3.562 -0.2216 -0.7470  1.3703
   88SOPE  H13S 8311   1.866   5.449   3.494 -1.0689  0.2374 -1.3079
   88SOPE  C214 8312   1.894   5.320   3.673  0.4939 -0.4606  0.3565
   88SOPE  H14R 8313   1.998   5.283   3.664  1.5827  2.2301  0.7725
   88SOPE  H14S 8314   1.833   5.240   3.719 -0.7830  0.6836  0.7307
   88SOPE  C215 8315   1.895   5.439   3.772  0.7067 -0.3972 -0.4083
   88SOPE  H15R 8316   1.790   5.476   3.773  0.5551 -0.8215  0.5672
   88SOPE  H15S 8317   1.961   5.516   3.725 -1.8619  0.2477 -3.3421
   88SOPE  C216 8318   1.937   5.409   3.913  0.6767  0.3331 -0.4483
   88SOPE  H16R 8319   2.043   5.374   3.917  0.2419 -0.8644  1.1892
   88SOPE  H16S 8320   1.890   5.319   3.957  1.8178 -0.2179 -0.3201
   88SOPE  C217 8321   1.934   5.527   4.007 -0.5231 -0.0943 -0.4505
   88SOPE  H17R 8322   1.829   5.562   4.023 -0.4539 -0.6184  1.3435
   88SOPE  H17S 8323   2.000   5.606   3.966 -1.0220 -0.5517 -2.2014
   88SOPE  C218 8324   2.006   5.488   4.142 -0.8030 -0.2554  0.2057
   88SOPE  H18R 8325   1.944   5.410   4.191 -0.0755 -0.1498  1.3350
   88SOPE  H18S 8326   2.034   5.575   4.205 -0.6179 -0.6643  0.6922
   88SOPE  H18T 8327   2.107   5.445   4.123 -1.3989 -1.6616  0.1207
   88SOPE   C33 8328   1.242   5.432   2.785  0.1627  0.9288  0.0691
   88SOPE   H3X 8329   1.343   5.388   2.801  0.1559  0.3824 -1.2809
   88SOPE   H3Y 8330   1.168   5.351   2.771  1.6418 -0.2163 -1.6650
   88SOPE   C34 8331   1.212   5.515   2.910  0.7126 -0.8122 -0.6500
   88SOPE   H4X 8332   1.114   5.566   2.891  0.9751  0.1839  0.5716
   88SOPE   H4Y 8333   1.271   5.608   2.924 -2.4148  1.1298  0.9080
   88SOPE   C35 8334   1.221   5.438   3.039 -0.5832  0.1030  0.0414
   88SOPE   H5X 8335   1.325   5.398   3.033 -1.3212 -1.9372  0.1571
   88SOPE   H5Y 8336   1.157   5.348   3.030  0.4016 -0.6283  0.2188
   88SOPE   C36 8337   1.206   5.519   3.173 -0.0270 -0.3996 -0.3125
   88SOPE   H6X 8338   1.105   5.567   3.175  0.1145 -0.1060 -0.1630
   88SOPE   H6Y 8339   1.287   5.594   3.170  1.7937 -2.1304  1.8672
   88SOPE   C37 8340   1.217   5.438   3.301  0.7158 -0.2169 -0.2917
   88SOPE   H7X 8341   1.309   5.461   3.359 -0.6432 -1.5350  2.5871
   88SOPE   H7Y 8342   1.202   5.330   3.279 -3.0564  0.1909 -0.4111
   88SOPE   C38 8343   1.107   5.469   3.409  0.8843 -0.0585  0.0466
   88SOPE   H8X 8344   1.006   5.442   3.374  0.5919  2.2851 -1.1017
   88SOPE   H8Y 8345   1.108   5.576   3.439  0.2440 -0.7499  2.8327
   88SOPE   C39 8346   1.139   5.391   3.539 -0.0874  0.2921 -0.1155
   88SOPE   H9X 8347   1.150   5.284   3.512 -0.9798 -0.2425  1.5057
   88SOPE   H9Y 8348   1.052   5.396   3.609 -1.1377  2.9349 -1.4842
   88SOPE  C310 8349   1.263   5.442   3.614  0.1499 -0.4014 -0.6763
   88SOPE  H10X 8350   1.231   5.540   3.655 -2.3637 -0.9734 -1.1147
   88SOPE  H10Y 8351   1.356   5.447   3.553 -0.1805 -2.2396 -1.4024
   88SOPE  C311 8352   1.315   5.357   3.728 -0.0050 -0.1980  0.1066
   88SOPE  H11X 8353   1.347   5.258   3.688  0.6737  0.1500 -0.2335
   88SOPE  H11Y 8354   1.237   5.338   3.805 -0.6860 -0.3101 -0.6014
   88SOPE  C312 8355   1.432   5.421   3.806 -0.9332  0.0416 -0.2833
   88SOPE  H12X 8356   1.407   5.515   3.859 -0.2270 -0.0085  0.1595
   88SOPE  H12Y 8357   1.517   5.422   3.734 -1.4724 -0.5685 -0.9477
   88SOPE  C313 8358   1.479   5.318   3.915 -0.1167 -0.2801  0.2516
   88SOPE  H13X 8359   1.535   5.236   3.865  1.3085  0.9833 -0.2960
   88SOPE  H13Y 8360   1.381   5.281   3.951 -0.8366  1.7574  0.5521
   88SOPE  C314 8361   1.545   5.380   4.035 -0.5322  0.2214  0.1766
   88SOPE  H14X 8362   1.479   5.454   4.085  0.7299  0.6065  1.3339
   88SOPE  H14Y 8363   1.636   5.437   4.007  0.7652 -1.5809  0.6048
   88SOPE  C315 8364   1.606   5.280   4.143  0.1461 -0.2128  0.3374
   88SOPE  H15X 8365   1.505   5.256   4.185 -2.0040  2.8559 -2.5544
   88SOPE  H15Y 8366   1.671   5.339   4.211  0.4289 -0.5958  0.3987
   88SOPE  C316 8367   1.671   5.150   4.099  0.6755 -0.0745 -0.2190
   88SOPE  H16X 8368   1.752   5.170   4.027  1.5503 -0.9911  0.4851
   88SOPE  H16Y 8369   1.595   5.084   4.052  1.1717 -1.0540  0.3294
   88SOPE  C317 8370   1.741   5.069   4.211  0.0910  0.0794 -1.2379
   88SOPE  H17X 8371   1.829   5.126   4.247 -1.0193  1.6012 -0.8103
   88SOPE  H17Y 8372   1.781   4.971   4.177 -0.1025 -0.6957  0.6167
   88SOPE  C318 8373   1.647   5.023   4.328 -0.7494 -0.0412 -0.2279
   88SOPE  H18X 8374   1.582   4.945   4.285  0.5099 -2.0125  1.2545
   88SOPE  H18Y 8375   1.584   5.104   4.371 -1.2713 -0.3506 -0.4115
   88SOPE  H18Z 8376   1.709   4.988   4.413  0.7238 -2.0202 -2.0009
   89SAPC     N 8377   0.269   3.015   6.729 -0.0171  0.2174  0.4458
   89SAPC   C12 8378   0.224   2.895   6.802  0.1913  0.1377 -0.0028
   89SAPC  H12A 8379   0.177   2.923   6.895  1.1903 -3.0141  1.5984
   89SAPC  H12B 8380   0.312   2.836   6.825 -0.7861 -1.6394 -0.6991
   89SAPC   C13 8381   0.160   3.072   6.641 -0.3381 -0.2879 -0.1026
   89SAPC  H13A 8382   0.149   3.006   6.556 -3.1546  1.1644 -1.0235
   89SAPC  H13B 8383   0.063   3.067   6.688 -1.1448  2.6576 -1.2231
   89SAPC  H13C 8384   0.192   3.167   6.600  3.5571 -0.9438  1.0308
   89SAPC   C14 8385   0.292   3.135   6.823 -0.5157  0.0889 -0.9751
   89SAPC  H14A 8386   0.198   3.149   6.875 -1.2027 -1.6299 -1.6879
   89SAPC  H14B 8387   0.378   3.111   6.883 -0.9127 -0.2187 -0.5239
   89SAPC  H14C 8388   0.318   3.225   6.770  1.2303  0.7187  0.8126
   89SAPC   C15 8389   0.398   2.989   6.653  0.0094  0.2965  0.4069
   89SAPC  H15A 8390   0.471   2.938   6.714  0.7494 -3.6452 -3.2677
   89SAPC  H15B 8391   0.380   2.919   6.573 -0.5016  0.8130  0.0635
   89SAPC  H15C 8392   0.443   3.083   6.623 -0.2554  0.7141  1.3001
   89SAPC   C11 8393   0.135   2.797   6.718 -0.0686 -0.1015  0.5129
   89SAPC  H11A 8394   0.123   2.694   6.759 -1.2314 -0.8801 -1.5967
   89SAPC  H11B 8395   0.194   2.778   6.626  0.8612 -0.5121  1.1777
   89SAPC     P 8396  -0.102   2.797   6.605 -0.5164 -0.1809  0.2197
   89SAPC   O13 8397  -0.174   2.681   6.665  0.5411 -0.7669 -0.5857
   89SAPC   O14 8398  -0.189   2.908   6.552  0.0747 -0.2852 -0.0971
   89SAPC   O12 8399   0.004   2.853   6.697 -0.2729 -0.1570 -0.4621
   89SAPC   O11 8400  -0.014   2.744   6.481  0.0934  0.6570  0.4000
   89SAPC    C1 8401   0.016   2.611   6.449 -0.5202  0.1482  0.0915
   89SAPC    HA 8402   0.124   2.606   6.423  0.3006  1.4264  2.8950
   89SAPC    HB 8403   0.005   2.541   6.535 -1.2170  0.6042  0.3853
   89SAPC    C2 8404  -0.068   2.568   6.325 -0.2995  0.4453 -0.5414
   89SAPC    HS 8405  -0.013   2.484   6.278  3.3835  0.8690  2.5355
   89SAPC   O21 8406  -0.082   2.681   6.233  0.1000 -0.0029  0.0650
   89SAPC   C21 8407   0.030   2.705   6.158  0.2859  0.2157 -0.0809
   89SAPC   O22 8408   0.130   2.630   6.143  0.2760 -0.0817 -0.1483
   89SAPC   C22 8409   0.024   2.841   6.101 -0.1249 -0.2832 -0.2890
   89SAPC   H2R 8410  -0.080   2.849   6.065 -1.0159 -0.2055  2.1111
   89SAPC   H2S 8411   0.046   2.903   6.191  0.3005  0.3284 -0.8030
   89SAPC    C3 8412  -0.204   2.517   6.369 -0.3464  0.1883 -0.5754
   89SAPC    HX 8413  -0.250   2.599   6.429  1.9029  0.2253  1.2411
   89SAPC    HY 8414  -0.177   2.432   6.435  1.8327 -0.2055 -1.8727
   89SAPC   O31 8415  -0.288   2.486   6.255 -0.6149  0.0949 -0.4407
   89SAPC   C31 8416  -0.289   2.362   6.219 -0.1987  0.2335  0.0485
   89SAPC   O32 8417  -0.215   2.275   6.267  0.0004  0.1886 -0.7781
   89SAPC   C32 8418  -0.379   2.351   6.101  0.2451  0.2154 -0.9052
   89SAPC   H2X 8419  -0.474   2.406   6.118  0.6807  0.1046  2.7058
   89SAPC   H2Y 8420  -0.402   2.242   6.110 -0.6628  0.4117 -0.7269
   89SAPC   C23 8421   0.134   2.884   5.998  0.3461 -0.2222  0.4501
   89SAPC   H3R 8422   0.138   2.814   5.911 -2.4149 -0.2147  0.2328
   89SAPC   H3S 8423   0.227   2.861   6.054 -0.1933 -0.3893  1.2907
   89SAPC   C24 8424   0.125   3.034   5.951 -0.5851  0.3727 -0.6974
   89SAPC   H4R 8425   0.199   3.052   5.870 -0.2475  2.7667  0.0836
   89SAPC   H4S 8426   0.181   3.091   6.028  0.0705  0.2650 -1.0871
   89SAPC   C25 8427  -0.007   3.091   5.907 -0.7927  0.2089  0.5283
   89SAPC   H5R 8428  -0.048   3.160   5.983 -0.0485 -1.2037  2.2717
   89SAPC   C26 8429  -0.072   3.073   5.792  0.0522  0.3133  1.2607
   89SAPC   H6R 8430  -0.169   3.123   5.776  0.9321  1.1303 -2.8514
   89SAPC   C27 8431  -0.030   2.989   5.677  0.3510  0.6091  0.0450
   89SAPC   H7R 8432   0.054   2.918   5.697  0.5060  0.6628 -0.4080
   89SAPC   H7S 8433   0.015   3.060   5.604 -0.8956  1.9015  0.4903
   89SAPC   C28 8434  -0.143   2.893   5.624 -0.5251 -0.2536 -0.7264
   89SAPC   H8R 8435  -0.174   2.817   5.697  0.5923  0.6239  0.7296
   89SAPC   C29 8436  -0.187   2.892   5.495 -0.4223 -0.0832 -0.2904
   89SAPC   H9R 8437  -0.266   2.820   5.467 -0.8713  1.2657 -2.7977
   89SAPC  C210 8438  -0.161   2.997   5.392  0.5813  0.1523  0.4954
   89SAPC  H10R 8439  -0.085   3.073   5.423  0.7406  0.8656 -1.5208
   89SAPC  H10S 8440  -0.257   3.050   5.376  1.9790  2.0116 -2.8677
   89SAPC  C211 8441  -0.125   2.942   5.252 -0.1405 -0.0273 -0.6180
   89SAPC  H11R 8442  -0.017   2.958   5.237 -0.1335  1.9013  0.9700
   89SAPC  C212 8443  -0.208   2.896   5.160  0.4715  0.1998 -0.6623
   89SAPC  H12R 8444  -0.158   2.859   5.069  1.6117  0.7320 -0.2698
   89SAPC  C213 8445  -0.356   2.884   5.164  0.2853 -1.0695  0.2408
   89SAPC  H13R 8446  -0.389   2.885   5.270  1.6932 -0.5427  0.7021
   89SAPC  H13S 8447  -0.393   2.800   5.103  2.1753  0.3717 -3.2036
   89SAPC  C214 8448  -0.394   3.022   5.102  0.2602 -0.3563  0.3164
   89SAPC  H14R 8449  -0.358   3.108   5.161  4.0952 -0.3440 -1.7307
   89SAPC  C215 8450  -0.459   3.034   4.989  0.0166  0.3250  0.2831
   89SAPC  H15R 8451  -0.474   3.134   4.946  2.8324  1.2269  1.1750
   89SAPC  C216 8452  -0.493   2.932   4.887  0.2915  0.8240  0.2920
   89SAPC  H16R 8453  -0.601   2.912   4.902 -0.0633  0.7715 -1.9867
   89SAPC  H16S 8454  -0.440   2.835   4.901  0.1934  1.0079  2.2395
   89SAPC  C217 8455  -0.482   2.980   4.742 -0.2138 -0.6900  0.0523
   89SAPC  H17R 8456  -0.377   2.996   4.709 -0.1108 -0.4362  0.4832
   89SAPC  H17S 8457  -0.532   3.079   4.732  1.0136  0.0459  0.8556
   89SAPC  C218 8458  -0.555   2.875   4.648  0.0940 -0.3123 -0.2599
   89SAPC  H18R 8459  -0.659   2.878   4.687  0.2188  1.8682  0.0128
   89SAPC  H18S 8460  -0.516   2.773   4.669  2.0805  0.6353  0.9419
   89SAPC  C219 8461  -0.555   2.896   4.498 -0.2195  0.6991 -0.1918
   89SAPC  H19R 8462  -0.453   2.880   4.456  0.1706  1.5228  0.4328
   89SAPC  H19S 8463  -0.603   2.990   4.463 -1.7747  0.9868  2.4171
   89SAPC  C220 8464  -0.635   2.784   4.431 -0.0380  0.3031 -0.8600
   89SAPC  H20R 8465  -0.647   2.807   4.322  0.1436  1.1125 -0.7196
   89SAPC  H20S 8466  -0.731   2.792   4.486 -0.1766  0.2877 -1.0949
   89SAPC  H20T 8467  -0.584   2.688   4.448 -0.2261  0.7406  3.0098
   89SAPC   C33 8468  -0.325   2.364   5.960 -0.1111  0.3429 -0.3414
   89SAPC   H3X 8469  -0.258   2.280   5.936 -0.4446 -0.1017  0.2533
   89SAPC   H3Y 8470  -0.268   2.459   5.953 -0.9932  0.9579  0.4810
   89SAPC   C34 8471  -0.430   2.366   5.848  0.0041 -0.1111  0.2532
   89SAPC   H4X 8472  -0.523   2.427   5.847  0.2418  0.2566 -1.1191
   89SAPC   H4Y 8473  -0.479   2.266   5.847 -1.4353  0.5464  1.2839
   89SAPC   C35 8474  -0.379   2.405   5.704 -0.0140 -0.6394 -0.0037
   89SAPC   H5X 8475  -0.306   2.329   5.671  2.0838  1.2714 -0.0381
   89SAPC   H5Y 8476  -0.325   2.502   5.717  0.1100 -0.4605 -1.7242
   89SAPC   C36 8477  -0.492   2.425   5.603 -0.6112  0.6071  0.7656
   89SAPC   H6X 8478  -0.569   2.498   5.634 -0.6879  0.6188  0.5468
   89SAPC   H6Y 8479  -0.542   2.326   5.594  1.8412 -0.5454 -1.6633
   89SAPC   C37 8480  -0.443   2.456   5.460 -0.1713 -0.6754  0.2238
   89SAPC   H7X 8481  -0.382   2.374   5.417 -2.2508 -1.2173 -1.8746
   89SAPC   H7Y 8482  -0.384   2.550   5.469 -1.3621  0.1420 -0.2785
   89SAPC   C38 8483  -0.544   2.475   5.356 -0.2330  0.0463 -0.3310
   89SAPC   H8X 8484  -0.613   2.559   5.381  0.2600  0.3052  0.1748
   89SAPC   H8Y 8485  -0.604   2.382   5.349  2.2997 -1.6542 -0.8229
   89SAPC   C39 8486  -0.474   2.498   5.218  0.7842  0.0632 -0.1588
   89SAPC   H9X 8487  -0.446   2.399   5.177  4.0954 -0.3802  2.6810
   89SAPC   H9Y 8488  -0.386   2.567   5.220  1.2425 -0.4720 -0.9734
   89SAPC  C310 8489  -0.575   2.566   5.124  0.6516 -0.7581 -0.8340
   89SAPC  H10X 8490  -0.613   2.664   5.159  1.5277 -1.0434  1.0170
   89SAPC  H10Y 8491  -0.673   2.515   5.111 -0.7597  1.6625 -0.3207
   89SAPC  C311 8492  -0.523   2.584   4.974  0.0873 -0.5420 -0.4188
   89SAPC  H11X 8493  -0.418   2.622   4.975 -0.0704 -0.1074 -0.2588
   89SAPC  H11Y 8494  -0.590   2.655   4.921  2.0704  1.2365 -0.7306
   89SAPC  C312 8495  -0.529   2.455   4.890 -0.1781  0.0960  0.0027
   89SAPC  H12X 8496  -0.619   2.397   4.919 -1.0442  1.4538  0.1492
   89SAPC  H12Y 8497  -0.446   2.389   4.921  0.6686  1.9729  2.0114
   89SAPC  C313 8498  -0.509   2.478   4.736  0.0803  0.0284 -0.8646
   89SAPC  H13X 8499  -0.402   2.500   4.721 -0.1862  0.9057 -1.5894
   89SAPC  H13Y 8500  -0.581   2.560   4.712 -1.6120 -1.9636 -3.1170
   89SAPC  C314 8501  -0.547   2.349   4.656 -0.2693  0.9002  0.1215
   89SAPC  H14X 8502  -0.652   2.319   4.677  0.4178 -0.7081  1.3979
   89SAPC  H14Y 8503  -0.499   2.262   4.705  0.3694  0.2455 -1.5814
   89SAPC  C315 8504  -0.517   2.376   4.508  0.6283  0.2076 -0.8659
   89SAPC  H15X 8505  -0.425   2.438   4.502  0.2037  1.1906  1.5658
   89SAPC  H15Y 8506  -0.598   2.447   4.477 -0.4840 -0.4695  0.3739
   89SAPC  C316 8507  -0.527   2.253   4.421 -0.5038 -0.0176 -0.2829
   89SAPC  H16X 8508  -0.631   2.216   4.427 -0.6250  0.5827  2.9560
   89SAPC  H16Y 8509  -0.462   2.172   4.461  0.8768  1.3858  0.4000
   89SAPC  C317 8510  -0.487   2.284   4.278 -0.4286 -0.3116  0.5391
   89SAPC  H17X 8511  -0.384   2.325   4.271 -1.1793  1.3998 -1.5296
   89SAPC  H17Y 8512  -0.542   2.371   4.236  1.9203  2.5078  2.8872
   89SAPC  C318 8513  -0.501   2.162   4.184 -0.1572  0.0502 -0.1893
   89SAPC  H18X 8514  -0.444   2.078   4.229 -0.9879  0.5793  1.9647
   89SAPC  H18Y 8515  -0.450   2.177   4.087  2.2767 -2.5004  0.5564
   89SAPC  H18Z 8516  -0.607   2.137   4.159 -0.5950  3.2331 -2.0070
   90SAPC     N 8517   3.428   5.302   6.908  0.6799  0.2736  0.2614
   90SAPC   C12 8518   3.407   5.227   6.780 -0.2863 -0.0529 -0.2791
   90SAPC  H12A 8519   3.305   5.201   6.757  0.8309 -2.1333 -3.6616
   90SAPC  H12B 8520   3.444   5.129   6.806 -0.4927 -0.5181 -1.6703
   90SAPC   C13 8521   3.368   5.434   6.908  0.0567 -0.4262  0.3672
   90SAPC  H13A 8522   3.261   5.426   6.908  0.0441 -0.2629  0.3007
   90SAPC  H13B 8523   3.400   5.473   7.003  0.9622 -0.3009  0.0259
   90SAPC  H13C 8524   3.409   5.492   6.826  0.3896  0.2849  1.0193
   90SAPC   C14 8525   3.367   5.219   7.022 -0.0789  0.0906  0.4693
   90SAPC  H14A 8526   3.376   5.267   7.118 -0.5416  0.8859  0.1333
   90SAPC  H14B 8527   3.260   5.217   7.005  0.1803 -0.9384 -1.1978
   90SAPC  H14C 8528   3.397   5.116   7.020  1.0956  0.4269 -0.5305
   90SAPC   C15 8529   3.574   5.317   6.947 -0.0506  0.3290  0.1615
   90SAPC  H15A 8530   3.593   5.354   7.047  0.3835  1.1304 -0.2068
   90SAPC  H15B 8531   3.631   5.225   6.940  1.2129  1.2088 -2.3724
   90SAPC  H15C 8532   3.619   5.384   6.875  2.6790  1.7943  2.9752
   90SAPC   C11 8533   3.486   5.258   6.650 -0.0404 -0.5803 -0.2699
   90SAPC  H11A 8534   3.430   5.213   6.566 -0.4424 -1.7922  0.6178
   90SAPC  H11B 8535   3.590   5.220   6.643  0.3981  0.7549 -1.7196
   90SAPC     P 8536   3.605   5.494   6.591 -0.1224  0.5609  0.0492
   90SAPC   O13 8537   3.555   5.635   6.596 -0.1273  0.0835  0.5808
   90SAPC   O14 8538   3.708   5.453   6.689 -0.7617 -0.3850 -0.1456
   90SAPC   O12 8539   3.483   5.400   6.608  0.5508  0.1975 -0.2236
   90SAPC   O11 8540   3.641   5.457   6.443 -0.2155 -0.6553 -0.2762
   90SAPC    C1 8541   3.548   5.418   6.338  0.1633 -0.5217 -0.1644
   90SAPC    HA 8542   3.518   5.311   6.343 -1.6706 -0.0482 -0.3554
   90SAPC    HB 8543   3.459   5.482   6.354  0.6971 -0.1234  1.3230
   90SAPC    C2 8544   3.607   5.455   6.196  0.7375  0.3151 -0.7774
   90SAPC    HS 8545   3.518   5.445   6.129  0.7992 -1.9969 -0.5814
   90SAPC   O21 8546   3.714   5.359   6.154  0.0417  0.0052  0.5830
   90SAPC   C21 8547   3.675   5.240   6.121  0.8031  0.5958  0.5889
   90SAPC   O22 8548   3.561   5.196   6.116  0.1266 -0.9077  0.7583
   90SAPC   C22 8549   3.812   5.175   6.065 -0.1721  0.1573  0.5176
   90SAPC   H2R 8550   3.897   5.216   6.123  0.2534 -0.8711  0.6362
   90SAPC   H2S 8551   3.802   5.066   6.086 -0.9806  0.3562  1.1910
   90SAPC    C3 8552   3.649   5.606   6.183 -0.0919  0.0846  0.4091
   90SAPC    HX 8553   3.737   5.622   6.249  1.3746 -1.5510 -1.0401
   90SAPC    HY 8554   3.557   5.656   6.219 -0.4885 -0.2069 -0.1844
   90SAPC   O31 8555   3.665   5.633   6.039  0.3464  0.5028 -0.3397
   90SAPC   C31 8556   3.795   5.640   6.000  0.6218 -0.0330  0.4192
   90SAPC   O32 8557   3.894   5.647   6.071  0.0281 -0.2737  0.0504
   90SAPC   C32 8558   3.792   5.642   5.845 -0.6014  0.1650 -0.4758
   90SAPC   H2X 8559   3.732   5.726   5.806  0.7214  0.9765 -0.8315
   90SAPC   H2Y 8560   3.747   5.544   5.817 -0.7609  0.3023 -0.7059
   90SAPC   C23 8561   3.825   5.203   5.914  0.6549 -0.4653  0.2275
   90SAPC   H3R 8562   3.840   5.312   5.898  0.0727 -0.6945 -2.2627
   90SAPC   H3S 8563   3.728   5.183   5.863  0.4380  2.5412 -0.7505
   90SAPC   C24 8564   3.945   5.126   5.853 -0.1687  0.4884 -0.2241
   90SAPC   H4R 8565   3.989   5.063   5.934 -0.5613 -0.6622 -0.8733
   90SAPC   H4S 8566   4.032   5.193   5.832  0.1499  0.1593  0.0254
   90SAPC   C25 8567   3.919   5.034   5.741 -0.1988 -1.1812  0.1881
   90SAPC   H5R 8568   3.928   4.929   5.773  0.1898 -1.5946 -1.2095
   90SAPC   C26 8569   3.914   5.073   5.612 -0.8200  0.0188 -0.3948
   90SAPC   H6R 8570   3.903   4.996   5.535  2.0494 -2.0749  1.0753
   90SAPC   C27 8571   3.914   5.214   5.556  0.1439  0.3948 -0.2901
   90SAPC   H7R 8572   3.945   5.288   5.633 -3.5599  0.8613  0.9773
   90SAPC   H7S 8573   3.809   5.244   5.532  0.3542  0.6236 -0.9261
   90SAPC   C28 8574   4.001   5.213   5.437  0.4868  0.1106  0.2418
   90SAPC   H8R 8575   4.105   5.242   5.455  0.3055 -0.5491  2.6614
   90SAPC   C29 8576   3.962   5.171   5.319 -0.4542 -0.9854  0.2517
   90SAPC   H9R 8577   4.043   5.167   5.245 -0.7826 -0.5338 -0.1413
   90SAPC  C210 8578   3.824   5.151   5.253 -0.2807 -0.0498 -0.5678
   90SAPC  H10R 8579   3.811   5.228   5.174 -0.6173  1.9534  1.3347
   90SAPC  H10S 8580   3.738   5.162   5.322  1.2796 -1.3871  1.6999
   90SAPC  C211 8581   3.828   5.003   5.204 -0.2472 -0.4659 -0.1280
   90SAPC  H11R 8582   3.857   4.935   5.285  0.8581  2.9952  2.6398
   90SAPC  C212 8583   3.813   4.953   5.077  0.7913  0.0402  0.0597
   90SAPC  H12R 8584   3.833   4.845   5.068 -0.4588 -0.3200  1.1574
   90SAPC  C213 8585   3.781   5.030   4.958  0.6088  0.1052  0.4736
   90SAPC  H13R 8586   3.826   4.979   4.871 -2.6112  0.5200 -1.5866
   90SAPC  H13S 8587   3.819   5.135   4.964 -1.7883  0.9639  4.0286
   90SAPC  C214 8588   3.635   5.050   4.931  0.1294  0.5664  0.7077
   90SAPC  H14R 8589   3.578   5.064   5.024  1.0900 -2.3975  1.8668
   90SAPC  C215 8590   3.575   5.046   4.811 -0.1401 -0.5491  0.0482
   90SAPC  H15R 8591   3.467   5.062   4.802 -0.0212 -0.4271 -1.3053
   90SAPC  C216 8592   3.653   5.018   4.686  0.0599  0.0383  0.2561
   90SAPC  H16R 8593   3.628   4.918   4.644  0.8509  0.4072 -1.1804
   90SAPC  H16S 8594   3.762   5.013   4.702  0.0549 -0.9709  0.0838
   90SAPC  C217 8595   3.627   5.117   4.568  0.2913  0.8067 -0.2458
   90SAPC  H17R 8596   3.696   5.085   4.488  0.9759 -1.4522  1.1663
   90SAPC  H17S 8597   3.636   5.226   4.589  0.3874  0.6376  0.6306
   90SAPC  C218 8598   3.488   5.086   4.494 -0.0834  0.3798 -0.2246
   90SAPC  H18R 8599   3.404   5.098   4.566  0.2182  0.9707  0.0453
   90SAPC  H18S 8600   3.512   4.984   4.459  0.2692  0.5584 -0.5140
   90SAPC  C219 8601   3.464   5.163   4.371 -0.0920  0.1216 -0.0969
   90SAPC  H19R 8602   3.546   5.150   4.297 -0.1555  0.5956 -0.2506
   90SAPC  H19S 8603   3.471   5.269   4.401  0.7417 -0.4010  1.7109
   90SAPC  C220 8604   3.335   5.136   4.297  0.8828 -0.4462  0.7088
   90SAPC  H20R 8605   3.337   5.031   4.261 -1.1961 -0.0269 -0.8030
   90SAPC  H20S 8606   3.318   5.199   4.207  0.9017 -1.2521  0.1333
   90SAPC  H20T 8607   3.252   5.157   4.367 -0.1451  2.2553 -1.1762
   90SAPC   C33 8608   3.932   5.647   5.777 -0.5838 -0.4031 -0.0265
   90SAPC   H3X 8609   3.965   5.541   5.773  1.8155  0.2911 -3.4037
   90SAPC   H3Y 8610   3.997   5.717   5.833 -2.2497 -0.6787  2.4043
   90SAPC   C34 8611   3.905   5.685   5.630 -0.1951  0.2939  0.0679
   90SAPC   H4X 8612   3.887   5.795   5.624  0.4398  0.3598 -0.9458
   90SAPC   H4Y 8613   3.817   5.624   5.601  1.4133 -1.9499 -0.3187
   90SAPC   C35 8614   4.029   5.669   5.554 -0.5241  0.3710  0.0564
   90SAPC   H5X 8615   4.056   5.561   5.552 -0.8234  0.3165 -1.2709
   90SAPC   H5Y 8616   4.114   5.718   5.608  0.4684  0.5301 -1.5928
   90SAPC   C36 8617   4.019   5.728   5.417  0.8235  0.1186 -0.1570
   90SAPC   H6X 8618   4.001   5.837   5.429  0.8893 -0.0279  1.5344
   90SAPC   H6Y 8619   3.927   5.679   5.378  0.7798 -1.3686  1.6398
   90SAPC   C37 8620   4.141   5.717   5.327  0.1903  0.5860  0.6978
   90SAPC   H7X 8621   4.158   5.611   5.296  2.1857  1.3950 -1.2523
   90SAPC   H7Y 8622   4.234   5.751   5.378  1.1818 -1.2884  0.2353
   90SAPC   C38 8623   4.115   5.793   5.190 -0.2845 -0.2004 -0.1838
   90SAPC   H8X 8624   4.193   5.769   5.115 -1.3124  1.5397 -1.9087
   90SAPC   H8Y 8625   4.111   5.902   5.209  1.0368 -0.2209  0.2783
   90SAPC   C39 8626   3.979   5.749   5.129 -0.0275  0.0848 -0.3197
   90SAPC   H9X 8627   3.910   5.819   5.180 -0.9454 -0.5183 -0.7014
   90SAPC   H9Y 8628   3.947   5.644   5.147 -3.1112  0.7484 -1.3723
   90SAPC  C310 8629   3.971   5.757   4.979  0.2985 -0.8833 -0.4758
   90SAPC  H10X 8630   3.990   5.866   4.970  1.6661 -0.7160  2.7950
   90SAPC  H10Y 8631   3.870   5.742   4.937 -1.6514  1.3050  2.9233
   90SAPC  C311 8632   4.078   5.675   4.902 -0.9071 -0.9596  1.0071
   90SAPC  H11X 8633   4.073   5.569   4.932  0.9305 -1.7412 -1.1327
   90SAPC  H11Y 8634   4.185   5.702   4.918 -0.5570 -0.8761 -1.1410
   90SAPC  C312 8635   4.056   5.692   4.751 -0.2347 -0.6313  0.2407
   90SAPC  H12X 8636   4.145   5.645   4.706  2.1883  0.8500  3.1020
   90SAPC  H12Y 8637   4.038   5.797   4.720  1.6530 -0.8664 -1.8583
   90SAPC  C313 8638   3.935   5.615   4.695 -0.2604  0.5075 -0.1503
   90SAPC  H13X 8639   3.933   5.623   4.584  0.3439 -1.1682 -0.3105
   90SAPC  H13Y 8640   3.845   5.675   4.721 -0.3960 -0.0894  0.7900
   90SAPC  C314 8641   3.911   5.475   4.752 -0.1560  0.3661  0.1536
   90SAPC  H14X 8642   3.819   5.433   4.705  0.7740 -1.5965 -0.0230
   90SAPC  H14Y 8643   3.895   5.463   4.861 -0.2308  1.2900  0.2554
   90SAPC  C315 8644   4.022   5.370   4.708 -0.1873 -0.1613 -0.3233
   90SAPC  H15X 8645   3.993   5.274   4.754 -0.1860 -0.2076 -0.4189
   90SAPC  H15Y 8646   4.118   5.407   4.750  0.5163 -0.4892 -1.5779
   90SAPC  C316 8647   4.053   5.347   4.561  0.4628 -0.3812  0.4772
   90SAPC  H16X 8648   4.084   5.437   4.503 -0.7064 -0.8911 -0.9809
   90SAPC  H16Y 8649   3.955   5.326   4.513  1.4107 -0.4560 -1.4959
   90SAPC  C317 8650   4.139   5.220   4.532 -0.1078  0.0631 -0.2209
   90SAPC  H17X 8651   4.076   5.134   4.563  1.5399 -1.1325 -0.0044
   90SAPC  H17Y 8652   4.229   5.214   4.598  0.2776  1.6641 -0.5613
   90SAPC  C318 8653   4.177   5.209   4.390 -0.0606  0.9161 -0.9087
   90SAPC  H18X 8654   4.217   5.302   4.346  2.0986 -0.4801 -2.0809
   90SAPC  H18Y 8655   4.089   5.188   4.325  0.4481  1.9143 -1.9462
   90SAPC  H18Z 8656   4.257   5.133   4.382 -1.5343 -0.8481  0.1561
   91SAPC     N 8657   0.292   4.873   6.600 -0.4301 -0.3682  0.0507
   91SAPC   C12 8658   0.394   4.808   6.508  0.6957 -0.3187  0.0397
   91SAPC  H12A 8659   0.492   4.812   6.554  1.0818  0.1918 -0.8100
   91SAPC  H12B 8660   0.406   4.878   6.426 -0.8525  0.2403  0.2633
   91SAPC   C13 8661   0.348   5.008   6.640 -0.2035 -1.1151  0.7799
   91SAPC  H13A 8662   0.427   5.010   6.713 -1.4237  1.3850  2.1649
   91SAPC  H13B 8663   0.396   5.047   6.551 -0.2430  0.7638  1.5481
   91SAPC  H13C 8664   0.273   5.075   6.681  0.7643  0.1603  0.5383
   91SAPC   C14 8665   0.151   4.901   6.547  0.7742  0.3128 -0.0815
   91SAPC  H14A 8666   0.111   4.802   6.531  0.6457 -0.0372  2.1152
   91SAPC  H14B 8667   0.096   4.955   6.622 -0.2864  0.0414 -0.6536
   91SAPC  H14C 8668   0.154   4.963   6.458  0.5884 -0.1278 -0.3955
   91SAPC   C15 8669   0.274   4.797   6.726  0.0374 -0.0251  0.2792
   91SAPC  H15A 8670   0.227   4.700   6.711 -0.2309  0.0960  0.3285
   91SAPC  H15B 8671   0.362   4.785   6.787  0.5740  1.1947 -0.2256
   91SAPC  H15C 8672   0.207   4.854   6.788  1.3765  0.9140  0.8806
   91SAPC   C11 8673   0.372   4.668   6.443  0.2169 -0.1742 -0.7481
   91SAPC  H11A 8674   0.453   4.629   6.377  2.1415  1.1972  0.6957
   91SAPC  H11B 8675   0.291   4.688   6.369  0.9262  0.2190 -1.4410
   91SAPC     P 8676   0.454   4.496   6.622  0.2431  0.4394 -0.3864
   91SAPC   O13 8677   0.567   4.587   6.637 -0.3276 -0.8280  0.3322
   91SAPC   O14 8678   0.398   4.446   6.753  0.0532 -0.8766  0.4656
   91SAPC   O12 8679   0.332   4.567   6.546 -0.5890  0.3641  0.4550
   91SAPC   O11 8680   0.486   4.367   6.533  0.2713  0.5161 -0.3593
   91SAPC    C1 8681   0.395   4.314   6.436  0.6157 -0.1413 -0.3805
   91SAPC    HA 8682   0.337   4.230   6.480 -0.4926  0.1114 -1.3323
   91SAPC    HB 8683   0.318   4.388   6.405  0.7337 -0.0995 -0.5769
   91SAPC    C2 8684   0.469   4.251   6.310 -0.0178  0.6686 -0.3203
   91SAPC    HS 8685   0.529   4.167   6.351  0.8589  1.1362 -0.6135
   91SAPC   O21 8686   0.548   4.350   6.249  0.4247 -0.4483  0.7985
   91SAPC   C21 8687   0.674   4.352   6.277  0.2552  0.4984 -0.0888
   91SAPC   O22 8688   0.742   4.261   6.317  0.1454 -0.1065 -0.0430
   91SAPC   C22 8689   0.720   4.490   6.258 -0.1591 -0.3704 -0.2834
   91SAPC   H2R 8690   0.661   4.546   6.334  1.9608  0.0473  1.1271
   91SAPC   H2S 8691   0.829   4.497   6.280 -0.1614 -2.3723  0.5413
   91SAPC    C3 8692   0.372   4.195   6.202 -0.3829  0.1373 -0.3538
   91SAPC    HX 8693   0.313   4.278   6.158 -2.7760 -1.6174 -0.6519
   91SAPC    HY 8694   0.295   4.130   6.249 -1.6742  1.9091  0.0910
   91SAPC   O31 8695   0.450   4.132   6.098 -0.4457  0.5940 -0.3755
   91SAPC   C31 8696   0.375   4.049   6.029 -0.5843 -0.5636 -0.0818
   91SAPC   O32 8697   0.255   4.037   6.040 -0.7582  0.3640  0.2804
   91SAPC   C32 8698   0.457   3.976   5.918  1.7792  0.3313 -0.8311
   91SAPC   H2X 8699   0.459   4.049   5.835 -0.8874  0.4120 -0.9219
   91SAPC   H2Y 8700   0.397   3.888   5.886  3.6756 -1.9791  1.5354
   91SAPC   C23 8701   0.687   4.550   6.121 -0.4660 -0.8406  0.1532
   91SAPC   H3R 8702   0.725   4.654   6.126  0.8631 -1.2012 -1.5022
   91SAPC   H3S 8703   0.576   4.545   6.122 -0.5206  0.3455  0.6696
   91SAPC   C24 8704   0.750   4.468   6.004  0.1193 -0.1238 -0.0777
   91SAPC   H4R 8705   0.710   4.365   6.010  0.0437 -0.1373 -0.7730
   91SAPC   H4S 8706   0.860   4.473   6.021 -0.1048  0.9126  1.2916
   91SAPC   C25 8707   0.714   4.530   5.870 -0.0931 -0.1936  0.4265
   91SAPC   H5R 8708   0.736   4.637   5.861 -1.5909  0.1705  0.9137
   91SAPC   C26 8709   0.636   4.474   5.779  0.2791  0.0416  0.8227
   91SAPC   H6R 8710   0.635   4.523   5.680  0.5061  0.8936  1.2313
   91SAPC   C27 8711   0.578   4.333   5.789 -0.8259  0.6764 -0.3092
   91SAPC   H7R 8712   0.653   4.266   5.836  0.0059  0.5266 -1.7916
   91SAPC   H7S 8713   0.578   4.290   5.686  1.8302 -1.6908  0.5410
   91SAPC   C28 8714   0.440   4.337   5.854  0.2800  1.0081 -0.1783
   91SAPC   H8R 8715   0.439   4.333   5.964 -0.8670 -3.5943 -0.1490
   91SAPC   C29 8716   0.326   4.332   5.785 -0.3465  0.2114 -0.2205
   91SAPC   H9R 8717   0.232   4.332   5.843  0.3788 -1.9560  1.0981
   91SAPC  C210 8718   0.299   4.329   5.633  0.5055  0.4556 -0.9841
   91SAPC  H10R 8719   0.392   4.366   5.586  0.9664 -0.1219 -0.5560
   91SAPC  H10S 8720   0.216   4.397   5.606 -0.3294 -0.8401 -1.8133
   91SAPC  C211 8721   0.267   4.188   5.576 -1.0568 -0.8395  0.5365
   91SAPC  H11R 8722   0.180   4.135   5.618 -0.9858 -0.1425  1.6092
   91SAPC  C212 8723   0.332   4.131   5.471  0.1519 -0.4647  0.6100
   91SAPC  H12R 8724   0.306   4.027   5.447 -1.5046  0.5306 -2.6035
   91SAPC  C213 8725   0.451   4.187   5.393  0.0887 -0.1531  0.0391
   91SAPC  H13R 8726   0.526   4.105   5.384  0.2647 -0.0993  0.9909
   91SAPC  H13S 8727   0.509   4.261   5.453 -1.3243  0.2443  0.9513
   91SAPC  C214 8728   0.420   4.239   5.254  0.1463 -0.1737  0.3518
   91SAPC  H14R 8729   0.371   4.337   5.266  0.7353  0.0820  0.7011
   91SAPC  C215 8730   0.437   4.181   5.135  0.0340 -0.0926  0.1924
   91SAPC  H15R 8731   0.408   4.235   5.044 -1.8599  0.0763  0.8458
   91SAPC  C216 8732   0.499   4.045   5.108 -0.2347 -0.2425  0.2334
   91SAPC  H16R 8733   0.520   3.982   5.198  1.6202 -2.0761 -1.3844
   91SAPC  H16S 8734   0.592   4.054   5.049  1.0846 -0.2514  2.2000
   91SAPC  C217 8735   0.402   3.968   5.017 -0.5504 -0.7645 -0.0633
   91SAPC  H17R 8736   0.342   4.018   4.938 -1.1900 -0.5474  0.5467
   91SAPC  H17S 8737   0.326   3.920   5.083 -0.7662  0.7034  0.8051
   91SAPC  C218 8738   0.473   3.860   4.938  0.4359  0.6207 -0.3013
   91SAPC  H18R 8739   0.524   3.784   5.000  2.7959  2.8939  0.7671
   91SAPC  H18S 8740   0.550   3.909   4.874 -2.4886  2.1004 -2.9931
   91SAPC  C219 8741   0.382   3.790   4.840  0.4770 -0.1505 -0.1941
   91SAPC  H19R 8742   0.348   3.854   4.756 -1.3179 -0.1858  0.4716
   91SAPC  H19S 8743   0.297   3.753   4.901  0.2789 -0.6792 -0.7800
   91SAPC  C220 8744   0.443   3.675   4.774  0.3764  0.8404 -0.1292
   91SAPC  H20R 8745   0.371   3.643   4.696  1.6003 -0.7368 -0.6736
   91SAPC  H20S 8746   0.471   3.598   4.850 -0.7631  0.3045 -0.2244
   91SAPC  H20T 8747   0.541   3.696   4.726  2.0092 -1.5323  1.8656
   91SAPC   C33 8748   0.603   3.947   5.950  0.3763 -0.4894 -0.7075
   91SAPC   H3X 8749   0.614   3.900   6.050  1.3126  1.2052  0.0216
   91SAPC   H3Y 8750   0.647   4.048   5.965 -0.6133 -0.2125  0.4372
   91SAPC   C34 8751   0.678   3.882   5.837 -0.5819 -0.0009 -0.1063
   91SAPC   H4X 8752   0.611   3.802   5.799 -0.4209 -2.0758  3.5486
   91SAPC   H4Y 8753   0.771   3.840   5.883  0.4708  1.3343 -0.9575
   91SAPC   C35 8754   0.704   3.980   5.717 -0.6923 -0.0829 -0.7784
   91SAPC   H5X 8755   0.763   4.067   5.754  0.7996 -2.0601  1.8212
   91SAPC   H5Y 8756   0.615   4.034   5.676 -0.9393  1.1312  1.1992
   91SAPC   C36 8757   0.797   3.919   5.613 -0.0416 -0.5403  0.2363
   91SAPC   H6X 8758   0.748   3.845   5.546  0.9845 -1.8687  0.8979
   91SAPC   H6Y 8759   0.873   3.852   5.658 -0.8422 -1.2856  0.4921
   91SAPC   C37 8760   0.882   4.025   5.529  0.5927 -0.8918 -0.1714
   91SAPC   H7X 8761   0.969   3.983   5.474 -1.0954  0.4204 -4.2550
   91SAPC   H7Y 8762   0.936   4.082   5.608 -0.4215 -0.1754  0.0174
   91SAPC   C38 8763   0.802   4.128   5.446 -0.4103  0.3227 -1.2540
   91SAPC   H8X 8764   0.735   4.195   5.504 -1.8553 -2.7248  0.9290
   91SAPC   H8Y 8765   0.741   4.064   5.379  1.0773  0.0723 -2.4190
   91SAPC   C39 8766   0.886   4.222   5.361 -0.3125 -0.4153  0.3295
   91SAPC   H9X 8767   0.952   4.180   5.283 -0.7853  1.9628 -1.4438
   91SAPC   H9Y 8768   0.952   4.284   5.426  0.5024 -0.1350 -0.7377
   91SAPC  C310 8769   0.794   4.310   5.281 -0.2857  0.2600  0.8702
   91SAPC  H10X 8770   0.757   4.393   5.345  0.6442  1.8646 -0.5934
   91SAPC  H10Y 8771   0.698   4.258   5.258  0.5514 -1.3156  0.8378
   91SAPC  C311 8772   0.856   4.363   5.149  0.1284  0.1387 -0.0296
   91SAPC  H11X 8773   0.955   4.412   5.162  0.0825  0.4649 -0.7961
   91SAPC  H11Y 8774   0.799   4.450   5.108  0.2038  0.2428  0.0842
   91SAPC  C312 8775   0.853   4.257   5.042  0.1675 -0.6991  0.2290
   91SAPC  H12X 8776   0.777   4.276   4.963 -0.3769 -3.1614  0.0712
   91SAPC  H12Y 8777   0.813   4.162   5.082 -0.2544 -1.2522 -1.4365
   91SAPC  C313 8778   0.993   4.215   4.986 -0.3871  0.3964 -0.6988
   91SAPC  H13X 8779   1.047   4.164   5.069 -1.1936  1.3889  0.4670
   91SAPC  H13Y 8780   1.053   4.304   4.959  0.6979  0.4325  1.6004
   91SAPC  C314 8781   0.975   4.127   4.856  0.3895  0.2508 -0.6731
   91SAPC  H14X 8782   1.078   4.095   4.827  0.0931 -1.1631 -0.2804
   91SAPC  H14Y 8783   0.941   4.194   4.774 -2.3692 -0.7783 -0.4787
   91SAPC  C315 8784   0.882   4.006   4.857 -0.3347  0.1925 -0.5206
   91SAPC  H15X 8785   0.777   4.043   4.857 -0.0572  1.0199  0.3591
   91SAPC  H15Y 8786   0.903   3.937   4.941  0.8187 -1.3554 -1.9950
   91SAPC  C316 8787   0.896   3.917   4.731 -0.6262  0.1189 -0.7739
   91SAPC  H16X 8788   1.005   3.917   4.710  0.6249  0.7683  4.4245
   91SAPC  H16Y 8789   0.835   3.955   4.646 -0.2194  2.4250 -0.0887
   91SAPC  C317 8790   0.867   3.766   4.764  0.0860  0.4142  0.2006
   91SAPC  H17X 8791   0.758   3.754   4.785  0.0045 -1.1215 -0.9291
   91SAPC  H17Y 8792   0.926   3.735   4.853 -1.2165 -1.6808  0.4008
   91SAPC  C318 8793   0.913   3.676   4.652  0.0431 -0.7519  0.0299
   91SAPC  H18X 8794   0.923   3.571   4.687  1.8183 -1.1129 -1.4039
   91SAPC  H18Y 8795   1.015   3.707   4.620 -0.2354  1.8306  1.3783
   91SAPC  H18Z 8796   0.847   3.680   4.563  0.5804 -0.0085 -0.3395
   92SAPC     N 8797   1.921   3.330   6.873 -0.2536 -0.0160 -0.8256
   92SAPC   C12 8798   1.792   3.299   6.796  0.3318  0.3125  0.1461
   92SAPC  H12A 8799   1.707   3.324   6.858  0.5375  1.3601  0.0304
   92SAPC  H12B 8800   1.793   3.197   6.762 -2.4378 -0.8880  3.2228
   92SAPC   C13 8801   1.914   3.461   6.937  0.0369 -0.3896  0.2802
   92SAPC  H13A 8802   1.901   3.534   6.858 -1.8845  0.7189  1.5048
   92SAPC  H13B 8803   1.841   3.468   7.017  1.8043 -0.6012  1.9717
   92SAPC  H13C 8804   2.013   3.479   6.977 -0.1810  3.0415 -0.4317
   92SAPC   C14 8805   1.942   3.228   6.979 -0.0200  0.2957 -0.0441
   92SAPC  H14A 8806   1.990   3.275   7.064 -2.6701  0.2891  1.5724
   92SAPC  H14B 8807   1.855   3.187   7.027 -0.0915  1.3500  0.7522
   92SAPC  H14C 8808   2.005   3.149   6.940 -2.3370 -0.1989 -3.1346
   92SAPC   C15 8809   2.039   3.326   6.770  0.3126 -0.5060  0.8855
   92SAPC  H15A 8810   2.020   3.418   6.717 -2.0556  0.0821  2.6050
   92SAPC  H15B 8811   2.136   3.318   6.816  1.0523  0.0158 -0.5148
   92SAPC  H15C 8812   2.035   3.243   6.701 -0.4784  1.3053 -1.4151
   92SAPC   C11 8813   1.770   3.377   6.661  0.4074 -0.2112 -0.0715
   92SAPC  H11A 8814   1.687   3.323   6.610 -1.0335  1.4529  0.4103
   92SAPC  H11B 8815   1.862   3.376   6.599  0.4849  0.5315  0.0256
   92SAPC     P 8816   1.598   3.569   6.716 -0.3085 -0.0241  0.1797
   92SAPC   O13 8817   1.536   3.504   6.832 -0.3741  0.0067 -0.4760
   92SAPC   O14 8818   1.606   3.719   6.724  0.0271 -0.0277  0.2127
   92SAPC   O12 8819   1.742   3.516   6.689  0.2327 -0.4972  0.1124
   92SAPC   O11 8820   1.523   3.529   6.588  0.1630  0.3493  0.3251
   92SAPC    C1 8821   1.560   3.591   6.461 -0.1103 -0.4602 -0.3082
   92SAPC    HA 8822   1.531   3.698   6.463  0.8099 -0.1568 -1.5120
   92SAPC    HB 8823   1.670   3.579   6.449  0.4377  1.2087  2.3503
   92SAPC    C2 8824   1.492   3.517   6.343 -0.1821  0.1073 -0.3471
   92SAPC    HS 8825   1.532   3.567   6.253  0.6923  0.5824  0.2945
   92SAPC   O21 8826   1.353   3.528   6.345 -0.7073 -0.2761 -0.7908
   92SAPC   C21 8827   1.302   3.639   6.301 -0.4185  0.1903  0.3340
   92SAPC   O22 8828   1.361   3.734   6.249 -0.3342  0.7546 -0.1255
   92SAPC   C22 8829   1.150   3.632   6.320  0.0274  0.2871  0.4731
   92SAPC   H2R 8830   1.124   3.532   6.360 -0.4861  0.2015 -0.0556
   92SAPC   H2S 8831   1.127   3.705   6.401  1.4672  2.7604 -1.1966
   92SAPC    C3 8832   1.530   3.367   6.344 -0.2590 -0.3978 -0.4949
   92SAPC    HX 8833   1.489   3.327   6.439 -0.1519  0.0413 -0.2598
   92SAPC    HY 8834   1.639   3.349   6.353 -0.1409  0.5366  0.0971
   92SAPC   O31 8835   1.462   3.308   6.235 -0.6348 -0.1515 -0.3057
   92SAPC   C31 8836   1.517   3.314   6.115  0.0454  0.4580 -0.5729
   92SAPC   O32 8837   1.624   3.358   6.083 -0.1219 -0.0219 -0.2869
   92SAPC   C32 8838   1.411   3.253   6.022 -0.6643  0.2418 -0.1504
   92SAPC   H2X 8839   1.323   3.322   6.018  1.4808  3.2067  0.3645
   92SAPC   H2Y 8840   1.388   3.156   6.071  1.2449  0.9045  2.2313
   92SAPC   C23 8841   1.070   3.647   6.187 -0.1323  0.2212  0.1298
   92SAPC   H3R 8842   1.077   3.750   6.144  0.2660  0.3590  0.5127
   92SAPC   H3S 8843   0.966   3.634   6.222 -0.4344 -0.4520 -0.9930
   92SAPC   C24 8844   1.089   3.538   6.078  0.0332  0.1336  0.2014
   92SAPC   H4R 8845   1.100   3.440   6.129  0.2904 -1.0188 -1.9958
   92SAPC   H4S 8846   1.183   3.558   6.023  1.4044 -0.0245  2.3567
   92SAPC   C25 8847   0.963   3.536   5.987 -0.3248 -0.1041  0.1702
   92SAPC   H5R 8848   0.867   3.526   6.041 -0.3008 -0.0103  0.2304
   92SAPC   C26 8849   0.957   3.549   5.849 -0.2164 -0.3590 -0.3259
   92SAPC   H6R 8850   0.857   3.568   5.808  0.4247 -0.0295 -1.8282
   92SAPC   C27 8851   1.067   3.551   5.746  0.1658 -0.3049  0.9024
   92SAPC   H7R 8852   1.050   3.469   5.672  1.7115 -1.4580  1.7597
   92SAPC   H7S 8853   1.167   3.529   5.788 -0.3538 -1.7424  1.4581
   92SAPC   C28 8854   1.077   3.673   5.655 -0.4208 -0.2960  0.5286
   92SAPC   H8R 8855   1.125   3.759   5.705 -0.6255  1.8817 -2.7104
   92SAPC   C29 8856   1.056   3.683   5.522 -0.9074 -0.5723  0.1231
   92SAPC   H9R 8857   1.065   3.774   5.462  2.2610 -0.2461  0.9209
   92SAPC  C210 8858   1.008   3.569   5.433  0.2602  0.1680 -0.0611
   92SAPC  H10R 8859   1.034   3.471   5.479 -0.4284  0.6415  1.4048
   92SAPC  H10S 8860   1.058   3.577   5.334  0.8772 -1.8941  0.0312
   92SAPC  C211 8861   0.860   3.571   5.426  0.2261 -0.0504  0.7545
   92SAPC  H11R 8862   0.813   3.507   5.502  1.8529 -2.8220 -0.4512
   92SAPC  C212 8863   0.775   3.620   5.333 -0.1318 -0.1895 -0.2141
   92SAPC  H12R 8864   0.667   3.604   5.349 -1.0365  3.6933 -1.3565
   92SAPC  C213 8865   0.804   3.701   5.208 -0.2647  0.4637 -0.0284
   92SAPC  H13R 8866   0.709   3.721   5.153 -1.4732 -2.8941  0.6054
   92SAPC  H13S 8867   0.865   3.633   5.145  0.6155  0.6624  0.5921
   92SAPC  C214 8868   0.881   3.828   5.222  0.4320  0.0335 -0.3512
   92SAPC  H14R 8869   0.819   3.904   5.273  0.7287  0.0911 -0.0724
   92SAPC  C215 8870   1.011   3.848   5.200  0.2949 -0.3168 -0.0273
   92SAPC  H15R 8871   1.045   3.951   5.216 -0.5755  0.0364 -0.3513
   92SAPC  C216 8872   1.114   3.751   5.146  0.2873  0.3090 -0.2551
   92SAPC  H16R 8873   1.074   3.650   5.120  0.7206 -0.3391  1.4852
   92SAPC  H16S 8874   1.191   3.740   5.225  1.7242 -0.2799 -1.6832
   92SAPC  C217 8875   1.183   3.792   5.006 -0.2751  0.7743  0.1037
   92SAPC  H17R 8876   1.197   3.902   4.999  0.6882  0.5998 -0.9563
   92SAPC  H17S 8877   1.124   3.764   4.917  1.7889  0.2921 -1.1748
   92SAPC  C218 8878   1.321   3.726   5.003 -0.5637 -0.2601  0.3436
   92SAPC  H18R 8879   1.309   3.616   5.012 -0.0564 -0.3105  0.4506
   92SAPC  H18S 8880   1.380   3.769   5.087  2.4500  0.8508 -2.1112
   92SAPC  C219 8881   1.416   3.751   4.882  0.3360 -0.4415  0.2157
   92SAPC  H19R 8882   1.507   3.689   4.898  0.8794  0.4548  0.7207
   92SAPC  H19S 8883   1.442   3.858   4.867 -1.4515  0.0444  0.2910
   92SAPC  C220 8884   1.351   3.711   4.745  0.0330 -0.5450 -0.4074
   92SAPC  H20R 8885   1.413   3.743   4.658  0.0554  1.1486  0.1919
   92SAPC  H20S 8886   1.251   3.759   4.740  0.7769  1.5944  2.3212
   92SAPC  H20T 8887   1.333   3.602   4.753  0.1893 -0.5359  0.1752
   92SAPC   C33 8888   1.461   3.217   5.877 -0.2119 -0.1638 -0.0375
   92SAPC   H3X 8889   1.557   3.163   5.886 -0.5187 -0.5351  1.3383
   92SAPC   H3Y 8890   1.491   3.313   5.831  0.7264 -0.1706  0.5415
   92SAPC   C34 8891   1.361   3.131   5.794 -0.3845  0.3091  0.0926
   92SAPC   H4X 8892   1.284   3.199   5.750  0.1167  0.8878  0.0934
   92SAPC   H4Y 8893   1.309   3.059   5.861  0.3004 -1.7178 -1.4743
   92SAPC   C35 8894   1.433   3.077   5.668 -0.0743 -0.3037  0.1135
   92SAPC   H5X 8895   1.496   2.993   5.706 -1.3890 -0.9822  0.8632
   92SAPC   H5Y 8896   1.491   3.155   5.614 -0.1029  0.5890  1.3315
   92SAPC   C36 8897   1.339   3.016   5.565  0.1065  0.3715 -0.0509
   92SAPC   H6X 8898   1.268   3.096   5.535  0.0790 -0.0919 -1.2692
   92SAPC   H6Y 8899   1.292   2.935   5.624  1.5701  0.1433  0.8445
   92SAPC   C37 8900   1.415   2.953   5.449 -0.7360  0.4258  0.9681
   92SAPC   H7X 8901   1.511   2.911   5.486 -0.0541  1.2743  0.1746
   92SAPC   H7Y 8902   1.445   3.030   5.376  1.0735 -1.0754  0.0583
   92SAPC   C38 8903   1.347   2.844   5.371 -0.0981 -0.5354 -0.1141
   92SAPC   H8X 8904   1.330   2.753   5.431  0.0270  0.3040  1.2371
   92SAPC   H8Y 8905   1.418   2.812   5.292 -2.1220  0.9953 -2.7564
   92SAPC   C39 8906   1.220   2.890   5.301 -0.1089  0.3816 -0.2447
   92SAPC   H9X 8907   1.234   2.992   5.258 -1.3092  1.1976  1.1911
   92SAPC   H9Y 8908   1.129   2.898   5.365  0.2632 -0.7083  0.4382
   92SAPC  C310 8909   1.191   2.811   5.178 -0.2878  0.1143 -0.4066
   92SAPC  H10X 8910   1.145   2.718   5.219 -0.5008  0.3227 -0.1748
   92SAPC  H10Y 8911   1.282   2.785   5.120 -0.4602 -0.8857 -0.2436
   92SAPC  C311 8912   1.087   2.889   5.089 -0.1928 -0.4925 -0.2436
   92SAPC  H11X 8913   1.133   2.988   5.069 -1.9182  0.6733  1.1780
   92SAPC  H11Y 8914   0.991   2.905   5.143  1.4104 -1.8228  3.3407
   92SAPC  C312 8915   1.048   2.810   4.970 -0.2976 -0.3600 -0.3914
   92SAPC  H12X 8916   1.017   2.705   4.988  2.0573 -0.9523  0.6084
   92SAPC  H12Y 8917   1.145   2.798   4.917  1.6968  3.8418  1.8219
   92SAPC  C313 8918   0.940   2.890   4.885 -0.1851  0.1227 -0.4031
   92SAPC  H13X 8919   0.981   2.993   4.883  1.7139 -0.5709  0.4047
   92SAPC  H13Y 8920   0.845   2.903   4.942 -0.6318  1.4538 -1.4007
   92SAPC  C314 8921   0.916   2.836   4.743 -0.5606  0.0548  0.0004
   92SAPC  H14X 8922   0.871   2.734   4.747  0.5900 -0.4385  0.8836
   92SAPC  H14Y 8923   1.012   2.845   4.687  0.2476  0.7061  1.4467
   92SAPC  C315 8924   0.818   2.920   4.663 -0.5719  0.1010 -0.0117
   92SAPC  H15X 8925   0.859   3.023   4.663  0.9837 -0.4815  1.6613
   92SAPC  H15Y 8926   0.719   2.925   4.714 -0.5876  2.7952 -0.1534
   92SAPC  C316 8927   0.807   2.866   4.512  0.5907  0.0861  0.4661
   92SAPC  H16X 8928   0.772   2.761   4.525 -1.5156  0.4399 -1.6478
   92SAPC  H16Y 8929   0.908   2.867   4.466  1.2776  0.1321  1.9011
   92SAPC  C317 8930   0.721   2.944   4.418  0.5143  0.4225  0.3129
   92SAPC  H17X 8931   0.761   3.047   4.420  1.9745 -0.1297  1.0538
   92SAPC  H17Y 8932   0.619   2.951   4.461  0.9615 -0.6259  1.6275
   92SAPC  C318 8933   0.714   2.892   4.275  0.4836  0.0024  0.3895
   92SAPC  H18X 8934   0.652   2.958   4.211 -1.4386 -1.5579  0.4983
   92SAPC  H18Y 8935   0.670   2.790   4.267  1.3066 -0.1986 -4.1582
   92SAPC  H18Z 8936   0.813   2.888   4.225 -0.4413  0.7808 -1.6091
   93SAPC     N 8937   0.557   5.797   6.361 -0.1848  0.1313 -0.5747
   93SAPC   C12 8938   0.590   5.942   6.414  0.8706  0.1007  0.0113
   93SAPC  H12A 8939   0.649   5.935   6.504 -0.5303 -0.4804  0.9231
   93SAPC  H12B 8940   0.500   5.998   6.434  0.6017 -0.5649  0.7254
   93SAPC   C13 8941   0.474   5.732   6.471  0.4537  1.2185  0.2231
   93SAPC  H13A 8942   0.463   5.625   6.461  3.0599  0.7445  1.6121
   93SAPC  H13B 8943   0.536   5.741   6.559 -0.3660  2.1729  0.7224
   93SAPC  H13C 8944   0.389   5.793   6.497  1.2604  2.5787 -0.2683
   93SAPC   C14 8945   0.473   5.796   6.237 -0.1616  0.4212  0.0998
   93SAPC  H14A 8946   0.525   5.854   6.163 -0.5833 -0.1224 -0.6409
   93SAPC  H14B 8947   0.451   5.696   6.202  0.8594 -0.0308  0.7143
   93SAPC  H14C 8948   0.376   5.843   6.251 -1.6799 -1.7168 -2.2954
   93SAPC   C15 8949   0.674   5.713   6.338 -0.9243 -0.4265 -0.6527
   93SAPC  H15A 8950   0.636   5.640   6.269  0.3657 -1.5957 -0.1780
   93SAPC  H15B 8951   0.754   5.772   6.295  0.7813  1.4234  4.3064
   93SAPC  H15C 8952   0.714   5.660   6.423 -0.2906 -0.5699 -1.0344
   93SAPC   C11 8953   0.668   6.032   6.312 -0.7330  0.2009 -0.3812
   93SAPC  H11A 8954   0.677   6.134   6.353 -0.4583  0.8992 -2.0974
   93SAPC  H11B 8955   0.600   6.054   6.226 -2.5008 -1.2958  0.5534
   93SAPC     P 8956   0.910   5.966   6.375  0.4737 -0.3083  0.6042
   93SAPC   O13 8957   0.871   6.023   6.505  0.6951 -0.1354 -0.1994
   93SAPC   O14 8958   0.952   5.824   6.379  0.2459  0.0138 -0.0489
   93SAPC   O12 8959   0.797   5.981   6.267 -0.3785 -0.3340  0.3860
   93SAPC   O11 8960   1.016   6.054   6.311 -0.4544 -0.4202  0.3752
   93SAPC    C1 8961   0.995   6.189   6.266 -0.4323 -0.4974  0.3897
   93SAPC    HA 8962   0.888   6.214   6.250 -0.1314  0.4277 -0.2941
   93SAPC    HB 8963   1.046   6.258   6.337  0.2056 -0.5493 -0.0107
   93SAPC    C2 8964   1.070   6.200   6.124  0.2773  0.1811 -0.1597
   93SAPC    HS 8965   1.062   6.308   6.098  0.1086  0.0460 -0.6753
   93SAPC   O21 8966   1.009   6.103   6.034  0.2981  0.0203 -0.2866
   93SAPC   C21 8967   0.887   6.134   5.995  0.2988 -0.0520  0.7912
   93SAPC   O22 8968   0.831   6.241   6.010 -0.7038 -0.2975  0.1009
   93SAPC   C22 8969   0.828   6.024   5.908  0.1873 -0.0092 -0.0320
   93SAPC   H2R 8970   0.894   6.017   5.820  0.2404 -1.0755  0.0840
   93SAPC   H2S 8971   0.828   5.936   5.975 -0.9827 -0.8984 -1.1411
   93SAPC    C3 8972   1.221   6.175   6.139  0.4263  0.2803  0.1563
   93SAPC    HX 8973   1.233   6.070   6.172 -2.0962 -0.5934 -1.4036
   93SAPC    HY 8974   1.259   6.238   6.222 -0.7833 -0.4714  1.3130
   93SAPC   O31 8975   1.293   6.181   6.016  0.0109 -0.0488  0.2697
   93SAPC   C31 8976   1.297   6.297   5.955  0.5421 -0.3209  0.2526
   93SAPC   O32 8977   1.256   6.404   5.998  0.5824 -0.7317  0.7651
   93SAPC   C32 8978   1.348   6.274   5.815 -0.4011 -0.3150 -0.2936
   93SAPC   H2X 8979   1.288   6.197   5.762  0.2055 -1.3820  0.5130
   93SAPC   H2Y 8980   1.446   6.223   5.827 -0.6772 -0.4411  1.7168
   93SAPC   C23 8981   0.676   6.051   5.874  0.2007  0.1649  0.1555
   93SAPC   H3R 8982   0.668   6.151   5.828  1.8465  0.5778  0.6735
   93SAPC   H3S 8983   0.605   6.048   5.960 -2.3468  0.7763 -1.8272
   93SAPC   C24 8984   0.637   5.953   5.766  0.0870  0.2474  0.3699
   93SAPC   H4R 8985   0.648   5.853   5.814  1.5091  1.5770  3.0202
   93SAPC   H4S 8986   0.702   5.937   5.677 -1.9805 -2.2561 -0.8402
   93SAPC   C25 8987   0.492   5.982   5.726 -0.8401  0.8368  1.2174
   93SAPC   H5R 8988   0.415   5.960   5.802  0.7270  0.2186  2.6698
   93SAPC   C26 8989   0.453   6.039   5.611  0.0436  0.0079 -0.7780
   93SAPC   H6R 8990   0.345   6.039   5.591  0.1300  1.6939 -1.4554
   93SAPC   C27 8991   0.529   6.102   5.500 -0.9716  0.3937  0.1360
   93SAPC   H7R 8992   0.638   6.105   5.520 -0.3275  0.7182 -2.9532
   93SAPC   H7S 8993   0.502   6.208   5.485 -0.7266  0.0360 -4.2518
   93SAPC   C28 8994   0.513   6.024   5.366  0.9575  0.3952 -0.8479
   93SAPC   H8R 8995   0.563   5.926   5.365 -0.7464 -0.5023 -0.5636
   93SAPC   C29 8996   0.435   6.051   5.256 -0.2926  0.2328 -0.3988
   93SAPC   H9R 8997   0.425   5.967   5.186  0.6004 -1.4627  1.3892
   93SAPC  C210 8998   0.350   6.175   5.243 -0.4765  0.1079 -0.6964
   93SAPC  H10R 8999   0.309   6.200   5.343  0.5363 -0.8485 -0.0269
   93SAPC  H10S 9000   0.258   6.145   5.187 -0.3149 -1.6478 -0.0649
   93SAPC  C211 9001   0.430   6.288   5.185  0.5594  0.4080  0.2754
   93SAPC  H11R 9002   0.473   6.364   5.253 -0.0084 -0.9341  2.2005
   93SAPC  C212 9003   0.433   6.296   5.044  0.1411 -0.0506  0.0682
   93SAPC  H12R 9004   0.500   6.366   4.992 -0.4372 -0.2712 -0.9931
   93SAPC  C213 9005   0.379   6.186   4.957 -0.0679 -0.6511 -0.6565
   93SAPC  H13R 9006   0.274   6.209   4.928 -0.4579  3.3952  2.9628
   93SAPC  H13S 9007   0.379   6.089   5.012 -1.1476 -0.6124 -0.5762
   93SAPC  C214 9008   0.476   6.171   4.839 -0.1116  0.3515 -0.1798
   93SAPC  H14R 9009   0.575   6.215   4.855 -0.0627  1.0836 -2.1888
   93SAPC  C215 9010   0.443   6.123   4.721  1.1264 -0.3121  0.3508
   93SAPC  H15R 9011   0.523   6.119   4.646  0.9244  0.3530  0.0843
   93SAPC  C216 9012   0.308   6.065   4.678  0.0996  0.8628 -0.1367
   93SAPC  H16R 9013   0.248   6.142   4.625  0.9431  0.6076 -1.5084
   93SAPC  H16S 9014   0.249   6.023   4.763 -1.1175  0.7604 -0.9986
   93SAPC  C217 9015   0.327   5.950   4.578  0.0271 -0.0129  0.3252
   93SAPC  H17R 9016   0.383   5.868   4.627 -0.6221 -1.3796 -1.1179
   93SAPC  H17S 9017   0.384   5.986   4.490 -1.1967  0.4507 -0.3049
   93SAPC  C218 9018   0.197   5.885   4.538 -0.2571 -0.8768  0.4699
   93SAPC  H18R 9019   0.133   5.973   4.515  1.6790  0.8792  1.5660
   93SAPC  H18S 9020   0.144   5.830   4.619 -0.4644  0.7137  1.4618
   93SAPC  C219 9021   0.210   5.804   4.403 -0.0378 -0.1387  0.4009
   93SAPC  H19R 9022   0.298   5.838   4.344  0.4166  1.0345  1.7006
   93SAPC  H19S 9023   0.120   5.820   4.339  0.8129  3.4220 -0.1218
   93SAPC  C220 9024   0.228   5.650   4.425  0.0540  0.2793  0.0598
   93SAPC  H20R 9025   0.263   5.605   4.330 -0.3702  0.8655 -0.3780
   93SAPC  H20S 9026   0.130   5.601   4.444  1.2344 -2.3714 -0.2381
   93SAPC  H20T 9027   0.310   5.629   4.497 -0.0625  0.3988  0.2274
   93SAPC   C33 9028   1.354   6.396   5.729 -0.3311 -0.2388 -0.7586
   93SAPC   H3X 9029   1.448   6.451   5.751 -1.0064  0.3938  0.6624
   93SAPC   H3Y 9030   1.269   6.468   5.738 -0.6568 -0.4883 -1.7212
   93SAPC   C34 9031   1.356   6.362   5.576  0.3708  0.4336 -0.0702
   93SAPC   H4X 9032   1.265   6.302   5.554  1.0989  0.2312 -2.8243
   93SAPC   H4Y 9033   1.451   6.306   5.564  1.3513  2.0673 -0.2516
   93SAPC   C35 9034   1.361   6.481   5.481 -0.1988 -0.2062  0.6138
   93SAPC   H5X 9035   1.429   6.563   5.513  0.4288 -0.0423 -1.0334
   93SAPC   H5Y 9036   1.257   6.522   5.477 -0.2446 -0.3348  0.4581
   93SAPC   C36 9037   1.389   6.445   5.335  0.5324  0.2496  0.0153
   93SAPC   H6X 9038   1.382   6.536   5.271 -0.4340  0.7717  0.8490
   93SAPC   H6Y 9039   1.318   6.368   5.299  0.4785 -0.0773  0.8128
   93SAPC   C37 9040   1.526   6.391   5.331 -0.3468  0.5351  0.6507
   93SAPC   H7X 9041   1.526   6.285   5.364  0.3943  0.0037 -0.9518
   93SAPC   H7Y 9042   1.601   6.455   5.382  0.8092 -0.7855  0.6685
   93SAPC   C38 9043   1.570   6.382   5.178  0.1049  0.2920 -0.5780
   93SAPC   H8X 9044   1.593   6.481   5.133 -3.7347  2.0510  0.9213
   93SAPC   H8Y 9045   1.483   6.341   5.123  0.2133  2.2448 -2.3268
   93SAPC   C39 9046   1.681   6.281   5.153 -0.5867  0.3344  1.0062
   93SAPC   H9X 9047   1.658   6.177   5.182  1.2811 -0.2984  0.3661
   93SAPC   H9Y 9048   1.770   6.306   5.215  0.5228  1.4264 -0.9221
   93SAPC  C310 9049   1.727   6.286   5.008 -0.1267 -0.0169  0.2353
   93SAPC  H10X 9050   1.740   6.390   4.972 -0.2280 -0.0280  0.1646
   93SAPC  H10Y 9051   1.641   6.237   4.957 -1.0743  1.0119  0.7984
   93SAPC  C311 9052   1.855   6.199   4.986  0.2365 -0.2947  0.1295
   93SAPC  H11X 9053   1.832   6.106   5.043 -1.2896  0.5746  0.9782
   93SAPC  H11Y 9054   1.947   6.245   5.029 -0.0140 -0.0522  0.4015
   93SAPC  C312 9055   1.869   6.168   4.838 -0.3661 -1.2828  0.0596
   93SAPC  H12X 9056   1.939   6.086   4.814  1.3996 -0.0824  0.9122
   93SAPC  H12Y 9057   1.913   6.265   4.807 -1.8535 -1.2100 -2.0413
   93SAPC  C313 9058   1.742   6.137   4.756 -0.3949  0.2059 -0.6638
   93SAPC  H13X 9059   1.675   6.224   4.738 -0.0810  0.6253  0.1626
   93SAPC  H13Y 9060   1.687   6.059   4.812  0.5192  0.0954  0.0986
   93SAPC  C314 9061   1.772   6.082   4.614 -0.1488 -0.4581 -0.1972
   93SAPC  H14X 9062   1.841   6.151   4.562 -1.3001  0.2847 -0.7936
   93SAPC  H14Y 9063   1.674   6.079   4.560 -0.5483 -0.1761  0.4947
   93SAPC  C315 9064   1.834   5.943   4.623 -0.6710  0.6168 -0.4580
   93SAPC  H15X 9065   1.781   5.882   4.698 -1.9369  0.5433 -1.3961
   93SAPC  H15Y 9066   1.939   5.953   4.661 -0.7196 -1.0574  0.1834
   93SAPC  C316 9067   1.841   5.872   4.483  0.6442 -0.1537 -0.1591
   93SAPC  H16X 9068   1.827   5.954   4.410  0.5116  0.7056  0.8156
   93SAPC  H16Y 9069   1.751   5.807   4.477  2.0489 -2.3732  1.0337
   93SAPC  C317 9070   1.977   5.798   4.448  0.3239 -0.3872  0.4198
   93SAPC  H17X 9071   2.056   5.868   4.483  1.0267 -0.3160 -1.1896
   93SAPC  H17Y 9072   1.970   5.768   4.341 -1.5468 -0.6786  0.5893
   93SAPC  C318 9073   2.002   5.674   4.534  0.4912 -0.1594  0.0738
   93SAPC  H18X 9074   2.071   5.604   4.483  0.2337  1.1763 -2.2418
   93SAPC  H18Y 9075   1.909   5.619   4.560  1.7636 -1.4170  2.2576
   93SAPC  H18Z 9076   2.035   5.720   4.630 -1.3791  0.8476  0.2982
   94SAPC     N 9077   1.180   3.290   6.619 -0.0948 -0.1203  0.0810
   94SAPC   C12 9078   1.304   3.305   6.706  0.6283  0.9276  0.0323
   94SAPC  H12A 9079   1.282   3.334   6.807 -1.9444 -0.1560 -0.1581
   94SAPC  H12B 9080   1.362   3.387   6.666  1.9782  0.7964  1.6171
   94SAPC   C13 9081   1.096   3.417   6.647 -0.2957  0.5892  0.2237
   94SAPC  H13A 9082   1.152   3.510   6.648 -1.7888  1.6065 -1.9548
   94SAPC  H13B 9083   1.017   3.422   6.574 -0.9629 -2.2351  0.6363
   94SAPC  H13C 9084   1.037   3.417   6.738 -0.9597 -1.2933 -0.1646
   94SAPC   C14 9085   1.224   3.283   6.471 -0.0361  0.9336  0.4663
   94SAPC  H14A 9086   1.144   3.307   6.403  0.8474  3.2874  0.1566
   94SAPC  H14B 9087   1.298   3.359   6.449 -1.2948  1.6093 -1.6629
   94SAPC  H14C 9088   1.274   3.189   6.450 -2.9464 -0.4503 -0.7881
   94SAPC   C15 9089   1.101   3.179   6.664  0.2506 -0.4604  0.0206
   94SAPC  H15A 9090   1.006   3.166   6.614  1.2141 -3.4809 -1.2325
   94SAPC  H15B 9091   1.163   3.093   6.644  3.3250  1.9988 -2.1950
   94SAPC  H15C 9092   1.078   3.181   6.770  1.8531 -0.4939  0.4011
   94SAPC   C11 9093   1.396   3.180   6.726 -0.1079  0.5365 -0.0013
   94SAPC  H11A 9094   1.331   3.101   6.771 -0.2642 -0.1264 -1.3501
   94SAPC  H11B 9095   1.476   3.207   6.798 -0.7854  1.7370  0.3254
   94SAPC     P 9096   1.517   2.991   6.582 -0.2032 -0.3072  0.2186
   94SAPC   O13 9097   1.669   3.001   6.595  0.0720  1.1319  0.0450
   94SAPC   O14 9098   1.455   2.903   6.684  0.3120 -0.0514 -0.1248
   94SAPC   O12 9099   1.445   3.134   6.601 -0.2764 -0.2442  0.3693
   94SAPC   O11 9100   1.482   2.943   6.435  0.1101  0.4454 -0.0689
   94SAPC    C1 9101   1.405   2.826   6.421 -0.0948  0.1402 -0.8060
   94SAPC    HA 9102   1.465   2.733   6.409  1.7595  1.3451 -1.4048
   94SAPC    HB 9103   1.328   2.805   6.497  0.4076 -0.8981 -0.5703
   94SAPC    C2 9104   1.342   2.835   6.268  0.3914 -0.1255 -0.4968
   94SAPC    HS 9105   1.285   2.743   6.244  1.8413 -0.8314 -1.3956
   94SAPC   O21 9106   1.448   2.856   6.179 -0.8921 -0.7235 -0.1539
   94SAPC   C21 9107   1.529   2.751   6.145  0.8352  0.3656  0.4852
   94SAPC   O22 9108   1.506   2.638   6.171  0.2691  0.1745 -0.8311
   94SAPC   C22 9109   1.637   2.822   6.056  0.5133  0.1171  0.2130
   94SAPC   H2R 9110   1.597   2.907   5.998  0.3696  1.5190  2.2400
   94SAPC   H2S 9111   1.712   2.878   6.116 -0.6965  0.3503  1.5674
   94SAPC    C3 9112   1.253   2.958   6.261  0.1801 -0.4712 -0.3666
   94SAPC    HX 9113   1.323   3.044   6.265  0.5426 -0.7021 -1.3776
   94SAPC    HY 9114   1.200   2.965   6.358  0.3476  2.4120 -0.4022
   94SAPC   O31 9115   1.157   2.963   6.152 -0.0889  0.1610 -0.3283
   94SAPC   C31 9116   1.085   3.072   6.146 -0.4608  0.0854 -0.3154
   94SAPC   O32 9117   1.096   3.171   6.213 -0.1831  0.0626  0.1736
   94SAPC   C32 9118   0.969   3.053   6.046 -0.5009 -0.3552  0.3203
   94SAPC   H2X 9119   0.874   3.041   6.103 -1.0638 -1.6573 -0.8237
   94SAPC   H2Y 9120   0.991   2.955   5.997  0.1190  0.4236 -1.0032
   94SAPC   C23 9121   1.722   2.744   5.944 -0.3608  0.3070  0.2436
   94SAPC   H3R 9122   1.737   2.641   5.981 -1.6533  0.1508  0.3677
   94SAPC   H3S 9123   1.819   2.796   5.931 -0.2254  0.3508  1.3639
   94SAPC   C24 9124   1.649   2.756   5.807  0.0626 -0.2668  0.0886
   94SAPC   H4R 9125   1.664   2.855   5.758 -1.3404  0.5158  1.1332
   94SAPC   H4S 9126   1.542   2.760   5.840  0.3266  1.1797  0.8602
   94SAPC   C25 9127   1.675   2.640   5.717 -1.0243 -0.7974  1.1489
   94SAPC   H5R 9128   1.618   2.547   5.730 -1.2844 -0.9749 -0.9829
   94SAPC   C26 9129   1.764   2.642   5.616 -0.3320  0.1385 -0.0349
   94SAPC   H6R 9130   1.784   2.548   5.563  3.9222  0.2350  1.0309
   94SAPC   C27 9131   1.848   2.755   5.571  0.6759 -0.1804  0.9381
   94SAPC   H7R 9132   1.932   2.749   5.643  0.2931 -1.8133  1.2946
   94SAPC   H7S 9133   1.791   2.850   5.573  0.6096 -0.2071  0.3569
   94SAPC   C28 9134   1.917   2.750   5.440 -0.0462 -0.5635  0.0232
   94SAPC   H8R 9135   2.023   2.777   5.439  0.0885 -1.0929 -0.8171
   94SAPC   C29 9136   1.876   2.709   5.319  0.1534  0.5105 -0.5722
   94SAPC   H9R 9137   1.950   2.731   5.240  0.8985  0.4342  0.0950
   94SAPC  C210 9138   1.746   2.655   5.273 -0.0802  0.2538 -0.0260
   94SAPC  H10R 9139   1.668   2.713   5.328 -1.8813 -0.2735 -1.8719
   94SAPC  H10S 9140   1.725   2.549   5.295 -1.5472  0.0445 -2.1156
   94SAPC  C211 9141   1.716   2.671   5.128 -0.3773  0.3963  0.8018
   94SAPC  H11R 9142   1.677   2.578   5.086  1.7897 -0.5918  0.8338
   94SAPC  C212 9143   1.706   2.782   5.047  0.2565  0.2752 -0.1751
   94SAPC  H12R 9144   1.675   2.774   4.942 -0.9677  2.3370 -0.0208
   94SAPC  C213 9145   1.725   2.928   5.077  0.4521  0.1602 -0.9620
   94SAPC  H13R 9146   1.700   2.953   5.182 -0.5401  2.7396 -1.7185
   94SAPC  H13S 9147   1.656   2.990   5.015 -0.7188  0.1004  0.2419
   94SAPC  C214 9148   1.865   2.982   5.053 -0.4023 -0.7297  0.3314
   94SAPC  H14R 9149   1.918   2.936   4.968  0.4605  1.6717 -0.4945
   94SAPC  C215 9150   1.929   3.085   5.119 -0.1022  0.5761 -0.5262
   94SAPC  H15R 9151   2.037   3.094   5.100 -0.1441 -1.4318 -2.1050
   94SAPC  C216 9152   1.858   3.171   5.227  0.1157 -1.1603 -0.2398
   94SAPC  H16R 9153   1.753   3.199   5.205 -0.3945 -0.7301  2.4319
   94SAPC  H16S 9154   1.900   3.274   5.224  0.1099 -1.1677 -0.7547
   94SAPC  C217 9155   1.882   3.128   5.368 -0.3612  0.7089 -0.3853
   94SAPC  H17R 9156   1.989   3.135   5.397 -1.0094  2.2504  1.9693
   94SAPC  H17S 9157   1.850   3.022   5.371 -2.7873  1.3675  2.1171
   94SAPC  C218 9158   1.809   3.210   5.477 -0.0584 -0.3426  0.3379
   94SAPC  H18R 9159   1.700   3.200   5.458 -0.4882  0.0953  2.3708
   94SAPC  H18S 9160   1.843   3.314   5.459  3.7017 -1.4080  0.3763
   94SAPC  C219 9161   1.835   3.170   5.615 -0.0688 -0.1746  0.5602
   94SAPC  H19R 9162   1.944   3.169   5.633 -0.3621 -2.2386  2.9506
   94SAPC  H19S 9163   1.797   3.068   5.641 -0.7061 -0.5164 -1.5017
   94SAPC  C220 9164   1.777   3.277   5.716 -0.0424  0.2883 -0.0002
   94SAPC  H20R 9165   1.805   3.377   5.676  0.7446 -0.8252 -2.3940
   94SAPC  H20S 9166   1.825   3.262   5.815  1.2574  0.4470 -0.5835
   94SAPC  H20T 9167   1.667   3.293   5.722  0.0831  1.0629  0.3465
   94SAPC   C33 9168   0.958   3.164   5.937 -0.5681  0.2348 -0.0719
   94SAPC   H3X 9169   1.057   3.178   5.890  0.0693  0.3144  1.2573
   94SAPC   H3Y 9170   0.940   3.258   5.995  2.6476 -1.4996  4.2316
   94SAPC   C34 9171   0.850   3.146   5.831  0.3120 -0.3558 -0.7708
   94SAPC   H4X 9172   0.749   3.179   5.863  0.4356 -0.3663 -0.3692
   94SAPC   H4Y 9173   0.829   3.042   5.800  0.0711 -0.0263 -1.7566
   94SAPC   C35 9174   0.873   3.214   5.694  0.7141 -0.2447  0.5454
   94SAPC   H5X 9175   0.951   3.293   5.706 -0.5669  1.0745  0.5700
   94SAPC   H5Y 9176   0.782   3.263   5.652  0.2743 -1.7327 -0.2893
   94SAPC   C36 9177   0.915   3.108   5.586  0.0428  0.5204 -0.6010
   94SAPC   H6X 9178   0.833   3.041   5.553  1.4274 -0.4950 -2.1517
   94SAPC   H6Y 9179   0.991   3.041   5.634 -0.4302  0.5888  0.2725
   94SAPC   C37 9180   0.991   3.169   5.466  0.3970  0.1105 -0.4232
   94SAPC   H7X 9181   1.076   3.103   5.438  1.7441  1.5677  0.0475
   94SAPC   H7Y 9182   1.049   3.260   5.493 -1.0873  1.1364 -0.5684
   94SAPC   C38 9183   0.901   3.204   5.346  0.5154  0.6984  0.2367
   94SAPC   H8X 9184   0.812   3.258   5.385 -0.7315 -0.7351 -0.4734
   94SAPC   H8Y 9185   0.861   3.105   5.313 -0.4128  1.5269 -1.2340
   94SAPC   C39 9186   0.974   3.266   5.222  0.7118 -0.1622  0.4646
   94SAPC   H9X 9187   1.064   3.200   5.223  1.6273  1.0497  0.1979
   94SAPC   H9Y 9188   1.010   3.370   5.235  0.0609  0.4059 -1.7573
   94SAPC  C310 9189   0.892   3.249   5.096  0.1454 -0.0554 -0.2894
   94SAPC  H10X 9190   0.783   3.263   5.110 -0.1116  0.7541 -2.6833
   94SAPC  H10Y 9191   0.895   3.143   5.062  0.4407 -0.0554 -0.2665
   94SAPC  C311 9192   0.931   3.346   4.983 -0.6348  0.0625 -0.5707
   94SAPC  H11X 9193   1.003   3.294   4.917 -2.4310 -2.6316 -0.5895
   94SAPC  H11Y 9194   0.978   3.433   5.032 -0.3357 -0.1678 -0.4484
   94SAPC  C312 9195   0.806   3.408   4.906  0.0787 -0.0216 -0.4385
   94SAPC  H12X 9196   0.826   3.513   4.876 -0.5647  0.0638 -0.5870
   94SAPC  H12Y 9197   0.723   3.414   4.980  1.9082 -2.7392  2.0732
   94SAPC  C313 9198   0.764   3.319   4.786  0.7329 -0.1588 -0.9633
   94SAPC  H13X 9199   0.706   3.233   4.824  0.6637 -0.0220 -0.7555
   94SAPC  H13Y 9200   0.857   3.297   4.730  2.2111  3.9126 -0.4620
   94SAPC  C314 9201   0.676   3.387   4.687  0.4761 -0.4272 -0.5748
   94SAPC  H14X 9202   0.732   3.475   4.649  0.1937 -0.5325 -1.2347
   94SAPC  H14Y 9203   0.597   3.430   4.752  2.1723 -0.3140  1.5776
   94SAPC  C315 9204   0.622   3.294   4.584 -0.5660  0.3530  1.0988
   94SAPC  H15X 9205   0.557   3.217   4.632  0.2923  0.4288  2.4402
   94SAPC  H15Y 9206   0.709   3.232   4.553  0.1551  0.4874  2.7450
   94SAPC  C316 9207   0.545   3.359   4.462  0.4574  0.0967 -0.0567
   94SAPC  H16X 9208   0.558   3.468   4.472 -1.6303  0.6868 -2.6439
   94SAPC  H16Y 9209   0.435   3.340   4.470  0.4775  0.1993  0.4866
   94SAPC  C317 9210   0.586   3.307   4.324  0.3430  0.1026  0.0831
   94SAPC  H17X 9211   0.570   3.197   4.327  0.5560  0.0900  2.4160
   94SAPC  H17Y 9212   0.691   3.341   4.310 -0.1070  1.0937 -0.9857
   94SAPC  C318 9213   0.498   3.370   4.220 -0.2814 -0.2714  0.0536
   94SAPC  H18X 9214   0.397   3.324   4.220 -0.1203 -0.6743 -1.5509
   94SAPC  H18Y 9215   0.533   3.338   4.120  0.4239  0.5071  0.0415
   94SAPC  H18Z 9216   0.482   3.480   4.220  1.6439  0.0488 -0.3574
   95SAPC     N 9217   3.904   4.763   2.292  0.2535 -0.0631  0.2300
   95SAPC   C12 9218   3.772   4.717   2.345  0.8473  0.3406  0.3809
   95SAPC  H12A 9219   3.790   4.722   2.452  0.7606  0.6255  0.3832
   95SAPC  H12B 9220   3.759   4.616   2.310 -0.1563  0.6634 -0.2225
   95SAPC   C13 9221   4.011   4.667   2.333 -1.2746 -0.4462 -0.0540
   95SAPC  H13A 9222   4.026   4.645   2.438  3.3113 -2.1830 -0.8451
   95SAPC  H13B 9223   3.997   4.565   2.298  2.3438 -1.1503  0.1300
   95SAPC  H13C 9224   4.109   4.702   2.303  0.4420 -2.0667  3.1449
   95SAPC   C14 9225   3.904   4.774   2.136  0.0623  0.0386 -0.0914
   95SAPC  H14A 9226   3.844   4.856   2.099  0.7126  0.5300 -0.0762
   95SAPC  H14B 9227   4.004   4.796   2.103 -0.5376  0.9608 -1.3767
   95SAPC  H14C 9228   3.870   4.678   2.098 -0.3879 -0.0095  0.4236
   95SAPC   C15 9229   3.932   4.899   2.344  0.5647  0.0077  0.3648
   95SAPC  H15A 9230   4.030   4.928   2.307  0.2856  0.0549 -0.3491
   95SAPC  H15B 9231   3.869   4.976   2.301  1.0565 -0.8765 -2.1189
   95SAPC  H15C 9232   3.935   4.906   2.451  0.6503 -1.0444  0.4360
   95SAPC   C11 9233   3.646   4.801   2.315 -0.1853  0.3192 -0.4354
   95SAPC  H11A 9234   3.659   4.907   2.344 -2.3851 -0.0113  2.1839
   95SAPC  H11B 9235   3.566   4.759   2.380 -0.2342  1.1636  0.0640
   95SAPC     P 9236   3.506   4.881   2.121  0.1557  0.3270  0.3699
   95SAPC   O13 9237   3.577   5.003   2.082 -0.1782 -0.5795 -0.5879
   95SAPC   O14 9238   3.426   4.802   2.016 -0.1492 -0.5556 -0.4156
   95SAPC   O12 9239   3.609   4.778   2.178 -0.3051 -0.1570 -0.3501
   95SAPC   O11 9240   3.418   4.900   2.245 -0.5722 -0.2150 -0.1592
   95SAPC    C1 9241   3.356   5.019   2.280 -0.4193 -0.0666  0.2459
   95SAPC    HA 9242   3.373   5.095   2.200  0.2166 -1.3900 -0.9101
   95SAPC    HB 9243   3.250   5.006   2.310 -0.5172 -0.2514 -0.1736
   95SAPC    C2 9244   3.411   5.097   2.401  0.1845 -0.2996 -0.5767
   95SAPC    HS 9245   3.521   5.097   2.386  0.4479 -0.1265  1.1959
   95SAPC   O21 9246   3.376   5.032   2.526  0.0508 -0.4398 -0.5295
   95SAPC   C21 9247   3.474   4.971   2.594 -0.5220  0.4088  0.4208
   95SAPC   O22 9248   3.595   4.976   2.574  0.0734 -0.7175  0.0945
   95SAPC   C22 9249   3.407   4.876   2.696 -0.3540  0.7581 -0.0154
   95SAPC   H2R 9250   3.317   4.923   2.740 -0.4422 -0.1854  0.8445
   95SAPC   H2S 9251   3.365   4.795   2.633  0.4485  0.4486 -0.1703
   95SAPC    C3 9252   3.355   5.246   2.411  0.1762  0.6492 -0.8588
   95SAPC    HX 9253   3.248   5.246   2.385 -0.0735 -0.3710  0.0904
   95SAPC    HY 9254   3.408   5.300   2.330 -0.7158 -0.9326 -2.5581
   95SAPC   O31 9255   3.381   5.311   2.544  0.1342  0.0083  0.1080
   95SAPC   C31 9256   3.506   5.345   2.553  0.8527  1.2428  0.4800
   95SAPC   O32 9257   3.590   5.332   2.465 -0.1049  0.5908 -0.7095
   95SAPC   C32 9258   3.540   5.426   2.680  0.3669 -0.3733  0.0842
   95SAPC   H2X 9259   3.442   5.452   2.725  0.2560 -1.7052  0.6525
   95SAPC   H2Y 9260   3.588   5.522   2.652 -1.7539  0.9870  0.8401
   95SAPC   C23 9261   3.500   4.825   2.807 -0.0782 -0.3841 -0.5481
   95SAPC   H3R 9262   3.598   4.794   2.765  0.5949  2.0753 -0.9191
   95SAPC   H3S 9263   3.449   4.736   2.849  1.0985 -1.7533 -1.8969
   95SAPC   C24 9264   3.535   4.922   2.926  0.0132  0.4005 -0.5363
   95SAPC   H4R 9265   3.565   5.020   2.884  1.4650 -0.4410 -1.5303
   95SAPC   H4S 9266   3.611   4.869   2.988  0.4116  2.3884  0.7820
   95SAPC   C25 9267   3.423   4.938   3.031  0.5733  0.6513 -0.2650
   95SAPC   H5R 9268   3.322   4.901   3.010 -0.1250  1.5219  1.4066
   95SAPC   C26 9269   3.445   5.005   3.147  0.4727  0.6056  0.5023
   95SAPC   H6R 9270   3.349   5.027   3.194 -1.2616 -0.9401 -2.0591
   95SAPC   C27 9271   3.566   5.062   3.215 -0.3580  0.6717  0.3138
   95SAPC   H7R 9272   3.562   5.171   3.197 -0.6489  0.3636 -1.6722
   95SAPC   H7S 9273   3.657   5.012   3.176  0.8420  2.6295  0.4804
   95SAPC   C28 9274   3.543   5.028   3.361  0.3015  0.0930 -0.8855
   95SAPC   H8R 9275   3.507   4.928   3.389  2.1867 -0.7164 -1.2343
   95SAPC   C29 9276   3.561   5.118   3.462 -0.2315 -0.3193 -1.0041
   95SAPC   H9R 9277   3.549   5.084   3.566  1.8792 -0.3727 -0.7302
   95SAPC  C210 9278   3.608   5.260   3.458  0.6266  0.1259 -0.0690
   95SAPC  H10R 9279   3.613   5.297   3.353  1.0344  0.4204  0.0510
   95SAPC  H10S 9280   3.711   5.273   3.497  0.4322  0.6285  0.2778
   95SAPC  C211 9281   3.517   5.346   3.537  0.1041 -0.0196 -0.1903
   95SAPC  H11R 9282   3.415   5.369   3.504  0.3606  0.1048 -0.9157
   95SAPC  C212 9283   3.545   5.436   3.635  0.3103  0.3244 -0.0604
   95SAPC  H12R 9284   3.464   5.495   3.679 -0.0367 -0.5565  0.5106
   95SAPC  C213 9285   3.681   5.465   3.696  0.0870 -1.0053 -0.1587
   95SAPC  H13R 9286   3.768   5.425   3.639 -0.3581 -0.8949 -0.9371
   95SAPC  H13S 9287   3.685   5.426   3.800  0.3890  0.3633  0.3699
   95SAPC  C214 9288   3.698   5.617   3.709 -0.8642 -0.0210 -0.2905
   95SAPC  H14R 9289   3.758   5.673   3.635  0.5675 -1.6151 -0.3839
   95SAPC  C215 9290   3.649   5.691   3.811 -0.0549 -0.1223 -1.0633
   95SAPC  H15R 9291   3.657   5.800   3.796  1.8777 -0.0237  0.3853
   95SAPC  C216 9292   3.568   5.647   3.926 -0.0616  1.0010 -0.4877
   95SAPC  H16R 9293   3.532   5.543   3.919  3.1665 -0.2842  0.0806
   95SAPC  H16S 9294   3.485   5.720   3.937  1.5255  2.9859 -1.1092
   95SAPC  C217 9295   3.665   5.660   4.051  0.8233  0.1044  0.6098
   95SAPC  H17R 9296   3.762   5.609   4.038  0.5859 -0.0071 -0.9310
   95SAPC  H17S 9297   3.616   5.599   4.130  0.8784  1.7391  1.9444
   95SAPC  C218 9298   3.696   5.795   4.104  0.0788  0.0307 -0.6969
   95SAPC  H18R 9299   3.605   5.858   4.094  0.7564  0.8638 -1.9924
   95SAPC  H18S 9300   3.775   5.845   4.043 -0.6420  1.9073 -0.1799
   95SAPC  C219 9301   3.735   5.785   4.258 -0.2806 -0.4669  0.3791
   95SAPC  H19R 9302   3.789   5.879   4.283 -0.4433  0.0611 -1.1865
   95SAPC  H19S 9303   3.799   5.695   4.271 -0.8805 -1.1365 -1.1083
   95SAPC  C220 9304   3.623   5.768   4.354  0.3491 -0.4691  0.3724
   95SAPC  H20R 9305   3.589   5.871   4.379  0.6950 -0.2550 -0.0353
   95SAPC  H20S 9306   3.649   5.732   4.456 -1.8714 -1.1811  0.7543
   95SAPC  H20T 9307   3.548   5.699   4.309 -1.5372  0.7809  1.4465
   95SAPC   C33 9308   3.638   5.348   2.772 -0.2363 -0.2741 -0.3473
   95SAPC   H3X 9309   3.727   5.316   2.715  2.0677  2.0515  1.6768
   95SAPC   H3Y 9310   3.589   5.256   2.812  3.8535 -2.5746 -0.0729
   95SAPC   C34 9311   3.678   5.435   2.897 -0.1232 -0.0224  0.0335
   95SAPC   H4X 9312   3.589   5.473   2.952 -0.9691 -1.3627 -0.3697
   95SAPC   H4Y 9313   3.725   5.526   2.853 -1.1315  2.1516  3.0517
   95SAPC   C35 9314   3.781   5.363   2.987 -0.7582 -0.2343  0.2378
   95SAPC   H5X 9315   3.857   5.317   2.921 -1.1021 -1.4961  0.6823
   95SAPC   H5Y 9316   3.724   5.277   3.030 -0.9915 -0.7877 -1.1271
   95SAPC   C36 9317   3.833   5.448   3.099  0.3458 -0.7088  0.6194
   95SAPC   H6X 9318   3.753   5.498   3.157 -2.3308 -1.5512 -2.1093
   95SAPC   H6Y 9319   3.910   5.517   3.058  0.2414 -0.7314  0.3815
   95SAPC   C37 9320   3.899   5.360   3.205 -0.2912  0.3705  0.2578
   95SAPC   H7X 9321   3.963   5.284   3.156  1.0389  0.4220  1.8361
   95SAPC   H7Y 9322   3.812   5.298   3.235 -0.6759  0.5954 -0.3644
   95SAPC   C38 9323   3.966   5.439   3.323 -0.4027  0.6291  0.1902
   95SAPC   H8X 9324   3.892   5.513   3.360 -0.5459 -0.5989  2.5306
   95SAPC   H8Y 9325   4.052   5.485   3.270 -0.7930 -0.0085 -1.0408
   95SAPC   C39 9326   4.008   5.346   3.433 -0.7762 -0.3542  0.3093
   95SAPC   H9X 9327   4.070   5.265   3.389  0.2629  0.4244  0.3037
   95SAPC   H9Y 9328   3.907   5.316   3.469 -1.1517  0.3050 -0.1626
   95SAPC  C310 9329   4.088   5.423   3.547  0.1563  0.1698  0.1205
   95SAPC  H10X 9330   4.010   5.459   3.618  0.2182 -1.7352  1.2535
   95SAPC  H10Y 9331   4.124   5.515   3.498 -1.8563 -0.3926 -2.6497
   95SAPC  C311 9332   4.182   5.327   3.627  0.0553 -1.0109  1.3635
   95SAPC  H11X 9333   4.251   5.273   3.559 -0.9289 -0.6774  0.0728
   95SAPC  H11Y 9334   4.121   5.248   3.676  0.2152 -1.7595  0.3944
   95SAPC  C312 9335   4.266   5.407   3.727 -0.1157 -0.0511 -0.5909
   95SAPC  H12X 9336   4.190   5.458   3.789  0.3095  0.7270 -0.7013
   95SAPC  H12Y 9337   4.333   5.474   3.668 -0.4280  0.0891 -0.7878
   95SAPC  C313 9338   4.361   5.315   3.812 -0.0314 -0.4134 -0.1842
   95SAPC  H13X 9339   4.451   5.293   3.752 -1.1390  1.6378 -2.8255
   95SAPC  H13Y 9340   4.312   5.220   3.842  0.6102 -0.5957  0.2914
   95SAPC  C314 9341   4.405   5.389   3.940 -0.1677 -0.6358  0.1029
   95SAPC  H14X 9342   4.322   5.376   4.013 -1.4522 -0.2852 -1.2507
   95SAPC  H14Y 9343   4.408   5.497   3.914  0.2783 -0.8680 -0.8591
   95SAPC  C315 9344   4.533   5.329   4.006 -0.3371  0.7561  0.9671
   95SAPC  H15X 9345   4.621   5.349   3.940  0.7382 -1.9789  1.4403
   95SAPC  H15Y 9346   4.515   5.219   4.002  1.0042  0.4909  1.5569
   95SAPC  C316 9347   4.542   5.369   4.152  1.1778  0.6052  0.2659
   95SAPC  H16X 9348   4.443   5.348   4.197  1.9358 -1.7581  1.0065
   95SAPC  H16Y 9349   4.574   5.475   4.159  2.4476  0.4363 -1.8491
   95SAPC  C317 9350   4.643   5.287   4.235 -0.4041  0.1710 -0.4730
   95SAPC  H17X 9351   4.641   5.176   4.232 -0.6570  0.1906 -1.1900
   95SAPC  H17Y 9352   4.618   5.317   4.339 -0.3525 -1.4739  0.0277
   95SAPC  C318 9353   4.791   5.329   4.200  0.0693  0.8395 -0.6755
   95SAPC  H18X 9354   4.856   5.295   4.282  2.3602  0.7025 -2.4505
   95SAPC  H18Y 9355   4.796   5.440   4.201 -0.6372  0.8790 -0.3356
   95SAPC  H18Z 9356   4.832   5.279   4.110  1.4627  0.4393  0.1504
   96SAPC     N 9357   2.475   2.333   1.848  0.5059  0.4641  0.2704
   96SAPC   C12 9358   2.589   2.431   1.859 -0.2315  0.4717  1.0534
   96SAPC  H12A 9359   2.612   2.444   1.964 -0.2262  1.0605  0.9817
   96SAPC  H12B 9360   2.545   2.526   1.832 -0.4223  0.5461  1.6040
   96SAPC   C13 9361   2.497   2.190   1.893 -0.6649  0.1237 -0.2494
   96SAPC  H13A 9362   2.426   2.120   1.851 -1.0126 -0.4646  1.2495
   96SAPC  H13B 9363   2.599   2.161   1.875  0.4660  0.8947  3.8855
   96SAPC  H13C 9364   2.498   2.185   2.001 -0.2084  1.4229 -0.1704
   96SAPC   C14 9365   2.357   2.372   1.937  0.1863  0.4917  0.0995
   96SAPC  H14A 9366   2.315   2.467   1.906 -1.6128  0.6908  2.7444
   96SAPC  H14B 9367   2.285   2.292   1.945 -0.8987  1.5900  2.2849
   96SAPC  H14C 9368   2.387   2.376   2.041 -2.3753  0.5781  0.9061
   96SAPC   C15 9369   2.423   2.341   1.712 -0.0031  0.3742  0.0261
   96SAPC  H15A 9370   2.435   2.443   1.679  0.8444  0.7357  1.3878
   96SAPC  H15B 9371   2.490   2.291   1.644  1.4915  3.2028 -0.7323
   96SAPC  H15C 9372   2.319   2.313   1.708  0.0751 -0.0392  0.7133
   96SAPC   C11 9373   2.720   2.395   1.784  1.0266 -0.3660  0.8620
   96SAPC  H11A 9374   2.781   2.488   1.786 -1.0852  1.1251 -0.1340
   96SAPC  H11B 9375   2.676   2.390   1.682 -2.2005  4.5539  1.6468
   96SAPC     P 9376   2.841   2.274   1.984 -0.1036  0.2880 -0.0350
   96SAPC   O13 9377   2.865   2.138   2.025 -0.4168  0.3533  0.4048
   96SAPC   O14 9378   2.961   2.355   1.958 -0.6190 -0.3027 -0.3785
   96SAPC   O12 9379   2.778   2.278   1.838 -0.0208  0.2533  0.0085
   96SAPC   O11 9380   2.743   2.348   2.086 -0.5871 -0.8813 -0.0416
   96SAPC    C1 9381   2.796   2.458   2.165 -0.3587 -0.5670 -0.2954
   96SAPC    HA 9382   2.829   2.546   2.106 -0.6976  0.1066  0.5076
   96SAPC    HB 9383   2.706   2.488   2.223 -0.0043 -0.5206  0.2425
   96SAPC    C2 9384   2.897   2.408   2.267 -0.2152  0.6433 -0.0665
   96SAPC    HS 9385   2.999   2.391   2.227 -0.2317 -0.4280  0.3229
   96SAPC   O21 9386   2.855   2.280   2.324 -0.0167  0.3728  0.0627
   96SAPC   C21 9387   2.949   2.189   2.351 -0.3268 -1.4965  0.1293
   96SAPC   O22 9388   3.069   2.213   2.342 -0.1580  0.5710  0.1677
   96SAPC   C22 9389   2.875   2.060   2.390 -0.5208 -0.1837 -0.9797
   96SAPC   H2R 9390   2.785   2.099   2.443  0.7570  0.5233  0.7719
   96SAPC   H2S 9391   2.849   2.006   2.297 -0.7291 -0.6709 -0.6430
   96SAPC    C3 9392   2.924   2.507   2.378  0.4797 -0.0849  0.1171
   96SAPC    HX 9393   2.829   2.503   2.435  1.6623 -1.0506  2.1380
   96SAPC    HY 9394   2.935   2.613   2.345 -1.3547 -0.7742 -3.1452
   96SAPC   O31 9395   3.047   2.472   2.455  0.3467  0.3325 -0.8513
   96SAPC   C31 9396   3.023   2.412   2.570  0.7457 -0.0129  0.8847
   96SAPC   O32 9397   2.917   2.378   2.618 -0.3609  0.4146  0.2424
   96SAPC   C32 9398   3.162   2.376   2.619  0.9331 -0.3042  0.3492
   96SAPC   H2X 9399   3.226   2.466   2.602 -0.4507  0.5520 -0.4423
   96SAPC   H2Y 9400   3.197   2.283   2.570 -1.8538 -1.6328  0.7358
   96SAPC   C23 9401   2.961   1.962   2.477 -0.1415  0.2252 -0.0071
   96SAPC   H3R 9402   3.051   1.929   2.421  0.6809  1.6954  0.3806
   96SAPC   H3S 9403   2.907   1.870   2.507  1.4146 -0.3310  1.1876
   96SAPC   C24 9404   3.012   2.023   2.607 -0.4289  0.2831  0.2929
   96SAPC   H4R 9405   3.080   2.109   2.594  0.0964  0.2825  2.7209
   96SAPC   H4S 9406   3.069   1.944   2.659 -2.1370 -0.1774  1.5606
   96SAPC   C25 9407   2.898   2.064   2.690  0.1970 -0.1989 -0.7429
   96SAPC   H5R 9408   2.821   2.132   2.650  0.0699 -1.4994 -2.7944
   96SAPC   C26 9409   2.894   2.030   2.821  0.9317 -0.1447  0.1394
   96SAPC   H6R 9410   2.824   2.073   2.893  2.3161  0.9754  0.8555
   96SAPC   C27 9411   2.984   1.933   2.899 -0.3832 -0.8165  0.0811
   96SAPC   H7R 9412   3.018   1.851   2.833 -1.8731 -0.1832 -1.5476
   96SAPC   H7S 9413   2.920   1.882   2.975 -2.0576  0.2118 -0.5647
   96SAPC   C28 9414   3.104   1.987   2.978  0.5019 -0.7356  0.2747
   96SAPC   H8R 9415   3.199   1.987   2.922 -0.3518 -2.1994 -1.2927
   96SAPC   C29 9416   3.109   2.026   3.111 -0.2100 -0.4810  0.3531
   96SAPC   H9R 9417   3.204   2.053   3.159 -0.8240  0.6922  0.9371
   96SAPC  C210 9418   2.991   2.024   3.203 -0.4700 -0.3324 -0.4496
   96SAPC  H10R 9419   3.004   1.941   3.276  0.8681  1.4546  1.4660
   96SAPC  H10S 9420   2.896   1.995   3.153 -0.1490 -1.1846 -0.5952
   96SAPC  C211 9421   2.954   2.153   3.282  0.6152 -0.6589 -0.2834
   96SAPC  H11R 9422   2.897   2.233   3.234 -0.4165 -0.0152  1.8890
   96SAPC  C212 9423   2.999   2.166   3.410  0.0212  0.1219 -0.0908
   96SAPC  H12R 9424   2.978   2.258   3.466 -0.6583 -0.0986  0.0299
   96SAPC  C213 9425   3.065   2.063   3.504 -0.3206  0.1940 -0.0741
   96SAPC  H13R 9426   3.049   1.956   3.478 -1.9744 -0.0745  1.7766
   96SAPC  H13S 9427   3.013   2.078   3.601  0.2686 -0.1937  0.3091
   96SAPC  C214 9428   3.211   2.101   3.529  0.1926  0.1871  0.1317
   96SAPC  H14R 9429   3.285   2.060   3.459 -0.7263  1.6785 -1.8227
   96SAPC  C215 9430   3.270   2.157   3.641 -0.1554 -0.1858  0.2497
   96SAPC  H15R 9431   3.376   2.181   3.629 -0.5986  1.8458  0.1598
   96SAPC  C216 9432   3.209   2.209   3.762 -0.0932 -0.1357 -0.4318
   96SAPC  H16R 9433   3.282   2.197   3.845 -0.5192 -0.3378 -0.0770
   96SAPC  H16S 9434   3.118   2.148   3.782 -0.1818 -0.4721 -1.7752
   96SAPC  C217 9435   3.166   2.354   3.770 -0.0444  0.4018 -0.0938
   96SAPC  H17R 9436   3.084   2.375   3.698 -0.6730 -1.1354  0.1319
   96SAPC  H17S 9437   3.242   2.425   3.732  1.0882 -0.2024  0.9828
   96SAPC  C218 9438   3.117   2.398   3.911 -0.0504  0.1070 -0.4064
   96SAPC  H18R 9439   3.202   2.392   3.982 -1.1204 -0.4277  0.8876
   96SAPC  H18S 9440   3.041   2.321   3.940  0.7568  0.3463  2.7188
   96SAPC  C219 9441   3.077   2.544   3.924  0.3334 -0.1730 -0.5845
   96SAPC  H19R 9442   3.016   2.579   3.838  1.8033  0.7058 -1.3114
   96SAPC  H19S 9443   3.167   2.609   3.911  0.7205 -1.1553 -3.6615
   96SAPC  C220 9444   3.002   2.572   4.057  0.0733  0.0686 -0.1527
   96SAPC  H20R 9445   2.946   2.667   4.052 -1.7333 -0.5076  4.3660
   96SAPC  H20S 9446   3.078   2.562   4.138  0.9898 -1.9645 -1.1677
   96SAPC  H20T 9447   2.930   2.487   4.065 -0.8218  0.9382  1.3478
   96SAPC   C33 9448   3.165   2.338   2.768 -0.4177 -0.3401  0.0351
   96SAPC   H3X 9449   3.262   2.287   2.787  0.1103  0.8302  0.6114
   96SAPC   H3Y 9450   3.085   2.266   2.794 -1.0679  0.5862  0.6577
   96SAPC   C34 9451   3.173   2.461   2.859  0.7367  0.3785  0.0491
   96SAPC   H4X 9452   3.084   2.521   2.830  1.4722  1.1167 -0.7453
   96SAPC   H4Y 9453   3.272   2.509   2.843  0.3106  1.9374  1.7454
   96SAPC   C35 9454   3.166   2.422   3.012  0.1925 -0.5540  0.2724
   96SAPC   H5X 9455   3.236   2.336   3.016  0.0290 -0.7817 -1.2805
   96SAPC   H5Y 9456   3.070   2.372   3.039  0.3439 -0.5456  0.8323
   96SAPC   C36 9457   3.199   2.543   3.096  0.5503  0.3869  0.1067
   96SAPC   H6X 9458   3.115   2.614   3.106  0.2175  0.4628 -2.4382
   96SAPC   H6Y 9459   3.275   2.603   3.042 -1.0202  0.3101 -2.3550
   96SAPC   C37 9460   3.238   2.493   3.235 -0.2966 -0.3348 -0.0512
   96SAPC   H7X 9461   3.318   2.416   3.236  0.1503  0.1110  1.6303
   96SAPC   H7Y 9462   3.157   2.433   3.280 -1.2606  0.0412 -1.2154
   96SAPC   C38 9463   3.290   2.612   3.316  0.4438  0.3147  0.0309
   96SAPC   H8X 9464   3.219   2.693   3.290  4.1612  2.7707 -3.7380
   96SAPC   H8Y 9465   3.390   2.648   3.285 -0.9258  2.0936 -2.7893
   96SAPC   C39 9466   3.294   2.587   3.465 -0.0964  0.1477  0.3041
   96SAPC   H9X 9467   3.371   2.508   3.474 -0.5058 -0.5738 -1.7953
   96SAPC   H9Y 9468   3.195   2.554   3.502 -0.1284 -0.5215 -0.3506
   96SAPC  C310 9469   3.336   2.710   3.538  0.2565  0.1615 -0.2981
   96SAPC  H10X 9470   3.251   2.782   3.540  0.2683  0.2507  2.7495
   96SAPC  H10Y 9471   3.420   2.759   3.484  0.2413  2.1197  1.3366
   96SAPC  C311 9472   3.383   2.679   3.677 -0.2107  0.4526 -0.0101
   96SAPC  H11X 9473   3.475   2.618   3.661 -0.1850  0.8360 -1.5306
   96SAPC  H11Y 9474   3.307   2.613   3.725 -0.4004 -0.3651 -1.3694
   96SAPC  C312 9475   3.411   2.801   3.762 -0.0608 -0.0477  0.1939
   96SAPC  H12X 9476   3.336   2.883   3.757  0.8116  0.8958  1.6546
   96SAPC  H12Y 9477   3.498   2.846   3.709 -0.1014 -1.2882 -0.9845
   96SAPC  C313 9478   3.454   2.781   3.904 -0.1682 -0.3452  0.2022
   96SAPC  H13X 9479   3.550   2.729   3.886  0.1815  0.2587  0.2897
   96SAPC  H13Y 9480   3.392   2.700   3.948 -0.8573  0.1526  0.1645
   96SAPC  C314 9481   3.460   2.901   3.998 -0.0943  0.1304  0.5855
   96SAPC  H14X 9482   3.366   2.954   4.022 -0.6414 -1.0676  1.1986
   96SAPC  H14Y 9483   3.511   2.987   3.950 -2.0169  2.4189  2.3998
   96SAPC  C315 9484   3.542   2.855   4.116  0.3529 -0.1871 -0.1923
   96SAPC  H15X 9485   3.643   2.826   4.081  0.4558 -0.1659  0.0926
   96SAPC  H15Y 9486   3.496   2.766   4.164 -0.5729  0.7412  0.6992
   96SAPC  C316 9487   3.557   2.957   4.227 -1.1396  0.2168 -0.0457
   96SAPC  H16X 9488   3.574   3.056   4.180 -0.8497 -0.3676 -1.1993
   96SAPC  H16Y 9489   3.648   2.930   4.285 -1.3335 -0.0818  0.1264
   96SAPC  C317 9490   3.444   2.957   4.325  0.2055  0.5164 -0.2965
   96SAPC  H17X 9491   3.422   2.860   4.374 -0.1068  0.2047 -1.0329
   96SAPC  H17Y 9492   3.352   2.987   4.270 -1.3740  1.4464  2.6781
   96SAPC  C318 9493   3.455   3.067   4.438 -0.0223  0.1758  0.1929
   96SAPC  H18X 9494   3.456   3.164   4.383  1.1374  0.5912  0.9209
   96SAPC  H18Y 9495   3.547   3.075   4.500  0.4049 -0.0699 -0.3908
   96SAPC  H18Z 9496   3.368   3.067   4.506  1.8371  0.2948  2.7227
   97SAPC     N 9497   3.715   5.648   2.075  0.0385  0.1861  0.1662
   97SAPC   C12 9498   3.653   5.591   2.209  0.8478  0.6857 -0.1951
   97SAPC  H12A 9499   3.601   5.499   2.186 -1.2451  1.6639  0.3932
   97SAPC  H12B 9500   3.582   5.659   2.253  1.3974  0.8991  0.3798
   97SAPC   C13 9501   3.617   5.664   1.966  0.5391  0.2019  0.1204
   97SAPC  H13A 9502   3.523   5.708   1.997  0.0941  0.3100 -1.3204
   97SAPC  H13B 9503   3.644   5.724   1.880 -3.3977  1.3580 -0.5447
   97SAPC  H13C 9504   3.595   5.564   1.932  1.1350 -0.3500  1.3318
   97SAPC   C14 9505   3.777   5.784   2.087 -0.0454  0.0758  0.1237
   97SAPC  H14A 9506   3.847   5.785   2.170 -1.5421  0.0367  1.4532
   97SAPC  H14B 9507   3.834   5.823   2.005 -1.4130  0.3327 -0.7342
   97SAPC  H14C 9508   3.703   5.862   2.091 -0.3141 -0.1542 -0.2974
   97SAPC   C15 9509   3.824   5.555   2.037 -0.2787 -0.3017  0.1630
   97SAPC  H15A 9510   3.894   5.544   2.118  1.2185  0.3115 -1.0121
   97SAPC  H15B 9511   3.800   5.449   2.033 -0.1728 -0.2992 -0.9247
   97SAPC  H15C 9512   3.869   5.583   1.943 -1.9623  1.2628 -0.2513
   97SAPC   C11 9513   3.746   5.563   2.328 -0.2309 -0.8598 -0.5252
   97SAPC  H11A 9514   3.814   5.482   2.297  0.0044 -1.6673  1.8561
   97SAPC  H11B 9515   3.691   5.522   2.416  2.4360 -0.2655  1.5416
   97SAPC     P 9516   3.742   5.800   2.447  0.0578 -0.0731  0.0858
   97SAPC   O13 9517   3.828   5.922   2.431  0.1250  0.2388  0.2933
   97SAPC   O14 9518   3.608   5.819   2.392 -0.1326  0.0584 -0.5290
   97SAPC   O12 9519   3.819   5.689   2.366  0.4962 -0.1545  0.3357
   97SAPC   O11 9520   3.739   5.756   2.591  0.3385 -0.5459 -0.1140
   97SAPC    C1 9521   3.861   5.717   2.655 -0.3755 -0.3227  0.2610
   97SAPC    HA 9522   3.873   5.608   2.671  0.3610 -0.1643  0.8789
   97SAPC    HB 9523   3.950   5.754   2.600  0.3460 -1.5752  0.5634
   97SAPC    C2 9524   3.862   5.787   2.793 -0.6231 -0.1805 -0.0684
   97SAPC    HS 9525   3.782   5.740   2.855 -0.5866  1.6554  1.4666
   97SAPC   O21 9526   3.838   5.920   2.768 -0.4598 -0.2958 -0.0409
   97SAPC   C21 9527   3.723   5.980   2.819  0.4273  0.2251 -0.2883
   97SAPC   O22 9528   3.638   5.915   2.874  0.0382 -0.2501 -0.1098
   97SAPC   C22 9529   3.723   6.135   2.804  0.3293  0.1438  0.5426
   97SAPC   H2R 9530   3.672   6.163   2.710  2.0960 -1.0037 -0.8204
   97SAPC   H2S 9531   3.666   6.171   2.892 -0.3736 -0.9962  0.5817
   97SAPC    C3 9532   4.000   5.776   2.864 -0.4150 -0.6664  0.7517
   97SAPC    HX 9533   4.067   5.854   2.822  1.0573 -1.6321  1.2372
   97SAPC    HY 9534   4.040   5.674   2.845  0.5534 -0.1418 -0.1497
   97SAPC   O31 9535   3.987   5.797   3.001 -0.3838  0.6623 -0.1675
   97SAPC   C31 9536   4.092   5.817   3.079  1.0474 -0.1639 -0.2981
   97SAPC   O32 9537   4.207   5.835   3.047 -0.4065  0.1561  0.4014
   97SAPC   C32 9538   4.042   5.809   3.231 -0.3297 -0.5641 -0.6266
   97SAPC   H2X 9539   4.016   5.705   3.260 -2.3049 -0.0209 -0.2852
   97SAPC   H2Y 9540   3.940   5.852   3.241 -1.3661 -2.8695 -0.5522
   97SAPC   C23 9541   3.860   6.194   2.804  0.2305  0.8535  0.1801
   97SAPC   H3R 9542   3.921   6.150   2.722  2.0828  2.9731  0.3320
   97SAPC   H3S 9543   3.907   6.176   2.903  0.1515 -3.0083 -0.3092
   97SAPC   C24 9544   3.871   6.348   2.786 -0.1312 -0.4051 -0.0522
   97SAPC   H4R 9545   3.791   6.401   2.842  0.3880 -0.6365  0.9364
   97SAPC   H4S 9546   3.853   6.358   2.677  1.1436 -1.4241 -0.3813
   97SAPC   C25 9547   4.008   6.404   2.805 -0.1552 -0.0430 -0.6738
   97SAPC   H5R 9548   4.064   6.412   2.711 -0.1449 -0.1187 -0.6744
   97SAPC   C26 9549   4.069   6.421   2.928 -0.8459  0.0639  0.1849
   97SAPC   H6R 9550   4.172   6.461   2.934 -0.6020  0.1688 -2.9636
   97SAPC   C27 9551   4.009   6.393   3.066 -0.4357  0.5148 -1.0127
   97SAPC   H7R 9552   3.900   6.371   3.067 -0.7212  1.8363 -1.0336
   97SAPC   H7S 9553   4.016   6.475   3.141  3.2021 -0.7716  0.2718
   97SAPC   C28 9554   4.074   6.266   3.111  0.1408  0.5887 -0.2330
   97SAPC   H8R 9555   4.083   6.183   3.039 -0.1108 -0.5955  1.0466
   97SAPC   C29 9556   4.108   6.231   3.235  0.5285 -0.5804 -0.1117
   97SAPC   H9R 9557   4.157   6.135   3.257  2.0467 -0.2982 -1.9457
   97SAPC  C210 9558   4.084   6.315   3.356  0.1571  0.4873  0.8746
   97SAPC  H10R 9559   4.096   6.422   3.326 -0.8263  0.6182  0.8955
   97SAPC  H10S 9560   4.158   6.295   3.437 -0.0006 -1.5388  0.5614
   97SAPC  C211 9561   3.942   6.283   3.397 -0.7332 -0.0190  0.4140
   97SAPC  H11R 9562   3.865   6.312   3.324 -0.8685 -0.4960  0.3639
   97SAPC  C212 9563   3.899   6.249   3.517  0.1148  0.5695 -0.9419
   97SAPC  H12R 9564   3.790   6.238   3.526  0.1455  0.8609 -0.0445
   97SAPC  C213 9565   3.966   6.242   3.658  0.4861 -0.2081  0.2513
   97SAPC  H13R 9566   4.000   6.347   3.668 -0.8197  0.5739 -2.4584
   97SAPC  H13S 9567   4.046   6.165   3.658  0.6445 -0.0488 -0.3070
   97SAPC  C214 9568   3.868   6.218   3.768 -0.6043  0.0570 -0.1145
   97SAPC  H14R 9569   3.766   6.189   3.737 -1.1957  1.6321  0.2578
   97SAPC  C215 9570   3.901   6.222   3.899 -0.7914 -0.4827 -0.5058
   97SAPC  H15R 9571   3.820   6.226   3.973 -0.0679  1.7860  0.2238
   97SAPC  C216 9572   4.037   6.246   3.953 -0.2512 -0.7388 -0.4702
   97SAPC  H16R 9573   4.105   6.252   3.866  2.2273 -0.0017  1.4019
   97SAPC  H16S 9574   4.067   6.160   4.016 -0.1108 -0.1827  0.2394
   97SAPC  C217 9575   4.048   6.370   4.048 -0.8999 -0.3374 -0.1655
   97SAPC  H17R 9576   4.154   6.391   4.073 -0.4203 -2.3375 -0.3171
   97SAPC  H17S 9577   4.008   6.346   4.148  3.2397  0.1071  1.8125
   97SAPC  C218 9578   3.968   6.494   3.994  0.2885 -0.6212  0.5701
   97SAPC  H18R 9579   3.862   6.479   4.021 -0.1170  0.1065 -0.5629
   97SAPC  H18S 9580   3.953   6.497   3.884  1.1372 -1.1408  0.4257
   97SAPC  C219 9581   4.005   6.629   4.059  1.2488 -0.4311  0.0844
   97SAPC  H19R 9582   3.931   6.703   4.023 -0.4955 -1.9574  0.3593
   97SAPC  H19S 9583   4.102   6.663   4.019  1.8661 -1.7112  0.4479
   97SAPC  C220 9584   4.004   6.628   4.214 -0.7699  0.0129 -0.0137
   97SAPC  H20R 9585   3.906   6.592   4.252 -0.9244 -0.0103 -0.4266
   97SAPC  H20S 9586   4.022   6.732   4.248 -1.5744  0.4679 -0.9220
   97SAPC  H20T 9587   4.088   6.566   4.249 -0.8358 -0.5005 -0.7542
   97SAPC   C33 9588   4.146   5.864   3.337  0.5839 -0.0701  0.1226
   97SAPC   H3X 9589   4.124   5.971   3.357  2.3196  0.3819 -0.2093
   97SAPC   H3Y 9590   4.252   5.859   3.304  0.6300  0.2414  0.2215
   97SAPC   C34 9591   4.145   5.776   3.462 -0.2036  0.2056 -0.5597
   97SAPC   H4X 9592   4.229   5.704   3.456 -0.7324 -0.3512 -1.4396
   97SAPC   H4Y 9593   4.053   5.716   3.473 -1.0341  1.7987  2.1762
   97SAPC   C35 9594   4.168   5.870   3.583  0.1855  0.1737 -0.2979
   97SAPC   H5X 9595   4.078   5.928   3.610 -0.9721 -3.1804  4.2918
   97SAPC   H5Y 9596   4.247   5.945   3.562 -0.7314  0.8603 -1.4152
   97SAPC   C36 9597   4.204   5.785   3.707  0.1646 -0.0363 -0.2494
   97SAPC   H6X 9598   4.313   5.767   3.701  0.0100 -1.1267 -0.0234
   97SAPC   H6Y 9599   4.164   5.681   3.699 -2.1172  0.6101  1.4850
   97SAPC   C37 9600   4.159   5.847   3.841 -0.0249  0.4696  0.8117
   97SAPC   H7X 9601   4.048   5.838   3.839  0.1592 -2.7236 -1.6486
   97SAPC   H7Y 9602   4.180   5.956   3.853 -1.3462  0.6116  2.1797
   97SAPC   C38 9603   4.216   5.786   3.971 -0.2446 -0.2609  0.3966
   97SAPC   H8X 9604   4.326   5.802   3.963 -0.5038  0.5157 -3.1987
   97SAPC   H8Y 9605   4.206   5.675   3.967 -2.0856 -0.0919 -1.8432
   97SAPC   C39 9606   4.136   5.840   4.094 -1.1604  0.1363  0.1531
   97SAPC   H9X 9607   4.030   5.807   4.103 -1.6662  1.9634  1.6512
   97SAPC   H9Y 9608   4.147   5.950   4.094  0.2355  0.0339  1.5052
   97SAPC  C310 9609   4.192   5.777   4.229 -0.1458  0.0977  0.9839
   97SAPC  H10X 9610   4.301   5.794   4.215 -0.5221 -0.2306 -4.3789
   97SAPC  H10Y 9611   4.181   5.667   4.231 -2.2249  0.2727  1.3452
   97SAPC  C311 9612   4.144   5.832   4.366 -0.2485  0.3044 -0.0498
   97SAPC  H11X 9613   4.200   5.776   4.444  1.9813 -0.0226 -1.7622
   97SAPC  H11Y 9614   4.039   5.801   4.383  0.6749 -2.8737  0.6251
   97SAPC  C312 9615   4.161   5.976   4.375 -0.4508  0.2263  0.0248
   97SAPC  H12X 9616   4.106   6.030   4.295  0.2139 -0.8652 -1.2062
   97SAPC  H12Y 9617   4.268   6.005   4.365 -0.9886  1.8567 -1.3275
   97SAPC  C313 9618   4.134   6.040   4.509  0.0183 -0.1702  0.2711
   97SAPC  H13X 9619   4.180   5.977   4.588 -1.4163  0.3227  1.5452
   97SAPC  H13Y 9620   4.023   6.036   4.513 -0.1623 -1.0142 -2.8629
   97SAPC  C314 9621   4.170   6.190   4.514  0.7820  0.4952  0.2624
   97SAPC  H14X 9622   4.079   6.253   4.525  0.5486  0.5423 -1.5499
   97SAPC  H14Y 9623   4.205   6.216   4.412 -0.3035 -2.7904 -1.0843
   97SAPC  C315 9624   4.268   6.220   4.624 -0.0295  0.3254 -0.3767
   97SAPC  H15X 9625   4.274   6.331   4.619 -1.2314  0.5394  1.8069
   97SAPC  H15Y 9626   4.363   6.172   4.594 -0.0977 -0.2084  0.2371
   97SAPC  C316 9627   4.236   6.164   4.767  0.1427  0.1171  0.2649
   97SAPC  H16X 9628   4.314   6.212   4.829  0.0827  2.0950 -1.0994
   97SAPC  H16Y 9629   4.254   6.055   4.771 -0.0204  0.0443 -0.7864
   97SAPC  C317 9630   4.093   6.208   4.814 -0.2900 -0.0861  0.1892
   97SAPC  H17X 9631   4.016   6.165   4.747 -0.4386 -1.2924  1.0877
   97SAPC  H17Y 9632   4.086   6.316   4.787  0.4486  0.3095  1.4987
   97SAPC  C318 9633   4.047   6.185   4.955 -0.3134 -0.3491  0.1507
   97SAPC  H18X 9634   3.941   6.217   4.968 -0.4359 -0.5671 -0.3239
   97SAPC  H18Y 9635   4.092   6.269   5.012 -0.3805 -1.3733  1.7823
   97SAPC  H18Z 9636   4.056   6.084   5.000 -1.4265 -1.6952 -2.4548
   98SAPC     N 9637   6.359   0.594   1.863 -0.5006 -0.0153 -0.0103
   98SAPC   C12 9638   6.221   0.547   1.912 -0.4074 -0.8540  0.1369
   98SAPC  H12A 9639   6.210   0.450   1.867  0.5732 -2.0825  2.3886
   98SAPC  H12B 9640   6.152   0.622   1.874  0.7927 -0.1881 -0.8170
   98SAPC   C13 9641   6.445   0.493   1.927 -0.4550  0.5378  0.0065
   98SAPC  H13A 9642   6.550   0.512   1.916 -0.4918  0.6334 -0.1943
   98SAPC  H13B 9643   6.428   0.488   2.033  2.1277  0.9221  0.4955
   98SAPC  H13C 9644   6.426   0.390   1.901  0.5149  0.4318 -0.3050
   98SAPC   C14 9645   6.369   0.595   1.713  0.4845  0.1890 -0.1304
   98SAPC  H14A 9646   6.298   0.672   1.686  1.0459  1.8409  2.6735
   98SAPC  H14B 9647   6.465   0.631   1.678  1.5606 -2.0990  0.3048
   98SAPC  H14C 9648   6.338   0.506   1.661  0.3209  1.1736 -1.7931
   98SAPC   C15 9649   6.401   0.729   1.916 -1.1023 -0.2656  0.4969
   98SAPC  H15A 9650   6.354   0.806   1.856  0.1500  0.2119  0.1080
   98SAPC  H15B 9651   6.377   0.738   2.021  0.1939 -1.1584  0.8877
   98SAPC  H15C 9652   6.508   0.724   1.911 -1.2355 -3.0293 -1.6761
   98SAPC   C11 9653   6.209   0.530   2.064 -0.2677 -0.6090  0.0402
   98SAPC  H11A 9654   6.101   0.549   2.081 -0.3731  2.1345 -2.7777
   98SAPC  H11B 9655   6.264   0.611   2.117 -0.7475  0.5906 -1.2244
   98SAPC     P 9656   6.186   0.261   2.060  0.5087 -0.3224  0.1370
   98SAPC   O13 9657   6.092   0.283   1.947  0.4341  0.2019 -0.1775
   98SAPC   O14 9658   6.292   0.163   2.042  0.2494  0.2865 -0.7633
   98SAPC   O12 9659   6.249   0.394   2.103 -0.0985 -0.0463 -0.2899
   98SAPC   O11 9660   6.105   0.213   2.186 -0.0092 -0.3295 -0.0995
   98SAPC    C1 9661   6.173   0.175   2.305 -0.3502 -0.3366  0.4107
   98SAPC    HA 9662   6.164   0.066   2.321  2.3723 -1.1837 -2.7337
   98SAPC    HB 9663   6.283   0.188   2.295 -0.6309  2.5705  0.1912
   98SAPC    C2 9664   6.123   0.263   2.424 -0.2067  0.0087 -0.1976
   98SAPC    HS 9665   6.013   0.250   2.429 -0.2588  0.8103  1.5532
   98SAPC   O21 9666   6.175   0.398   2.411  0.4861  0.4499  0.3500
   98SAPC   C21 9667   6.096   0.484   2.470 -0.8522  0.1872  0.0324
   98SAPC   O22 9668   5.998   0.459   2.535  0.4087 -0.0937  0.2258
   98SAPC   C22 9669   6.158   0.627   2.457  0.2497  0.3109 -0.1836
   98SAPC   H2R 9670   6.234   0.634   2.376  0.5058  0.5504  0.0750
   98SAPC   H2S 9671   6.086   0.698   2.410 -0.0741  0.7585  0.9721
   98SAPC    C3 9672   6.164   0.206   2.559  0.0635  0.2827  0.0503
   98SAPC    HX 9673   6.267   0.165   2.552  0.3243  0.9076  0.2149
   98SAPC    HY 9674   6.104   0.114   2.576  0.8484 -0.4517 -1.0096
   98SAPC   O31 9675   6.151   0.300   2.666  0.0407 -0.1385 -0.5466
   98SAPC   C31 9676   6.201   0.264   2.781 -0.5050 -0.7140 -0.1358
   98SAPC   O32 9677   6.260   0.157   2.799  0.2662  0.2397  0.3977
   98SAPC   C32 9678   6.172   0.366   2.883  0.1775 -0.2416 -0.6298
   98SAPC   H2X 9679   6.062   0.366   2.901  0.3559  1.9726  0.8721
   98SAPC   H2Y 9680   6.198   0.465   2.838  0.6333 -0.8199 -1.6836
   98SAPC   C23 9681   6.219   0.689   2.580  0.1828  0.5013 -0.0550
   98SAPC   H3R 9682   6.269   0.781   2.543  0.9831 -0.5718 -1.7511
   98SAPC   H3S 9683   6.303   0.624   2.614  0.7676 -0.1727 -2.5912
   98SAPC   C24 9684   6.119   0.735   2.680 -0.1448  0.3719  0.7671
   98SAPC   H4R 9685   6.066   0.651   2.730  0.9598 -0.6039  0.3541
   98SAPC   H4S 9686   6.039   0.796   2.634  2.1178  2.2076 -0.9586
   98SAPC   C25 9687   6.181   0.818   2.786 -0.4750  0.0370 -0.1183
   98SAPC   H5R 9688   6.256   0.895   2.762 -1.3573  0.8709 -0.2619
   98SAPC   C26 9689   6.156   0.814   2.921 -0.1861  0.2169  0.1984
   98SAPC   H6R 9690   6.210   0.891   2.979 -2.0756  0.1226  2.2219
   98SAPC   C27 9691   6.070   0.728   3.001 -0.1601 -0.5716 -0.3415
   98SAPC   H7R 9692   6.071   0.754   3.109 -0.2431 -1.4671 -0.1210
   98SAPC   H7S 9693   6.112   0.626   2.991 -0.2932 -0.5908 -0.7253
   98SAPC   C28 9694   5.932   0.736   2.952  0.1910 -0.4358  0.1318
   98SAPC   H8R 9695   5.920   0.805   2.868  0.5926 -1.5315 -0.8477
   98SAPC   C29 9696   5.835   0.655   3.001  0.5585  0.4574 -0.4740
   98SAPC   H9R 9697   5.733   0.650   2.960 -0.1035  2.2610  0.7972
   98SAPC  C210 9698   5.854   0.548   3.102  0.8098 -0.3407 -0.4508
   98SAPC  H10R 9699   5.789   0.578   3.187 -0.2513  1.7773 -1.9024
   98SAPC  H10S 9700   5.952   0.554   3.155  0.2135  2.3961  0.5477
   98SAPC  C211 9701   5.811   0.408   3.064  0.0277 -1.0867  0.3442
   98SAPC  H11R 9702   5.774   0.416   2.961 -0.1135  1.0741  0.5108
   98SAPC  C212 9703   5.778   0.300   3.137  0.1742  0.5740  0.0086
   98SAPC  H12R 9704   5.740   0.208   3.091 -4.2121  1.9413  0.4066
   98SAPC  C213 9705   5.811   0.282   3.283 -0.0289 -0.0133  0.5001
   98SAPC  H13R 9706   5.868   0.367   3.324  2.6990 -0.1125 -2.6978
   98SAPC  H13S 9707   5.886   0.201   3.295 -0.2836 -0.0969  1.6601
   98SAPC  C214 9708   5.696   0.244   3.368  0.6823 -0.7965  0.1212
   98SAPC  H14R 9709   5.683   0.136   3.383 -1.3587 -0.5079  0.6933
   98SAPC  C215 9710   5.597   0.323   3.421 -0.4759  0.1666 -0.6503
   98SAPC  H15R 9711   5.518   0.276   3.482  1.2187 -0.8864  0.8273
   98SAPC  C216 9712   5.606   0.478   3.436 -0.6653 -0.2695  0.6159
   98SAPC  H16R 9713   5.512   0.529   3.407  1.5485  3.0512 -1.3610
   98SAPC  H16S 9714   5.686   0.515   3.368 -1.6649 -1.3347 -1.2557
   98SAPC  C217 9715   5.641   0.516   3.579  0.1474  0.1609 -0.0004
   98SAPC  H17R 9716   5.671   0.623   3.577  2.6784 -0.4250 -3.2616
   98SAPC  H17S 9717   5.739   0.469   3.605  1.7764  4.1326  1.7777
   98SAPC  C218 9718   5.539   0.501   3.688 -0.2264  0.0747  0.5014
   98SAPC  H18R 9719   5.490   0.403   3.671  1.9812 -0.9479 -0.3653
   98SAPC  H18S 9720   5.467   0.585   3.697 -2.2716 -1.6699  1.5411
   98SAPC  C219 9721   5.618   0.499   3.817  0.6410 -0.5593 -0.2133
   98SAPC  H19R 9722   5.658   0.597   3.850  0.6989  0.0290 -1.9153
   98SAPC  H19S 9723   5.698   0.422   3.817  1.5730  0.3704  0.8151
   98SAPC  C220 9724   5.528   0.468   3.936  0.1931  0.1206 -1.2359
   98SAPC  H20R 9725   5.448   0.543   3.954 -0.9689 -1.2426 -0.5033
   98SAPC  H20S 9726   5.597   0.460   4.023 -1.1358 -0.7978 -0.2361
   98SAPC  H20T 9727   5.486   0.366   3.924  2.4128 -0.7502 -1.9723
   98SAPC   C33 9728   6.239   0.329   3.016 -0.2140  0.6779  0.1848
   98SAPC   H3X 9729   6.234   0.227   3.060  1.6219  1.0403  1.3430
   98SAPC   H3Y 9730   6.176   0.374   3.096 -0.8706  0.6693 -0.3211
   98SAPC   C34 9731   6.385   0.372   3.035  0.5000 -0.1480  0.1509
   98SAPC   H4X 9732   6.392   0.474   2.993 -1.4569 -0.0025  0.0676
   98SAPC   H4Y 9733   6.446   0.313   2.963 -0.3182 -1.7171  0.6951
   98SAPC   C35 9734   6.431   0.352   3.180 -0.0891  1.0121  0.1616
   98SAPC   H5X 9735   6.541   0.340   3.168 -0.3053 -1.4670  0.0689
   98SAPC   H5Y 9736   6.391   0.255   3.216  1.4825  0.0108 -0.6570
   98SAPC   C36 9737   6.406   0.473   3.264 -0.1911 -1.1672  0.2354
   98SAPC   H6X 9738   6.303   0.515   3.262  0.7014  1.2312  1.1514
   98SAPC   H6Y 9739   6.476   0.555   3.237 -1.0247 -0.7703 -0.8131
   98SAPC   C37 9740   6.438   0.442   3.410  0.4488 -0.0564 -1.4718
   98SAPC   H7X 9741   6.478   0.534   3.458 -2.3568  0.4768  0.0521
   98SAPC   H7Y 9742   6.529   0.379   3.415 -0.2342 -0.9929  0.1346
   98SAPC   C38 9743   6.327   0.367   3.488 -0.3491  0.3988  0.5071
   98SAPC   H8X 9744   6.372   0.311   3.574  2.2430 -2.1042 -2.2359
   98SAPC   H8Y 9745   6.279   0.293   3.421 -0.4786  1.5547 -0.6994
   98SAPC   C39 9746   6.199   0.449   3.527 -0.4771  0.3223 -0.3146
   98SAPC   H9X 9747   6.171   0.512   3.439  1.0972  2.7436  0.7882
   98SAPC   H9Y 9748   6.243   0.509   3.610 -1.8759 -0.2536  0.8806
   98SAPC  C310 9749   6.069   0.376   3.574  0.1257  0.2213  0.0755
   98SAPC  H10X 9750   6.051   0.308   3.488  2.3818 -3.1166  1.9892
   98SAPC  H10Y 9751   5.985   0.448   3.586  2.1076  2.5240  0.8571
   98SAPC  C311 9752   6.077   0.281   3.690 -0.2018 -0.2086 -0.6149
   98SAPC  H11X 9753   6.073   0.351   3.776  1.0326 -1.5242  0.5839
   98SAPC  H11Y 9754   6.178   0.234   3.701  0.6174  1.4890 -0.5644
   98SAPC  C312 9755   5.967   0.177   3.689  0.0272  0.2295  0.3931
   98SAPC  H12X 9756   5.971   0.121   3.593  2.7659  1.7649 -0.4756
   98SAPC  H12Y 9757   5.869   0.229   3.679  0.9253  1.8244 -0.4179
   98SAPC  C313 9758   5.981   0.082   3.814 -0.4722 -0.0835  0.2323
   98SAPC  H13X 9759   5.935   0.132   3.902 -0.4518 -1.7146  1.2028
   98SAPC  H13Y 9760   6.089   0.062   3.834  0.3476  1.9693 -1.5946
   98SAPC  C314 9761   5.904  -0.049   3.799  0.6377  0.2669  0.2644
   98SAPC  H14X 9762   5.926  -0.127   3.875  1.0760 -1.2947 -1.3984
   98SAPC  H14Y 9763   5.927  -0.109   3.708 -0.0959 -1.8663  1.3985
   98SAPC  C315 9764   5.755  -0.028   3.806  0.2716  0.2772 -0.0663
   98SAPC  H15X 9765   5.704  -0.120   3.769 -1.1944  1.1617 -0.2869
   98SAPC  H15Y 9766   5.728   0.048   3.730 -0.8040 -0.0438 -0.0203
   98SAPC  C316 9767   5.711  -0.009   3.954  0.0156 -0.4752  0.4496
   98SAPC  H16X 9768   5.780   0.066   3.995  1.8417 -0.9266 -1.5710
   98SAPC  H16Y 9769   5.721  -0.103   4.012  2.0770 -0.2092  0.5740
   98SAPC  C317 9770   5.572   0.058   3.970  0.2469  0.4080 -0.6888
   98SAPC  H17X 9771   5.516   0.007   3.888 -0.7905 -0.7928  0.7114
   98SAPC  H17Y 9772   5.582   0.167   3.956 -1.6008  0.7516  0.4177
   98SAPC  C318 9773   5.500   0.049   4.100 -0.2347 -0.0528 -0.0161
   98SAPC  H18X 9774   5.556   0.080   4.191 -3.6505  0.7305  2.0015
   98SAPC  H18Y 9775   5.468  -0.057   4.114  1.3379 -0.6436 -0.6779
   98SAPC  H18Z 9776   5.408   0.112   4.106 -0.5550 -0.5628  0.5822
   99SAPC     N 9777   2.952   4.070   2.179  0.3282 -0.2222 -0.0761
   99SAPC   C12 9778   2.841   4.123   2.267  0.2182 -0.1602 -0.4420
   99SAPC  H12A 9779   2.831   4.227   2.238  1.2583  0.0759 -0.0263
   99SAPC  H12B 9780   2.876   4.118   2.369 -1.0552 -3.4355 -0.0352
   99SAPC   C13 9781   2.972   3.926   2.218  0.1148 -0.3292 -0.0657
   99SAPC  H13A 9782   2.880   3.871   2.206 -2.8595  3.7126  1.6343
   99SAPC  H13B 9783   3.057   3.888   2.163  0.7086 -1.4604  1.5645
   99SAPC  H13C 9784   2.999   3.931   2.323 -0.0878  0.5887 -0.0437
   99SAPC   C14 9785   2.921   4.082   2.032 -0.2932  0.1775 -0.4840
   99SAPC  H14A 9786   2.818   4.055   2.016 -0.3214  0.2055 -0.3530
   99SAPC  H14B 9787   2.918   4.190   2.019 -2.3424  0.1246 -0.7982
   99SAPC  H14C 9788   2.985   4.018   1.973  1.1022  0.2649  0.8637
   99SAPC   C15 9789   3.081   4.140   2.205 -0.0662  0.2959  0.4905
   99SAPC  H15A 9790   3.156   4.106   2.135  0.8334  0.8103  1.1861
   99SAPC  H15B 9791   3.062   4.245   2.190 -3.4894 -0.0363  1.5881
   99SAPC  H15C 9792   3.116   4.122   2.306 -0.2404  1.9808  0.8812
   99SAPC   C11 9793   2.704   4.062   2.252  0.6056  0.2980 -0.3616
   99SAPC  H11A 9794   2.643   4.091   2.340  0.5028 -1.2305  0.0864
   99SAPC  H11B 9795   2.718   3.953   2.262 -0.1143  0.3670  1.8294
   99SAPC     P 9796   2.573   4.232   2.097  0.1667  0.4241  0.0516
   99SAPC   O13 9797   2.675   4.319   2.034  0.0091  0.6407 -0.5858
   99SAPC   O14 9798   2.449   4.213   2.020  0.0950 -0.2529  0.3077
   99SAPC   O12 9799   2.633   4.085   2.127  0.6068 -1.4332  0.3389
   99SAPC   O11 9800   2.553   4.266   2.251 -0.6206 -0.2142  0.0806
   99SAPC    C1 9801   2.449   4.362   2.288 -0.2394  0.2551  0.3187
   99SAPC    HA 9802   2.459   4.447   2.217 -1.9246  0.8925  0.7853
   99SAPC    HB 9803   2.347   4.318   2.282 -0.5178  1.0516 -1.4163
   99SAPC    C2 9804   2.503   4.429   2.417 -0.8715  0.0927 -0.8026
   99SAPC    HS 9805   2.610   4.457   2.407 -0.5603 -0.3574  0.9224
   99SAPC   O21 9806   2.492   4.334   2.520 -0.0399  0.1483 -0.4036
   99SAPC   C21 9807   2.592   4.315   2.606 -0.3859 -0.2765 -0.5803
   99SAPC   O22 9808   2.688   4.392   2.622 -0.2940 -0.8153  0.2733
   99SAPC   C22 9809   2.572   4.171   2.653 -0.1071  0.3971 -0.2252
   99SAPC   H2R 9810   2.483   4.176   2.721 -0.6766  3.4021 -1.0680
   99SAPC   H2S 9811   2.549   4.102   2.569 -2.4759 -2.9669  2.8444
   99SAPC    C3 9812   2.411   4.544   2.452  0.1808 -0.9078  0.5391
   99SAPC    HX 9813   2.315   4.493   2.474  0.2261 -0.7591  1.0868
   99SAPC    HY 9814   2.397   4.623   2.375  2.0189 -0.0565  1.0106
   99SAPC   O31 9815   2.464   4.627   2.558  0.1771  0.2468 -0.0206
   99SAPC   C31 9816   2.425   4.605   2.684 -0.1767  0.4060  0.4730
   99SAPC   O32 9817   2.347   4.514   2.717 -0.2862  0.2247 -0.2278
   99SAPC   C32 9818   2.496   4.692   2.776 -0.0057  0.8166  0.9021
   99SAPC   H2X 9819   2.450   4.792   2.762  2.3881  2.1447  1.9564
   99SAPC   H2Y 9820   2.603   4.698   2.747 -0.4471 -0.5037 -1.1352
   99SAPC   C23 9821   2.701   4.105   2.714  1.1842 -0.0786  0.0907
   99SAPC   H3R 9822   2.782   4.128   2.642 -1.3361  3.5277 -1.9506
   99SAPC   H3S 9823   2.693   3.996   2.734  1.1226 -0.0031  0.4909
   99SAPC   C24 9824   2.748   4.169   2.849 -0.0226  0.8535  0.1705
   99SAPC   H4R 9825   2.772   4.276   2.831  0.8989  0.8388  1.2170
   99SAPC   H4S 9826   2.835   4.109   2.881  1.1355  1.0835 -2.2734
   99SAPC   C25 9827   2.642   4.158   2.954 -0.7821 -0.1090 -0.0315
   99SAPC   H5R 9828   2.557   4.090   2.934  1.0341 -2.3607 -0.4894
   99SAPC   C26 9829   2.641   4.226   3.071 -0.2822 -1.1031 -0.0296
   99SAPC   H6R 9830   2.558   4.222   3.144  1.1783 -1.6828  1.6927
   99SAPC   C27 9831   2.753   4.310   3.117 -0.3182 -0.2359  0.1703
   99SAPC   H7R 9832   2.719   4.408   3.156  0.4552  0.9769 -2.0190
   99SAPC   H7S 9833   2.824   4.338   3.036 -0.5433  0.7337  0.2963
   99SAPC   C28 9834   2.832   4.236   3.220  0.1608  0.1248 -0.1936
   99SAPC   H8R 9835   2.891   4.151   3.184 -1.7787 -0.3618 -2.4242
   99SAPC   C29 9836   2.850   4.279   3.346  0.1062  0.0519  0.5415
   99SAPC   H9R 9837   2.925   4.223   3.403  0.0260  0.1915  0.7850
   99SAPC  C210 9838   2.787   4.394   3.417 -0.5738  0.2487 -0.1770
   99SAPC  H10R 9839   2.782   4.359   3.523  2.0542 -1.8044 -0.6349
   99SAPC  H10S 9840   2.686   4.414   3.375 -0.4643  0.1229 -0.5014
   99SAPC  C211 9841   2.878   4.516   3.421  0.3458  0.0062 -0.2965
   99SAPC  H11R 9842   2.911   4.555   3.323  1.2732  1.7548  0.6620
   99SAPC  C212 9843   2.916   4.582   3.534  0.2243  0.5208 -0.6336
   99SAPC  H12R 9844   2.959   4.682   3.520  1.8219 -0.4373 -3.2636
   99SAPC  C213 9845   2.885   4.553   3.679 -0.6687 -0.4651  0.2779
   99SAPC  H13R 9846   2.798   4.486   3.695  0.2189 -2.0593 -1.2201
   99SAPC  H13S 9847   2.863   4.643   3.741  2.4398 -1.2790  2.8630
   99SAPC  C214 9848   3.003   4.491   3.742 -0.7116  0.3135  0.4211
   99SAPC  H14R 9849   3.031   4.388   3.714 -0.2509 -0.8182  4.4093
   99SAPC  C215 9850   3.082   4.552   3.839 -0.1969  0.6151  0.8739
   99SAPC  H15R 9851   3.172   4.504   3.882 -1.4118 -1.7807  0.9201
   99SAPC  C216 9852   3.065   4.689   3.899 -0.1569 -0.0634 -0.5736
   99SAPC  H16R 9853   3.002   4.689   3.990 -2.6194  1.6470 -2.1310
   99SAPC  H16S 9854   3.013   4.754   3.825  1.0904 -1.4629 -2.8066
   99SAPC  C217 9855   3.188   4.776   3.918 -0.4515  0.2216 -0.2335
   99SAPC  H17R 9856   3.159   4.880   3.943  0.3154  0.2560  0.5490
   99SAPC  H17S 9857   3.249   4.772   3.825 -1.7074  1.5085 -1.1549
   99SAPC  C218 9858   3.280   4.733   4.042 -0.1149 -0.2477  0.1099
   99SAPC  H18R 9859   3.317   4.630   4.025 -1.4467 -0.8361  0.6338
   99SAPC  H18S 9860   3.226   4.752   4.137 -0.2388 -0.1884  0.0285
   99SAPC  C219 9861   3.413   4.817   4.050  0.6857 -0.2631  0.1246
   99SAPC  H19R 9862   3.474   4.781   4.136  0.0335 -0.3231  0.5745
   99SAPC  H19S 9863   3.389   4.924   4.065  0.8850  0.0373 -1.5311
   99SAPC  C220 9864   3.493   4.801   3.924  0.4406  0.0419  0.3117
   99SAPC  H20R 9865   3.446   4.824   3.826  0.8374 -2.3399 -0.5034
   99SAPC  H20S 9866   3.514   4.692   3.919 -1.5794 -0.3640 -0.2549
   99SAPC  H20T 9867   3.594   4.846   3.925  1.1075 -1.3882  0.1617
   99SAPC   C33 9868   2.484   4.646   2.927  0.8323 -0.6424  0.2539
   99SAPC   H3X 9869   2.527   4.545   2.943  1.9671 -0.5145 -1.7206
   99SAPC   H3Y 9870   2.379   4.639   2.962  1.0284  0.1021  1.0426
   99SAPC   C34 9871   2.564   4.740   3.014 -0.4461  0.1440 -0.6153
   99SAPC   H4X 9872   2.548   4.845   2.982 -0.3320  1.5624  3.3973
   99SAPC   H4Y 9873   2.674   4.724   3.006 -0.0866  1.3364  1.1780
   99SAPC   C35 9874   2.537   4.738   3.170  0.2613 -0.3985 -0.4713
   99SAPC   H5X 9875   2.553   4.636   3.210 -2.6207 -1.2986 -1.3561
   99SAPC   H5Y 9876   2.432   4.766   3.194  0.0669  2.0042 -3.4493
   99SAPC   C36 9877   2.629   4.830   3.254  0.4033  0.4791 -0.1942
   99SAPC   H6X 9878   2.621   4.935   3.219 -1.2620  0.3975 -0.1436
   99SAPC   H6Y 9879   2.738   4.813   3.243  0.3387 -0.0099 -0.1031
   99SAPC   C37 9880   2.589   4.819   3.398 -0.5443 -0.2216 -0.1621
   99SAPC   H7X 9881   2.606   4.716   3.437 -1.0996 -0.6266 -0.9585
   99SAPC   H7Y 9882   2.482   4.847   3.414 -0.9458 -1.2139 -1.0103
   99SAPC   C38 9883   2.675   4.887   3.504  0.2435 -0.4716  0.5578
   99SAPC   H8X 9884   2.682   4.994   3.474  0.0583 -0.2696  1.2103
   99SAPC   H8Y 9885   2.780   4.851   3.493  0.0293 -1.1924  0.7836
   99SAPC   C39 9886   2.629   4.868   3.648  0.0686  0.7752 -0.1232
   99SAPC   H9X 9887   2.635   4.760   3.672  2.3816  1.3374  2.3509
   99SAPC   H9Y 9888   2.521   4.886   3.665  0.2032  0.1138  1.7301
   99SAPC  C310 9889   2.728   4.937   3.748 -0.5349  0.3567  0.3358
   99SAPC  H10X 9890   2.765   5.030   3.700 -2.4760 -0.3058 -2.7932
   99SAPC  H10Y 9891   2.815   4.869   3.759 -2.0421 -2.0270 -1.4037
   99SAPC  C311 9892   2.674   4.947   3.888  0.1384  0.2929 -0.4017
   99SAPC  H11X 9893   2.758   4.946   3.960  1.2461  2.4561 -1.5505
   99SAPC  H11Y 9894   2.609   4.863   3.922 -1.0139  1.5915  0.7568
   99SAPC  C312 9895   2.600   5.076   3.915  0.0228  0.0766 -0.4548
   99SAPC  H12X 9896   2.496   5.061   3.879 -0.9067  0.0168  2.0803
   99SAPC  H12Y 9897   2.639   5.163   3.858 -0.3876  0.5712  0.0074
   99SAPC  C313 9898   2.591   5.106   4.062 -0.2386 -0.0256  0.4140
   99SAPC  H13X 9899   2.689   5.115   4.114  0.1492 -2.1411  0.1588
   99SAPC  H13Y 9900   2.523   5.028   4.104  0.0460 -0.3348  0.3035
   99SAPC  C314 9901   2.513   5.234   4.104 -0.9828 -0.3942  0.0925
   99SAPC  H14X 9902   2.406   5.217   4.080 -1.2691  1.1689  0.1609
   99SAPC  H14Y 9903   2.550   5.317   4.040 -1.0459  0.6285  1.3344
   99SAPC  C315 9904   2.542   5.272   4.246 -0.8455  0.4247  0.0435
   99SAPC  H15X 9905   2.640   5.325   4.253  1.1450 -2.7419 -1.8177
   99SAPC  H15Y 9906   2.552   5.175   4.298 -2.9653 -0.4469 -1.0925
   99SAPC  C316 9907   2.428   5.347   4.308 -0.3780 -0.0361  0.2759
   99SAPC  H16X 9908   2.338   5.282   4.306 -0.1115 -0.4124  0.4002
   99SAPC  H16Y 9909   2.408   5.441   4.253 -1.1818  0.7445  1.8330
   99SAPC  C317 9910   2.456   5.369   4.451  0.2802 -0.7083  0.2611
   99SAPC  H17X 9911   2.542   5.439   4.463  0.1041 -0.3099 -0.7107
   99SAPC  H17Y 9912   2.488   5.276   4.502 -1.2757 -2.6157 -2.0424
   99SAPC  C318 9913   2.337   5.427   4.524 -0.0578 -1.0675 -0.4498
   99SAPC  H18X 9914   2.366   5.493   4.609 -0.0696  0.0092 -1.2714
   99SAPC  H18Y 9915   2.265   5.356   4.571 -0.1656 -0.6163  0.0676
   99SAPC  H18Z 9916   2.273   5.487   4.458 -1.1383 -3.0286 -1.2726
  100SAPC     N 9917   3.065   3.496   1.864 -1.0182  0.1473  0.4365
  100SAPC   C12 9918   3.034   3.600   1.975 -0.1738 -0.1835  0.4448
  100SAPC  H12A 9919   2.938   3.642   1.951 -0.0653 -1.1031 -1.7880
  100SAPC  H12B 9920   3.106   3.680   1.974 -0.1824 -0.0666 -3.1768
  100SAPC   C13 9921   3.205   3.436   1.895 -0.4333 -0.0968  0.4539
  100SAPC  H13A 9922   3.196   3.375   1.983 -1.1554  1.2174  1.3311
  100SAPC  H13B 9923   3.232   3.365   1.819 -2.6010 -0.9477  0.3867
  100SAPC  H13C 9924   3.284   3.510   1.900  0.2707 -0.5610 -2.2695
  100SAPC   C14 9925   2.960   3.391   1.860  0.5124  0.5224 -0.7708
  100SAPC  H14A 9926   2.994   3.309   1.798 -0.7610 -1.4531  0.9897
  100SAPC  H14B 9927   2.955   3.361   1.964  4.1543  1.3125 -0.2287
  100SAPC  H14C 9928   2.865   3.425   1.823 -0.2062  0.2140  0.7065
  100SAPC   C15 9929   3.073   3.557   1.725 -0.1953  0.1656  0.1048
  100SAPC  H15A 9930   3.143   3.639   1.723  1.7389 -1.4119 -1.5131
  100SAPC  H15B 9931   3.107   3.482   1.655 -2.1796  0.7620 -1.6031
  100SAPC  H15C 9932   2.976   3.595   1.697 -0.0752 -0.9315 -1.9998
  100SAPC   C11 9933   3.019   3.541   2.124  0.4839 -0.2302 -0.1874
  100SAPC  H11A 9934   3.007   3.632   2.186  0.5640 -0.4194  0.1078
  100SAPC  H11B 9935   3.116   3.491   2.145  0.3934  0.0653  1.0041
  100SAPC     P 9936   2.770   3.530   2.176 -0.4973  0.3011  0.4265
  100SAPC   O13 9937   2.753   3.645   2.092 -0.1337 -0.2602  0.1368
  100SAPC   O14 9938   2.660   3.433   2.172 -1.0083 -0.1503  0.2482
  100SAPC   O12 9939   2.908   3.457   2.138 -0.2022 -0.1757  0.2319
  100SAPC   O11 9940   2.790   3.573   2.326 -0.1959 -0.5128  0.5012
  100SAPC    C1 9941   2.839   3.489   2.428 -0.0256  0.0774 -0.0376
  100SAPC    HA 9942   2.786   3.391   2.427  1.3137 -0.6591 -0.4120
  100SAPC    HB 9943   2.948   3.472   2.435 -0.0952 -0.4646 -0.1829
  100SAPC    C2 9944   2.797   3.545   2.566 -0.3814  0.8959 -0.1222
  100SAPC    HS 9945   2.863   3.630   2.591 -0.5981  1.5567 -1.7096
  100SAPC   O21 9946   2.803   3.441   2.668  0.2877  0.3248  0.1324
  100SAPC   C21 9947   2.927   3.405   2.701 -0.1080 -0.1420 -0.1168
  100SAPC   O22 9948   3.026   3.450   2.653 -0.3388 -0.1123  0.1968
  100SAPC   C22 9949   2.929   3.292   2.809  0.5076  0.1711  0.5487
  100SAPC   H2R 9950   2.868   3.214   2.759 -1.7216  2.6616 -0.8722
  100SAPC   H2S 9951   3.033   3.259   2.831 -0.4912 -2.1212  2.3017
  100SAPC    C3 9952   2.660   3.616   2.559  0.3500 -0.5637 -0.4307
  100SAPC    HX 9953   2.578   3.543   2.542  1.8721 -2.4282 -0.0724
  100SAPC    HY 9954   2.657   3.686   2.473  0.3113  1.2534  0.9985
  100SAPC   O31 9955   2.623   3.672   2.683 -0.2992 -0.1580 -0.0482
  100SAPC   C31 9956   2.543   3.778   2.675  0.6784 -0.5483  0.2804
  100SAPC   O32 9957   2.502   3.830   2.574  0.2551  0.3484  0.5772
  100SAPC   C32 9958   2.512   3.831   2.812 -0.6547  0.0674 -0.1866
  100SAPC   H2X 9959   2.532   3.941   2.815  1.5168 -0.3108  0.5702
  100SAPC   H2Y 9960   2.579   3.781   2.884 -1.1977  0.0768  0.3371
  100SAPC   C23 9961   2.866   3.338   2.946 -0.3830  0.0024  1.3535
  100SAPC   H3R 9962   2.798   3.425   2.937  0.5637  0.6569  0.2921
  100SAPC   H3S 9963   2.950   3.372   3.009 -0.0131  2.0094 -0.1160
  100SAPC   C24 9964   2.792   3.225   3.021  0.1519  1.2357  0.1877
  100SAPC   H4R 9965   2.857   3.139   3.047 -2.9559 -0.7274  2.1775
  100SAPC   H4S 9966   2.726   3.192   2.938 -0.5945  0.4057  1.0825
  100SAPC   C25 9967   2.713   3.286   3.134  0.2139  0.2045  0.5243
  100SAPC   H5R 9968   2.604   3.295   3.120  0.1100  0.2451  1.3063
  100SAPC   C26 9969   2.763   3.304   3.261 -0.3760  0.3517 -0.6896
  100SAPC   H6R 9970   2.698   3.355   3.333 -1.7797 -0.5255 -1.3062
  100SAPC   C27 9971   2.905   3.268   3.307  0.7990  0.2988  0.2179
  100SAPC   H7R 9972   2.942   3.330   3.391  1.7830 -2.4297  1.9412
  100SAPC   H7S 9973   2.980   3.286   3.227  1.1361  1.2170  0.7291
  100SAPC   C28 9974   2.919   3.119   3.352  0.2015 -0.7671 -0.0234
  100SAPC   H8R 9975   2.894   3.051   3.270  2.3182 -0.3276 -1.1145
  100SAPC   C29 9976   2.928   3.063   3.472  0.0336  0.4094 -0.1794
  100SAPC   H9R 9977   2.940   2.954   3.478 -0.7647  0.3749  1.4439
  100SAPC  C210 9978   2.932   3.141   3.606  0.7795 -0.2495  0.0326
  100SAPC  H10R 9979   2.984   3.238   3.595  0.7447 -0.0901  1.2144
  100SAPC  H10S 9980   3.000   3.086   3.674  2.9210  2.2246  0.0421
  100SAPC  C211 9981   2.797   3.160   3.667 -0.5603 -0.2620 -0.0443
  100SAPC  H11R 9982   2.719   3.175   3.591 -0.3452 -0.9258 -0.4026
  100SAPC  C212 9983   2.772   3.173   3.798  0.1297  0.1247 -0.1375
  100SAPC  H12R 9984   2.665   3.176   3.826  0.4867  0.2488  1.2801
  100SAPC  C213 9985   2.868   3.155   3.915  0.6087 -0.0734 -0.5509
  100SAPC  H13R 9986   2.885   3.253   3.965 -2.0909 -0.1891  0.7557
  100SAPC  H13S 9987   2.967   3.119   3.880  0.5178 -0.5962 -0.2762
  100SAPC  C214 9988   2.812   3.054   4.023  0.5364  0.0303 -0.2550
  100SAPC  H14R 9989   2.705   3.031   4.011  0.4789 -2.2167  3.1440
  100SAPC  C215 9990   2.871   3.008   4.135 -0.2214 -0.0274  0.2072
  100SAPC  H15R 9991   2.812   2.941   4.199  1.0334  1.4449  3.1063
  100SAPC  C216 9992   3.015   3.030   4.177  0.2008 -0.0354  0.2125
  100SAPC  H16R 9993   3.014   3.120   4.242  0.2891 -2.0631  3.2749
  100SAPC  H16S 9994   3.076   3.046   4.086  0.4552  0.3854  0.4567
  100SAPC  C217 9995   3.066   2.897   4.255 -0.1340  0.3977  0.2914
  100SAPC  H17R 9996   3.176   2.913   4.255  0.2604 -1.9775  0.4947
  100SAPC  H17S 9997   3.061   2.806   4.191  0.5030  0.4773  0.1219
  100SAPC  C218 9998   3.001   2.873   4.388 -0.1098  0.3286 -0.3329
  100SAPC  H18R 9999   2.890   2.872   4.380 -0.2440  3.6174 -0.2044
  100SAPC  H18S10000   3.010   2.962   4.453 -3.9754 -0.7372  2.0670
  100SAPC  C21910001   3.043   2.737   4.449  0.4653 -0.3267  0.0599
  100SAPC  H19R10002   3.153   2.754   4.455  0.2523  1.0575  0.6024
  100SAPC  H19S10003   3.021   2.654   4.379  1.9388  0.9679 -2.0274
  100SAPC  C22010004   2.987   2.696   4.586 -0.3162  0.5630  0.6765
  100SAPC  H20R10005   3.030   2.597   4.615  0.9320  0.6761 -0.6702
  100SAPC  H20S10006   2.878   2.676   4.584 -0.4396  1.1614  1.2304
  100SAPC  H20T10007   3.005   2.779   4.657  3.0939  0.3971  0.1799
  100SAPC   C3310008   2.366   3.817   2.848 -0.2919 -0.0849 -0.8398
  100SAPC   H3X10009   2.364   3.714   2.889 -0.4341  0.9992  2.1285
  100SAPC   H3Y10010   2.304   3.823   2.756  0.6306 -2.1354 -1.6592
  100SAPC   C3410011   2.319   3.923   2.952  0.5075  0.1603  0.3138
  100SAPC   H4X10012   2.208   3.923   2.953  0.3100 -2.1925 -3.4468
  100SAPC   H4Y10013   2.348   4.025   2.918 -0.6984  0.8204  1.1759
  100SAPC   C3510014   2.373   3.903   3.093  0.2528  0.3402  0.4741
  100SAPC   H5X10015   2.482   3.923   3.081  0.0279  0.6135 -1.4651
  100SAPC   H5Y10016   2.367   3.798   3.127  2.0336 -0.3103 -1.0345
  100SAPC   C3610017   2.310   3.995   3.192  0.6980  0.0327  0.6698
  100SAPC   H6X10018   2.202   3.968   3.197  0.9792 -1.2524  0.0403
  100SAPC   H6Y10019   2.317   4.099   3.153 -1.9854  0.8731  2.1440
  100SAPC   C3710020   2.397   3.980   3.322 -0.7607  0.3711  0.3721
  100SAPC   H7X10021   2.502   3.987   3.287  0.0806 -0.9052  2.4379
  100SAPC   H7Y10022   2.374   3.884   3.372  1.9029 -1.1971 -1.1833
  100SAPC   C3810023   2.379   4.106   3.413  0.6637  0.1504 -0.1919
  100SAPC   H8X10024   2.276   4.106   3.454  1.3756 -1.6448  1.7866
  100SAPC   H8Y10025   2.390   4.194   3.345  1.9305  0.6200  0.5757
  100SAPC   C3910026   2.479   4.111   3.526 -0.0984  0.4415  0.3325
  100SAPC   H9X10027   2.482   4.211   3.575 -0.1095  0.4767  0.2624
  100SAPC   H9Y10028   2.581   4.099   3.483  0.3677 -0.4844  1.6508
  100SAPC  C31010029   2.469   4.000   3.629 -0.4299 -1.0817  0.4347
  100SAPC  H10X10030   2.490   3.901   3.584 -1.8543 -0.7346 -1.0712
  100SAPC  H10Y10031   2.364   3.993   3.665 -0.6464  2.5301  0.8563
  100SAPC  C31110032   2.563   4.035   3.745  0.1875 -0.0546  0.3120
  100SAPC  H11X10033   2.580   4.145   3.745 -0.1835  0.0587 -1.7994
  100SAPC  H11Y10034   2.664   3.997   3.722 -0.6136 -1.9684 -0.2354
  100SAPC  C31210035   2.517   3.986   3.878 -0.0868 -0.6464  0.2066
  100SAPC  H12X10036   2.546   3.880   3.897  0.7973 -0.3479  0.5605
  100SAPC  H12Y10037   2.408   4.002   3.890 -0.0126 -0.6254  0.8912
  100SAPC  C31310038   2.579   4.060   3.995  0.2832  0.0550 -0.3456
  100SAPC  H13X10039   2.566   4.168   3.973  1.8036  0.3327  0.0195
  100SAPC  H13Y10040   2.687   4.035   3.996  0.0815 -0.9155  1.4385
  100SAPC  C31410041   2.522   4.041   4.136  0.1430  0.1886 -0.5442
  100SAPC  H14X10042   2.577   4.113   4.200  2.3538  1.0173 -3.2000
  100SAPC  H14Y10043   2.534   3.933   4.163 -0.0812 -0.0614 -1.4080
  100SAPC  C31510044   2.367   4.064   4.148 -0.3558 -0.7381 -0.2047
  100SAPC  H15X10045   2.315   3.984   4.091 -1.2395  0.1476 -0.6627
  100SAPC  H15Y10046   2.346   4.164   4.105 -0.5235 -0.7935 -0.2495
  100SAPC  C31610047   2.302   4.082   4.292 -0.4592 -0.4486  0.7822
  100SAPC  H16X10048   2.291   3.983   4.342  0.1132 -0.3686  1.0701
  100SAPC  H16Y10049   2.200   4.122   4.273  0.1138  0.8677  0.3786
  100SAPC  C31710050   2.384   4.182   4.379 -0.4039  0.1936 -0.4550
  100SAPC  H17X10051   2.431   4.264   4.321  0.5795  0.0479  0.1149
  100SAPC  H17Y10052   2.462   4.140   4.446 -0.7649  1.5985  0.9210
  100SAPC  C31810053   2.293   4.249   4.478  0.3103 -0.6679 -0.5412
  100SAPC  H18X10054   2.216   4.309   4.424 -0.6439  0.1489  1.6234
  100SAPC  H18Y10055   2.346   4.322   4.543 -2.8025  1.2845  0.0140
  100SAPC  H18Z10056   2.233   4.176   4.536 -1.4631  0.9046 -0.3010
  101OSM      N10057   5.252   3.363   6.635 -0.1745 -0.2772  0.3096
  101OSM    C1510058   5.288   3.229   6.688 -0.8738 -0.5713  0.7142
  101OSM   H15A10059   5.210   3.177   6.742 -1.4886  0.3080  0.7033
  101OSM   H15B10060   5.372   3.237   6.755  0.0361  1.4411 -0.5784
  101OSM   H15C10061   5.300   3.168   6.600  2.7570  2.5267 -1.2370
  101OSM    C1410062   5.205   3.440   6.759 -0.3386 -0.5553  0.6708
  101OSM   H14A10063   5.293   3.472   6.813  1.2433 -0.7981 -1.6309
  101OSM   H14B10064   5.140   3.390   6.830 -1.3786 -1.8023 -1.0934
  101OSM   H14C10065   5.169   3.537   6.727  0.1246 -0.9138 -0.9751
  101OSM    C1310066   5.376   3.430   6.579  0.0771 -0.8445  0.1258
  101OSM   H13A10067   5.458   3.415   6.648  0.6917 -1.1840 -0.6668
  101OSM   H13B10068   5.362   3.535   6.557  2.2495 -0.8090 -1.3794
  101OSM   H13C10069   5.410   3.392   6.484  2.5300  0.1516  0.5321
  101OSM    C1210070   5.141   3.348   6.541  0.6960 -0.2965 -0.5775
  101OSM   H12A10071   5.110   3.446   6.509 -1.1469 -0.7659 -0.3227
  101OSM   H12B10072   5.056   3.300   6.588  0.9541  1.1532  1.4919
  101OSM    C1110073   5.164   3.270   6.410  1.3056 -0.0008 -0.3051
  101OSM   H11A10074   5.246   3.319   6.353 -0.4424  1.7102 -1.4479
  101OSM   H11B10075   5.072   3.292   6.352  1.3127  0.1184 -0.2731
  101OSM      P10076   5.082   3.035   6.427 -0.2289 -0.2388  0.3472
  101OSM    O1310077   5.117   2.925   6.521  0.5912  0.3826  0.0321
  101OSM    O1410078   4.953   3.107   6.448  0.2174  0.6441  0.2630
  101OSM    O1110079   5.075   2.968   6.278  0.1415 -0.1284  0.1862
  101OSM    O1210080   5.201   3.134   6.426  0.3710 -0.4306 -0.1614
  101OSM    C1S10081   5.199   2.956   6.202  0.3039 -0.3224 -0.1204
  101OSM    H1S10082   5.236   2.859   6.242 -1.7101 -0.7943  0.7009
  101OSM    H1T10083   5.275   3.036   6.218 -1.3435  0.8125  3.1022
  101OSM     NF10084   5.285   2.919   5.968 -0.6207  0.3066  0.5417
  101OSM    HNF10085   5.336   2.993   5.924 -0.4788 -0.6479 -0.9802
  101OSM    C2S10086   5.167   2.959   6.045 -1.0337 -0.1666 -0.2366
  101OSM    H2S10087   5.083   2.889   6.030  0.4761 -2.1601  0.2420
  101OSM    C3S10088   5.116   3.101   6.000  0.5243 -0.4424  0.4549
  101OSM    H3S10089   5.197   3.169   6.031 -0.1864 -0.0336  1.4738
  101OSM     O310090   5.007   3.157   6.065 -0.0170 -0.2162  0.5230
  101OSM    HO310091   4.991   3.102   6.143 -3.6818  0.2690  0.2771
  101OSM    C4S10092   5.084   3.098   5.847 -0.7703  0.2758 -0.3398
  101OSM    H4S10093   5.180   3.082   5.795 -0.4109  1.3669 -0.0417
  101OSM    C5S10094   4.969   3.096   5.779 -0.4989 -0.2353 -0.1804
  101OSM    H5S10095   4.872   3.101   5.831 -0.3203 -1.0382  0.2343
  101OSM    C6S10096   4.959   3.077   5.634  0.5510 -0.2457  0.0649
  101OSM    H6S10097   4.926   3.173   5.588 -1.2893 -1.5817 -1.5220
  101OSM    H6T10098   4.874   3.007   5.619 -0.7248  1.4241 -0.8596
  101OSM    C7S10099   5.081   3.038   5.538  0.2642  0.0899 -0.0559
  101OSM    H7S10100   5.118   2.934   5.549 -0.2283 -0.1816 -0.8944
  101OSM    H7T10101   5.164   3.111   5.545 -0.2726  0.8303 -1.0917
  101OSM    C8S10102   5.038   3.044   5.390  0.5523  0.0403  0.8804
  101OSM    H8S10103   5.124   3.052   5.319 -0.5959 -1.3743 -0.7526
  101OSM    H8T10104   4.986   3.140   5.372  1.9321  0.7828  0.7248
  101OSM    C9S10105   4.958   2.921   5.342 -0.1742 -0.3791 -0.7876
  101OSM    H9S10106   4.857   2.938   5.384 -0.4122 -0.6141 -1.2634
  101OSM    H9T10107   4.996   2.836   5.402 -3.2194 -0.8519  0.6172
  101OSM   C10S10108   4.961   2.890   5.191  0.0738 -0.1284  0.2821
  101OSM   H10S10109   4.897   2.805   5.158  0.5528 -0.7729  0.9821
  101OSM   H10T10110   5.065   2.869   5.160  0.2099 -0.0461  0.6778
  101OSM   C11S10111   4.907   3.012   5.116  0.3434  0.6258 -0.4807
  101OSM   H11S10112   4.981   3.095   5.118  0.3850  0.5724  0.5710
  101OSM   H11T10113   4.818   3.054   5.167  1.7255  3.6519 -0.3262
  101OSM   C12S10114   4.867   2.975   4.976 -0.0127  0.1077 -0.0420
  101OSM   H12S10115   4.766   3.011   4.950  0.1261  1.4188  1.1280
  101OSM   H12T10116   4.873   2.865   4.961  0.6065  0.2680 -1.1113
  101OSM   C13S10117   4.955   3.039   4.865 -0.4250 -0.3596 -0.6366
  101OSM   H13S10118   5.064   3.020   4.880 -0.3135 -0.6249 -1.6639
  101OSM   H13T10119   4.937   3.148   4.854  0.9926 -0.0555 -0.1969
  101OSM   C14S10120   4.929   2.981   4.729  0.1188  0.1421 -0.7438
  101OSM   H14S10121   4.819   2.995   4.719 -0.0204 -1.6248 -2.2459
  101OSM   H14T10122   4.955   2.873   4.725 -3.0514 -0.7456  0.0059
  101OSM   C15S10123   5.011   3.047   4.621  0.5416  0.4957  0.1615
  101OSM   H15S10124   5.112   3.002   4.636  1.0923  1.5569 -0.2428
  101OSM   H15T10125   5.018   3.155   4.642  1.7076  0.2053  1.3814
  101OSM   C16S10126   4.964   3.023   4.477 -0.3673  0.2825 -0.3871
  101OSM   H16S10127   4.959   2.912   4.477  0.7448  0.2030  0.7458
  101OSM   H16T10128   5.044   3.057   4.408  0.5596  0.3823  0.7072
  101OSM   C17S10129   4.833   3.084   4.442 -0.4657  0.9027  0.3654
  101OSM   H17S10130   4.847   3.194   4.428 -0.6130  0.8403 -0.3149
  101OSM   H17T10131   4.755   3.068   4.519 -0.4621 -2.4569 -0.1979
  101OSM   C18S10132   4.775   3.021   4.322  0.2288  0.4225  0.4610
  101OSM   H18S10133   4.839   3.049   4.236 -0.6473 -1.5315 -0.9174
  101OSM   H18T10134   4.668   3.047   4.307  0.6757  2.8242  1.1576
  101OSM   H18U10135   4.791   2.911   4.321  0.8346  0.4932 -1.1715
  101OSM    C1F10136   5.327   2.793   5.955  0.1575  0.3735 -0.3575
  101OSM     OF10137   5.265   2.704   6.005 -0.5436  0.1533 -0.3718
  101OSM    C2F10138   5.461   2.776   5.887  0.1173 -0.3256  0.0723
  101OSM    H2F10139   5.510   2.694   5.944 -0.5623 -2.0882 -1.7662
  101OSM    H2G10140   5.514   2.867   5.921 -0.1888 -0.1489  0.0817
  101OSM    C3F10141   5.448   2.747   5.737  0.0592 -0.1227 -0.0317
  101OSM    H3F10142   5.363   2.682   5.708 -0.5225  1.0004 -0.8862
  101OSM    H3G10143   5.543   2.690   5.724  0.1139 -0.4958  1.7125
  101OSM    C4F10144   5.436   2.868   5.646 -0.0971  0.3892 -0.6398
  101OSM    H4F10145   5.519   2.938   5.670  1.6007 -1.7338 -0.0574
  101OSM    H4G10146   5.343   2.925   5.667  1.1063  2.4945 -0.6699
  101OSM    C5F10147   5.451   2.839   5.498 -0.6699  0.6323 -0.5164
  101OSM    H5F10148   5.361   2.785   5.463 -0.8716  2.3240 -2.8389
  101OSM    H5G10149   5.537   2.774   5.471 -0.7256  0.7101 -0.8912
  101OSM    C6F10150   5.467   2.962   5.411  0.7517 -0.4427  0.4151
  101OSM    H6F10151   5.563   3.016   5.426  1.0931 -1.4460  1.9685
  101OSM    H6G10152   5.392   3.036   5.445 -0.5211 -1.7833  0.6295
  101OSM    C7F10153   5.436   2.941   5.265 -0.4932 -0.6401 -0.6488
  101OSM    H7F10154   5.325   2.931   5.259 -0.7540  1.0917  0.5721
  101OSM    H7G10155   5.489   2.851   5.225 -2.3700 -0.1310 -4.7899
  101OSM    C8F10156   5.476   3.067   5.178  0.4963  0.3408  0.3734
  101OSM    H8F10157   5.461   3.030   5.075 -0.8562 -1.7183  1.2282
  101OSM    H8G10158   5.586   3.071   5.190  0.6482 -0.5767 -0.6010
  101OSM    C9F10159   5.404   3.198   5.197  0.3364 -0.1277 -0.3362
  101OSM    H9F10160   5.417   3.252   5.292  0.2228  2.7612 -1.8695
  101OSM   C10F10161   5.323   3.266   5.112  0.5371 -0.2610  0.9674
  101OSM   H10F10162   5.289   3.366   5.141 -0.5023  0.2567 -1.7657
  101OSM   C11F10163   5.292   3.226   4.970 -0.2570 -0.1544 -0.0890
  101OSM   H11F10164   5.183   3.237   4.952 -0.1901  0.8538  0.0885
  101OSM   H11G10165   5.310   3.119   4.946  0.6075 -0.2569  0.9288
  101OSM   C12F10166   5.368   3.326   4.879  0.0120 -0.5498 -0.2543
  101OSM   H12F10167   5.477   3.305   4.892 -0.0187  0.6724  2.7616
  101OSM   H12G10168   5.357   3.430   4.915  0.3582 -0.5053 -0.2662
  101OSM   C13F10169   5.324   3.324   4.736 -0.5560  0.2300  0.1192
  101OSM   H13F10170   5.217   3.354   4.740 -0.2803  1.2069  0.4426
  101OSM   H13G10171   5.343   3.221   4.699  0.6958  0.4553  0.0875
  101OSM   C14F10172   5.399   3.427   4.658  0.1062  0.0369 -0.3123
  101OSM   H14F10173   5.508   3.418   4.672  0.1140 -1.3136 -1.0567
  101OSM   H14G10174   5.370   3.532   4.681 -1.3790 -0.5524  0.7201
  101OSM   C15F10175   5.381   3.408   4.504 -0.4513  0.0904  0.3127
  101OSM   H15F10176   5.286   3.354   4.483 -1.0647  1.4725 -0.6334
  101OSM   H15G10177   5.461   3.340   4.471 -1.8506 -0.6788 -1.7036
  101OSM   C16F10178   5.393   3.530   4.415  0.0447 -0.1497 -0.3882
  101OSM   H16F10179   5.484   3.589   4.439 -0.2115  0.4176 -0.7861
  101OSM   H16G10180   5.312   3.606   4.427 -0.1611 -0.3788 -0.3169
  101OSM   C17F10181   5.391   3.501   4.268  0.4713 -0.1129  0.3197
  101OSM   H17F10182   5.288   3.469   4.239  0.3142  0.7908 -0.1626
  101OSM   H17G10183   5.466   3.421   4.253  0.2554 -0.5235  1.3654
  101OSM   C18F10184   5.425   3.634   4.199  0.2329  0.1724  0.4431
  101OSM   H18F10185   5.354   3.715   4.226 -0.1415  0.1839 -0.5384
  101OSM   H18G10186   5.422   3.615   4.090 -0.9027 -0.6046  0.5930
  101OSM   H18H10187   5.525   3.678   4.221 -0.7340  2.4268  0.6327
  102OSM      N10188   5.931   2.382   6.642  0.1392 -0.4127 -0.0286
  102OSM    C1510189   5.927   2.528   6.673 -0.0055  0.3926  0.2103
  102OSM   H15A10190   5.999   2.553   6.750  0.5476  0.8259 -0.4324
  102OSM   H15B10191   5.833   2.549   6.720  0.7819 -0.7410  2.4601
  102OSM   H15C10192   5.945   2.597   6.592  1.7799  3.0683  2.6596
  102OSM    C1410193   6.071   2.350   6.606  0.2593  0.9936 -0.1929
  102OSM   H14A10194   6.071   2.248   6.570  1.7767  1.2797 -1.0759
  102OSM   H14B10195   6.131   2.354   6.696  0.8718 -2.4243 -0.3066
  102OSM   H14C10196   6.110   2.405   6.522 -1.4788 -0.2523 -1.9077
  102OSM    C1310197   5.892   2.302   6.764  0.4817 -0.1024 -0.5730
  102OSM   H13A10198   5.792   2.330   6.792  0.5649 -0.7067  0.4032
  102OSM   H13B10199   5.952   2.328   6.851 -0.6121 -0.2481  0.2451
  102OSM   H13C10200   5.892   2.195   6.750 -2.4319 -0.3305  0.5384
  102OSM    C1210201   5.840   2.357   6.531  0.4332 -0.8041  0.3751
  102OSM   H12A10202   5.863   2.410   6.440  0.6474  1.2754  1.5932
  102OSM   H12B10203   5.743   2.387   6.568 -0.7330 -1.7873 -1.7121
  102OSM    C1110204   5.817   2.208   6.490  0.5219 -0.1126 -0.0081
  102OSM   H11A10205   5.738   2.209   6.412 -1.7718  0.5632  2.1955
  102OSM   H11B10206   5.772   2.151   6.574  2.1263  1.2642  1.9180
  102OSM      P10207   5.989   2.016   6.472 -0.0298 -0.1764  0.0966
  102OSM    O1310208   6.129   2.033   6.495  0.0996  0.4878 -0.2060
  102OSM    O1410209   5.900   1.941   6.564  0.2497 -0.0593 -0.0823
  102OSM    O1110210   5.982   1.951   6.329  0.4137  0.1627 -0.7148
  102OSM    O1210211   5.936   2.156   6.435 -0.3940  0.2258 -0.0138
  102OSM    C1S10212   6.039   2.011   6.216  0.0488  0.8192 -0.1160
  102OSM    H1S10213   6.149   1.993   6.219 -0.1196 -0.1549  0.9292
  102OSM    H1T10214   6.039   2.121   6.228  0.2336  0.8426 -0.3225
  102OSM     NF10215   6.035   1.999   5.965 -0.5878  0.0843  0.6411
  102OSM    HNF10216   5.986   2.056   5.899  0.2895  0.7043  0.5103
  102OSM    C2S10217   5.966   1.968   6.086  0.5917  0.0066  0.5834
  102OSM    H2S10218   5.958   1.858   6.082 -0.2433 -0.0528  2.6181
  102OSM    C3S10219   5.823   2.022   6.084 -0.6476 -0.7984  0.2617
  102OSM    H3S10220   5.822   2.132   6.072 -0.9713 -0.9346 -1.0899
  102OSM     O310221   5.747   2.000   6.204 -0.2361  0.1622 -0.0162
  102OSM    HO310222   5.821   1.991   6.265  1.3984 -0.2963 -1.9491
  102OSM    C4S10223   5.752   1.986   5.958 -0.5058  0.3968 -0.4306
  102OSM    H4S10224   5.744   2.067   5.884  0.0561  1.0295  0.1816
  102OSM    C5S10225   5.692   1.865   5.940  0.6627  0.7596 -0.3096
  102OSM    H5S10226   5.685   1.786   6.017 -2.2149 -0.9429 -2.0934
  102OSM    C6S10227   5.606   1.828   5.824  0.8699 -0.4955  0.8303
  102OSM    H6S10228   5.505   1.815   5.869  0.3581  0.8484  0.1417
  102OSM    H6T10229   5.629   1.728   5.781  0.9316  0.4510 -1.5185
  102OSM    C7S10230   5.609   1.932   5.713 -0.0251 -0.4528  0.4009
  102OSM    H7S10231   5.711   1.939   5.669 -0.5612  0.3379 -0.7907
  102OSM    H7T10232   5.589   2.037   5.745  0.5331  0.2386 -1.3987
  102OSM    C8S10233   5.516   1.887   5.598 -0.3401  0.0741 -0.2362
  102OSM    H8S10234   5.422   1.852   5.646 -0.9202 -0.3488 -1.6548
  102OSM    H8T10235   5.549   1.801   5.537 -0.4021 -0.0068 -0.1557
  102OSM    C9S10236   5.478   2.006   5.498  0.0967 -0.2553  0.6066
  102OSM    H9S10237   5.574   2.045   5.459  1.6574 -1.3362  3.1119
  102OSM    H9T10238   5.421   2.087   5.548 -0.4166  0.1768 -0.6616
  102OSM   C10S10239   5.397   1.944   5.384 -0.0868 -0.8107  0.6599
  102OSM   H10S10240   5.299   1.908   5.423  0.1628 -1.3623  0.7814
  102OSM   H10T10241   5.446   1.851   5.347  2.1453 -0.5687  2.7805
  102OSM   C11S10242   5.370   2.044   5.265  0.2583  0.1034 -0.0634
  102OSM   H11S10243   5.465   2.052   5.208  0.5112  1.3914  0.5039
  102OSM   H11T10244   5.337   2.140   5.311  0.2527  0.7321 -1.3158
  102OSM   C12S10245   5.263   1.995   5.162 -0.1911  0.1663  1.1073
  102OSM   H12S10246   5.244   2.069   5.082 -1.7324 -0.9017  0.4259
  102OSM   H12T10247   5.168   1.959   5.206 -0.2511 -0.3457  0.5808
  102OSM   C13S10248   5.310   1.874   5.064 -0.8675 -0.0314 -0.1583
  102OSM   H13S10249   5.346   1.786   5.121 -0.3296  0.3013  0.0184
  102OSM   H13T10250   5.402   1.910   5.014  0.2266  0.7642  2.2688
  102OSM   C14S10251   5.219   1.855   4.943  0.0106 -0.5798  0.0156
  102OSM   H14S10252   5.120   1.836   4.990 -0.6783  2.9058  0.2562
  102OSM   H14T10253   5.257   1.769   4.885  0.6910  0.9864 -1.9896
  102OSM   C15S10254   5.202   1.969   4.845 -0.8262  0.1836 -0.3433
  102OSM   H15S10255   5.300   1.984   4.795 -0.6427 -1.0510 -0.3963
  102OSM   H15T10256   5.172   2.065   4.892  1.1818  0.9582 -0.5585
  102OSM   C16S10257   5.092   1.939   4.742  0.2175 -0.3832 -0.2189
  102OSM   H16S10258   5.081   2.021   4.667  0.7313 -0.7159 -0.6624
  102OSM   H16T10259   5.002   1.916   4.803  1.3086 -0.3752  1.4660
  102OSM   C17S10260   5.114   1.816   4.654 -0.9393  0.2254 -0.3953
  102OSM   H17S10261   5.149   1.735   4.722 -0.2806  1.0784  0.3002
  102OSM   H17T10262   5.198   1.841   4.585 -2.1389  0.3211 -1.8763
  102OSM   C18S10263   4.996   1.774   4.574 -0.3761 -0.0098  0.4108
  102OSM   H18S10264   5.045   1.707   4.500 -0.2315  1.5587 -0.9805
  102OSM   H18T10265   4.955   1.861   4.518  1.6771  0.6945 -0.0862
  102OSM   H18U10266   4.911   1.724   4.625 -1.5498 -0.5093 -1.8837
  102OSM    C1F10267   6.158   1.957   5.932 -0.0665 -0.0288  0.4538
  102OSM     OF10268   6.230   1.893   6.011  0.4914 -0.4283 -0.4152
  102OSM    C2F10269   6.216   1.982   5.798 -0.2826 -0.2966 -0.0784
  102OSM    H2F10270   6.308   1.921   5.788 -1.2248 -1.6879 -0.5464
  102OSM    H2G10271   6.252   2.087   5.809 -1.6134  0.1504  0.1442
  102OSM    C3F10272   6.129   1.958   5.671  0.0970 -0.4073 -0.1834
  102OSM    H3F10273   6.042   2.026   5.672 -0.0380 -0.4933 -2.1273
  102OSM    H3G10274   6.097   1.854   5.648  0.2455 -0.0682 -2.0971
  102OSM    C4F10275   6.202   2.008   5.546  0.5494 -0.4188  0.2387
  102OSM    H4F10276   6.297   1.952   5.534  1.3311  0.9330  0.0087
  102OSM    H4G10277   6.230   2.113   5.570  0.4434 -1.0245  3.5887
  102OSM    C5F10278   6.108   1.995   5.422  0.1308  0.1039  0.6415
  102OSM    H5F10279   6.004   2.000   5.460 -0.1601 -0.1072 -0.1088
  102OSM    H5G10280   6.124   1.892   5.382  3.2623  0.6327  0.2840
  102OSM    C6F10281   6.144   2.100   5.313  0.2811  0.1903 -0.1187
  102OSM    H6F10282   6.251   2.085   5.285  0.3597  0.4913  0.0145
  102OSM    H6G10283   6.119   2.199   5.356 -0.5640  0.9371 -2.1708
  102OSM    C7F10284   6.058   2.098   5.184  0.0516  0.3586  0.1766
  102OSM    H7F10285   5.955   2.134   5.205  0.0622  0.3173  0.3032
  102OSM    H7G10286   6.050   1.990   5.156 -1.1015  0.9215 -1.8486
  102OSM    C8F10287   6.115   2.188   5.082 -0.3865  0.2089  0.5501
  102OSM    H8F10288   6.223   2.161   5.076 -0.4198 -0.1387  1.3123
  102OSM    H8G10289   6.109   2.289   5.128  1.8568  0.8276 -0.4159
  102OSM    C9F10290   6.045   2.174   4.947  0.3012  0.0896 -0.5966
  102OSM    H9F10291   5.945   2.214   4.924 -0.4362 -2.5580 -2.5262
  102OSM   C10F10292   6.089   2.105   4.839 -0.2890  0.1765 -0.4039
  102OSM   H10F10293   6.037   2.117   4.743 -3.8413  1.3546  1.5037
  102OSM   C11F10294   6.207   2.013   4.824  0.4187 -0.5598 -0.3431
  102OSM   H11F10295   6.271   2.005   4.915 -1.4019 -1.9312  0.9017
  102OSM   H11G10296   6.260   2.037   4.730 -1.1638 -1.3902 -1.4955
  102OSM   C12F10297   6.162   1.860   4.817  0.1759  0.3790  0.4547
  102OSM   H12F10298   6.110   1.830   4.911  0.6353  1.0002  0.9155
  102OSM   H12G10299   6.259   1.807   4.822  0.4171  0.7926  0.1675
  102OSM   C13F10300   6.072   1.813   4.698 -0.0105 -0.6495  0.0239
  102OSM   H13F10301   5.982   1.876   4.685 -0.9425 -1.8810  0.2927
  102OSM   H13G10302   6.034   1.712   4.727  0.8202 -0.7377  0.8433
  102OSM   C14F10303   6.145   1.809   4.556 -0.1283  0.1567 -0.3454
  102OSM   H14F10304   6.158   1.916   4.533 -1.7270  0.3346 -0.4765
  102OSM   H14G10305   6.070   1.777   4.481  0.2302  1.0624 -1.1006
  102OSM   C15F10306   6.283   1.738   4.560 -0.1398  0.0280 -0.1564
  102OSM   H15F10307   6.283   1.641   4.614 -0.5273  0.7329  1.1526
  102OSM   H15G10308   6.350   1.805   4.618 -0.2266  0.1858 -0.2391
  102OSM   C16F10309   6.336   1.704   4.419 -0.4203  0.8505 -0.3567
  102OSM   H16F10310   6.270   1.642   4.356  1.7866 -0.8381 -1.1476
  102OSM   H16G10311   6.426   1.640   4.435  1.5111  2.8879 -2.2569
  102OSM   C17F10312   6.374   1.828   4.341 -0.2214 -0.4764  0.3665
  102OSM   H17F10313   6.420   1.909   4.401 -2.7451  1.8436 -0.6264
  102OSM   H17G10314   6.283   1.876   4.300 -0.9160  0.4728  2.8896
  102OSM   C18F10315   6.468   1.791   4.220 -0.2712 -0.1113 -0.1311
  102OSM   H18F10316   6.463   1.878   4.150 -1.4273 -1.4433 -1.7990
  102OSM   H18G10317   6.427   1.699   4.173  0.4083  0.7875 -2.6582
  102OSM   H18H10318   6.573   1.772   4.249 -0.8058 -0.5742  1.6053
  103OSM      N10319   4.482   4.047   6.886  0.6089  0.3405 -0.0995
  103OSM    C1510320   4.434   3.927   6.964  0.6691 -0.1369  0.5347
  103OSM   H15A10321   4.493   3.837   6.954  2.3522  1.0865 -1.3973
  103OSM   H15B10322   4.333   3.911   6.930  1.0846 -0.8756 -0.4027
  103OSM   H15C10323   4.432   3.945   7.070 -1.0039  1.1058  0.3277
  103OSM    C1410324   4.445   4.030   6.739  0.0226  0.0539 -0.1297
  103OSM   H14A10325   4.479   3.936   6.700  0.0249  0.8665 -2.2538
  103OSM   H14B10326   4.492   4.108   6.681  0.7004 -0.5060 -0.3395
  103OSM   H14C10327   4.337   4.039   6.731  0.0072 -0.3323 -0.3726
  103OSM    C1310328   4.401   4.164   6.929  0.4547  0.1504  0.1639
  103OSM   H13A10329   4.433   4.249   6.872 -0.5312 -0.0621 -0.7448
  103OSM   H13B10330   4.430   4.197   7.027 -1.3728  0.5146  0.6196
  103OSM   H13C10331   4.293   4.153   6.923  0.4679 -1.2595  1.7539
  103OSM    C1210332   4.634   4.058   6.905  0.1908 -0.3776  0.2512
  103OSM   H12A10333   4.670   3.962   6.871 -1.2564 -0.2613 -1.8284
  103OSM   H12B10334   4.660   4.062   7.010  1.7522 -1.9486 -0.0297
  103OSM    C1110335   4.714   4.174   6.835  0.5383 -0.3882 -1.2527
  103OSM   H11A10336   4.657   4.191   6.741  0.0339 -0.9687 -1.0571
  103OSM   H11B10337   4.814   4.129   6.814  2.4031  1.0250  3.3671
  103OSM      P10338   4.693   4.429   6.895 -0.0599  0.2762 -0.2971
  103OSM    O1310339   4.578   4.455   6.981  0.4068  0.1859 -0.3030
  103OSM    O1410340   4.803   4.528   6.899 -0.5656  0.1362 -0.8070
  103OSM    O1110341   4.652   4.423   6.746  0.1239  0.0605 -0.1544
  103OSM    O1210342   4.735   4.281   6.924  0.1633 -0.1695  0.2904
  103OSM    C1S10343   4.566   4.527   6.692  0.2358 -0.2837  0.5771
  103OSM    H1S10344   4.605   4.626   6.723 -0.8289  0.7773 -1.3503
  103OSM    H1T10345   4.462   4.515   6.730  0.0776 -2.4622 -0.3837
  103OSM     NF10346   4.493   4.653   6.488 -0.1373 -0.5376 -0.1139
  103OSM    HNF10347   4.396   4.654   6.467 -0.7022 -1.3184  2.2088
  103OSM    C2S10348   4.541   4.523   6.540  0.2526  0.1506 -0.2446
  103OSM    H2S10349   4.636   4.505   6.485 -0.3485  1.8357 -1.9604
  103OSM    C3S10350   4.444   4.402   6.511 -0.1009  0.1208 -0.2114
  103OSM    H3S10351   4.350   4.424   6.564  0.3680  2.5271 -0.2766
  103OSM     O310352   4.492   4.274   6.560  0.4071  0.5852  0.0286
  103OSM    HO310353   4.537   4.298   6.642 -1.5111  1.8296  0.8051
  103OSM    C4S10354   4.412   4.404   6.363 -0.1029 -0.0434 -0.6261
  103OSM    H4S10355   4.318   4.450   6.331 -0.6325 -0.8164 -0.2038
  103OSM    C5S10356   4.497   4.358   6.268  0.3613 -0.2771  0.3213
  103OSM    H5S10357   4.595   4.319   6.298  0.9149 -0.5808 -1.7196
  103OSM    C6S10358   4.470   4.356   6.120 -0.1937  0.2950 -0.1099
  103OSM    H6S10359   4.361   4.352   6.100 -0.3273 -0.9503  0.7748
  103OSM    H6T10360   4.501   4.256   6.084  2.0807 -0.1707  2.7717
  103OSM    C7S10361   4.550   4.455   6.036 -0.9338  0.1711  0.4139
  103OSM    H7S10362   4.657   4.425   6.045 -1.5354 -1.5419  3.0613
  103OSM    H7T10363   4.536   4.563   6.059  1.1236  0.3800  0.9022
  103OSM    C8S10364   4.514   4.451   5.884  0.8025  0.4683  0.5664
  103OSM    H8S10365   4.413   4.495   5.870  1.3078  1.7769  0.8690
  103OSM    H8T10366   4.506   4.347   5.848  0.1468  0.6640  0.1319
  103OSM    C9S10367   4.602   4.528   5.795 -0.0595 -0.2095 -0.5496
  103OSM    H9S10368   4.709   4.502   5.813  0.0096 -0.5694 -1.4126
  103OSM    H9T10369   4.586   4.636   5.819 -2.8545  0.1383 -3.3975
  103OSM   C10S10370   4.569   4.498   5.650 -0.0143  0.7023 -0.1924
  103OSM   H10S10371   4.465   4.535   5.641 -0.6562 -0.8420  0.6109
  103OSM   H10T10372   4.566   4.387   5.644 -0.6956  0.8118 -3.3820
  103OSM   C11S10373   4.675   4.558   5.557  0.2756  0.2478  0.1055
  103OSM   H11S10374   4.772   4.514   5.589 -0.2505  0.6944  2.4893
  103OSM   H11T10375   4.686   4.665   5.584  2.8740 -0.4456  2.2288
  103OSM   C12S10376   4.657   4.532   5.411 -0.1700  0.1967 -0.4429
  103OSM   H12S10377   4.550   4.548   5.385 -0.7113 -1.3445  0.7341
  103OSM   H12T10378   4.701   4.437   5.375 -0.0306 -0.4498  1.3339
  103OSM   C13S10379   4.734   4.647   5.336 -0.3864 -0.2727  1.0864
  103OSM   H13S10380   4.842   4.649   5.362 -0.6638 -1.3051  2.3803
  103OSM   H13T10381   4.691   4.743   5.373  2.0893  0.5741  1.9556
  103OSM   C14S10382   4.707   4.643   5.184 -0.5115  0.5924  0.0189
  103OSM   H14S10383   4.596   4.654   5.182 -0.7789 -0.1872  3.5566
  103OSM   H14T10384   4.736   4.542   5.147 -3.1532 -0.2574  0.0291
  103OSM   C15S10385   4.767   4.758   5.116  0.6654 -0.3033 -0.0380
  103OSM   H15S10386   4.876   4.742   5.124  0.8034  0.4888 -0.1956
  103OSM   H15T10387   4.731   4.856   5.155  3.9193  1.0000 -0.0279
  103OSM   C16S10388   4.742   4.758   4.960  0.4436  0.1324 -0.6209
  103OSM   H16S10389   4.815   4.821   4.904  0.8227 -0.4225 -0.7672
  103OSM   H16T10390   4.646   4.809   4.938  1.4051  1.1010 -3.0003
  103OSM   C17S10391   4.736   4.626   4.876 -0.0204 -0.0867 -0.2942
  103OSM   H17S10392   4.697   4.655   4.776 -0.2521 -0.4756 -0.3182
  103OSM   H17T10393   4.666   4.567   4.938 -1.0715  2.3178  0.9444
  103OSM   C18S10394   4.872   4.550   4.865 -0.1238  0.4482  0.6571
  103OSM   H18S10395   4.906   4.494   4.955  0.1000 -0.2172  0.1703
  103OSM   H18T10396   4.950   4.618   4.826  0.5550 -1.1067 -0.8530
  103OSM   H18U10397   4.876   4.486   4.774  1.1117  3.1060 -1.2916
  103OSM    C1F10398   4.556   4.767   6.516  0.4497 -0.3562 -0.3821
  103OSM     OF10399   4.673   4.765   6.555  0.4401 -0.5914 -0.6859
  103OSM    C2F10400   4.486   4.901   6.500  0.2799  0.2452 -0.7934
  103OSM    H2F10401   4.528   4.967   6.579 -1.4090  2.2702 -1.4992
  103OSM    H2G10402   4.381   4.872   6.522  0.9184 -1.5298  0.1275
  103OSM    C3F10403   4.496   4.962   6.359  0.2739 -0.1441 -0.2090
  103OSM    H3F10404   4.603   4.978   6.337  0.1913  0.9999  0.1487
  103OSM    H3G10405   4.451   5.063   6.354 -1.3038 -0.7028  1.4707
  103OSM    C4F10406   4.431   4.873   6.248 -0.5681  0.6007 -0.1271
  103OSM    H4F10407   4.336   4.821   6.271 -0.0931 -0.6541 -0.8405
  103OSM    H4G10408   4.509   4.797   6.222  0.0053  1.4410 -0.9204
  103OSM    C5F10409   4.414   4.964   6.126  0.4527 -0.5350  0.2471
  103OSM    H5F10410   4.509   5.017   6.104 -0.2533  0.8264  0.3563
  103OSM    H5G10411   4.349   5.041   6.173  0.9599  0.2817 -0.3632
  103OSM    C6F10412   4.363   4.878   6.011 -0.2099  0.0991  0.3840
  103OSM    H6F10413   4.264   4.831   6.029 -0.8019 -0.4725 -3.3848
  103OSM    H6G10414   4.437   4.799   5.988 -0.1861 -0.1908  1.4109
  103OSM    C7F10415   4.343   4.977   5.890  0.7111  0.3057  0.3227
  103OSM    H7F10416   4.428   5.048   5.886 -0.1779  1.3489 -0.4098
  103OSM    H7G10417   4.253   5.034   5.922 -0.7560 -0.5571 -2.0565
  103OSM    C8F10418   4.316   4.917   5.755 -0.2525 -0.2612  0.0319
  103OSM    H8F10419   4.231   4.847   5.764  1.7834 -2.6676  2.1605
  103OSM    H8G10420   4.410   4.861   5.735  1.7478  3.4227 -2.0809
  103OSM    C9F10421   4.308   5.031   5.652  0.7228 -0.4111  0.1078
  103OSM    H9F10422   4.272   5.122   5.701  2.2068  1.0413 -1.3848
  103OSM   C10F10423   4.352   5.031   5.523 -0.4065 -0.0424 -0.5753
  103OSM   H10F10424   4.342   5.126   5.469  0.1062  0.7015  0.6206
  103OSM   C11F10425   4.404   4.910   5.445  0.6252 -0.2477 -0.3711
  103OSM   H11F10426   4.402   4.817   5.506 -1.0232  1.1823  1.9560
  103OSM   H11G10427   4.509   4.928   5.414  0.7627 -0.9755 -0.3342
  103OSM   C12F10428   4.304   4.893   5.326  0.0596 -0.6169  0.5406
  103OSM   H12F10429   4.282   4.989   5.276 -0.9397  0.1808  2.4356
  103OSM   H12G10430   4.207   4.870   5.374  0.7045 -0.1924  2.1354
  103OSM   C13F10431   4.332   4.789   5.217  0.2207 -0.7812  0.2166
  103OSM   H13F10432   4.323   4.693   5.272  1.0633  0.4631  2.6622
  103OSM   H13G10433   4.429   4.809   5.167 -0.6148  0.4734 -0.9786
  103OSM   C14F10434   4.233   4.810   5.095 -0.1106 -0.2326  0.8246
  103OSM   H14F10435   4.242   4.918   5.069  1.6713  0.2232  2.9689
  103OSM   H14G10436   4.129   4.784   5.124 -0.4596  0.9441  0.7048
  103OSM   C15F10437   4.267   4.723   4.971  0.0670 -0.0901  0.5349
  103OSM   H15F10438   4.271   4.619   5.010 -1.0155 -0.5673 -0.5507
  103OSM   H15G10439   4.374   4.734   4.940  0.3351  0.4339  1.5685
  103OSM   C16F10440   4.180   4.759   4.847  0.1120 -0.1240  0.0330
  103OSM   H16F10441   4.196   4.864   4.815  0.4481 -0.5141 -1.1401
  103OSM   H16G10442   4.071   4.754   4.866 -0.2562  2.2537 -1.0212
  103OSM   C17F10443   4.202   4.649   4.736 -0.4967 -0.1192 -0.3266
  103OSM   H17F10444   4.142   4.562   4.768 -1.5597  0.1410 -1.5170
  103OSM   H17G10445   4.309   4.619   4.731 -0.9072 -1.6321 -0.5291
  103OSM   C18F10446   4.159   4.694   4.595 -0.1066 -0.0308 -0.2037
  103OSM   H18F10447   4.050   4.714   4.600 -0.6007 -2.4811 -0.2061
  103OSM   H18G10448   4.174   4.616   4.517  2.9486  0.1990  0.0159
  103OSM   H18H10449   4.220   4.781   4.560 -0.4530 -0.0781 -0.9483
  104OSM      N10450   6.193   1.195   6.460 -0.1244  0.4790 -0.4490
  104OSM    C1510451   6.319   1.267   6.441  0.8222 -0.1833 -0.7926
  104OSM   H15A10452   6.337   1.276   6.335  1.8209  0.0440 -0.6172
  104OSM   H15B10453   6.400   1.197   6.458 -0.4135 -1.6067 -0.5338
  104OSM   H15C10454   6.326   1.355   6.503  1.1696 -0.3586 -0.5782
  104OSM    C1410455   6.090   1.286   6.396 -0.2589  0.4283 -0.1799
  104OSM   H14A10456   6.121   1.316   6.297 -0.7131 -0.5283 -0.6299
  104OSM   H14B10457   6.072   1.374   6.455 -0.2550 -1.0802  2.1921
  104OSM   H14C10458   5.999   1.228   6.391  1.2809 -2.3044  1.0133
  104OSM    C1310459   6.213   1.061   6.398 -0.4448  0.0713 -0.3512
  104OSM   H13A10460   6.131   0.992   6.413  0.3316 -0.7356  0.2582
  104OSM   H13B10461   6.291   1.006   6.448 -1.1486  1.1755  2.1184
  104OSM   H13C10462   6.238   1.058   6.293  1.5694 -4.0468  0.0311
  104OSM    C1210463   6.172   1.165   6.607 -0.5184 -0.8238  0.1488
  104OSM   H12A10464   6.091   1.094   6.614 -0.3144 -1.0000  0.8084
  104OSM   H12B10465   6.132   1.255   6.651  0.0003  0.2378 -1.4392
  104OSM    C1110466   6.293   1.122   6.693  0.4517 -0.5419 -0.2824
  104OSM   H11A10467   6.269   1.097   6.799 -0.5129  1.5422  0.0393
  104OSM   H11B10468   6.357   1.213   6.700 -2.3944  1.5039  4.0143
  104OSM      P10469   6.515   0.979   6.635 -0.6865 -0.4972 -0.8363
  104OSM    O1310470   6.573   1.043   6.758  0.3357 -0.2268  0.0727
  104OSM    O1410471   6.543   0.837   6.623  0.2734 -0.7406  0.2435
  104OSM    O1110472   6.556   1.054   6.506 -0.2184  0.0797  0.0157
  104OSM    O1210473   6.360   1.003   6.634  0.2035  0.3372  0.1311
  104OSM    C1S10474   6.585   0.985   6.382  0.1097 -0.4211  0.0053
  104OSM    H1S10475   6.496   0.927   6.348  0.1476 -1.0668  0.9698
  104OSM    H1T10476   6.670   0.914   6.394  0.4354 -0.0419 -0.0490
  104OSM     NF10477   6.616   1.014   6.145 -0.1005  0.3942 -0.4617
  104OSM    HNF10478   6.695   0.964   6.112  1.4888  1.3648  1.6793
  104OSM    C2S10479   6.624   1.087   6.274 -0.0835  0.2897  0.6564
  104OSM    H2S10480   6.540   1.160   6.265 -0.9349 -0.8724 -2.0546
  104OSM    C3S10481   6.757   1.152   6.308 -0.1549 -0.1802  0.7383
  104OSM    H3S10482   6.844   1.093   6.340  0.3541  2.0631  3.9813
  104OSM     O310483   6.746   1.226   6.427 -0.8078  0.5424 -0.0997
  104OSM    HO310484   6.662   1.199   6.465  0.2815  1.1652  3.1481
  104OSM    C4S10485   6.812   1.223   6.192 -0.5376 -0.2544 -0.0472
  104OSM    H4S10486   6.889   1.169   6.135 -0.7649 -1.8039  1.0482
  104OSM    C5S10487   6.790   1.351   6.159  0.5092  0.6070 -0.3378
  104OSM    H5S10488   6.720   1.404   6.225  0.7376 -0.9681  1.2064
  104OSM    C6S10489   6.863   1.430   6.049  0.1923 -0.0558 -0.7181
  104OSM    H6S10490   6.918   1.512   6.099 -1.0697 -0.2018  1.0157
  104OSM    H6T10491   6.787   1.477   5.982  1.2567 -0.6206 -2.3811
  104OSM    C7S10492   6.960   1.360   5.961 -0.7112 -0.3361 -0.0169
  104OSM    H7S10493   6.919   1.263   5.928 -0.4488 -0.1249 -1.0087
  104OSM    H7T10494   7.056   1.333   6.010 -0.2677  3.6804  1.7690
  104OSM    C8S10495   7.017   1.441   5.838  0.5341 -0.7039  0.1124
  104OSM    H8S10496   7.104   1.385   5.798  1.6220  1.7436 -1.2185
  104OSM    H8T10497   7.044   1.547   5.862  0.0485  0.0049 -2.1755
  104OSM    C9S10498   6.918   1.463   5.727 -0.4099 -0.6230  0.8495
  104OSM    H9S10499   6.865   1.557   5.753  1.6935  1.1073 -0.7419
  104OSM    H9T10500   6.849   1.375   5.722 -0.1755 -0.8104  0.9019
  104OSM   C10S10501   6.976   1.488   5.586  0.1304  0.4163  0.0773
  104OSM   H10S10502   7.031   1.398   5.552 -1.0186  0.5628 -2.3762
  104OSM   H10T10503   7.041   1.578   5.592  0.9164 -0.0393 -1.3403
  104OSM   C11S10504   6.869   1.519   5.473 -0.2805  0.0646 -0.7883
  104OSM   H11S10505   6.805   1.605   5.502  0.9018  0.9605 -0.7257
  104OSM   H11T10506   6.807   1.429   5.457 -2.4530  1.6674 -1.9630
  104OSM   C12S10507   6.951   1.562   5.343 -0.7591 -0.4133  0.2689
  104OSM   H12S10508   7.035   1.492   5.326 -0.7904  0.0996 -2.4205
  104OSM   H12T10509   6.991   1.664   5.362 -0.7842 -0.6458  1.7181
  104OSM   C13S10510   6.861   1.573   5.216  0.2284  0.4217 -0.2212
  104OSM   H13S10511   6.781   1.648   5.230  1.3835  1.7270 -0.3780
  104OSM   H13T10512   6.814   1.472   5.207 -0.9858  1.0270 -0.9746
  104OSM   C14S10513   6.944   1.595   5.085  0.4496  0.1828  1.2636
  104OSM   H14S10514   7.046   1.552   5.086  0.6130  0.5508  0.9246
  104OSM   H14T10515   6.970   1.703   5.088  0.7296  0.3667 -2.5944
  104OSM   C15S10516   6.867   1.577   4.954 -0.0756 -0.4369 -0.2945
  104OSM   H15S10517   6.918   1.645   4.882 -1.3194  0.3991 -0.4150
  104OSM   H15T10518   6.763   1.613   4.968  0.1848 -0.2518  1.3803
  104OSM   C16S10519   6.869   1.436   4.906  0.7456  0.1450  0.9099
  104OSM   H16S10520   6.809   1.383   4.984 -1.0025  1.3453  0.4256
  104OSM   H16T10521   6.975   1.405   4.918  0.5516 -0.5791  0.8077
  104OSM   C17S10522   6.803   1.405   4.768 -0.0091 -0.8840 -0.5560
  104OSM   H17S10523   6.693   1.413   4.772 -0.0550 -2.0372  1.3750
  104OSM   H17T10524   6.813   1.296   4.747  0.7576 -0.5172 -2.3523
  104OSM   C18S10525   6.863   1.493   4.658  0.3258 -1.3656  1.0786
  104OSM   H18S10526   6.824   1.455   4.561  1.6685 -1.9926  0.7598
  104OSM   H18T10527   6.974   1.494   4.645  0.2262 -3.1964 -0.3938
  104OSM   H18U10528   6.827   1.597   4.675 -0.2649 -0.9141 -2.1492
  104OSM    C1F10529   6.499   0.991   6.092 -0.2754 -0.1515  0.2939
  104OSM     OF10530   6.395   1.023   6.145  0.2628 -0.3586 -0.6656
  104OSM    C2F10531   6.513   0.916   5.967 -0.1454 -1.0742  0.8349
  104OSM    H2F10532   6.547   0.815   5.998 -1.2045 -1.4727  0.7619
  104OSM    H2G10533   6.589   0.965   5.904 -0.0184 -1.8931  0.3328
  104OSM    C3F10534   6.384   0.907   5.881  0.0051 -0.9814 -0.6089
  104OSM    H3F10535   6.339   1.008   5.866  0.2877 -0.9602 -1.3533
  104OSM    H3G10536   6.309   0.845   5.934 -1.2464  2.2207  1.7310
  104OSM    C4F10537   6.411   0.831   5.751 -0.3765  0.2298  0.6608
  104OSM    H4F10538   6.320   0.772   5.725  0.9321 -2.4708  1.7919
  104OSM    H4G10539   6.493   0.758   5.765 -0.1004 -0.0673 -1.9725
  104OSM    C5F10540   6.444   0.926   5.639 -0.1687  0.4401 -0.3523
  104OSM    H5F10541   6.521   0.995   5.680 -0.4269  0.0002  0.8929
  104OSM    H5G10542   6.367   0.998   5.605 -0.5174 -0.5369 -1.7458
  104OSM    C6F10543   6.479   0.836   5.519 -0.1077 -0.3878 -0.8633
  104OSM    H6F10544   6.412   0.747   5.514 -1.2901  0.3747  0.6532
  104OSM    H6G10545   6.580   0.794   5.539  0.2636  0.0404 -1.8016
  104OSM    C7F10546   6.473   0.897   5.377  0.2191 -0.0067  0.2699
  104OSM    H7F10547   6.531   0.814   5.331  0.5532  0.6068 -0.4242
  104OSM    H7G10548   6.522   0.997   5.374  0.8199 -0.2629  0.9564
  104OSM    C8F10549   6.335   0.897   5.310  0.4550  0.6705 -0.0640
  104OSM    H8F10550   6.273   0.979   5.351 -2.0987 -0.9299 -0.4889
  104OSM    H8G10551   6.288   0.802   5.344  2.9883 -0.6994 -0.1471
  104OSM    C9F10552   6.344   0.909   5.161  0.2782 -0.1757 -0.8477
  104OSM    H9F10553   6.416   0.979   5.117  1.9483 -1.2379  0.0886
  104OSM   C10F10554   6.275   0.835   5.079  0.3666  0.2173  0.2598
  104OSM   H10F10555   6.287   0.861   4.973 -1.3658  1.8755  0.4031
  104OSM   C11F10556   6.180   0.724   5.112 -0.0250  0.4473  0.0023
  104OSM   H11F10557   6.090   0.781   5.144 -1.3872 -2.0062  0.8135
  104OSM   H11G10558   6.211   0.668   5.203  0.7155 -1.5365 -1.4164
  104OSM   C12F10559   6.153   0.623   4.996  0.9839 -0.4210 -0.2855
  104OSM   H12F10560   6.115   0.675   4.906  1.1173 -0.5247 -0.4021
  104OSM   H12G10561   6.080   0.550   5.036 -0.5164  1.1585 -0.0109
  104OSM   C13F10562   6.274   0.539   4.969 -0.3699  0.1870 -0.5703
  104OSM   H13F10563   6.311   0.514   5.071 -1.4900  2.6886  0.5472
  104OSM   H13G10564   6.357   0.596   4.921 -0.5521  0.4294 -0.6008
  104OSM   C14F10565   6.251   0.405   4.896 -0.0383  0.1094  0.2394
  104OSM   H14F10566   6.206   0.328   4.962  1.8881 -1.5402 -0.3031
  104OSM   H14G10567   6.350   0.364   4.869 -0.3024  0.3554 -1.1966
  104OSM   C15F10568   6.172   0.419   4.759  0.8193  0.2350  0.5375
  104OSM   H15F10569   6.217   0.489   4.685 -1.3828  1.7283  0.5060
  104OSM   H15G10570   6.072   0.458   4.787  1.5276  1.5597  1.3498
  104OSM   C16F10571   6.164   0.277   4.689 -0.0833  0.3873 -0.5940
  104OSM   H16F10572   6.080   0.258   4.620 -0.4985 -1.0498  0.2666
  104OSM   H16G10573   6.164   0.198   4.767 -2.0336  0.2290 -0.7243
  104OSM   C17F10574   6.290   0.255   4.604 -0.3651 -0.7452  0.2981
  104OSM   H17F10575   6.377   0.244   4.672 -0.5187  1.8461  1.0121
  104OSM   H17G10576   6.304   0.347   4.543  0.8196 -0.8388  0.4145
  104OSM   C18F10577   6.278   0.137   4.501 -0.2402  0.3760  0.0793
  104OSM   H18F10578   6.376   0.140   4.448  0.2282  0.7868  0.9417
  104OSM   H18G10579   6.201   0.165   4.426  0.5407  0.7628 -0.5918
  104OSM   H18H10580   6.269   0.037   4.548 -1.3453  1.1232  1.5293
  105OSM      N10581   0.950   2.346   7.237  0.3206  0.5971 -0.0636
  105OSM    C1510582   1.010   2.481   7.267 -0.7707 -0.8501  0.2146
  105OSM   H15A10583   1.044   2.527   7.175 -2.0503  3.5549  1.6783
  105OSM   H15B10584   1.092   2.466   7.336 -0.6620 -0.7000  0.1186
  105OSM   H15C10585   0.940   2.547   7.315  0.0316 -0.4557  0.8741
  105OSM    C1410586   1.063   2.264   7.172  0.3973 -0.4796  0.2263
  105OSM   H14A10587   1.038   2.163   7.145  0.1769  0.1358 -2.0892
  105OSM   H14B10588   1.148   2.268   7.238  0.6597 -1.8750  0.0068
  105OSM   H14C10589   1.097   2.301   7.076  1.2687  1.6056  1.2739
  105OSM    C1310590   0.918   2.278   7.362 -0.2329 -0.2655  0.3532
  105OSM   H13A10591   0.831   2.318   7.411  1.9817  4.5932  0.8638
  105OSM   H13B10592   1.001   2.290   7.430  1.1168 -3.1063 -0.6322
  105OSM   H13C10593   0.911   2.171   7.345 -0.9584  0.0460 -1.6546
  105OSM    C1210594   0.834   2.364   7.147  0.3931  1.0032 -0.1115
  105OSM   H12A10595   0.867   2.419   7.060  1.8362 -2.6353 -2.1154
  105OSM   H12B10596   0.752   2.412   7.198  0.3254 -0.4321  1.2075
  105OSM    C1110597   0.771   2.241   7.082 -0.5074  0.2298 -0.5812
  105OSM   H11A10598   0.678   2.268   7.028 -1.8623 -0.4399  1.2928
  105OSM   H11B10599   0.733   2.172   7.161 -2.0035 -0.4119 -1.8190
  105OSM      P10600   0.862   2.021   6.956  0.0252 -0.3114  0.0804
  105OSM    O1310601   0.982   1.995   6.876  0.2790 -0.0272  0.3022
  105OSM    O1410602   0.835   1.941   7.079  0.3271 -0.4437 -0.5210
  105OSM    O1110603   0.740   2.010   6.853 -0.5842  0.1210 -0.0586
  105OSM    O1210604   0.856   2.178   6.992 -0.3979  0.0837 -0.1806
  105OSM    C1S10605   0.737   2.123   6.754  0.3021  0.7073  0.2302
  105OSM    H1S10606   0.777   2.221   6.786  1.5685 -0.2790  1.8391
  105OSM    H1T10607   0.629   2.142   6.734  0.3176 -0.9557 -1.7397
  105OSM     NF10608   0.809   2.188   6.520  0.1973 -0.2968  0.0776
  105OSM    HNF10609   0.746   2.183   6.444  0.4378 -1.4634 -0.0638
  105OSM    C2S10610   0.800   2.082   6.618 -0.4488 -0.5013  0.6005
  105OSM    H2S10611   0.903   2.041   6.626 -0.5023 -0.8315 -0.3375
  105OSM    C3S10612   0.700   1.971   6.569  0.5201 -0.8794  0.0276
  105OSM    H3S10613   0.599   2.015   6.564  1.0794  0.7868  1.9410
  105OSM     O310614   0.688   1.859   6.652 -0.0657 -0.2321 -0.3084
  105OSM    HO310615   0.725   1.893   6.734  0.0545  2.4964 -1.3725
  105OSM    C4S10616   0.736   1.918   6.432 -0.1218 -0.2617  0.2382
  105OSM    H4S10617   0.844   1.906   6.423 -0.1598  0.6592 -2.2350
  105OSM    C5S10618   0.651   1.909   6.328  0.4101  0.0546 -0.4866
  105OSM    H5S10619   0.547   1.934   6.353  0.6509  0.1627  0.4728
  105OSM    C6S10620   0.685   1.863   6.190  0.7699  0.6213 -0.0004
  105OSM    H6S10621   0.628   1.922   6.115 -0.5074  0.1443  0.5719
  105OSM    H6T10622   0.651   1.758   6.192  0.8743  0.5923  1.7130
  105OSM    C7S10623   0.835   1.872   6.146  0.4204  0.4248 -0.4617
  105OSM    H7S10624   0.902   1.818   6.217 -1.2707  0.4431  1.2194
  105OSM    H7T10625   0.864   1.979   6.152  5.1375 -0.5443 -1.7341
  105OSM    C8S10626   0.878   1.823   6.001  0.6196 -0.5690  0.0586
  105OSM    H8S10627   0.810   1.863   5.923  1.0291  0.6410  0.3065
  105OSM    H8T10628   0.864   1.714   5.983  0.4607 -0.4725 -0.4145
  105OSM    C9S10629   1.026   1.850   5.963  0.0632  0.8158 -0.3742
  105OSM    H9S10630   1.092   1.798   6.036  0.2173  2.4860  0.7422
  105OSM    H9T10631   1.048   1.959   5.967  1.1058  0.6125 -0.3884
  105OSM   C10S10632   1.066   1.793   5.832  0.3913  0.6258  0.0288
  105OSM   H10S10633   1.007   1.698   5.831  1.5483 -0.3437  4.3030
  105OSM   H10T10634   1.171   1.758   5.842  0.1744 -0.5151 -1.2877
  105OSM   C11S10635   1.043   1.882   5.711  0.0279  0.1606 -0.4532
  105OSM   H11S10636   1.135   1.942   5.688  0.0841 -0.1957 -1.1779
  105OSM   H11T10637   0.955   1.949   5.720  0.8697  1.6131 -2.1028
  105OSM   C12S10638   1.017   1.822   5.570  0.4867  0.2581 -0.5123
  105OSM   H12S10639   0.935   1.746   5.578  2.1520 -1.4709  0.9891
  105OSM   H12T10640   1.109   1.769   5.536  2.0207  2.4319  0.0742
  105OSM   C13S10641   0.985   1.927   5.463 -0.9782 -0.6748  0.9568
  105OSM   H13S10642   1.076   1.978   5.424 -1.4634  1.0764  1.9826
  105OSM   H13T10643   0.927   2.013   5.503 -1.7692 -0.9268  0.3905
  105OSM   C14S10644   0.915   1.869   5.341  0.3396  0.1186 -0.8243
  105OSM   H14S10645   0.862   1.956   5.296  2.2947  2.9052  1.7818
  105OSM   H14T10646   0.839   1.796   5.376 -0.1096  1.1077  0.3378
  105OSM   C15S10647   1.008   1.810   5.239 -0.8530 -0.3008  0.0752
  105OSM   H15S10648   1.057   1.718   5.277 -0.3869 -0.5119 -0.9791
  105OSM   H15T10649   1.089   1.877   5.202 -0.0545 -0.3348  1.6755
  105OSM   C16S10650   0.933   1.774   5.116 -0.0854  0.1127  0.8763
  105OSM   H16S10651   0.926   1.879   5.079 -2.5971 -0.3017 -0.0297
  105OSM   H16T10652   0.830   1.741   5.141 -0.5710  1.2802  0.5386
  105OSM   C17S10653   1.011   1.691   5.013  1.0079  0.6286  0.9903
  105OSM   H17S10654   1.048   1.598   5.062 -1.1066 -0.4694  0.6402
  105OSM   H17T10655   1.089   1.754   4.966  1.0711  0.2715  0.6041
  105OSM   C18S10656   0.911   1.655   4.900 -0.0118  0.3876 -0.2888
  105OSM   H18S10657   0.899   1.746   4.838  0.8183  0.6459 -0.0852
  105OSM   H18T10658   0.822   1.599   4.937  0.5865 -0.2119  0.2773
  105OSM   H18U10659   0.970   1.586   4.835  1.7401  1.4336  0.1213
  105OSM    C1F10660   0.887   2.298   6.528 -0.2657 -0.0453 -0.2708
  105OSM     OF10661   0.961   2.313   6.627  0.0938 -0.1414  0.0103
  105OSM    C2F10662   0.883   2.404   6.420 -0.5823  0.2582  0.1155
  105OSM    H2F10663   0.784   2.454   6.426 -0.2384  0.8672  0.8179
  105OSM    H2G10664   0.887   2.347   6.324 -0.3709 -0.8630  0.7760
  105OSM    C3F10665   1.012   2.489   6.427  0.2121 -0.1535  0.4083
  105OSM    H3F10666   1.092   2.412   6.427 -0.1217 -0.5240  1.2283
  105OSM    H3G10667   1.013   2.545   6.523  2.9013  0.6700 -0.0068
  105OSM    C4F10668   1.020   2.598   6.317  0.0285  0.2822 -1.1928
  105OSM    H4F10669   1.106   2.661   6.348  1.0400 -1.1016 -1.0695
  105OSM    H4G10670   0.931   2.663   6.331 -0.4417 -0.8064  1.4378
  105OSM    C5F10671   1.021   2.546   6.176  0.9397  0.1044 -0.5506
  105OSM    H5F10672   0.914   2.527   6.152  0.4878  2.4235 -0.6553
  105OSM    H5G10673   1.079   2.452   6.174 -0.2338 -0.6935  1.0984
  105OSM    C6F10674   1.060   2.654   6.077 -0.0145 -0.5498 -0.3329
  105OSM    H6F10675   1.159   2.697   6.102  0.5800 -2.4208  0.7278
  105OSM    H6G10676   0.989   2.739   6.086  0.8844  0.0081  2.0354
  105OSM    C7F10677   1.060   2.597   5.933  0.6058 -0.3106 -0.0095
  105OSM    H7F10678   0.963   2.548   5.912  0.7894 -0.5789 -0.2395
  105OSM    H7G10679   1.140   2.520   5.924 -0.1211 -1.1686  0.6762
  105OSM    C8F10680   1.095   2.709   5.834 -0.2756 -0.8182  0.6432
  105OSM    H8F10681   1.195   2.744   5.869 -0.2007  1.7932 -1.7918
  105OSM    H8G10682   1.025   2.794   5.832  2.1289  1.2833 -0.2669
  105OSM    C9F10683   1.131   2.657   5.691 -0.0902  0.2152  0.0840
  105OSM    H9F10684   1.238   2.632   5.682 -0.2888 -0.0702 -2.0884
  105OSM   C10F10685   1.060   2.658   5.577  0.3176 -0.3072  0.1896
  105OSM   H10F10686   1.102   2.615   5.486  0.2840  1.9388 -0.9588
  105OSM   C11F10687   0.915   2.717   5.576 -0.4638  0.7288  0.6856
  105OSM   H11F10688   0.916   2.818   5.530  0.0319  1.3053  1.9115
  105OSM   H11G10689   0.858   2.728   5.670 -0.6515  1.4142  0.4958
  105OSM   C12F10690   0.821   2.629   5.491 -0.0762 -0.1761  0.9921
  105OSM   H12F10691   0.804   2.526   5.527 -1.2827 -0.5001 -0.4006
  105OSM   H12G10692   0.863   2.625   5.388 -1.9577  0.8699  0.1369
  105OSM   C13F10693   0.685   2.701   5.467 -0.1291 -0.4946 -0.2678
  105OSM   H13F10694   0.701   2.810   5.483  1.7927 -0.0314 -4.1763
  105OSM   H13G10695   0.614   2.662   5.543  0.4397  0.4922  0.7985
  105OSM   C14F10696   0.644   2.680   5.320  0.1609  0.0842  0.8820
  105OSM   H14F10697   0.535   2.702   5.312 -0.0781 -1.3944 -0.5792
  105OSM   H14G10698   0.671   2.576   5.291  1.5062  0.2325  1.5320
  105OSM   C15F10699   0.697   2.769   5.203 -0.2398 -0.2445 -0.6048
  105OSM   H15F10700   0.807   2.754   5.192  0.2319  1.3035  1.3906
  105OSM   H15G10701   0.695   2.878   5.219 -0.5414 -0.4254  0.6500
  105OSM   C16F10702   0.618   2.746   5.071  0.1346 -0.0449 -0.3362
  105OSM   H16F10703   0.642   2.819   4.991  2.5474 -1.4244 -0.9581
  105OSM   H16G10704   0.509   2.731   5.088  0.2282 -2.9726 -1.6742
  105OSM   C17F10705   0.668   2.618   5.004  0.2955  0.5601  0.4422
  105OSM   H17F10706   0.659   2.530   5.071  0.4038  0.1818 -0.0280
  105OSM   H17G10707   0.775   2.633   4.978  0.6649 -1.8331  0.3857
  105OSM   C18F10708   0.596   2.568   4.877 -0.2806  0.3234  0.3461
  105OSM   H18F10709   0.488   2.550   4.897 -0.1609 -0.8460  0.0270
  105OSM   H18G10710   0.650   2.479   4.838 -0.1383  0.2178  0.7817
  105OSM   H18H10711   0.594   2.651   4.802 -0.9018  0.4998  0.5535
  106OSM      N10712   6.303   1.915   6.975  0.2368  0.4072  0.0999
  106OSM    C1510713   6.372   1.995   7.083  0.1289 -0.4188  0.1734
  106OSM   H15A10714   6.306   2.009   7.167 -1.9432 -0.0368 -1.4357
  106OSM   H15B10715   6.407   2.091   7.048  2.7798 -0.8186  1.4884
  106OSM   H15C10716   6.465   1.947   7.109  0.3251 -0.3461 -0.3671
  106OSM    C1410717   6.255   1.792   7.045  0.2767  0.1621 -0.1252
  106OSM   H14A10718   6.340   1.742   7.088 -0.8198 -0.7906  1.0151
  106OSM   H14B10719   6.212   1.721   6.976 -0.4981  0.6628 -0.1679
  106OSM   H14C10720   6.183   1.817   7.122 -1.3117  1.4241 -1.9288
  106OSM    C1310721   6.186   1.987   6.918 -0.1526 -0.2072 -0.2618
  106OSM   H13A10722   6.144   2.056   6.990  1.2525  0.9909 -0.5406
  106OSM   H13B10723   6.102   1.920   6.904 -1.5785  1.5343 -0.3226
  106OSM   H13C10724   6.216   2.046   6.833  1.0283 -3.1731 -2.0692
  106OSM    C1210725   6.401   1.877   6.869  0.1651 -0.2584 -0.7474
  106OSM   H12A10726   6.469   1.807   6.917  0.2417  1.6793  2.2663
  106OSM   H12B10727   6.453   1.970   6.849 -0.4362 -0.1913 -2.0811
  106OSM    C1110728   6.335   1.808   6.739 -0.3649 -0.0365 -0.5388
  106OSM   H11A10729   6.423   1.778   6.677 -0.4253 -0.9008 -0.2210
  106OSM   H11B10730   6.271   1.877   6.681 -0.2285  0.3441 -0.2404
  106OSM      P10731   6.272   1.551   6.693  0.4981  0.2651 -0.1061
  106OSM    O1310732   6.415   1.513   6.691 -0.1718  0.4951 -0.1200
  106OSM    O1410733   6.172   1.457   6.752  0.6062 -0.1087 -0.3696
  106OSM    O1110734   6.224   1.593   6.550  0.5021  0.0010  0.6052
  106OSM    O1210735   6.264   1.688   6.776  0.0508  0.1827 -0.1867
  106OSM    C1S10736   6.289   1.669   6.448  0.1677  0.3716  0.1481
  106OSM    H1S10737   6.398   1.675   6.468  0.6454 -1.2449 -1.6820
  106OSM    H1T10738   6.247   1.771   6.461  1.9657  1.6929 -3.2437
  106OSM     NF10739   6.347   1.732   6.209  0.2055 -0.3011  0.0991
  106OSM    HNF10740   6.291   1.787   6.147  1.5501  1.1997  0.1698
  106OSM    C2S10741   6.268   1.639   6.292  0.8194  0.1743  0.1809
  106OSM    H2S10742   6.305   1.537   6.269  2.1941  0.5491  0.6237
  106OSM    C3S10743   6.111   1.647   6.265  0.4169  0.3622  0.6714
  106OSM    H3S10744   6.086   1.755   6.273  0.4992  0.4942 -0.6660
  106OSM     O310745   6.035   1.598   6.373  0.2099  0.7709 -0.1344
  106OSM    HO310746   6.102   1.596   6.441  0.6376  1.4218 -0.5342
  106OSM    C4S10747   6.052   1.602   6.134  0.8342 -0.0337  0.3911
  106OSM    H4S10748   6.080   1.678   6.060  1.9608 -0.1952  0.6252
  106OSM    C5S10749   5.977   1.484   6.115 -0.1267  0.5923 -0.0168
  106OSM    H5S10750   5.964   1.405   6.190 -3.0799  0.9464 -0.0643
  106OSM    C6S10751   5.919   1.439   5.983 -0.3154 -1.1542 -0.0277
  106OSM    H6S10752   5.811   1.417   5.991 -0.3307 -1.0194  0.1711
  106OSM    H6T10753   5.970   1.344   5.956  1.2774 -0.0682 -1.0076
  106OSM    C7S10754   5.943   1.535   5.862  0.1116 -0.5825  0.1308
  106OSM    H7S10755   6.052   1.550   5.843 -0.0763  1.5397  0.4163
  106OSM    H7T10756   5.892   1.627   5.897  0.7411  0.8100 -2.3732
  106OSM    C8S10757   5.879   1.489   5.733 -0.2760 -1.1270  0.1536
  106OSM    H8S10758   5.768   1.499   5.736 -0.3737  1.0605 -3.5776
  106OSM    H8T10759   5.919   1.387   5.717 -0.3281 -1.0678 -0.3749
  106OSM    C9S10760   5.919   1.576   5.612  0.4961 -0.3488 -0.2376
  106OSM    H9S10761   6.024   1.561   5.579  0.5651  0.3955 -0.3910
  106OSM    H9T10762   5.925   1.683   5.644  1.1816 -0.2171 -0.7680
  106OSM   C10S10763   5.817   1.588   5.498 -0.1553 -0.1581  0.7747
  106OSM   H10S10764   5.723   1.634   5.535 -0.5507 -2.1123  2.3882
  106OSM   H10T10765   5.790   1.486   5.465  0.8600 -1.0762  2.5834
  106OSM   C11S10766   5.881   1.668   5.384 -0.0840  0.3573  0.0992
  106OSM   H11S10767   5.974   1.625   5.341 -0.0536  0.0397  0.4694
  106OSM   H11T10768   5.911   1.767   5.425  0.2108  0.7017 -0.9253
  106OSM   C12S10769   5.774   1.687   5.270 -0.6387  0.1927  0.3138
  106OSM   H12S10770   5.675   1.691   5.321 -1.3711 -1.0430 -0.9265
  106OSM   H12T10771   5.767   1.596   5.207 -1.9706  0.2322  0.3600
  106OSM   C13S10772   5.800   1.823   5.195  0.2229 -1.2648  0.5365
  106OSM   H13S10773   5.899   1.807   5.147  0.4408 -3.5275  1.6144
  106OSM   H13T10774   5.807   1.904   5.270 -2.6758 -0.9413  0.5727
  106OSM   C14S10775   5.690   1.861   5.097 -0.7504 -0.6790 -0.1636
  106OSM   H14S10776   5.596   1.888   5.150 -0.0928  0.2205  0.5801
  106OSM   H14T10777   5.658   1.776   5.033  0.1528  0.3276 -2.0333
  106OSM   C15S10778   5.739   1.967   4.999  0.0355 -0.1733 -0.1654
  106OSM   H15S10779   5.825   1.933   4.938 -0.7788 -1.4459 -0.6585
  106OSM   H15T10780   5.780   2.049   5.062 -1.9077  1.2263 -0.6366
  106OSM   C16S10781   5.623   2.027   4.918  0.1995  0.4762 -0.9439
  106OSM   H16S10782   5.547   2.064   4.991  0.9069  0.7098 -0.3114
  106OSM   H16T10783   5.578   1.933   4.880  2.4858 -1.7819  1.4873
  106OSM   C17S10784   5.658   2.133   4.823  0.0789 -0.0099  0.4052
  106OSM   H17S10785   5.713   2.093   4.735 -1.7148 -2.3378  0.2213
  106OSM   H17T10786   5.729   2.205   4.867 -1.6163  1.2093  1.2690
  106OSM   C18S10787   5.541   2.216   4.795  0.0890  0.0240 -0.0253
  106OSM   H18S10788   5.564   2.291   4.717 -1.4347  0.8372  0.2637
  106OSM   H18T10789   5.522   2.270   4.890 -0.7344 -2.6708  1.4726
  106OSM   H18U10790   5.451   2.153   4.775  0.6825 -0.9248  0.2270
  106OSM    C1F10791   6.475   1.743   6.213  1.0690  0.4122  0.7005
  106OSM     OF10792   6.547   1.654   6.251 -0.5059 -0.0668  0.3313
  106OSM    C2F10793   6.530   1.871   6.152 -0.4092  0.4003 -1.0668
  106OSM    H2F10794   6.612   1.907   6.218 -0.4072 -0.5676 -0.5069
  106OSM    H2G10795   6.450   1.948   6.149  1.5430  2.6662  1.0847
  106OSM    C3F10796   6.587   1.836   6.017 -0.6946  0.1907  0.1227
  106OSM    H3F10797   6.511   1.808   5.941 -0.8606  1.3390 -0.1488
  106OSM    H3G10798   6.659   1.751   6.019 -2.8406 -1.7514 -0.8576
  106OSM    C4F10799   6.651   1.963   5.950  0.1679  0.1435 -1.2097
  106OSM    H4F10800   6.735   1.994   6.017 -1.0573  1.2935 -0.1589
  106OSM    H4G10801   6.577   2.045   5.951 -0.7453 -0.6124 -3.0228
  106OSM    C5F10802   6.717   1.948   5.809 -0.0706 -0.0980  0.0526
  106OSM    H5F10803   6.818   1.902   5.812 -0.5705 -1.1937  0.7380
  106OSM    H5G10804   6.745   2.048   5.771  1.5153 -0.0159  1.3476
  106OSM    C6F10805   6.639   1.868   5.708 -0.5900 -0.0085  0.6219
  106OSM    H6F10806   6.535   1.905   5.702 -1.5201 -2.6454 -1.5092
  106OSM    H6G10807   6.633   1.765   5.749  1.8850  0.2181  1.7526
  106OSM    C7F10808   6.710   1.863   5.574  0.0125  0.2339  0.6972
  106OSM    H7F10809   6.655   1.789   5.513 -2.3497  1.6886  0.9463
  106OSM    H7G10810   6.805   1.807   5.591 -0.8173 -1.0201  1.4668
  106OSM    C8F10811   6.741   1.993   5.503 -0.8364  0.0192  0.1253
  106OSM    H8F10812   6.805   1.968   5.415 -1.7208 -0.9289 -0.2597
  106OSM    H8G10813   6.799   2.067   5.563 -1.4011 -0.3498  1.1420
  106OSM    C9F10814   6.621   2.074   5.453 -0.2593  0.9354 -0.0695
  106OSM    H9F10815   6.550   2.104   5.531 -1.2211 -0.3806 -0.4007
  106OSM   C10F10816   6.570   2.085   5.331 -0.7320  0.0135 -0.0378
  106OSM   H10F10817   6.484   2.154   5.329 -1.9745 -1.5008 -0.2753
  106OSM   C11F10818   6.631   2.053   5.197 -0.0638 -0.3506 -0.6350
  106OSM   H11F10819   6.741   2.059   5.200 -0.0901  0.1567 -0.4535
  106OSM   H11G10820   6.602   2.133   5.125 -0.0035  2.5625  2.3528
  106OSM   C12F10821   6.593   1.918   5.134 -0.2030 -0.1738 -0.3383
  106OSM   H12F10822   6.483   1.920   5.121 -0.2588 -0.1873  0.1194
  106OSM   H12G10823   6.607   1.830   5.201 -2.3943 -2.7268 -2.9393
  106OSM   C13F10824   6.649   1.887   4.998 -0.4907 -0.2903 -0.2119
  106OSM   H13F10825   6.651   1.777   4.987 -0.5581 -0.1772 -1.4064
  106OSM   H13G10826   6.755   1.920   4.996 -0.2990 -0.7146  1.2518
  106OSM   C14F10827   6.590   1.962   4.884  0.3968  0.0623  0.0427
  106OSM   H14F10828   6.575   2.066   4.919  1.1288 -0.1580  1.0483
  106OSM   H14G10829   6.487   1.925   4.863  1.0377 -2.6805  1.3645
  106OSM   C15F10830   6.678   1.972   4.753  0.0123  0.3200 -0.0580
  106OSM   H15F10831   6.696   1.872   4.707 -0.1417 -0.0223  0.5974
  106OSM   H15G10832   6.783   1.990   4.787  0.1190  3.2320 -1.6877
  106OSM   C16F10833   6.618   2.071   4.652  0.2571 -0.5416  0.3344
  106OSM   H16F10834   6.639   2.173   4.691  0.3068  0.2207 -1.6026
  106OSM   H16G10835   6.508   2.061   4.662  0.2751  0.4475  1.8339
  106OSM   C17F10836   6.667   2.040   4.512 -1.2975  0.0967  0.3109
  106OSM   H17F10837   6.620   2.092   4.426  1.7229  0.4627 -1.2827
  106OSM   H17G10838   6.661   1.930   4.496  0.3932  0.2031 -1.5165
  106OSM   C18F10839   6.811   2.087   4.488 -0.1454  0.3737  0.2325
  106OSM   H18F10840   6.868   2.085   4.583 -1.6983  2.9294  1.3292
  106OSM   H18G10841   6.809   2.194   4.460 -1.2585 -0.2026 -2.1822
  106OSM   H18H10842   6.865   2.028   4.411 -1.6475 -1.8901  0.7806
  107OSM      N10843   4.372   5.327   7.084 -0.0614 -0.0319 -0.4927
  107OSM    C1510844   4.518   5.313   7.120 -0.0022  0.4946  0.2973
  107OSM   H15A10845   4.539   5.317   7.226  0.3569  1.5622  0.1934
  107OSM   H15B10846   4.569   5.401   7.086 -0.2653  0.1555 -1.0123
  107OSM   H15C10847   4.560   5.225   7.072  0.3314 -0.1025  1.6248
  107OSM    C1410848   4.283   5.224   7.137  0.8291  0.7735  0.1303
  107OSM   H14A10849   4.275   5.222   7.244  0.1549  0.7401  0.0848
  107OSM   H14B10850   4.322   5.126   7.114  0.2562  0.2512  1.3255
  107OSM   H14C10851   4.181   5.236   7.104  0.7610  0.5037  0.2483
  107OSM    C1310852   4.331   5.451   7.151 -0.2376 -0.1786 -0.4688
  107OSM   H13A10853   4.240   5.487   7.106 -0.2481 -0.8036 -0.9686
  107OSM   H13B10854   4.396   5.536   7.150 -0.1409 -0.2492 -0.0766
  107OSM   H13C10855   4.300   5.435   7.253 -1.3034  1.0669 -0.5701
  107OSM    C1210856   4.368   5.344   6.931 -0.0380 -0.0515  0.4610
  107OSM   H12A10857   4.427   5.265   6.887  3.3081  2.0004  0.8826
  107OSM   H12B10858   4.409   5.441   6.906  1.2576  0.0377  2.6809
  107OSM    C1110859   4.221   5.357   6.863 -0.2368  0.2827 -0.0373
  107OSM   H11A10860   4.154   5.276   6.898  0.0910 -0.0844 -0.2408
  107OSM   H11B10861   4.216   5.323   6.757 -0.6436 -0.7348  0.2872
  107OSM      P10862   4.187   5.592   6.771 -0.0024 -0.2260  0.3275
  107OSM    O1310863   4.142   5.720   6.826 -0.0002 -0.4425 -0.3095
  107OSM    O1410864   4.325   5.591   6.719 -0.8521  0.2861  0.3779
  107OSM    O1110865   4.086   5.542   6.658  0.1617 -0.3146 -0.1461
  107OSM    O1210866   4.165   5.485   6.881  0.7261 -0.7702 -0.2151
  107OSM    C1S10867   4.041   5.647   6.560  0.6138 -0.0758 -0.3566
  107OSM    H1S10868   4.071   5.748   6.597 -1.7147  0.1687  1.0569
  107OSM    H1T10869   3.930   5.655   6.559  0.5997  0.0649 -2.4393
  107OSM     NF10870   4.068   5.720   6.311  0.5336  0.2068  0.4443
  107OSM    HNF10871   3.996   5.698   6.246  0.5372  1.1389  0.1050
  107OSM    C2S10872   4.092   5.618   6.415 -0.5376 -0.4910  0.3316
  107OSM    H2S10873   4.202   5.618   6.426 -0.6464  1.1615  2.2042
  107OSM    C3S10874   4.046   5.474   6.370 -0.6698 -0.0621  0.3116
  107OSM    H3S10875   3.938   5.481   6.341 -1.4093  2.0422  3.1216
  107OSM     O310876   4.049   5.375   6.465  0.2314  0.5415  0.3114
  107OSM    HO310877   4.053   5.422   6.549 -0.4124 -0.7951  1.1184
  107OSM    C4S10878   4.113   5.431   6.238 -0.1264  0.6729 -0.1737
  107OSM    H4S10879   4.046   5.447   6.152  0.2003  1.1864 -0.3354
  107OSM    C5S10880   4.237   5.383   6.211 -0.6010 -0.4920  0.1330
  107OSM    H5S10881   4.316   5.363   6.286 -0.9256 -1.8116  0.1483
  107OSM    C6S10882   4.285   5.351   6.069 -0.0966  0.3228  0.0720
  107OSM    H6S10883   4.286   5.240   6.063 -0.6406  0.2103  1.7818
  107OSM    H6T10884   4.389   5.387   6.059 -0.1937  0.4819 -0.4010
  107OSM    C7S10885   4.213   5.411   5.952 -0.4408  0.2416 -0.3202
  107OSM    H7S10886   4.175   5.515   5.964 -1.2931 -0.1169  0.2283
  107OSM    H7T10887   4.118   5.353   5.956 -1.0868  1.2895  0.2786
  107OSM    C8S10888   4.282   5.393   5.812  0.8855 -0.6018  0.3169
  107OSM    H8S10889   4.197   5.368   5.745 -1.3616  0.3841  2.6517
  107OSM    H8T10890   4.353   5.308   5.807  2.0488 -0.0470  4.2613
  107OSM    C9S10891   4.355   5.511   5.759 -1.0378 -0.0860  0.5680
  107OSM    H9S10892   4.417   5.539   5.847 -0.1143  0.2764 -0.1811
  107OSM    H9T10893   4.277   5.586   5.734 -1.5877 -0.4323  1.2134
  107OSM   C10S10894   4.439   5.486   5.631 -0.0989  0.5528  0.3717
  107OSM   H10S10895   4.505   5.402   5.657  0.1389  1.0021  1.2351
  107OSM   H10T10896   4.503   5.573   5.605  2.0698 -1.4888 -1.6367
  107OSM   C11S10897   4.361   5.441   5.511  0.3660  0.8187 -0.4604
  107OSM   H11S10898   4.298   5.527   5.479 -0.1630 -0.4086 -2.9423
  107OSM   H11T10899   4.291   5.360   5.538 -3.4536  3.1205 -2.6115
  107OSM   C12S10900   4.437   5.385   5.392 -0.5900  0.0674 -0.0924
  107OSM   H12S10901   4.497   5.293   5.412  0.0373 -0.3035 -3.1810
  107OSM   H12T10902   4.506   5.464   5.356  0.1677 -0.6730 -0.3068
  107OSM   C13S10903   4.345   5.339   5.277  0.0377  0.1768 -0.3985
  107OSM   H13S10904   4.287   5.428   5.245 -0.0416  0.9592  1.7630
  107OSM   H13T10905   4.267   5.268   5.312 -0.0168 -1.3144 -3.2685
  107OSM   C14S10906   4.411   5.279   5.155 -0.2395  0.8338 -0.6282
  107OSM   H14S10907   4.472   5.191   5.184 -0.3142  1.0172  0.1022
  107OSM   H14T10908   4.477   5.355   5.107 -0.2497  1.2788  0.0452
  107OSM   C15S10909   4.305   5.252   5.049 -0.3908  1.1587  0.0747
  107OSM   H15S10910   4.253   5.349   5.036  0.7030  1.9814  1.5356
  107OSM   H15T10911   4.237   5.167   5.072 -0.8169  1.4110 -0.2348
  107OSM   C16S10912   4.376   5.224   4.914  0.7338  0.1632  0.1384
  107OSM   H16S10913   4.437   5.309   4.877  2.1532 -1.5989 -1.7915
  107OSM   H16T10914   4.288   5.230   4.846  0.2098  0.7475  0.8491
  107OSM   C17S10915   4.453   5.092   4.908  0.1311  0.1896  0.4759
  107OSM   H17S10916   4.392   5.004   4.937 -0.1591 -0.1357 -1.0654
  107OSM   H17T10917   4.545   5.081   4.970  0.3986 -1.7619 -0.2001
  107OSM   C18S10918   4.497   5.059   4.769 -0.2826  0.8827 -0.2584
  107OSM   H18S10919   4.564   5.131   4.718  1.2498  0.7132  1.4106
  107OSM   H18T10920   4.405   5.061   4.707 -1.8697 -1.6615  1.8017
  107OSM   H18U10921   4.542   4.957   4.767 -0.7917  0.6513 -2.6946
  107OSM    C1F10922   4.133   5.835   6.293 -0.7855  0.3092  0.2603
  107OSM     OF10923   4.190   5.876   6.395  0.1998  0.1267  0.5505
  107OSM    C2F10924   4.132   5.914   6.158 -0.2077  0.4509  0.9455
  107OSM    H2F10925   4.081   6.012   6.169  0.0572  1.1390 -2.7433
  107OSM    H2G10926   4.062   5.859   6.092 -0.1919 -0.0582  1.3452
  107OSM    C3F10927   4.267   5.940   6.093  0.0392 -0.2293  0.0700
  107OSM    H3F10928   4.335   5.999   6.157 -2.7362  3.5832 -0.1678
  107OSM    H3G10929   4.261   5.999   5.999  1.2208  0.2881  0.3002
  107OSM    C4F10930   4.342   5.808   6.060 -0.0803  0.7997 -0.6953
  107OSM    H4F10931   4.272   5.738   6.010  0.3103  0.6939 -1.0979
  107OSM    H4G10932   4.376   5.762   6.156 -0.3096  2.8719  0.4409
  107OSM    C5F10933   4.456   5.817   5.961  0.4468 -0.1394 -0.0894
  107OSM    H5F10934   4.513   5.722   5.954 -0.6258 -0.9962  1.8722
  107OSM    H5G10935   4.526   5.894   6.000  0.8690  0.3767 -1.8181
  107OSM    C6F10936   4.419   5.866   5.819 -0.1470 -0.9974  0.3253
  107OSM    H6F10937   4.368   5.965   5.820 -1.0489 -1.4541  1.2294
  107OSM    H6G10938   4.343   5.794   5.782  0.7036 -1.4248 -0.6432
  107OSM    C7F10939   4.536   5.871   5.718  0.6645 -0.4047 -0.0446
  107OSM    H7F10940   4.600   5.781   5.704  0.8795 -0.3513  0.5801
  107OSM    H7G10941   4.606   5.941   5.768  0.4407 -1.3883  1.7464
  107OSM    C8F10942   4.503   5.923   5.575  0.7051 -0.3554 -0.3318
  107OSM    H8F10943   4.433   6.006   5.597  0.8948 -0.5572  1.2055
  107OSM    H8G10944   4.431   5.850   5.532 -1.8850  2.1059 -0.4416
  107OSM    C9F10945   4.628   5.954   5.502  0.3724 -0.1119  0.1768
  107OSM    H9F10946   4.695   6.023   5.555 -0.4412  0.3956  0.5640
  107OSM   C10F10947   4.667   5.909   5.379 -0.0146  0.9593  0.1196
  107OSM   H10F10948   4.771   5.921   5.344  0.6038  1.8631  2.1188
  107OSM   C11F10949   4.579   5.807   5.305 -0.2848 -0.8415  0.2684
  107OSM   H11F10950   4.470   5.814   5.328 -0.8431  4.2402 -2.5048
  107OSM   H11G10951   4.593   5.699   5.328 -0.5889 -0.9409  0.0076
  107OSM   C12F10952   4.596   5.821   5.151  0.8325  0.2085  0.1789
  107OSM   H12F10953   4.698   5.804   5.111  0.9999  1.4809  0.0162
  107OSM   H12G10954   4.577   5.922   5.109 -1.0771 -1.4527 -3.4587
  107OSM   C13F10955   4.502   5.727   5.077  0.2049 -0.5386  0.7538
  107OSM   H13F10956   4.398   5.732   5.114 -0.3000 -0.3176 -0.6191
  107OSM   H13G10957   4.528   5.621   5.098  1.4059 -0.3346  0.4033
  107OSM   C14F10958   4.498   5.750   4.923  0.3079  0.3581 -0.2846
  107OSM   H14F10959   4.600   5.782   4.892  0.8736 -0.9846  0.0912
  107OSM   H14G10960   4.416   5.822   4.905 -0.2301  0.5537  2.6229
  107OSM   C15F10961   4.468   5.615   4.853  0.3358  0.6724 -0.1088
  107OSM   H15F10962   4.368   5.577   4.882  1.2410 -1.2281  0.7213
  107OSM   H15G10963   4.539   5.536   4.885 -0.6579 -0.4740 -0.6567
  107OSM   C16F10964   4.467   5.627   4.696 -0.4885 -0.2394 -0.7073
  107OSM   H16F10965   4.571   5.658   4.672 -0.2599 -0.5212 -0.1018
  107OSM   H16G10966   4.399   5.707   4.663 -0.9207  0.5737  1.8878
  107OSM   C17F10967   4.423   5.506   4.617  0.2332  1.3923  0.8812
  107OSM   H17F10968   4.312   5.496   4.622 -0.2321  3.0747 -2.7488
  107OSM   H17G10969   4.477   5.415   4.651  0.6925  1.0266 -0.7513
  107OSM   C18F10970   4.448   5.525   4.460 -0.4154  0.0020 -0.1239
  107OSM   H18F10971   4.421   5.430   4.410  1.4925  0.4147 -2.1039
  107OSM   H18G10972   4.554   5.546   4.437 -0.2563  0.7515  1.2006
  107OSM   H18H10973   4.393   5.607   4.407 -0.5280  0.9650  1.4135
  108OSM      N10974   6.327   3.368   6.814  0.4450 -0.0181 -1.1988
  108OSM    C1510975   6.422   3.331   6.918  0.3557 -0.1673 -0.5781
  108OSM   H15A10976   6.486   3.251   6.883 -0.0703 -1.3096  1.1161
  108OSM   H15B10977   6.364   3.288   6.998  0.8028  0.0336 -0.1448
  108OSM   H15C10978   6.486   3.407   6.959 -2.1072  0.2049  2.9826
  108OSM    C1410979   6.395   3.397   6.684 -0.2940  0.4048  0.0581
  108OSM   H14A10980   6.431   3.307   6.636 -0.8338  0.1756  0.0781
  108OSM   H14B10981   6.469   3.475   6.699 -0.6061  0.3642  2.0658
  108OSM   H14C10982   6.334   3.438   6.605 -1.4432 -2.6955 -0.8033
  108OSM    C1310983   6.240   3.249   6.791  0.0615  0.2670 -0.0705
  108OSM   H13A10984   6.297   3.158   6.784 -0.6940 -0.9990  5.3661
  108OSM   H13B10985   6.177   3.257   6.704 -1.2505  1.7421  0.9401
  108OSM   H13C10986   6.172   3.234   6.875  1.6551  1.7627  1.5829
  108OSM    C1210987   6.234   3.475   6.862  0.3836 -0.0003 -0.1092
  108OSM   H12A10988   6.171   3.452   6.946  0.2497 -0.7164 -0.4010
  108OSM   H12B10989   6.160   3.493   6.786  1.4035  0.3022 -1.0603
  108OSM    C1110990   6.287   3.613   6.917  0.9095 -0.1529 -0.1961
  108OSM   H11A10991   6.371   3.600   6.988  2.1073  1.1668 -1.3236
  108OSM   H11B10992   6.208   3.653   6.984  0.6891 -1.4954  0.3772
  108OSM      P10993   6.265   3.825   6.771  0.2295 -0.0221  0.0013
  108OSM    O1310994   6.128   3.802   6.724  0.2969  0.3290 -0.1383
  108OSM    O1410995   6.295   3.922   6.881 -0.3543  0.5287  0.2335
  108OSM    O1110996   6.353   3.873   6.653 -0.3793  0.0608  0.0922
  108OSM    O1210997   6.333   3.691   6.801 -0.4220  0.2475  0.1904
  108OSM    C1S10998   6.368   3.803   6.526 -0.5150  0.4632 -0.1915
  108OSM    H1S10999   6.382   3.694   6.546 -0.4048  0.7410  1.3692
  108OSM    H1T11000   6.463   3.838   6.480  0.9637 -2.3195  0.5396
  108OSM     NF11001   6.289   3.771   6.295 -0.7052  0.0625 -0.1124
  108OSM    HNF11002   6.297   3.833   6.217 -0.5527  0.7448  0.4331
  108OSM    C2S11003   6.265   3.838   6.420  0.1192  0.4973  0.6838
  108OSM    H2S11004   6.166   3.799   6.452  0.4608 -0.9830  0.0283
  108OSM    C3S11005   6.253   3.995   6.387  0.0965  0.2943  0.0347
  108OSM    H3S11006   6.352   4.033   6.354  0.3647 -2.0676 -2.2487
  108OSM     O311007   6.219   4.069   6.505  0.2702  0.0379  0.4476
  108OSM    HO311008   6.256   4.008   6.569 -0.1902 -3.3469 -2.2046
  108OSM    C4S11009   6.163   4.026   6.270 -0.0028  0.7050  0.1568
  108OSM    H4S11010   6.206   4.082   6.186  0.6570 -3.3970 -2.5206
  108OSM    C5S11011   6.025   4.032   6.272  0.4531  1.0868 -0.7353
  108OSM    H5S11012   5.974   3.997   6.363  1.0164 -0.4913 -0.9947
  108OSM    C6S11013   5.936   4.093   6.167 -0.1109 -0.3222 -0.6145
  108OSM    H6S11014   5.897   4.190   6.204 -2.6491 -1.7001  0.5916
  108OSM    H6T11015   5.849   4.026   6.153 -0.0811 -1.3066  2.9825
  108OSM    C7S11016   6.001   4.124   6.029  0.4842  0.0179  0.3359
  108OSM    H7S11017   6.025   4.034   5.970  0.0086  0.8533 -1.1909
  108OSM    H7T11018   6.092   4.188   6.031  0.2275  0.6665 -2.9481
  108OSM    C8S11019   5.908   4.220   5.945 -0.5518  0.0349  0.1027
  108OSM    H8S11020   5.926   4.325   5.977 -0.0797 -0.4229  1.3846
  108OSM    H8T11021   5.805   4.190   5.973  0.0354 -2.1156  0.1220
  108OSM    C9S11022   5.916   4.202   5.786  0.1912  0.0386 -0.6680
  108OSM    H9S11023   5.895   4.095   5.766  0.6906 -0.9060  3.0190
  108OSM    H9T11024   6.017   4.227   5.747  0.4284 -0.3658 -0.3189
  108OSM   C10S11025   5.810   4.292   5.722 -0.0036  0.0169  0.1147
  108OSM   H10S11026   5.830   4.397   5.753  1.4042 -0.0022 -0.6542
  108OSM   H10T11027   5.715   4.256   5.767 -0.4442 -0.3681 -1.0853
  108OSM   C11S11028   5.811   4.274   5.574  0.9089 -0.2714  0.3925
  108OSM   H11S11029   5.711   4.291   5.527  0.8437 -0.4550  0.4633
  108OSM   H11T11030   5.821   4.166   5.549 -1.9045 -0.3892 -0.5943
  108OSM   C12S11031   5.904   4.358   5.486 -0.0028 -0.5175 -0.6245
  108OSM   H12S11032   6.010   4.332   5.504  0.2538  0.9064  0.0396
  108OSM   H12T11033   5.894   4.464   5.518 -0.3755 -0.7020 -0.1061
  108OSM   C13S11034   5.879   4.340   5.339 -0.1961  0.4639  0.5375
  108OSM   H13S11035   5.777   4.380   5.317  0.3412  1.6911  0.1857
  108OSM   H13T11036   5.886   4.235   5.305 -0.0877  1.0577 -1.3516
  108OSM   C14S11037   5.977   4.407   5.242  0.1594  0.3051  0.3868
  108OSM   H14S11038   6.080   4.378   5.270 -0.1413  0.6660  1.9707
  108OSM   H14T11039   5.973   4.517   5.253  0.0341  0.5793 -1.8930
  108OSM   C15S11040   5.940   4.383   5.095 -0.3930  0.4177  0.0270
  108OSM   H15S11041   5.848   4.436   5.060 -1.8770 -1.9875  0.0648
  108OSM   H15T11042   5.918   4.275   5.080 -2.7986  0.9243 -0.6630
  108OSM   C16S11043   6.050   4.434   4.996  0.2707 -0.1015 -0.1700
  108OSM   H16S11044   6.136   4.372   5.030  0.8208  1.5026  1.5367
  108OSM   H16T11045   6.085   4.537   5.018 -0.2291 -0.0776  0.5326
  108OSM   C17S11046   6.008   4.434   4.848  0.9015  0.1016  0.3632
  108OSM   H17S11047   5.944   4.521   4.823  0.6012  0.3752  1.9545
  108OSM   H17T11048   5.955   4.338   4.829  1.5354 -0.0928 -0.4753
  108OSM   C18S11049   6.127   4.449   4.752  0.7109  0.6967 -0.6799
  108OSM   H18S11050   6.191   4.359   4.759  1.5649  1.2382 -1.3220
  108OSM   H18T11051   6.194   4.532   4.783  3.1967 -1.4503  0.0124
  108OSM   H18U11052   6.090   4.474   4.650 -0.0005  0.4047 -0.4989
  108OSM    C1F11053   6.290   3.639   6.287 -0.3536 -0.3982 -0.0461
  108OSM     OF11054   6.258   3.563   6.381 -0.6249  0.1103  0.5954
  108OSM    C2F11055   6.349   3.586   6.158  0.0609  0.5072  0.0947
  108OSM    H2F11056   6.435   3.652   6.132  1.1271  0.8453  3.8987
  108OSM    H2G11057   6.275   3.594   6.076  1.5306 -0.0409 -1.3229
  108OSM    C3F11058   6.399   3.443   6.165 -0.0029 -1.0811  0.3254
  108OSM    H3F11059   6.308   3.387   6.195 -0.4697  0.5830  2.3073
  108OSM    H3G11060   6.475   3.427   6.245 -0.6502 -0.7468  1.0178
  108OSM    C4F11061   6.464   3.394   6.029  0.5605 -0.2549 -0.0958
  108OSM    H4F11062   6.481   3.284   6.036  0.0414 -0.3593 -0.3717
  108OSM    H4G11063   6.561   3.446   6.021 -0.4423  1.6589 -0.3523
  108OSM    C5F11064   6.371   3.412   5.905 -0.3585  0.1551  0.5390
  108OSM    H5F11065   6.372   3.521   5.885 -1.8533  0.5929  2.4749
  108OSM    H5G11066   6.268   3.384   5.935 -0.7826 -0.0992 -1.0861
  108OSM    C6F11067   6.421   3.349   5.775  0.2113  0.0286  0.0025
  108OSM    H6F11068   6.349   3.381   5.696  2.2716  2.7614 -0.9335
  108OSM    H6G11069   6.421   3.238   5.768  2.5925 -0.0232  0.2059
  108OSM    C7F11070   6.562   3.378   5.729 -0.1040 -0.4782  0.3277
  108OSM    H7F11071   6.637   3.339   5.801 -0.2691  2.2781  2.1693
  108OSM    H7G11072   6.578   3.488   5.728  0.0423 -0.4482  2.1180
  108OSM    C8F11073   6.595   3.332   5.587 -0.5428  0.2169  0.6021
  108OSM    H8F11074   6.514   3.359   5.516 -1.6032 -2.9064  0.4479
  108OSM    H8G11075   6.587   3.221   5.582  3.0219 -0.1198 -0.8848
  108OSM    C9F11076   6.731   3.364   5.530 -0.2142 -0.0272  0.0134
  108OSM    H9F11077   6.812   3.309   5.580  2.1237  1.9113 -1.4054
  108OSM   C10F11078   6.754   3.461   5.442 -0.1039  0.3970 -0.3861
  108OSM   H10F11079   6.856   3.482   5.406 -0.4819  0.3520 -1.5029
  108OSM   C11F11080   6.655   3.558   5.383  0.2250 -0.8302 -0.0420
  108OSM   H11F11081   6.661   3.658   5.431  2.4886 -0.8704 -0.1427
  108OSM   H11G11082   6.550   3.528   5.401 -1.0601  1.8757 -2.2450
  108OSM   C12F11083   6.653   3.572   5.232  0.5128  0.4513 -0.1207
  108OSM   H12F11084   6.739   3.636   5.202  1.3473  0.8762  2.8010
  108OSM   H12G11085   6.558   3.612   5.192 -0.3029 -0.5484  0.7390
  108OSM   C13F11086   6.664   3.437   5.164 -0.0644  0.4301  0.2402
  108OSM   H13F11087   6.584   3.373   5.208  0.8714 -0.6874  0.3623
  108OSM   H13G11088   6.760   3.392   5.198  1.0305  1.6118 -1.1526
  108OSM   C14F11089   6.665   3.462   5.013 -0.0343  0.2070 -0.4487
  108OSM   H14F11090   6.759   3.514   4.984 -0.2250  1.3055  0.8224
  108OSM   H14G11091   6.580   3.522   4.974  0.3229  1.3002  0.3971
  108OSM   C15F11092   6.668   3.327   4.934 -0.3343  0.7081 -0.1239
  108OSM   H15F11093   6.570   3.276   4.934  1.3955 -2.9757  1.5213
  108OSM   H15G11094   6.735   3.255   4.986 -1.6787  0.3699  1.1871
  108OSM   C16F11095   6.703   3.346   4.787 -0.5911 -0.1765  0.4598
  108OSM   H16F11096   6.806   3.388   4.784  0.1162 -1.4106  3.6437
  108OSM   H16G11097   6.630   3.418   4.743  1.0205  2.7755  2.2172
  108OSM   C17F11098   6.700   3.215   4.717  0.0565  0.0909  0.1256
  108OSM   H17F11099   6.601   3.169   4.738  1.0237 -1.3208  1.9349
  108OSM   H17G11100   6.778   3.147   4.759 -0.1898 -0.6336 -0.5668
  108OSM   C18F11101   6.703   3.220   4.565 -0.5523 -0.5162  0.0319
  108OSM   H18F11102   6.632   3.148   4.519 -1.9652  0.0271  1.2857
  108OSM   H18G11103   6.808   3.210   4.528 -1.1970 -3.9811 -1.2410
  108OSM   H18H11104   6.670   3.315   4.517  0.9453 -1.3202 -2.8221
  109OSM      N11105   3.683   2.327   6.715 -0.0442 -0.1966  0.7505
  109OSM    C1511106   3.548   2.309   6.772  0.9164  0.2434 -0.5593
  109OSM   H15A11107   3.504   2.384   6.835 -0.6013 -0.9952 -0.0668
  109OSM   H15B11108   3.540   2.212   6.820  0.2833  0.0947 -0.9522
  109OSM   H15C11109   3.480   2.286   6.690  0.1454 -2.4338  0.7029
  109OSM    C1411110   3.782   2.350   6.824  0.5395  0.4803  0.2731
  109OSM   H14A11111   3.881   2.346   6.779  0.2376 -2.8304 -0.3526
  109OSM   H14B11112   3.780   2.272   6.898  0.4021  0.5819  0.3766
  109OSM   H14C11113   3.761   2.444   6.872 -0.2212 -0.4220  1.7611
  109OSM    C1311114   3.704   2.197   6.635  0.0473  0.0568 -0.0473
  109OSM   H13A11115   3.707   2.113   6.703  1.4743  1.2519  1.4531
  109OSM   H13B11116   3.803   2.203   6.593  0.1290 -1.5578 -0.1514
  109OSM   H13C11117   3.632   2.184   6.555  0.4422 -0.6832 -0.2948
  109OSM    C1211118   3.688   2.450   6.619  0.1703  0.0760  0.2808
  109OSM   H12A11119   3.675   2.545   6.668  1.9330  0.5385 -0.0482
  109OSM   H12B11120   3.606   2.449   6.550  0.1200  2.9889  0.1829
  109OSM    C1111121   3.824   2.460   6.534  0.0651  0.2186 -0.2515
  109OSM   H11A11122   3.801   2.527   6.448  1.6841 -0.0883 -0.9633
  109OSM   H11B11123   3.847   2.362   6.487 -1.4565  0.9636 -2.7164
  109OSM      P11124   4.016   2.638   6.578 -0.3889  0.2048  0.0525
  109OSM    O1311125   3.935   2.763   6.596  1.3353 -0.1069  0.3878
  109OSM    O1411126   4.148   2.637   6.644  0.8606  0.3337  0.0617
  109OSM    O1111127   4.030   2.621   6.428 -0.7164  0.4741 -0.1439
  109OSM    O1211128   3.929   2.508   6.615  0.1105 -0.0663 -0.2208
  109OSM    C1S11129   4.136   2.539   6.379  0.7584  0.1371 -0.1376
  109OSM    H1S11130   4.131   2.443   6.435 -1.0977 -0.1375 -0.7058
  109OSM    H1T11131   4.236   2.577   6.411  1.3150 -0.6913 -0.8278
  109OSM     NF11132   4.243   2.459   6.178 -0.2898 -0.8234 -0.2528
  109OSM    HNF11133   4.328   2.505   6.155 -0.8086 -0.3425 -1.2568
  109OSM    C2S11134   4.126   2.527   6.224 -0.2405  0.2301 -0.1164
  109OSM    H2S11135   4.044   2.458   6.194 -0.9443  0.4653  1.1867
  109OSM    C3S11136   4.100   2.663   6.161  0.1356 -0.2835  0.7092
  109OSM    H3S11137   4.175   2.737   6.195 -1.3892  0.9332  1.5779
  109OSM     O311138   3.971   2.722   6.173 -0.3147 -0.1680 -0.0140
  109OSM    HO311139   3.921   2.674   6.239 -0.7547  0.5012  0.1484
  109OSM    C4S11140   4.109   2.646   6.011  0.0953  0.0010 -0.6470
  109OSM    H4S11141   4.036   2.576   5.968 -0.6341  0.7180 -0.5896
  109OSM    C5S11142   4.191   2.712   5.931 -0.3855  0.0952  0.1669
  109OSM    H5S11143   4.260   2.790   5.968 -0.6493  0.2490  0.3403
  109OSM    C6S11144   4.201   2.670   5.787  0.0966  0.7163  0.6288
  109OSM    H6S11145   4.143   2.581   5.755  0.3291  1.4706 -2.2400
  109OSM    H6T11146   4.309   2.654   5.762 -0.7179 -1.1952 -2.2081
  109OSM    C7S11147   4.141   2.770   5.672  1.3108  0.1804 -0.1133
  109OSM    H7S11148   4.201   2.862   5.690 -2.0332  2.1148  2.4177
  109OSM    H7T11149   4.036   2.783   5.707  1.2260 -2.2030  0.7345
  109OSM    C8S11150   4.156   2.727   5.529  0.1948 -0.0674  0.2945
  109OSM    H8S11151   4.101   2.634   5.504 -1.2132  0.5035  1.1786
  109OSM    H8T11152   4.262   2.705   5.503  0.1153  1.3713 -1.4460
  109OSM    C9S11153   4.107   2.833   5.435  0.2107  0.0236  0.4084
  109OSM    H9S11154   4.158   2.931   5.435 -0.2110  0.2726 -1.1760
  109OSM    H9T11155   3.999   2.854   5.444  0.1412 -0.4487  0.7223
  109OSM   C10S11156   4.144   2.796   5.288  0.0626 -0.8931 -0.0466
  109OSM   H10S11157   4.075   2.712   5.264 -1.4717 -0.4176  2.3856
  109OSM   H10T11158   4.251   2.769   5.276  0.7392  0.8582  1.4771
  109OSM   C11S11159   4.111   2.909   5.191  0.7048 -0.4302 -0.1026
  109OSM   H11S11160   4.179   2.995   5.209  0.2260  0.3906 -1.9661
  109OSM   H11T11161   4.011   2.953   5.208  0.6650 -0.7425  0.5324
  109OSM   C12S11162   4.142   2.880   5.052  0.0947  0.2801 -0.3122
  109OSM   H12S11163   4.066   2.808   5.017 -0.7803  0.2207  1.5617
  109OSM   H12T11164   4.241   2.829   5.046  0.6353  1.2769 -0.0627
  109OSM   C13S11165   4.134   2.999   4.952 -0.6159 -0.3886 -0.2235
  109OSM   H13S11166   4.208   3.060   5.009  0.1270 -1.2972 -0.1984
  109OSM   H13T11167   4.039   3.055   4.964  0.5310  1.8185 -0.7663
  109OSM   C14S11168   4.193   2.968   4.813 -0.2039  0.4447  0.4459
  109OSM   H14S11169   4.155   2.872   4.772 -0.1569  0.3615  0.5961
  109OSM   H14T11170   4.302   2.954   4.829 -0.1414  1.2586  0.7697
  109OSM   C15S11171   4.174   3.078   4.712 -0.2123 -0.3024 -0.4298
  109OSM   H15S11172   4.238   3.063   4.622  0.9713  1.0163  0.1507
  109OSM   H15T11173   4.193   3.179   4.754 -1.0246 -0.0816 -0.5680
  109OSM   C16S11174   4.030   3.085   4.658  0.8417  0.5387  0.8962
  109OSM   H16S11175   4.027   3.161   4.577 -0.1359  0.6218  1.0039
  109OSM   H16T11176   3.969   3.126   4.741 -2.4096  0.2440 -1.1487
  109OSM   C17S11177   3.968   2.952   4.617  0.1312 -0.8484 -0.6721
  109OSM   H17S11178   3.957   2.885   4.705 -1.3771 -0.2735 -0.3851
  109OSM   H17T11179   4.023   2.903   4.533 -0.5015 -2.8354  0.0066
  109OSM   C18S11180   3.826   2.985   4.568 -0.2297  0.4944  0.1470
  109OSM   H18S11181   3.783   2.906   4.501 -0.1254  0.8738 -0.3690
  109OSM   H18T11182   3.822   3.079   4.509  0.8254  0.3656 -0.1441
  109OSM   H18U11183   3.758   2.990   4.656 -0.9262  0.5613 -0.3791
  109OSM    C1F11184   4.259   2.327   6.204  0.9932  0.1210 -0.2596
  109OSM     OF11185   4.164   2.249   6.235  0.3662  0.1481 -0.2496
  109OSM    C2F11186   4.397   2.274   6.164  0.3573  0.3528 -0.4464
  109OSM    H2F11187   4.436   2.230   6.258 -2.2682 -2.5409 -0.5181
  109OSM    H2G11188   4.467   2.356   6.140  1.2271 -0.9712 -2.8099
  109OSM    C3F11189   4.396   2.160   6.062 -0.4528 -0.7466  0.3776
  109OSM    H3F11190   4.340   2.074   6.106 -0.3843 -0.4595  1.0331
  109OSM    H3G11191   4.503   2.135   6.047 -0.5165  0.2811 -2.5006
  109OSM    C4F11192   4.350   2.197   5.925 -0.2180 -0.0627  0.8287
  109OSM    H4F11193   4.396   2.137   5.843  1.2498  0.1486  1.4700
  109OSM    H4G11194   4.386   2.300   5.906  1.9060 -0.4489  2.4220
  109OSM    C5F11195   4.202   2.191   5.909 -0.0995  0.6433 -0.3979
  109OSM    H5F11196   4.151   2.274   5.962  0.0738  0.2773  0.3566
  109OSM    H5G11197   4.163   2.100   5.958  0.8977  0.1235 -0.5559
  109OSM    C6F11198   4.160   2.202   5.767 -0.8896 -0.4170  0.3099
  109OSM    H6F11199   4.055   2.240   5.772 -0.7145  0.1229 -0.0708
  109OSM    H6G11200   4.154   2.100   5.723 -1.4759 -0.2833  0.0669
  109OSM    C7F11201   4.245   2.289   5.678  0.0977 -0.1927  0.4237
  109OSM    H7F11202   4.351   2.256   5.671  0.8446  2.2913 -1.3765
  109OSM    H7G11203   4.238   2.394   5.714 -4.8364  0.5784 -2.0263
  109OSM    C8F11204   4.188   2.296   5.535  0.7893 -0.4414 -0.4749
  109OSM    H8F11205   4.087   2.341   5.540  1.2870  0.6812 -0.3672
  109OSM    H8G11206   4.171   2.193   5.496  0.5539 -0.0748 -1.3680
  109OSM    C9F11207   4.269   2.388   5.449 -0.1958 -1.0253 -0.2199
  109OSM    H9F11208   4.333   2.464   5.495  1.3434 -0.0544 -3.6262
  109OSM   C10F11209   4.267   2.391   5.317  0.2878  0.3194 -0.1670
  109OSM   H10F11210   4.344   2.454   5.270  2.5193  0.0469  2.8153
  109OSM   C11F11211   4.186   2.303   5.222 -0.1954 -0.9041 -0.1920
  109OSM   H11F11212   4.083   2.340   5.202  0.5395  1.1124 -0.4639
  109OSM   H11G11213   4.175   2.202   5.266 -1.5982 -0.2586  1.0178
  109OSM   C12F11214   4.259   2.304   5.084  0.2611  0.0745 -0.3569
  109OSM   H12F11215   4.201   2.238   5.016 -1.7869  1.6203 -0.2050
  109OSM   H12G11216   4.363   2.265   5.094  1.4914  2.6260 -2.0562
  109OSM   C13F11217   4.253   2.442   5.011  0.0893  0.1065  0.2464
  109OSM   H13F11218   4.322   2.512   5.062 -0.6040  0.3859  0.8249
  109OSM   H13G11219   4.147   2.475   5.002  0.1739  0.1048 -0.8624
  109OSM   C14F11220   4.315   2.439   4.867  0.3316  0.1430  0.2298
  109OSM   H14F11221   4.415   2.392   4.876  0.1921 -0.3593 -0.7743
  109OSM   H14G11222   4.326   2.543   4.828  0.1986  0.7677  1.7510
  109OSM   C15F11223   4.237   2.367   4.755  0.3170 -0.1240  0.1799
  109OSM   H15F11224   4.141   2.417   4.729 -0.3111 -0.8972  0.9331
  109OSM   H15G11225   4.209   2.266   4.792  0.6520 -0.9335 -1.6813
  109OSM   C16F11226   4.324   2.355   4.632  0.7816  1.4251  0.0326
  109OSM   H16F11227   4.409   2.288   4.657 -0.0662  0.5673  0.6995
  109OSM   H16G11228   4.364   2.450   4.591  0.8083  1.3761 -0.0560
  109OSM   C17F11229   4.246   2.282   4.518  0.7883 -0.2567 -0.5932
  109OSM   H17F11230   4.194   2.366   4.467 -1.0001 -2.1442 -2.0335
  109OSM   H17G11231   4.174   2.208   4.558 -0.1734  0.3533 -1.1601
  109OSM   C18F11232   4.328   2.225   4.400 -0.0721 -0.2585  0.4721
  109OSM   H18F11233   4.389   2.137   4.429  0.4363  0.3905  1.4257
  109OSM   H18G11234   4.407   2.299   4.378  1.0625 -1.1687  1.3409
  109OSM   H18H11235   4.271   2.204   4.306 -1.5207  0.3861  1.1775
  110OSM      N11236   5.784   6.456   6.830 -0.0026  0.0713  0.2503
  110OSM    C1511237   5.646   6.465   6.888 -0.3218 -0.2285 -0.0988
  110OSM   H15A11238   5.585   6.376   6.902 -2.3214  1.4325  2.9425
  110OSM   H15B11239   5.584   6.533   6.831  3.1819  3.2170 -0.1909
  110OSM   H15C11240   5.649   6.499   6.990 -2.2049 -2.0195  0.6399
  110OSM    C1411241   5.856   6.586   6.842 -0.7702  0.1840 -0.3519
  110OSM   H14A11242   5.963   6.593   6.827 -0.5957 -0.5021  0.5219
  110OSM   H14B11243   5.829   6.620   6.941 -0.3857  0.7180 -0.4254
  110OSM   H14C11244   5.817   6.653   6.767 -1.6301  0.5745  0.4288
  110OSM    C1311245   5.848   6.358   6.926 -0.2277 -0.5997  1.8966
  110OSM   H13A11246   5.953   6.356   6.903 -0.1361  1.7552  1.8906
  110OSM   H13B11247   5.795   6.264   6.938  2.9838 -2.8972 -0.2814
  110OSM   H13C11248   5.842   6.399   7.026 -3.0110  1.5158  1.0022
  110OSM    C1211249   5.790   6.409   6.685 -0.3959  0.5701  0.3886
  110OSM   H12A11250   5.895   6.401   6.660  0.2720 -0.5435  3.1977
  110OSM   H12B11251   5.740   6.478   6.618  1.7486  1.5102 -0.3214
  110OSM    C1111252   5.733   6.265   6.647  0.1672  0.5110  0.6649
  110OSM   H11A11253   5.757   6.243   6.541 -0.6740 -0.3638  0.6498
  110OSM   H11B11254   5.624   6.266   6.667  0.1388  0.1331  0.5339
  110OSM      P11255   5.915   6.075   6.677  0.4807 -0.3588  0.1271
  110OSM    O1311256   6.022   6.170   6.641 -0.3731 -0.1789  0.7965
  110OSM    O1411257   5.944   5.961   6.766 -0.2890 -0.3211  0.3155
  110OSM    O1111258   5.856   6.024   6.543  0.0876  0.3348  0.2877
  110OSM    O1211259   5.788   6.159   6.730  0.4605 -0.1277  0.5887
  110OSM    C1S11260   5.743   5.938   6.547 -0.3748  0.1843  0.5145
  110OSM    H1S11261   5.653   6.000   6.527 -0.3025 -0.6843 -3.0450
  110OSM    H1T11262   5.746   5.879   6.641  3.6237 -0.7636 -0.0411
  110OSM     NF11263   5.626   5.742   6.433 -0.1678 -0.7865 -0.1979
  110OSM    HNF11264   5.630   5.653   6.479 -2.2653 -1.8866 -1.9942
  110OSM    C2S11265   5.746   5.832   6.431 -0.4768 -0.2279 -0.1336
  110OSM    H2S11266   5.733   5.902   6.346  1.1723 -1.4065 -1.4364
  110OSM    C3S11267   5.879   5.751   6.417 -0.2198  0.4452  0.0538
  110OSM    H3S11268   5.864   5.689   6.509 -2.4106  2.9052  1.4925
  110OSM     O311269   6.000   5.826   6.437 -0.1512 -0.5227  0.2710
  110OSM    HO311270   5.956   5.904   6.471 -1.7390 -1.9912  1.8115
  110OSM    C4S11271   5.884   5.650   6.302 -0.4868 -0.5168 -0.4254
  110OSM    H4S11272   5.817   5.565   6.318 -0.0954 -0.5478  1.1393
  110OSM    C5S11273   5.937   5.664   6.180  1.0273  0.7924 -0.4166
  110OSM    H5S11274   5.976   5.760   6.142 -1.0737  1.1655 -1.7862
  110OSM    C6S11275   5.926   5.558   6.065 -0.2249 -0.1746 -0.0871
  110OSM    H6S11276   5.864   5.606   5.987 -2.1734 -0.0862  1.4422
  110OSM    H6T11277   5.876   5.465   6.101 -0.6814  0.2575  0.4107
  110OSM    C7S11278   6.068   5.512   6.016  0.2345 -0.8678  0.7096
  110OSM    H7S11279   6.103   5.435   6.088 -1.7082 -3.1166 -0.5963
  110OSM    H7T11280   6.147   5.589   6.010  0.0016 -0.7125 -1.0191
  110OSM    C8S11281   6.065   5.445   5.879 -0.2185 -0.2287  0.0626
  110OSM    H8S11282   6.021   5.516   5.806 -0.4548 -0.8391 -0.3998
  110OSM    H8T11283   5.989   5.364   5.880 -1.2715  0.7122 -0.9384
  110OSM    C9S11284   6.196   5.388   5.817  0.2981 -0.5457 -1.3715
  110OSM    H9S11285   6.236   5.303   5.878  3.4096  1.4244 -0.3976
  110OSM    H9T11286   6.275   5.466   5.813  0.2513 -0.4068 -0.1828
  110OSM   C10S11287   6.179   5.312   5.684  0.0282  0.3082  0.0473
  110OSM   H10S11288   6.135   5.389   5.617  0.4951  0.8701  0.3811
  110OSM   H10T11289   6.108   5.227   5.697 -1.0120  1.0274 -0.7405
  110OSM   C11S11290   6.308   5.258   5.626  0.1208  0.0199  0.5160
  110OSM   H11S11291   6.282   5.181   5.551 -1.0183  0.0647  0.8489
  110OSM   H11T11292   6.367   5.220   5.712 -0.3097 -0.2475  0.6938
  110OSM   C12S11293   6.406   5.365   5.571  0.1253 -0.5000  0.2829
  110OSM   H12S11294   6.440   5.442   5.644 -1.7901  0.3381  0.3496
  110OSM   H12T11295   6.352   5.436   5.506 -0.4107 -0.6032  0.6056
  110OSM   C13S11296   6.529   5.296   5.509  0.3463  0.0852 -0.0598
  110OSM   H13S11297   6.490   5.216   5.442  2.1863  0.6918 -1.9473
  110OSM   H13T11298   6.587   5.261   5.596 -2.8906  0.5201  2.4645
  110OSM   C14S11299   6.598   5.398   5.414  0.6231  0.4727  0.4931
  110OSM   H14S11300   6.616   5.498   5.459 -0.0698  0.9332 -0.2361
  110OSM   H14T11301   6.532   5.420   5.328  0.2028 -0.7494  0.4801
  110OSM   C15S11302   6.721   5.341   5.339  0.5450 -0.2520  0.2784
  110OSM   H15S11303   6.715   5.234   5.309  1.5503  0.3977 -2.5235
  110OSM   H15T11304   6.809   5.356   5.405  0.6693 -0.4137  0.1488
  110OSM   C16S11305   6.741   5.421   5.206 -0.1531  0.7257  0.0626
  110OSM   H16S11306   6.741   5.529   5.233  2.7549  0.6834  0.5486
  110OSM   H16T11307   6.647   5.417   5.148  0.1920  1.3739 -0.5559
  110OSM   C17S11308   6.867   5.392   5.126 -0.5115  0.6161  0.2299
  110OSM   H17S11309   6.876   5.285   5.098 -1.9957  1.0475 -2.1902
  110OSM   H17T11310   6.955   5.422   5.188 -0.0626 -0.1881 -0.0004
  110OSM   C18S11311   6.852   5.463   4.990 -0.1080  0.6335 -0.2742
  110OSM   H18S11312   6.771   5.404   4.942 -0.2287 -0.3267  1.0650
  110OSM   H18T11313   6.933   5.427   4.922  0.2449 -0.9944  0.9380
  110OSM   H18U11314   6.841   5.574   4.997 -0.7493  0.5088  0.9711
  110OSM    C1F11315   5.506   5.791   6.405 -0.4313 -0.3140 -0.5776
  110OSM     OF11316   5.491   5.900   6.343  0.5101  0.3696  0.2174
  110OSM    C2F11317   5.394   5.704   6.453  0.7050 -0.1057  0.5152
  110OSM    H2F11318   5.322   5.755   6.520  1.1458  0.5281  0.5170
  110OSM    H2G11319   5.422   5.605   6.495  0.3866 -0.7485 -0.7369
  110OSM    C3F11320   5.306   5.662   6.329  0.3538  0.6462  0.4097
  110OSM    H3F11321   5.258   5.753   6.287 -0.3096  0.2594  0.3115
  110OSM    H3G11322   5.222   5.601   6.369  1.3960 -0.1178  1.4801
  110OSM    C4F11323   5.379   5.586   6.214 -0.1552  0.1213  0.4037
  110OSM    H4F11324   5.418   5.492   6.258  0.2087 -0.3613 -0.9054
  110OSM    H4G11325   5.467   5.633   6.165 -0.4097  0.3693  0.1836
  110OSM    C5F11326   5.293   5.548   6.097 -0.5280  0.2271  0.0615
  110OSM    H5F11327   5.211   5.485   6.137 -0.2862 -0.0981  0.0520
  110OSM    H5G11328   5.350   5.481   6.028  0.2964  0.4180  0.5451
  110OSM    C6F11329   5.228   5.661   6.024  0.3743 -0.9278 -0.8680
  110OSM    H6F11330   5.300   5.746   6.021  0.3904 -0.9755 -2.8304
  110OSM    H6G11331   5.146   5.706   6.084  2.0211  2.6731 -1.0538
  110OSM    C7F11332   5.179   5.638   5.878 -0.1847  0.5889  0.5703
  110OSM    H7F11333   5.147   5.730   5.825 -0.0448 -0.6306 -1.7261
  110OSM    H7G11334   5.096   5.565   5.889  0.2537 -0.1096 -0.6360
  110OSM    C8F11335   5.297   5.573   5.798 -0.3079 -0.4810 -0.7489
  110OSM    H8F11336   5.258   5.572   5.694 -1.8020 -0.6577 -0.2116
  110OSM    H8G11337   5.316   5.468   5.828 -0.6384 -0.6024 -0.9624
  110OSM    C9F11338   5.426   5.655   5.791  0.1519 -0.2037  0.3027
  110OSM    H9F11339   5.464   5.692   5.887  1.4330  2.6821 -1.1703
  110OSM   C10F11340   5.499   5.693   5.683 -0.2001 -0.2693 -0.1696
  110OSM   H10F11341   5.586   5.757   5.703 -0.8023  0.6506 -0.4398
  110OSM   C11F11342   5.464   5.665   5.544  0.2851 -0.8805 -0.6113
  110OSM   H11F11343   5.362   5.708   5.533  0.5798  0.3068  0.9772
  110OSM   H11G11344   5.460   5.554   5.530 -2.5818 -1.1624  1.4381
  110OSM   C12F11345   5.553   5.730   5.437 -0.4120 -0.0712 -0.3214
  110OSM   H12F11346   5.656   5.691   5.451  0.3087  0.5773 -3.2118
  110OSM   H12G11347   5.553   5.839   5.460  0.8150  0.0632 -0.8880
  110OSM   C13F11348   5.510   5.714   5.292  0.1282  0.1135 -0.9153
  110OSM   H13F11349   5.408   5.751   5.269 -0.9419 -2.9534 -1.6790
  110OSM   H13G11350   5.506   5.605   5.271  1.3686 -0.0316 -0.4817
  110OSM   C14F11351   5.610   5.786   5.205 -0.5340 -0.0417 -0.0587
  110OSM   H14F11352   5.600   5.893   5.236 -1.5732 -0.2256  0.2501
  110OSM   H14G11353   5.571   5.785   5.101 -3.1518  2.0436  0.7955
  110OSM   C15F11354   5.751   5.744   5.205 -0.4868  0.0175 -0.4079
  110OSM   H15F11355   5.757   5.636   5.179  2.0954  0.0360 -0.1491
  110OSM   H15G11356   5.787   5.748   5.310  0.2708 -4.6511 -0.2676
  110OSM   C16F11357   5.847   5.834   5.117 -0.0602  1.3894 -0.3502
  110OSM   H16F11358   5.858   5.783   5.019  1.3935 -0.5320  0.7404
  110OSM   H16G11359   5.939   5.823   5.179 -0.9249 -3.4548  0.4626
  110OSM   C17F11360   5.808   5.977   5.095  0.0898 -0.2641  0.8993
  110OSM   H17F11361   5.801   6.030   5.192  3.3039 -0.9583  1.6533
  110OSM   H17G11362   5.711   5.990   5.042  0.2806  0.7137  0.7646
  110OSM   C18F11363   5.915   6.043   5.014  0.7209  0.2388 -0.1496
  110OSM   H18F11364   5.926   5.978   4.925 -0.3382 -0.9264  0.5380
  110OSM   H18G11365   6.006   6.047   5.077  1.2313  2.4326 -0.9173
  110OSM   H18H11366   5.891   6.149   4.990  1.9775  0.1344 -2.1191
  111OSM      N11367   2.910   3.814   6.743  0.6456  0.0774 -0.1076
  111OSM    C1511368   2.851   3.896   6.856  0.2650  0.4615  0.1768
  111OSM   H15A11369   2.891   3.849   6.945  2.8418  1.9914 -0.0836
  111OSM   H15B11370   2.743   3.887   6.853  0.2061  0.8480  0.8701
  111OSM   H15C11371   2.872   4.001   6.862 -1.8902  0.8529  3.1008
  111OSM    C1411372   3.057   3.809   6.764  0.3965  0.3125  0.2250
  111OSM   H14A11373   3.109   3.755   6.687  0.6559 -2.0059  1.9087
  111OSM   H14B11374   3.071   3.758   6.858 -1.3772  0.0342  0.3865
  111OSM   H14C11375   3.094   3.909   6.781  1.7646 -0.0105 -0.7540
  111OSM    C1311376   2.855   3.680   6.757  0.1931 -0.4639  0.4618
  111OSM   H13A11377   2.748   3.694   6.763  0.3463  0.1956  2.1620
  111OSM   H13B11378   2.900   3.638   6.845  0.2043  1.0805  1.2213
  111OSM   H13C11379   2.877   3.610   6.677 -0.2140 -0.6504  0.5098
  111OSM    C1211380   2.883   3.871   6.602 -0.0879  0.7583 -0.6173
  111OSM   H12A11381   2.776   3.868   6.586 -0.0999 -0.9602 -0.4602
  111OSM   H12B11382   2.921   3.800   6.530  2.3370 -0.0241  1.2984
  111OSM    C1111383   2.929   4.010   6.567 -0.2895 -0.0747 -0.6553
  111OSM   H11A11384   2.920   4.047   6.462  0.8011  0.3094 -0.6248
  111OSM   H11B11385   3.034   4.028   6.599 -0.8684  2.9331 -0.1445
  111OSM      P11386   2.691   4.139   6.617 -0.3735  0.2539  0.3274
  111OSM    O1311387   2.614   4.016   6.648  0.0490  0.7672  0.1030
  111OSM    O1411388   2.658   4.262   6.695 -0.3533 -0.1904 -0.1304
  111OSM    O1111389   2.687   4.161   6.464  0.0294 -0.2011 -0.1999
  111OSM    O1211390   2.848   4.107   6.643  0.6553  0.3939 -0.0209
  111OSM    C1S11391   2.556   4.178   6.412  0.9663 -0.6718 -0.5179
  111OSM    H1S11392   2.504   4.263   6.460 -0.2349 -1.5136 -0.2896
  111OSM    H1T11393   2.483   4.098   6.435 -0.6729  1.0513  0.5501
  111OSM     NF11394   2.399   4.228   6.238  0.5077  0.1387  0.7498
  111OSM    HNF11395   2.334   4.165   6.196 -3.0204  4.3568 -1.0097
  111OSM    C2S11396   2.541   4.206   6.257 -0.1382 -0.6786 -0.0960
  111OSM    H2S11397   2.594   4.299   6.231 -0.9005 -0.9736 -3.0593
  111OSM    C3S11398   2.592   4.076   6.173  0.1707  0.8964 -0.5675
  111OSM    H3S11399   2.514   4.000   6.195 -0.8426  1.7657 -1.0136
  111OSM     O311400   2.713   4.013   6.220  0.3107  0.4549  0.0713
  111OSM    HO311401   2.723   4.052   6.307  0.4283  2.6640 -0.8672
  111OSM    C4S11402   2.595   4.100   6.023  0.6573  0.5215 -1.0680
  111OSM    H4S11403   2.663   4.183   6.002  0.9794  0.1387 -1.5528
  111OSM    C5S11404   2.539   4.027   5.924 -0.0557 -0.0762 -0.3868
  111OSM    H5S11405   2.492   3.930   5.941 -0.7785  0.0292 -1.6190
  111OSM    C6S11406   2.551   4.057   5.778  0.0020 -0.3341 -0.2218
  111OSM    H6S11407   2.612   4.148   5.761  1.3405 -1.0865  0.3671
  111OSM    H6T11408   2.448   4.077   5.742 -0.0257  1.2254  0.6292
  111OSM    C7S11409   2.603   3.948   5.688  0.1250  0.5412 -0.1260
  111OSM    H7S11410   2.539   3.858   5.700 -0.5556  0.7231 -2.1116
  111OSM    H7T11411   2.705   3.924   5.724  0.3100  0.6869 -0.5478
  111OSM    C8S11412   2.609   3.969   5.533  0.5034 -0.6416  0.0233
  111OSM    H8S11413   2.673   4.059   5.520 -0.0657 -0.1915  0.3234
  111OSM    H8T11414   2.503   3.990   5.508  0.3424 -2.1182 -0.6565
  111OSM    C9S11415   2.649   3.849   5.446 -0.4564  0.1612  0.0423
  111OSM    H9S11416   2.574   3.767   5.452 -0.1163 -0.2451 -0.9784
  111OSM    H9T11417   2.749   3.808   5.469  0.5439  1.0607 -2.3534
  111OSM   C10S11418   2.659   3.884   5.298  0.4964 -0.2017  0.2347
  111OSM   H10S11419   2.730   3.820   5.241  0.2902 -1.6990  1.5790
  111OSM   H10T11420   2.687   3.992   5.297 -0.8859  0.1804 -1.5887
  111OSM   C11S11421   2.526   3.875   5.220  0.2330  0.3050 -0.5500
  111OSM   H11S11422   2.449   3.942   5.263  0.0431 -1.1726  1.5641
  111OSM   H11T11423   2.474   3.777   5.220  0.6291  0.0658  1.2533
  111OSM   C12S11424   2.542   3.916   5.071 -0.0263 -0.1761 -0.2160
  111OSM   H12S11425   2.600   3.833   5.024  1.2256 -0.5814  1.9038
  111OSM   H12T11426   2.601   4.008   5.049  0.5180 -0.3568  0.4357
  111OSM   C13S11427   2.407   3.917   4.992 -0.2392  0.6026 -0.1506
  111OSM   H13S11428   2.341   3.999   5.026  0.0942  0.1316  1.7951
  111OSM   H13T11429   2.360   3.820   5.019  0.0787 -0.0375 -1.7772
  111OSM   C14S11430   2.432   3.910   4.842  0.2682  0.4242 -0.5804
  111OSM   H14S11431   2.493   3.820   4.821  0.4433  0.6071 -0.8566
  111OSM   H14T11432   2.475   4.006   4.807 -2.0097  1.2046 -1.4943
  111OSM   C15S11433   2.307   3.877   4.768  0.4880 -0.1340  0.1869
  111OSM   H15S11434   2.230   3.947   4.806  2.7149  2.6450 -0.1029
  111OSM   H15T11435   2.271   3.784   4.816 -1.0280 -0.9844 -2.3517
  111OSM   C16S11436   2.317   3.838   4.619  0.0891  0.2062 -0.6909
  111OSM   H16S11437   2.400   3.766   4.601  0.5083  0.2701  0.8788
  111OSM   H16T11438   2.347   3.935   4.574  0.9507  0.2987  0.0730
  111OSM   C17S11439   2.198   3.767   4.557  0.7577 -0.0353  0.3926
  111OSM   H17S11440   2.169   3.677   4.615  0.1484  0.1772  0.4360
  111OSM   H17T11441   2.226   3.731   4.456  1.4163  2.9225 -0.5817
  111OSM   C18S11442   2.070   3.853   4.544 -0.3199  0.3959 -0.0677
  111OSM   H18S11443   1.994   3.793   4.489 -0.1687  1.3126 -1.3197
  111OSM   H18T11444   2.095   3.947   4.491 -1.1587 -0.3801 -1.9259
  111OSM   H18U11445   2.028   3.882   4.643  1.7259  0.0859  0.9310
  111OSM    C1F11446   2.329   4.336   6.279 -0.6882 -0.5062 -0.2556
  111OSM     OF11447   2.380   4.429   6.339 -0.7007 -0.1323  0.4659
  111OSM    C2F11448   2.183   4.348   6.247  0.3812 -0.6758  0.5201
  111OSM    H2F11449   2.145   4.450   6.269  2.2294 -0.1673  1.5992
  111OSM    H2G11450   2.126   4.283   6.317 -0.7091  1.0391  1.3074
  111OSM    C3F11451   2.161   4.310   6.098 -0.2811  0.3251 -0.1258
  111OSM    H3F11452   2.051   4.320   6.080 -0.5863 -1.3838  0.6330
  111OSM    H3G11453   2.196   4.209   6.070 -0.3694  1.0058 -3.0696
  111OSM    C4F11454   2.235   4.401   6.007  0.1838 -0.2179 -0.2472
  111OSM    H4F11455   2.344   4.384   6.011  0.3311  0.9529  1.7716
  111OSM    H4G11456   2.217   4.505   6.040  0.3049 -0.4561  0.5868
  111OSM    C5F11457   2.195   4.376   5.859  0.1706  0.5784  0.0295
  111OSM    H5F11458   2.219   4.469   5.804  3.3021 -0.0637  0.1680
  111OSM    H5G11459   2.085   4.360   5.857  0.4544 -1.7195  0.2059
  111OSM    C6F11460   2.267   4.252   5.801  0.2275 -0.1319 -0.3696
  111OSM    H6F11461   2.234   4.170   5.868  1.4997 -1.3576 -1.1843
  111OSM    H6G11462   2.378   4.261   5.803  0.3326 -1.3429  0.3339
  111OSM    C7F11463   2.212   4.201   5.673 -0.4766  0.0730  0.0111
  111OSM    H7F11464   2.102   4.199   5.688 -0.6325  2.5856 -0.3694
  111OSM    H7G11465   2.252   4.101   5.645 -0.9943 -0.1136 -0.0762
  111OSM    C8F11466   2.236   4.296   5.556  0.8112  0.0172  0.5233
  111OSM    H8F11467   2.337   4.342   5.554  0.6067  0.4562 -0.7209
  111OSM    H8G11468   2.166   4.380   5.571 -0.0795 -0.4497 -0.8450
  111OSM    C9F11469   2.213   4.218   5.420  0.4003  0.0189 -0.2012
  111OSM    H9F11470   2.112   4.179   5.397  0.2057 -0.4334  1.3355
  111OSM   C10F11471   2.300   4.195   5.321  0.0972  0.6326  0.1859
  111OSM   H10F11472   2.263   4.144   5.232 -1.0283 -0.1379  1.0634
  111OSM   C11F11473   2.440   4.245   5.316 -0.3044  0.0885  0.0894
  111OSM   H11F11474   2.515   4.164   5.301 -1.9434 -1.2270 -1.4474
  111OSM   H11G11475   2.470   4.300   5.407  2.1142 -2.0287  0.7086
  111OSM   C12F11476   2.468   4.343   5.202  0.3476  0.0894  0.5966
  111OSM   H12F11477   2.569   4.382   5.229  0.1497  0.5202  0.7252
  111OSM   H12G11478   2.397   4.428   5.202  1.7873  1.3531 -0.1420
  111OSM   C13F11479   2.473   4.286   5.060 -0.3926  0.4800  0.7150
  111OSM   H13F11480   2.376   4.255   5.016  0.5764  2.5708 -3.2867
  111OSM   H13G11481   2.540   4.197   5.065 -2.6141 -1.3055  0.0129
  111OSM   C14F11482   2.530   4.378   4.946 -0.1363  0.6595  0.5107
  111OSM   H14F11483   2.632   4.417   4.964 -0.7939  2.0508  1.4004
  111OSM   H14G11484   2.462   4.465   4.950 -1.9498 -0.6067 -1.0845
  111OSM   C15F11485   2.509   4.312   4.805  0.0986 -0.0125 -0.4765
  111OSM   H15F11486   2.466   4.380   4.730 -0.6156 -0.9050 -0.8946
  111OSM   H15G11487   2.428   4.237   4.818 -0.6832  0.7875 -0.6471
  111OSM   C16F11488   2.630   4.242   4.739 -0.2407 -0.0411  0.0177
  111OSM   H16F11489   2.603   4.203   4.639  2.1644 -0.7874 -0.4142
  111OSM   H16G11490   2.654   4.155   4.804 -0.4857 -0.0193  0.1380
  111OSM   C17F11491   2.756   4.332   4.743 -1.3381  0.7000 -0.4582
  111OSM   H17F11492   2.849   4.287   4.701  0.4307  2.9282  0.8770
  111OSM   H17G11493   2.788   4.349   4.848  2.3002 -2.2066 -0.8849
  111OSM   C18F11494   2.737   4.463   4.674 -0.6484 -0.5212  0.7402
  111OSM   H18F11495   2.835   4.503   4.640 -0.0584 -2.9959 -0.7103
  111OSM   H18G11496   2.677   4.536   4.732 -0.3299  0.2575  0.1018
  111OSM   H18H11497   2.679   4.439   4.583  0.4519  1.6560 -0.6035
  112OSM      N11498   5.630   0.625   6.387  0.2098 -0.2430 -0.2410
  112OSM    C1511499   5.669   0.523   6.492  0.2270  0.3909  0.2160
  112OSM   H15A11500   5.747   0.556   6.559 -0.2089 -0.8474  1.3722
  112OSM   H15B11501   5.703   0.429   6.452  1.0599  0.4103  0.8596
  112OSM   H15C11502   5.580   0.497   6.548 -1.5050  2.6287 -1.2781
  112OSM    C1411503   5.742   0.643   6.288  0.1187 -0.7976  0.0049
  112OSM   H14A11504   5.828   0.687   6.336  0.0243 -0.6038 -0.0019
  112OSM   H14B11505   5.701   0.709   6.213  0.0193  1.6351  2.0773
  112OSM   H14C11506   5.762   0.548   6.240  2.3978  0.0633 -0.9103
  112OSM    C1311507   5.517   0.567   6.311 -0.5069  0.2860 -0.4977
  112OSM   H13A11508   5.531   0.463   6.286  0.0405 -0.1850  1.5555
  112OSM   H13B11509   5.492   0.625   6.223  0.6115  0.1710 -0.8994
  112OSM   H13C11510   5.424   0.591   6.362  0.1456  4.6025 -0.9809
  112OSM    C1211511   5.591   0.759   6.456  0.6185 -0.0602 -0.0998
  112OSM   H12A11512   5.524   0.736   6.537  1.0718 -0.8004  0.0748
  112OSM   H12B11513   5.548   0.828   6.385 -2.8994 -2.2970 -0.3853
  112OSM    C1111514   5.706   0.831   6.531 -0.1762  0.0837  0.4109
  112OSM   H11A11515   5.786   0.853   6.457  0.1543 -0.2736  0.6606
  112OSM   H11B11516   5.760   0.777   6.612  1.8463  0.0395 -0.9005
  112OSM      P11517   5.739   1.072   6.610  0.1110  0.0447 -0.6011
  112OSM    O1311518   5.654   1.172   6.678  0.2708  0.2828  0.4880
  112OSM    O1411519   5.867   1.033   6.679 -0.3821  0.1777  0.2358
  112OSM    O1111520   5.781   1.112   6.467  0.1080 -0.8482  0.2286
  112OSM    O1211521   5.649   0.945   6.591 -0.6287 -0.5378 -0.0579
  112OSM    C1S11522   5.674   1.144   6.376 -0.4471  0.0474 -0.2111
  112OSM    H1S11523   5.641   1.249   6.389  0.7291  0.6197 -1.5081
  112OSM    H1T11524   5.589   1.073   6.378  1.5231 -2.4489  1.3073
  112OSM     NF11525   5.619   1.173   6.139  0.2507 -0.0934  0.8890
  112OSM    HNF11526   5.565   1.103   6.093  1.4312  0.3212 -1.2449
  112OSM    C2S11527   5.728   1.136   6.226  0.2226 -0.6125 -0.2626
  112OSM    H2S11528   5.807   1.213   6.233  0.7529 -0.9405 -1.9933
  112OSM    C3S11529   5.797   0.997   6.191  0.8920  0.3374  0.4565
  112OSM    H3S11530   5.721   0.916   6.191 -0.7278  1.7926  0.0671
  112OSM     O311531   5.906   0.962   6.280  0.2690 -0.1559 -0.9203
  112OSM    HO311532   5.891   1.008   6.362 -1.8830 -2.0481 -0.1477
  112OSM    C4S11533   5.854   1.010   6.057  0.3589  0.0914  0.2066
  112OSM    H4S11534   5.788   0.974   5.976  1.7830 -0.0922 -0.9018
  112OSM    C5S11535   5.975   1.044   6.018  0.7962 -0.3513  0.0290
  112OSM    H5S11536   6.049   1.081   6.090  1.3112 -0.5049 -0.4143
  112OSM    C6S11537   6.036   1.035   5.878 -0.0814  0.2386 -0.2263
  112OSM    H6S11538   6.107   0.950   5.867 -0.8411 -0.3982 -0.3700
  112OSM    H6T11539   6.105   1.120   5.865 -0.1886  0.1984 -1.1298
  112OSM    C7S11540   5.941   1.040   5.755 -0.6605  0.8337  0.5232
  112OSM    H7S11541   5.891   1.139   5.753  0.5360  1.4486 -0.5513
  112OSM    H7T11542   5.864   0.960   5.747  1.5350 -1.2553 -1.2809
  112OSM    C8S11543   6.010   1.015   5.625 -0.8219 -0.3963  0.4316
  112OSM    H8S11544   6.014   0.904   5.622  0.1485 -0.3547 -0.7475
  112OSM    H8T11545   6.115   1.049   5.613 -1.4066  1.3289 -0.0526
  112OSM    C9S11546   5.926   1.075   5.512 -0.4713 -0.4413  0.1727
  112OSM    H9S11547   5.928   1.186   5.516 -0.2223 -0.4798  1.6591
  112OSM    H9T11548   5.818   1.048   5.522 -0.9092  0.6125 -1.4209
  112OSM   C10S11549   5.964   1.015   5.375 -0.5432  0.0633 -0.1063
  112OSM   H10S11550   5.934   0.908   5.376  0.9748 -0.3780  0.6517
  112OSM   H10T11551   6.071   1.033   5.353 -0.5629 -2.1251 -2.3365
  112OSM   C11S11552   5.874   1.081   5.274 -0.6017  0.0897  0.7962
  112OSM   H11S11553   5.875   1.192   5.276  1.1170  0.2578 -2.4291
  112OSM   H11T11554   5.768   1.048   5.272 -0.6805  0.3393 -1.3738
  112OSM   C12S11555   5.934   1.065   5.136  0.1557 -0.0706  0.8076
  112OSM   H12S11556   5.924   0.960   5.101  1.4160 -0.2215  0.8828
  112OSM   H12T11557   6.041   1.094   5.133  0.1950 -0.2464  0.5247
  112OSM   C13S11558   5.860   1.148   5.025  0.3709  0.2548  0.9802
  112OSM   H13S11559   5.757   1.111   5.008  0.7609 -0.4200 -0.0420
  112OSM   H13T11560   5.920   1.128   4.934 -1.9625 -0.3566 -0.4957
  112OSM   C14S11561   5.853   1.300   5.039 -0.3516  0.6154  0.1227
  112OSM   H14S11562   5.947   1.353   5.063 -0.2758  0.7730 -0.5134
  112OSM   H14T11563   5.782   1.321   5.122 -0.4459  0.0713  0.1832
  112OSM   C15S11564   5.791   1.357   4.911 -0.4264 -0.9521  0.2388
  112OSM   H15S11565   5.691   1.310   4.905 -0.4314 -1.3757  2.6085
  112OSM   H15T11566   5.855   1.322   4.828 -0.2576 -1.1204  0.4389
  112OSM   C16S11567   5.779   1.511   4.894  0.1219  0.7416 -0.2917
  112OSM   H16S11568   5.884   1.545   4.887  0.3322 -0.1754 -2.3418
  112OSM   H16T11569   5.726   1.569   4.973  0.8680  1.5001 -0.3373
  112OSM   C17S11570   5.710   1.535   4.757  0.4297 -0.3925  0.0630
  112OSM   H17S11571   5.604   1.502   4.761  0.0945  0.4081 -1.5630
  112OSM   H17T11572   5.768   1.498   4.670  2.7376  1.6244  0.6255
  112OSM   C18S11573   5.697   1.691   4.734  0.1675  0.1525  0.4623
  112OSM   H18S11574   5.604   1.728   4.782 -0.2908 -0.0163 -0.2830
  112OSM   H18T11575   5.709   1.719   4.628 -1.2519 -0.7857  0.0293
  112OSM   H18U11576   5.772   1.745   4.795 -1.3369  1.1895  1.4626
  112OSM    C1F11577   5.588   1.301   6.125 -0.1482 -0.3274  0.1275
  112OSM     OF11578   5.634   1.383   6.198 -0.7014  0.2867 -1.1044
  112OSM    C2F11579   5.485   1.330   6.019 -0.4338  0.0705  0.2519
  112OSM    H2F11580   5.392   1.272   6.036 -0.6701  0.5067  0.4623
  112OSM    H2G11581   5.531   1.303   5.922 -1.0497 -2.5923  0.6282
  112OSM    C3F11582   5.442   1.478   6.011 -0.7330  0.0847 -0.3227
  112OSM    H3F11583   5.534   1.533   5.982 -0.6104 -1.1517 -2.5030
  112OSM    H3G11584   5.402   1.521   6.105  0.7349  2.6971 -0.8047
  112OSM    C4F11585   5.334   1.505   5.896  0.3345  0.3135 -0.9949
  112OSM    H4F11586   5.273   1.596   5.913 -0.4725 -0.5256  0.8985
  112OSM    H4G11587   5.257   1.427   5.914 -1.2568  2.2528  0.9983
  112OSM    C5F11588   5.375   1.506   5.748  0.7127  0.4228 -0.1854
  112OSM    H5F11589   5.417   1.409   5.714 -3.6092 -1.0134 -2.0919
  112OSM    H5G11590   5.452   1.587   5.745  0.5014  0.6124 -0.5026
  112OSM    C6F11591   5.262   1.560   5.652 -0.4216 -0.6696  0.4175
  112OSM    H6F11592   5.214   1.652   5.693 -0.4127 -1.1600  1.5537
  112OSM    H6G11593   5.179   1.487   5.654 -1.7801  0.8064  0.1333
  112OSM    C7F11594   5.312   1.578   5.507  0.5035 -0.0885 -0.0076
  112OSM    H7F11595   5.348   1.485   5.458 -1.1064 -0.8337  0.1627
  112OSM    H7G11596   5.384   1.662   5.497 -1.7905  1.9150 -0.6391
  112OSM    C8F11597   5.193   1.632   5.420  0.2453  0.4826 -0.2640
  112OSM    H8F11598   5.230   1.675   5.324 -1.5597  2.6299 -0.0705
  112OSM    H8G11599   5.140   1.709   5.481 -4.3693 -2.6555  0.2589
  112OSM    C9F11600   5.083   1.531   5.397  0.3743 -0.3729 -0.0847
  112OSM    H9F11601   5.096   1.435   5.450  1.3789 -1.1229 -1.6214
  112OSM   C10F11602   4.991   1.535   5.297 -0.7658  0.2507 -0.4686
  112OSM   H10F11603   4.918   1.453   5.298 -0.3488 -0.2216 -2.8485
  112OSM   C11F11604   4.954   1.638   5.198 -0.7245 -0.1859  0.1322
  112OSM   H11F11605   5.035   1.714   5.193 -1.4959  0.5808 -1.8707
  112OSM   H11G11606   4.854   1.685   5.206 -1.0166 -0.3694 -1.9972
  112OSM   C12F11607   4.956   1.585   5.055 -0.3609 -0.0590 -0.1240
  112OSM   H12F11608   5.042   1.521   5.028  2.6836  2.1840  3.3039
  112OSM   H12G11609   4.941   1.678   4.995 -1.4978  0.4295  0.8577
  112OSM   C13F11610   4.837   1.492   5.018 -0.7318  0.9921  0.0718
  112OSM   H13F11611   4.848   1.397   5.074 -1.4914  0.7731 -0.1259
  112OSM   H13G11612   4.832   1.459   4.911  2.6697  2.7352 -0.7681
  112OSM   C14F11613   4.702   1.550   5.056 -0.5688  0.2409  0.3491
  112OSM   H14F11614   4.698   1.659   5.036 -1.4464  0.0136 -0.7903
  112OSM   H14G11615   4.689   1.530   5.165 -0.3059 -1.5067  0.0927
  112OSM   C15F11616   4.582   1.489   4.984  0.2575 -0.0518  0.0670
  112OSM   H15F11617   4.583   1.509   4.874 -1.9033  1.8551  0.3203
  112OSM   H15G11618   4.489   1.544   5.009  0.7896  0.2024  1.5688
  112OSM   C16F11619   4.562   1.337   5.010  0.6362 -0.2031 -0.3770
  112OSM   H16F11620   4.653   1.296   4.963 -0.8132 -1.3241 -2.3387
  112OSM   H16G11621   4.466   1.313   4.959  1.8841  0.1886 -3.0647
  112OSM   C17F11622   4.549   1.302   5.160 -0.4114  0.4072 -0.9996
  112OSM   H17F11623   4.471   1.355   5.218 -0.1750  0.3404 -0.6174
  112OSM   H17G11624   4.646   1.325   5.210 -0.8620  0.0878  0.0350
  112OSM   C18F11625   4.520   1.160   5.185  1.0076 -0.1149 -0.2539
  112OSM   H18F11626   4.424   1.138   5.132  2.7478  0.0835 -3.7933
  112OSM   H18G11627   4.514   1.134   5.293 -0.8229 -2.0917 -0.7410
  112OSM   H18H11628   4.583   1.081   5.139  0.8567  0.0298 -0.7213
  113OSM      N11629   1.071   0.504   6.642  0.1835 -1.3738 -0.1329
  113OSM    C1511630   1.167   0.443   6.541 -0.0216  0.2618 -0.0617
  113OSM   H15A11631   1.221   0.359   6.581  0.4336 -0.9820 -3.0993
  113OSM   H15B11632   1.239   0.522   6.527 -1.1488  1.1027 -1.3978
  113OSM   H15C11633   1.123   0.417   6.446  1.6296  1.3077 -1.1670
  113OSM    C1411634   1.115   0.484   6.782  0.1437  0.0183 -0.7675
  113OSM   H14A11635   1.196   0.551   6.809 -0.3522 -0.4940  2.3704
  113OSM   H14B11636   1.153   0.383   6.786 -0.0303 -0.0425 -0.6379
  113OSM   H14C11637   1.035   0.494   6.854  1.8169  0.8799  1.0646
  113OSM    C1311638   1.069   0.655   6.620 -0.0887 -0.3245 -0.7370
  113OSM   H13A11639   1.006   0.696   6.698 -0.9487 -1.5388 -0.7556
  113OSM   H13B11640   1.029   0.691   6.527 -0.2779  2.0354  0.2024
  113OSM   H13C11641   1.169   0.694   6.633 -0.3187 -0.0542  0.4081
  113OSM    C1211642   0.930   0.448   6.622  0.9600 -0.4857  0.6362
  113OSM   H12A11643   0.860   0.483   6.696 -2.9923 -3.6193 -1.2187
  113OSM   H12B11644   0.934   0.342   6.643  0.3630 -0.2325  2.1412
  113OSM    C1111645   0.862   0.473   6.482 -0.6176  0.0569  0.2828
  113OSM   H11A11646   0.865   0.583   6.464  2.8770 -0.1288 -1.0462
  113OSM   H11B11647   0.757   0.439   6.495 -0.2106 -1.1772  0.4305
  113OSM      P11648   0.911   0.265   6.335 -0.2170  0.2295  0.1811
  113OSM    O1311649   1.041   0.197   6.366 -0.1776  0.4000 -0.0419
  113OSM    O1411650   0.789   0.214   6.407  0.5913  0.1173  0.1156
  113OSM    O1111651   0.877   0.266   6.176  0.5330  0.4625  0.0974
  113OSM    O1211652   0.932   0.420   6.373 -0.6268  0.4075 -0.0153
  113OSM    C1S11653   0.754   0.330   6.137  0.0909  0.7475 -0.4132
  113OSM    H1S11654   0.742   0.429   6.186  1.8392  0.6193  0.3592
  113OSM    H1T11655   0.677   0.260   6.177  3.4480 -2.1589  1.5905
  113OSM     NF11656   0.619   0.429   5.968  0.2705 -0.5064  0.0756
  113OSM    HNF11657   0.547   0.382   5.917 -0.9825  0.8607  0.5176
  113OSM    C2S11658   0.737   0.356   5.988 -0.5818  0.5660 -0.4004
  113OSM    H2S11659   0.829   0.400   5.945 -0.4087 -1.2067 -1.9388
  113OSM    C3S11660   0.736   0.216   5.918  1.0918 -0.3586  0.2835
  113OSM    H3S11661   0.644   0.167   5.956  1.2102 -1.3900 -0.6904
  113OSM     O311662   0.829   0.121   5.957 -0.6717 -0.3204 -0.3447
  113OSM    HO311663   0.867   0.155   6.038  1.6307 -2.2344 -0.5471
  113OSM    C4S11664   0.709   0.214   5.768 -0.3117  0.3429  0.3086
  113OSM    H4S11665   0.605   0.215   5.734 -0.0540  4.7724 -0.9451
  113OSM    C5S11666   0.803   0.207   5.668  0.2425  0.4810  0.6407
  113OSM    H5S11667   0.909   0.210   5.696  0.5486  1.2486 -0.5167
  113OSM    C6S11668   0.769   0.204   5.516  0.4948  0.6594 -0.1234
  113OSM    H6S11669   0.664   0.231   5.490  1.7270  4.0115 -2.2733
  113OSM    H6T11670   0.781   0.102   5.474 -1.3778  0.4723 -0.3050
  113OSM    C7S11671   0.842   0.317   5.449  0.3039  0.0405  0.4187
  113OSM    H7S11672   0.950   0.294   5.439  0.2843 -1.2625  2.6354
  113OSM    H7T11673   0.834   0.409   5.510 -1.7718  0.3445 -0.2416
  113OSM    C8S11674   0.790   0.353   5.305 -0.0596  0.5511  0.0382
  113OSM    H8S11675   0.819   0.458   5.284  0.2934  0.2190 -1.1617
  113OSM    H8T11676   0.679   0.343   5.315  0.1688 -1.0356  1.6742
  113OSM    C9S11677   0.845   0.266   5.193  0.2842 -0.8277  0.3462
  113OSM    H9S11678   0.812   0.163   5.220 -0.0181 -0.6314  0.7323
  113OSM    H9T11679   0.956   0.266   5.182  0.2619  0.6519 -0.0823
  113OSM   C10S11680   0.788   0.313   5.057 -0.1742  0.0870 -0.6829
  113OSM   H10S11681   0.817   0.420   5.052 -0.8717  0.3484  0.4871
  113OSM   H10T11682   0.678   0.302   5.061 -0.2824  0.5814 -2.0447
  113OSM   C11S11683   0.852   0.249   4.934  0.0274 -0.1084 -0.1222
  113OSM   H11S11684   0.855   0.139   4.948 -0.3258 -0.1047 -0.0200
  113OSM   H11T11685   0.956   0.290   4.940 -0.6943  1.8167 -0.0124
  113OSM   C12S11686   0.792   0.296   4.798  0.0643 -0.7792  0.0332
  113OSM   H12S11687   0.693   0.338   4.824 -0.5213 -2.4284  0.5672
  113OSM   H12T11688   0.769   0.203   4.743 -0.7161  0.0149 -1.0252
  113OSM   C13S11689   0.879   0.393   4.716  0.2740  0.1227 -0.3225
  113OSM   H13S11690   0.985   0.362   4.711  0.3931 -0.1371  2.2417
  113OSM   H13T11691   0.873   0.485   4.779 -1.3279  0.6708 -1.2153
  113OSM   C14S11692   0.827   0.418   4.570  0.1917  0.2530 -0.0939
  113OSM   H14S11693   0.882   0.510   4.539 -1.9286  1.3599 -0.7610
  113OSM   H14T11694   0.717   0.431   4.582 -0.0244 -0.4461 -1.1402
  113OSM   C15S11695   0.855   0.312   4.463 -0.3641  0.3131  0.2032
  113OSM   H15S11696   0.832   0.350   4.361  0.0734  0.6772  0.2375
  113OSM   H15T11697   0.804   0.216   4.484  1.8758 -1.2230 -0.9331
  113OSM   C16S11698   1.002   0.272   4.450 -0.8067  0.1013  0.0196
  113OSM   H16S11699   1.036   0.220   4.543 -0.0382  0.9776  0.2494
  113OSM   H16T11700   1.068   0.360   4.439 -0.5987 -0.3407 -3.2083
  113OSM   C17S11701   1.031   0.172   4.339 -0.5113 -0.3836  0.8880
  113OSM   H17S11702   1.018   0.220   4.239  2.5587 -0.4558  0.3672
  113OSM   H17T11703   0.961   0.088   4.359 -0.6937 -0.3221  0.5233
  113OSM   C18S11704   1.169   0.120   4.345  0.1230  0.1958  0.4178
  113OSM   H18S11705   1.191   0.080   4.446 -1.8392 -4.9202 -0.8461
  113OSM   H18T11706   1.240   0.196   4.308 -0.0836 -0.0591 -0.5181
  113OSM   H18U11707   1.174   0.031   4.279  0.3800  0.6494 -0.1796
  113OSM    C1F11708   0.599   0.556   5.991  0.0603  0.0600 -0.1734
  113OSM     OF11709   0.688   0.622   6.040 -0.4900 -0.5958  0.0909
  113OSM    C2F11710   0.462   0.610   5.956 -1.0418  0.1664 -0.6183
  113OSM    H2F11711   0.428   0.667   6.044  0.1022 -0.5140  0.2861
  113OSM    H2G11712   0.386   0.529   5.954 -1.1411  0.2396 -0.0038
  113OSM    C3F11713   0.464   0.701   5.831 -0.1742 -0.1908  0.1835
  113OSM    H3F11714   0.511   0.801   5.841 -1.0387  0.2604 -0.2024
  113OSM    H3G11715   0.358   0.730   5.818  0.1853  1.1937  0.1674
  113OSM    C4F11716   0.532   0.634   5.700 -0.2234 -0.1675 -0.4899
  113OSM    H4F11717   0.500   0.527   5.694  0.1214 -0.4079  1.2231
  113OSM    H4G11718   0.640   0.624   5.722 -0.4324 -2.2191 -0.1827
  113OSM    C5F11719   0.515   0.712   5.576 -0.2149 -0.2341  0.6633
  113OSM    H5F11720   0.563   0.813   5.575  2.3468 -1.3799  0.3548
  113OSM    H5G11721   0.405   0.711   5.561 -0.0257  0.1322 -0.9109
  113OSM    C6F11722   0.579   0.658   5.453 -0.2472  0.0729  0.0863
  113OSM    H6F11723   0.587   0.548   5.447  0.9840  0.0583  1.3947
  113OSM    H6G11724   0.685   0.692   5.454 -0.2773  0.1988  1.4557
  113OSM    C7F11725   0.514   0.712   5.323 -0.2574  0.6394 -0.6421
  113OSM    H7F11726   0.535   0.819   5.301  0.2032  0.9164  1.0275
  113OSM    H7G11727   0.405   0.723   5.342 -0.1314  1.2564 -0.2360
  113OSM    C8F11728   0.536   0.620   5.204  0.0850 -0.9600 -0.6747
  113OSM    H8F11729   0.476   0.530   5.229 -2.3482  0.4284 -1.1676
  113OSM    H8G11730   0.647   0.609   5.201  0.2841 -0.0998  1.7413
  113OSM    C9F11731   0.474   0.682   5.078 -0.5799 -0.1613  0.6090
  113OSM    H9F11732   0.371   0.649   5.058 -1.0472  2.2964 -1.6072
  113OSM   C10F11733   0.539   0.760   4.980 -0.5788  0.4147  0.0545
  113OSM   H10F11734   0.489   0.805   4.893  0.0269 -1.8085 -1.5229
  113OSM   C11F11735   0.685   0.797   4.989  0.0234 -0.1834  0.9889
  113OSM   H11F11736   0.737   0.741   4.909  0.5401  1.6117  0.0070
  113OSM   H11G11737   0.728   0.771   5.088  1.2863  1.6084  0.9709
  113OSM   C12F11738   0.719   0.950   4.972  0.6476  0.4505  0.5041
  113OSM   H12F11739   0.827   0.964   4.995  0.6214  3.0257 -0.5410
  113OSM   H12G11740   0.669   1.001   5.056  2.3793  0.7524  1.3993
  113OSM   C13F11741   0.686   1.007   4.833 -0.3743  0.2839  0.0759
  113OSM   H13F11742   0.703   1.117   4.841 -3.2733  0.7256  1.1318
  113OSM   H13G11743   0.578   0.990   4.814 -0.1129 -1.7844  0.2269
  113OSM   C14F11744   0.755   0.945   4.720 -0.2046 -0.2538  0.3669
  113OSM   H14F11745   0.715   0.841   4.718 -2.8704  0.6697  1.4096
  113OSM   H14G11746   0.865   0.929   4.716 -0.1239  0.3368  0.0016
  113OSM   C15F11747   0.711   1.001   4.578 -0.2830  0.7075  0.1308
  113OSM   H15F11748   0.698   1.111   4.588  0.7790  0.8300  0.2517
  113OSM   H15G11749   0.607   0.966   4.567  0.9492 -2.5559 -2.7418
  113OSM   C16F11750   0.797   0.956   4.462 -0.1146  0.2264 -0.2155
  113OSM   H16F11751   0.750   0.997   4.370 -1.3990 -0.9139 -0.1031
  113OSM   H16G11752   0.796   0.845   4.455 -0.4712  0.3044 -1.8183
  113OSM   C17F11753   0.950   0.996   4.459 -0.2171 -0.3758  0.2791
  113OSM   H17F11754   1.005   0.955   4.546 -0.1363  0.4205  0.6122
  113OSM   H17G11755   0.947   1.107   4.463 -2.8589 -0.4026  0.7461
  113OSM   C18F11756   1.015   0.944   4.330 -0.0521  0.1154 -0.0511
  113OSM   H18F11757   0.957   0.967   4.238 -1.5866  1.9721  1.2826
  113OSM   H18G11758   1.029   0.835   4.346  0.3916  0.0579 -0.8199
  113OSM   H18H11759   1.116   0.986   4.314 -0.4749  1.0291 -0.4253
  114OSM      N11760   0.989   5.301   6.554 -0.0910  0.2044 -0.0366
  114OSM    C1511761   1.102   5.209   6.595 -0.1019  0.2691 -0.1023
  114OSM   H15A11762   1.189   5.260   6.634  0.8328 -0.1094 -1.6305
  114OSM   H15B11763   1.130   5.145   6.513  1.1159  0.5026  0.1162
  114OSM   H15C11764   1.072   5.143   6.676 -0.6378  2.2395  1.3853
  114OSM    C1411765   0.932   5.362   6.673  0.2250 -0.3682 -0.5877
  114OSM   H14A11766   0.870   5.290   6.724  2.3614 -2.9709 -1.3857
  114OSM   H14B11767   0.870   5.444   6.641  0.2329 -1.1759 -2.8284
  114OSM   H14C11768   1.006   5.412   6.735 -1.4663 -1.1262  2.2103
  114OSM    C1311769   1.061   5.400   6.465  0.3232  0.3532  0.8443
  114OSM   H13A11770   0.998   5.486   6.450  0.5139  0.1685 -1.2084
  114OSM   H13B11771   1.081   5.349   6.372 -0.5167 -1.3033  1.5238
  114OSM   H13C11772   1.151   5.434   6.514  0.4977 -1.2753  1.7392
  114OSM    C1211773   0.890   5.229   6.478 -0.2182 -0.4275 -0.4655
  114OSM   H12A11774   0.831   5.166   6.542 -0.5825  0.6711  0.3132
  114OSM   H12B11775   0.938   5.148   6.426  2.3117 -0.8134  2.2246
  114OSM    C1111776   0.787   5.301   6.392  0.6417 -0.3684  0.1593
  114OSM   H11A11777   0.725   5.228   6.336  1.9295 -0.0208 -1.8181
  114OSM   H11B11778   0.838   5.367   6.318 -2.1199  1.0953 -0.5813
  114OSM      P11779   0.580   5.326   6.550 -0.0562  0.1915  0.0397
  114OSM    O1311780   0.624   5.217   6.643 -0.2388  0.3719 -0.1119
  114OSM    O1411781   0.497   5.436   6.603  0.2337 -0.1200  0.1239
  114OSM    O1111782   0.508   5.259   6.426 -0.7653 -0.4106  0.0368
  114OSM    O1211783   0.700   5.384   6.472  0.2874 -0.3903  0.0860
  114OSM    C1S11784   0.448   5.339   6.326  0.3839  0.2314  0.5967
  114OSM    H1S11785   0.503   5.433   6.305  0.9689 -0.5671 -1.7863
  114OSM    H1T11786   0.344   5.364   6.357 -0.9160 -0.9008 -2.5119
  114OSM     NF11787   0.401   5.338   6.070 -0.3014  0.7095 -0.3848
  114OSM    HNF11788   0.319   5.306   6.022 -1.3201  0.1244  1.6099
  114OSM    C2S11789   0.447   5.256   6.183  0.0306  0.6401  0.0995
  114OSM    H2S11790   0.551   5.218   6.168  0.5388  1.3814  1.5244
  114OSM    C3S11791   0.361   5.123   6.209  0.2254 -0.0326  0.1352
  114OSM    H3S11792   0.261   5.168   6.225  0.3706  1.0870 -1.8509
  114OSM     O311793   0.405   5.048   6.325 -0.4067 -0.2412 -0.8410
  114OSM    HO311794   0.466   5.108   6.368 -2.2600  0.6887  0.6366
  114OSM    C4S11795   0.350   5.037   6.090 -0.5369  0.0560 -0.3551
  114OSM    H4S11796   0.274   5.072   6.017 -2.3345 -1.5529  0.6363
  114OSM    C5S11797   0.426   4.930   6.062 -0.2883 -0.4126  0.4055
  114OSM    H5S11798   0.511   4.906   6.128  0.4866  0.7353 -0.1433
  114OSM    C6S11799   0.427   4.840   5.945  0.3843  0.7828  0.1950
  114OSM    H6S11800   0.440   4.736   5.984  0.7085  1.1235  1.0152
  114OSM    H6T11801   0.502   4.855   5.864 -0.5758  1.5634 -0.5686
  114OSM    C7S11802   0.289   4.837   5.875 -0.4582  0.5659 -0.1409
  114OSM    H7S11803   0.256   4.940   5.848 -1.1746  0.9005  1.8451
  114OSM    H7T11804   0.216   4.810   5.954 -1.1387  1.1459 -0.5540
  114OSM    C8S11805   0.282   4.740   5.753  0.7294  0.5962  0.1013
  114OSM    H8S11806   0.186   4.742   5.698  1.3313 -0.9177 -1.1163
  114OSM    H8T11807   0.291   4.638   5.796  4.6749  0.4425 -0.6947
  114OSM    C9S11808   0.400   4.755   5.652 -0.7333  0.3626  0.6437
  114OSM    H9S11809   0.492   4.713   5.699 -0.2410  0.0978 -0.5069
  114OSM    H9T11810   0.423   4.862   5.631 -1.1311  0.0279 -1.7410
  114OSM   C10S11811   0.362   4.690   5.517 -0.2462  1.0643 -0.4864
  114OSM   H10S11812   0.269   4.741   5.485 -1.3050 -0.6602 -0.2500
  114OSM   H10T11813   0.347   4.581   5.527 -0.1314  1.0165 -0.8353
  114OSM   C11S11814   0.460   4.720   5.410  0.0175  0.0250 -0.4527
  114OSM   H11S11815   0.552   4.662   5.431 -0.0654  0.2683  0.5975
  114OSM   H11T11816   0.492   4.826   5.405 -1.4591  0.5264  0.0578
  114OSM   C12S11817   0.419   4.662   5.271  0.7151  0.4615  0.0684
  114OSM   H12S11818   0.347   4.736   5.231 -0.1460  0.3506  1.3422
  114OSM   H12T11819   0.371   4.564   5.288  0.3266  0.3189 -1.6439
  114OSM   C13S11820   0.527   4.642   5.165  0.0394  0.0798 -0.5398
  114OSM   H13S11821   0.607   4.575   5.201  0.1393  0.5329  0.1053
  114OSM   H13T11822   0.581   4.739   5.159  1.2784 -0.4899  0.8580
  114OSM   C14S11823   0.488   4.594   5.019  0.0060 -0.2329  0.1007
  114OSM   H14S11824   0.417   4.676   4.997  2.2137  2.8391  3.2572
  114OSM   H14T11825   0.436   4.496   5.031 -0.4960  0.2379  2.2921
  114OSM   C15S11826   0.608   4.589   4.925  0.4736 -0.3210  0.3592
  114OSM   H15S11827   0.665   4.496   4.941 -1.1009 -1.1105  1.6921
  114OSM   H15T11828   0.670   4.679   4.944 -0.7142  0.9256 -1.2756
  114OSM   C16S11829   0.575   4.590   4.775  0.6049 -0.2155  0.3981
  114OSM   H16S11830   0.662   4.594   4.707  0.0373 -0.4286 -0.3620
  114OSM   H16T11831   0.519   4.682   4.749 -2.1514 -1.1400  2.5171
  114OSM   C17S11832   0.493   4.469   4.731 -0.0635  0.8723 -0.5468
  114OSM   H17S11833   0.465   4.501   4.629 -0.6501  0.1636 -0.6191
  114OSM   H17T11834   0.399   4.460   4.790 -0.2996 -1.1951 -1.1526
  114OSM   C18S11835   0.566   4.328   4.724  0.0913 -0.0133  0.3706
  114OSM   H18S11836   0.592   4.289   4.825  2.7763 -0.7964 -0.5408
  114OSM   H18T11837   0.661   4.342   4.668  0.1472  0.7175  0.6400
  114OSM   H18U11838   0.499   4.249   4.684 -0.5400  0.6234  0.1593
  114OSM    C1F11839   0.469   5.440   6.024 -0.8649  0.4683 -0.1952
  114OSM     OF11840   0.567   5.485   6.085 -0.0890 -0.4056  0.3906
  114OSM    C2F11841   0.441   5.485   5.888  0.2875  0.0801  0.5473
  114OSM    H2F11842   0.359   5.560   5.892  1.3374  1.2172  3.2300
  114OSM    H2G11843   0.406   5.410   5.814 -0.4796  2.6749 -1.9121
  114OSM    C3F11844   0.549   5.571   5.814 -0.0901  0.4379 -0.1727
  114OSM    H3F11845   0.635   5.503   5.796 -1.1663 -1.0028 -0.0826
  114OSM    H3G11846   0.575   5.658   5.878  1.7846 -0.6497  0.6260
  114OSM    C4F11847   0.500   5.619   5.687  0.1545 -0.6124  0.8162
  114OSM    H4F11848   0.575   5.693   5.653 -0.4228  1.3470  3.4486
  114OSM    H4G11849   0.410   5.680   5.711  0.9835  0.6843  0.7385
  114OSM    C5F11850   0.465   5.523   5.578  0.8237 -0.1615  0.6147
  114OSM    H5F11851   0.374   5.465   5.604  0.5693 -0.7827 -1.4495
  114OSM    H5G11852   0.552   5.453   5.572  3.4790  2.9641 -0.1830
  114OSM    C6F11853   0.441   5.587   5.439 -0.3214  0.1681 -0.2762
  114OSM    H6F11854   0.537   5.632   5.406 -0.9468  1.5135 -0.3345
  114OSM    H6G11855   0.360   5.663   5.446 -2.4994 -1.9660 -0.8183
  114OSM    C7F11856   0.394   5.473   5.343  0.1393 -0.7945  1.1081
  114OSM    H7F11857   0.291   5.460   5.384 -0.4049  1.3498  0.5729
  114OSM    H7G11858   0.448   5.377   5.357  0.5052 -0.8326 -0.4523
  114OSM    C8F11859   0.376   5.522   5.198 -0.1763  0.3931 -0.4295
  114OSM    H8F11860   0.363   5.632   5.191  1.1755  0.4975 -1.8610
  114OSM    H8G11861   0.287   5.477   5.149  1.5673 -0.6724 -2.8145
  114OSM    C9F11862   0.498   5.480   5.117  0.5980  0.0661  0.1949
  114OSM    H9F11863   0.577   5.433   5.178  1.1830 -1.7188 -1.8179
  114OSM   C10F11864   0.520   5.500   4.986  0.4453 -0.0981 -0.7354
  114OSM   H10F11865   0.615   5.473   4.938  0.7982 -0.0722 -0.0618
  114OSM   C11F11866   0.421   5.582   4.904 -0.1044  0.0935 -0.1337
  114OSM   H11F11867   0.327   5.600   4.960  0.7711 -1.2983  1.8856
  114OSM   H11G11868   0.384   5.523   4.817 -0.9918  0.2300  0.1472
  114OSM   C12F11869   0.490   5.714   4.880  0.1927  0.2033 -0.1480
  114OSM   H12F11870   0.509   5.743   4.986  0.5625 -1.3383  0.2397
  114OSM   H12G11871   0.420   5.790   4.841 -1.7076 -1.6828 -0.5795
  114OSM   C13F11872   0.610   5.715   4.797 -0.5303  0.1669 -0.1370
  114OSM   H13F11873   0.692   5.658   4.845 -0.2828  2.1578  2.0073
  114OSM   H13G11874   0.651   5.817   4.783 -2.3442  0.9357 -0.2005
  114OSM   C14F11875   0.580   5.661   4.655 -0.2589 -0.8135 -0.4222
  114OSM   H14F11876   0.626   5.732   4.583  1.0279  1.4567  2.4591
  114OSM   H14G11877   0.471   5.665   4.636 -0.4575 -2.0411  0.3852
  114OSM   C15F11878   0.643   5.523   4.629 -0.4368  0.1767  0.1283
  114OSM   H15F11879   0.615   5.440   4.697 -2.2926  0.8235  0.2093
  114OSM   H15G11880   0.753   5.536   4.638 -0.5016  1.8083 -0.9311
  114OSM   C16F11881   0.628   5.474   4.482 -0.1253 -0.7132 -0.2180
  114OSM   H16F11882   0.675   5.540   4.406  1.0676 -1.8062 -0.4533
  114OSM   H16G11883   0.519   5.482   4.462 -0.0126  0.4508 -0.4652
  114OSM   C17F11884   0.688   5.340   4.457  0.5021 -0.0108 -0.1386
  114OSM   H17F11885   0.649   5.299   4.362 -0.2558 -1.0975  0.6177
  114OSM   H17G11886   0.675   5.265   4.538  1.2239 -0.8385 -0.7675
  114OSM   C18F11887   0.839   5.343   4.434 -0.0330 -0.5369  0.2715
  114OSM   H18F11888   0.881   5.241   4.433  1.3585 -0.0312  2.0620
  114OSM   H18G11889   0.902   5.398   4.507  0.6512 -0.6067 -0.2597
  114OSM   H18H11890   0.854   5.392   4.335  0.5120 -0.0887  0.5665
  115OSM      N11891   1.809   2.608   6.659  0.5262 -0.4945 -0.1277
  115OSM    C1511892   1.813   2.718   6.564  0.0995  0.6398  1.1035
  115OSM   H15A11893   1.762   2.694   6.472  1.3386  0.4911  0.4303
  115OSM   H15B11894   1.915   2.741   6.539  0.8160 -1.9379  1.3661
  115OSM   H15C11895   1.761   2.807   6.597 -0.4525  1.4579 -1.7171
  115OSM    C1411896   1.876   2.653   6.784  0.6828  0.0346 -0.0133
  115OSM   H14A11897   1.838   2.751   6.806 -1.0027 -1.1166  2.8099
  115OSM   H14B11898   1.984   2.650   6.783  0.7478 -1.0205  2.3891
  115OSM   H14C11899   1.851   2.592   6.870  1.0279  1.3394  1.0342
  115OSM    C1311900   1.674   2.581   6.701 -0.2361  0.8868 -0.1423
  115OSM   H13A11901   1.612   2.666   6.726 -0.4339  1.1206 -1.3581
  115OSM   H13B11902   1.679   2.526   6.794  0.8712  2.1083  0.5628
  115OSM   H13C11903   1.627   2.517   6.628  0.1770 -0.7364  0.9674
  115OSM    C1211904   1.874   2.482   6.601  0.4945  0.0650  0.8997
  115OSM   H12A11905   1.978   2.509   6.585  0.8527 -1.6315  0.1378
  115OSM   H12B11906   1.827   2.457   6.507 -1.3743 -2.3712  2.3736
  115OSM    C1111907   1.868   2.353   6.686 -0.0783 -0.5633 -0.1814
  115OSM   H11A11908   1.905   2.363   6.790  0.7033  0.3154 -0.5274
  115OSM   H11B11909   1.929   2.275   6.635 -1.7691 -0.4370 -2.5735
  115OSM      P11910   1.671   2.218   6.570 -0.3413 -0.5234  0.2112
  115OSM    O1311911   1.559   2.141   6.626  0.5066 -0.5500 -0.2700
  115OSM    O1411912   1.643   2.312   6.454 -0.1396  0.1901  0.1625
  115OSM    O1111913   1.792   2.125   6.519  0.5273 -0.8528  0.0116
  115OSM    O1211914   1.741   2.301   6.689  0.4504  0.0563 -0.1385
  115OSM    C1S11915   1.781   2.032   6.416 -0.3444  0.3340 -0.5049
  115OSM    H1S11916   1.689   1.971   6.431 -0.2995  0.5348  0.6860
  115OSM    H1T11917   1.865   1.959   6.416 -1.0358 -0.5330  1.5200
  115OSM     NF11918   1.757   1.993   6.167 -0.1011 -0.3311 -0.0658
  115OSM    HNF11919   1.824   1.953   6.105 -1.3212 -1.3032 -0.8003
  115OSM    C2S11920   1.784   2.098   6.274 -0.2746  0.5773  0.1743
  115OSM    H2S11921   1.700   2.170   6.272  1.3710  2.6063  0.7038
  115OSM    C3S11922   1.910   2.176   6.252 -0.0027  0.0845 -0.0929
  115OSM    H3S11923   1.993   2.103   6.250  0.6486  0.6213  2.8401
  115OSM     O311924   1.935   2.269   6.359 -0.3173  0.1163  0.2411
  115OSM    HO311925   1.904   2.222   6.437  0.5646  0.2715  0.6958
  115OSM    C4S11926   1.896   2.256   6.127 -0.0009 -0.0240 -0.2911
  115OSM    H4S11927   1.819   2.334   6.137  1.0329  1.5462 -3.3354
  115OSM    C5S11928   1.961   2.247   6.013  0.0316  0.3352 -0.7893
  115OSM    H5S11929   2.042   2.172   6.008  0.1452  0.2359  1.4634
  115OSM    C6S11930   1.916   2.341   5.904  0.8070  0.4332  0.8522
  115OSM    H6S11931   1.969   2.439   5.912 -0.8201  1.5702 -1.1513
  115OSM    H6T11932   1.808   2.364   5.909  0.8120  0.6588  0.1349
  115OSM    C7S11933   1.954   2.288   5.761  0.4453 -0.1692  0.6344
  115OSM    H7S11934   2.060   2.255   5.753 -0.1094 -1.7313 -0.9673
  115OSM    H7T11935   1.926   2.368   5.688  1.8315  0.2344  0.5123
  115OSM    C8S11936   1.867   2.167   5.723 -0.5579 -0.3157  0.0171
  115OSM    H8S11937   1.763   2.191   5.754 -0.6719 -1.4688  0.5645
  115OSM    H8T11938   1.906   2.083   5.784  0.5828  1.4754  1.9178
  115OSM    C9S11939   1.867   2.149   5.573 -0.0467 -0.8165  0.2637
  115OSM    H9S11940   1.970   2.125   5.540  0.2993  0.6351  0.2241
  115OSM    H9T11941   1.845   2.240   5.513  1.2993 -0.6549 -0.0115
  115OSM   C10S11942   1.764   2.043   5.534 -0.5460  0.1396 -0.0448
  115OSM   H10S11943   1.659   2.062   5.563 -1.1477  1.8188 -2.9589
  115OSM   H10T11944   1.794   1.942   5.570  0.5921  0.6219  0.4050
  115OSM   C11S11945   1.758   2.004   5.384 -0.2964  0.1892 -0.5167
  115OSM   H11S11946   1.673   1.937   5.357 -0.8513  1.5808 -2.4631
  115OSM   H11T11947   1.853   1.953   5.357  0.1217  0.0442  1.1190
  115OSM   C12S11948   1.756   2.123   5.285  0.8085  1.3236  0.0549
  115OSM   H12S11949   1.860   2.161   5.274  1.9795 -1.5235  0.4139
  115OSM   H12T11950   1.699   2.209   5.325 -1.7554 -0.3279  0.1497
  115OSM   C13S11951   1.694   2.089   5.147  0.4020  0.2643 -0.3980
  115OSM   H13S11952   1.594   2.041   5.159  0.5069  0.1588  0.0501
  115OSM   H13T11953   1.769   2.020   5.103 -0.1092  0.8156 -2.2153
  115OSM   C14S11954   1.690   2.213   5.056  0.0134  0.7876  0.6279
  115OSM   H14S11955   1.792   2.256   5.060  0.8666 -1.1944  0.9163
  115OSM   H14T11956   1.629   2.292   5.106 -0.5794  0.3633  0.5805
  115OSM   C15S11957   1.653   2.184   4.908  0.3089  0.0692  0.6244
  115OSM   H15S11958   1.744   2.129   4.877 -1.6183 -3.2597  0.5003
  115OSM   H15T11959   1.648   2.274   4.843 -0.4614 -0.7937 -0.5347
  115OSM   C16S11960   1.525   2.102   4.890 -0.0186 -0.2957  0.1245
  115OSM   H16S11961   1.455   2.145   4.966  1.8575  0.6127  1.4270
  115OSM   H16T11962   1.530   1.997   4.926 -0.3956 -0.3080  0.1452
  115OSM   C17S11963   1.447   2.103   4.761  0.2501  0.5697 -0.2159
  115OSM   H17S11964   1.500   2.051   4.679 -2.2868 -0.1056 -1.5184
  115OSM   H17T11965   1.428   2.207   4.727 -2.1300 -0.1079 -1.1356
  115OSM   C18S11966   1.315   2.038   4.771  0.0314  0.7349 -0.0299
  115OSM   H18S11967   1.264   2.045   4.673  0.3459 -1.4915 -0.3904
  115OSM   H18T11968   1.242   2.095   4.833 -1.0686 -0.7568  0.1047
  115OSM   H18U11969   1.314   1.931   4.799  1.5799  0.5658 -0.5310
  115OSM    C1F11970   1.632   1.948   6.149 -0.5778  0.3377  0.7169
  115OSM     OF11971   1.541   1.996   6.212  0.0520  0.1096  0.0578
  115OSM    C2F11972   1.613   1.828   6.057 -0.3200  0.4428 -0.4506
  115OSM    H2F11973   1.504   1.825   6.035 -0.4725 -3.4048  0.2437
  115OSM    H2G11974   1.646   1.737   6.110  0.6311 -0.8013 -3.0286
  115OSM    C3F11975   1.681   1.841   5.913 -0.1241 -0.2942 -0.3588
  115OSM    H3F11976   1.791   1.830   5.923  0.0561  0.8959 -0.8457
  115OSM    H3G11977   1.663   1.933   5.853 -1.6655 -0.1049  0.3512
  115OSM    C4F11978   1.631   1.717   5.832  0.1603 -0.3916  0.9771
  115OSM    H4F11979   1.621   1.636   5.907  3.6587 -0.5220  1.4671
  115OSM    H4G11980   1.710   1.686   5.760 -1.9198 -0.7477 -1.2632
  115OSM    C5F11981   1.503   1.736   5.748 -0.1142 -0.1631 -0.3240
  115OSM    H5F11982   1.455   1.832   5.776 -0.3688 -0.7446  1.3123
  115OSM    H5G11983   1.424   1.658   5.754  0.6558 -1.1049 -1.7031
  115OSM    C6F11984   1.520   1.735   5.591 -0.1889  0.4581  0.7763
  115OSM    H6F11985   1.587   1.649   5.570 -1.7868 -0.3492 -1.2477
  115OSM    H6G11986   1.579   1.820   5.550 -0.8855  1.5072  1.8797
  115OSM    C7F11987   1.390   1.722   5.514  0.0236  0.1899  0.0466
  115OSM    H7F11988   1.333   1.810   5.552  0.5938 -0.2224  1.9703
  115OSM    H7G11989   1.341   1.629   5.549 -0.7983  0.8542  0.6791
  115OSM    C8F11990   1.407   1.728   5.359 -0.1877  0.5635 -0.6294
  115OSM    H8F11991   1.461   1.822   5.335  3.4412 -1.5758 -1.7096
  115OSM    H8G11992   1.306   1.731   5.313 -0.8987  0.0765  0.8319
  115OSM    C9F11993   1.480   1.612   5.298 -0.2698 -0.4987 -0.1206
  115OSM    H9F11994   1.562   1.579   5.364  2.1460  1.3196 -2.0431
  115OSM   C10F11995   1.455   1.559   5.177  0.1238 -0.1605 -0.7025
  115OSM   H10F11996   1.512   1.475   5.135 -0.5675 -0.3036 -1.3957
  115OSM   C11F11997   1.352   1.599   5.071 -0.1335 -0.4982 -0.3839
  115OSM   H11F11998   1.337   1.709   5.075 -1.9599 -0.6353 -1.8642
  115OSM   H11G11999   1.254   1.559   5.105  1.3133 -2.2983  1.9380
  115OSM   C12F12000   1.390   1.574   4.918  0.5327  0.3649 -0.3920
  115OSM   H12F12001   1.402   1.464   4.906 -2.4965  0.0221 -0.9431
  115OSM   H12G12002   1.476   1.643   4.907 -1.3869  3.0111  0.1407
  115OSM   C13F12003   1.288   1.620   4.818 -0.6720 -0.1741 -0.8985
  115OSM   H13F12004   1.267   1.729   4.823  3.4639  0.8045 -1.5850
  115OSM   H13G12005   1.193   1.563   4.829  0.2335 -1.5444  0.0682
  115OSM   C14F12006   1.346   1.609   4.678 -0.1540 -0.3839  0.2826
  115OSM   H14F12007   1.404   1.516   4.663  1.3732  0.7924 -1.3968
  115OSM   H14G12008   1.423   1.684   4.649 -2.6519  0.9149 -3.8734
  115OSM   C15F12009   1.232   1.622   4.568 -0.4764 -0.5503 -0.6255
  115OSM   H15F12010   1.174   1.716   4.578 -1.0184 -0.8776 -0.6321
  115OSM   H15G12011   1.165   1.534   4.578 -1.9288  0.5611 -0.3012
  115OSM   C16F12012   1.290   1.629   4.427 -0.2146  0.5829  0.7468
  115OSM   H16F12013   1.374   1.557   4.429 -0.4850  0.2074 -0.5962
  115OSM   H16G12014   1.339   1.728   4.422  0.8799  0.3510  4.2127
  115OSM   C17F12015   1.185   1.598   4.327 -0.3502 -0.2473 -0.1629
  115OSM   H17F12016   1.093   1.660   4.332 -0.1802  0.2256 -2.0212
  115OSM   H17G12017   1.148   1.494   4.340 -0.2251 -0.3343 -0.4849
  115OSM   C18F12018   1.225   1.612   4.179  0.2767 -0.2612  0.6016
  115OSM   H18F12019   1.166   1.540   4.118  0.5052  0.0100  0.0458
  115OSM   H18G12020   1.327   1.573   4.164  0.5673  0.5792  0.3184
  115OSM   H18H12021   1.209   1.714   4.136  2.1220  0.8414  2.3567
  116OSM      N12022   3.532   6.570   6.692  0.7373  0.5581 -0.5358
  116OSM    C1512023   3.504   6.487   6.811 -0.2399  0.6147 -0.5216
  116OSM   H15A12024   3.457   6.393   6.789 -0.0237  0.9272 -2.5333
  116OSM   H15B12025   3.445   6.541   6.884 -0.8316  0.2803 -0.7508
  116OSM   H15C12026   3.599   6.457   6.853 -1.5051 -1.2161  1.1866
  116OSM    C1412027   3.416   6.586   6.600  0.0026  0.3417 -0.0957
  116OSM   H14A12028   3.340   6.642   6.653  0.7885  1.8962 -0.5531
  116OSM   H14B12029   3.392   6.485   6.568  1.3807 -0.0175 -0.0756
  116OSM   H14C12030   3.434   6.643   6.511 -0.8261 -0.2826 -0.6766
  116OSM    C1312031   3.573   6.694   6.748 -0.7310 -0.4920  1.0082
  116OSM   H13A12032   3.495   6.742   6.804 -0.9409  0.1474  0.1914
  116OSM   H13B12033   3.586   6.767   6.669 -2.1235 -0.6176  0.6383
  116OSM   H13C12034   3.661   6.680   6.810  0.8612  0.4149 -0.9352
  116OSM    C1212035   3.651   6.508   6.607  0.0541  0.2992 -0.1664
  116OSM   H12A12036   3.632   6.404   6.585 -0.9517  0.1045  1.4428
  116OSM   H12B12037   3.733   6.516   6.678  0.1970  2.0594 -0.4885
  116OSM    C1112038   3.683   6.575   6.468  0.6653 -0.2587 -0.3135
  116OSM   H11A12039   3.606   6.550   6.392 -1.0847  2.9838  0.2225
  116OSM   H11B12040   3.781   6.537   6.431  1.8008  1.9062  0.2538
  116OSM      P12041   3.624   6.831   6.395  0.4041  0.2042  0.1989
  116OSM    O1312042   3.491   6.779   6.365  0.2131 -0.1845 -0.0124
  116OSM    O1412043   3.631   6.964   6.466 -0.5789  0.9061  0.2138
  116OSM    O1112044   3.714   6.847   6.268 -0.5127 -0.1426 -0.5189
  116OSM    O1212045   3.698   6.716   6.480 -0.0141 -0.3406 -0.1492
  116OSM    C1S12046   3.710   6.767   6.150 -0.0073  0.3181  0.9362
  116OSM    H1S12047   3.653   6.673   6.162 -0.4880  0.5251  0.3961
  116OSM    H1T12048   3.812   6.747   6.110  0.4041  2.3004  0.8968
  116OSM     NF12049   3.647   6.741   5.916  0.0232 -0.0134 -0.8152
  116OSM    HNF12050   3.721   6.754   5.850 -0.8327 -0.6607 -1.9331
  116OSM    C2S12051   3.653   6.838   6.029 -0.0980 -0.2189 -0.6392
  116OSM    H2S12052   3.552   6.873   6.059  0.1980  1.4856 -1.4965
  116OSM    C3S12053   3.744   6.960   5.986  0.1214  0.4930  0.2339
  116OSM    H3S12054   3.837   6.907   5.956 -1.2152 -0.9445 -1.6072
  116OSM     O312055   3.781   7.041   6.099 -0.3885 -0.1892  0.3411
  116OSM    HO312056   3.751   6.992   6.176 -0.9260  1.1584  1.0047
  116OSM    C4S12057   3.681   7.027   5.861 -0.4503 -0.0584  0.2316
  116OSM    H4S12058   3.705   6.978   5.766  1.6796  1.8328 -0.3051
  116OSM    C5S12059   3.596   7.130   5.876  0.4280 -0.0460  0.1247
  116OSM    H5S12060   3.553   7.158   5.974 -1.6334 -0.9904 -0.4523
  116OSM    C6S12061   3.514   7.187   5.760 -0.3051  0.5441  0.4494
  116OSM    H6S12062   3.478   7.290   5.783  1.6224  1.0086  1.6025
  116OSM    H6T12063   3.426   7.121   5.742  0.8673 -0.9826  0.0747
  116OSM    C7S12064   3.594   7.204   5.625  0.3733 -0.5193 -0.4209
  116OSM    H7S12065   3.613   7.100   5.592  0.7333 -0.3874 -0.6369
  116OSM    H7T12066   3.691   7.256   5.642 -0.3707  0.2602  1.8515
  116OSM    C8S12067   3.516   7.277   5.509 -0.3185  0.4823  0.0940
  116OSM    H8S12068   3.508   7.387   5.521 -0.5588  0.9338 -3.2197
  116OSM    H8T12069   3.415   7.231   5.507  0.6284 -1.7332 -0.4691
  116OSM    C9S12070   3.591   7.256   5.379 -0.0064  0.1973  0.2762
  116OSM    H9S12071   3.668   7.177   5.391  1.0269  0.9402 -1.1825
  116OSM    H9T12072   3.653   7.348   5.370 -0.9270  0.7046 -1.2783
  116OSM   C10S12073   3.504   7.218   5.265 -0.0297  0.1468 -0.0834
  116OSM   H10S12074   3.416   7.286   5.256  0.2866  0.5685  0.0028
  116OSM   H10T12075   3.460   7.117   5.275 -3.6819  1.6502  0.9155
  116OSM   C11S12076   3.574   7.225   5.126  0.1781  0.9456 -0.5721
  116OSM   H11S12077   3.669   7.169   5.119 -0.1946  0.2724 -0.3260
  116OSM   H11T12078   3.593   7.333   5.107 -1.1538  1.1171 -1.0420
  116OSM   C12S12079   3.478   7.177   5.016 -0.1815  0.1874 -0.6360
  116OSM   H12S12080   3.391   7.246   5.011 -2.2421 -2.2726 -0.8803
  116OSM   H12T12081   3.422   7.082   5.030  0.5797 -0.1104  0.5248
  116OSM   C13S12082   3.549   7.181   4.880 -0.2809  0.2418  0.5905
  116OSM   H13S12083   3.627   7.104   4.892  1.6154  2.1491  1.0308
  116OSM   H13T12084   3.596   7.279   4.854 -1.0230  0.5267  0.2836
  116OSM   C14S12085   3.447   7.159   4.762 -0.1898 -0.1848  0.4558
  116OSM   H14S12086   3.352   7.190   4.810 -0.1235  0.5125  0.1347
  116OSM   H14T12087   3.445   7.049   4.742 -1.4103 -0.0685 -0.1360
  116OSM   C15S12088   3.476   7.266   4.651 -0.2402  0.2947  0.4004
  116OSM   H15S12089   3.574   7.236   4.607 -0.4967 -1.3494  0.8916
  116OSM   H15T12090   3.492   7.367   4.695 -0.6551  1.2660 -1.5585
  116OSM   C16S12091   3.379   7.259   4.529  0.1403 -0.0585  0.2168
  116OSM   H16S12092   3.427   7.326   4.454 -2.3597  2.0601  0.3579
  116OSM   H16T12093   3.282   7.303   4.562 -2.2109 -4.4672 -0.1129
  116OSM   C17S12094   3.337   7.117   4.478 -0.6769  0.5619 -0.1043
  116OSM   H17S12095   3.255   7.088   4.546 -0.2767 -1.4084 -0.4107
  116OSM   H17T12096   3.424   7.049   4.494 -1.6002 -0.7491 -0.5273
  116OSM   C18S12097   3.289   7.122   4.342 -0.6900  0.5018  0.5168
  116OSM   H18S12098   3.213   7.203   4.341 -2.7140 -1.3102  0.4272
  116OSM   H18T12099   3.231   7.036   4.300  1.8034 -0.5233 -1.0854
  116OSM   H18U12100   3.366   7.147   4.266 -1.2374  1.3999  0.2329
  116OSM    C1F12101   3.565   6.633   5.918  0.3812 -0.3284  0.5188
  116OSM     OF12102   3.469   6.620   5.997 -0.6077  0.5144  0.4136
  116OSM    C2F12103   3.595   6.529   5.819 -0.3517  0.0637  0.0582
  116OSM    H2F12104   3.697   6.488   5.835 -0.0579  0.8151  0.1409
  116OSM    H2G12105   3.584   6.571   5.716  2.2025  0.5005 -0.0921
  116OSM    C3F12106   3.497   6.413   5.836 -0.1714  0.1704 -0.3798
  116OSM    H3F12107   3.392   6.441   5.859  0.1077  1.3373 -0.4460
  116OSM    H3G12108   3.534   6.360   5.926 -0.2990  0.4369 -0.1674
  116OSM    C4F12109   3.487   6.318   5.718 -0.4126  0.5761 -0.1678
  116OSM    H4F12110   3.427   6.232   5.752  0.0793 -0.2585 -1.3381
  116OSM    H4G12111   3.589   6.287   5.688 -0.7666 -0.3254 -0.4561
  116OSM    C5F12112   3.431   6.373   5.586  0.2460  0.4431  0.0154
  116OSM    H5F12113   3.501   6.453   5.556  2.3500 -0.7492  1.5064
  116OSM    H5G12114   3.335   6.427   5.604  1.2138  1.4868  2.4069
  116OSM    C6F12115   3.412   6.265   5.478 -0.2537  0.0467  0.0006
  116OSM    H6F12116   3.330   6.202   5.518 -0.3206  1.3512  2.0895
  116OSM    H6G12117   3.509   6.215   5.457  1.3995  2.4758  1.3445
  116OSM    C7F12118   3.379   6.332   5.348 -0.5957 -0.0994 -0.6527
  116OSM    H7F12119   3.459   6.406   5.329  0.1761 -0.6469  0.3516
  116OSM    H7G12120   3.280   6.381   5.362  0.8256  2.3801  1.4043
  116OSM    C8F12121   3.375   6.226   5.240 -0.3748  0.1811 -0.6416
  116OSM    H8F12122   3.476   6.184   5.220 -1.3034 -3.5642  1.4929
  116OSM    H8G12123   3.347   6.278   5.146 -0.8241  0.3066 -0.4390
  116OSM    C9F12124   3.285   6.108   5.275 -0.3056  0.4031 -0.5590
  116OSM    H9F12125   3.328   6.045   5.354 -2.4032 -0.8065 -0.2978
  116OSM   C10F12126   3.161   6.083   5.233  0.1911  0.1090  0.0872
  116OSM   H10F12127   3.118   5.999   5.289  4.3719 -1.2969  1.5091
  116OSM   C11F12128   3.081   6.162   5.133 -0.3475  0.0831 -0.1329
  116OSM   H11F12129   3.142   6.250   5.106 -1.8284  1.0587 -0.4238
  116OSM   H11G12130   2.985   6.197   5.177  0.1007  0.4508  0.5588
  116OSM   C12F12131   3.069   6.095   4.990 -0.1608 -0.2536 -0.0644
  116OSM   H12F12132   2.996   6.152   4.928  0.9349  0.8907 -0.3263
  116OSM   H12G12133   3.031   5.991   4.998 -1.4166  0.1242 -0.7367
  116OSM   C13F12134   3.201   6.078   4.912 -0.2117 -0.5886 -0.1168
  116OSM   H13F12135   3.268   6.009   4.967 -0.1199 -0.5185 -0.1408
  116OSM   H13G12136   3.261   6.171   4.912  1.9380 -1.8676 -1.6620
  116OSM   C14F12137   3.196   6.039   4.759 -0.0404 -0.2553  0.2629
  116OSM   H14F12138   3.110   5.970   4.747 -0.0498 -0.3175  0.6762
  116OSM   H14G12139   3.288   5.985   4.729 -1.2439 -1.9748 -0.4823
  116OSM   C15F12140   3.172   6.166   4.670  0.1498  0.0587 -0.2520
  116OSM   H15F12141   3.249   6.245   4.684  0.8324 -0.6823  0.2451
  116OSM   H15G12142   3.069   6.204   4.691  0.3159 -0.3038  1.3540
  116OSM   C16F12143   3.171   6.131   4.520  0.5785  0.4913  0.6106
  116OSM   H16F12144   3.121   6.210   4.460  0.9171 -0.5781 -1.1437
  116OSM   H16G12145   3.110   6.039   4.515  3.5295 -1.5718 -0.2789
  116OSM   C17F12146   3.298   6.089   4.455  0.4781  0.2443  0.4613
  116OSM   H17F12147   3.367   6.038   4.526  0.8513  1.5521  1.0728
  116OSM   H17G12148   3.351   6.179   4.415  2.0345 -0.8917 -0.1283
  116OSM   C18F12149   3.285   6.002   4.331  0.5300  0.0205 -0.1670
  116OSM   H18F12150   3.232   6.054   4.248  0.6809  2.4570  1.1770
  116OSM   H18G12151   3.225   5.910   4.349 -1.4659  1.2908 -0.0667
  116OSM   H18H12152   3.383   5.974   4.285  0.3012 -0.1975 -0.5266
  117OSM      N12153   2.219   5.375   6.976  0.1224 -0.9351 -0.0096
  117OSM    C1512154   2.094   5.362   7.048 -0.1317 -0.1133 -0.0836
  117OSM   H15A12155   2.018   5.355   6.971  0.5334  0.0221 -0.7691
  117OSM   H15B12156   2.079   5.453   7.105  1.5791 -0.1533  0.4766
  117OSM   H15C12157   2.102   5.270   7.103  0.3875 -0.5637 -0.8921
  117OSM    C1412158   2.233   5.507   6.904 -0.3964 -0.3337 -0.3859
  117OSM   H14A12159   2.331   5.516   6.860 -0.8409  1.9923 -1.0151
  117OSM   H14B12160   2.198   5.576   6.979  1.3020  2.0996 -1.7245
  117OSM   H14C12161   2.159   5.501   6.826  0.3086  0.1109 -1.0924
  117OSM    C1312162   2.322   5.374   7.084  0.4327 -0.8488  0.3950
  117OSM   H13A12163   2.279   5.439   7.158 -0.7074  0.9182 -1.7071
  117OSM   H13B12164   2.417   5.412   7.049 -0.3772  1.1931  0.2786
  117OSM   H13C12165   2.347   5.280   7.131  0.9746 -1.2830 -0.7103
  117OSM    C1212166   2.247   5.265   6.877 -0.3460 -0.1126 -0.9013
  117OSM   H12A12167   2.233   5.173   6.932  2.2686  0.2531  0.5467
  117OSM   H12B12168   2.354   5.263   6.863 -0.4321  0.5011 -1.6581
  117OSM    C1112169   2.182   5.253   6.743 -0.0625  0.1193  0.3349
  117OSM   H11A12170   2.233   5.168   6.693 -0.2136 -0.3794  1.0142
  117OSM   H11B12171   2.194   5.340   6.674  1.4039 -1.2546 -1.2211
  117OSM      P12172   1.931   5.291   6.693 -0.2620  0.2602  0.2002
  117OSM    O1312173   1.798   5.263   6.754 -0.0236  0.2677  0.2780
  117OSM    O1412174   1.964   5.436   6.693  0.2807  0.3917 -0.0417
  117OSM    O1112175   1.944   5.230   6.543  0.4668  0.3318 -0.4278
  117OSM    O1212176   2.045   5.219   6.772  0.5347  0.1591 -0.3448
  117OSM    C1S12177   1.995   5.101   6.515  0.3274  0.2370  0.5261
  117OSM    H1S12178   1.957   5.015   6.575  1.5196 -2.0742 -1.7900
  117OSM    H1T12179   2.106   5.108   6.521  0.3222  1.0903 -0.2027
  117OSM     NF12180   1.999   4.918   6.340 -0.2506 -0.5861  0.5939
  117OSM    HNF12181   2.078   4.887   6.287 -0.1613 -0.1262  0.4543
  117OSM    C2S12182   1.975   5.063   6.355 -1.1180 -0.2090 -0.7749
  117OSM    H2S12183   1.872   5.091   6.326  0.1929  1.9437 -3.8218
  117OSM    C3S12184   2.074   5.156   6.272  0.6077  0.8220 -0.3814
  117OSM    H3S12185   2.176   5.141   6.312  0.8692  1.3476 -0.8459
  117OSM     O312186   2.055   5.295   6.302  0.0273 -0.0261 -0.3320
  117OSM    HO312187   2.002   5.307   6.381 -0.9864 -1.5379 -0.7364
  117OSM    C4S12188   2.089   5.128   6.122 -0.0793 -0.0868 -0.7106
  117OSM    H4S12189   2.144   5.038   6.092 -0.3293 -0.3681 -0.3414
  117OSM    C5S12190   2.032   5.202   6.028  0.3696 -0.5923 -0.1029
  117OSM    H5S12191   1.973   5.290   6.058  0.3373 -0.8268  0.5498
  117OSM    C6S12192   2.050   5.191   5.878  0.5357 -0.1922 -0.3766
  117OSM    H6S12193   2.097   5.285   5.841  1.4801 -0.4810  0.0390
  117OSM    H6T12194   1.961   5.177   5.814  1.7088  0.1567 -2.1662
  117OSM    C7S12195   2.151   5.082   5.825 -0.4189 -0.1635  0.9839
  117OSM    H7S12196   2.120   4.986   5.871  0.3529 -1.2748 -0.7415
  117OSM    H7T12197   2.257   5.102   5.854 -0.0016 -2.1687  0.9445
  117OSM    C8S12198   2.143   5.062   5.673 -0.0005  0.6160 -0.4013
  117OSM    H8S12199   2.144   5.159   5.619 -0.8346  0.4036 -0.8178
  117OSM    H8T12200   2.048   5.011   5.647 -0.0202 -0.4037  1.4426
  117OSM    C9S12201   2.249   4.971   5.612 -0.6124  0.1340  0.8831
  117OSM    H9S12202   2.350   5.009   5.638  0.3008 -0.7567 -1.1275
  117OSM    H9T12203   2.232   4.968   5.502 -1.3443  1.0840  0.9596
  117OSM   C10S12204   2.243   4.825   5.658  0.7206  0.4621 -0.0767
  117OSM   H10S12205   2.136   4.801   5.674  1.1284  0.1599  2.7097
  117OSM   H10T12206   2.290   4.819   5.759 -1.4971  0.9612  1.0319
  117OSM   C11S12207   2.307   4.717   5.564 -0.5745 -0.4593 -0.4833
  117OSM   H11S12208   2.260   4.707   5.464  0.0263 -1.7304 -0.6571
  117OSM   H11T12209   2.286   4.630   5.629 -0.3168  0.0571  0.3038
  117OSM   C12S12210   2.456   4.747   5.532 -0.4621  0.0792  0.6058
  117OSM   H12S12211   2.498   4.826   5.598 -1.5236  1.2228 -0.0457
  117OSM   H12T12212   2.463   4.802   5.436  1.6837  0.6800  1.0699
  117OSM   C13S12213   2.552   4.626   5.520  0.4142  0.6085 -0.3522
  117OSM   H13S12214   2.656   4.668   5.522  0.6317  0.1669  3.1129
  117OSM   H13T12215   2.528   4.574   5.424  1.6935 -1.8609  0.5800
  117OSM   C14S12216   2.556   4.530   5.635  0.2452 -0.2111  0.7761
  117OSM   H14S12217   2.643   4.466   5.609  0.9507  0.1239  2.1898
  117OSM   H14T12218   2.460   4.473   5.640 -0.1496  0.0165 -2.3754
  117OSM   C15S12219   2.585   4.597   5.772 -0.0419 -0.3958  0.3135
  117OSM   H15S12220   2.499   4.664   5.792 -1.3661 -2.3797  1.7180
  117OSM   H15T12221   2.679   4.654   5.762 -0.1760 -0.0385  1.0403
  117OSM   C16S12222   2.615   4.495   5.883 -0.0482 -0.8109  0.4942
  117OSM   H16S12223   2.707   4.440   5.852  0.3922  0.3290 -0.3280
  117OSM   H16T12224   2.537   4.417   5.892  0.6225 -1.4713  0.6254
  117OSM   C17S12225   2.634   4.564   6.021 -0.0024 -0.0112 -0.3003
  117OSM   H17S12226   2.729   4.619   6.010 -0.6761  1.0598 -0.9232
  117OSM   H17T12227   2.662   4.484   6.093 -0.1323  0.6993  0.5630
  117OSM   C18S12228   2.528   4.655   6.073  0.1560 -0.5214  0.1568
  117OSM   H18S12229   2.589   4.703   6.153  2.5625 -0.3770 -1.6193
  117OSM   H18T12230   2.436   4.609   6.114 -0.9020  1.7805  0.5170
  117OSM   H18U12231   2.505   4.735   5.999  0.5951 -2.4043 -2.1293
  117OSM    C1F12232   1.902   4.828   6.370  0.4405  0.1329 -1.1496
  117OSM     OF12233   1.792   4.868   6.420  0.1501  0.1165  0.0137
  117OSM    C2F12234   1.932   4.681   6.350 -0.6495 -1.1128 -0.3456
  117OSM    H2F12235   1.886   4.635   6.440  0.1800  0.6520  1.0517
  117OSM    H2G12236   2.042   4.675   6.357 -0.5937  0.4449  0.6178
  117OSM    C3F12237   1.870   4.620   6.219 -0.2605  0.0283 -0.5022
  117OSM    H3F12238   1.761   4.638   6.215  0.0403  2.6112  0.3359
  117OSM    H3G12239   1.887   4.511   6.229 -0.2864  0.1814  1.7202
  117OSM    C4F12240   1.939   4.668   6.090  0.6590  0.2407  0.4180
  117OSM    H4F12241   2.037   4.616   6.088  1.3417  1.4754  0.4440
  117OSM    H4G12242   1.948   4.779   6.092 -0.4698  0.3599 -0.2238
  117OSM    C5F12243   1.857   4.637   5.963  0.2165  0.4051  0.4293
  117OSM    H5F12244   1.765   4.699   5.960  0.3709  0.6541  0.8096
  117OSM    H5G12245   1.826   4.530   5.954  2.1159 -0.0882 -0.8201
  117OSM    C6F12246   1.924   4.684   5.827  0.1605 -0.0218 -0.3044
  117OSM    H6F12247   2.022   4.631   5.824 -0.8785 -2.0502 -0.4530
  117OSM    H6G12248   1.937   4.791   5.854  0.5185 -0.5601  1.8348
  117OSM    C7F12249   1.831   4.654   5.708  0.1688  0.2092 -0.2536
  117OSM    H7F12250   1.730   4.693   5.735  0.2391  0.9435 -1.0052
  117OSM    H7G12251   1.829   4.543   5.704 -0.5667  0.1528  1.2022
  117OSM    C8F12252   1.871   4.720   5.579 -1.0148 -0.4690 -0.1185
  117OSM    H8F12253   1.955   4.657   5.543 -0.3931 -0.3534  1.0672
  117OSM    H8G12254   1.916   4.820   5.598 -2.3677  0.1716 -0.2040
  117OSM    C9F12255   1.766   4.744   5.484 -0.2939  0.6192 -0.1996
  117OSM    H9F12256   1.670   4.778   5.525 -0.6895 -1.2194  0.5368
  117OSM   C10F12257   1.766   4.701   5.353  0.0282  0.0598 -0.2863
  117OSM   H10F12258   1.677   4.726   5.293  0.6777  0.3792 -1.1256
  117OSM   C11F12259   1.877   4.630   5.268  0.1263  0.1399 -0.2589
  117OSM   H11F12260   1.871   4.522   5.294  0.6418 -0.3739 -2.1270
  117OSM   H11G12261   1.978   4.671   5.289  0.9915 -2.0577  0.1238
  117OSM   C12F12262   1.854   4.649   5.113  0.3865 -0.9426  0.2587
  117OSM   H12F12263   1.751   4.624   5.081  0.4043  0.3385 -0.9129
  117OSM   H12G12264   1.919   4.566   5.076  2.1925  0.4156  0.2355
  117OSM   C13F12265   1.897   4.783   5.041 -0.6173 -0.1278 -0.2590
  117OSM   H13F12266   1.907   4.762   4.932  0.7796  0.0420 -0.1766
  117OSM   H13G12267   1.994   4.806   5.089 -0.2826 -0.1737 -0.8962
  117OSM   C14F12268   1.793   4.896   5.068 -0.2401  0.4190  0.4244
  117OSM   H14F12269   1.856   4.988   5.070 -1.3669  1.2223  2.7438
  117OSM   H14G12270   1.764   4.887   5.175 -0.1087  0.5862  0.4763
  117OSM   C15F12271   1.681   4.895   4.970  0.3979 -0.5217 -0.4692
  117OSM   H15F12272   1.630   4.798   4.955 -1.7839  0.6598 -1.0357
  117OSM   H15G12273   1.720   4.925   4.870  1.3873 -0.6519 -0.1407
  117OSM   C16F12274   1.579   5.011   5.015 -0.4563  0.6853 -0.4392
  117OSM   H16F12275   1.631   5.100   5.057 -2.9629  1.6462  0.8624
  117OSM   H16G12276   1.510   4.973   5.093 -1.2436  1.4545 -0.7355
  117OSM   C17F12277   1.497   5.055   4.900  0.3854 -0.6316  0.1458
  117OSM   H17F12278   1.571   5.087   4.824 -0.6163 -0.2210 -0.6790
  117OSM   H17G12279   1.444   5.149   4.926  0.3869 -0.9313  1.3057
  117OSM   C18F12280   1.400   4.950   4.842  0.1614 -0.5675 -0.8251
  117OSM   H18F12281   1.459   4.861   4.812 -2.5114 -2.1758 -1.6876
  117OSM   H18G12282   1.353   5.000   4.754  0.1245  1.0660  0.0722
  117OSM   H18H12283   1.319   4.936   4.916 -0.0068  2.2048 -0.3871
  118OSM      N12284   2.301   2.022   6.770 -0.0452  0.7471 -0.5015
  118OSM    C1512285   2.426   2.107   6.786 -0.0637 -0.2285 -0.3773
  118OSM   H15A12286   2.386   2.208   6.789 -1.8261 -0.6136 -4.3547
  118OSM   H15B12287   2.502   2.098   6.710  0.2846 -0.2277 -0.0288
  118OSM   H15C12288   2.480   2.076   6.874 -0.4378 -1.2713 -0.5019
  118OSM    C1412289   2.353   1.875   6.777 -0.4094  0.8041 -0.2907
  118OSM   H14A12290   2.287   1.812   6.720  0.9156  0.4293 -1.4767
  118OSM   H14B12291   2.381   1.843   6.876 -2.4764  0.0645  0.1079
  118OSM   H14C12292   2.445   1.873   6.721 -1.1204  0.1729 -1.4651
  118OSM    C1312293   2.196   2.039   6.880  0.2745  0.4187 -0.3226
  118OSM   H13A12294   2.237   2.006   6.974 -0.1152  2.4543  0.6339
  118OSM   H13B12295   2.101   1.990   6.863 -0.0509  1.4875 -1.8466
  118OSM   H13C12296   2.172   2.144   6.894  2.0380  0.8186 -0.1303
  118OSM    C1212297   2.230   2.048   6.634 -0.5884  0.1199 -0.1816
  118OSM   H12A12298   2.298   2.057   6.551 -1.3318 -1.4882 -1.0040
  118OSM   H12B12299   2.176   2.142   6.642 -1.2149 -0.1656 -0.8921
  118OSM    C1112300   2.127   1.949   6.584  0.5753  0.1295 -0.2550
  118OSM   H11A12301   2.065   1.995   6.504 -1.4285  0.5750  1.4872
  118OSM   H11B12302   2.047   1.938   6.659 -1.0334  1.4372 -1.7096
  118OSM      P12303   2.243   1.816   6.394  0.2500 -0.3128  0.1079
  118OSM    O1312304   2.375   1.755   6.403 -0.3913  0.5114 -0.4531
  118OSM    O1412305   2.145   1.753   6.305  0.0534  0.1784 -0.0393
  118OSM    O1112306   2.257   1.964   6.345  0.0251  0.1557  0.4454
  118OSM    O1212307   2.187   1.827   6.541 -0.2271 -0.2644 -0.6771
  118OSM    C1S12308   2.324   1.986   6.221 -0.1481  0.1681 -0.4358
  118OSM    H1S12309   2.273   1.920   6.149  0.3275 -1.3118  0.5340
  118OSM    H1T12310   2.430   1.958   6.239 -0.5932 -0.6876  1.0724
  118OSM     NF12311   2.361   2.129   6.037 -0.8516 -0.8315  0.5564
  118OSM    HNF12312   2.454   2.164   6.031  0.1713 -2.7768  3.1199
  118OSM    C2S12313   2.299   2.129   6.171 -0.1282  0.3211  0.2509
  118OSM    H2S12314   2.191   2.151   6.165 -0.1312  0.1899 -0.1875
  118OSM    C3S12315   2.354   2.237   6.274  0.3480  0.0653 -0.3787
  118OSM    H3S12316   2.464   2.233   6.269  0.3081 -1.2428 -0.6895
  118OSM     O312317   2.315   2.215   6.413 -0.3893  0.1945 -0.1334
  118OSM    HO312318   2.278   2.127   6.411  1.4892 -0.6469  0.0610
  118OSM    C4S12319   2.314   2.379   6.229  0.0857  0.6262 -0.0073
  118OSM    H4S12320   2.209   2.379   6.196 -0.1345  0.6047  0.6877
  118OSM    C5S12321   2.391   2.488   6.231  0.1255  0.7815  0.4481
  118OSM    H5S12322   2.484   2.480   6.290  0.3451 -1.2546 -0.1010
  118OSM    C6S12323   2.358   2.619   6.172 -0.3070 -0.6266  0.3413
  118OSM    H6S12324   2.420   2.698   6.219  0.0710  1.4252 -3.2444
  118OSM    H6T12325   2.250   2.644   6.176  0.0324  0.8819  0.8702
  118OSM    C7S12326   2.393   2.652   6.019 -0.0720 -0.0058 -0.1272
  118OSM    H7S12327   2.496   2.623   5.988  0.1553  1.1439 -0.5154
  118OSM    H7T12328   2.367   2.759   6.006  0.2862  0.3158  1.5705
  118OSM    C8S12329   2.293   2.570   5.927 -1.1302  0.6343  0.4639
  118OSM    H8S12330   2.193   2.606   5.961 -1.7706  1.1142 -1.7425
  118OSM    H8T12331   2.310   2.460   5.926 -0.9831  0.6584 -0.0737
  118OSM    C9S12332   2.310   2.609   5.774  0.2678  0.1059 -0.5713
  118OSM    H9S12333   2.420   2.603   5.760  0.5766  0.8953  1.1837
  118OSM    H9T12334   2.280   2.715   5.756  0.4847  0.0503 -1.2857
  118OSM   C10S12335   2.233   2.528   5.673  0.0637  0.2201 -0.2070
  118OSM   H10S12336   2.125   2.556   5.678 -0.8695 -3.0954  1.6753
  118OSM   H10T12337   2.241   2.420   5.699 -0.8686 -0.1212 -1.2559
  118OSM   C11S12338   2.260   2.556   5.523 -0.4260  0.3930 -0.8592
  118OSM   H11S12339   2.371   2.556   5.514 -0.4805 -1.0512 -1.6980
  118OSM   H11T12340   2.231   2.662   5.509 -3.8225 -0.6683 -2.8607
  118OSM   C12S12341   2.190   2.466   5.420  0.0683  0.1501 -0.0071
  118OSM   H12S12342   2.086   2.453   5.458  0.0855 -1.7970 -0.5488
  118OSM   H12T12343   2.240   2.367   5.420 -1.2245 -0.5854 -2.6574
  118OSM   C13S12344   2.192   2.534   5.282  0.5008  0.2402  0.5518
  118OSM   H13S12345   2.302   2.542   5.265  0.5576 -1.6667 -0.2332
  118OSM   H13T12346   2.141   2.632   5.288  1.8584  1.0382 -0.3377
  118OSM   C14S12347   2.119   2.459   5.174  0.2843  0.0287  0.2767
  118OSM   H14S12348   2.011   2.461   5.203  0.3609 -1.2081  0.7173
  118OSM   H14T12349   2.153   2.354   5.175 -1.0427 -0.4725 -1.5866
  118OSM   C15S12350   2.146   2.521   5.037  0.5160  0.1014  0.0994
  118OSM   H15S12351   2.239   2.476   4.998 -1.7718 -4.6850 -0.4564
  118OSM   H15T12352   2.151   2.632   5.049  0.7519  0.1922 -0.8154
  118OSM   C16S12353   2.042   2.491   4.934  0.1864  0.0594 -0.3080
  118OSM   H16S12354   1.947   2.534   4.972  1.8312  2.1851  1.7081
  118OSM   H16T12355   2.011   2.385   4.923 -0.4134 -0.0900  2.2367
  118OSM   C17S12356   2.065   2.566   4.804 -0.2067 -0.0802  0.0977
  118OSM   H17S12357   1.993   2.535   4.725  0.8303 -1.9111 -0.1770
  118OSM   H17T12358   2.167   2.549   4.763  0.1693  2.2078 -0.0825
  118OSM   C18S12359   2.052   2.718   4.810 -0.1563  0.3784 -0.1107
  118OSM   H18S12360   2.115   2.766   4.888 -0.1439  1.6026 -0.8512
  118OSM   H18T12361   1.952   2.758   4.837  0.3630 -0.8005  4.4861
  118OSM   H18U12362   2.086   2.756   4.711 -2.4304 -2.5785 -2.1953
  118OSM    C1F12363   2.302   2.064   5.941  0.2725 -0.2819  0.0438
  118OSM     OF12364   2.195   2.011   5.953  0.1469 -0.3419  0.2884
  118OSM    C2F12365   2.385   2.046   5.818  1.0666 -0.1257  0.7086
  118OSM    H2F12366   2.449   1.955   5.827  0.9667 -0.4188 -1.2103
  118OSM    H2G12367   2.461   2.127   5.824  0.2995  0.5196  1.9779
  118OSM    C3F12368   2.298   2.056   5.690  0.6691 -0.3625  0.6363
  118OSM    H3F12369   2.278   2.164   5.672  0.8683 -0.5317 -0.7031
  118OSM    H3G12370   2.207   1.992   5.697  1.4573 -2.5084 -4.3093
  118OSM    C4F12371   2.362   2.011   5.560 -0.5641  0.7605 -0.1918
  118OSM    H4F12372   2.415   1.914   5.561 -2.6805 -0.4325  0.0953
  118OSM    H4G12373   2.444   2.084   5.538  0.1428 -0.4825 -1.9356
  118OSM    C5F12374   2.272   2.025   5.438 -0.4152  0.8004 -0.2967
  118OSM    H5F12375   2.236   2.131   5.438 -1.5186  0.4475 -1.4252
  118OSM    H5G12376   2.178   1.969   5.455  0.4232  0.0799  2.3863
  118OSM    C6F12377   2.334   1.975   5.306 -0.6544 -0.0156  0.3834
  118OSM    H6F12378   2.388   1.881   5.332 -0.5148  0.8208  3.5243
  118OSM    H6G12379   2.408   2.054   5.281 -1.6551  2.0212  3.2840
  118OSM    C7F12380   2.228   1.946   5.195  0.9385  0.2042  0.6252
  118OSM    H7F12381   2.162   1.859   5.216 -1.0857  0.8096 -2.5818
  118OSM    H7G12382   2.291   1.924   5.106  0.1118  1.4855 -0.3155
  118OSM    C8F12383   2.154   2.076   5.150  0.1928  0.1147 -0.1472
  118OSM    H8F12384   2.229   2.156   5.130 -0.4790  1.0148  0.8238
  118OSM    H8G12385   2.090   2.121   5.229  0.5799  1.0687 -0.3636
  118OSM    C9F12386   2.065   2.037   5.034  0.3668 -0.2546 -0.2776
  118OSM    H9F12387   1.957   2.039   5.052 -0.0789  0.9829 -2.7145
  118OSM   C10F12388   2.103   2.011   4.907  0.0198 -0.3844  0.1651
  118OSM   H10F12389   2.025   1.987   4.833 -0.3040 -0.1556  0.4284
  118OSM   C11F12390   2.241   2.024   4.851  0.1939  0.6731  0.4713
  118OSM   H11F12391   2.267   1.945   4.778 -0.8885  0.0841  0.7075
  118OSM   H11G12392   2.310   2.005   4.937  2.2233 -1.7379 -1.5355
  118OSM   C12F12393   2.274   2.163   4.807  0.0151  0.0269 -0.0322
  118OSM   H12F12394   2.380   2.163   4.775 -0.3920  1.1359 -1.4886
  118OSM   H12G12395   2.266   2.231   4.895 -0.0664 -0.2429  0.1722
  118OSM   C13F12396   2.210   2.233   4.682  0.0833  0.6302  0.4228
  118OSM   H13F12397   2.237   2.340   4.670 -1.2673  0.9044 -0.3368
  118OSM   H13G12398   2.101   2.249   4.689  0.3577  2.8621  0.2707
  118OSM   C14F12399   2.251   2.158   4.558 -0.2850 -0.4668  0.2125
  118OSM   H14F12400   2.199   2.060   4.561  0.5219 -0.9368 -0.5755
  118OSM   H14G12401   2.361   2.143   4.547 -0.1711  1.1634 -1.4679
  118OSM   C15F12402   2.227   2.229   4.426 -0.6574 -0.0380 -0.5251
  118OSM   H15F12403   2.293   2.319   4.432 -0.9847  0.0837  2.8595
  118OSM   H15G12404   2.120   2.258   4.420 -1.5920 -3.1134 -0.3711
  118OSM   C16F12405   2.254   2.149   4.300  0.0349  0.1135  0.0683
  118OSM   H16F12406   2.174   2.072   4.305 -2.0854  1.9364 -2.7980
  118OSM   H16G12407   2.358   2.110   4.298 -0.0123 -0.0088  0.0530
  118OSM   C17F12408   2.242   2.236   4.173  0.2344 -0.1378  0.2552
  118OSM   H17F12409   2.316   2.318   4.172 -1.0068  1.0198  0.5721
  118OSM   H17G12410   2.142   2.283   4.161  1.1305  1.4156 -1.5572
  118OSM   C18F12411   2.271   2.149   4.040  0.4721 -0.2072 -0.1665
  118OSM   H18F12412   2.221   2.050   4.042 -0.4711  0.2150 -1.5513
  118OSM   H18G12413   2.379   2.124   4.042  0.6134  0.2633 -1.2830
  118OSM   H18H12414   2.242   2.204   3.949  0.3525  0.6250  0.3635
  119OSM      N12415   4.148   0.760   6.958  1.0825  0.8183  0.0405
  119OSM    C1512416   4.093   0.833   7.080  0.9179  0.6974  0.3868
  119OSM   H15A12417   4.136   0.931   7.081  0.2321  1.0067  0.4143
  119OSM   H15B12418   4.117   0.781   7.171  1.8961  0.0955 -0.2020
  119OSM   H15C12419   3.988   0.858   7.067  1.3100  1.4386 -1.6888
  119OSM    C1412420   4.290   0.723   6.968 -0.5683 -0.0404 -0.0345
  119OSM   H14A12421   4.316   0.634   7.024  2.9681 -0.0679 -1.4502
  119OSM   H14B12422   4.362   0.793   7.007  0.3338 -1.2637  0.5836
  119OSM   H14C12423   4.322   0.703   6.866  1.7326  0.7579  0.4570
  119OSM    C1312424   4.066   0.637   6.927 -0.5116 -0.5592 -0.6410
  119OSM   H13A12425   4.038   0.576   7.012 -1.2956 -1.3486 -1.4631
  119OSM   H13B12426   4.134   0.582   6.864  2.2952  1.1194  0.7041
  119OSM   H13C12427   3.984   0.670   6.866  0.0055  1.2342 -0.4443
  119OSM    C1212428   4.128   0.855   6.844  0.0602  0.1546 -0.5275
  119OSM   H12A12429   4.207   0.927   6.865  1.2230 -1.9880  3.6075
  119OSM   H12B12430   4.034   0.906   6.862  0.8739  0.9613  1.8652
  119OSM    C1112431   4.146   0.806   6.695  0.0582 -0.4857  0.5515
  119OSM   H11A12432   4.127   0.901   6.639 -0.2083 -1.6348 -1.4171
  119OSM   H11B12433   4.061   0.739   6.671  0.3671 -0.4540 -0.7240
  119OSM      P12434   4.390   0.824   6.621 -0.1855  0.1707  0.0646
  119OSM    O1312435   4.389   0.939   6.715 -0.1074  0.8152  0.3603
  119OSM    O1412436   4.508   0.733   6.632 -0.2262  0.3793 -0.9647
  119OSM    O1112437   4.368   0.871   6.474  0.4849  0.6606  0.2718
  119OSM    O1212438   4.265   0.737   6.663 -0.2005 -0.6444 -0.2735
  119OSM    C1S12439   4.337   0.779   6.369  0.1342  0.0492  0.0137
  119OSM    H1S12440   4.245   0.724   6.397 -1.0810  2.5870  1.3863
  119OSM    H1T12441   4.418   0.706   6.351 -0.9423 -1.0775 -0.3769
  119OSM     NF12442   4.280   0.776   6.123  0.3233  0.6226 -0.8033
  119OSM    HNF12443   4.360   0.738   6.076  0.7522  0.4040  0.0784
  119OSM    C2S12444   4.322   0.860   6.233  0.3716  0.1630 -0.8390
  119OSM    H2S12445   4.241   0.935   6.245 -2.1336 -2.4913  0.0297
  119OSM    C3S12446   4.450   0.948   6.206 -0.7774 -0.5867  0.2756
  119OSM    H3S12447   4.547   0.897   6.195 -0.2730 -0.3136  2.9514
  119OSM     O312448   4.468   1.047   6.311  0.0405 -0.2363  0.2601
  119OSM    HO312449   4.418   1.015   6.386  0.0405  1.1382  0.8675
  119OSM    C4S12450   4.417   1.028   6.077 -0.8380  0.4629  0.3240
  119OSM    H4S12451   4.357   1.120   6.086  0.5991  1.3591  1.2239
  119OSM    C5S12452   4.486   0.998   5.963  0.4615  0.5815  0.4220
  119OSM    H5S12453   4.559   0.916   5.954  0.4250  0.2401  2.5692
  119OSM    C6S12454   4.458   1.075   5.834  0.2804 -0.2176 -0.7113
  119OSM    H6S12455   4.530   1.158   5.814 -1.0754  0.8621 -1.2274
  119OSM    H6T12456   4.361   1.128   5.841  0.4889  0.0740  0.1857
  119OSM    C7S12457   4.460   0.986   5.722 -0.0479  0.0164  0.3515
  119OSM    H7S12458   4.392   0.901   5.743  1.2267 -1.6605 -1.8278
  119OSM    H7T12459   4.562   0.946   5.699 -0.0561  0.7032 -1.0113
  119OSM    C8S12460   4.417   1.053   5.587  0.1857  0.6064  0.8234
  119OSM    H8S12461   4.465   0.986   5.514 -0.6238  0.3129  0.5539
  119OSM    H8T12462   4.458   1.156   5.582 -0.9291  1.0148 -0.1530
  119OSM    C9S12463   4.265   1.070   5.561 -0.4718  0.2479 -0.0009
  119OSM    H9S12464   4.218   1.155   5.615 -1.0425 -1.0924  1.7512
  119OSM    H9T12465   4.212   0.981   5.603 -0.3641 -0.6057 -1.5921
  119OSM   C10S12466   4.238   1.079   5.410  0.2411  0.2234 -1.4085
  119OSM   H10S12467   4.287   0.991   5.365 -0.9513 -0.1102 -2.0984
  119OSM   H10T12468   4.287   1.172   5.373  1.0403 -0.4002 -1.9240
  119OSM   C11S12469   4.092   1.067   5.381  0.4996 -0.1710 -0.1942
  119OSM   H11S12470   4.046   1.162   5.416  0.7362  0.4337 -1.4602
  119OSM   H11T12471   4.046   0.985   5.440 -0.0877  1.6032  1.9238
  119OSM   C12S12472   4.065   1.056   5.232  0.9680 -0.1661 -0.0910
  119OSM   H12S12473   4.083   0.952   5.199  1.2751 -0.4329  0.8671
  119OSM   H12T12474   4.125   1.123   5.168  0.4699 -0.5473 -0.9692
  119OSM   C13S12475   3.912   1.091   5.203 -0.0233  0.1109 -0.4479
  119OSM   H13S12476   3.884   1.192   5.239 -1.3389 -0.3413 -0.1234
  119OSM   H13T12477   3.839   1.023   5.253 -1.8387  0.7242 -2.1371
  119OSM   C14S12478   3.873   1.086   5.055  0.2930  0.1272  0.9467
  119OSM   H14S12479   3.764   1.103   5.040 -0.2601 -3.8524 -0.7121
  119OSM   H14T12480   3.893   0.993   4.998 -0.3266  0.2230  0.5656
  119OSM   C15S12481   3.951   1.192   4.977  0.4688 -0.4363  0.0050
  119OSM   H15S12482   4.057   1.166   4.955 -0.3261 -3.1026 -0.9393
  119OSM   H15T12483   3.939   1.281   5.044 -3.8137  0.5473 -1.7358
  119OSM   C16S12484   3.871   1.218   4.851 -0.5328  0.5034 -0.2964
  119OSM   H16S12485   3.902   1.310   4.797  1.2091 -0.8583 -1.7648
  119OSM   H16T12486   3.763   1.235   4.869 -0.3296  0.8742  0.6132
  119OSM   C17S12487   3.853   1.095   4.755  0.4409  0.3631  1.1195
  119OSM   H17S12488   3.783   1.035   4.817 -0.4207  0.5811  0.3911
  119OSM   H17T12489   3.955   1.058   4.732  0.0363 -1.3864  2.0003
  119OSM   C18S12490   3.772   1.129   4.629 -0.7566 -0.0289  0.1452
  119OSM   H18S12491   3.769   1.046   4.555  3.3599 -0.6449  0.4175
  119OSM   H18T12492   3.831   1.207   4.576 -0.3118 -1.5902 -1.7843
  119OSM   H18U12493   3.669   1.166   4.649 -0.3449  1.1487  0.2030
  119OSM    C1F12494   4.159   0.746   6.096 -0.2864 -1.3690 -0.1869
  119OSM     OF12495   4.075   0.802   6.162  0.1614  0.1918 -0.2782
  119OSM    C2F12496   4.141   0.638   5.990  0.4896 -0.0591 -0.5107
  119OSM    H2F12497   4.235   0.579   5.989 -0.2422 -1.3957  1.9889
  119OSM    H2G12498   4.122   0.676   5.887  1.1285 -0.4779 -0.7849
  119OSM    C3F12499   4.023   0.540   6.026 -0.7255 -0.0782  0.2303
  119OSM    H3F12500   3.929   0.596   6.010 -1.6036 -2.0566 -2.1442
  119OSM    H3G12501   4.047   0.521   6.133  1.6784  0.3168 -0.1670
  119OSM    C4F12502   4.017   0.415   5.938  0.0125  0.4601 -0.2468
  119OSM    H4F12503   3.951   0.340   5.987 -1.8753  2.8345  1.0791
  119OSM    H4G12504   4.119   0.371   5.946  1.4478  3.2689 -1.5049
  119OSM    C5F12505   3.968   0.443   5.796  0.3958  0.5493  0.3717
  119OSM    H5F12506   4.018   0.533   5.754 -2.3502  2.7718  1.5087
  119OSM    H5G12507   3.861   0.473   5.789  0.4955  0.7158 -0.6593
  119OSM    C6F12508   3.982   0.329   5.687 -0.8532 -0.1516  0.1310
  119OSM    H6F12509   3.914   0.244   5.705 -2.0821  0.9997  1.1542
  119OSM    H6G12510   4.088   0.297   5.702 -0.2697  1.1986 -0.9064
  119OSM    C7F12511   3.970   0.378   5.548 -0.0730 -0.3958 -0.1479
  119OSM    H7F12512   4.042   0.461   5.531  0.1411 -0.5946 -0.2027
  119OSM    H7G12513   3.870   0.428   5.542 -0.6955 -0.9472  3.5973
  119OSM    C8F12514   3.972   0.273   5.433  0.2746 -0.8604  0.0900
  119OSM    H8F12515   3.937   0.330   5.344  1.5154  0.4012  0.3688
  119OSM    H8G12516   3.890   0.201   5.454 -1.6841  0.6549 -1.9042
  119OSM    C9F12517   4.110   0.211   5.426 -0.1519  0.0122 -0.0244
  119OSM    H9F12518   4.141   0.150   5.513 -1.0303 -0.5502 -0.0944
  119OSM   C10F12519   4.189   0.214   5.318 -0.0340  0.2103 -0.1306
  119OSM   H10F12520   4.289   0.169   5.326  0.5856  1.6512  0.7520
  119OSM   C11F12521   4.166   0.274   5.185 -0.8770 -0.2183  0.8418
  119OSM   H11F12522   4.253   0.328   5.142  0.8430 -2.9437  0.6561
  119OSM   H11G12523   4.086   0.351   5.192  0.6100  1.3852  0.7346
  119OSM   C12F12524   4.127   0.168   5.082 -0.1755 -1.3821  0.2354
  119OSM   H12F12525   4.028   0.126   5.106 -1.0027 -1.2419 -2.6016
  119OSM   H12G12526   4.205   0.091   5.068  2.0874  0.5325  1.4707
  119OSM   C13F12527   4.098   0.229   4.950 -0.3533 -0.6569  0.0426
  119OSM   H13F12528   4.192   0.250   4.895 -0.1767 -1.0834  0.1831
  119OSM   H13G12529   4.047   0.328   4.947  0.5116 -0.0826  2.3351
  119OSM   C14F12530   4.027   0.127   4.858  0.5784 -0.3613 -0.5423
  119OSM   H14F12531   3.927   0.106   4.904  1.5227 -1.4403  1.1373
  119OSM   H14G12532   4.089   0.035   4.852 -0.8048 -1.3725  0.0433
  119OSM   C15F12533   4.008   0.178   4.711 -0.5811 -0.2268 -0.0299
  119OSM   H15F12534   3.944   0.268   4.715  0.7582  0.7159  1.4645
  119OSM   H15G12535   3.952   0.095   4.662 -1.7991  0.5957 -0.0940
  119OSM   C16F12536   4.134   0.226   4.638  0.0715  0.1632 -0.4568
  119OSM   H16F12537   4.200   0.137   4.627 -1.6325 -1.4054  1.3613
  119OSM   H16G12538   4.176   0.310   4.696  0.9781  0.7413 -1.8764
  119OSM   C17F12539   4.093   0.282   4.501 -0.0004  0.2047 -0.3205
  119OSM   H17F12540   4.171   0.354   4.468  0.0092  0.3840  0.0873
  119OSM   H17G12541   3.998   0.339   4.509 -0.2914 -0.4837  1.5685
  119OSM   C18F12542   4.080   0.169   4.398 -0.3093 -0.2684  0.0246
  119OSM   H18F12543   3.999   0.098   4.424 -0.1177 -0.5645 -0.1764
  119OSM   H18G12544   4.170   0.103   4.398 -0.3112 -0.2856 -0.9893
  119OSM   H18H12545   4.062   0.217   4.300  0.6325  2.8791  1.2542
  120OSM      N12546   5.527   4.032   6.984 -0.2782 -0.3620  0.4635
  120OSM    C1512547   5.461   4.021   7.117 -0.0419  0.0007  0.0173
  120OSM   H15A12548   5.461   3.918   7.149  1.4883  1.1036  4.2903
  120OSM   H15B12549   5.356   4.045   7.120 -0.2461 -0.3228 -2.6737
  120OSM   H15C12550   5.512   4.070   7.199 -2.7759  0.8640  1.3015
  120OSM    C1412551   5.552   4.178   6.948 -0.7250 -0.1922 -0.0343
  120OSM   H14A12552   5.462   4.238   6.946 -1.6279 -1.5104 -1.8290
  120OSM   H14B12553   5.612   4.190   6.859  2.3048  1.8134  2.0553
  120OSM   H14C12554   5.620   4.223   7.019  0.0348 -2.4508  0.7591
  120OSM    C1312555   5.659   3.966   6.987  0.0899 -0.2801  0.2224
  120OSM   H13A12556   5.679   3.932   6.886 -1.7444 -0.2477 -0.1915
  120OSM   H13B12557   5.678   3.873   7.040  0.3540 -0.9311 -0.9739
  120OSM   H13C12558   5.738   4.031   7.021  1.1257 -0.9938 -0.7445
  120OSM    C1212559   5.454   3.971   6.865 -0.1521  0.1123  0.2921
  120OSM   H12A12560   5.366   4.031   6.846  2.0250  2.7739 -2.4298
  120OSM   H12B12561   5.414   3.872   6.879  0.3590 -0.2622 -0.8031
  120OSM    C1112562   5.523   3.971   6.729 -0.4281 -0.0708  0.1230
  120OSM   H11A12563   5.586   4.057   6.699  0.0570 -0.5401 -0.2139
  120OSM   H11B12564   5.444   3.972   6.651 -0.4645  1.5420  0.1339
  120OSM      P12565   5.553   3.714   6.715 -0.0992  0.0076 -0.1275
  120OSM    O1312566   5.661   3.611   6.736  0.4853  0.7189  0.3393
  120OSM    O1412567   5.436   3.701   6.804 -0.4270 -0.1289 -0.0457
  120OSM    O1112568   5.502   3.706   6.572  0.0066 -0.1171 -0.0640
  120OSM    O1212569   5.608   3.860   6.725 -0.1389  0.3296 -0.4525
  120OSM    C1S12570   5.575   3.756   6.456  0.0767 -0.2973  0.1728
  120OSM    H1S12571   5.681   3.728   6.470 -0.3803 -2.1978  0.1410
  120OSM    H1T12572   5.566   3.867   6.456  0.3342 -0.0767  4.9261
  120OSM     NF12573   5.634   3.681   6.227  0.2192  0.2156 -0.5325
  120OSM    HNF12574   5.632   3.766   6.175 -1.4848 -0.5009 -1.7470
  120OSM    C2S12575   5.531   3.676   6.327  0.0166 -0.1915 -0.3125
  120OSM    H2S12576   5.523   3.568   6.349 -1.0760  0.1061  0.7959
  120OSM    C3S12577   5.392   3.724   6.274  0.2768 -0.3988 -0.1390
  120OSM    H3S12578   5.397   3.825   6.229 -1.6468 -0.7308 -1.2189
  120OSM     O312579   5.297   3.743   6.378 -0.5276  0.5986 -0.2294
  120OSM    HO312580   5.361   3.760   6.447  0.9135 -1.5051 -0.9552
  120OSM    C4S12581   5.331   3.642   6.158 -0.2126 -0.2145  0.4625
  120OSM    H4S12582   5.370   3.682   6.064  0.9819  0.8550  1.3824
  120OSM    C5S12583   5.221   3.564   6.164 -0.5682 -0.5594  0.1949
  120OSM    H5S12584   5.177   3.553   6.264 -3.0772  1.1685 -0.6118
  120OSM    C6S12585   5.146   3.512   6.045  0.2087 -0.2660 -0.0280
  120OSM    H6S12586   5.042   3.551   6.039  0.7970  1.1822 -3.5093
  120OSM    H6T12587   5.146   3.403   6.063  0.1705 -0.3050 -0.2695
  120OSM    C7S12588   5.212   3.531   5.902 -0.1917 -0.0194  0.2325
  120OSM    H7S12589   5.308   3.476   5.897 -1.2101 -1.8587  0.0649
  120OSM    H7T12590   5.226   3.641   5.891  0.4006 -0.2540 -1.6731
  120OSM    C8S12591   5.136   3.481   5.783  1.1389  0.6557  1.0852
  120OSM    H8S12592   5.028   3.504   5.799  1.3014  1.2221  1.4179
  120OSM    H8T12593   5.147   3.371   5.773  1.2598  0.7582 -0.0119
  120OSM    C9S12594   5.170   3.541   5.644 -0.8060  0.9270  0.1837
  120OSM    H9S12595   5.278   3.528   5.620 -0.8917 -1.5744  0.8147
  120OSM    H9T12596   5.144   3.649   5.643  0.9848  1.3768 -0.3019
  120OSM   C10S12597   5.097   3.458   5.528 -0.4864 -0.2301 -0.4990
  120OSM   H10S12598   4.995   3.435   5.566 -0.2735 -0.9795 -0.3604
  120OSM   H10T12599   5.156   3.364   5.517  0.2741  0.3460 -1.4591
  120OSM   C11S12600   5.087   3.540   5.403  0.6370  0.1015 -0.0748
  120OSM   H11S12601   5.188   3.563   5.362 -0.0622  1.6879 -0.9849
  120OSM   H11T12602   5.035   3.636   5.422  1.5471  0.6338 -0.1788
  120OSM   C12S12603   5.010   3.461   5.298  1.2305  0.2137 -0.7442
  120OSM   H12S12604   4.913   3.447   5.349  2.5553 -0.7586  1.6732
  120OSM   H12T12605   5.053   3.361   5.274 -0.1890 -0.6359  0.1191
  120OSM   C13S12606   5.003   3.540   5.166  0.6945  0.3793 -0.5299
  120OSM   H13S12607   5.106   3.567   5.133 -0.1839  3.5232 -1.0177
  120OSM   H13T12608   4.949   3.637   5.171  0.3405  0.2215 -1.2218
  120OSM   C14S12609   4.936   3.466   5.050  0.0852 -0.1365  0.3875
  120OSM   H14S12610   4.825   3.467   5.054  0.0670  0.8858 -0.1893
  120OSM   H14T12611   4.960   3.357   5.044  0.3468 -0.1480  1.3691
  120OSM   C15S12612   4.983   3.527   4.913 -0.2729  0.1725 -0.6338
  120OSM   H15S12613   5.091   3.503   4.906  0.1131  2.0276 -2.0667
  120OSM   H15T12614   4.976   3.638   4.918  0.2609  0.1965 -0.3028
  120OSM   C16S12615   4.899   3.473   4.799 -0.0790 -0.2802 -0.4344
  120OSM   H16S12616   4.789   3.479   4.814 -0.0871  0.1442 -0.6520
  120OSM   H16T12617   4.914   3.363   4.794  0.5358 -0.2221  0.0475
  120OSM   C17S12618   4.924   3.541   4.659  0.0059  0.2174 -0.5242
  120OSM   H17S12619   4.895   3.648   4.667  3.3198  1.0723  2.4425
  120OSM   H17T12620   4.849   3.495   4.591 -3.4353  0.7389  2.6087
  120OSM   C18S12621   5.061   3.543   4.609 -0.0095 -0.0111  0.0268
  120OSM   H18S12622   5.077   3.595   4.512 -0.5801 -0.4915 -0.3326
  120OSM   H18T12623   5.084   3.440   4.575 -2.7149 -1.2753  1.7134
  120OSM   H18U12624   5.136   3.580   4.682 -1.2408 -0.2289  1.4503
  120OSM    C1F12625   5.746   3.611   6.232  0.0150 -0.0808 -0.7292
  120OSM     OF12626   5.766   3.525   6.320  0.4691 -0.4217 -0.7938
  120OSM    C2F12627   5.846   3.659   6.131 -0.1168 -0.3465  0.2025
  120OSM    H2F12628   5.940   3.675   6.187 -0.9027  1.6306  1.0797
  120OSM    H2G12629   5.803   3.753   6.088  1.9333 -0.5115 -2.4742
  120OSM    C3F12630   5.872   3.554   6.020 -0.8260  1.3053  0.1813
  120OSM    H3F12631   5.775   3.530   5.971 -0.4205  0.6302 -0.3067
  120OSM    H3G12632   5.913   3.459   6.061 -0.4825  0.2966 -2.3498
  120OSM    C4F12633   5.966   3.593   5.905  0.5193 -0.1439 -0.0787
  120OSM    H4F12634   6.068   3.564   5.939  0.0420  1.0096  2.5870
  120OSM    H4G12635   5.956   3.700   5.879 -1.1837  0.2036  1.7550
  120OSM    C5F12636   5.948   3.505   5.779 -0.2743  0.4360  0.0620
  120OSM    H5F12637   5.843   3.516   5.745 -0.8093 -2.8225  0.2726
  120OSM    H5G12638   5.959   3.401   5.816  1.7774  1.1343  1.5714
  120OSM    C6F12639   6.058   3.531   5.670  0.2621  0.8146 -0.0367
  120OSM    H6F12640   6.154   3.527   5.726  0.1252 -1.9548  0.1463
  120OSM    H6G12641   6.037   3.634   5.637  1.1776  0.8707 -0.4846
  120OSM    C7F12642   6.067   3.445   5.545 -0.1651  0.6204 -0.8854
  120OSM    H7F12643   5.971   3.436   5.489  0.6364  1.8374 -2.5332
  120OSM    H7G12644   6.102   3.348   5.586  0.7745  1.7257  1.0380
  120OSM    C8F12645   6.173   3.493   5.439 -0.3711  0.4310  0.1097
  120OSM    H8F12646   6.258   3.536   5.495  0.1869 -3.2527  2.4649
  120OSM    H8G12647   6.121   3.569   5.377 -1.3726  1.7303  2.4399
  120OSM    C9F12648   6.226   3.380   5.370 -0.4340  0.2355  0.3827
  120OSM    H9F12649   6.258   3.302   5.441 -1.1059 -0.0878  0.3370
  120OSM   C10F12650   6.259   3.346   5.240 -0.9524  0.0294  0.6254
  120OSM   H10F12651   6.293   3.244   5.219  1.3530  1.0857 -1.1354
  120OSM   C11F12652   6.242   3.437   5.120  0.5850  0.6604 -0.7334
  120OSM   H11F12653   6.340   3.462   5.075  3.8341 -0.2775  4.8668
  120OSM   H11G12654   6.207   3.537   5.153 -3.2063 -0.2015 -1.6430
  120OSM   C12F12655   6.135   3.381   5.024 -0.0566 -0.4582 -0.1271
  120OSM   H12F12656   6.027   3.397   5.047 -0.5485 -0.2595 -2.3398
  120OSM   H12G12657   6.157   3.273   5.008 -0.9136 -0.6316 -0.2085
  120OSM   C13F12658   6.158   3.457   4.890  0.0077 -0.4838  0.4275
  120OSM   H13F12659   6.170   3.563   4.918 -1.6841  0.8483 -3.2333
  120OSM   H13G12660   6.058   3.457   4.840  0.0527  1.0701  0.3094
  120OSM   C14F12661   6.268   3.402   4.803  0.4981  0.3132  0.2259
  120OSM   H14F12662   6.231   3.298   4.787  1.9738 -0.5024  1.7947
  120OSM   H14G12663   6.366   3.409   4.854  0.9412 -0.9301 -0.4083
  120OSM   C15F12664   6.262   3.450   4.658  0.8366 -0.4824  0.2392
  120OSM   H15F12665   6.305   3.553   4.669 -1.0915  0.3881  0.0119
  120OSM   H15G12666   6.153   3.465   4.649  0.5840 -1.4833  1.3487
  120OSM   C16F12667   6.331   3.358   4.568 -0.4705  0.4359  0.2459
  120OSM   H16F12668   6.300   3.251   4.574 -0.1052  0.1354 -2.1096
  120OSM   H16G12669   6.440   3.363   4.586  0.4364 -3.4546 -2.7450
  120OSM   C17F12670   6.309   3.393   4.418  0.8163 -0.3093 -0.1005
  120OSM   H17F12671   6.392   3.464   4.394  1.0602 -0.4163  0.4136
  120OSM   H17G12672   6.218   3.456   4.422  1.8162  1.1553  0.9098
  120OSM   C18F12673   6.283   3.282   4.322  0.4403 -0.6483 -0.1926
  120OSM   H18F12674   6.376   3.223   4.308  0.1277 -1.4543  0.9750
  120OSM   H18G12675   6.253   3.327   4.225  0.7239  0.9352  0.4235
  120OSM   H18H12676   6.201   3.213   4.351  2.0260 -3.0598 -1.0969
  121OSM      N12677   1.195   6.563   6.648 -0.0740  0.2374 -0.2619
  121OSM    C1512678   1.276   6.466   6.732 -0.0901  0.1939  0.0217
  121OSM   H15A12679   1.291   6.520   6.825 -2.3220  0.7229  0.1477
  121OSM   H15B12680   1.367   6.426   6.690 -0.7282 -1.9478  0.5367
  121OSM   H15C12681   1.215   6.380   6.757 -1.3028  0.4189 -1.9201
  121OSM    C1412682   1.299   6.671   6.604  0.4985 -0.3401 -0.8858
  121OSM   H14A12683   1.344   6.722   6.688 -0.8759 -1.4953  0.6046
  121OSM   H14B12684   1.248   6.754   6.557  1.4389 -0.7714 -2.8138
  121OSM   H14C12685   1.379   6.640   6.537  2.9076  1.6820  0.8484
  121OSM    C1312686   1.151   6.493   6.518  0.9168  0.0995 -0.7392
  121OSM   H13A12687   1.234   6.430   6.490  1.4854  0.5074 -0.0085
  121OSM   H13B12688   1.127   6.569   6.446 -0.7639  1.6776  1.3467
  121OSM   H13C12689   1.059   6.439   6.536  0.7252  1.1728  2.0635
  121OSM    C1212690   1.077   6.614   6.717 -0.3563  0.5802  0.0021
  121OSM   H12A12691   1.045   6.704   6.667 -1.6535 -0.3465 -0.8913
  121OSM   H12B12692   1.109   6.656   6.812 -1.0175  0.7257  0.1661
  121OSM    C1112693   0.953   6.531   6.749 -0.0014 -0.7939 -0.7983
  121OSM   H11A12694   0.914   6.573   6.845 -0.8225 -0.9973 -1.0338
  121OSM   H11B12695   0.992   6.429   6.769  1.4369 -0.2288 -0.6238
  121OSM      P12696   0.769   6.653   6.616 -0.4456  0.2576  0.0535
  121OSM    O1312697   0.637   6.640   6.682 -0.4561 -0.1906  0.4157
  121OSM    O1412698   0.848   6.774   6.642 -0.7402  0.2035 -0.1550
  121OSM    O1112699   0.741   6.637   6.469  0.2825 -0.0260  0.1750
  121OSM    O1212700   0.866   6.526   6.629 -0.4914 -0.8486  0.6012
  121OSM    C1S12701   0.823   6.716   6.380 -0.3755  0.4271 -0.5841
  121OSM    H1S12702   0.926   6.718   6.421 -0.8384 -2.3322  0.9586
  121OSM    H1T12703   0.800   6.824   6.371  2.5366  1.1032 -0.8821
  121OSM     NF12704   0.929   6.734   6.160  0.0828  0.1129  0.0796
  121OSM    HNF12705   0.894   6.820   6.125 -0.8908 -0.0679  0.5750
  121OSM    C2S12706   0.837   6.655   6.233 -0.5934  0.2433 -0.4698
  121OSM    H2S12707   0.881   6.555   6.253  1.7060  1.4809  1.0376
  121OSM    C3S12708   0.699   6.651   6.163 -0.4181 -0.1096  0.1305
  121OSM    H3S12709   0.662   6.755   6.154 -3.2443 -1.1183 -0.6927
  121OSM     O312710   0.596   6.595   6.244  0.1769  0.3802  0.0927
  121OSM    HO312711   0.649   6.585   6.323  1.3699 -1.9612 -0.8935
  121OSM    C4S12712   0.701   6.584   6.034  0.0505  0.9739 -0.2469
  121OSM    H4S12713   0.733   6.479   6.047  0.6749  1.2072  0.1545
  121OSM    C5S12714   0.675   6.644   5.915 -0.0545 -0.4041  0.3361
  121OSM    H5S12715   0.641   6.749   5.915 -1.9406 -0.9900 -0.2866
  121OSM    C6S12716   0.682   6.590   5.776 -0.2460  0.0383  0.3359
  121OSM    H6S12717   0.766   6.631   5.717 -0.7359 -1.8467 -1.8131
  121OSM    H6T12718   0.588   6.610   5.720  0.0888 -1.2171 -0.7035
  121OSM    C7S12719   0.726   6.439   5.761 -0.2655  0.5882  0.2716
  121OSM    H7S12720   0.648   6.378   5.811 -0.8030 -0.4085 -1.7043
  121OSM    H7T12721   0.826   6.432   5.809 -0.1811  0.4196  0.0681
  121OSM    C8S12722   0.745   6.396   5.613  0.0851  0.4093  0.4109
  121OSM    H8S12723   0.648   6.415   5.563  0.6901 -0.4361 -1.1374
  121OSM    H8T12724   0.765   6.288   5.597 -0.9855  0.5014 -1.9981
  121OSM    C9S12725   0.858   6.459   5.536  0.3731 -0.7484 -0.3490
  121OSM    H9S12726   0.958   6.442   5.583  0.2683 -2.3127 -0.6258
  121OSM    H9T12727   0.836   6.567   5.525  0.1823 -0.7747 -0.2244
  121OSM   C10S12728   0.864   6.411   5.395 -0.0264  0.6927 -0.0927
  121OSM   H10S12729   0.935   6.474   5.337  0.3010 -0.3012 -0.7972
  121OSM   H10T12730   0.765   6.413   5.345  0.4659 -1.2017 -1.2260
  121OSM   C11S12731   0.919   6.267   5.377  0.5483 -0.6457  0.0593
  121OSM   H11S12732   0.877   6.194   5.449  1.5645 -1.1222  0.1964
  121OSM   H11T12733   1.027   6.276   5.404 -0.0700  1.6370  2.0995
  121OSM   C12S12734   0.914   6.219   5.232 -0.3356 -0.2125 -0.6902
  121OSM   H12S12735   0.813   6.254   5.201 -0.7752  1.7138  2.4795
  121OSM   H12T12736   0.914   6.108   5.241  1.1714 -0.2494 -1.0027
  121OSM   C13S12737   1.021   6.272   5.142  0.1167 -0.5788  0.3796
  121OSM   H13S12738   1.124   6.258   5.181  1.2019  1.2448 -1.5633
  121OSM   H13T12739   0.992   6.378   5.161 -2.0547 -1.2315  0.8616
  121OSM   C14S12740   0.997   6.232   4.998 -0.2589 -0.7062  0.3422
  121OSM   H14S12741   1.022   6.126   4.979  1.3589 -0.5448  1.3677
  121OSM   H14T12742   1.069   6.284   4.931 -0.5953 -0.1526  0.4039
  121OSM   C15S12743   0.846   6.266   4.955  0.2870 -0.0040  0.8854
  121OSM   H15S12744   0.826   6.366   4.997  2.6093  1.9929 -2.3211
  121OSM   H15T12745   0.773   6.189   4.989  2.5228 -3.1314 -0.8311
  121OSM   C16S12746   0.840   6.270   4.799  0.5291 -0.2282 -1.0543
  121OSM   H16S12747   0.921   6.341   4.771  0.4161  0.6383  0.6551
  121OSM   H16T12748   0.748   6.315   4.757 -0.4294 -2.7808 -1.8855
  121OSM   C17S12749   0.853   6.133   4.731  0.6997 -0.3302 -0.6561
  121OSM   H17S12750   0.775   6.070   4.779  1.7438 -1.9687 -1.0307
  121OSM   H17T12751   0.952   6.088   4.756  0.4438 -0.0074  1.0572
  121OSM   C18S12752   0.832   6.140   4.580  0.5286 -0.1966  0.5706
  121OSM   H18S12753   0.847   6.042   4.531  0.2785 -0.3693  0.8358
  121OSM   H18T12754   0.911   6.203   4.532 -0.9671  0.2450 -1.4538
  121OSM   H18U12755   0.730   6.179   4.558 -0.9595 -0.5798  5.5976
  121OSM    C1F12756   1.059   6.732   6.184 -0.0163  0.1539  0.4617
  121OSM     OF12757   1.107   6.640   6.244 -0.1116 -0.1937 -0.2993
  121OSM    C2F12758   1.141   6.849   6.132  0.3726 -0.4057 -0.3608
  121OSM    H2F12759   1.212   6.874   6.213  0.1952 -1.8109  0.2693
  121OSM    H2G12760   1.073   6.935   6.112 -0.1775  0.0491  2.9503
  121OSM    C3F12761   1.219   6.823   5.998 -0.2041 -0.5216 -0.7826
  121OSM    H3F12762   1.317   6.778   6.026 -0.1388  0.3700  0.4788
  121OSM    H3G12763   1.237   6.926   5.962 -3.1466  0.1838 -0.4875
  121OSM    C4F12764   1.139   6.744   5.888  0.0797 -0.4994 -0.0287
  121OSM    H4F12765   1.034   6.782   5.889 -0.1649 -1.1182 -0.8750
  121OSM    H4G12766   1.132   6.636   5.913  0.5285 -0.2839  1.0684
  121OSM    C5F12767   1.208   6.771   5.746 -0.7057  0.3527  0.3076
  121OSM    H5F12768   1.304   6.715   5.737 -0.0948  1.4450 -0.2854
  121OSM    H5G12769   1.230   6.880   5.742  0.8259  0.0853  0.5984
  121OSM    C6F12770   1.117   6.744   5.629 -0.3335  0.4509  0.2303
  121OSM    H6F12771   1.023   6.799   5.650  0.2510  1.7902 -0.5434
  121OSM    H6G12772   1.098   6.635   5.623 -0.5166  0.5731 -2.3407
  121OSM    C7F12773   1.164   6.807   5.494 -0.3331 -0.0894 -0.9093
  121OSM    H7F12774   1.269   6.786   5.467  0.2562  1.8855 -0.3481
  121OSM    H7G12775   1.165   6.916   5.518 -5.1249  0.0886 -0.4254
  121OSM    C8F12776   1.081   6.772   5.373  0.2816  0.3676 -0.0572
  121OSM    H8F12777   0.975   6.753   5.401  0.2042 -0.4570 -0.8780
  121OSM    H8G12778   1.118   6.669   5.354 -0.6884 -0.5031  2.3483
  121OSM    C9F12779   1.091   6.859   5.256 -0.5056  0.3754  0.0488
  121OSM    H9F12780   1.084   6.969   5.268  0.4204  0.4930 -0.3791
  121OSM   C10F12781   1.098   6.819   5.126 -0.0914  0.0105 -0.4653
  121OSM   H10F12782   1.086   6.894   5.047 -0.9749 -0.3443 -0.6773
  121OSM   C11F12783   1.101   6.682   5.063  0.3251  0.0473  0.2472
  121OSM   H11F12784   1.028   6.679   4.980 -0.8702 -0.5120  1.3005
  121OSM   H11G12785   1.082   6.601   5.135  1.4007  1.2483  1.9609
  121OSM   C12F12786   1.244   6.673   5.002 -0.2296  0.0608 -0.5747
  121OSM   H12F12787   1.324   6.683   5.079  0.7422 -2.7670 -1.0972
  121OSM   H12G12788   1.249   6.740   4.914 -0.6120  0.9946  0.0878
  121OSM   C13F12789   1.253   6.533   4.944 -0.0903 -0.2019  0.1582
  121OSM   H13F12790   1.188   6.528   4.854 -0.4914 -4.0411  0.5097
  121OSM   H13G12791   1.218   6.450   5.008  0.7102  1.2701  2.6715
  121OSM   C14F12792   1.390   6.508   4.890  0.3057  0.0594  0.9774
  121OSM   H14F12793   1.384   6.400   4.864  0.5748  0.5193 -1.1985
  121OSM   H14G12794   1.473   6.526   4.963  0.1348 -0.8314  1.4103
  121OSM   C15F12795   1.433   6.589   4.762  0.5310  0.4810  0.2628
  121OSM   H15F12796   1.418   6.698   4.777 -1.0109  0.3554 -0.2166
  121OSM   H15G12797   1.375   6.554   4.674 -0.0344  1.5412  0.1935
  121OSM   C16F12798   1.585   6.569   4.735 -0.3548  0.0005  0.5471
  121OSM   H16F12799   1.590   6.462   4.707  1.2582  0.9522 -3.5735
  121OSM   H16G12800   1.641   6.584   4.829  2.0080 -0.7501 -0.6499
  121OSM   C17F12801   1.636   6.679   4.640  0.2760  0.7097  0.6679
  121OSM   H17F12802   1.614   6.781   4.675 -1.1356  0.6955 -0.0839
  121OSM   H17G12803   1.594   6.643   4.543  2.8463 -1.6513  0.2881
  121OSM   C18F12804   1.788   6.653   4.616  0.3261 -0.7838 -0.3181
  121OSM   H18F12805   1.817   6.719   4.531 -1.8142  1.0216  0.2588
  121OSM   H18G12806   1.821   6.548   4.602  0.4560 -0.9714  1.2368
  121OSM   H18H12807   1.845   6.683   4.707  0.4749 -2.1475  0.0505
  122OSM      N12808   0.431   1.883   6.929  0.1300  0.7953  0.4855
  122OSM    C1512809   0.312   1.823   7.003  0.2747 -0.2663  0.2441
  122OSM   H15A12810   0.338   1.792   7.103  0.2760  0.8360  0.5971
  122OSM   H15B12811   0.280   1.735   6.949 -1.1730 -0.1061  0.8138
  122OSM   H15C12812   0.233   1.896   6.995  2.0876  1.7368 -0.6199
  122OSM    C1412813   0.474   2.003   7.004 -0.4312  0.4084  0.4839
  122OSM   H14A12814   0.489   1.975   7.107  0.8214 -0.5562  0.0546
  122OSM   H14B12815   0.400   2.081   7.009 -2.7293 -1.4281 -2.1055
  122OSM   H14C12816   0.565   2.042   6.961  0.0750 -1.6607 -0.4661
  122OSM    C1312817   0.549   1.783   6.941 -0.0386 -0.3585 -0.2416
  122OSM   H13A12818   0.574   1.774   7.046  0.4210  1.6015 -0.1511
  122OSM   H13B12819   0.634   1.811   6.881 -0.1098  0.6553  0.1061
  122OSM   H13C12820   0.520   1.683   6.912 -0.1335 -0.4174  0.0526
  122OSM    C1212821   0.402   1.915   6.779 -0.3048 -0.2710 -0.2033
  122OSM   H12A12822   0.360   1.827   6.733  0.5100 -2.2852  2.6233
  122OSM   H12B12823   0.495   1.912   6.726 -0.3192 -4.0138 -0.2232
  122OSM    C1112824   0.314   2.030   6.736 -0.0273 -0.3379  0.1779
  122OSM   H11A12825   0.233   2.039   6.811  1.6195 -0.8817  2.0937
  122OSM   H11B12826   0.272   2.023   6.633  0.7469 -0.2552 -0.1444
  122OSM      P12827   0.345   2.290   6.781  0.3802  0.1193 -0.2539
  122OSM    O1312828   0.224   2.259   6.862  0.1200  0.3599 -0.0577
  122OSM    O1412829   0.449   2.369   6.839 -0.1000 -0.3492 -0.3143
  122OSM    O1112830   0.291   2.367   6.656 -0.3420 -0.1780 -0.5521
  122OSM    O1212831   0.398   2.147   6.729 -0.6129 -0.0873  0.5199
  122OSM    C1S12832   0.359   2.372   6.526  0.1979  0.7941  0.1838
  122OSM    H1S12833   0.469   2.362   6.526  0.3951  2.3087 -1.8205
  122OSM    H1T12834   0.331   2.466   6.474 -0.9726 -1.1348 -2.9530
  122OSM     NF12835   0.371   2.265   6.291  0.4313  0.3418 -0.3674
  122OSM    HNF12836   0.309   2.273   6.213 -0.8682  1.5841  0.7419
  122OSM    C2S12837   0.314   2.255   6.425  0.5103  0.5124 -0.0067
  122OSM    H2S12838   0.346   2.164   6.481 -1.0062  1.1371  2.0215
  122OSM    C3S12839   0.159   2.246   6.423 -0.3752  0.5775  0.5755
  122OSM    H3S12840   0.123   2.322   6.351  1.1817  0.1320 -0.7301
  122OSM     O312841   0.084   2.287   6.545 -0.0324 -0.6078  0.0365
  122OSM    HO312842   0.150   2.335   6.595 -1.0361 -1.1568  1.9616
  122OSM    C4S12843   0.110   2.124   6.367 -0.2039 -0.1026 -0.5275
  122OSM    H4S12844   0.102   2.128   6.257  1.2960  1.7250 -0.6232
  122OSM    C5S12845   0.071   2.005   6.422  0.2695 -0.9810 -0.1070
  122OSM    H5S12846   0.065   1.984   6.529 -1.5529 -2.2776 -0.4211
  122OSM    C6S12847   0.024   1.890   6.348  0.6327  0.5842 -0.2421
  122OSM    H6S12848  -0.086   1.883   6.364  0.8524  1.2119  1.8332
  122OSM    H6T12849   0.067   1.798   6.393 -2.5693 -1.0416 -0.1519
  122OSM    C7S12850   0.063   1.885   6.200  0.2123 -0.2324 -0.8809
  122OSM    H7S12851   0.046   1.970   6.130 -2.2124 -0.0950 -0.2039
  122OSM    H7T12852   0.010   1.797   6.158 -2.2651  0.7415  0.0367
  122OSM    C8S12853   0.208   1.855   6.180 -0.4341 -0.3686  0.4536
  122OSM    H8S12854   0.243   1.763   6.231  1.5061 -0.7767 -1.4503
  122OSM    H8T12855   0.264   1.941   6.222  1.3962 -0.2896 -1.9321
  122OSM    C9S12856   0.254   1.837   6.030 -0.0686  0.4175  0.0682
  122OSM    H9S12857   0.187   1.759   5.987  0.1368  0.4984 -0.4073
  122OSM    H9T12858   0.358   1.798   6.026 -0.5263 -1.0194  1.1636
  122OSM   C10S12859   0.254   1.973   5.954  0.0254 -0.1750 -0.5617
  122OSM   H10S12860   0.289   2.051   6.025 -2.6329 -0.8869  1.7605
  122OSM   H10T12861   0.144   1.989   5.943 -0.0754  1.2175  1.8466
  122OSM   C11S12862   0.338   1.979   5.827 -0.2596  0.1062  0.1889
  122OSM   H11S12863   0.432   1.921   5.833  0.6112  1.3264 -0.8896
  122OSM   H11T12864   0.374   2.084   5.817  1.7412 -0.7278 -3.0514
  122OSM   C12S12865   0.255   1.957   5.700  0.8662  0.3618  0.1572
  122OSM   H12S12866   0.162   2.018   5.698 -0.8660 -2.1638 -1.4261
  122OSM   H12T12867   0.207   1.857   5.705  1.2472  0.1513 -0.3418
  122OSM   C13S12868   0.324   1.991   5.564  0.5003 -0.9741  0.0313
  122OSM   H13S12869   0.404   1.919   5.539  0.2862 -1.3250  0.3411
  122OSM   H13T12870   0.370   2.090   5.581  0.2301 -0.8403 -0.0160
  122OSM   C14S12871   0.223   2.002   5.447  0.0020  0.1178  0.1536
  122OSM   H14S12872   0.162   2.094   5.461 -0.1081 -0.1245  1.3739
  122OSM   H14T12873   0.156   1.914   5.450  0.9917 -0.6504  0.3166
  122OSM   C15S12874   0.294   2.000   5.309  0.3682 -0.4556 -0.4754
  122OSM   H15S12875   0.356   1.908   5.298  3.0623  1.2551 -0.7138
  122OSM   H15T12876   0.365   2.086   5.312  1.4206 -1.3232  0.6839
  122OSM   C16S12877   0.201   2.004   5.192  0.3818  0.7212 -0.4997
  122OSM   H16S12878   0.128   2.087   5.184 -1.2586 -0.7444 -1.6216
  122OSM   H16T12879   0.128   1.920   5.196 -0.5819  1.5823  0.6818
  122OSM   C17S12880   0.270   2.002   5.058  0.0438 -0.1181 -0.3465
  122OSM   H17S12881   0.335   1.914   5.037 -0.5853 -1.0928  1.5365
  122OSM   H17T12882   0.339   2.089   5.062  0.8418 -0.7833  1.2456
  122OSM   C18S12883   0.183   2.018   4.931 -0.2110  0.2611  0.5519
  122OSM   H18S12884   0.124   1.925   4.915 -1.2038  0.4428  2.7812
  122OSM   H18T12885   0.252   2.032   4.845 -2.8011  1.3098 -1.5042
  122OSM   H18U12886   0.115   2.106   4.941  1.5281  1.6327  0.7298
  122OSM    C1F12887   0.494   2.245   6.265 -0.2077  0.1808  0.3260
  122OSM     OF12888   0.573   2.224   6.356 -0.4388 -0.0673 -0.5325
  122OSM    C2F12889   0.534   2.228   6.119  0.4271 -1.0933 -0.3161
  122OSM    H2F12890   0.465   2.292   6.061 -0.5151 -1.6452  0.1760
  122OSM    H2G12891   0.517   2.120   6.099  1.5987 -1.8781  2.4777
  122OSM    C3F12892   0.678   2.255   6.103 -0.4862  0.6229  1.0862
  122OSM    H3F12893   0.733   2.184   6.169 -0.0049 -0.5734 -0.5282
  122OSM    H3G12894   0.682   2.362   6.134 -0.9042  0.9645  0.0039
  122OSM    C4F12895   0.728   2.238   5.960  0.7494 -0.1180  0.0764
  122OSM    H4F12896   0.720   2.130   5.935  1.0945 -0.4485  1.3072
  122OSM    H4G12897   0.834   2.272   5.953  0.5403  0.2453 -2.0709
  122OSM    C5F12898   0.656   2.328   5.861 -0.1907 -0.7484  0.6931
  122OSM    H5F12899   0.676   2.436   5.880 -0.3457 -0.4305 -0.8631
  122OSM    H5G12900   0.546   2.320   5.857 -0.1975 -0.2487 -0.6514
  122OSM    C6F12901   0.699   2.312   5.711  0.2737 -0.7126 -0.4822
  122OSM    H6F12902   0.800   2.356   5.696 -0.6873  1.4200 -1.0268
  122OSM    H6G12903   0.621   2.371   5.658  1.1308  0.6955 -0.2133
  122OSM    C7F12904   0.689   2.166   5.669  0.8688 -0.6046  0.4917
  122OSM    H7F12905   0.591   2.128   5.706  0.8900  0.5939  1.8637
  122OSM    H7G12906   0.765   2.108   5.725  0.5393 -0.1224  1.4639
  122OSM    C8F12907   0.705   2.138   5.521  0.0602  0.4182  0.7158
  122OSM    H8F12908   0.695   2.030   5.496  0.0025  0.7084 -0.6011
  122OSM    H8G12909   0.804   2.173   5.484 -0.0222  0.8933  0.9429
  122OSM    C9F12910   0.596   2.212   5.444  0.5144 -0.0869  0.1571
  122OSM    H9F12911   0.506   2.220   5.506  1.4344  0.0804  1.5133
  122OSM   C10F12912   0.597   2.255   5.315  0.2872 -0.3799  1.0321
  122OSM   H10F12913   0.507   2.294   5.267  0.5415  1.0684  1.7007
  122OSM   C11F12914   0.712   2.228   5.224  0.0294 -0.2696 -0.5063
  122OSM   H11F12915   0.788   2.160   5.268  1.4711  1.3834 -0.3469
  122OSM   H11G12916   0.765   2.325   5.215  0.5458 -0.3143  1.5639
  122OSM   C12F12917   0.667   2.177   5.083  0.1197 -0.0565  0.2599
  122OSM   H12F12918   0.582   2.236   5.044  0.5883 -0.6929 -1.8373
  122OSM   H12G12919   0.638   2.070   5.076 -1.9239  0.5670 -2.2693
  122OSM   C13F12920   0.779   2.177   4.972 -0.0206 -0.0175 -0.1544
  122OSM   H13F12921   0.863   2.136   5.032 -0.6019 -2.0649 -0.6356
  122OSM   H13G12922   0.814   2.272   4.928 -0.4481 -1.0168 -2.8474
  122OSM   C14F12923   0.752   2.076   4.859 -0.4456  0.8030  1.1893
  122OSM   H14F12924   0.677   2.097   4.780  0.2880  0.1672  0.3067
  122OSM   H14G12925   0.714   1.986   4.911  0.5079  0.4751  1.3487
  122OSM   C15F12926   0.877   2.026   4.781  0.2448  0.1753  0.7632
  122OSM   H15F12927   0.847   1.928   4.740  0.4503 -0.2285  1.5702
  122OSM   H15G12928   0.974   1.998   4.828  1.1969 -1.3951 -1.9331
  122OSM   C16F12929   0.919   2.120   4.667  0.1042 -0.0480 -0.3198
  122OSM   H16F12930   1.004   2.178   4.708 -0.4375  0.6601 -0.1754
  122OSM   H16G12931   0.827   2.174   4.636 -2.8544 -1.9241  4.1804
  122OSM   C17F12932   0.982   2.044   4.544  0.2388  0.3993 -1.0825
  122OSM   H17F12933   1.065   1.984   4.588  0.5461  1.3722 -0.2942
  122OSM   H17G12934   1.047   2.114   4.487  1.8627  0.1815  0.4229
  122OSM   C18F12935   0.886   1.953   4.470 -0.5646  0.1367  0.1135
  122OSM   H18F12936   0.813   1.898   4.533  0.0449 -1.2490 -0.3448
  122OSM   H18G12937   0.943   1.879   4.410 -1.4664 -0.0049 -0.5909
  122OSM   H18H12938   0.820   2.017   4.408  0.9243  1.3398 -0.2631
  123OSM      N12939   1.662   2.787   1.800  0.2121  0.6166  0.2151
  123OSM    C1512940   1.536   2.754   1.718 -0.8086  0.0577 -0.2532
  123OSM   H15A12941   1.502   2.659   1.757  0.3241  0.0484  0.7767
  123OSM   H15B12942   1.564   2.756   1.614 -2.6981  0.2787 -0.7838
  123OSM   H15C12943   1.468   2.836   1.731  0.1435  1.0349 -1.2105
  123OSM    C1412944   1.771   2.693   1.772  0.6948  0.7602  0.3637
  123OSM   H14A12945   1.851   2.703   1.843  0.7981 -0.4090  0.4278
  123OSM   H14B12946   1.812   2.707   1.673 -1.4086  2.0364 -0.3989
  123OSM   H14C12947   1.735   2.594   1.792  0.4641  0.6080 -0.7594
  123OSM    C1312948   1.703   2.921   1.763 -0.0499 -0.1551  0.3702
  123OSM   H13A12949   1.800   2.947   1.802  0.7547 -1.3829 -0.7157
  123OSM   H13B12950   1.629   2.996   1.788  0.0149  0.3316 -0.8044
  123OSM   H13C12951   1.707   2.933   1.655 -2.8119  0.2933  0.2540
  123OSM    C1212952   1.619   2.799   1.948 -0.5212  0.6888  0.1651
  123OSM   H12A12953   1.530   2.859   1.957  0.2537  1.5176  4.9194
  123OSM   H12B12954   1.697   2.849   2.004 -0.6258  0.1461  0.8107
  123OSM    C1112955   1.569   2.667   2.019 -0.9515 -0.1435 -0.2724
  123OSM   H11A12956   1.580   2.691   2.126  1.1724  1.4615 -0.8015
  123OSM   H11B12957   1.635   2.580   1.999  0.6999  0.7212  1.2852
  123OSM      P12958   1.353   2.534   2.057  0.0881  0.3735 -0.2140
  123OSM    O1312959   1.213   2.559   2.044 -0.1657 -0.3415 -0.1091
  123OSM    O1412960   1.386   2.399   2.000  0.1951  0.3185 -0.4189
  123OSM    O1112961   1.389   2.545   2.213  0.3000  0.0088 -0.4063
  123OSM    O1212962   1.434   2.640   1.977  0.0275 -0.1758  0.6295
  123OSM    C1S12963   1.343   2.669   2.268  0.7433 -0.0265 -0.2297
  123OSM    H1S12964   1.236   2.689   2.249  0.7421  0.5821  0.3798
  123OSM    H1T12965   1.388   2.756   2.215 -2.3889  1.4050 -0.7363
  123OSM     NF12966   1.300   2.783   2.487  0.1783 -0.0545 -0.2960
  123OSM    HNF12967   1.360   2.861   2.502 -0.3099  0.7266 -2.0707
  123OSM    C2S12968   1.367   2.674   2.420  0.0472  0.5947 -0.1940
  123OSM    H2S12969   1.313   2.584   2.456 -0.2793  1.3851  1.3745
  123OSM    C3S12970   1.521   2.662   2.456  0.3546  0.3719  0.3493
  123OSM    H3S12971   1.569   2.753   2.412 -0.8056  2.6913  3.5177
  123OSM     O312972   1.587   2.553   2.390 -0.5318  0.5746 -0.1866
  123OSM    HO312973   1.517   2.510   2.341 -0.5171  0.1235  0.1809
  123OSM    C4S12974   1.542   2.660   2.605  0.7383 -0.1787  0.0677
  123OSM    H4S12975   1.553   2.758   2.654  1.5053 -0.6209  0.8091
  123OSM    C5S12976   1.563   2.560   2.691  0.1452 -0.1507  0.6649
  123OSM    H5S12977   1.591   2.459   2.655  1.1949  0.3745 -0.0394
  123OSM    C6S12978   1.582   2.562   2.837 -0.0504  0.2307 -0.3738
  123OSM    H6S12979   1.638   2.471   2.868 -0.6365  0.6840  2.1836
  123OSM    H6T12980   1.480   2.544   2.876 -0.0342  1.2800  0.1608
  123OSM    C7S12981   1.642   2.685   2.902 -0.1581  0.0441  0.4512
  123OSM    H7S12982   1.581   2.773   2.871 -2.2871 -1.5459 -0.1030
  123OSM    H7T12983   1.740   2.700   2.852 -0.0437 -2.5585 -0.2556
  123OSM    C8S12984   1.638   2.690   3.053  0.1189  0.9837 -0.0297
  123OSM    H8S12985   1.535   2.705   3.092  0.1271  1.5212 -0.2081
  123OSM    H8T12986   1.700   2.777   3.084  2.0953  0.4821 -2.2646
  123OSM    C9S12987   1.693   2.565   3.126 -0.1235 -0.1350  0.1566
  123OSM    H9S12988   1.782   2.529   3.071 -1.7400 -3.4147 -0.5243
  123OSM    H9T12989   1.610   2.495   3.107  0.3434  0.0081 -2.8449
  123OSM   C10S12990   1.725   2.590   3.272  0.1345 -0.5120 -0.8926
  123OSM   H10S12991   1.814   2.657   3.277 -0.9708  0.9682 -0.0507
  123OSM   H10T12992   1.756   2.495   3.319 -0.1197 -0.2036 -0.0770
  123OSM   C11S12993   1.613   2.649   3.366 -0.5397  0.5957  0.1455
  123OSM   H11S12994   1.533   2.573   3.354 -0.2642  0.4084 -0.5269
  123OSM   H11T12995   1.577   2.749   3.334  1.2917  0.9231 -1.0362
  123OSM   C12S12996   1.667   2.659   3.513 -0.2873  0.2032  0.0108
  123OSM   H12S12997   1.768   2.704   3.518  0.1070 -0.7530  1.0100
  123OSM   H12T12998   1.678   2.567   3.574  1.1832 -0.0480 -0.5908
  123OSM   C13S12999   1.586   2.755   3.602  0.2720  0.2472  0.1724
  123OSM   H13S13000   1.479   2.727   3.593  0.5330 -1.3767  1.4950
  123OSM   H13T13001   1.606   2.852   3.552  0.3792  1.5423  2.6035
  123OSM   C14S13002   1.638   2.752   3.744  0.7922 -0.2834  0.1678
  123OSM   H14S13003   1.586   2.838   3.792  0.5096 -0.6984  0.6349
  123OSM   H14T13004   1.746   2.770   3.762  1.1094 -1.1145 -0.8100
  123OSM   C15S13005   1.599   2.629   3.825 -0.4076  0.6588 -0.1814
  123OSM   H15S13006   1.685   2.559   3.827  0.8880  2.1183  3.1404
  123OSM   H15T13007   1.507   2.587   3.780 -0.0613  0.0236 -0.3105
  123OSM   C16S13008   1.552   2.656   3.966 -0.9445 -0.1753 -0.9742
  123OSM   H16S13009   1.499   2.753   3.969 -2.1705 -0.8509  0.1379
  123OSM   H16T13010   1.641   2.659   4.034 -0.1512 -2.2682 -1.8585
  123OSM   C17S13011   1.463   2.546   4.022  0.4134  0.3193 -0.4839
  123OSM   H17S13012   1.525   2.454   4.019 -0.1394 -0.0629 -0.3839
  123OSM   H17T13013   1.371   2.551   3.960  1.1212  0.5399 -1.5275
  123OSM   C18S13014   1.419   2.580   4.163 -0.1408  0.1186 -0.0683
  123OSM   H18S13015   1.341   2.659   4.172  0.2516  0.4485  0.5684
  123OSM   H18T13016   1.513   2.615   4.213  0.5121  0.0718 -1.2418
  123OSM   H18U13017   1.391   2.486   4.216  0.8587 -0.2353 -0.1452
  123OSM    C1F13018   1.168   2.800   2.494 -0.1866 -0.2844 -0.0283
  123OSM     OF13019   1.094   2.730   2.425  0.0812  0.8289 -0.2142
  123OSM    C2F13020   1.106   2.905   2.588 -0.6375 -0.0534 -0.3459
  123OSM    H2F13021   0.995   2.897   2.582 -0.7897 -0.4130  2.0896
  123OSM    H2G13022   1.123   3.007   2.547  0.6502  0.2081  0.7645
  123OSM    C3F13023   1.157   2.890   2.735 -0.0740  0.2175 -0.1124
  123OSM    H3F13024   1.112   2.973   2.794  0.8456 -0.7374  2.0545
  123OSM    H3G13025   1.267   2.899   2.739 -0.0904  0.6574 -0.5819
  123OSM    C4F13026   1.129   2.748   2.797 -0.0591 -0.1317  1.2477
  123OSM    H4F13027   1.151   2.666   2.725 -1.8208  0.1020  0.3670
  123OSM    H4G13028   1.020   2.756   2.817  0.1060  0.4064  1.9433
  123OSM    C5F13029   1.209   2.717   2.924 -0.3524  0.1239 -0.1836
  123OSM    H5F13030   1.219   2.798   3.000  0.4003 -0.1275 -0.0037
  123OSM    H5G13031   1.310   2.691   2.885 -0.6997 -0.4191 -0.7431
  123OSM    C6F13032   1.153   2.593   2.985  0.1907  0.3421 -0.3420
  123OSM    H6F13033   1.132   2.519   2.905 -3.7246  0.0884  0.7302
  123OSM    H6G13034   1.060   2.613   3.042  1.5724 -1.3704  2.7269
  123OSM    C7F13035   1.238   2.516   3.087 -0.7190 -0.1166 -0.4137
  123OSM    H7F13036   1.345   2.537   3.070 -0.4133 -0.9970  0.2991
  123OSM    H7G13037   1.212   2.409   3.069  0.5731 -1.3565  3.7965
  123OSM    C8F13038   1.201   2.542   3.230 -0.1020 -0.4847 -0.4336
  123OSM    H8F13039   1.257   2.461   3.282  0.0144 -0.5798 -0.7050
  123OSM    H8G13040   1.094   2.517   3.245 -0.2219 -0.4605 -1.2090
  123OSM    C9F13041   1.226   2.680   3.282  0.3274  0.6194  0.4118
  123OSM    H9F13042   1.290   2.751   3.228 -1.0596  0.6876 -1.2175
  123OSM   C10F13043   1.172   2.732   3.396 -0.0544  0.2285 -0.0582
  123OSM   H10F13044   1.203   2.836   3.416 -2.3232  0.7882  0.8285
  123OSM   C11F13045   1.059   2.677   3.476  0.7230 -0.3113  0.1247
  123OSM   H11F13046   0.987   2.634   3.404  3.3525 -2.4254 -1.4146
  123OSM   H11G13047   1.019   2.765   3.531  0.0310 -1.7228  1.9835
  123OSM   C12F13048   1.103   2.566   3.574 -0.3544 -0.2337 -0.0519
  123OSM   H12F13049   1.174   2.491   3.534 -0.3025  0.3429 -1.0684
  123OSM   H12G13050   1.010   2.518   3.611 -0.5277  0.0481 -0.1217
  123OSM   C13F13051   1.172   2.632   3.695 -0.4763  0.0806  0.0613
  123OSM   H13F13052   1.259   2.684   3.650 -0.9351  0.2940 -0.5913
  123OSM   H13G13053   1.208   2.551   3.761  0.8496 -1.3168 -2.2246
  123OSM   C14F13054   1.078   2.727   3.777  0.3009 -0.1653  0.5036
  123OSM   H14F13055   0.997   2.665   3.822  0.2255  0.4346  1.2113
  123OSM   H14G13056   1.027   2.808   3.721  1.2997  0.4343  0.4492
  123OSM   C15F13057   1.146   2.806   3.892  0.3291 -0.4059  0.3031
  123OSM   H15F13058   1.211   2.885   3.849 -0.0189  0.0366  0.5763
  123OSM   H15G13059   1.206   2.735   3.951  0.7985  1.4785  2.2201
  123OSM   C16F13060   1.043   2.868   3.982  0.1772 -0.5931  0.6114
  123OSM   H16F13061   0.974   2.799   4.034  0.2434  0.2199  1.8240
  123OSM   H16G13062   0.967   2.928   3.927 -1.5314 -0.2921  3.1204
  123OSM   C17F13063   1.103   2.961   4.083 -0.3261  0.6364  0.8387
  123OSM   H17F13064   1.169   2.895   4.142  1.5848  1.3531 -0.4083
  123OSM   H17G13065   1.021   2.999   4.148 -0.7322 -0.9094  1.2795
  123OSM   C18F13066   1.186   3.086   4.036  0.1389 -0.5107  0.1500
  123OSM   H18F13067   1.278   3.054   3.982 -0.0173 -0.2921 -0.2528
  123OSM   H18G13068   1.206   3.162   4.115 -4.1227  0.9430  0.1300
  123OSM   H18H13069   1.117   3.127   3.959 -1.0078 -1.0814  0.8386
  124OSM      N13070   4.065   2.643   1.905 -0.5710 -0.3405 -0.7447
  124OSM    C1513071   4.062   2.534   1.806 -0.4899 -0.0073 -0.0241
  124OSM   H15A13072   4.162   2.493   1.800  0.0404  1.2180  0.1682
  124OSM   H15B13073   4.054   2.567   1.703 -2.0864 -0.1347  0.0283
  124OSM   H15C13074   3.993   2.453   1.825  0.0865 -0.2446  1.1606
  124OSM    C1413075   4.158   2.754   1.863 -0.5966  0.2735  0.0554
  124OSM   H14A13076   4.125   2.797   1.770  1.7701  2.4365  0.1068
  124OSM   H14B13077   4.260   2.728   1.841  0.0781  0.1658  2.8630
  124OSM   H14C13078   4.161   2.831   1.939 -0.2597  0.0871  0.2306
  124OSM    C1313079   3.928   2.699   1.912 -0.5456 -0.1453 -0.1897
  124OSM   H13A13080   3.864   2.620   1.950 -0.2299  0.2947  1.3459
  124OSM   H13B13081   3.895   2.750   1.823  1.7655  0.6467 -0.6460
  124OSM   H13C13082   3.927   2.779   1.984  1.4743 -0.3072  0.0791
  124OSM    C1213083   4.103   2.600   2.048  0.0137 -0.1014 -0.0843
  124OSM   H12A13084   4.195   2.544   2.049  0.1024 -0.0184  2.1216
  124OSM   H12B13085   4.026   2.528   2.072 -0.7526  0.6688 -0.1976
  124OSM    C1113086   4.123   2.716   2.153 -0.0288 -0.2862  0.7441
  124OSM   H11A13087   4.080   2.679   2.249 -1.7148 -1.1577 -0.2849
  124OSM   H11B13088   4.066   2.809   2.133  1.2482  0.3106 -0.2533
  124OSM      P13089   4.362   2.645   2.251  0.3111  0.0591  0.6035
  124OSM    O1313090   4.328   2.507   2.224 -0.3561 -0.2228  0.0239
  124OSM    O1413091   4.493   2.686   2.197  0.2447 -0.3524  0.0334
  124OSM    O1113092   4.350   2.678   2.404  0.1957  0.4401 -0.3120
  124OSM    O1213093   4.261   2.745   2.179 -0.1185 -0.3275  0.4349
  124OSM    C1S13094   4.238   2.772   2.442 -0.4358  0.2082  0.4274
  124OSM    H1S13095   4.140   2.722   2.427 -1.6123  2.1263  1.2633
  124OSM    H1T13096   4.242   2.864   2.381 -0.5016  1.2006  1.8649
  124OSM     NF13097   4.126   2.902   2.617 -0.0840  0.6669 -0.2765
  124OSM    HNF13098   4.151   2.997   2.632  0.4387  0.3502  0.9830
  124OSM    C2S13099   4.240   2.802   2.591 -0.3689 -0.4178  0.6223
  124OSM    H2S13100   4.208   2.714   2.651 -2.3543  1.4262  2.4731
  124OSM    C3S13101   4.371   2.851   2.646  0.1088  0.2418 -0.0072
  124OSM    H3S13102   4.379   2.954   2.606 -4.9112  1.4015  1.2730
  124OSM     O313103   4.490   2.792   2.601 -0.0694 -0.1617 -0.1646
  124OSM    HO313104   4.462   2.740   2.525 -0.7437 -0.8489  0.5280
  124OSM    C4S13105   4.373   2.865   2.792  0.4191 -0.2331  0.7781
  124OSM    H4S13106   4.345   2.779   2.855  1.1945  0.3381  1.9432
  124OSM    C5S13107   4.391   2.985   2.858 -0.2858 -0.0036 -0.4256
  124OSM    H5S13108   4.404   3.076   2.798 -2.6207  1.2719  0.8636
  124OSM    C6S13109   4.375   3.004   3.006 -0.0211  0.1736 -0.0858
  124OSM    H6S13110   4.472   3.027   3.055 -0.2714 -0.1071  0.5520
  124OSM    H6T13111   4.346   2.908   3.052 -0.2415  1.8402  3.6006
  124OSM    C7S13112   4.269   3.106   3.067  0.0973 -0.4915  0.4295
  124OSM    H7S13113   4.170   3.059   3.051 -0.1465 -0.1629  0.9525
  124OSM    H7T13114   4.283   3.206   3.020  2.8908 -0.3412  1.3684
  124OSM    C8S13115   4.299   3.132   3.220  1.3445 -0.8398  0.4249
  124OSM    H8S13116   4.382   3.207   3.214  2.3728 -1.9668  0.2581
  124OSM    H8T13117   4.335   3.034   3.258  1.7284 -1.3278 -1.1215
  124OSM    C9S13118   4.185   3.193   3.296 -0.4530 -0.1843 -0.0567
  124OSM    H9S13119   4.134   3.099   3.328  0.4532 -0.9647 -0.8593
  124OSM    H9T13120   4.113   3.255   3.237 -2.5450 -1.3797  1.1122
  124OSM   C10S13121   4.243   3.274   3.407  0.2033 -0.4482 -0.4988
  124OSM   H10S13122   4.288   3.367   3.366  1.1109 -2.7627 -5.6092
  124OSM   H10T13123   4.327   3.212   3.446  0.6299  0.4488  0.0256
  124OSM   C11S13124   4.144   3.286   3.531  0.2061  0.2338 -0.7925
  124OSM   H11S13125   4.099   3.186   3.549 -0.6418  0.4141 -1.8648
  124OSM   H11T13126   4.056   3.351   3.514 -0.4911 -0.5799 -0.4165
  124OSM   C12S13127   4.219   3.345   3.660 -0.1550  0.0420  0.0192
  124OSM   H12S13128   4.298   3.274   3.691 -1.6069 -2.9541 -2.5277
  124OSM   H12T13129   4.145   3.348   3.743  0.1367  0.6645  0.2610
  124OSM   C13S13130   4.274   3.491   3.658  0.5126  0.5423 -0.0565
  124OSM   H13S13131   4.191   3.548   3.611  0.2858  0.5788  0.3783
  124OSM   H13T13132   4.359   3.507   3.589 -0.4692  1.1211 -1.1744
  124OSM   C14S13133   4.316   3.550   3.790  0.0083 -0.2839  0.0768
  124OSM   H14S13134   4.398   3.487   3.832  0.0883  0.5986  1.3016
  124OSM   H14T13135   4.226   3.552   3.855 -0.0612 -0.1160 -0.0254
  124OSM   C15S13136   4.368   3.695   3.779  0.4166  0.7080  0.1118
  124OSM   H15S13137   4.296   3.771   3.743  0.9284  0.9373 -0.4458
  124OSM   H15T13138   4.458   3.706   3.714  0.4431  3.2562  0.4919
  124OSM   C16S13139   4.405   3.751   3.918  0.6318  0.4859 -0.1701
  124OSM   H16S13140   4.472   3.840   3.916  2.0169 -0.5445 -0.9558
  124OSM   H16T13141   4.464   3.679   3.978  2.6269  0.7109 -1.7559
  124OSM   C17S13142   4.286   3.792   4.005  0.5255 -0.5724 -0.3579
  124OSM   H17S13143   4.228   3.701   4.033  0.0822 -0.4657 -0.9001
  124OSM   H17T13144   4.221   3.855   3.940  0.3226  1.5319  1.7626
  124OSM   C18S13145   4.323   3.856   4.138 -0.2277 -0.4373 -0.3353
  124OSM   H18S13146   4.381   3.949   4.122 -2.5369  1.2696  0.6553
  124OSM   H18T13147   4.376   3.776   4.194 -2.0362 -1.0101  0.6330
  124OSM   H18U13148   4.233   3.884   4.197  0.5717 -1.5947  1.5103
  124OSM    C1F13149   3.997   2.853   2.625 -0.2963  0.6235  0.2241
  124OSM     OF13150   3.980   2.735   2.613 -0.3384 -0.9240 -0.0273
  124OSM    C2F13151   3.884   2.954   2.637 -0.8644  0.2268 -0.2611
  124OSM    H2F13152   3.836   2.970   2.538  0.2324 -1.3101 -1.0908
  124OSM    H2G13153   3.919   3.048   2.684  0.0291 -1.0338  1.7344
  124OSM    C3F13154   3.787   2.907   2.738  0.5184  0.5763 -0.6390
  124OSM    H3F13155   3.740   2.808   2.718  1.9748  0.1001 -1.9038
  124OSM    H3G13156   3.704   2.981   2.728 -0.1144 -0.3888 -4.5040
  124OSM    C4F13157   3.834   2.895   2.890  0.1232  0.8601  0.0311
  124OSM    H4F13158   3.894   2.984   2.921  0.4509  0.2030  1.3413
  124OSM    H4G13159   3.911   2.815   2.892 -1.2848 -0.5371  2.2581
  124OSM    C5F13160   3.716   2.877   2.984  0.3900 -0.2116  0.3328
  124OSM    H5F13161   3.657   2.789   2.950  0.0102 -0.0897  0.6552
  124OSM    H5G13162   3.654   2.970   2.981 -0.5167 -0.8145 -1.6516
  124OSM    C6F13163   3.769   2.846   3.123 -0.7230  0.4427  0.0906
  124OSM    H6F13164   3.846   2.766   3.114 -0.3091  0.6504  1.4534
  124OSM    H6G13165   3.683   2.804   3.179 -0.5862 -0.4412 -0.3468
  124OSM    C7F13166   3.832   2.970   3.186  0.3713  0.3041 -0.3337
  124OSM    H7F13167   3.753   3.048   3.172 -0.1722 -0.4011 -1.2842
  124OSM    H7G13168   3.919   2.995   3.122 -0.4860 -0.9686 -2.0741
  124OSM    C8F13169   3.864   2.950   3.342  0.1467  0.1867 -0.0746
  124OSM    H8F13170   3.946   3.022   3.364  0.5914 -0.1789 -0.5108
  124OSM    H8G13171   3.904   2.849   3.368  0.7425  0.5267  0.3733
  124OSM    C9F13172   3.738   2.957   3.417  0.5507  0.0547  0.2512
  124OSM    H9F13173   3.648   2.917   3.368  1.1286 -0.7720 -0.1638
  124OSM   C10F13174   3.723   3.013   3.536 -0.1697 -0.3238 -0.0123
  124OSM   H10F13175   3.622   3.019   3.580 -0.2417 -0.0332 -0.2194
  124OSM   C11F13176   3.825   3.081   3.622  0.4203  0.6585  0.1504
  124OSM   H11F13177   3.823   3.191   3.613  0.2597  0.6671  0.2791
  124OSM   H11G13178   3.921   3.041   3.583  0.9295  1.4727  0.5469
  124OSM   C12F13179   3.820   3.046   3.770 -0.0174 -0.1658  0.3157
  124OSM   H12F13180   3.808   2.936   3.782  1.1500 -0.2875  0.4322
  124OSM   H12G13181   3.728   3.089   3.816 -1.4684 -1.3066 -1.3767
  124OSM   C13F13182   3.946   3.080   3.843 -0.4455 -0.1823 -0.1052
  124OSM   H13F13183   3.970   3.188   3.832  1.4853 -0.3744  1.4861
  124OSM   H13G13184   4.023   3.011   3.801 -1.3271 -0.9453 -0.4947
  124OSM   C14F13185   3.938   3.067   4.000  0.0484  0.1890  0.3834
  124OSM   H14F13186   3.879   2.978   4.028 -1.9292  1.2993 -0.0296
  124OSM   H14G13187   3.878   3.154   4.035  0.2175  1.0365 -1.3131
  124OSM   C15F13188   4.080   3.067   4.063 -0.0428  0.6390 -0.0239
  124OSM   H15F13189   4.127   3.164   4.038  0.6613  0.4080  0.3845
  124OSM   H15G13190   4.148   2.988   4.024 -2.4887 -1.9396  0.5835
  124OSM   C16F13191   4.072   3.050   4.215  0.3939 -0.0071 -0.2243
  124OSM   H16F13192   4.030   2.955   4.255 -0.1806 -0.2936 -1.4832
  124OSM   H16G13193   4.015   3.133   4.264  0.1757  0.9715 -2.0312
  124OSM   C17F13194   4.221   3.064   4.269 -0.0743  1.1613  0.0832
  124OSM   H17F13195   4.210   3.097   4.375  2.8491  2.8988 -0.0366
  124OSM   H17G13196   4.277   3.147   4.220  0.3986  1.6732  1.4399
  124OSM   C18F13197   4.302   2.931   4.259  0.5416 -0.1227 -0.0904
  124OSM   H18F13198   4.326   2.901   4.154 -1.2061 -0.9623 -0.2865
  124OSM   H18G13199   4.245   2.847   4.305 -1.0658 -0.1435 -1.9558
  124OSM   H18H13200   4.397   2.946   4.314  0.0548 -1.9141  1.3279
  125OSM      N13201   5.953   6.438   2.052  0.2843 -0.3918 -0.3045
  125OSM    C1513202   5.880   6.378   1.938 -0.4630  0.4317  0.2677
  125OSM   H15A13203   5.871   6.273   1.962  0.7213  0.1639 -0.3746
  125OSM   H15B13204   5.928   6.386   1.842 -0.6756 -1.1242 -0.0003
  125OSM   H15C13205   5.780   6.414   1.922  0.0818  1.5682 -0.7624
  125OSM    C1413206   6.083   6.367   2.074  0.3947 -0.8354  0.4944
  125OSM   H14A13207   6.079   6.261   2.097  0.2712 -1.4275 -1.9555
  125OSM   H14B13208   6.141   6.415   2.152 -2.2496  4.0906 -0.1576
  125OSM   H14C13209   6.143   6.373   1.985 -1.7838  2.5255 -0.9446
  125OSM    C1313210   5.993   6.578   2.017  1.0120 -0.5317 -0.3350
  125OSM   H13A13211   5.910   6.646   2.005  0.4082 -0.8057  1.8652
  125OSM   H13B13212   6.047   6.579   1.923  1.3855 -0.0562 -0.1210
  125OSM   H13C13213   6.043   6.614   2.106 -0.7263  0.1109  0.4235
  125OSM    C1213214   5.872   6.439   2.182 -0.7050 -0.5911 -0.1288
  125OSM   H12A13215   5.791   6.509   2.172 -0.2591  0.0592  0.6480
  125OSM   H12B13216   5.945   6.469   2.257 -1.7529 -1.0636  1.1207
  125OSM    C1113217   5.802   6.310   2.231  0.1168 -0.1098 -0.4118
  125OSM   H11A13218   5.780   6.319   2.340  3.2828 -0.9348  0.4007
  125OSM   H11B13219   5.876   6.227   2.232  0.2121 -0.0308 -0.7272
  125OSM      P13220   5.542   6.353   2.170  0.4412 -0.0441 -0.1990
  125OSM    O1313221   5.579   6.493   2.127  0.1102  0.8189  0.4773
  125OSM    O1413222   5.431   6.278   2.099 -0.6350  0.4215  0.2555
  125OSM    O1113223   5.519   6.352   2.322 -0.2812  0.4021 -0.2591
  125OSM    O1213224   5.678   6.270   2.156 -0.0351 -0.5168  0.2419
  125OSM    C1S13225   5.388   6.366   2.386  0.2247 -1.0808 -0.2307
  125OSM    H1S13226   5.319   6.282   2.362  0.0451 -1.7151  2.1474
  125OSM    H1T13227   5.344   6.467   2.373  0.7643 -0.6003  1.3370
  125OSM     NF13228   5.283   6.391   2.601  0.9058  0.3769 -1.2128
  125OSM    HNF13229   5.267   6.482   2.639 -1.4178 -1.2519  2.1644
  125OSM    C2S13230   5.412   6.363   2.542  0.0939 -0.0138 -0.5067
  125OSM    H2S13231   5.449   6.263   2.571 -1.0743  0.4517  3.0328
  125OSM    C3S13232   5.527   6.472   2.575 -0.0514 -0.2233  0.6582
  125OSM    H3S13233   5.496   6.567   2.526 -1.7621 -0.2420  1.6131
  125OSM     O313234   5.650   6.441   2.522  0.2573 -0.1324  0.0067
  125OSM    HO313235   5.629   6.398   2.439 -2.6759  0.5032  0.3060
  125OSM    C4S13236   5.561   6.505   2.720  0.1030  0.5537  0.0334
  125OSM    H4S13237   5.646   6.444   2.755 -0.8861 -0.6381  0.4253
  125OSM    C5S13238   5.523   6.616   2.787 -0.3346  1.0744  0.2648
  125OSM    H5S13239   5.469   6.691   2.728 -0.7484  0.8086  0.3021
  125OSM    C6S13240   5.565   6.666   2.926  0.9090  0.3336  0.2980
  125OSM    H6S13241   5.609   6.768   2.918  1.5257  0.0850  0.4413
  125OSM    H6T13242   5.642   6.599   2.970 -0.8566 -0.4297  2.3910
  125OSM    C7S13243   5.443   6.663   3.029  0.5108  0.7227 -0.5376
  125OSM    H7S13244   5.408   6.559   3.041  0.3853  0.8073 -0.1640
  125OSM    H7T13245   5.363   6.732   2.996 -0.0652  0.3085 -0.0202
  125OSM    C8S13246   5.483   6.697   3.169  0.3421  0.1767  0.0518
  125OSM    H8S13247   5.490   6.807   3.186  0.5037 -0.0594  1.7285
  125OSM    H8T13248   5.584   6.658   3.192  0.1492  0.3297  1.2146
  125OSM    C9S13249   5.375   6.641   3.265 -0.6137 -0.8538  0.1211
  125OSM    H9S13250   5.360   6.533   3.247 -0.0524 -0.8676 -0.3078
  125OSM    H9T13251   5.281   6.697   3.246 -0.1625 -0.1289 -0.0159
  125OSM   C10S13252   5.427   6.665   3.410  0.1097 -0.0641 -0.3349
  125OSM   H10S13253   5.435   6.775   3.418 -1.8803  0.5707 -4.4598
  125OSM   H10T13254   5.527   6.616   3.418  0.2647  0.4283  0.9549
  125OSM   C11S13255   5.327   6.599   3.509 -1.7607  0.0825 -0.0735
  125OSM   H11S13256   5.340   6.489   3.502  1.7368  0.2957  1.0848
  125OSM   H11T13257   5.224   6.626   3.477 -1.5936 -0.0364 -0.7204
  125OSM   C12S13258   5.357   6.647   3.652  0.4498 -0.7494 -0.1565
  125OSM   H12S13259   5.359   6.758   3.654 -2.1725 -0.6257 -1.0756
  125OSM   H12T13260   5.449   6.590   3.679  0.3324 -1.5372 -1.3528
  125OSM   C13S13261   5.244   6.605   3.749 -0.4783  0.2728 -1.1170
  125OSM   H13S13262   5.203   6.503   3.732  0.1687 -0.5820  1.9196
  125OSM   H13T13263   5.150   6.662   3.735 -1.0547 -0.2899  0.2896
  125OSM   C14S13264   5.303   6.600   3.900 -0.2617 -0.3885 -0.2919
  125OSM   H14S13265   5.351   6.699   3.919  1.1889 -1.2106  0.4812
  125OSM   H14T13266   5.378   6.519   3.911  0.6806  0.4747 -0.2255
  125OSM   C15S13267   5.196   6.584   4.009  0.6983  0.6943  0.2634
  125OSM   H15S13268   5.244   6.632   4.097 -0.6655  0.9578  0.9010
  125OSM   H15T13269   5.187   6.474   4.025 -0.4176  0.8980  1.2123
  125OSM   C16S13270   5.060   6.653   3.988  0.4862  0.3278  0.4798
  125OSM   H16S13271   5.006   6.607   3.902  2.0925  0.3556 -0.5870
  125OSM   H16T13272   5.082   6.760   3.971 -0.1119  0.6588  1.7002
  125OSM   C17S13273   4.972   6.638   4.111 -0.5164 -0.3101  0.0210
  125OSM   H17S13274   5.032   6.667   4.199 -0.4810  0.7559 -0.3452
  125OSM   H17T13275   4.946   6.530   4.121  0.2948 -0.2688  6.5388
  125OSM   C18S13276   4.846   6.728   4.100  0.3512 -0.0691  0.1917
  125OSM   H18S13277   4.826   6.772   4.200 -1.1974  2.6902 -1.2186
  125OSM   H18T13278   4.759   6.669   4.066 -1.1697  2.0787  0.1305
  125OSM   H18U13279   4.864   6.818   4.038  0.0569  0.9113  1.4773
  125OSM    C1F13280   5.197   6.289   2.619 -0.0235  0.1727  0.2915
  125OSM     OF13281   5.214   6.190   2.552 -0.3496 -0.0603  0.4242
  125OSM    C2F13282   5.092   6.305   2.719  0.0437  0.2998  0.3581
  125OSM    H2F13283   5.056   6.410   2.711 -0.6204  0.1404  1.1506
  125OSM    H2G13284   5.133   6.281   2.819  0.5584 -1.2469 -0.1953
  125OSM    C3F13285   4.967   6.219   2.699 -0.5767  0.4114  0.1635
  125OSM    H3F13286   5.011   6.119   2.718  0.2123  0.7202 -0.0301
  125OSM    H3G13287   4.935   6.210   2.593  2.5395 -0.2459 -0.8158
  125OSM    C4F13288   4.847   6.266   2.788 -0.0496 -0.3024 -0.1038
  125OSM    H4F13289   4.831   6.375   2.772  1.2071 -0.1334 -0.3174
  125OSM    H4G13290   4.877   6.255   2.894 -0.2844  2.1998  0.2979
  125OSM    C5F13291   4.722   6.195   2.746  0.3011 -0.2490 -0.1838
  125OSM    H5F13292   4.739   6.086   2.759  1.4909 -0.2360 -1.4251
  125OSM    H5G13293   4.698   6.204   2.638  0.9026  2.4453 -0.1540
  125OSM    C6F13294   4.602   6.239   2.835  0.7845 -1.1397  0.5122
  125OSM    H6F13295   4.526   6.159   2.823 -2.9161  2.1321  0.0523
  125OSM    H6G13296   4.551   6.323   2.784 -0.4503 -1.6301  0.9043
  125OSM    C7F13297   4.627   6.273   2.979 -0.0542  0.2709  0.0549
  125OSM    H7F13298   4.700   6.357   2.987 -0.2185  0.3354  1.0967
  125OSM    H7G13299   4.691   6.191   3.019 -1.1157 -2.0751 -2.7238
  125OSM    C8F13300   4.502   6.306   3.063 -0.4016 -0.0787 -0.4488
  125OSM    H8F13301   4.439   6.382   3.012  1.0387  1.2804 -0.2622
  125OSM    H8G13302   4.538   6.348   3.159 -1.5839 -0.8543  0.3606
  125OSM    C9F13303   4.427   6.176   3.084 -0.0982  0.2799  0.6817
  125OSM    H9F13304   4.383   6.140   2.990  1.4115  1.1315 -0.4006
  125OSM   C10F13305   4.449   6.093   3.187 -0.6142  0.0639  1.4050
  125OSM   H10F13306   4.395   5.997   3.182  0.1079 -0.3089 -2.4764
  125OSM   C11F13307   4.523   6.118   3.311 -0.5570 -0.3525 -0.1170
  125OSM   H11F13308   4.590   6.205   3.297 -1.2081  0.5806  2.0484
  125OSM   H11G13309   4.584   6.031   3.343 -0.7736 -0.5582 -0.2629
  125OSM   C12F13310   4.436   6.124   3.436  0.0483  0.4218  0.2014
  125OSM   H12F13311   4.378   6.030   3.447  0.5250  0.1491  0.4153
  125OSM   H12G13312   4.371   6.214   3.429 -1.1421 -0.5042 -1.2484
  125OSM   C13F13313   4.510   6.139   3.572  0.2340  0.7251 -0.1354
  125OSM   H13F13314   4.588   6.219   3.565  1.5292 -0.5276 -0.4006
  125OSM   H13G13315   4.570   6.051   3.603 -1.8165 -0.5760  0.2524
  125OSM   C14F13316   4.408   6.169   3.686 -0.6606 -0.3874  0.6149
  125OSM   H14F13317   4.350   6.076   3.703  0.1965 -1.2146 -0.8270
  125OSM   H14G13318   4.351   6.260   3.658 -0.2675 -0.6563 -1.1605
  125OSM   C15F13319   4.490   6.206   3.816 -0.3365  0.6218  0.7516
  125OSM   H15F13320   4.550   6.298   3.794 -0.0678  0.5434  1.1405
  125OSM   H15G13321   4.554   6.119   3.843 -1.9409 -0.4164  1.3518
  125OSM   C16F13322   4.402   6.230   3.938 -0.1367  0.3862 -0.0148
  125OSM   H16F13323   4.351   6.138   3.972 -2.2149  1.7553  0.6964
  125OSM   H16G13324   4.322   6.304   3.916  0.4357  0.3270 -2.6698
  125OSM   C17F13325   4.486   6.280   4.060  0.2950  0.3483  0.3795
  125OSM   H17F13326   4.534   6.377   4.036  1.6658 -0.4139 -0.0605
  125OSM   H17G13327   4.563   6.200   4.060 -0.5925 -0.5772 -1.6063
  125OSM   C18F13328   4.414   6.280   4.195 -0.2103  0.0203 -0.5755
  125OSM   H18F13329   4.357   6.373   4.215 -0.3681 -0.3916  0.9715
  125OSM   H18G13330   4.483   6.267   4.281  1.4466 -0.2612 -1.8657
  125OSM   H18H13331   4.341   6.196   4.197  1.2030 -1.2408  1.3854
  126OSM      N13332   3.634   0.620   2.216 -0.1376  0.5020  0.2129
  126OSM    C1513333   3.571   0.734   2.278  0.9502  0.8129 -0.7004
  126OSM   H15A13334   3.593   0.742   2.383 -0.7081  1.5741 -0.3906
  126OSM   H15B13335   3.465   0.730   2.258  1.0720  1.4951 -1.5257
  126OSM   H15C13336   3.614   0.828   2.246 -0.6271  2.1606  0.9489
  126OSM    C1413337   3.780   0.616   2.244  0.5400 -0.2912  0.1925
  126OSM   H14A13338   3.829   0.532   2.197 -1.1788 -0.1708 -2.0245
  126OSM   H14B13339   3.799   0.610   2.350 -1.6507 -1.0392  0.5940
  126OSM   H14C13340   3.827   0.703   2.201 -0.0558  1.7572  3.3417
  126OSM    C1313341   3.574   0.494   2.268  1.0471  0.2008 -0.1707
  126OSM   H13A13342   3.466   0.490   2.266  1.0520  0.3214 -0.7782
  126OSM   H13B13343   3.604   0.461   2.366  0.1206 -2.5878 -0.7289
  126OSM   H13C13344   3.606   0.418   2.198 -0.0749  0.4071 -0.9393
  126OSM    C1213345   3.612   0.615   2.065  0.5941  0.4217 -0.5322
  126OSM   H12A13346   3.671   0.535   2.024  0.6814  0.2620 -0.1043
  126OSM   H12B13347   3.643   0.710   2.026 -0.2389  0.4936 -1.0441
  126OSM    C1113348   3.464   0.606   2.019  0.0640  0.5240 -0.6793
  126OSM   H11A13349   3.415   0.514   2.059 -0.7500  0.2862 -2.1545
  126OSM   H11B13350   3.464   0.596   1.909 -0.7736 -0.4348 -0.6109
  126OSM      P13351   3.387   0.857   1.962  0.0470 -0.1590  0.1919
  126OSM    O1313352   3.507   0.857   1.874 -0.0699 -0.6016  0.1688
  126OSM    O1413353   3.253   0.875   1.896  0.1389 -0.7965  0.2070
  126OSM    O1113354   3.405   0.977   2.069  0.4272 -0.4276 -0.2068
  126OSM    O1213355   3.394   0.728   2.061  0.1552 -0.4027  0.4314
  126OSM    C1S13356   3.319   0.986   2.178 -0.6791 -0.1518  0.1746
  126OSM    H1S13357   3.314   0.887   2.230 -1.2696 -2.1906 -3.4168
  126OSM    H1T13358   3.216   1.003   2.139  0.0917  2.1288 -1.0423
  126OSM     NF13359   3.242   1.093   2.390 -0.3967 -0.0447  0.1587
  126OSM    HNF13360   3.162   1.151   2.374 -0.1815  0.0775 -0.5275
  126OSM    C2S13361   3.347   1.096   2.284  0.3717  0.0862 -0.7267
  126OSM    H2S13362   3.438   1.060   2.337 -0.4828 -0.4148  0.4502
  126OSM    C3S13363   3.372   1.236   2.226 -0.4793 -0.2362 -0.5730
  126OSM    H3S13364   3.282   1.264   2.167 -0.2359 -1.9845 -1.8290
  126OSM     O313365   3.462   1.234   2.114 -0.1690  0.1960 -0.0503
  126OSM    HO313366   3.445   1.147   2.075 -2.8300  0.4188  0.4180
  126OSM    C4S13367   3.402   1.353   2.318 -0.5003  0.2448  0.1664
  126OSM    H4S13368   3.318   1.419   2.344 -1.2331 -0.4726 -0.3303
  126OSM    C5S13369   3.523   1.382   2.366  0.5137 -0.7252 -0.0042
  126OSM    H5S13370   3.609   1.320   2.335  1.2003 -0.2526  0.8936
  126OSM    C6S13371   3.550   1.481   2.479  0.1038 -0.4995  0.2247
  126OSM    H6S13372   3.461   1.544   2.499  1.2403  1.2744 -0.0740
  126OSM    H6T13373   3.623   1.556   2.439  1.7427 -1.4829  1.2496
  126OSM    C7S13374   3.610   1.412   2.599  0.0188 -0.6166 -0.3827
  126OSM    H7S13375   3.699   1.359   2.558  1.1064  1.4841 -0.8735
  126OSM    H7T13376   3.539   1.339   2.642 -2.8341  1.8474 -0.6290
  126OSM    C8S13377   3.647   1.516   2.712  0.0222  0.3886 -0.2853
  126OSM    H8S13378   3.562   1.588   2.720  0.4255  0.7700  0.7356
  126OSM    H8T13379   3.743   1.570   2.698 -0.7856  1.2573 -3.1088
  126OSM    C9S13380   3.670   1.428   2.842  0.2295 -0.0433 -0.1418
  126OSM    H9S13381   3.747   1.349   2.831  0.1906 -0.2437  0.8600
  126OSM    H9T13382   3.566   1.396   2.864 -0.0731  1.3368  0.5066
  126OSM   C10S13383   3.717   1.516   2.965 -0.0776  0.2474  0.9976
  126OSM   H10S13384   3.649   1.604   2.965  0.9887  1.1333 -0.8262
  126OSM   H10T13385   3.824   1.540   2.949  0.0993 -0.7569  0.6168
  126OSM   C11S13386   3.700   1.439   3.099 -0.2558  0.1284  0.2520
  126OSM   H11S13387   3.742   1.336   3.094 -3.9202 -1.4772 -1.3456
  126OSM   H11T13388   3.591   1.425   3.109 -0.3296  1.4826  1.7232
  126OSM   C12S13389   3.760   1.514   3.213  0.0250 -0.9176  0.6437
  126OSM   H12S13390   3.730   1.621   3.216  0.1898 -0.8366 -0.1734
  126OSM   H12T13391   3.868   1.523   3.186  0.1918 -0.0776  1.5244
  126OSM   C13S13392   3.755   1.443   3.347 -0.3485 -0.0728  0.4103
  126OSM   H13S13393   3.789   1.337   3.338 -0.6906 -0.1779  0.3581
  126OSM   H13T13394   3.649   1.440   3.379 -0.7047 -0.3498 -0.7668
  126OSM   C14S13395   3.827   1.515   3.465 -0.5056 -0.0327 -0.1468
  126OSM   H14S13396   3.777   1.613   3.483 -1.9437 -0.9124  0.9336
  126OSM   H14T13397   3.928   1.542   3.428  0.4010 -2.3327  0.4503
  126OSM   C15S13398   3.826   1.431   3.595  0.0156 -0.1689  0.5648
  126OSM   H15S13399   3.899   1.350   3.569 -0.9787 -1.1159  0.6491
  126OSM   H15T13400   3.726   1.391   3.622 -1.0034  0.8434 -1.5145
  126OSM   C16S13401   3.884   1.516   3.710  0.3210  0.1728 -0.0049
  126OSM   H16S13402   3.977   1.575   3.690  1.0115  0.1951  2.8368
  126OSM   H16T13403   3.920   1.450   3.792  1.4857  0.2284 -0.4385
  126OSM   C17S13404   3.778   1.607   3.787 -0.1309  0.1891 -0.0643
  126OSM   H17S13405   3.688   1.545   3.806  0.8552 -1.0075  0.7751
  126OSM   H17T13406   3.756   1.696   3.723 -0.9139  1.2877  1.6635
  126OSM   C18S13407   3.827   1.651   3.922 -0.8616  0.0169 -0.0778
  126OSM   H18S13408   3.752   1.708   3.981  0.4773  0.2548  1.4656
  126OSM   H18T13409   3.915   1.718   3.912  0.5649 -1.8367 -0.5670
  126OSM   H18U13410   3.858   1.569   3.990  0.8266 -1.1161 -2.1013
  126OSM    C1F13411   3.226   0.987   2.466 -0.5085  0.7324 -0.1867
  126OSM     OF13412   3.315   0.903   2.467  0.9548  0.6593 -0.2386
  126OSM    C2F13413   3.089   0.975   2.533  0.3471  0.0383  0.8501
  126OSM    H2F13414   3.024   0.911   2.469 -0.7771  0.8470  1.1495
  126OSM    H2G13415   3.042   1.076   2.534  0.9696  0.3479  0.1028
  126OSM    C3F13416   3.105   0.942   2.680  0.3847 -0.3501 -0.2707
  126OSM    H3F13417   3.176   1.004   2.739  0.9458 -0.4875 -0.7922
  126OSM    H3G13418   3.137   0.836   2.676  1.9992  0.1325 -1.4572
  126OSM    C4F13419   2.967   0.961   2.752 -0.0337  0.3705  0.8456
  126OSM    H4F13420   2.893   0.920   2.680  1.4624  1.5091 -1.4531
  126OSM    H4G13421   2.944   1.069   2.751 -0.9701  0.1948  1.8560
  126OSM    C5F13422   2.959   0.910   2.895  0.3380  0.3727 -0.3664
  126OSM    H5F13423   3.047   0.842   2.893  0.9625  1.1398 -2.6719
  126OSM    H5G13424   2.865   0.856   2.915 -1.0230  1.2230 -3.6837
  126OSM    C6F13425   2.972   1.020   2.997  0.4144 -0.2059 -0.3587
  126OSM    H6F13426   2.882   1.086   2.991  0.0857 -0.7573 -1.8682
  126OSM    H6G13427   3.068   1.069   2.970  0.2240 -1.4267 -3.8449
  126OSM    C7F13428   2.981   0.960   3.139  0.9679  0.4826  0.3850
  126OSM    H7F13429   3.045   0.869   3.133 -0.1144 -0.2436 -0.5462
  126OSM    H7G13430   2.877   0.934   3.168  0.7324  1.5428  0.5352
  126OSM    C8F13431   3.048   1.044   3.250  0.4649 -0.1299  0.0592
  126OSM    H8F13432   3.149   1.068   3.211 -0.0466  1.0283 -0.6214
  126OSM    H8G13433   3.053   0.969   3.332 -0.3529 -2.5709 -1.9895
  126OSM    C9F13434   2.979   1.170   3.303  0.1140 -0.7903 -0.6209
  126OSM    H9F13435   2.904   1.203   3.230 -2.3355 -0.5073  1.8416
  126OSM   C10F13436   2.988   1.231   3.424 -0.7805  0.6971 -0.6037
  126OSM   H10F13437   2.936   1.325   3.448 -1.1953  0.5058 -0.7353
  126OSM   C11F13438   3.081   1.175   3.532  0.2207  1.1643 -0.9221
  126OSM   H11F13439   3.185   1.212   3.516  1.3837 -0.1226  2.6396
  126OSM   H11G13440   3.101   1.066   3.520  1.9797  1.6799 -3.4929
  126OSM   C12F13441   3.019   1.189   3.671  0.0931  0.3918  0.1208
  126OSM   H12F13442   2.932   1.121   3.683  1.6835 -1.7145  0.2919
  126OSM   H12G13443   2.981   1.293   3.681 -2.1404 -0.4590  1.0569
  126OSM   C13F13444   3.120   1.152   3.773 -0.0035  0.3945 -0.6254
  126OSM   H13F13445   3.220   1.190   3.743  0.2259 -0.9563 -1.6980
  126OSM   H13G13446   3.134   1.042   3.773  2.7760  0.6725 -0.2756
  126OSM   C14F13447   3.089   1.187   3.919  0.0468 -0.2716  0.0574
  126OSM   H14F13448   3.098   1.295   3.945  0.9666 -0.1945 -0.5379
  126OSM   H14G13449   3.157   1.139   3.993 -0.7526 -1.7801 -0.1485
  126OSM   C15F13450   2.948   1.143   3.957 -0.3894  0.1848  0.8146
  126OSM   H15F13451   2.914   1.044   3.919 -1.7161 -0.0896  2.5551
  126OSM   H15G13452   2.884   1.213   3.900 -0.2913  0.8713  1.5325
  126OSM   C16F13453   2.912   1.156   4.104 -0.4999 -0.0657  0.1254
  126OSM   H16F13454   2.926   1.262   4.133  1.0650  0.1237 -1.1450
  126OSM   H16G13455   2.985   1.094   4.160 -3.5639 -0.3003  4.2852
  126OSM   C17F13456   2.783   1.087   4.135 -0.1057 -0.8484  0.4331
  126OSM   H17F13457   2.781   1.048   4.239 -2.1222  0.5598  0.9756
  126OSM   H17G13458   2.782   0.998   4.068  1.9295  0.6528 -1.7647
  126OSM   C18F13459   2.656   1.168   4.107  0.3894  0.1662  0.1331
  126OSM   H18F13460   2.684   1.238   4.026  0.7366  1.4336  1.3168
  126OSM   H18G13461   2.623   1.232   4.192 -0.1981  0.3152 -0.2023
  126OSM   H18H13462   2.567   1.108   4.081  0.3820  0.4870 -0.5958
  127OSM      N13463   3.902   3.458   2.184  0.3784 -0.3873  0.2053
  127OSM    C1513464   3.883   3.331   2.251 -0.6503 -0.3211  0.6384
  127OSM   H15A13465   3.974   3.303   2.302 -0.6398 -3.9812 -1.0077
  127OSM   H15B13466   3.874   3.254   2.175  0.3919  0.9448 -0.8265
  127OSM   H15C13467   3.806   3.340   2.326 -0.3123  0.2359  0.9211
  127OSM    C1413468   3.929   3.550   2.296  0.2792  0.1258  0.6697
  127OSM   H14A13469   3.943   3.654   2.272  0.4691  0.3565  1.7381
  127OSM   H14B13470   4.019   3.514   2.343  2.7240  0.5794 -3.2412
  127OSM   H14C13471   3.849   3.553   2.368 -0.3834 -2.3563  0.1500
  127OSM    C1313472   4.012   3.447   2.082  0.0966  0.2538 -0.2433
  127OSM   H13A13473   4.103   3.428   2.137  0.4500 -2.1328 -1.4941
  127OSM   H13B13474   4.032   3.540   2.030  0.5038  1.4077  1.8785
  127OSM   H13C13475   4.002   3.371   2.006 -0.0103  0.9971 -0.9924
  127OSM    C1213476   3.767   3.503   2.120 -0.4297 -0.3047 -0.1347
  127OSM   H12A13477   3.760   3.469   2.018  2.2231  4.0649 -2.0876
  127OSM   H12B13478   3.766   3.611   2.120  0.9885 -0.2737 -0.9950
  127OSM    C1113479   3.637   3.462   2.188  0.0475 -0.1955  0.1055
  127OSM   H11A13480   3.638   3.482   2.297 -0.9505  1.1804 -0.1203
  127OSM   H11B13481   3.635   3.352   2.172 -0.0948 -0.1319 -0.3166
  127OSM      P13482   3.476   3.663   2.127 -0.6149  0.2925  0.2523
  127OSM    O1313483   3.596   3.748   2.116 -0.0150 -0.0569 -0.1429
  127OSM    O1413484   3.381   3.669   2.017  0.5166  0.2442  0.3258
  127OSM    O1113485   3.403   3.681   2.258  0.0047  0.2581  0.1902
  127OSM    O1213486   3.527   3.514   2.116 -0.4806 -0.3047 -0.2825
  127OSM    C1S13487   3.353   3.578   2.343  0.0490 -0.1742  0.5912
  127OSM    H1S13488   3.423   3.492   2.342  0.9432  0.5337 -0.8659
  127OSM    H1T13489   3.254   3.555   2.299  0.6594  1.7274 -2.0079
  127OSM     NF13490   3.299   3.506   2.568 -0.3151  0.0004  0.3891
  127OSM    HNF13491   3.210   3.509   2.612  0.6087  3.8395  2.4003
  127OSM    C2S13492   3.329   3.622   2.489 -0.7026 -0.0731  0.0798
  127OSM    H2S13493   3.428   3.656   2.526  0.3412 -2.5528 -0.2505
  127OSM    C3S13494   3.222   3.734   2.498 -0.1506 -0.6323 -0.1413
  127OSM    H3S13495   3.124   3.701   2.457 -0.5398  3.5755 -3.1824
  127OSM     O313496   3.250   3.841   2.412 -0.0880 -0.0155 -0.0521
  127OSM    HO313497   3.306   3.799   2.347  0.1394  0.5284 -0.2108
  127OSM    C4S13498   3.204   3.781   2.639  0.3724  0.3227  0.1453
  127OSM    H4S13499   3.296   3.791   2.699  0.4367  1.8993 -0.1817
  127OSM    C5S13500   3.091   3.798   2.700  0.2490  0.1559 -0.5557
  127OSM    H5S13501   2.999   3.782   2.642 -1.2134 -2.1085  2.0795
  127OSM    C6S13502   3.068   3.841   2.848  0.1714  1.1133  0.6755
  127OSM    H6S13503   3.032   3.946   2.854 -0.9217  0.7363  0.8715
  127OSM    H6T13504   3.162   3.841   2.908  1.6652  0.9800 -1.5197
  127OSM    C7S13505   2.961   3.756   2.928  0.2489  0.3140  0.6126
  127OSM    H7S13506   3.000   3.658   2.963 -0.0232  0.7799  2.3505
  127OSM    H7T13507   2.879   3.723   2.862  0.6803  0.3730  0.0391
  127OSM    C8S13508   2.898   3.824   3.055  0.2041 -0.2352  0.2736
  127OSM    H8S13509   2.842   3.918   3.034 -1.2040 -1.0187  0.4433
  127OSM    H8T13510   2.982   3.864   3.117  1.5865 -1.0098 -1.0225
  127OSM    C9S13511   2.806   3.726   3.132  0.3962 -0.3949  0.2408
  127OSM    H9S13512   2.869   3.657   3.191 -1.3495 -1.1069  1.3538
  127OSM    H9T13513   2.746   3.672   3.056  1.1130 -0.6131 -0.1775
  127OSM   C10S13514   2.707   3.794   3.232 -0.0703 -0.3855 -0.1073
  127OSM   H10S13515   2.622   3.725   3.249 -1.0170  1.2512  2.4343
  127OSM   H10T13516   2.672   3.892   3.192 -0.8815 -0.2994  0.7751
  127OSM   C11S13517   2.786   3.818   3.362  0.9337  0.5277  0.1160
  127OSM   H11S13518   2.730   3.892   3.423 -0.4049  1.9088 -2.5888
  127OSM   H11T13519   2.887   3.859   3.344  1.2148  1.1049  2.6185
  127OSM   C12S13520   2.781   3.691   3.452  0.1528 -0.2920  0.5636
  127OSM   H12S13521   2.829   3.607   3.397  0.8570  0.7846 -0.5063
  127OSM   H12T13522   2.673   3.670   3.471  0.4116 -2.3170  0.1023
  127OSM   C13S13523   2.859   3.706   3.584  0.0741  0.5957  0.2664
  127OSM   H13S13524   2.813   3.783   3.649 -0.6657  0.3336  0.0676
  127OSM   H13T13525   2.966   3.728   3.563 -0.2794 -0.1440 -2.7374
  127OSM   C14S13526   2.884   3.579   3.667 -0.4437  0.2356 -0.4351
  127OSM   H14S13527   2.946   3.503   3.615 -3.2156 -1.0610 -2.0899
  127OSM   H14T13528   2.787   3.529   3.684 -0.1131 -1.0413 -2.0643
  127OSM   C15S13529   2.942   3.617   3.801  0.2064  0.5948  0.0008
  127OSM   H15S13530   2.865   3.687   3.840 -2.5301 -1.6520 -1.0745
  127OSM   H15T13531   3.039   3.671   3.793  0.7138  0.1188  2.1621
  127OSM   C16S13532   2.974   3.502   3.894 -0.0142 -0.4024  0.0591
  127OSM   H16S13533   3.037   3.427   3.841 -0.9867 -0.7894 -0.5781
  127OSM   H16T13534   2.883   3.445   3.923  0.8811 -2.1080 -0.3267
  127OSM   C17S13535   3.038   3.551   4.031 -0.3321 -0.2508  0.3049
  127OSM   H17S13536   2.965   3.625   4.070  1.5157  0.8560  1.8300
  127OSM   H17T13537   3.125   3.619   4.015 -2.0957  1.9366 -0.4507
  127OSM   C18S13538   3.057   3.445   4.135 -0.9006  0.1755 -0.1519
  127OSM   H18S13539   3.112   3.481   4.225  1.2883 -3.0781 -0.0058
  127OSM   H18T13540   3.124   3.364   4.098 -1.5170 -1.5685  2.2523
  127OSM   H18U13541   2.958   3.397   4.151 -1.4830  1.1973 -0.6001
  127OSM    C1F13542   3.390   3.402   2.593  0.2509 -0.6072  0.1155
  127OSM     OF13543   3.510   3.421   2.570 -0.1159 -0.3652 -0.7546
  127OSM    C2F13544   3.347   3.281   2.652  0.1637 -0.4273 -0.0531
  127OSM    H2F13545   3.390   3.197   2.593  2.1513  2.1529 -2.5906
  127OSM    H2G13546   3.236   3.272   2.648 -0.0223 -0.1772  2.5783
  127OSM    C3F13547   3.390   3.269   2.800  0.4488 -0.1209  0.5355
  127OSM    H3F13548   3.499   3.290   2.811  0.0275  1.3708  2.4061
  127OSM    H3G13549   3.372   3.164   2.832 -0.3569 -0.1678 -0.0453
  127OSM    C4F13550   3.306   3.351   2.895 -0.0176 -0.3868  0.5782
  127OSM    H4F13551   3.232   3.283   2.941  0.1323 -1.4540 -0.6946
  127OSM    H4G13552   3.253   3.434   2.843  2.7203  0.7708 -0.5716
  127OSM    C5F13553   3.403   3.416   3.000  0.3586  0.0322  0.6887
  127OSM    H5F13554   3.461   3.496   2.950  0.9733 -0.9315 -0.1900
  127OSM    H5G13555   3.473   3.338   3.037  1.0404 -0.0933 -0.7895
  127OSM    C6F13556   3.341   3.467   3.127  0.1419  0.2681  0.3533
  127OSM    H6F13557   3.414   3.507   3.201  0.0765 -0.8626  1.0567
  127OSM    H6G13558   3.279   3.386   3.170 -0.8320  0.6286 -0.3437
  127OSM    C7F13559   3.256   3.582   3.094 -0.0005  0.0664  0.4625
  127OSM    H7F13560   3.160   3.552   3.048  2.2315 -2.6134 -2.9002
  127OSM    H7G13561   3.304   3.660   3.031  0.2259 -0.3929  0.0614
  127OSM    C8F13562   3.229   3.656   3.226  0.3408 -0.4864 -0.5240
  127OSM    H8F13563   3.173   3.749   3.203  0.2789 -0.6493 -1.0420
  127OSM    H8G13564   3.333   3.683   3.253  0.8324 -2.5729 -0.1427
  127OSM    C9F13565   3.160   3.587   3.339  0.5317 -0.0250  0.1715
  127OSM    H9F13566   3.071   3.527   3.318 -0.7269  1.6858  0.3951
  127OSM   C10F13567   3.202   3.590   3.464  0.2375  0.1395 -0.1229
  127OSM   H10F13568   3.143   3.538   3.541  1.5186  1.0533  1.5322
  127OSM   C11F13569   3.312   3.674   3.526 -0.4689  0.1479  0.2379
  127OSM   H11F13570   3.342   3.768   3.474  0.7709 -0.2528  0.1792
  127OSM   H11G13571   3.411   3.624   3.526  0.3627  1.7090 -0.2674
  127OSM   C12F13572   3.285   3.690   3.672 -0.1603  0.8145 -0.8373
  127OSM   H12F13573   3.267   3.593   3.723  0.9123  1.3899  0.6929
  127OSM   H12G13574   3.195   3.755   3.672  0.0911  1.1682 -0.9765
  127OSM   C13F13575   3.401   3.756   3.754 -0.0944  0.0139  0.5399
  127OSM   H13F13576   3.427   3.856   3.711  0.2122 -0.3716 -0.1840
  127OSM   H13G13577   3.494   3.697   3.743 -0.3563 -0.1231 -1.1195
  127OSM   C14F13578   3.362   3.747   3.901 -0.5620 -0.0693  0.3568
  127OSM   H14F13579   3.379   3.643   3.936 -1.2716  0.1385  1.3623
  127OSM   H14G13580   3.253   3.762   3.917 -0.1849  0.2216  3.3239
  127OSM   C15F13581   3.449   3.840   3.996 -0.3476 -0.0111 -0.2535
  127OSM   H15F13582   3.465   3.936   3.942 -0.1214 -0.3339 -0.7660
  127OSM   H15G13583   3.544   3.782   3.997  1.7961  3.1989  1.2548
  127OSM   C16F13584   3.391   3.867   4.142  0.3267  0.6441 -0.0619
  127OSM   H16F13585   3.282   3.886   4.134  0.0813  0.5689  2.3882
  127OSM   H16G13586   3.431   3.960   4.189  0.6397 -0.2702  1.5818
  127OSM   C17F13587   3.442   3.745   4.230 -0.3454  0.4338 -0.4271
  127OSM   H17F13588   3.552   3.729   4.221 -0.5425 -1.6781  0.2369
  127OSM   H17G13589   3.398   3.651   4.191  0.5112  0.6339 -1.9933
  127OSM   C18F13590   3.426   3.769   4.379  0.7634 -0.4713 -0.3352
  127OSM   H18F13591   3.323   3.804   4.401  1.1945  0.6092  0.0235
  127OSM   H18G13592   3.493   3.849   4.417 -1.3307  1.0418  0.3605
  127OSM   H18H13593   3.458   3.682   4.440  3.0558 -1.2608 -2.4893
  128OSM      N13594   1.650   1.239   2.070 -0.4193 -0.2010 -0.5677
  128OSM    C1513595   1.533   1.245   2.168  0.2266 -0.6749  0.3940
  128OSM   H15A13596   1.499   1.345   2.192 -1.2225 -1.3111  1.1050
  128OSM   H15B13597   1.557   1.202   2.264  1.2963  0.0247  0.4561
  128OSM   H15C13598   1.456   1.182   2.127  0.3222 -0.7841  0.3829
  128OSM    C1413599   1.610   1.312   1.944  0.0608  0.2361  0.3366
  128OSM   H14A13600   1.685   1.322   1.867 -1.4296  0.6926 -1.1242
  128OSM   H14B13601   1.590   1.411   1.982  1.5750  0.0533  1.7358
  128OSM   H14C13602   1.517   1.274   1.903 -0.3139  0.5082  0.9105
  128OSM    C1313603   1.771   1.308   2.129 -1.0918  0.1134  0.3576
  128OSM   H13A13604   1.761   1.415   2.121  2.8466  0.7401  1.4716
  128OSM   H13B13605   1.860   1.286   2.071 -0.1416 -0.9030  2.1101
  128OSM   H13C13606   1.792   1.292   2.234  0.9921 -0.9970 -0.1743
  128OSM    C1213607   1.671   1.091   2.050 -0.3985 -0.4385 -0.2142
  128OSM   H12A13608   1.577   1.038   2.038 -1.4566  0.6117  2.5674
  128OSM   H12B13609   1.725   1.046   2.132 -0.9562 -0.9327 -0.1129
  128OSM    C1113610   1.768   1.059   1.938 -0.5408  0.1597  0.2267
  128OSM   H11A13611   1.724   1.113   1.851 -1.6263  1.4528  1.5191
  128OSM   H11B13612   1.755   0.952   1.912 -0.6015 -1.0835  4.6497
  128OSM      P13613   2.008   0.987   2.017 -0.1273 -0.0787 -0.1465
  128OSM    O1313614   1.985   0.870   1.930 -0.2704 -0.1148 -0.1451
  128OSM    O1413615   2.143   1.045   2.031 -0.3757 -0.7474  0.9631
  128OSM    O1113616   1.952   0.941   2.156 -0.5434 -0.7516  0.3085
  128OSM    O1213617   1.905   1.096   1.967  0.0536 -0.2209 -0.2195
  128OSM    C1S13618   1.953   0.797   2.182 -0.4272 -0.3050 -0.6620
  128OSM    H1S13619   2.054   0.753   2.169  0.6252  2.2449 -1.7608
  128OSM    H1T13620   1.874   0.758   2.114 -0.0819  1.2636 -2.0232
  128OSM     NF13621   1.921   0.639   2.385  0.8279 -0.2958  0.2480
  128OSM    HNF13622   1.839   0.621   2.440 -0.0212  1.8265 -0.2494
  128OSM    C2S13623   1.912   0.776   2.332  0.3188  0.0029  1.3547
  128OSM    H2S13624   1.975   0.838   2.399  0.0089  1.8058  0.0693
  128OSM    C3S13625   1.772   0.847   2.353  0.2282 -0.2234  0.0789
  128OSM    H3S13626   1.698   0.811   2.278  0.5787 -0.6195 -0.0780
  128OSM     O313627   1.772   0.986   2.330 -0.3122 -0.2086 -0.2379
  128OSM    HO313628   1.858   0.993   2.290 -0.0750 -0.1548  0.2762
  128OSM    C4S13629   1.728   0.827   2.496 -0.7744 -0.2648 -0.2997
  128OSM    H4S13630   1.631   0.775   2.502  0.1835 -2.1782 -0.9765
  128OSM    C5S13631   1.780   0.889   2.608  0.2980 -0.1626  0.3197
  128OSM    H5S13632   1.862   0.959   2.586 -0.1511 -0.7302 -3.9841
  128OSM    C6S13633   1.726   0.863   2.745 -0.3314  0.2289  0.3248
  128OSM    H6S13634   1.804   0.884   2.821 -0.9003 -2.6594  1.8236
  128OSM    H6T13635   1.703   0.756   2.762 -2.7289  0.2809 -1.8731
  128OSM    C7S13636   1.599   0.939   2.762  0.0441 -0.0122 -0.2816
  128OSM    H7S13637   1.521   0.929   2.684 -1.8049  0.9292  1.3924
  128OSM    H7T13638   1.629   1.046   2.765  0.6731 -0.1930  0.0882
  128OSM    C8S13639   1.521   0.903   2.891 -0.0050  0.0796 -0.5028
  128OSM    H8S13640   1.496   0.795   2.888 -3.3892  0.7611 -3.5200
  128OSM    H8T13641   1.426   0.960   2.890  0.6937  1.3020 -0.3786
  128OSM    C9S13642   1.596   0.932   3.027  0.0957  0.2366  0.0892
  128OSM    H9S13643   1.657   1.025   3.023  0.6724 -0.1768 -1.0202
  128OSM    H9T13644   1.671   0.851   3.042  1.3556  1.1277 -1.1511
  128OSM   C10S13645   1.494   0.936   3.137 -0.1179 -0.3297 -0.2717
  128OSM   H10S13646   1.439   0.840   3.125 -0.9189  0.0855 -0.0212
  128OSM   H10T13647   1.424   1.019   3.112 -2.2462 -2.0549 -0.3574
  128OSM   C11S13648   1.544   0.951   3.277 -0.3212  0.2418 -0.8225
  128OSM   H11S13649   1.616   0.873   3.311 -0.9174  0.8289  2.0126
  128OSM   H11T13650   1.450   0.936   3.335 -1.3015 -1.9402 -2.8033
  128OSM   C12S13651   1.600   1.095   3.312 -0.5664  0.8584  0.3937
  128OSM   H12S13652   1.533   1.179   3.282  0.0714  1.4778  0.6813
  128OSM   H12T13653   1.691   1.114   3.252 -0.3384 -0.8986  0.1356
  128OSM   C13S13654   1.634   1.101   3.462  0.2120  0.2718 -0.4338
  128OSM   H13S13655   1.708   1.022   3.490 -1.1909 -1.5068 -1.5335
  128OSM   H13T13656   1.543   1.079   3.521  1.0553  0.1832  0.8838
  128OSM   C14S13657   1.682   1.245   3.500 -0.2494 -0.5274 -0.6418
  128OSM   H14S13658   1.614   1.320   3.454  1.2549  0.7786 -0.8159
  128OSM   H14T13659   1.776   1.257   3.442 -1.9384 -0.1100 -3.4846
  128OSM   C15S13660   1.700   1.268   3.643 -0.2981 -0.1262 -1.0624
  128OSM   H15S13661   1.787   1.334   3.665 -0.1360 -0.1570 -1.5919
  128OSM   H15T13662   1.737   1.172   3.685 -1.0459 -0.0083 -0.1056
  128OSM   C16S13663   1.569   1.311   3.718 -0.8708 -0.1437  0.2434
  128OSM   H16S13664   1.489   1.237   3.694 -0.4686  0.3129 -2.9168
  128OSM   H16T13665   1.531   1.401   3.664 -0.9146  0.2801  0.9694
  128OSM   C17S13666   1.575   1.344   3.864  0.2702  0.2575 -0.1688
  128OSM   H17S13667   1.655   1.421   3.876  0.3082 -0.0288  1.7147
  128OSM   H17T13668   1.603   1.259   3.929 -1.1572 -0.6639 -0.7162
  128OSM   C18S13669   1.442   1.405   3.913  0.2008  0.5551  0.2648
  128OSM   H18S13670   1.469   1.477   3.994  1.0341 -1.3376  1.7425
  128OSM   H18T13671   1.368   1.336   3.958  0.6223 -0.5593 -0.7016
  128OSM   H18U13672   1.385   1.455   3.832 -0.9830 -1.4362 -0.1822
  128OSM    C1F13673   2.030   0.558   2.397 -0.6705 -0.0238  0.6497
  128OSM     OF13674   2.139   0.600   2.352 -0.1030 -0.3894 -0.2684
  128OSM    C2F13675   2.015   0.425   2.464 -0.1596 -0.0631  0.4353
  128OSM    H2F13676   2.009   0.339   2.394  0.9834  0.7032 -0.6479
  128OSM    H2G13677   1.931   0.420   2.537 -3.4993  1.4413 -3.0029
  128OSM    C3F13678   2.140   0.385   2.552  0.0305  0.3734 -0.7067
  128OSM    H3F13679   2.215   0.349   2.478  0.4437  1.7277 -0.9657
  128OSM    H3G13680   2.108   0.295   2.609  1.1610  0.0529 -0.5388
  128OSM    C4F13681   2.192   0.485   2.654 -0.2553 -0.5723  0.0251
  128OSM    H4F13682   2.243   0.576   2.614 -1.1415  0.2815  0.7995
  128OSM    H4G13683   2.279   0.435   2.702  0.5467 -1.1453 -1.9338
  128OSM    C5F13684   2.076   0.531   2.750 -0.4705 -0.2409  0.5045
  128OSM    H5F13685   2.014   0.441   2.767  0.9242 -1.7476 -1.7960
  128OSM    H5G13686   2.019   0.608   2.694 -0.0181  1.2136  1.9718
  128OSM    C6F13687   2.119   0.585   2.884 -0.1677 -0.2821 -0.9348
  128OSM    H6F13688   2.196   0.664   2.876 -1.2560  0.8730 -0.2873
  128OSM    H6G13689   2.161   0.504   2.948  0.7313  0.5410 -0.4635
  128OSM    C7F13690   1.991   0.635   2.971 -0.1378 -0.2207  0.7349
  128OSM    H7F13691   1.928   0.544   2.974  1.4235 -1.3405  1.0889
  128OSM    H7G13692   1.946   0.721   2.917  0.3556  1.7685  3.3052
  128OSM    C8F13693   2.030   0.681   3.110 -0.4653  0.4309  0.5596
  128OSM    H8F13694   2.108   0.760   3.106 -0.4268  0.4130  0.9420
  128OSM    H8G13695   2.066   0.594   3.169 -1.0208 -0.7053 -0.7164
  128OSM    C9F13696   1.919   0.744   3.182 -0.2006  0.5421 -0.1260
  128OSM    H9F13697   1.860   0.823   3.135 -3.1515 -1.2511  0.2622
  128OSM   C10F13698   1.879   0.721   3.304  0.0661 -0.3109  0.0931
  128OSM   H10F13699   1.796   0.779   3.346 -0.5684  0.0645 -1.6376
  128OSM   C11F13700   1.941   0.622   3.398 -0.5648 -0.0044  0.1831
  128OSM   H11F13701   1.920   0.654   3.502 -2.0753  0.0402 -0.1147
  128OSM   H11G13702   2.051   0.613   3.387 -0.4843  0.7179  0.3379
  128OSM   C12F13703   1.876   0.482   3.388  0.2278 -0.1716  0.4694
  128OSM   H12F13704   1.884   0.441   3.285  0.7202 -3.1237  1.5921
  128OSM   H12G13705   1.770   0.495   3.418 -1.1517 -1.8192 -3.1069
  128OSM   C13F13706   1.948   0.381   3.477  0.4077 -0.5512  0.1474
  128OSM   H13F13707   2.055   0.383   3.447  0.1131 -1.6539 -1.0936
  128OSM   H13G13708   1.911   0.287   3.431 -0.1210 -0.1642 -0.2339
  128OSM   C14F13709   1.919   0.386   3.624 -0.0147 -0.1048  0.3629
  128OSM   H14F13710   1.810   0.374   3.643 -0.4208 -1.9634 -2.4727
  128OSM   H14G13711   1.965   0.475   3.670  0.8308 -0.5217  0.3404
  128OSM   C15F13712   1.982   0.263   3.688 -0.0435  0.1284  0.2050
  128OSM   H15F13713   2.085   0.257   3.648 -1.0507 -0.2493 -2.5615
  128OSM   H15G13714   1.932   0.172   3.647 -0.4710  0.2597  0.4276
  128OSM   C16F13715   1.975   0.265   3.840 -0.5871 -0.5362  0.4098
  128OSM   H16F13716   2.013   0.164   3.866  0.5706  0.5389  3.3775
  128OSM   H16G13717   1.870   0.260   3.878 -0.1382  1.0260  1.9870
  128OSM   C17F13718   2.058   0.380   3.903 -0.5897  0.2147  0.4730
  128OSM   H17F13719   2.023   0.481   3.874  1.9121  1.4973  1.6112
  128OSM   H17G13720   2.165   0.377   3.873  0.2453  1.0950  3.1602
  128OSM   C18F13721   2.073   0.377   4.050 -0.1022  1.0539 -0.1464
  128OSM   H18F13722   2.125   0.282   4.072  0.0362  0.7301 -1.7473
  128OSM   H18G13723   1.973   0.382   4.098 -0.8081  1.5872 -1.5957
  128OSM   H18H13724   2.132   0.465   4.082  0.1789  1.7468 -2.3696
  129OSM      N13725   3.171   5.993   1.682  0.3561  0.2014 -0.1767
  129OSM    C1513726   3.249   5.970   1.560 -0.0701 -0.0266 -0.6360
  129OSM   H15A13727   3.199   5.992   1.467 -1.4033  0.9552  0.2810
  129OSM   H15B13728   3.282   5.868   1.545 -0.0666 -0.1976  0.4425
  129OSM   H15C13729   3.342   6.024   1.565 -0.1427  0.3137 -2.4235
  129OSM    C1413730   3.126   6.141   1.679 -1.0345 -0.3038  0.3148
  129OSM   H14A13731   3.213   6.205   1.673 -2.5336  1.7732 -0.6400
  129OSM   H14B13732   3.079   6.167   1.773 -0.3376 -1.6838  1.0784
  129OSM   H14C13733   3.064   6.162   1.593 -0.7270 -0.9878 -0.0816
  129OSM    C1313734   3.040   5.920   1.699 -0.1830  0.0799 -0.2586
  129OSM   H13A13735   3.046   5.817   1.727  0.4287  0.0836 -0.3664
  129OSM   H13B13736   2.978   5.928   1.611  0.2175  0.2910 -0.5268
  129OSM   H13C13737   2.979   5.962   1.777 -0.5785  0.3042 -0.6780
  129OSM    C1213738   3.257   5.960   1.809 -0.3116 -0.5580 -0.6206
  129OSM   H12A13739   3.333   6.037   1.809 -1.0907  0.2230 -0.4618
  129OSM   H12B13740   3.309   5.867   1.786  2.3244  0.8503 -0.8066
  129OSM    C1113741   3.185   5.971   1.949  0.4001 -0.3412 -0.0696
  129OSM   H11A13742   3.269   5.964   2.022  0.9880 -0.3155 -0.7293
  129OSM   H11B13743   3.121   5.884   1.976 -1.4329  0.9641 -0.0568
  129OSM      P13744   2.997   6.110   2.079 -0.4515  0.2012 -0.4464
  129OSM    O1313745   2.973   6.258   2.098  0.3395 -0.0403  0.2165
  129OSM    O1413746   2.886   6.032   2.023 -0.2990 -0.7008 -1.0938
  129OSM    O1113747   3.043   6.053   2.218  0.4049 -0.1397  0.4007
  129OSM    O1213748   3.118   6.091   1.974  0.1014  0.4615 -0.0308
  129OSM    C1S13749   3.135   6.114   2.307 -0.5518  0.5588 -0.0863
  129OSM    H1S13750   3.152   6.223   2.290  0.6694  0.2457 -1.0351
  129OSM    H1T13751   3.236   6.075   2.283 -0.0042 -0.9649  3.9414
  129OSM     NF13752   3.218   6.153   2.529 -0.2017  0.1854  0.2040
  129OSM    HNF13753   3.309   6.112   2.537  0.8217  2.4379  1.0102
  129OSM    C2S13754   3.119   6.082   2.457 -0.0716 -0.6937  0.8880
  129OSM    H2S13755   3.019   6.114   2.491 -0.6555  1.0273 -2.0870
  129OSM    C3S13756   3.136   5.931   2.479 -0.8810 -0.7729  0.9247
  129OSM    H3S13757   3.232   5.908   2.429 -0.2751  0.8709  1.2556
  129OSM     O313758   3.028   5.860   2.418 -0.0537 -0.0855  0.4914
  129OSM    HO313759   3.008   5.903   2.335 -1.5792 -1.3607  0.1601
  129OSM    C4S13760   3.133   5.895   2.626  0.6094 -0.3202  0.9003
  129OSM    H4S13761   3.033   5.898   2.672 -0.4416 -1.7316 -1.1335
  129OSM    C5S13762   3.244   5.875   2.698 -0.3972  0.2227 -0.1274
  129OSM    H5S13763   3.345   5.882   2.656 -0.7971  1.7364 -0.9204
  129OSM    C6S13764   3.255   5.882   2.849  0.2842 -0.4063 -0.1696
  129OSM    H6S13765   3.326   5.960   2.882  1.6770 -0.1470 -3.4622
  129OSM    H6T13766   3.300   5.788   2.889  2.7618  1.7587  2.6027
  129OSM    C7S13767   3.123   5.889   2.924 -0.2886 -0.0309  0.0191
  129OSM    H7S13768   3.074   5.791   2.902  1.7790 -0.9816 -0.6772
  129OSM    H7T13769   3.064   5.976   2.889  2.6562  1.2506 -2.2213
  129OSM    C8S13770   3.147   5.912   3.073 -0.1821  0.1030  0.1139
  129OSM    H8S13771   3.227   5.842   3.106  1.8792  1.0568 -2.5004
  129OSM    H8T13772   3.057   5.886   3.133 -0.0666 -0.8756 -0.1160
  129OSM    C9S13773   3.204   6.054   3.098  0.2376  0.0930 -0.2296
  129OSM    H9S13774   3.149   6.109   3.019  2.4161  1.2930 -0.9983
  129OSM    H9T13775   3.311   6.044   3.071  0.6652  2.4450  0.3268
  129OSM   C10S13776   3.180   6.109   3.236  0.2510  0.3543 -0.2618
  129OSM   H10S13777   3.222   6.041   3.313 -1.9186 -2.1302 -1.1160
  129OSM   H10T13778   3.074   6.116   3.267  0.1712  2.2003 -0.8504
  129OSM   C11S13779   3.222   6.262   3.243  0.2292  0.6864  0.6767
  129OSM   H11S13780   3.179   6.305   3.150 -0.3310 -1.4569 -0.1095
  129OSM   H11T13781   3.333   6.269   3.230  0.0950  2.7400  0.2765
  129OSM   C12S13782   3.174   6.323   3.370  0.0768  0.1861 -0.0082
  129OSM   H12S13783   3.073   6.284   3.396  0.6172  0.1290  2.2600
  129OSM   H12T13784   3.146   6.429   3.351  0.4336 -0.1813 -3.0292
  129OSM   C13S13785   3.258   6.313   3.501 -0.2030  0.4984 -0.0075
  129OSM   H13S13786   3.363   6.337   3.472  0.5885  0.2577  2.3817
  129OSM   H13T13787   3.271   6.207   3.529  0.9793  0.7040  0.3081
  129OSM   C14S13788   3.222   6.400   3.617  0.2466 -0.0784  0.8493
  129OSM   H14S13789   3.120   6.381   3.656 -0.6184  2.6899  0.1930
  129OSM   H14T13790   3.209   6.505   3.584 -1.4114 -0.1579  1.1866
  129OSM   C15S13791   3.320   6.400   3.742 -1.0095 -0.3530 -0.5466
  129OSM   H15S13792   3.387   6.488   3.729 -1.4564  0.4659  2.1277
  129OSM   H15T13793   3.386   6.311   3.739  1.7431  1.5696 -0.7947
  129OSM   C16S13794   3.237   6.410   3.870 -0.6301 -0.5011  0.2115
  129OSM   H16S13795   3.171   6.494   3.840  0.1164 -0.4398 -1.3980
  129OSM   H16T13796   3.300   6.459   3.948 -1.9970  1.0058  0.4308
  129OSM   C17S13797   3.156   6.287   3.915  0.6433 -0.4492  0.2712
  129OSM   H17S13798   3.102   6.237   3.832 -1.1711  0.4486  0.8510
  129OSM   H17T13799   3.073   6.328   3.977 -0.6557  2.0256 -2.8189
  129OSM   C18S13800   3.235   6.189   3.998 -0.7233 -0.7575 -0.4791
  129OSM   H18S13801   3.341   6.196   3.964 -0.3004 -2.8957  0.2767
  129OSM   H18T13802   3.198   6.085   4.003 -2.8714 -0.0212  0.0304
  129OSM   H18U13803   3.236   6.226   4.103  0.5677 -0.1503 -0.6752
  129OSM    C1F13804   3.212   6.276   2.565 -0.6371  0.0284 -0.7166
  129OSM     OF13805   3.111   6.342   2.549  0.2539  0.5727  0.7071
  129OSM    C2F13806   3.338   6.321   2.632  0.1901  0.0018  0.8299
  129OSM    H2F13807   3.360   6.426   2.603  0.0285  0.3590  1.9684
  129OSM    H2G13808   3.428   6.265   2.601  0.5096  1.5643 -1.3308
  129OSM    C3F13809   3.320   6.330   2.782  0.2960 -0.2369  0.5712
  129OSM    H3F13810   3.299   6.227   2.818 -0.2536 -0.4714 -0.3922
  129OSM    H3G13811   3.226   6.388   2.796 -0.2593 -0.3764 -2.0170
  129OSM    C4F13812   3.443   6.393   2.851 -0.4860  0.2200 -0.8823
  129OSM    H4F13813   3.456   6.499   2.820 -0.8739  0.8612  1.0220
  129OSM    H4G13814   3.533   6.331   2.830 -0.0062  0.0484  1.4262
  129OSM    C5F13815   3.447   6.389   3.007  0.3777 -0.1982  0.7572
  129OSM    H5F13816   3.421   6.286   3.041  2.4646 -0.7482  0.8542
  129OSM    H5G13817   3.360   6.448   3.043  1.0092  0.5914  1.0176
  129OSM    C6F13818   3.575   6.441   3.064 -0.1123 -0.5694  0.4792
  129OSM    H6F13819   3.592   6.540   3.016 -2.2116 -0.8807 -1.0520
  129OSM    H6G13820   3.665   6.378   3.050 -0.1035 -0.1962 -1.3662
  129OSM    C7F13821   3.564   6.462   3.218  0.6478 -0.4451 -0.1955
  129OSM    H7F13822   3.572   6.356   3.248  0.9954 -0.6249 -0.9217
  129OSM    H7G13823   3.464   6.506   3.243  0.1521  0.0793 -2.8396
  129OSM    C8F13824   3.670   6.559   3.277 -0.8985  0.3407  0.8273
  129OSM    H8F13825   3.638   6.663   3.253  1.0923  0.5525 -1.2627
  129OSM    H8G13826   3.765   6.553   3.220 -0.7789 -0.8379  1.1328
  129OSM    C9F13827   3.695   6.546   3.418  0.1845  0.3286  0.6943
  129OSM    H9F13828   3.661   6.453   3.466  1.1502  0.0938  0.9508
  129OSM   C10F13829   3.778   6.630   3.483  0.0779 -0.7630 -0.4269
  129OSM   H10F13830   3.783   6.613   3.591 -2.2895  1.5549  0.1495
  129OSM   C11F13831   3.846   6.752   3.429  0.0725  0.3621  0.0671
  129OSM   H11F13832   3.863   6.745   3.319  2.6401  0.7698  0.3864
  129OSM   H11G13833   3.944   6.775   3.475 -0.8427  1.4137  1.5806
  129OSM   C12F13834   3.744   6.868   3.447  0.1895  0.1177  0.2590
  129OSM   H12F13835   3.686   6.860   3.541  0.3401 -2.2746  0.2256
  129OSM   H12G13836   3.678   6.872   3.358 -0.8841  1.3761  1.0753
  129OSM   C13F13837   3.822   7.005   3.460  0.2594  0.1109  0.7987
  129OSM   H13F13838   3.762   7.087   3.414  1.7912  1.7640  1.6224
  129OSM   H13G13839   3.916   7.002   3.399  0.6977  2.3089  1.2968
  129OSM   C14F13840   3.873   7.028   3.608  0.2847  0.5425 -0.0342
  129OSM   H14F13841   3.942   6.944   3.632  1.5145  1.5474  0.0375
  129OSM   H14G13842   3.785   7.015   3.675 -0.4032 -0.6646 -1.1106
  129OSM   C15F13843   3.941   7.163   3.624  0.1757 -0.1221 -0.0416
  129OSM   H15F13844   3.968   7.206   3.525  1.1348  1.2259  0.7640
  129OSM   H15G13845   4.033   7.141   3.682  0.3612 -2.4732 -1.1378
  129OSM   C16F13846   3.858   7.273   3.690 -0.1516 -0.2087 -0.2596
  129OSM   H16F13847   3.819   7.242   3.789 -0.3530  0.4176 -0.1379
  129OSM   H16G13848   3.769   7.297   3.627  0.1455 -0.6460 -0.8570
  129OSM   C17F13849   3.935   7.399   3.708 -0.1280  0.2622  0.0533
  129OSM   H17F13850   3.974   7.432   3.609  0.5808  0.8020  0.5001
  129OSM   H17G13851   4.027   7.382   3.768  1.1147 -1.0768 -2.0993
  129OSM   C18F13852   3.852   7.515   3.773 -0.1317 -0.2835 -0.0965
  129OSM   H18F13853   3.755   7.532   3.723 -0.9618 -0.2081  1.4929
  129OSM   H18G13854   3.904   7.613   3.763 -2.1045  0.7267 -0.8517
  129OSM   H18H13855   3.830   7.498   3.881  0.0919 -1.6377 -0.2375
  130OSM      N13856   4.692   3.092   2.181 -0.2088  0.4365  0.2301
  130OSM    C1513857   4.624   3.165   2.073  0.1322  0.5546  0.6596
  130OSM   H15A13858   4.561   3.241   2.118  1.3631  1.3558  1.0936
  130OSM   H15B13859   4.560   3.097   2.021  1.0189  0.7472 -0.7380
  130OSM   H15C13860   4.690   3.204   1.996  1.3959  1.6112  2.2055
  130OSM    C1413861   4.764   2.972   2.131 -0.8545 -0.5445  0.0506
  130OSM   H14A13862   4.845   3.001   2.066 -0.3559  1.1476  1.3418
  130OSM   H14B13863   4.700   2.908   2.072  1.6886 -1.1870 -2.1843
  130OSM   H14C13864   4.803   2.910   2.211 -2.0278 -3.3075 -1.3763
  130OSM    C1313865   4.795   3.185   2.240  0.0865 -0.2869  0.3033
  130OSM   H13A13866   4.860   3.139   2.313  1.7589  0.4708 -0.6474
  130OSM   H13B13867   4.744   3.265   2.290  1.7435  0.8597  0.2377
  130OSM   H13C13868   4.856   3.229   2.163 -3.2733  0.5754 -2.1139
  130OSM    C1213869   4.583   3.055   2.294 -1.0319 -0.4637  0.7143
  130OSM   H12A13870   4.630   2.981   2.357  1.8831 -0.5384 -1.3299
  130OSM   H12B13871   4.504   3.015   2.232  0.5232 -0.9843 -1.0221
  130OSM    C1113872   4.535   3.174   2.384 -0.3001 -0.2256  0.5600
  130OSM   H11A13873   4.623   3.210   2.442 -2.1116 -0.3998  3.6651
  130OSM   H11B13874   4.472   3.116   2.455  3.2093 -1.3814  2.9874
  130OSM      P13875   4.319   3.295   2.296  0.4019  0.1249  0.1011
  130OSM    O1313876   4.292   3.424   2.220 -0.2953 -0.1886 -0.4294
  130OSM    O1413877   4.258   3.171   2.250 -0.0627 -0.1590 -0.1634
  130OSM    O1113878   4.272   3.310   2.446  0.1631  0.3382 -0.3792
  130OSM    O1213879   4.474   3.278   2.312 -0.1038 -0.4194 -0.1703
  130OSM    C1S13880   4.314   3.431   2.517  0.0978 -0.0556  0.2427
  130OSM    H1S13881   4.309   3.521   2.453  0.7388  1.9606  2.8710
  130OSM    H1T13882   4.419   3.423   2.551  0.2116 -1.2183 -0.3215
  130OSM     NF13883   4.237   3.585   2.702 -0.2962  0.1497  0.0688
  130OSM    HNF13884   4.286   3.592   2.788 -0.8400  1.3507  0.3010
  130OSM    C2S13885   4.210   3.455   2.641 -0.8272  0.2415 -0.0306
  130OSM    H2S13886   4.109   3.461   2.595 -1.3499  1.9881  1.2200
  130OSM    C3S13887   4.202   3.332   2.734  0.0894 -0.3992  0.5087
  130OSM    H3S13888   4.294   3.344   2.794 -0.3071  0.1807  1.0051
  130OSM     O313889   4.202   3.208   2.664 -0.1222  0.5996  0.1556
  130OSM    HO313890   4.233   3.235   2.577  1.3386 -0.4284  0.3238
  130OSM    C4S13891   4.088   3.339   2.833 -0.5158 -0.2736  0.2422
  130OSM    H4S13892   4.130   3.351   2.934  0.6119  1.9419 -0.4426
  130OSM    C5S13893   3.957   3.306   2.816 -0.0326 -0.4138 -0.2066
  130OSM    H5S13894   3.931   3.274   2.714  0.0639  0.0160 -0.3690
  130OSM    C6S13895   3.838   3.305   2.918 -0.2087  0.4006  0.4771
  130OSM    H6S13896   3.788   3.207   2.922  1.4414 -0.5088 -0.1799
  130OSM    H6T13897   3.761   3.373   2.876 -0.9459  1.2525  3.0185
  130OSM    C7S13898   3.871   3.356   3.063  0.1561  0.3420 -0.3647
  130OSM    H7S13899   3.918   3.457   3.058 -1.5453  1.1109 -3.2936
  130OSM    H7T13900   3.936   3.284   3.117  0.0856  0.9997  0.6266
  130OSM    C8S13901   3.752   3.368   3.168 -0.5407 -0.2151  0.0559
  130OSM    H8S13902   3.697   3.276   3.198 -1.7877  1.2184  2.5027
  130OSM    H8T13903   3.680   3.435   3.116 -0.7905  0.3235  1.0619
  130OSM    C9S13904   3.786   3.449   3.300  0.4721  0.4160  0.1138
  130OSM    H9S13905   3.817   3.554   3.279  1.6380  0.0630 -0.0127
  130OSM    H9T13906   3.869   3.404   3.359  0.6363  0.3712 -0.1515
  130OSM   C10S13907   3.657   3.461   3.390 -0.4487  0.2101 -0.4214
  130OSM   H10S13908   3.634   3.358   3.426 -1.0410  0.8962  1.2597
  130OSM   H10T13909   3.577   3.498   3.323 -2.1952 -2.2377  0.1921
  130OSM   C11S13910   3.672   3.553   3.517 -0.3384 -0.0861 -0.4887
  130OSM   H11S13911   3.589   3.539   3.589 -0.8271 -0.9635 -1.1934
  130OSM   H11T13912   3.666   3.661   3.494  2.3238  0.4308  0.7781
  130OSM   C12S13913   3.805   3.536   3.598 -0.4949 -0.0280 -1.0926
  130OSM   H12S13914   3.887   3.598   3.557  1.7017 -0.4672  2.3015
  130OSM   H12T13915   3.833   3.429   3.607 -2.0095 -0.2616  2.4179
  130OSM   C13S13916   3.784   3.579   3.743 -0.0998  0.7235  0.4909
  130OSM   H13S13917   3.720   3.507   3.798 -0.2305 -0.3067 -0.9625
  130OSM   H13T13918   3.747   3.683   3.744  2.0464  1.5605 -0.3019
  130OSM   C14S13919   3.920   3.579   3.814 -0.2488 -0.5366  0.5244
  130OSM   H14S13920   3.988   3.650   3.761 -0.9649  1.5598  2.2425
  130OSM   H14T13921   3.973   3.481   3.812  1.0435  0.1416  0.2561
  130OSM   C15S13922   3.915   3.624   3.960  0.1317  0.7140 -0.6411
  130OSM   H15S13923   4.021   3.606   3.991 -0.2386 -0.0525  0.2059
  130OSM   H15T13924   3.851   3.551   4.012  0.9742 -0.6072 -1.3945
  130OSM   C16S13925   3.877   3.768   3.995  0.5590 -0.3902  0.0699
  130OSM   H16S13926   3.773   3.788   3.961  0.1079 -1.4704  0.7919
  130OSM   H16T13927   3.945   3.837   3.940 -1.5902  1.8609  0.0530
  130OSM   C17S13928   3.870   3.806   4.148 -1.0895  0.4823 -0.5486
  130OSM   H17S13929   3.965   3.775   4.196 -0.9672  0.8306 -0.5693
  130OSM   H17T13930   3.780   3.759   4.195 -1.0294  1.2230  0.3189
  130OSM   C18S13931   3.854   3.962   4.142 -0.4225  0.3295  0.5238
  130OSM   H18S13932   3.784   3.985   4.059  1.6359 -0.5995 -1.5963
  130OSM   H18T13933   3.949   4.016   4.125  0.1308 -0.9658 -0.7227
  130OSM   H18U13934   3.809   4.001   4.236  0.1630 -1.4082  1.5655
  130OSM    C1F13935   4.220   3.698   2.636 -0.5643 -0.0639 -0.0390
  130OSM     OF13936   4.157   3.699   2.529 -0.3153  0.0865 -0.4359
  130OSM    C2F13937   4.294   3.816   2.690 -0.2719  0.2247 -0.4365
  130OSM    H2F13938   4.387   3.784   2.741 -0.8333  1.4038  1.4504
  130OSM    H2G13939   4.224   3.862   2.764 -0.7407 -1.3181  0.1168
  130OSM    C3F13940   4.312   3.918   2.578 -0.5636  0.2049  0.0075
  130OSM    H3F13941   4.230   3.925   2.503 -0.6996  1.7003  0.2616
  130OSM    H3G13942   4.405   3.900   2.521 -0.5649  2.3265 -0.7447
  130OSM    C4F13943   4.326   4.059   2.642 -0.0702 -0.2803  0.1745
  130OSM    H4F13944   4.226   4.081   2.685 -0.2308 -0.1133 -0.2756
  130OSM    H4G13945   4.365   4.134   2.571  0.9369 -1.0532 -0.1177
  130OSM    C5F13946   4.430   4.044   2.754  0.2489  0.1492  1.0070
  130OSM    H5F13947   4.528   4.005   2.719  0.7222  3.2443 -1.6974
  130OSM    H5G13948   4.398   3.977   2.836 -1.5778  0.7308  0.8200
  130OSM    C6F13949   4.477   4.171   2.823  0.9561 -0.2590  0.0054
  130OSM    H6F13950   4.384   4.203   2.874  0.9485  1.7997 -1.1931
  130OSM    H6G13951   4.508   4.253   2.756  0.9417 -1.0652 -1.0218
  130OSM    C7F13952   4.592   4.143   2.925 -0.0235 -0.0321  0.1522
  130OSM    H7F13953   4.681   4.114   2.866 -1.2885 -0.6087 -1.5429
  130OSM    H7G13954   4.557   4.054   2.982  2.0564  1.2769  3.7833
  130OSM    C8F13955   4.628   4.253   3.026  0.1716  0.1958  0.0716
  130OSM    H8F13956   4.716   4.221   3.085 -1.7044  0.0531  2.9464
  130OSM    H8G13957   4.540   4.257   3.093 -0.1765 -0.8783 -0.2961
  130OSM    C9F13958   4.662   4.380   2.948  0.3660 -0.1821  0.2153
  130OSM    H9F13959   4.695   4.376   2.843 -0.7114 -2.9142 -0.1217
  130OSM   C10F13960   4.639   4.503   2.991 -0.4176  0.3840 -0.7058
  130OSM   H10F13961   4.671   4.586   2.926 -1.8583  0.0060 -1.9463
  130OSM   C11F13962   4.600   4.545   3.130 -0.3968 -0.3113 -0.2769
  130OSM   H11F13963   4.547   4.465   3.185  1.2118 -2.1019 -1.1996
  130OSM   H11G13964   4.536   4.636   3.123  1.6081  1.1207 -1.2011
  130OSM   C12F13965   4.717   4.578   3.224 -0.3287  0.2160  0.2217
  130OSM   H12F13966   4.795   4.647   3.186 -0.2079 -0.7477 -1.3445
  130OSM   H12G13967   4.773   4.487   3.253  0.5659  0.8138  0.4116
  130OSM   C13F13968   4.661   4.642   3.349  0.4439  0.2630 -0.5072
  130OSM   H13F13969   4.617   4.549   3.391  0.8208  0.2542 -0.1187
  130OSM   H13G13970   4.583   4.720   3.345 -1.8395 -1.9233 -2.1479
  130OSM   C14F13971   4.776   4.703   3.436  0.4140 -0.5922  0.3607
  130OSM   H14F13972   4.796   4.807   3.401  0.6741 -0.7565  0.0170
  130OSM   H14G13973   4.866   4.640   3.422  0.3728 -0.5330 -0.1773
  130OSM   C15F13974   4.738   4.706   3.588 -0.0539 -0.1794  0.0524
  130OSM   H15F13975   4.714   4.600   3.611  0.8305 -0.8687 -2.0343
  130OSM   H15G13976   4.650   4.772   3.607 -0.0454 -0.2749  0.4370
  130OSM   C16F13977   4.848   4.760   3.675  0.4711  0.1516  0.0584
  130OSM   H16F13978   4.797   4.787   3.770  2.3572 -0.3027  1.2530
  130OSM   H16G13979   4.875   4.860   3.633  2.8562 -0.7948 -0.8246
  130OSM   C17F13980   4.968   4.674   3.693  0.1587  0.2705  0.2550
  130OSM   H17F13981   5.015   4.658   3.593 -0.2362  0.0137  0.1053
  130OSM   H17G13982   4.932   4.576   3.732  0.2661  0.4275  0.7504
  130OSM   C18F13983   5.064   4.728   3.801 -0.1980  0.1076 -0.6046
  130OSM   H18F13984   5.149   4.656   3.811 -0.9738 -1.1077 -2.2288
  130OSM   H18G13985   5.007   4.736   3.895 -0.9924 -0.4568 -1.0273
  130OSM   H18H13986   5.097   4.832   3.782  0.1758  0.0105 -0.4986
  131OSM      N13987   2.237   5.853   2.192 -0.1685  0.1973  0.6893
  131OSM    C1513988   2.160   5.729   2.150  0.6061 -0.4591  0.5705
  131OSM   H15A13989   2.119   5.684   2.239 -0.3890  1.7994  1.3276
  131OSM   H15B13990   2.228   5.661   2.101  0.3745  0.3606 -0.9467
  131OSM   H15C13991   2.073   5.757   2.091  0.6207 -0.2937  0.6281
  131OSM    C1413992   2.290   5.915   2.067  0.2236 -0.1394  0.2268
  131OSM   H14A13993   2.212   5.932   1.995  0.0461  0.6846  0.5964
  131OSM   H14B13994   2.366   5.849   2.029  1.8571  0.6542  1.9137
  131OSM   H14C13995   2.344   6.007   2.086  1.9766 -0.8809 -0.8210
  131OSM    C1313996   2.141   5.950   2.244 -0.1707  0.0938 -0.7873
  131OSM   H13A13997   2.195   6.034   2.284  0.3213 -1.3684  1.8149
  131OSM   H13B13998   2.081   5.918   2.328 -0.5377  1.7350 -0.4059
  131OSM   H13C13999   2.078   5.988   2.165  2.0895 -0.8430 -3.2050
  131OSM    C1214000   2.340   5.827   2.300  0.6765 -0.2425 -0.3144
  131OSM   H12A14001   2.418   5.759   2.267 -0.2371  0.3320 -4.1364
  131OSM   H12B14002   2.294   5.778   2.384 -0.5226  2.4222  0.7003
  131OSM    C1114003   2.415   5.953   2.355 -0.2258  0.1004  0.5132
  131OSM   H11A14004   2.492   5.939   2.433  0.6969 -0.0720 -0.3989
  131OSM   H11B14005   2.331   6.015   2.393 -0.5567 -0.0175 -0.0144
  131OSM      P14006   2.481   6.174   2.228  0.2459  0.3299 -0.6388
  131OSM    O1314007   2.615   6.230   2.187  0.3698 -0.1948  0.2511
  131OSM    O1414008   2.374   6.208   2.138  0.1059 -0.0277  0.6194
  131OSM    O1114009   2.440   6.233   2.373 -0.1885  0.1907  0.2442
  131OSM    O1214010   2.488   6.014   2.250  0.3347 -0.1367 -0.8879
  131OSM    C1S14011   2.427   6.373   2.386  0.1390  0.8309  0.4375
  131OSM    H1S14012   2.344   6.419   2.328 -0.5999 -2.0020 -0.9463
  131OSM    H1T14013   2.520   6.425   2.357  0.4247 -0.8739 -2.0281
  131OSM     NF14014   2.440   6.559   2.544 -0.4659 -0.2436  0.2440
  131OSM    HNF14015   2.531   6.570   2.584  0.0528 -0.0041 -0.9385
  131OSM    C2S14016   2.395   6.417   2.535  0.5511 -0.7490 -0.0322
  131OSM    H2S14017   2.286   6.418   2.559  0.5797 -1.4833  0.1666
  131OSM    C3S14018   2.460   6.329   2.650  0.5866  0.0204 -0.2923
  131OSM    H3S14019   2.569   6.348   2.657  0.4567  0.6201  0.1198
  131OSM     O314020   2.442   6.188   2.623 -0.4519  0.1569  0.6988
  131OSM    HO314021   2.420   6.196   2.530 -0.9058  0.9304  0.8638
  131OSM    C4S14022   2.401   6.363   2.779  0.0052  0.4927  0.3332
  131OSM    H4S14023   2.472   6.426   2.835 -1.1217  1.6098  0.5629
  131OSM    C5S14024   2.272   6.344   2.820 -0.5792 -0.4710 -0.2240
  131OSM    H5S14025   2.195   6.295   2.759  0.4576 -1.3017 -0.8960
  131OSM    C6S14026   2.218   6.402   2.943  0.0955  0.3690  0.1970
  131OSM    H6S14027   2.114   6.439   2.939 -0.2144 -0.5347 -0.2219
  131OSM    H6T14028   2.279   6.492   2.970 -0.3740  1.0640 -0.9697
  131OSM    C7S14029   2.244   6.300   3.060  0.1037 -0.2885 -0.0463
  131OSM    H7S14030   2.353   6.286   3.071  0.0551  0.7860  2.4638
  131OSM    H7T14031   2.199   6.203   3.028  0.1188 -0.5664  0.7657
  131OSM    C8S14032   2.179   6.346   3.194  0.0653 -0.4302  0.0969
  131OSM    H8S14033   2.196   6.265   3.268 -3.3179 -1.4027 -0.0205
  131OSM    H8T14034   2.073   6.356   3.164  0.2446 -1.9699 -1.1531
  131OSM    C9S14035   2.212   6.480   3.258 -0.1479 -0.9980  0.2778
  131OSM    H9S14036   2.274   6.539   3.187 -1.1606  0.6237  0.7051
  131OSM    H9T14037   2.273   6.454   3.347 -0.5518  1.7201  1.4520
  131OSM   C10S14038   2.097   6.565   3.314 -0.2710 -0.2455 -0.5510
  131OSM   H10S14039   2.034   6.500   3.378 -0.8706 -2.6445 -3.3886
  131OSM   H10T14040   2.036   6.606   3.231  1.7202  0.5673 -1.6830
  131OSM   C11S14041   2.144   6.692   3.383  0.2994  0.1248  0.0432
  131OSM   H11S14042   2.057   6.736   3.438  0.2624  1.6145 -1.1380
  131OSM   H11T14043   2.176   6.763   3.304 -0.2584 -1.5383 -1.7504
  131OSM   C12S14044   2.253   6.670   3.483 -0.5100  0.6293 -0.2336
  131OSM   H12S14045   2.342   6.705   3.427 -0.3836  0.6589 -0.0161
  131OSM   H12T14046   2.261   6.564   3.517 -2.3373  1.1916  2.2256
  131OSM   C13S14047   2.231   6.759   3.608  0.5250  0.5035  0.1827
  131OSM   H13S14048   2.133   6.738   3.657 -0.1904  1.7242 -0.6562
  131OSM   H13T14049   2.215   6.864   3.575 -2.5392  0.7691  2.1026
  131OSM   C14S14050   2.345   6.762   3.707 -1.0412  0.3496  0.1858
  131OSM   H14S14051   2.437   6.811   3.668 -0.5257 -0.3933  0.4492
  131OSM   H14T14052   2.376   6.659   3.732 -0.7674 -0.0223 -1.5744
  131OSM   C15S14053   2.300   6.832   3.840  0.2290  0.8710  0.0899
  131OSM   H15S14054   2.201   6.794   3.871 -0.0289 -0.6109 -2.3012
  131OSM   H15T14055   2.289   6.941   3.820  1.3651  0.8960 -0.5100
  131OSM   C16S14056   2.402   6.810   3.958  0.4555  0.6330 -0.0407
  131OSM   H16S14057   2.502   6.851   3.931 -0.0848  2.3463  0.4228
  131OSM   H16T14058   2.415   6.702   3.982  3.6324  1.1324  1.0645
  131OSM   C17S14059   2.358   6.872   4.092 -0.3118  0.9000 -0.5025
  131OSM   H17S14060   2.261   6.836   4.134  0.0936 -0.3661 -0.5960
  131OSM   H17T14061   2.358   6.980   4.068 -0.0215  0.4460 -2.7141
  131OSM   C18S14062   2.456   6.851   4.209  0.0722 -0.5472  0.5089
  131OSM   H18S14063   2.462   6.747   4.249 -0.9608 -0.3015  1.3464
  131OSM   H18T14064   2.420   6.915   4.292  0.0092  1.4808 -1.0110
  131OSM   H18U14065   2.556   6.887   4.176 -0.2749 -0.6496 -0.7224
  131OSM    C1F14066   2.375   6.654   2.475  1.3079  0.2452  0.1149
  131OSM     OF14067   2.255   6.636   2.443  0.1716 -0.1636  0.1436
  131OSM    C2F14068   2.441   6.787   2.454 -0.3393  0.6845 -0.3474
  131OSM    H2F14069   2.409   6.828   2.356 -1.0572  0.9995  0.0130
  131OSM    H2G14070   2.552   6.779   2.452 -0.4532 -1.3716 -0.4677
  131OSM    C3F14071   2.407   6.887   2.570 -0.0260 -0.2741  0.2443
  131OSM    H3F14072   2.297   6.892   2.585 -0.4488  1.1862 -2.7208
  131OSM    H3G14073   2.443   6.981   2.523  0.9319 -1.3316 -1.2279
  131OSM    C4F14074   2.485   6.862   2.698  0.6876  0.1646 -0.0513
  131OSM    H4F14075   2.592   6.873   2.671 -0.1822  3.0971 -2.9437
  131OSM    H4G14076   2.472   6.755   2.725  0.8651  0.7675  2.7501
  131OSM    C5F14077   2.451   6.958   2.811  0.5245 -0.3833  0.2235
  131OSM    H5F14078   2.499   7.055   2.787 -0.0609 -0.0311  0.4570
  131OSM    H5G14079   2.497   6.923   2.906  0.7946 -1.6283 -0.3429
  131OSM    C6F14080   2.304   6.996   2.844 -0.1882 -0.1256 -0.3629
  131OSM    H6F14081   2.249   6.903   2.870 -1.7478  0.6617 -0.7918
  131OSM    H6G14082   2.251   7.041   2.757 -0.0975 -0.9521 -0.8675
  131OSM    C7F14083   2.289   7.088   2.957  0.0455 -0.6165 -0.7094
  131OSM    H7F14084   2.189   7.137   2.958  1.3279  2.2189  1.8827
  131OSM    H7G14085   2.355   7.176   2.966  0.9104 -1.3262  0.1637
  131OSM    C8F14086   2.290   7.025   3.105  0.5420 -0.3850  0.3328
  131OSM    H8F14087   2.389   6.976   3.112  1.4899  1.1734 -1.2232
  131OSM    H8G14088   2.216   6.943   3.114 -0.2161  0.4239  1.7404
  131OSM    C9F14089   2.264   7.107   3.228 -0.4005  0.1448  0.0376
  131OSM    H9F14090   2.157   7.124   3.246 -1.3818 -0.9610 -3.6872
  131OSM   C10F14091   2.351   7.154   3.314 -0.7952 -1.0021  0.4948
  131OSM   H10F14092   2.312   7.224   3.389 -0.6172 -1.7532  1.3044
  131OSM   C11F14093   2.505   7.131   3.305  0.7028 -0.3511  0.8042
  131OSM   H11F14094   2.554   7.231   3.306 -0.2515  0.1405  0.0092
  131OSM   H11G14095   2.542   7.089   3.209 -2.1518  0.7643 -0.8970
  131OSM   C12F14096   2.559   7.049   3.418 -0.1988  0.2396 -0.3167
  131OSM   H12F14097   2.668   7.045   3.398 -0.5053 -0.8184 -1.9807
  131OSM   H12G14098   2.517   6.948   3.402  0.1507  0.0896 -0.2923
  131OSM   C13F14099   2.534   7.101   3.557 -0.1268 -0.5950  0.8259
  131OSM   H13F14100   2.429   7.075   3.583 -0.3564  0.6726  1.2216
  131OSM   H13G14101   2.556   7.209   3.562  1.8076 -0.8325 -1.1322
  131OSM   C14F14102   2.635   7.037   3.661  0.3989 -0.1216  0.4197
  131OSM   H14F14103   2.734   7.068   3.621 -1.0159  1.5694 -2.0367
  131OSM   H14G14104   2.626   6.927   3.651  0.1944 -0.1945  1.3131
  131OSM   C15F14105   2.611   7.064   3.809  0.4293  0.6533  0.5143
  131OSM   H15F14106   2.510   7.021   3.826 -0.2015  1.8062 -0.1348
  131OSM   H15G14107   2.598   7.173   3.830  0.8155  1.0983 -1.3781
  131OSM   C16F14108   2.722   7.007   3.894  1.0398 -0.4337 -0.5021
  131OSM   H16F14109   2.747   6.905   3.858  2.1928 -1.0862  1.9221
  131OSM   H16G14110   2.686   6.991   3.998 -0.1879 -2.7764 -1.2112
  131OSM   C17F14111   2.855   7.095   3.891 -0.6980  0.0740  0.6470
  131OSM   H17F14112   2.828   7.202   3.905  0.8493  0.7638 -1.1965
  131OSM   H17G14113   2.901   7.083   3.790  1.2659  0.0557  1.5073
  131OSM   C18F14114   2.953   7.058   3.997 -0.0963 -0.0341  0.6627
  131OSM   H18F14115   2.962   6.948   4.004  2.4313  0.0254 -0.6026
  131OSM   H18G14116   2.924   7.109   4.091  0.5405  0.3344  0.6653
  131OSM   H18H14117   3.054   7.099   3.975 -0.1054 -0.7467 -0.8814
  132OSM      N14118   0.556   6.630   1.754  0.8849  0.1320  0.8002
  132OSM    C1514119   0.423   6.700   1.768 -0.1492  0.0259 -0.6261
  132OSM   H15A14120   0.381   6.742   1.678 -0.5396  2.3133  0.5572
  132OSM   H15B14121   0.443   6.790   1.825  1.3808 -0.7181  0.0559
  132OSM   H15C14122   0.359   6.642   1.833  1.4096 -0.0125  0.9808
  132OSM    C1414123   0.634   6.693   1.653 -0.3598 -0.3397  0.0202
  132OSM   H14A14124   0.717   6.634   1.617 -1.3666 -1.3463 -0.7046
  132OSM   H14B14125   0.674   6.792   1.673 -0.4196 -0.5701  1.3904
  132OSM   H14C14126   0.567   6.709   1.570 -0.2272  2.1012  0.3001
  132OSM    C1314127   0.621   6.634   1.889 -0.0090 -0.5137  0.3271
  132OSM   H13A14128   0.728   6.632   1.877 -0.1093  1.3542 -1.4450
  132OSM   H13B14129   0.599   6.555   1.959 -0.1089  1.9216  3.2424
  132OSM   H13C14130   0.595   6.730   1.932  1.4262  0.6975 -1.3462
  132OSM    C1214131   0.529   6.480   1.713 -0.8636 -0.2296 -0.1389
  132OSM   H12A14132   0.622   6.439   1.675 -1.6920 -0.2761 -2.2722
  132OSM   H12B14133   0.459   6.469   1.632  1.1700 -2.5298 -1.7692
  132OSM    C1114134   0.483   6.380   1.833 -0.0030 -0.1148  0.2121
  132OSM   H11A14135   0.450   6.282   1.795  1.1175 -0.0792 -0.9232
  132OSM   H11B14136   0.387   6.414   1.877  0.5633  1.3392  0.4163
  132OSM      P14137   0.713   6.304   1.914 -0.4188 -0.0826 -0.0331
  132OSM    O1314138   0.705   6.158   1.928  0.4622  0.2864 -0.3345
  132OSM    O1414139   0.775   6.353   1.791 -0.5495  0.0821  0.4987
  132OSM    O1114140   0.792   6.352   2.045 -0.2772  0.2785  0.1614
  132OSM    O1214141   0.574   6.373   1.949 -0.1138  0.2121 -0.3253
  132OSM    C1S14142   0.744   6.303   2.171  0.0110 -0.2838 -0.7512
  132OSM    H1S14143   0.780   6.199   2.189 -1.5825 -0.6449  0.5946
  132OSM    H1T14144   0.634   6.296   2.178  0.0377 -0.2241 -0.1840
  132OSM     NF14145   0.754   6.350   2.417 -0.1146  0.1280 -0.2798
  132OSM    HNF14146   0.688   6.410   2.462 -0.5107 -2.0867  2.3486
  132OSM    C2S14147   0.793   6.393   2.286 -0.8709 -0.0249 -0.4024
  132OSM    H2S14148   0.904   6.393   2.295 -0.6265 -1.8779 -2.5862
  132OSM    C3S14149   0.771   6.542   2.255  0.7584 -0.2712  0.7461
  132OSM    H3S14150   0.665   6.549   2.226  1.0436  0.0566 -0.2413
  132OSM     O314151   0.834   6.599   2.136  0.2771  0.0428  0.0181
  132OSM    HO314152   0.864   6.516   2.097  1.2432  1.1467 -1.6911
  132OSM    C4S14153   0.804   6.639   2.366 -0.5645  0.3230  0.6526
  132OSM    H4S14154   0.911   6.638   2.393 -0.1521  0.7588 -0.8278
  132OSM    C5S14155   0.711   6.700   2.441  0.2233  0.0468  0.3168
  132OSM    H5S14156   0.610   6.658   2.428  1.2343 -2.1120 -1.0679
  132OSM    C6S14157   0.740   6.782   2.565 -0.1099 -0.0132 -0.7163
  132OSM    H6S14158   0.667   6.862   2.588  1.1677  0.6364  1.3729
  132OSM    H6T14159   0.841   6.829   2.567  0.1517 -0.6093  0.4118
  132OSM    C7S14160   0.733   6.691   2.691  0.4017  0.1247  0.4040
  132OSM    H7S14161   0.796   6.600   2.678 -0.0434 -0.1150 -0.1195
  132OSM    H7T14162   0.631   6.648   2.695 -1.3093  2.8029 -4.7202
  132OSM    C8S14163   0.778   6.770   2.818  0.2701  0.0337  0.1767
  132OSM    H8S14164   0.759   6.878   2.803  0.4242 -0.0482 -0.6506
  132OSM    H8T14165   0.887   6.750   2.820  0.0171 -1.6732 -1.2185
  132OSM    C9S14166   0.710   6.716   2.951  0.5846  0.2413  0.0563
  132OSM    H9S14167   0.696   6.606   2.948 -1.1083  0.4438 -0.9729
  132OSM    H9T14168   0.607   6.759   2.949  0.2452 -0.5198  0.5132
  132OSM   C10S14169   0.787   6.761   3.076  0.1052  0.0464  0.0030
  132OSM   H10S14170   0.802   6.871   3.078 -0.7961  0.1812 -0.2520
  132OSM   H10T14171   0.882   6.707   3.057 -0.3901 -0.0371 -2.7293
  132OSM   C11S14172   0.703   6.722   3.194 -0.1297 -0.1062 -0.5584
  132OSM   H11S14173   0.671   6.617   3.178  0.6312 -0.0816 -2.4460
  132OSM   H11T14174   0.620   6.796   3.202 -0.2299 -0.2974  0.3576
  132OSM   C12S14175   0.791   6.731   3.320 -0.0054 -0.4632  0.3764
  132OSM   H12S14176   0.820   6.838   3.324  0.3468 -0.5780  0.9659
  132OSM   H12T14177   0.884   6.670   3.313  1.1077  1.1687  0.4605
  132OSM   C13S14178   0.710   6.691   3.449 -0.5820  0.2278 -0.0081
  132OSM   H13S14179   0.669   6.588   3.440 -1.9502  0.4795  2.3472
  132OSM   H13T14180   0.619   6.751   3.472  0.5794  2.1254 -0.1976
  132OSM   C14S14181   0.805   6.699   3.569  0.5481 -0.0506 -0.3289
  132OSM   H14S14182   0.909   6.668   3.547  0.7440  1.7522 -2.2196
  132OSM   H14T14183   0.748   6.644   3.647 -1.4129 -0.4297 -1.9518
  132OSM   C15S14184   0.840   6.837   3.626  0.0293 -0.3639  0.2722
  132OSM   H15S14185   0.745   6.893   3.635  0.0464 -0.1612 -0.7467
  132OSM   H15T14186   0.906   6.889   3.554 -3.5466  1.4244 -2.0081
  132OSM   C16S14187   0.934   6.844   3.747  0.4180  0.3084 -0.2456
  132OSM   H16S14188   0.946   6.950   3.780 -2.4821  1.0269 -1.1933
  132OSM   H16T14189   1.040   6.816   3.728  0.0576 -2.2085  1.0820
  132OSM   C17S14190   0.880   6.770   3.872 -0.9374  0.7162  0.1337
  132OSM   H17S14191   0.864   6.669   3.829  1.2400  0.5598 -0.4231
  132OSM   H17T14192   0.784   6.807   3.915 -0.4792 -0.0898  1.9630
  132OSM   C18S14193   0.971   6.752   3.997  0.3835 -0.6414  0.1035
  132OSM   H18S14194   1.005   6.850   4.035 -0.4615  0.2153 -1.2820
  132OSM   H18T14195   1.065   6.707   3.960  0.8650  1.6360 -1.6320
  132OSM   H18U14196   0.926   6.694   4.081  0.9230  0.7878  1.4287
  132OSM    C1F14197   0.769   6.227   2.461 -0.4476  0.6800 -0.4715
  132OSM     OF14198   0.827   6.131   2.412  0.2762  0.4994 -0.0900
  132OSM    C2F14199   0.719   6.201   2.605  0.4407 -0.0451 -0.6239
  132OSM    H2F14200   0.614   6.166   2.614  1.3648 -2.6515  1.7079
  132OSM    H2G14201   0.713   6.304   2.646  1.2616  0.1190 -0.8841
  132OSM    C3F14202   0.819   6.109   2.682  0.0529 -0.1779 -0.1898
  132OSM    H3F14203   0.921   6.154   2.681  0.4796 -1.0510  1.1700
  132OSM    H3G14204   0.822   6.015   2.624  1.8920  0.6556 -1.5378
  132OSM    C4F14205   0.782   6.092   2.828  0.7086 -0.2419 -0.4791
  132OSM    H4F14206   0.678   6.053   2.831  1.0233 -1.1335 -0.8570
  132OSM    H4G14207   0.789   6.189   2.881  0.3458  0.3599 -1.4902
  132OSM    C5F14208   0.879   5.998   2.907  0.7964  0.0542  0.3062
  132OSM    H5F14209   0.985   6.033   2.905  0.1409  2.2093  0.4861
  132OSM    H5G14210   0.869   5.902   2.852  1.9561  2.0036 -3.6872
  132OSM    C6F14211   0.846   5.994   3.055  0.1075 -0.0952  0.6168
  132OSM    H6F14212   0.738   5.967   3.064  0.3835 -1.0245  1.2501
  132OSM    H6G14213   0.864   6.098   3.088  3.1348 -1.2774  3.2191
  132OSM    C7F14214   0.934   5.892   3.119 -0.2625 -0.4188  0.1414
  132OSM    H7F14215   1.039   5.929   3.116 -0.7078  1.0039  1.0653
  132OSM    H7G14216   0.947   5.798   3.060  3.6453 -0.6825  1.1691
  132OSM    C8F14217   0.909   5.859   3.265  0.0564  0.2983 -0.6244
  132OSM    H8F14218   0.980   5.784   3.305 -1.5854  0.3371  2.6344
  132OSM    H8G14219   0.811   5.808   3.262  0.1702 -0.0409  0.9152
  132OSM    C9F14220   0.899   5.975   3.360 -0.6955 -0.0813  0.0859
  132OSM    H9F14221   0.846   6.066   3.326 -0.3601 -0.0861 -0.4635
  132OSM   C10F14222   0.961   5.967   3.480  0.6210 -0.1278  0.4731
  132OSM   H10F14223   0.950   6.058   3.540  3.1218  1.0622 -0.7117
  132OSM   C11F14224   1.037   5.851   3.543  0.5515  0.8563  0.2656
  132OSM   H11F14225   1.106   5.815   3.464  1.4895  1.0907  0.9525
  132OSM   H11G14226   0.971   5.765   3.563  0.1667  1.2762  0.8546
  132OSM   C12F14227   1.114   5.886   3.670 -0.3145 -0.6563  0.0153
  132OSM   H12F14228   1.197   5.955   3.644 -0.1598 -0.9881 -0.3872
  132OSM   H12G14229   1.164   5.790   3.695  1.2837 -0.2412 -1.3873
  132OSM   C13F14230   1.032   5.927   3.793  0.4012 -1.0154 -0.2283
  132OSM   H13F14231   0.935   5.875   3.796  1.0353 -2.2389  3.2011
  132OSM   H13G14232   1.003   6.034   3.788 -1.7727 -1.4097  2.0427
  132OSM   C14F14233   1.115   5.912   3.927  0.2133 -0.1323  0.9002
  132OSM   H14F14234   1.058   5.959   4.010 -1.9544 -1.1135  0.0540
  132OSM   H14G14235   1.212   5.961   3.908  1.2822 -2.3163  0.3501
  132OSM   C15F14236   1.152   5.769   3.968  0.6171 -0.6494 -0.3638
  132OSM   H15F14237   1.215   5.777   4.059  2.4287 -1.7633 -1.4598
  132OSM   H15G14238   1.217   5.717   3.894 -0.7511  0.5074 -2.5097
  132OSM   C16F14239   1.026   5.680   3.992 -0.1153  0.1096  0.7885
  132OSM   H16F14240   0.960   5.690   3.903  1.7680  3.1079 -0.3952
  132OSM   H16G14241   0.966   5.707   4.082  0.2295  1.3444  0.6670
  132OSM   C17F14242   1.061   5.531   4.021 -0.0648 -0.4221  0.6299
  132OSM   H17F14243   1.110   5.487   3.931 -0.6963 -0.4166  0.2738
  132OSM   H17G14244   0.965   5.474   4.016  0.1423 -0.7746  0.5864
  132OSM   C18F14245   1.151   5.507   4.138  0.6678 -0.3981 -0.4771
  132OSM   H18F14246   1.106   5.557   4.227  1.1371  0.6136 -0.8017
  132OSM   H18G14247   1.251   5.554   4.140  0.8343 -0.7560 -0.0369
  132OSM   H18H14248   1.166   5.398   4.153  1.5471 -0.2937 -0.5686
  133OSM      N14249   4.541   1.725   1.853  0.3895 -0.2322  0.5813
  133OSM    C1514250   4.563   1.585   1.818 -0.0479 -0.0849 -1.2482
  133OSM   H15A14251   4.606   1.520   1.894 -3.9473  0.1676  1.4580
  133OSM   H15B14252   4.629   1.573   1.733  0.7189  2.5978 -1.1201
  133OSM   H15C14253   4.471   1.536   1.790 -1.2875  1.3685  0.0608
  133OSM    C1414254   4.669   1.791   1.842 -0.3745 -0.8069 -0.5766
  133OSM   H14A14255   4.660   1.896   1.864 -2.3881 -0.2899 -3.2654
  133OSM   H14B14256   4.713   1.789   1.743  1.5838  1.7050  0.1470
  133OSM   H14C14257   4.736   1.734   1.905  0.0522 -1.8579 -1.9247
  133OSM    C1314258   4.445   1.779   1.749  0.9526  0.9651  0.5085
  133OSM   H13A14259   4.501   1.787   1.658 -1.8666 -0.6692 -1.5244
  133OSM   H13B14260   4.414   1.880   1.768  0.5475  0.5440  2.3074
  133OSM   H13C14261   4.363   1.710   1.737  2.1914 -0.5671  0.4148
  133OSM    C1214262   4.477   1.729   1.995  0.0195 -1.0561  0.4301
  133OSM   H12A14263   4.498   1.827   2.035 -0.2145 -0.1321 -1.5904
  133OSM   H12B14264   4.533   1.672   2.068  0.0652 -0.1222  1.1346
  133OSM    C1114265   4.337   1.692   2.017 -0.2033 -0.1224 -0.6154
  133OSM   H11A14266   4.271   1.774   1.980 -0.2073 -0.3617 -1.1449
  133OSM   H11B14267   4.312   1.689   2.125 -2.5586  2.3026 -0.9987
  133OSM      P14268   4.167   1.509   1.931  0.0399  0.0917  0.4041
  133OSM    O1314269   4.099   1.608   1.843  0.2782  0.6739  0.0340
  133OSM    O1414270   4.180   1.371   1.871 -0.2982  0.1399 -0.0574
  133OSM    O1114271   4.092   1.494   2.076 -0.1712 -0.3223  0.7111
  133OSM    O1214272   4.310   1.563   1.963 -0.3081  0.1028 -0.8200
  133OSM    C1S14273   4.157   1.412   2.175 -0.6007 -0.4760 -0.5449
  133OSM    H1S14274   4.252   1.362   2.148  0.6784  1.4514  0.1912
  133OSM    H1T14275   4.093   1.323   2.189 -0.1943 -0.3838  2.7051
  133OSM     NF14276   4.244   1.414   2.410  0.0737  0.1430 -0.4717
  133OSM    HNF14277   4.193   1.381   2.489  1.1955 -0.4202  0.0428
  133OSM    C2S14278   4.168   1.485   2.314 -0.4887 -0.1357 -0.0149
  133OSM    H2S14279   4.232   1.576   2.304  1.1984 -1.3542 -0.9452
  133OSM    C3S14280   4.029   1.522   2.366  0.2604 -0.0435 -0.3360
  133OSM    H3S14281   3.974   1.429   2.390 -4.0205  1.9081 -1.5672
  133OSM     O314282   3.939   1.574   2.271  0.5850  0.1811  0.1932
  133OSM    HO314283   3.998   1.575   2.195  1.4890 -0.6196  0.8641
  133OSM    C4S14284   4.027   1.597   2.497  0.0616  0.3468 -0.8154
  133OSM    H4S14285   4.010   1.537   2.588  0.5177  0.4636 -0.6503
  133OSM    C5S14286   4.036   1.729   2.515  0.3262 -0.4632 -0.0742
  133OSM    H5S14287   4.045   1.783   2.420  1.0877 -2.0139 -0.9228
  133OSM    C6S14288   4.029   1.811   2.645  0.0758 -0.1674  0.4141
  133OSM    H6S14289   3.935   1.870   2.640  0.3502  0.3850  1.4588
  133OSM    H6T14290   4.106   1.891   2.636 -1.7273  1.5118 -0.9694
  133OSM    C7S14291   4.055   1.744   2.778 -0.2883  0.3190 -1.0884
  133OSM    H7S14292   4.160   1.709   2.784 -0.3106  0.4549  3.1205
  133OSM    H7T14293   3.991   1.653   2.775  2.8604 -2.0453 -2.7974
  133OSM    C8S14294   4.020   1.832   2.894  0.6376 -0.0603  0.0312
  133OSM    H8S14295   3.911   1.851   2.890  0.5199 -0.2024  1.7081
  133OSM    H8T14296   4.078   1.926   2.882  0.2391  0.0281 -1.3616
  133OSM    C9S14297   4.048   1.761   3.030 -0.0892 -0.2987  0.3221
  133OSM    H9S14298   4.148   1.713   3.024  0.3731  0.6032  0.7340
  133OSM    H9T14299   3.970   1.684   3.049  0.6728 -0.8198  1.5063
  133OSM   C10S14300   4.034   1.864   3.137 -0.0767 -0.0578  0.1076
  133OSM   H10S14301   3.927   1.888   3.152 -0.0863  0.5234 -0.8215
  133OSM   H10T14302   4.073   1.964   3.109 -0.3690 -0.1002 -0.4637
  133OSM   C11S14303   4.096   1.821   3.268 -0.6019 -0.0281 -0.2863
  133OSM   H11S14304   4.206   1.812   3.256 -0.6343  0.4963 -1.0087
  133OSM   H11T14305   4.060   1.720   3.298 -0.1265  0.4287  2.0334
  133OSM   C12S14306   4.072   1.917   3.379  0.9507 -0.2956 -0.0951
  133OSM   H12S14307   3.965   1.927   3.408  0.1283 -2.8776 -1.8455
  133OSM   H12T14308   4.108   2.020   3.356 -0.2840  0.3861  0.8820
  133OSM   C13S14309   4.132   1.868   3.511 -0.3142 -0.0222 -0.2027
  133OSM   H13S14310   4.240   1.842   3.503  0.1007  1.5990 -0.2387
  133OSM   H13T14311   4.090   1.771   3.547  0.1117  0.2287  1.0202
  133OSM   C14S14312   4.140   1.968   3.633  0.8281  0.2933 -0.9553
  133OSM   H14S14313   4.103   2.069   3.607 -2.3488 -0.4186  0.2887
  133OSM   H14T14314   4.246   1.966   3.664  0.9366 -2.4980 -1.1836
  133OSM   C15S14315   4.049   1.916   3.750 -0.4548 -0.2238 -0.7851
  133OSM   H15S14316   4.083   1.811   3.761  3.2701  0.9203  0.0574
  133OSM   H15T14317   3.940   1.927   3.733 -1.5785  1.1647  5.2300
  133OSM   C16S14318   4.076   1.983   3.888 -0.1299  0.3455  0.3449
  133OSM   H16S14319   4.163   2.052   3.881  1.4145 -1.6002 -0.2848
  133OSM   H16T14320   4.088   1.900   3.961  1.3017  0.9313  0.8044
  133OSM   C17S14321   3.956   2.068   3.944  0.0092 -0.3223  0.0103
  133OSM   H17S14322   3.860   2.016   3.923 -1.0209  0.7127  1.8705
  133OSM   H17T14323   3.963   2.166   3.891  0.4622 -1.0072 -1.2441
  133OSM   C18S14324   3.977   2.079   4.093  0.2803 -0.0710 -0.0403
  133OSM   H18S14325   4.079   2.117   4.118  0.5958 -0.2481 -1.0292
  133OSM   H18T14326   3.979   1.981   4.146 -1.3508 -0.8170 -1.2805
  133OSM   H18U14327   3.896   2.138   4.140 -0.9529 -1.4874 -0.3180
  133OSM    C1F14328   4.375   1.388   2.402  0.3587 -0.7464  0.3437
  133OSM     OF14329   4.432   1.442   2.310 -0.1098  0.1187  0.2331
  133OSM    C2F14330   4.446   1.312   2.510  0.1907  0.0549  0.4234
  133OSM    H2F14331   4.374   1.231   2.530  0.2613 -0.7790 -2.2677
  133OSM    H2G14332   4.465   1.382   2.594 -0.0025  1.0997 -0.3718
  133OSM    C3F14333   4.588   1.265   2.469  0.0414 -0.4863 -0.2124
  133OSM    H3F14334   4.658   1.351   2.455 -0.1659 -0.0290  1.3135
  133OSM    H3G14335   4.588   1.196   2.383 -1.9082 -0.4034 -0.3144
  133OSM    C4F14336   4.654   1.192   2.596  1.1577 -0.2080 -0.0204
  133OSM    H4F14337   4.748   1.147   2.557  0.7892 -0.7798 -0.2697
  133OSM    H4G14338   4.572   1.131   2.639  0.5262  0.0182 -0.8698
  133OSM    C5F14339   4.696   1.285   2.709  0.0529 -1.1983  0.1379
  133OSM    H5F14340   4.677   1.386   2.666 -1.2905 -2.0621 -1.4343
  133OSM    H5G14341   4.802   1.253   2.717  1.2178  1.8218 -1.4213
  133OSM    C6F14342   4.625   1.260   2.843  0.5516 -0.1538 -0.6286
  133OSM    H6F14343   4.666   1.168   2.890  1.4200  1.9769  3.2435
  133OSM    H6G14344   4.516   1.238   2.831  0.7738 -1.4096 -0.4655
  133OSM    C7F14345   4.633   1.381   2.937 -0.1395  0.0864 -0.1320
  133OSM    H7F14346   4.562   1.380   3.023 -1.2596  3.4424 -0.8684
  133OSM    H7G14347   4.595   1.462   2.871  0.0484  0.9096  0.7574
  133OSM    C8F14348   4.773   1.428   2.981 -0.5208 -0.7395  0.3578
  133OSM    H8F14349   4.862   1.392   2.926  0.1072  1.1622  0.0401
  133OSM    H8G14350   4.798   1.385   3.080 -0.6454 -3.9452 -0.8914
  133OSM    C9F14351   4.779   1.580   2.984  0.2869 -0.7304 -0.4297
  133OSM    H9F14352   4.751   1.631   2.891  0.4915  1.3843  0.6039
  133OSM   C10F14353   4.826   1.658   3.084  0.7302  0.7086  0.6545
  133OSM   H10F14354   4.821   1.767   3.072  1.6328  0.5590 -1.5908
  133OSM   C11F14355   4.894   1.605   3.208  0.2221  0.3314 -0.5292
  133OSM   H11F14356   4.984   1.665   3.234 -0.1312 -0.1330  1.9283
  133OSM   H11G14357   4.924   1.498   3.197  0.5567  0.1416  1.8711
  133OSM   C12F14358   4.802   1.603   3.333 -0.4828  0.0067 -0.2823
  133OSM   H12F14359   4.872   1.564   3.409 -1.6409 -0.9142  0.3570
  133OSM   H12G14360   4.713   1.538   3.317  0.0161 -0.6852 -0.2492
  133OSM   C13F14361   4.766   1.750   3.367 -0.1074  0.7230  0.2542
  133OSM   H13F14362   4.704   1.788   3.283 -0.6419 -1.3267 -0.3411
  133OSM   H13G14363   4.864   1.802   3.374  1.0841 -0.7934 -3.1624
  133OSM   C14F14364   4.684   1.763   3.494 -0.6602 -0.0171  0.1143
  133OSM   H14F14365   4.750   1.723   3.574 -0.3439  0.0230 -0.1213
  133OSM   H14G14366   4.601   1.691   3.478 -0.1341 -0.2592 -1.8053
  133OSM   C15F14367   4.641   1.905   3.516 -0.0452  0.0575 -0.0458
  133OSM   H15F14368   4.593   1.945   3.424 -0.3267  2.1689  0.9626
  133OSM   H15G14369   4.729   1.970   3.530  0.5174 -1.1815  2.8958
  133OSM   C16F14370   4.545   1.931   3.635  0.4425  0.2819 -0.3838
  133OSM   H16F14371   4.447   1.881   3.619 -0.0020  1.3032 -0.9667
  133OSM   H16G14372   4.518   2.038   3.638  0.6843  0.3380 -0.1419
  133OSM   C17F14373   4.600   1.903   3.778  0.0848  0.0766  0.4604
  133OSM   H17F14374   4.624   1.796   3.788  0.1079  0.1235  0.9240
  133OSM   H17G14375   4.514   1.927   3.844 -2.0297  0.0931 -2.1146
  133OSM   C18F14376   4.713   1.990   3.824  0.6041 -0.2845  0.5515
  133OSM   H18F14377   4.764   1.968   3.921  0.5148  0.2299  0.7193
  133OSM   H18G14378   4.674   2.094   3.826  0.2933 -0.3562 -1.1076
  133OSM   H18H14379   4.788   1.991   3.742 -0.5780  0.6121 -0.5596
  134OSM      N14380   4.468   4.254   2.220 -0.4401 -0.2105  0.3899
  134OSM    C1514381   4.365   4.343   2.288  0.4702 -0.5921  0.1965
  134OSM   H15A14382   4.333   4.425   2.225 -0.3871 -2.1726 -1.5135
  134OSM   H15B14383   4.409   4.378   2.380  1.3326 -0.4858 -0.2506
  134OSM   H15C14384   4.275   4.286   2.308 -0.6713  0.7676 -0.8146
  134OSM    C1414385   4.408   4.174   2.105  0.5013 -0.5509  0.0152
  134OSM   H14A14386   4.335   4.106   2.146  0.3273  0.4519  1.4155
  134OSM   H14B14387   4.487   4.127   2.047  2.3306  2.2206  0.0766
  134OSM   H14C14388   4.358   4.236   2.033  0.3572 -1.9713 -1.1603
  134OSM    C1314389   4.563   4.354   2.158  0.0344  0.3308  0.2791
  134OSM   H13A14390   4.638   4.380   2.230  1.1081  1.3936 -1.1706
  134OSM   H13B14391   4.515   4.438   2.111 -0.5563 -0.0633  0.1622
  134OSM   H13C14392   4.625   4.310   2.082  0.0799 -1.6920  1.4034
  134OSM    C1214393   4.523   4.154   2.319 -0.1796 -0.3214  0.4629
  134OSM   H12A14394   4.574   4.073   2.268  1.3985  0.8774  0.0378
  134OSM   H12B14395   4.442   4.100   2.365 -0.9463  1.5853  1.4272
  134OSM    C1114396   4.597   4.213   2.444  0.7593 -0.0327 -0.0641
  134OSM   H11A14397   4.626   4.139   2.521  1.0381  0.5900  0.4397
  134OSM   H11B14398   4.527   4.289   2.485  0.0878 -0.8819  0.3828
  134OSM      P14399   4.843   4.196   2.356  0.0045 -0.4089  0.2446
  134OSM    O1314400   4.810   4.055   2.340 -0.7020  0.7554 -0.0606
  134OSM    O1414401   4.914   4.266   2.244 -0.0429  0.4061 -0.2305
  134OSM    O1114402   4.922   4.223   2.492  0.0486 -0.2914 -0.0262
  134OSM    O1214403   4.712   4.283   2.389 -0.4814  0.1643  0.1191
  134OSM    C1S14404   5.062   4.215   2.490  0.4522 -0.3156  0.1797
  134OSM    H1S14405   5.107   4.289   2.420 -0.0654 -0.7914 -0.6663
  134OSM    H1T14406   5.097   4.113   2.464  1.3785 -0.3647  1.5011
  134OSM     NF14407   5.253   4.279   2.643  0.1980  0.5407 -0.2914
  134OSM    HNF14408   5.320   4.218   2.683 -0.8916  0.6764  1.8849
  134OSM    C2S14409   5.110   4.236   2.639 -0.1885 -0.2308  0.1331
  134OSM    H2S14410   5.048   4.324   2.667 -1.0845  0.0819 -2.5663
  134OSM    C3S14411   5.070   4.117   2.736 -0.1385  0.2909 -0.5356
  134OSM    H3S14412   5.126   4.033   2.692 -0.0693  0.6606 -1.1667
  134OSM     O314413   4.933   4.081   2.739 -0.5850 -0.1787 -0.4735
  134OSM    HO314414   4.884   4.140   2.682 -0.1493  0.9885  0.3194
  134OSM    C4S14415   5.111   4.132   2.874 -0.2356  0.4951 -0.4712
  134OSM    H4S14416   5.207   4.084   2.898 -1.3231 -1.2472  0.6276
  134OSM    C5S14417   5.050   4.196   2.983 -0.3815 -0.1291  0.2783
  134OSM    H5S14418   4.947   4.234   2.980 -0.4311 -0.2414  0.5367
  134OSM    C6S14419   5.121   4.215   3.111 -0.1267  0.8585 -0.2856
  134OSM    H6S14420   5.156   4.320   3.114  0.3123  0.7593 -1.5038
  134OSM    H6T14421   5.208   4.146   3.120  0.4620  1.7945  1.7355
  134OSM    C7S14422   5.034   4.204   3.235 -0.2665 -0.4458  0.3456
  134OSM    H7S14423   4.998   4.100   3.250 -1.0663 -0.1716  0.3834
  134OSM    H7T14424   4.945   4.264   3.206  1.3591  0.9236 -2.1390
  134OSM    C8S14425   5.108   4.256   3.362 -0.4179  0.1373  0.2804
  134OSM    H8S14426   5.124   4.365   3.352  1.0855 -0.0544  0.3260
  134OSM    H8T14427   5.203   4.204   3.390 -0.7280 -0.9140 -0.5438
  134OSM    C9S14428   5.018   4.243   3.484  0.0932  0.2573  0.1862
  134OSM    H9S14429   4.989   4.140   3.513  1.5653  0.1183  1.2067
  134OSM    H9T14430   4.923   4.301   3.473 -0.0756  0.1583  1.0517
  134OSM   C10S14431   5.074   4.293   3.617  0.2442  0.5993 -0.2826
  134OSM   H10S14432   5.130   4.387   3.594  3.1561 -1.0580 -0.5040
  134OSM   H10T14433   5.150   4.213   3.630  0.5298  0.7890 -0.7388
  134OSM   C11S14434   4.991   4.298   3.747  0.5623  0.6061  0.8629
  134OSM   H11S14435   4.973   4.190   3.761 -0.2082  0.0703 -3.0428
  134OSM   H11T14436   4.898   4.355   3.725 -0.7142 -2.1255 -1.4383
  134OSM   C12S14437   5.067   4.352   3.864 -0.6017  0.0543 -0.0478
  134OSM   H12S14438   5.102   4.457   3.855 -1.7058  0.5512  1.1757
  134OSM   H12T14439   5.163   4.296   3.865 -0.9034 -0.4697  0.0813
  134OSM   C13S14440   5.002   4.339   3.998  0.1249 -0.0089 -0.1063
  134OSM   H13S14441   4.938   4.248   3.993 -3.4782  2.4199 -1.0623
  134OSM   H13T14442   4.933   4.425   4.004 -0.9446 -0.9387  4.1403
  134OSM   C14S14443   5.106   4.319   4.107 -0.4493  0.0293 -0.4859
  134OSM   H14S14444   5.176   4.406   4.104 -0.2734  0.2804  4.0741
  134OSM   H14T14445   5.161   4.224   4.090 -0.7871 -0.3074  0.2563
  134OSM   C15S14446   5.041   4.327   4.253  0.3259 -0.3036  0.0925
  134OSM   H15S14447   4.945   4.272   4.258 -0.6111  1.0497 -1.7049
  134OSM   H15T14448   5.020   4.431   4.285  0.4759 -0.1118 -0.4125
  134OSM   C16S14449   5.142   4.266   4.355  0.1398  0.5158 -0.0420
  134OSM   H16S14450   5.237   4.323   4.351  0.7113 -0.1176  2.4840
  134OSM   H16T14451   5.160   4.161   4.325 -2.2400  0.0791 -0.0992
  134OSM   C17S14452   5.089   4.260   4.499  0.9802 -0.5567 -0.2640
  134OSM   H17S14453   5.171   4.206   4.551  1.9486  1.3748  0.2889
  134OSM   H17T14454   4.992   4.207   4.486  0.0025  1.1591 -0.2108
  134OSM   C18S14455   5.052   4.395   4.561 -0.3573  0.4963 -0.3937
  134OSM   H18S14456   5.019   4.376   4.665  1.2349 -0.3352 -0.0123
  134OSM   H18T14457   4.964   4.431   4.504  1.2274  2.0308 -2.0143
  134OSM   H18U14458   5.139   4.462   4.542 -0.4979  0.5424 -0.8836
  134OSM    C1F14459   5.304   4.396   2.595 -0.0405  0.7956  0.0624
  134OSM     OF14460   5.226   4.484   2.584 -0.7417  0.9230  1.2574
  134OSM    C2F14461   5.450   4.425   2.576 -0.2165  1.0625  0.1543
  134OSM    H2F14462   5.467   4.438   2.467  0.9392  0.2572  0.2235
  134OSM    H2G14463   5.504   4.332   2.604 -1.3479 -0.0258 -1.1138
  134OSM    C3F14464   5.493   4.533   2.676 -0.3505  0.1649  0.6435
  134OSM    H3F14465   5.456   4.631   2.637 -0.7587 -0.1381  0.2656
  134OSM    H3G14466   5.604   4.538   2.669 -0.3795  1.0255  0.5904
  134OSM    C4F14467   5.462   4.519   2.827 -0.0015  0.2158 -0.7315
  134OSM    H4F14468   5.352   4.527   2.842 -0.6715 -2.7984 -2.9797
  134OSM    H4G14469   5.516   4.607   2.867 -0.0044  0.5613 -1.4638
  134OSM    C5F14470   5.511   4.387   2.900  0.5768 -0.2253 -0.7791
  134OSM    H5F14471   5.618   4.375   2.875  1.4921 -0.2545  2.6628
  134OSM    H5G14472   5.452   4.295   2.877 -0.6633  0.3543 -0.0264
  134OSM    C6F14473   5.494   4.406   3.050 -0.7519  0.0823  0.3061
  134OSM    H6F14474   5.386   4.429   3.061 -0.4515  2.2481 -0.8572
  134OSM    H6G14475   5.538   4.496   3.097 -2.2966  0.0147  1.9845
  134OSM    C7F14476   5.527   4.284   3.132  0.5183 -0.3562  1.0338
  134OSM    H7F14477   5.636   4.266   3.127  0.4431 -0.9783  1.5223
  134OSM    H7G14478   5.474   4.193   3.097  0.6654 -0.0570 -0.0087
  134OSM    C8F14479   5.480   4.284   3.285  0.1160  0.0406  0.1508
  134OSM    H8F14480   5.527   4.197   3.336 -1.3423 -1.6555 -1.2595
  134OSM    H8G14481   5.371   4.270   3.271 -0.0763  0.6217  1.0008
  134OSM    C9F14482   5.492   4.411   3.358  0.5273  0.5449  1.0049
  134OSM    H9F14483   5.521   4.496   3.294 -2.4004  1.0830  0.2422
  134OSM   C10F14484   5.486   4.422   3.489 -0.2460 -0.8258 -0.4734
  134OSM   H10F14485   5.516   4.521   3.527 -2.1155  0.2003 -1.5452
  134OSM   C11F14486   5.463   4.315   3.595  0.4541  0.4758 -0.6638
  134OSM   H11F14487   5.559   4.260   3.603  0.0258 -0.2313 -0.2805
  134OSM   H11G14488   5.400   4.235   3.550 -0.3027  1.6376 -1.7244
  134OSM   C12F14489   5.387   4.371   3.718  0.0901  0.3195  1.0246
  134OSM   H12F14490   5.335   4.287   3.768 -0.9446  0.1712 -0.2460
  134OSM   H12G14491   5.307   4.442   3.687  2.9553  3.3401 -0.0766
  134OSM   C13F14492   5.465   4.452   3.816 -0.4696  0.1377  0.0759
  134OSM   H13F14493   5.490   4.551   3.773 -1.7949  0.7696  0.6754
  134OSM   H13G14494   5.559   4.395   3.828 -1.0704 -1.0870 -0.8882
  134OSM   C14F14495   5.392   4.489   3.944  0.3428 -0.2228  0.0883
  134OSM   H14F14496   5.356   4.392   3.985  3.3975 -0.9290  1.4156
  134OSM   H14G14497   5.321   4.569   3.915  2.2405  0.7128 -2.3386
  134OSM   C15F14498   5.499   4.534   4.050  0.5893 -0.3375  0.5689
  134OSM   H15F14499   5.560   4.620   4.013  0.4182  0.6413  2.4254
  134OSM   H15G14500   5.573   4.459   4.084 -0.2618 -0.6053  1.9142
  134OSM   C16F14501   5.443   4.578   4.187 -1.0683 -0.0290 -0.6213
  134OSM   H16F14502   5.527   4.601   4.256 -0.4884  0.6006 -1.5227
  134OSM   H16G14503   5.394   4.485   4.223  1.1779 -0.8771  0.4535
  134OSM   C17F14504   5.340   4.695   4.183 -0.3082 -0.0147  0.3254
  134OSM   H17F14505   5.266   4.681   4.101  1.0531 -0.6171 -0.8666
  134OSM   H17G14506   5.388   4.792   4.160  0.9230 -0.6487  0.0986
  134OSM   C18F14507   5.264   4.705   4.311 -0.5946 -0.7235 -0.9027
  134OSM   H18F14508   5.175   4.769   4.293  0.6532  0.6695 -2.3445
  134OSM   H18G14509   5.319   4.748   4.398  0.7008  2.0565 -2.9213
  134OSM   H18H14510   5.224   4.604   4.333 -2.1614 -0.0945 -0.7146
  135OSM      N14511   0.032   0.388   2.105 -0.2549  0.3601 -0.2606
  135OSM    C1514512  -0.006   0.486   2.208  0.3800  0.1376  0.6776
  135OSM   H15A14513  -0.082   0.457   2.279 -1.1156 -0.5158 -1.1508
  135OSM   H15B14514  -0.026   0.585   2.169  2.0118 -0.2685 -1.3363
  135OSM   H15C14515   0.067   0.510   2.285 -1.0352  1.6830  1.6283
  135OSM    C1414516  -0.070   0.372   1.995  0.0955 -0.0282 -0.0861
  135OSM   H14A14517  -0.033   0.317   1.910 -1.0212  1.3270 -1.5132
  135OSM   H14B14518  -0.091   0.467   1.948  2.9175 -0.0448 -1.5774
  135OSM   H14C14519  -0.162   0.318   2.015  1.7847 -3.3249 -0.5873
  135OSM    C1314520   0.170   0.431   2.053 -0.3417 -0.2115  0.6722
  135OSM   H13A14521   0.175   0.517   1.988  1.6787 -0.5574  0.2955
  135OSM   H13B14522   0.208   0.356   1.984  2.1499  2.4209 -1.0659
  135OSM   H13C14523   0.235   0.439   2.139 -0.9530 -1.9400  1.3416
  135OSM    C1214524   0.035   0.253   2.180  0.0864  0.1034 -0.4345
  135OSM   H12A14525  -0.064   0.222   2.207  0.2946  0.4176  0.7691
  135OSM   H12B14526   0.093   0.262   2.271 -0.7384 -1.4425  0.2722
  135OSM    C1114527   0.098   0.127   2.105  0.0531 -0.2271 -0.0036
  135OSM   H11A14528   0.033   0.113   2.016 -1.4641  0.3067  0.9874
  135OSM   H11B14529   0.091   0.042   2.177  0.4098 -0.1942  0.0695
  135OSM      P14530   0.352   0.054   2.105  0.0381 -0.0167  0.0094
  135OSM    O1314531   0.316  -0.075   2.040  0.0770 -0.3476  0.3645
  135OSM    O1414532   0.484   0.115   2.070  0.9792 -0.1364  0.1010
  135OSM    O1114533   0.337   0.038   2.262 -0.9771 -0.0596  0.3345
  135OSM    O1214534   0.232   0.151   2.062  0.2890 -0.4084 -0.1343
  135OSM    C1S14535   0.373   0.140   2.354  0.0423  0.1831  0.0972
  135OSM    H1S14536   0.355   0.238   2.305  0.3517 -0.4046 -1.2335
  135OSM    H1T14537   0.480   0.137   2.386 -0.4423 -0.8873  1.7864
  135OSM     NF14538   0.310   0.241   2.562 -0.0844 -0.1768 -0.4470
  135OSM    HNF14539   0.380   0.226   2.631  1.3337  1.7407 -1.3594
  135OSM    C2S14540   0.294   0.123   2.480 -0.0836 -0.1215 -0.5314
  135OSM    H2S14541   0.190   0.102   2.448  0.0541 -1.9238  0.0837
  135OSM    C3S14542   0.337  -0.002   2.554 -0.1731  0.2376  0.0953
  135OSM    H3S14543   0.447  -0.003   2.566 -0.1257 -3.2731  0.3894
  135OSM     O314544   0.316  -0.124   2.478 -0.8586 -0.4474  0.2537
  135OSM    HO314545   0.290  -0.089   2.392 -1.7434  1.8500  1.3572
  135OSM    C4S14546   0.279  -0.007   2.696 -0.4190 -0.4167  0.4160
  135OSM    H4S14547   0.170  -0.009   2.705 -0.2988 -0.4836  2.0332
  135OSM    C5S14548   0.351  -0.011   2.806 -0.4063  0.5482 -0.0764
  135OSM    H5S14549   0.459   0.004   2.788 -0.4161  0.1364 -0.4810
  135OSM    C6S14550   0.304  -0.023   2.947 -0.2368  0.2287 -0.3555
  135OSM    H6S14551   0.320  -0.130   2.973  1.0158  0.1378 -1.4404
  135OSM    H6T14552   0.193  -0.017   2.947 -0.2617  0.6273 -2.8440
  135OSM    C7S14553   0.362   0.078   3.050  0.1313 -0.3614  0.3072
  135OSM    H7S14554   0.472   0.088   3.061 -0.0711  1.5297  0.9663
  135OSM    H7T14555   0.321   0.044   3.148 -1.7589 -0.2878 -0.4265
  135OSM    C8S14556   0.291   0.215   3.052 -0.0806  0.6989 -0.2496
  135OSM    H8S14557   0.202   0.221   3.118  1.1884  1.3769  1.4574
  135OSM    H8T14558   0.274   0.228   2.943 -0.4229 -1.4388 -0.5002
  135OSM    C9S14559   0.387   0.311   3.117  0.5500 -0.2529  0.1965
  135OSM    H9S14560   0.348   0.415   3.110  5.0195  1.6675  0.3828
  135OSM    H9T14561   0.480   0.309   3.056  0.6179 -0.5039  0.3081
  135OSM   C10S14562   0.420   0.282   3.264  0.1705 -0.0457 -0.5772
  135OSM   H10S14563   0.486   0.193   3.276 -0.1085  0.1322  4.1733
  135OSM   H10T14564   0.331   0.249   3.321  1.2515 -0.0474  1.1960
  135OSM   C11S14565   0.469   0.395   3.358 -0.5246 -0.2671 -0.1956
  135OSM   H11S14566   0.391   0.474   3.354 -0.0614  0.1559 -1.3683
  135OSM   H11T14567   0.562   0.446   3.324 -0.8848  0.5433  0.0205
  135OSM   C12S14568   0.488   0.357   3.503 -0.1594  0.7223 -0.3340
  135OSM   H12S14569   0.564   0.276   3.502  0.3960  1.2172  0.2800
  135OSM   H12T14570   0.394   0.314   3.542  0.8746 -1.6728 -0.3466
  135OSM   C13S14571   0.563   0.467   3.583  0.3216 -0.7027  0.4816
  135OSM   H13S14572   0.524   0.565   3.547  1.6207 -0.2852  0.1619
  135OSM   H13T14573   0.674   0.463   3.585  0.4062  0.6200 -0.2219
  135OSM   C14S14574   0.525   0.474   3.730 -0.0845  0.7020 -1.3225
  135OSM   H14S14575   0.421   0.508   3.744 -0.1653 -0.4974  1.6363
  135OSM   H14T14576   0.599   0.544   3.775  2.3947 -1.9786 -0.9490
  135OSM   C15S14577   0.555   0.332   3.792 -0.1241  0.2986 -0.3053
  135OSM   H15S14578   0.644   0.285   3.745  1.4066  1.9639  0.8331
  135OSM   H15T14579   0.470   0.260   3.787  0.4067 -0.6735  2.8003
  135OSM   C16S14580   0.590   0.356   3.938 -0.1719 -0.0373  0.1032
  135OSM   H16S14581   0.493   0.387   3.982 -0.3053  0.5889 -0.6064
  135OSM   H16T14582   0.660   0.440   3.958 -0.3850  0.4361 -0.9967
  135OSM   C17S14583   0.658   0.240   4.015  0.0460 -0.0091  0.1819
  135OSM   H17S14584   0.767   0.234   3.996 -0.1758 -2.6934 -0.6550
  135OSM   H17T14585   0.613   0.139   3.999 -0.0439 -0.2128  1.6241
  135OSM   C18S14586   0.632   0.270   4.162 -0.6002  0.2938  1.0211
  135OSM   H18S14587   0.664   0.376   4.164 -0.1006  0.2013 -0.5981
  135OSM   H18T14588   0.705   0.214   4.224  0.9312  1.3853  0.2597
  135OSM   H18U14589   0.524   0.262   4.190 -0.9450 -2.3317 -0.7200
  135OSM    C1F14590   0.243   0.356   2.540 -0.7324  0.6617  0.0037
  135OSM     OF14591   0.177   0.368   2.439  0.3617  0.0680  0.4860
  135OSM    C2F14592   0.258   0.470   2.638  0.0514  0.4250 -0.3003
  135OSM    H2F14593   0.224   0.564   2.590  0.3112  0.0766 -1.2013
  135OSM    H2G14594   0.365   0.484   2.665  1.2434 -2.2893 -2.9355
  135OSM    C3F14595   0.177   0.439   2.762 -0.4951 -0.2187  0.1283
  135OSM    H3F14596   0.205   0.339   2.802 -0.7630 -0.2975  0.1211
  135OSM    H3G14597   0.072   0.429   2.729  0.1387 -0.5408 -1.9233
  135OSM    C4F14598   0.191   0.549   2.870 -0.2367  0.2710 -0.0026
  135OSM    H4F14599   0.182   0.647   2.818  0.4621 -0.4578 -1.5848
  135OSM    H4G14600   0.286   0.550   2.927  0.5605  2.1902 -1.2318
  135OSM    C5F14601   0.077   0.545   2.973 -0.5767 -0.4540 -0.0850
  135OSM    H5F14602   0.058   0.446   3.019 -1.5150 -0.2925 -0.1203
  135OSM    H5G14603  -0.013   0.579   2.919  0.4867  2.2077 -0.3613
  135OSM    C6F14604   0.101   0.648   3.087  0.0794 -0.7692  0.0100
  135OSM    H6F14605   0.121   0.745   3.035  1.4482 -0.8372  0.3844
  135OSM    H6G14606   0.187   0.625   3.152 -1.7339 -0.2434  2.7777
  135OSM    C7F14607  -0.019   0.665   3.182  0.2892 -0.0200  0.3080
  135OSM    H7F14608  -0.056   0.567   3.217 -0.0492  0.6526  1.9616
  135OSM    H7G14609  -0.105   0.708   3.125  0.1644  0.0777  0.5641
  135OSM    C8F14610   0.013   0.746   3.310 -0.1529  0.2357 -0.3808
  135OSM    H8F14611  -0.000   0.854   3.291  0.5520  0.3769 -0.0836
  135OSM    H8G14612   0.122   0.741   3.329 -0.0249  1.3414 -0.7557
  135OSM    C9F14613  -0.085   0.707   3.413 -0.0841 -0.1838 -0.2578
  135OSM    H9F14614  -0.188   0.742   3.397 -0.2478  0.0970  1.3033
  135OSM   C10F14615  -0.055   0.648   3.526 -0.5462  0.2029  0.6849
  135OSM   H10F14616  -0.138   0.635   3.597 -0.8640 -1.5950  0.0155
  135OSM   C11F14617   0.082   0.603   3.577 -0.4730  0.5997 -0.7453
  135OSM   H11F14618   0.141   0.589   3.484  0.0255  0.8155 -0.4641
  135OSM   H11G14619   0.073   0.505   3.629 -0.7980  0.6363 -0.7317
  135OSM   C12F14620   0.145   0.710   3.664 -0.2717 -1.0824 -0.3064
  135OSM   H12F14621   0.143   0.811   3.616  2.8031 -0.1459  1.2651
  135OSM   H12G14622   0.252   0.681   3.668  0.9930  2.3290 -3.1583
  135OSM   C13F14623   0.086   0.709   3.804  0.1364 -0.1799 -0.0838
  135OSM   H13F14624  -0.024   0.704   3.795 -0.2134 -0.2111  3.0146
  135OSM   H13G14625   0.112   0.809   3.845  0.3391  0.1182 -0.9170
  135OSM   C14F14626   0.124   0.582   3.890  0.4069  0.4215  0.2258
  135OSM   H14F14627   0.225   0.598   3.933  0.4496  1.9797 -0.3746
  135OSM   H14G14628   0.125   0.488   3.832  2.1069 -0.1764  1.1504
  135OSM   C15F14629   0.028   0.574   4.012  0.0940 -0.3135  0.4276
  135OSM   H15F14630   0.020   0.466   4.036  0.1046 -0.5015 -0.4029
  135OSM   H15G14631  -0.071   0.611   3.979  0.7028 -0.2514 -1.4048
  135OSM   C16F14632   0.053   0.657   4.135  0.3929 -0.2879  0.4983
  135OSM   H16F14633   0.059   0.765   4.108 -1.9495 -0.2463 -0.0265
  135OSM   H16G14634   0.148   0.643   4.192  0.6813  4.5141  1.6324
  135OSM   C17F14635  -0.074   0.635   4.227 -0.5543  0.0419 -0.0533
  135OSM   H17F14636  -0.093   0.525   4.220  0.3244 -0.0980 -0.4978
  135OSM   H17G14637  -0.164   0.689   4.192 -1.4834 -1.8249 -0.7052
  135OSM   C18F14638  -0.051   0.675   4.377 -0.4704  0.2129  0.3375
  135OSM   H18F14639   0.048   0.630   4.400  0.6925  1.2236 -2.3123
  135OSM   H18G14640  -0.139   0.638   4.435 -2.0901  2.3291 -0.6392
  135OSM   H18H14641  -0.033   0.784   4.378 -0.2255  0.2578 -2.2798
  136OSM      N14642   2.372   3.770   2.176  0.1389 -0.2269  0.3675
  136OSM    C1514643   2.510   3.819   2.147  0.0630 -0.4883  0.3471
  136OSM   H15A14644   2.516   3.919   2.187 -0.1253 -0.0140 -0.7833
  136OSM   H15B14645   2.526   3.818   2.040  1.9957 -1.2176  0.6158
  136OSM   H15C14646   2.596   3.768   2.188  0.1728  0.1186  0.8773
  136OSM    C1414647   2.271   3.811   2.075  0.1777 -0.3342  0.5747
  136OSM   H14A14648   2.248   3.916   2.071  0.1283 -0.2837  1.6951
  136OSM   H14B14649   2.176   3.761   2.087  0.9751 -2.6901 -2.0145
  136OSM   H14C14650   2.299   3.801   1.972  2.0627  1.7368  0.8262
  136OSM    C1314651   2.383   3.620   2.174  0.2934 -0.0935 -0.0383
  136OSM   H13A14652   2.446   3.570   2.246 -0.4512 -1.7508 -0.4949
  136OSM   H13B14653   2.397   3.595   2.070 -1.5403  0.1785 -0.3919
  136OSM   H13C14654   2.283   3.583   2.195  1.3401 -1.9896  1.9685
  136OSM    C1214655   2.334   3.814   2.317  0.0004 -0.6897 -0.4870
  136OSM   H12A14656   2.419   3.795   2.381  0.5259 -0.9228 -1.2443
  136OSM   H12B14657   2.258   3.748   2.358 -1.3803  1.3064  0.3211
  136OSM    C1114658   2.278   3.965   2.337  0.0546  0.6002  0.2220
  136OSM   H11A14659   2.357   4.025   2.289  0.4892  1.4359  1.8980
  136OSM   H11B14660   2.271   3.990   2.445 -1.7441 -0.8015  0.4836
  136OSM      P14661   2.023   3.942   2.331  0.0053  0.1686 -0.2344
  136OSM    O1314662   1.907   3.987   2.246 -0.1378  0.5787  0.5470
  136OSM    O1414663   2.036   3.798   2.380 -0.2143 -0.5884 -0.0349
  136OSM    O1114664   2.024   4.044   2.457 -0.5428 -0.3108  0.4289
  136OSM    O1214665   2.153   3.984   2.267 -0.0363  0.1761 -0.8104
  136OSM    C1S14666   2.062   4.183   2.438  0.2182  0.3542 -0.9119
  136OSM    H1S14667   1.987   4.229   2.370 -0.7949  0.2613  0.1131
  136OSM    H1T14668   2.163   4.190   2.391  0.0386  0.2688 -1.3132
  136OSM     NF14669   2.058   4.413   2.565  0.8712 -0.2898 -0.0693
  136OSM    HNF14670   2.134   4.476   2.571  0.0693  0.7535 -0.4647
  136OSM    C2S14671   2.066   4.263   2.577 -0.0332  0.6633  0.4532
  136OSM    H2S14672   1.969   4.244   2.628  0.6434 -2.8336  0.6683
  136OSM    C3S14673   2.173   4.206   2.671 -0.8736  0.7046 -0.1110
  136OSM    H3S14674   2.273   4.249   2.647  0.0882 -0.7366  1.0460
  136OSM     O314675   2.187   4.067   2.662  0.0281 -0.1079 -0.1982
  136OSM    HO314676   2.154   4.047   2.575 -0.6548 -1.1151  0.2681
  136OSM    C4S14677   2.146   4.260   2.811 -0.2111 -0.2049 -0.1648
  136OSM    H4S14678   2.219   4.339   2.834  1.0869 -1.4135 -0.0055
  136OSM    C5S14679   2.055   4.223   2.901  0.0078 -0.0501  0.5278
  136OSM    H5S14680   1.972   4.153   2.882  0.9499 -0.9540 -0.3743
  136OSM    C6S14681   2.042   4.289   3.036 -0.3131  0.4248 -0.2895
  136OSM    H6S14682   2.021   4.211   3.112  2.1952  0.1994  0.2754
  136OSM    H6T14683   1.955   4.358   3.030 -0.7137  0.0915  1.3036
  136OSM    C7S14684   2.151   4.377   3.095 -0.4005 -0.4038 -0.6807
  136OSM    H7S14685   2.142   4.474   3.041 -2.1610  0.0384  0.3366
  136OSM    H7T14686   2.250   4.334   3.069  0.1440 -0.5547  1.4479
  136OSM    C8S14687   2.126   4.394   3.244 -0.3079  0.1445  0.6391
  136OSM    H8S14688   2.120   4.295   3.295 -1.0977  0.6684  1.6085
  136OSM    H8T14689   2.036   4.458   3.256  0.0957  1.0562 -0.9020
  136OSM    C9S14690   2.248   4.464   3.320  0.4475  0.0948  0.2591
  136OSM    H9S14691   2.262   4.563   3.271 -3.9510 -0.3577 -2.4536
  136OSM    H9T14692   2.343   4.414   3.294  1.3620  0.8773  1.9002
  136OSM   C10S14693   2.235   4.472   3.470  0.0757 -0.5572 -0.6502
  136OSM   H10S14694   2.221   4.372   3.518  0.2219 -0.0425  0.4944
  136OSM   H10T14695   2.140   4.523   3.496  1.0866  1.0870 -0.0496
  136OSM   C11S14696   2.343   4.554   3.525  0.0359 -0.2704 -0.5114
  136OSM   H11S14697   2.371   4.634   3.454 -2.6510  1.4306  0.2094
  136OSM   H11T14698   2.432   4.489   3.535  0.3544  0.2173 -0.1809
  136OSM   C12S14699   2.320   4.616   3.664 -0.0853 -0.0850  0.3337
  136OSM   H12S14700   2.224   4.602   3.717  1.0243 -1.5674  2.0890
  136OSM   H12T14701   2.323   4.727   3.656 -2.2745 -0.1090 -1.7739
  136OSM   C13S14702   2.421   4.576   3.772 -0.3823  0.0565 -0.8166
  136OSM   H13S14703   2.521   4.609   3.737  0.8338 -0.2287  2.1301
  136OSM   H13T14704   2.422   4.465   3.783  0.6976  0.2463  2.0309
  136OSM   C14S14705   2.391   4.642   3.906 -0.0751  0.2672  0.3643
  136OSM   H14S14706   2.283   4.640   3.935 -0.7039  0.6510 -1.7441
  136OSM   H14T14707   2.429   4.746   3.896 -1.5952  0.9689  1.5142
  136OSM   C15S14708   2.474   4.568   4.009 -0.0364 -0.1028 -0.2090
  136OSM   H15S14709   2.572   4.549   3.961 -0.1578 -2.2094  0.2801
  136OSM   H15T14710   2.426   4.468   4.015 -3.0006  1.2769  1.7004
  136OSM   C16S14711   2.485   4.633   4.149 -0.3325 -0.1387 -0.1918
  136OSM   H16S14712   2.383   4.619   4.189  0.2098 -0.2442  1.2011
  136OSM   H16T14713   2.523   4.737   4.138  0.6694 -0.5571 -0.9288
  136OSM   C17S14714   2.584   4.564   4.248  0.0195 -0.5851  0.1063
  136OSM   H17S14715   2.550   4.458   4.252 -0.8634 -0.3380 -0.4815
  136OSM   H17T14716   2.577   4.612   4.347 -0.0142  0.0822 -0.2155
  136OSM   C18S14717   2.729   4.583   4.197  0.3355  0.5150  0.2053
  136OSM   H18S14718   2.802   4.549   4.274  1.7570  1.2678 -0.7581
  136OSM   H18T14719   2.752   4.691   4.185  0.7235  0.2282 -2.0865
  136OSM   H18U14720   2.745   4.521   4.106 -1.0758 -1.1975  1.0532
  136OSM    C1F14721   1.945   4.466   2.517  0.4217  0.0593 -0.7262
  136OSM     OF14722   1.839   4.401   2.515  0.4455 -0.0606 -0.0818
  136OSM    C2F14723   1.958   4.603   2.453  0.8520 -0.0665  0.1668
  136OSM    H2F14724   1.936   4.596   2.344  0.5809  3.1401 -0.0614
  136OSM    H2G14725   2.062   4.642   2.465  0.0605  1.5944  2.2756
  136OSM    C3F14726   1.867   4.697   2.531 -0.3306 -0.5641  0.3560
  136OSM    H3F14727   1.759   4.692   2.509  0.1051  0.9188 -2.6526
  136OSM    H3G14728   1.897   4.801   2.504  0.4354 -0.2797  2.0943
  136OSM    C4F14729   1.895   4.704   2.682 -0.1976 -0.2030  0.4324
  136OSM    H4F14730   1.875   4.607   2.732 -1.2700 -2.1847 -3.4245
  136OSM    H4G14731   1.820   4.775   2.723  0.2700  0.4011  0.2521
  136OSM    C5F14732   2.042   4.742   2.729 -0.2348  0.0737 -0.3520
  136OSM    H5F14733   2.088   4.843   2.715  1.5056 -0.5326  0.6691
  136OSM    H5G14734   2.107   4.681   2.661  0.0729 -0.5987  0.5305
  136OSM    C6F14735   2.076   4.699   2.875 -0.2030  0.1375 -0.6096
  136OSM    H6F14736   2.180   4.737   2.891 -0.0953  0.0644 -1.1101
  136OSM    H6G14737   2.077   4.588   2.881 -3.1370  0.1221  1.7564
  136OSM    C7F14738   1.985   4.763   2.979  0.8031  0.2087  0.1344
  136OSM    H7F14739   1.879   4.734   2.960  0.5225 -0.0916  1.9460
  136OSM    H7G14740   1.993   4.872   2.964  1.7475  0.0963 -0.2522
  136OSM    C8F14741   2.021   4.729   3.124 -0.3346 -0.2289 -0.0939
  136OSM    H8F14742   2.129   4.754   3.126 -0.3694 -0.0954  0.2111
  136OSM    H8G14743   1.999   4.621   3.135  1.8553 -0.5318  1.9852
  136OSM    C9F14744   1.951   4.805   3.234 -0.0261 -0.8699 -0.2046
  136OSM    H9F14745   1.841   4.812   3.223 -0.1113  1.8796  1.4072
  136OSM   C10F14746   2.013   4.856   3.342  0.6763 -0.0748 -0.0457
  136OSM   H10F14747   1.957   4.909   3.420  0.2577 -0.8146  0.1702
  136OSM   C11F14748   2.158   4.839   3.384 -1.5754 -0.3490 -0.3460
  136OSM   H11F14749   2.217   4.812   3.294  1.8043  4.2889  0.0933
  136OSM   H11G14750   2.174   4.763   3.463  0.8695  1.2654  0.8132
  136OSM   C12F14751   2.210   4.973   3.446  0.0382  0.7174  0.4572
  136OSM   H12F14752   2.186   5.061   3.382 -0.7884 -0.8867 -1.5662
  136OSM   H12G14753   2.317   4.962   3.470 -0.2821 -1.0532  1.2281
  136OSM   C13F14754   2.147   4.997   3.586 -0.0941  0.1298  0.4829
  136OSM   H13F14755   2.142   4.893   3.627  1.7077 -0.4812 -0.7228
  136OSM   H13G14756   2.044   5.037   3.595 -0.1635 -0.2165  1.3620
  136OSM   C14F14757   2.229   5.084   3.683 -0.2146  0.9383  0.1056
  136OSM   H14F14758   2.237   5.185   3.638 -0.6185  1.1987  0.5996
  136OSM   H14G14759   2.327   5.033   3.696  0.3014  1.4789 -1.5347
  136OSM   C15F14760   2.155   5.091   3.819  0.7197  0.5504  0.2564
  136OSM   H15F14761   2.045   5.085   3.805  0.9899 -2.4845 -1.5210
  136OSM   H15G14762   2.183   5.182   3.875  1.3046  1.5216 -1.5453
  136OSM   C16F14763   2.193   4.966   3.901  0.1909  0.1323 -0.6196
  136OSM   H16F14764   2.303   4.957   3.889  0.3358  0.0563  0.5972
  136OSM   H16G14765   2.155   4.870   3.859 -0.4554 -0.3443  0.9663
  136OSM   C17F14766   2.163   4.976   4.049  1.0093 -0.7097 -0.5349
  136OSM   H17F14767   2.055   4.955   4.066  1.2710  0.1274  3.0806
  136OSM   H17G14768   2.188   5.079   4.085  1.1825 -1.1978  0.7983
  136OSM   C18F14769   2.251   4.886   4.130 -0.0952 -0.1413  0.6271
  136OSM   H18F14770   2.358   4.913   4.135 -0.2279  0.1530  2.2047
  136OSM   H18G14771   2.249   4.787   4.079  0.3876 -0.4494  1.2008
  136OSM   H18H14772   2.218   4.857   4.232 -3.8585  0.6458 -0.1936
  137OSM      N14773   0.926   2.177   1.638 -0.6673 -0.3637 -0.4512
  137OSM    C1514774   0.852   2.216   1.764  0.2735 -0.5098 -0.2750
  137OSM   H15A14775   0.785   2.139   1.799  0.6969 -1.7489 -2.0428
  137OSM   H15B14776   0.802   2.311   1.754  1.3516  0.3391  1.7434
  137OSM   H15C14777   0.927   2.236   1.839  2.0951  0.4363 -2.2566
  137OSM    C1414778   0.830   2.166   1.523  0.3032 -0.5647  0.1143
  137OSM   H14A14779   0.869   2.136   1.427 -1.9526  0.1257 -1.1026
  137OSM   H14B14780   0.781   2.259   1.499  2.3510  0.1488 -1.5065
  137OSM   H14C14781   0.755   2.091   1.547 -1.1083  0.5854 -0.5617
  137OSM    C1314782   1.012   2.294   1.596 -0.1199  0.0995 -0.7503
  137OSM   H13A14783   1.082   2.314   1.676  0.6554 -0.9731 -1.1448
  137OSM   H13B14784   0.944   2.378   1.596  0.0574  0.2775  0.7635
  137OSM   H13C14785   1.060   2.275   1.502  0.0567  1.0885 -0.8751
  137OSM    C1214786   1.012   2.049   1.662 -0.0363  0.3007 -0.2840
  137OSM   H12A14787   1.107   2.074   1.708 -1.5344  3.1504  1.6153
  137OSM   H12B14788   1.045   2.015   1.565  2.3172 -1.8608  1.1545
  137OSM    C1114789   0.929   1.933   1.728  1.1742  0.2824  0.0513
  137OSM   H11A14790   0.830   1.934   1.677  2.0229 -0.2533 -1.6891
  137OSM   H11B14791   0.893   1.949   1.832 -0.6382  0.9887 -0.6497
  137OSM      P14792   1.121   1.778   1.807  0.3416  0.1131  0.0875
  137OSM    O1314793   1.116   1.627   1.813  0.4020 -0.0134 -0.0826
  137OSM    O1414794   1.242   1.839   1.752  0.2396 -0.1843  0.1389
  137OSM    O1114795   1.077   1.851   1.938 -0.9112 -0.3437 -0.4619
  137OSM    O1214796   1.001   1.818   1.716 -0.3028  0.3352 -0.1515
  137OSM    C1S14797   1.109   1.783   2.064  0.1370  0.0793  0.0588
  137OSM    H1S14798   1.156   1.683   2.059  1.2660  0.6215 -0.4342
  137OSM    H1T14799   1.018   1.766   2.125  0.3573 -1.5360 -0.0354
  137OSM     NF14800   1.272   1.820   2.256 -0.6824  0.2947 -0.0868
  137OSM    HNF14801   1.226   1.828   2.345  1.0780 -1.0585  1.0080
  137OSM    C2S14802   1.201   1.880   2.143  0.1007  0.6325 -0.7043
  137OSM    H2S14803   1.277   1.918   2.072  1.7394  1.5276  1.4149
  137OSM    C3S14804   1.126   2.010   2.175 -0.3374  0.0234 -0.3316
  137OSM    H3S14805   1.050   1.971   2.246 -3.1336  0.0584 -3.0724
  137OSM     O314806   1.056   2.072   2.069 -0.2710  0.0271  0.6972
  137OSM    HO314807   1.045   1.999   2.008 -1.4970  0.4213  0.4390
  137OSM    C4S14808   1.204   2.116   2.238  0.0285  0.0317 -0.6054
  137OSM    H4S14809   1.290   2.154   2.181  0.0029  1.6280  0.3717
  137OSM    C5S14810   1.175   2.168   2.360 -0.2784  0.5173  0.2552
  137OSM    H5S14811   1.078   2.137   2.400 -2.1875  2.0802 -2.7282
  137OSM    C6S14812   1.236   2.288   2.425  0.4643 -0.1272  0.2359
  137OSM    H6S14813   1.154   2.339   2.479  0.0775 -1.6128  1.1341
  137OSM    H6T14814   1.280   2.350   2.344  0.0025 -2.0921 -1.6188
  137OSM    C7S14815   1.350   2.262   2.525  0.2933 -0.1217  0.7539
  137OSM    H7S14816   1.383   2.364   2.554  0.1993  0.9562 -2.4842
  137OSM    H7T14817   1.434   2.204   2.483 -0.1373 -0.6142  0.5597
  137OSM    C8S14818   1.302   2.189   2.649 -0.1664 -0.1118 -0.1715
  137OSM    H8S14819   1.272   2.088   2.614 -5.3515  0.3815  1.9920
  137OSM    H8T14820   1.210   2.243   2.680 -0.1762  0.1707 -0.6675
  137OSM    C9S14821   1.408   2.206   2.763 -0.3137 -0.1270 -0.4661
  137OSM    H9S14822   1.432   2.314   2.772  2.1652 -0.5744 -0.9528
  137OSM    H9T14823   1.501   2.154   2.732  0.4465  1.3445 -0.7710
  137OSM   C10S14824   1.368   2.136   2.894  0.3552 -0.2903  0.1341
  137OSM   H10S14825   1.330   2.034   2.873 -1.3130  0.4902 -0.8804
  137OSM   H10T14826   1.287   2.193   2.945  2.0430  1.9515  0.4667
  137OSM   C11S14827   1.485   2.123   2.996  0.5650  0.1493  0.3468
  137OSM   H11S14828   1.540   2.220   2.999  2.3550 -0.7794 -0.7208
  137OSM   H11T14829   1.559   2.051   2.956  1.3603 -1.5460  4.3815
  137OSM   C12S14830   1.446   2.078   3.134  0.3992 -0.0671 -0.8246
  137OSM   H12S14831   1.540   2.042   3.179 -0.3331 -0.9916 -0.0031
  137OSM   H12T14832   1.366   2.001   3.128 -1.1811  1.3563  0.7166
  137OSM   C13S14833   1.398   2.195   3.221 -0.0071  0.0275 -0.3556
  137OSM   H13S14834   1.300   2.232   3.184  0.7292  0.8914 -1.5175
  137OSM   H13T14835   1.469   2.281   3.216 -1.1199  1.0611  0.8035
  137OSM   C14S14836   1.385   2.153   3.372 -0.6665  0.7437 -0.3008
  137OSM   H14S14837   1.489   2.138   3.410 -0.3118  2.3721 -0.5428
  137OSM   H14T14838   1.329   2.057   3.370 -1.2413  1.0793 -0.3087
  137OSM   C15S14839   1.321   2.261   3.463 -0.2045  0.1548 -0.1034
  137OSM   H15S14840   1.212   2.261   3.444 -0.2550 -0.2670  0.1739
  137OSM   H15T14841   1.365   2.360   3.436  0.6567 -0.1818  0.0238
  137OSM   C16S14842   1.349   2.249   3.615  0.1992  0.1247  0.3149
  137OSM   H16S14843   1.318   2.146   3.643 -0.8929  1.1611  3.3059
  137OSM   H16T14844   1.278   2.319   3.664 -0.0911 -0.2704  0.4615
  137OSM   C17S14845   1.494   2.287   3.650 -0.1460  0.6991 -0.0171
  137OSM   H17S14846   1.512   2.396   3.639  0.0149  0.6734 -0.0084
  137OSM   H17T14847   1.566   2.229   3.588  1.0466  0.8237  1.1932
  137OSM   C18S14848   1.517   2.248   3.794  0.3114 -0.2935  0.3879
  137OSM   H18S14849   1.427   2.265   3.857  1.5644  0.0702  2.1356
  137OSM   H18T14850   1.583   2.317   3.850 -0.8621  1.3455 -0.1421
  137OSM   H18U14851   1.557   2.145   3.801  0.4350 -0.5083 -2.3742
  137OSM    C1F14852   1.352   1.716   2.232 -1.1633 -0.1133  0.7012
  137OSM     OF14853   1.401   1.689   2.122 -0.1630 -0.0661  0.2345
  137OSM    C2F14854   1.359   1.615   2.340 -0.3086 -0.2168  0.1262
  137OSM    H2F14855   1.294   1.538   2.294  1.9568 -1.8429 -0.5107
  137OSM    H2G14856   1.306   1.656   2.428 -0.1593  2.6413 -1.0012
  137OSM    C3F14857   1.501   1.564   2.358  0.2352  0.0547  0.7743
  137OSM    H3F14858   1.563   1.653   2.382 -0.6147  0.6345  0.8369
  137OSM    H3G14859   1.529   1.517   2.261 -0.9296 -0.4333  0.6570
  137OSM    C4F14860   1.514   1.453   2.473  0.1757 -0.5372 -0.6492
  137OSM    H4F14861   1.454   1.362   2.453  0.7324 -1.2209  0.6236
  137OSM    H4G14862   1.470   1.495   2.566  2.1098  0.8441 -0.2764
  137OSM    C5F14863   1.659   1.403   2.495 -0.1455  0.3705 -0.7568
  137OSM    H5F14864   1.720   1.495   2.484  1.5152 -0.8419 -2.3512
  137OSM    H5G14865   1.697   1.333   2.418  0.5077  0.3783 -0.4545
  137OSM    C6F14866   1.680   1.337   2.629 -0.3948  0.2103  0.3695
  137OSM    H6F14867   1.638   1.235   2.613  1.2049 -0.3744 -0.2557
  137OSM    H6G14868   1.609   1.384   2.701 -0.4823  1.4019 -0.4702
  137OSM    C7F14869   1.834   1.333   2.660 -0.5264 -0.7738 -0.2741
  137OSM    H7F14870   1.892   1.280   2.582 -0.3048 -2.3334  0.9157
  137OSM    H7G14871   1.857   1.285   2.757  2.5519  1.3655  0.2218
  137OSM    C8F14872   1.883   1.481   2.675  0.2641  0.3545  0.0510
  137OSM    H8F14873   1.807   1.542   2.728  0.1339  1.3444 -1.2249
  137OSM    H8G14874   1.884   1.527   2.574 -2.2022 -2.3041 -1.3423
  137OSM    C9F14875   2.011   1.488   2.753  0.1607  0.5215  0.1005
  137OSM    H9F14876   2.067   1.396   2.731 -4.3814 -2.0792 -1.9041
  137OSM   C10F14877   2.063   1.580   2.841  0.2067  0.6108  0.5599
  137OSM   H10F14878   2.165   1.566   2.881  0.9743  2.0216 -0.7768
  137OSM   C11F14879   1.998   1.705   2.889  0.3286 -0.4575  0.3390
  137OSM   H11F14880   1.887   1.702   2.875  0.4220 -0.2271 -0.5384
  137OSM   H11G14881   2.024   1.797   2.833 -0.1574 -0.2000  0.5328
  137OSM   C12F14882   2.025   1.715   3.042 -0.9004  0.1859  0.7273
  137OSM   H12F14883   1.976   1.811   3.069 -0.6679 -0.0185  1.9438
  137OSM   H12G14884   2.131   1.727   3.072 -0.4301  0.2932 -0.8783
  137OSM   C13F14885   1.965   1.604   3.130  0.5783  0.1616  0.6127
  137OSM   H13F14886   2.011   1.509   3.096  1.0501  0.0564  1.4898
  137OSM   H13G14887   1.857   1.580   3.117  0.2459  1.8684 -0.0045
  137OSM   C14F14888   2.001   1.636   3.277  0.3694 -0.1713 -1.3202
  137OSM   H14F14889   1.918   1.609   3.345 -0.6715  1.7364 -1.7618
  137OSM   H14G14890   2.019   1.745   3.291 -1.0419 -0.1411  0.6129
  137OSM   C15F14891   2.125   1.548   3.314 -0.6097  0.2933 -0.2880
  137OSM   H15F14892   2.211   1.569   3.246 -1.5047 -0.7264 -1.7979
  137OSM   H15G14893   2.100   1.442   3.295  1.6403  0.1247 -2.9615
  137OSM   C16F14894   2.172   1.564   3.460  0.4678  0.2375  0.0762
  137OSM   H16F14895   2.200   1.671   3.476  2.7061 -0.5836  2.2338
  137OSM   H16G14896   2.268   1.510   3.479  1.3091  2.0104  1.1372
  137OSM   C17F14897   2.068   1.510   3.568 -0.2950  0.3156  0.9189
  137OSM   H17F14898   2.034   1.409   3.537 -0.5679  0.2234  1.5067
  137OSM   H17G14899   1.982   1.581   3.563 -0.1774  0.3800 -0.6317
  137OSM   C18F14900   2.128   1.518   3.710  0.2048  0.0551 -0.1273
  137OSM   H18F14901   2.220   1.456   3.707 -1.2643 -2.2530 -3.0217
  137OSM   H18G14902   2.053   1.477   3.781  0.0366 -1.7221 -1.2511
  137OSM   H18H14903   2.145   1.623   3.740 -0.0944 -0.1709  0.8886
  138OSM      N14904   6.210   5.459   1.917 -0.0976  0.6296  0.1933
  138OSM    C1514905   6.354   5.439   1.911  0.3475  0.1017  0.1203
  138OSM   H15A14906   6.394   5.494   1.827 -1.3261 -1.8020 -2.0602
  138OSM   H15B14907   6.385   5.337   1.894  0.4755  0.2144 -0.3338
  138OSM   H15C14908   6.400   5.465   2.005  0.8375 -1.5898  0.3774
  138OSM    C1414909   6.152   5.426   1.783 -0.6056 -1.0356  0.1269
  138OSM   H14A14910   6.184   5.336   1.732 -0.9736 -1.1510  0.0993
  138OSM   H14B14911   6.186   5.508   1.722  1.9529 -0.1822  2.4843
  138OSM   H14C14912   6.044   5.429   1.787 -0.6064 -1.9652  2.3430
  138OSM    C1314913   6.164   5.358   2.018 -0.4669 -0.4492 -0.2972
  138OSM   H13A14914   6.176   5.260   1.975 -1.3663 -0.2641 -0.9934
  138OSM   H13B14915   6.062   5.370   2.051  0.3789  1.0198  2.0179
  138OSM   H13C14916   6.226   5.366   2.106  1.1195 -1.4407 -1.2729
  138OSM    C1214917   6.171   5.601   1.950 -0.1465  0.2212 -1.0716
  138OSM   H12A14918   6.066   5.604   1.923 -0.8190 -1.9606  0.9303
  138OSM   H12B14919   6.229   5.673   1.895  0.1258  0.4764 -0.4641
  138OSM    C1114920   6.182   5.638   2.099 -0.2227 -0.0589  0.6831
  138OSM   H11A14921   6.109   5.577   2.155 -0.9077 -1.0667 -1.2145
  138OSM   H11B14922   6.135   5.738   2.115 -1.1906 -0.6144  1.3498
  138OSM      P14923   6.415   5.755   2.139  0.0518  0.3528  0.1044
  138OSM    O1314924   6.549   5.698   2.179  0.2362 -0.2455 -0.1981
  138OSM    O1414925   6.400   5.844   2.019  0.0037 -0.0952  0.1119
  138OSM    O1114926   6.357   5.843   2.255 -0.1577 -0.0157  0.0786
  138OSM    O1214927   6.319   5.634   2.138 -0.0991  0.0612 -0.3497
  138OSM    C1S14928   6.317   5.786   2.378 -0.7202 -0.5706  0.3097
  138OSM    H1S14929   6.400   5.737   2.434 -0.2011 -0.5778 -0.4465
  138OSM    H1T14930   6.235   5.711   2.381 -0.1433 -1.1836  1.3447
  138OSM     NF14931   6.231   5.869   2.597 -0.4291 -0.3064  0.5239
  138OSM    HNF14932   6.132   5.870   2.605 -0.4603 -0.4309  0.1868
  138OSM    C2S14933   6.277   5.907   2.468  0.1147 -0.3521  0.3644
  138OSM    H2S14934   6.369   5.965   2.490 -1.0289  2.3994 -1.4625
  138OSM    C3S14935   6.178   6.016   2.407  0.7582  0.0603  0.5193
  138OSM    H3S14936   6.077   5.980   2.436  0.5027 -1.0429 -1.5321
  138OSM     O314937   6.168   6.026   2.264 -0.1745  0.3191  0.1920
  138OSM    HO314938   6.233   5.962   2.236 -1.1799 -0.5874 -0.1354
  138OSM    C4S14939   6.209   6.149   2.458  0.2682 -0.3856 -0.3200
  138OSM    H4S14940   6.159   6.161   2.555 -0.6281 -4.1563 -0.1755
  138OSM    C5S14941   6.291   6.246   2.423  0.3662 -0.1519  0.9177
  138OSM    H5S14942   6.352   6.227   2.334  0.2022  0.3051  0.7076
  138OSM    C6S14943   6.338   6.359   2.511  0.1158  0.3619 -0.0808
  138OSM    H6S14944   6.247   6.386   2.569  0.2431 -2.4513  1.6371
  138OSM    H6T14945   6.358   6.450   2.450  0.7113  1.0155  1.0562
  138OSM    C7S14946   6.465   6.335   2.595 -0.9096 -0.4056 -0.1818
  138OSM    H7S14947   6.540   6.312   2.516 -0.6180  0.9836 -0.3395
  138OSM    H7T14948   6.463   6.249   2.665  2.1450 -1.0923 -0.7994
  138OSM    C8S14949   6.494   6.469   2.671  0.0660 -0.1033  0.1307
  138OSM    H8S14950   6.412   6.495   2.741  1.8720  1.3530  1.8265
  138OSM    H8T14951   6.491   6.553   2.598 -3.3025 -1.0051 -0.9587
  138OSM    C9S14952   6.626   6.463   2.748  0.4343 -0.5678  0.8009
  138OSM    H9S14953   6.699   6.445   2.667 -0.5339  1.9687 -0.7728
  138OSM    H9T14954   6.619   6.385   2.827 -1.4681 -0.1498  1.1090
  138OSM   C10S14955   6.665   6.599   2.804  0.1965 -0.1437  0.1762
  138OSM   H10S14956   6.584   6.620   2.877  0.3748  0.4885  0.1939
  138OSM   H10T14957   6.666   6.680   2.728  0.2598 -1.7560 -1.6363
  138OSM   C11S14958   6.802   6.600   2.883  0.9515 -0.6817  0.3249
  138OSM   H11S14959   6.815   6.708   2.903 -0.5282 -0.0562 -1.7568
  138OSM   H11T14960   6.882   6.569   2.812 -0.8189 -1.4237 -1.4428
  138OSM   C12S14961   6.820   6.504   3.004  0.2405 -0.1717 -0.1052
  138OSM   H12S14962   6.844   6.402   2.967 -0.1740 -0.0687 -0.6699
  138OSM   H12T14963   6.720   6.497   3.052  0.4090 -0.5837  0.1846
  138OSM   C13S14964   6.935   6.549   3.089  0.1262  0.3287  0.3579
  138OSM   H13S14965   6.928   6.660   3.090 -0.0377  0.3170  1.2904
  138OSM   H13T14966   7.035   6.526   3.049  0.4403  0.7382  0.8956
  138OSM   C14S14967   6.913   6.505   3.233 -0.4123  0.5720 -0.1226
  138OSM   H14S14968   6.879   6.400   3.250 -2.4452  0.6963 -2.7924
  138OSM   H14T14969   6.821   6.555   3.270 -0.5407  0.4559 -0.2793
  138OSM   C15S14970   7.034   6.524   3.325 -0.5240 -0.5819  0.1355
  138OSM   H15S14971   7.124   6.491   3.268 -0.7337 -0.4050 -0.3093
  138OSM   H15T14972   7.017   6.465   3.418 -1.1436 -0.7247 -0.0599
  138OSM   C16S14973   7.045   6.672   3.365 -0.1571  0.0286 -0.9652
  138OSM   H16S14974   6.975   6.690   3.450  1.2303  1.4641 -0.0648
  138OSM   H16T14975   7.019   6.730   3.274 -0.8092 -0.6990 -1.2560
  138OSM   C17S14976   7.188   6.701   3.408 -0.1839 -1.1750  0.8664
  138OSM   H17S14977   7.197   6.809   3.434 -1.8503 -0.3609 -1.6693
  138OSM   H17T14978   7.262   6.669   3.332 -0.9034 -4.1100  1.3069
  138OSM   C18S14979   7.230   6.620   3.533  0.4474 -0.1072  0.4008
  138OSM   H18S14980   7.170   6.657   3.619 -1.7554  2.1049 -1.9270
  138OSM   H18T14981   7.336   6.631   3.564  0.3418 -0.3727  0.8752
  138OSM   H18U14982   7.211   6.511   3.521 -0.8069  0.2920 -1.8973
  138OSM    C1F14983   6.307   5.809   2.681  0.0448 -0.4541  0.3647
  138OSM     OF14984   6.428   5.798   2.658  0.4259 -0.0951  0.0304
  138OSM    C2F14985   6.252   5.764   2.816  0.4786  0.9675 -0.1372
  138OSM    H2F14986   6.186   5.675   2.810  1.4557 -0.0390  2.3652
  138OSM    H2G14987   6.192   5.846   2.860  0.6965  0.1419  1.7925
  138OSM    C3F14988   6.364   5.742   2.920  0.2776 -0.0886  0.6652
  138OSM    H3F14989   6.443   5.820   2.919  1.1105 -0.9091 -1.0432
  138OSM    H3G14990   6.431   5.658   2.890 -0.3420 -0.1309 -0.6651
  138OSM    C4F14991   6.313   5.731   3.062 -0.6994  0.1814  0.2825
  138OSM    H4F14992   6.261   5.635   3.080  0.4357 -0.2000  1.7198
  138OSM    H4G14993   6.246   5.818   3.082 -2.4346 -0.9721 -0.2828
  138OSM    C5F14994   6.433   5.735   3.157  0.1292  0.3755 -0.2412
  138OSM    H5F14995   6.492   5.821   3.118  1.7557 -0.5341  0.1052
  138OSM    H5G14996   6.493   5.643   3.141  0.1563 -0.1331  2.3238
  138OSM    C6F14997   6.405   5.767   3.302  0.1019 -0.3180 -0.2870
  138OSM    H6F14998   6.303   5.727   3.319  0.2004 -0.8376 -0.8612
  138OSM    H6G14999   6.394   5.877   3.307 -1.1615 -0.4797  2.0952
  138OSM    C7F15000   6.523   5.718   3.392  1.0809 -0.4750 -0.2316
  138OSM    H7F15001   6.618   5.771   3.366 -0.2921  1.5140 -1.4548
  138OSM    H7G15002   6.541   5.609   3.387 -0.3796 -0.6947 -1.0927
  138OSM    C8F15003   6.507   5.760   3.538  0.3672 -0.9806  0.7514
  138OSM    H8F15004   6.494   5.870   3.537 -0.8345 -1.0982 -0.2896
  138OSM    H8G15005   6.597   5.734   3.597  0.7339  0.9295  1.0983
  138OSM    C9F15006   6.382   5.694   3.593 -0.2322 -0.3210 -0.3204
  138OSM    H9F15007   6.289   5.721   3.541 -0.4325 -1.4949 -0.6045
  138OSM   C10F15008   6.386   5.600   3.696 -0.0381 -0.1387  0.8426
  138OSM   H10F15009   6.290   5.551   3.718  0.2793 -1.8179 -1.1733
  138OSM   C11F15010   6.495   5.551   3.774  0.0939  0.3653 -0.2442
  138OSM   H11F15011   6.595   5.598   3.762  0.3620 -0.2503 -0.4634
  138OSM   H11G15012   6.510   5.446   3.739  2.5106  0.5831 -0.0188
  138OSM   C12F15013   6.475   5.544   3.929 -0.4762  0.3733 -0.1329
  138OSM   H12F15014   6.570   5.499   3.964  0.1015  0.9329 -0.9421
  138OSM   H12G15015   6.386   5.482   3.953  1.3411 -1.8914  1.1483
  138OSM   C13F15016   6.460   5.692   3.976 -0.0072 -0.0510  0.5004
  138OSM   H13F15017   6.431   5.686   4.083 -0.1637 -2.3360  0.3896
  138OSM   H13G15018   6.378   5.734   3.915 -1.2415  0.2908  2.3321
  138OSM   C14F15019   6.584   5.779   3.960 -0.1534  0.0428 -0.0293
  138OSM   H14F15020   6.550   5.881   3.987  0.5668  0.3236 -0.1397
  138OSM   H14G15021   6.622   5.801   3.857  1.7633  1.8139  0.9695
  138OSM   C15F15022   6.691   5.736   4.056  0.3926  0.3310  0.1213
  138OSM   H15F15023   6.698   5.625   4.062  0.4808  0.2796 -0.8760
  138OSM   H15G15024   6.671   5.773   4.159  3.0705  1.9403  0.1619
  138OSM   C16F15025   6.838   5.779   4.016 -0.0426  0.3989 -0.2012
  138OSM   H16F15026   6.859   5.738   3.915  0.1791 -4.0158  1.4134
  138OSM   H16G15027   6.909   5.725   4.082  0.6894  2.5214  0.8392
  138OSM   C17F15028   6.860   5.925   4.029 -0.1766 -0.1349 -0.1401
  138OSM   H17F15029   6.865   5.948   4.137 -0.1173 -3.5026  0.6889
  138OSM   H17G15030   6.772   5.974   3.984 -2.2769 -0.1483  3.5531
  138OSM   C18F15031   6.988   5.967   3.961 -0.4769 -0.2936  0.5353
  138OSM   H18F15032   6.973   5.969   3.851 -1.4138 -0.4916  0.6482
  138OSM   H18G15033   7.062   5.888   3.986 -1.0547 -1.1482 -0.3513
  138OSM   H18H15034   7.003   6.069   4.000  0.2683 -0.6912  1.3059
  139OSM      N15035   5.663   1.124   1.944  0.0823  0.2545 -0.2452
  139OSM    C1515036   5.545   1.173   1.870 -0.4578 -0.3277 -0.0698
  139OSM   H15A15037   5.533   1.119   1.777 -3.5790  0.2691 -0.1460
  139OSM   H15B15038   5.570   1.276   1.850 -0.3487 -0.3645 -0.1216
  139OSM   H15C15039   5.456   1.154   1.929 -0.2402  0.5992  0.5784
  139OSM    C1415040   5.650   0.976   1.950  0.8953 -0.0267 -0.2018
  139OSM   H14A15041   5.550   0.941   1.973  0.9953 -0.0345  0.2266
  139OSM   H14B15042   5.722   0.935   2.019 -1.7635 -1.2402  2.0910
  139OSM   H14C15043   5.670   0.932   1.853  1.4560 -1.5566  0.5744
  139OSM    C1315044   5.788   1.170   1.871  0.2074  0.8631 -0.1636
  139OSM   H13A15045   5.783   1.162   1.763 -0.2764 -0.6289 -0.0629
  139OSM   H13B15046   5.874   1.124   1.916  1.3586  2.1724 -0.9575
  139OSM   H13C15047   5.804   1.276   1.884 -0.6177  1.3505 -2.6102
  139OSM    C1215048   5.677   1.194   2.081 -0.5564  0.0147  0.3641
  139OSM   H12A15049   5.578   1.183   2.124 -0.1651 -0.6650  1.1235
  139OSM   H12B15050   5.695   1.298   2.057  0.9764  0.0889  1.6442
  139OSM    C1115051   5.784   1.145   2.178  0.3462  0.3762  0.2682
  139OSM   H11A15052   5.786   1.220   2.259  1.3206  0.3692  0.2682
  139OSM   H11B15053   5.882   1.153   2.127  0.6879  1.2329  1.0362
  139OSM      P15054   5.849   0.904   2.248 -0.4536  0.0849  0.0634
  139OSM    O1315055   5.789   0.786   2.182 -0.1396  0.0073  0.3560
  139OSM    O1415056   5.978   0.950   2.189 -0.5269 -0.5533  0.4791
  139OSM    O1115057   5.849   0.884   2.406 -0.2069 -0.2492 -0.2408
  139OSM    O1215058   5.747   1.020   2.238 -0.1087 -0.2557  0.3106
  139OSM    C1S15059   5.749   0.954   2.495 -0.8752  0.2681 -0.4722
  139OSM    H1S15060   5.670   0.878   2.517 -0.3312 -0.4546 -0.9582
  139OSM    H1T15061   5.702   1.046   2.455  2.3276  0.4858 -4.3737
  139OSM     NF15062   5.722   1.027   2.729  0.3113  0.3652  0.1481
  139OSM    HNF15063   5.713   1.124   2.753 -0.5145  0.3813 -0.2025
  139OSM    C2S15064   5.819   0.982   2.636  0.4754  0.2978  0.6866
  139OSM    H2S15065   5.854   0.880   2.661  2.0117  0.0931 -1.8914
  139OSM    C3S15066   5.930   1.080   2.627 -0.8545 -0.6473  0.5942
  139OSM    H3S15067   5.886   1.171   2.580  0.2476  0.1393  1.0330
  139OSM     O315068   6.038   1.033   2.527 -0.4816 -0.2026 -0.2703
  139OSM    HO315069   5.994   0.973   2.466 -1.1795  1.1252 -1.1188
  139OSM    C4S15070   5.986   1.113   2.761  0.4157  0.5607 -0.2891
  139OSM    H4S15071   5.998   1.029   2.831 -0.5174  1.0747  0.5156
  139OSM    C5S15072   5.998   1.238   2.813  0.3002  0.3127 -0.8117
  139OSM    H5S15073   5.974   1.329   2.757 -0.4992  2.0938  2.1919
  139OSM    C6S15074   6.042   1.269   2.957  0.1250  0.3274  0.3220
  139OSM    H6S15075   6.037   1.377   2.983 -2.0315  0.3357  0.0409
  139OSM    H6T15076   6.144   1.228   2.971 -0.2238 -0.7160 -0.0878
  139OSM    C7S15077   5.950   1.211   3.068  0.3581 -0.0673  0.4508
  139OSM    H7S15078   5.965   1.101   3.070 -1.0303 -0.3197 -0.7445
  139OSM    H7T15079   5.843   1.233   3.044  0.0674 -2.5502 -0.7992
  139OSM    C8S15080   5.992   1.269   3.204  0.4115  0.1382  0.0841
  139OSM    H8S15081   5.983   1.379   3.219 -1.9250  0.5779 -3.3053
  139OSM    H8T15082   6.100   1.248   3.217  0.0281 -0.6114  2.6068
  139OSM    C9S15083   5.914   1.194   3.325  0.2024 -0.6640 -0.6249
  139OSM    H9S15084   5.901   1.087   3.297 -0.4142 -0.3092 -1.7320
  139OSM    H9T15085   5.815   1.241   3.339  1.8909  2.5871  1.7711
  139OSM   C10S15086   6.005   1.196   3.446  0.1190  0.1477  0.5249
  139OSM   H10S15087   6.019   1.302   3.476  0.2337  0.1480  0.4709
  139OSM   H10T15088   6.110   1.173   3.417 -0.0511 -1.1323  0.8660
  139OSM   C11S15089   5.943   1.114   3.563 -0.7687  0.9611  0.1134
  139OSM   H11S15090   5.836   1.138   3.578 -0.6163  2.1427 -0.6000
  139OSM   H11T15091   5.995   1.126   3.660  0.8114 -2.1035 -0.2223
  139OSM   C12S15092   5.970   0.966   3.554 -0.3212 -0.2074 -0.0759
  139OSM   H12S15093   6.078   0.946   3.566 -0.5207 -0.9631  0.5439
  139OSM   H12T15094   5.949   0.925   3.453  3.2052 -0.6406 -0.7406
  139OSM   C13S15095   5.907   0.873   3.652  0.4358 -0.6755  0.1847
  139OSM   H13S15096   5.956   0.773   3.644  2.7898  0.4651 -0.4701
  139OSM   H13T15097   5.803   0.848   3.621  0.7328 -1.7458  0.0077
  139OSM   C14S15098   5.916   0.923   3.799  0.1113 -0.4176 -0.2355
  139OSM   H14S15099   5.864   1.019   3.816 -0.0009 -0.3918 -0.7010
  139OSM   H14T15100   6.022   0.955   3.812 -0.2668  0.3321  1.1331
  139OSM   C15S15101   5.870   0.803   3.877  0.5183 -0.0173  0.3117
  139OSM   H15S15102   5.787   0.750   3.825  0.0629  1.6737 -0.7552
  139OSM   H15T15103   5.835   0.848   3.973  2.0828 -1.5168  1.6597
  139OSM   C16S15104   5.984   0.702   3.904 -0.5490  0.6368  0.7074
  139OSM   H16S15105   6.064   0.740   3.972  1.8590  0.3512 -1.7692
  139OSM   H16T15106   6.037   0.675   3.809 -1.0071  2.2579 -0.0425
  139OSM   C17S15107   5.931   0.576   3.973  0.3211  0.5027  0.3389
  139OSM   H17S15108   5.875   0.510   3.904 -0.6462  0.0153  1.5409
  139OSM   H17T15109   5.862   0.631   4.041 -0.8922 -0.7220  0.1323
  139OSM   C18S15110   6.030   0.495   4.056 -0.4781 -0.2362 -0.6442
  139OSM   H18S15111   6.131   0.478   4.014  0.6008  2.8690  0.4195
  139OSM   H18T15112   5.992   0.398   4.094 -0.0638  0.7315  2.5366
  139OSM   H18U15113   6.056   0.557   4.144 -0.7915  0.3131 -0.9333
  139OSM    C1F15114   5.626   0.950   2.774  0.1228 -0.3616  0.6715
  139OSM     OF15115   5.620   0.828   2.749  0.6719 -0.6770 -0.1360
  139OSM    C2F15116   5.511   1.012   2.854  0.1439  0.2744 -0.1848
  139OSM    H2F15117   5.450   0.929   2.897  1.6468 -0.3091  0.8914
  139OSM    H2G15118   5.453   1.069   2.778 -1.0512  1.5426  1.5991
  139OSM    C3F15119   5.561   1.104   2.970  0.6072  0.0033 -0.3900
  139OSM    H3F15120   5.602   1.194   2.920  0.1906 -0.0527 -0.8403
  139OSM    H3G15121   5.651   1.064   3.022  0.1487 -1.3621 -0.5992
  139OSM    C4F15122   5.448   1.146   3.077 -0.0700  0.1812  0.3744
  139OSM    H4F15123   5.415   1.057   3.136  0.2728 -1.7262 -2.1434
  139OSM    H4G15124   5.351   1.159   3.025 -1.3389 -3.8232  1.3654
  139OSM    C5F15125   5.504   1.249   3.181  0.7913 -0.3897 -0.1056
  139OSM    H5F15126   5.575   1.317   3.128  0.6994 -0.4975 -0.3686
  139OSM    H5G15127   5.574   1.196   3.249  0.5586 -0.4597  0.0810
  139OSM    C6F15128   5.389   1.324   3.255 -0.0814 -0.0568  0.2383
  139OSM    H6F15129   5.444   1.388   3.327 -0.4237  0.8726 -0.3136
  139OSM    H6G15130   5.320   1.253   3.305 -1.8305 -0.0199 -2.0012
  139OSM    C7F15131   5.306   1.406   3.164 -0.2000 -0.0622  0.9027
  139OSM    H7F15132   5.235   1.337   3.113 -0.0164  0.3116  0.1291
  139OSM    H7G15133   5.373   1.450   3.087 -1.9607  0.0299 -0.6412
  139OSM    C8F15134   5.236   1.517   3.238 -0.5967 -0.0727 -0.2461
  139OSM    H8F15135   5.157   1.462   3.293  0.4039 -0.1535  1.1825
  139OSM    H8G15136   5.192   1.579   3.157  0.8524  0.5527 -0.5913
  139OSM    C9F15137   5.319   1.598   3.337 -0.8503 -0.2849 -0.0526
  139OSM    H9F15138   5.402   1.655   3.292 -0.7531  0.0499  0.5397
  139OSM   C10F15139   5.308   1.615   3.473 -0.4019 -0.3267 -0.0679
  139OSM   H10F15140   5.374   1.688   3.523 -0.2655 -0.1871 -0.4427
  139OSM   C11F15141   5.205   1.554   3.562 -0.7438  0.3191 -0.2849
  139OSM   H11F15142   5.262   1.507   3.645  1.7811  0.0329 -2.0421
  139OSM   H11G15143   5.164   1.465   3.511  1.6389 -1.2130  0.3110
  139OSM   C12F15144   5.099   1.647   3.623  0.4481  1.0446  0.1143
  139OSM   H12F15145   5.027   1.586   3.682  0.5021  1.7534  0.9232
  139OSM   H12G15146   5.038   1.679   3.536  1.0550  0.7257 -0.4325
  139OSM   C13F15147   5.165   1.739   3.725 -0.2227  0.7564  0.6392
  139OSM   H13F15148   5.251   1.795   3.682 -0.2192 -0.1804 -0.6211
  139OSM   H13G15149   5.217   1.669   3.794 -1.1945  1.0656  1.7208
  139OSM   C14F15150   5.077   1.828   3.808 -1.0264 -0.1689  0.5886
  139OSM   H14F15151   4.976   1.785   3.817 -2.0857  2.2297  0.9385
  139OSM   H14G15152   5.057   1.924   3.755 -1.0705 -1.7766 -2.5676
  139OSM   C15F15153   5.127   1.844   3.952 -0.3269 -0.1229  0.1581
  139OSM   H15F15154   5.212   1.914   3.961  0.5478 -1.1953  0.5169
  139OSM   H15G15155   5.177   1.748   3.979  0.7435  1.1361  3.0213
  139OSM   C16F15156   5.020   1.900   4.046 -0.2349 -0.2085 -0.3966
  139OSM   H16F15157   4.934   1.830   4.038 -0.0724 -0.3417 -1.0965
  139OSM   H16G15158   4.972   1.993   4.011  1.1809 -0.0210 -1.9805
  139OSM   C17F15159   5.057   1.901   4.191  0.0404 -0.3114  0.5370
  139OSM   H17F15160   5.118   1.812   4.220  3.0109  1.6918  0.9188
  139OSM   H17G15161   4.966   1.905   4.254 -0.3179  0.3108 -0.0073
  139OSM   C18F15162   5.146   2.021   4.216  0.0394  0.6904  0.2541
  139OSM   H18F15163   5.187   2.026   4.319 -0.8737  3.1654  0.5731
  139OSM   H18G15164   5.094   2.116   4.192 -2.7605 -1.2043 -1.7833
  139OSM   H18H15165   5.236   2.022   4.151  1.8804 -0.2989  2.6477
  140OSM      N15166   4.901   0.260   2.169  0.4124  0.2240 -0.2661
  140OSM    C1515167   4.842   0.388   2.230 -0.1208  0.6853 -0.6665
  140OSM   H15A15168   4.749   0.364   2.278 -0.1769  2.2315  0.0267
  140OSM   H15B15169   4.829   0.460   2.151 -0.5693  1.0769 -0.2401
  140OSM   H15C15170   4.914   0.422   2.303  1.8208 -0.2673 -2.0139
  140OSM    C1415171   4.820   0.212   2.048  0.5270 -0.4457  0.5056
  140OSM   H14A15172   4.800   0.289   1.975  0.9442 -0.2455  0.5983
  140OSM   H14B15173   4.721   0.187   2.082  1.2198 -1.2312  2.0734
  140OSM   H14C15174   4.853   0.118   2.006 -1.6056 -0.8892 -0.3247
  140OSM    C1315175   5.034   0.279   2.128 -0.1979 -0.1798  0.2773
  140OSM   H13A15176   5.085   0.190   2.095 -0.3487  0.0476 -0.5746
  140OSM   H13B15177   5.088   0.312   2.216 -1.5513  1.3053  0.5900
  140OSM   H13C15178   5.048   0.360   2.058 -1.3627 -0.7810 -0.6950
  140OSM    C1215179   4.890   0.150   2.279  0.3558  0.3335 -0.7168
  140OSM   H12A15180   4.785   0.147   2.304  0.7384 -2.7182  1.0920
  140OSM   H12B15181   4.936   0.190   2.368 -2.3224  1.5682  0.2148
  140OSM    C1115182   4.927   0.003   2.253  0.9176 -0.4455  0.4168
  140OSM   H11A15183   4.860  -0.019   2.167  0.2991 -1.3106  1.0972
  140OSM   H11B15184   4.882  -0.055   2.337  0.2669  0.3322  0.6192
  140OSM      P15185   5.155  -0.116   2.324 -0.4380  0.0135  0.1474
  140OSM    O1315186   5.133  -0.253   2.279 -0.1287 -0.3451 -0.3412
  140OSM    O1415187   5.293  -0.063   2.343 -0.4873  0.4744 -0.4548
  140OSM    O1115188   5.094  -0.101   2.464 -0.5060 -0.3347 -0.6072
  140OSM    O1215189   5.065  -0.025   2.231  0.5622 -0.2380  0.6184
  140OSM    C1S15190   5.117   0.016   2.537  0.1843  0.3805 -0.5531
  140OSM    H1S15191   5.070   0.097   2.477 -0.8925 -0.3924 -0.7696
  140OSM    H1T15192   5.223   0.043   2.556  1.2853 -2.1207 -2.5646
  140OSM     NF15193   5.037   0.116   2.751  0.3165  0.5032 -0.9190
  140OSM    HNF15194   5.091   0.124   2.835 -2.0166  1.2747  0.6223
  140OSM    C2S15195   5.056  -0.008   2.676  0.2416  0.1280  0.4557
  140OSM    H2S15196   4.952  -0.040   2.653 -1.0406  2.0334  3.0339
  140OSM    C3S15197   5.132  -0.116   2.760  1.2306 -0.1570 -0.4231
  140OSM    H3S15198   5.222  -0.060   2.794 -0.2501  2.3114 -0.3439
  140OSM     O315199   5.171  -0.225   2.677 -0.0755 -0.4158  0.0878
  140OSM    HO315200   5.156  -0.193   2.588  0.7902 -1.4929 -0.4625
  140OSM    C4S15201   5.055  -0.151   2.885 -0.1856 -0.4008  0.5596
  140OSM    H4S15202   5.087  -0.096   2.974  2.3451 -2.4859  1.0443
  140OSM    C5S15203   4.947  -0.226   2.903 -0.0626  0.0866  0.2909
  140OSM    H5S15204   4.912  -0.276   2.811  0.3781  0.8387 -0.3016
  140OSM    C6S15205   4.871  -0.259   3.027 -0.0608  0.5894 -0.3218
  140OSM    H6S15206   4.867  -0.370   3.037  0.4285  0.5489 -0.5249
  140OSM    H6T15207   4.762  -0.239   3.020 -0.4472 -0.3118  2.0602
  140OSM    C7S15208   4.921  -0.185   3.152  0.0378  0.1150 -0.1136
  140OSM    H7S15209   4.898  -0.079   3.130 -2.0742 -0.2571  0.1220
  140OSM    H7T15210   5.029  -0.200   3.175  0.0787 -0.2034 -0.4943
  140OSM    C8S15211   4.840  -0.213   3.281 -0.2774 -0.0579 -0.1190
  140OSM    H8S15212   4.732  -0.191   3.262  0.0349  1.5098 -0.2342
  140OSM    H8T15213   4.877  -0.153   3.366  0.3131 -0.7585  0.1244
  140OSM    C9S15214   4.864  -0.357   3.336 -0.4445  0.4344 -0.1380
  140OSM    H9S15215   4.973  -0.370   3.349  0.0042  1.8197 -2.1000
  140OSM    H9T15216   4.818  -0.426   3.261  0.6787  1.6418 -2.0202
  140OSM   C10S15217   4.789  -0.394   3.468 -0.0123 -0.0512 -0.3397
  140OSM   H10S15218   4.797  -0.504   3.479  0.2930  0.0920  1.1225
  140OSM   H10T15219   4.679  -0.376   3.467 -0.1818 -0.6419  2.0666
  140OSM   C11S15220   4.863  -0.337   3.581 -0.1976 -0.2133  0.4651
  140OSM   H11S15221   4.862  -0.227   3.566 -1.6540  0.0219  1.9532
  140OSM   H11T15222   4.969  -0.368   3.568 -1.0981 -2.5742 -2.2729
  140OSM   C12S15223   4.815  -0.371   3.726  0.4745  0.1357 -0.1089
  140OSM   H12S15224   4.704  -0.377   3.726  0.4432  0.6161  0.5486
  140OSM   H12T15225   4.837  -0.281   3.787  1.6947 -1.1680  1.4316
  140OSM   C13S15226   4.884  -0.494   3.775  0.0297 -1.1039  0.3010
  140OSM   H13S15227   4.994  -0.480   3.770  0.0141 -1.1616 -0.1756
  140OSM   H13T15228   4.861  -0.581   3.710 -1.1662 -0.5429 -0.0595
  140OSM   C14S15229   4.840  -0.532   3.920 -0.5348 -0.6837  0.7019
  140OSM   H14S15230   4.733  -0.560   3.915 -0.9616  0.5460 -5.4544
  140OSM   H14T15231   4.847  -0.444   3.987 -0.1946  0.0797 -0.3094
  140OSM   C15S15232   4.922  -0.646   3.974 -0.0861  0.4155 -0.1439
  140OSM   H15S15233   5.027  -0.609   3.974  0.1638 -0.2681 -0.3895
  140OSM   H15T15234   4.911  -0.732   3.904 -2.0572 -0.2798  0.9302
  140OSM   C16S15235   4.902  -0.690   4.119  0.1158 -0.2658  0.8996
  140OSM   H16S15236   4.797  -0.726   4.126 -0.7568  1.9601  0.2087
  140OSM   H16T15237   4.910  -0.602   4.187  0.3669 -0.7168  1.4673
  140OSM   C17S15238   5.010  -0.790   4.158  0.6800 -0.3111 -0.0807
  140OSM   H17S15239   5.091  -0.789   4.082  0.8059  1.2899  0.0366
  140OSM   H17T15240   4.965  -0.891   4.165  1.8110 -0.7278  1.5106
  140OSM   C18S15241   5.066  -0.760   4.299  0.3660  0.4302  0.7800
  140OSM   H18S15242   4.980  -0.754   4.370 -0.7209  2.6747 -0.6166
  140OSM   H18T15243   5.113  -0.660   4.311  0.2463  0.5842  0.0418
  140OSM   H18U15244   5.137  -0.841   4.326  0.9335  1.2601  1.8343
  140OSM    C1F15245   4.949   0.207   2.715  0.0037  0.8013  0.9387
  140OSM     OF15246   4.870   0.184   2.624  0.0335  0.0355 -0.3223
  140OSM    C2F15247   4.952   0.339   2.790 -0.0699 -0.1185  0.2709
  140OSM    H2F15248   4.954   0.427   2.722  1.0236 -0.1315  0.2603
  140OSM    H2G15249   5.037   0.348   2.861 -0.0969  3.6867  0.0378
  140OSM    C3F15250   4.828   0.340   2.871  0.2369 -0.1023 -0.0968
  140OSM    H3F15251   4.745   0.315   2.802  2.0777 -3.5655 -1.3121
  140OSM    H3G15252   4.819   0.447   2.899  1.2241 -0.2967  1.0416
  140OSM    C4F15253   4.828   0.242   2.993  0.6156  0.1618  0.8834
  140OSM    H4F15254   4.913   0.267   3.060 -0.3113  4.0448  0.8690
  140OSM    H4G15255   4.843   0.139   2.955  0.5779  0.5297 -0.1715
  140OSM    C5F15256   4.697   0.241   3.073 -0.3885  0.3696 -0.2499
  140OSM    H5F15257   4.636   0.163   3.024 -0.0029  0.7302 -1.3299
  140OSM    H5G15258   4.645   0.338   3.057 -0.5432  0.1341 -1.2013
  140OSM    C6F15259   4.716   0.222   3.229 -0.3544 -0.7413 -0.4377
  140OSM    H6F15260   4.776   0.305   3.272 -0.9861 -1.4163  1.8767
  140OSM    H6G15261   4.770   0.126   3.250  1.5152  0.2009 -0.6781
  140OSM    C7F15262   4.580   0.213   3.297 -0.7976 -0.0422  0.3154
  140OSM    H7F15263   4.521   0.131   3.250 -0.5028 -0.2025  0.2241
  140OSM    H7G15264   4.528   0.302   3.254 -0.7345 -0.5470 -0.8154
  140OSM    C8F15265   4.560   0.224   3.449  0.3509 -0.1371 -0.5491
  140OSM    H8F15266   4.450   0.228   3.466  0.1982 -3.0072 -0.3933
  140OSM    H8G15267   4.603   0.316   3.494  0.3182 -1.2714  1.9349
  140OSM    C9F15268   4.620   0.093   3.508 -0.4670  0.0045  0.5502
  140OSM    H9F15269   4.613   0.003   3.446 -0.0261  0.6473 -0.4742
  140OSM   C10F15270   4.665   0.081   3.636  0.5317  0.1551  0.3722
  140OSM   H10F15271   4.687  -0.018   3.677 -0.2850  0.1744  0.8864
  140OSM   C11F15272   4.675   0.186   3.739 -0.2796 -0.1066  0.1375
  140OSM   H11F15273   4.624   0.150   3.831 -0.2831  2.9869  1.4854
  140OSM   H11G15274   4.630   0.281   3.700  1.2965  1.3497  1.6965
  140OSM   C12F15275   4.822   0.216   3.793  1.1456 -0.3981  0.0856
  140OSM   H12F15276   4.888   0.228   3.705  0.7394 -0.2866 -0.2086
  140OSM   H12G15277   4.862   0.127   3.846 -0.7782 -2.1816 -1.2742
  140OSM   C13F15278   4.822   0.346   3.863 -0.7907 -0.2476 -0.2734
  140OSM   H13F15279   4.751   0.421   3.823  0.3942  2.5146  2.3861
  140OSM   H13G15280   4.920   0.397   3.853 -1.8298  1.8985 -0.0931
  140OSM   C14F15281   4.803   0.325   4.011  0.3205  0.0279 -0.3322
  140OSM   H14F15282   4.859   0.399   4.072  1.1072 -1.6953  1.1278
  140OSM   H14G15283   4.855   0.232   4.042  0.2512 -0.0207 -0.3612
  140OSM   C15F15284   4.661   0.327   4.066 -0.0831 -0.0525 -0.7314
  140OSM   H15F15285   4.599   0.252   4.012 -1.4998  1.0515 -0.6870
  140OSM   H15G15286   4.609   0.425   4.057  1.7178  0.8861 -1.3900
  140OSM   C16F15287   4.654   0.287   4.213 -0.3105  0.5880  0.3327
  140OSM   H16F15288   4.699   0.364   4.279 -1.7724 -0.0783  2.2096
  140OSM   H16G15289   4.716   0.195   4.216 -2.1712 -0.7745 -1.0703
  140OSM   C17F15290   4.514   0.263   4.265 -0.3518  0.6143  1.3553
  140OSM   H17F15291   4.480   0.176   4.205  1.7614  1.3807 -1.1126
  140OSM   H17G15292   4.454   0.346   4.221 -2.7743 -0.8503  1.6633
  140OSM   C18F15293   4.493   0.270   4.411 -0.3469 -0.4576  0.0654
  140OSM   H18F15294   4.526   0.184   4.472  1.8948  0.2267 -0.1158
  140OSM   H18G15295   4.387   0.289   4.440 -0.1265  1.3896 -0.1896
  140OSM   H18H15296   4.547   0.356   4.456 -1.0451 -0.4925  1.0055
  141OSM      N15297   0.072   2.169   1.698  0.3647 -0.3067  0.7257
  141OSM    C1515298  -0.061   2.135   1.633  0.0127 -0.7453  0.0184
  141OSM   H15A15299  -0.053   2.067   1.549 -1.3805 -2.0772  0.9137
  141OSM   H15B15300  -0.111   2.221   1.592  0.9676 -1.5925 -3.1759
  141OSM   H15C15301  -0.133   2.095   1.703 -0.8657  1.9370  0.7578
  141OSM    C1415302   0.130   2.047   1.761 -0.8508  1.1060 -0.0028
  141OSM   H14A15303   0.077   2.007   1.846  0.6235  0.4544  0.6398
  141OSM   H14B15304   0.229   2.060   1.803 -0.4766 -1.2397 -0.0228
  141OSM   H14C15305   0.142   1.972   1.684  1.3619  0.3637  0.9791
  141OSM    C1315306   0.165   2.223   1.600  0.5737  0.0170  0.4254
  141OSM   H13A15307   0.202   2.147   1.533 -0.2119  1.9848 -2.4423
  141OSM   H13B15308   0.244   2.282   1.645  1.5482 -0.5431 -0.5172
  141OSM   H13C15309   0.130   2.299   1.532 -1.4567  0.1395  1.4979
  141OSM    C1215310   0.044   2.264   1.821  0.0752 -0.0593 -0.1960
  141OSM   H12A15311  -0.037   2.211   1.869 -1.9347  0.5441 -2.7112
  141OSM   H12B15312  -0.003   2.352   1.780 -1.9532 -0.7113  0.5774
  141OSM    C1115313   0.158   2.281   1.916  0.0760  0.1938  0.6881
  141OSM   H11A15314   0.187   2.182   1.957 -0.8249 -0.6240 -0.5647
  141OSM   H11B15315   0.111   2.343   1.995  0.3800  0.9797  0.2552
  141OSM      P15316   0.411   2.301   1.860 -0.1913 -0.0224  0.2543
  141OSM    O1315317   0.418   2.154   1.846  0.2580  0.2615 -0.0103
  141OSM    O1415318   0.483   2.371   1.750 -0.0020  0.3892 -0.4356
  141OSM    O1115319   0.478   2.350   1.996 -0.0412  0.1356  0.4696
  141OSM    O1215320   0.264   2.358   1.858 -0.0908  0.4082 -0.1132
  141OSM    C1S15321   0.401   2.372   2.112  0.0884 -0.1257  0.6193
  141OSM    H1S15322   0.349   2.279   2.141 -0.7189 -1.1309 -3.5142
  141OSM    H1T15323   0.328   2.449   2.079  0.1514 -1.3126 -2.5971
  141OSM     NF15324   0.394   2.445   2.336  0.3552  0.1191  0.2136
  141OSM    HNF15325   0.354   2.536   2.340  0.1105 -0.0136  1.2033
  141OSM    C2S15326   0.490   2.427   2.226  0.4596  0.1072 -0.3477
  141OSM    H2S15327   0.563   2.348   2.251  1.7044  1.9211  2.2044
  141OSM    C3S15328   0.567   2.557   2.191 -0.2632  0.1554 -0.0822
  141OSM    H3S15329   0.488   2.632   2.171 -2.2334 -1.0418  2.6026
  141OSM     O315330   0.659   2.547   2.087 -0.2615 -0.3490  0.6224
  141OSM    HO315331   0.638   2.471   2.033  0.7519  0.0748 -0.4170
  141OSM    C4S15332   0.648   2.608   2.304  0.0909 -0.2596  0.7292
  141OSM    H4S15333   0.730   2.543   2.337  1.0302  0.0704 -0.8709
  141OSM    C5S15334   0.647   2.735   2.352  0.3340  1.2866 -0.6088
  141OSM    H5S15335   0.578   2.808   2.310 -1.7064 -0.2479 -0.0645
  141OSM    C6S15336   0.728   2.794   2.466 -0.5202  0.3143  0.0775
  141OSM    H6S15337   0.791   2.876   2.424  1.6917 -2.2639 -2.0778
  141OSM    H6T15338   0.799   2.727   2.519 -1.6754  0.7399  2.2455
  141OSM    C7S15339   0.636   2.834   2.583 -0.3365 -0.1300 -0.5156
  141OSM    H7S15340   0.577   2.751   2.628  0.0961 -0.1552  0.0175
  141OSM    H7T15341   0.569   2.915   2.548  0.7340  1.0898  0.1663
  141OSM    C8S15342   0.723   2.905   2.692  0.1955 -0.5923 -0.2733
  141OSM    H8S15343   0.782   2.987   2.645 -0.4790 -0.7711 -1.4692
  141OSM    H8T15344   0.788   2.829   2.739 -1.4426 -1.1820  1.1258
  141OSM    C9S15345   0.637   2.967   2.794 -0.2001  0.0024  0.0213
  141OSM    H9S15346   0.574   2.882   2.830 -1.3524  1.1745  0.9010
  141OSM    H9T15347   0.574   3.052   2.760  1.4378  1.8889  1.4956
  141OSM   C10S15348   0.699   3.013   2.929 -0.1973  0.2092  0.0204
  141OSM   H10S15349   0.624   3.065   2.993 -0.5596 -0.8740  0.5020
  141OSM   H10T15350   0.770   3.093   2.897 -2.4619  2.1922 -0.3484
  141OSM   C11S15351   0.780   2.900   3.002  0.3585 -1.1774  0.2422
  141OSM   H11S15352   0.873   2.893   2.941 -0.6286  1.1309 -1.6663
  141OSM   H11T15353   0.699   2.824   3.003 -1.8415  1.0055  2.8325
  141OSM   C12S15354   0.817   2.933   3.142  0.5247 -0.4176 -0.7877
  141OSM   H12S15355   0.873   3.029   3.136  0.9306 -0.6545 -0.7873
  141OSM   H12T15356   0.879   2.857   3.193 -1.3017 -1.0350  0.6099
  141OSM   C13S15357   0.696   2.933   3.238  0.1395  0.2369  0.1519
  141OSM   H13S15358   0.638   2.839   3.229 -1.4607  0.9393  2.2300
  141OSM   H13T15359   0.613   3.001   3.209  0.0305  0.4115  0.8578
  141OSM   C14S15360   0.752   2.951   3.381  0.4697 -0.1632 -0.1415
  141OSM   H14S15361   0.820   3.039   3.382 -0.4451  0.6044 -1.2612
  141OSM   H14T15362   0.812   2.862   3.407 -2.1354 -2.2570 -0.8976
  141OSM   C15S15363   0.644   2.987   3.479 -0.2534  0.3285 -0.7016
  141OSM   H15S15364   0.569   2.907   3.498 -0.8435  1.1582  0.6038
  141OSM   H15T15365   0.583   3.069   3.434 -2.1131  0.4728  1.8664
  141OSM   C16S15366   0.690   3.028   3.622 -0.5117  0.1601  0.1649
  141OSM   H16S15367   0.791   3.074   3.612  0.8383 -1.7392  3.5060
  141OSM   H16T15368   0.713   2.940   3.686  0.6764  0.3956  0.0907
  141OSM   C17S15369   0.599   3.130   3.697 -0.0633 -0.1485  0.2528
  141OSM   H17S15370   0.492   3.102   3.698 -1.7870  5.1826 -0.3898
  141OSM   H17T15371   0.613   3.227   3.643 -1.1821  0.1214  0.4402
  141OSM   C18S15372   0.652   3.155   3.836  0.3167  0.0496  0.0310
  141OSM   H18S15373   0.754   3.197   3.823  0.0408  0.0211 -2.8163
  141OSM   H18T15374   0.656   3.057   3.889 -2.8765 -1.7858 -2.6988
  141OSM   H18U15375   0.583   3.229   3.882  1.0328  3.0110 -3.2558
  141OSM    C1F15376   0.343   2.348   2.417 -0.0768 -0.2857 -0.1957
  141OSM     OF15377   0.368   2.227   2.397  0.4007  0.4232 -0.5604
  141OSM    C2F15378   0.265   2.402   2.528  0.8354  0.2523 -0.8150
  141OSM    H2F15379   0.165   2.444   2.504  0.3053 -0.4592  0.1106
  141OSM    H2G15380   0.335   2.477   2.571  1.7488 -1.0468  0.0110
  141OSM    C3F15381   0.228   2.283   2.624 -0.0422  0.1174 -0.3935
  141OSM    H3F15382   0.322   2.255   2.676 -0.4610 -1.8685 -0.6202
  141OSM    H3G15383   0.190   2.191   2.574  1.4406 -0.7827  0.0403
  141OSM    C4F15384   0.129   2.340   2.732  0.3143 -0.4954  0.3777
  141OSM    H4F15385   0.029   2.353   2.687  0.3962 -0.7732  0.1079
  141OSM    H4G15386   0.169   2.442   2.752 -0.9429  0.2146 -0.5930
  141OSM    C5F15387   0.119   2.272   2.869  0.6567 -0.2829 -0.4390
  141OSM    H5F15388   0.218   2.269   2.919 -0.4117 -1.3282  1.7238
  141OSM    H5G15389   0.094   2.165   2.852  1.0010 -0.5141  0.4763
  141OSM    C6F15390   0.025   2.346   2.961 -0.0078  0.4121  0.0376
  141OSM    H6F15391  -0.073   2.351   2.910 -0.6790  0.3412  1.2886
  141OSM    H6G15392   0.061   2.446   2.994 -1.0324  0.2801  1.6532
  141OSM    C7F15393  -0.005   2.275   3.091 -0.2190  0.4439 -0.1553
  141OSM    H7F15394   0.088   2.241   3.141 -2.8467 -2.0191  3.6192
  141OSM    H7G15395  -0.067   2.186   3.066 -3.0154  2.6046 -1.4831
  141OSM    C8F15396  -0.075   2.368   3.193  0.4588  0.3222 -0.5689
  141OSM    H8F15397  -0.033   2.471   3.183 -1.4497  0.9978 -2.2096
  141OSM    H8G15398  -0.038   2.337   3.293 -0.2696  3.4214  0.7823
  141OSM    C9F15399  -0.226   2.381   3.167  0.6046 -0.2892 -0.0272
  141OSM    H9F15400  -0.254   2.444   3.082 -0.2054  0.5061  0.8049
  141OSM   C10F15401  -0.327   2.322   3.230  0.6539 -0.0334  0.1902
  141OSM   H10F15402  -0.430   2.337   3.196  0.6822 -1.0086 -0.3530
  141OSM   C11F15403  -0.319   2.231   3.347  0.2194  0.4309  0.1432
  141OSM   H11F15404  -0.211   2.213   3.370 -0.4853 -2.4972  1.5955
  141OSM   H11G15405  -0.362   2.132   3.321  1.3938 -0.4976  1.5432
  141OSM   C12F15406  -0.395   2.282   3.468 -1.2726  0.1750  0.2514
  141OSM   H12F15407  -0.501   2.280   3.436 -1.3418 -0.8662  0.5082
  141OSM   H12G15408  -0.360   2.386   3.488 -1.2408  0.2816 -0.3465
  141OSM   C13F15409  -0.377   2.186   3.589  0.1048  0.9293  0.1551
  141OSM   H13F15410  -0.269   2.166   3.606 -0.0990  1.1785  2.0226
  141OSM   H13G15411  -0.419   2.085   3.571  2.1268 -0.0080  0.3864
  141OSM   C14F15412  -0.435   2.239   3.726 -0.2750 -0.4733 -0.0379
  141OSM   H14F15413  -0.417   2.161   3.802 -0.8657 -1.8446 -1.2463
  141OSM   H14G15414  -0.546   2.239   3.716 -0.5134  0.3199  2.1463
  141OSM   C15F15415  -0.396   2.382   3.757 -0.4651  0.2338  0.0579
  141OSM   H15F15416  -0.417   2.445   3.668 -1.1349  1.0692  0.7900
  141OSM   H15G15417  -0.288   2.372   3.782 -0.5345 -0.6212  0.0590
  141OSM   C16F15418  -0.470   2.433   3.883  0.1613  0.6571  0.3769
  141OSM   H16F15419  -0.434   2.375   3.970 -0.6311 -0.5444 -0.0670
  141OSM   H16G15420  -0.579   2.415   3.874  0.1846  0.5816  0.2306
  141OSM   C17F15421  -0.449   2.581   3.914 -0.0400 -0.5098 -0.0081
  141OSM   H17F15422  -0.516   2.648   3.857 -0.9616  0.6944  2.3554
  141OSM   H17G15423  -0.348   2.621   3.891 -0.3723  0.9178  0.8802
  141OSM   C18F15424  -0.470   2.623   4.058  0.3943 -0.3509 -0.7963
  141OSM   H18F15425  -0.570   2.593   4.097  0.6294  1.4890  1.4780
  141OSM   H18G15426  -0.465   2.734   4.067 -0.5871 -0.1807 -2.0469
  141OSM   H18H15427  -0.401   2.559   4.117 -0.8634 -1.2715 -0.2963
  142OSM      N15428   1.196   0.293   2.007 -0.6587  0.7012 -0.1753
  142OSM    C1515429   1.105   0.204   1.924 -0.0498 -0.0281 -1.2588
  142OSM   H15A15430   1.006   0.245   1.913  0.8603  2.0406 -2.3875
  142OSM   H15B15431   1.077   0.119   1.985 -0.7866  0.4239 -0.9662
  142OSM   H15C15432   1.147   0.177   1.828  1.1967  0.3562 -0.8383
  142OSM    C1415433   1.236   0.406   1.918 -0.8699  0.0596  0.0224
  142OSM   H14A15434   1.320   0.466   1.949 -1.3963  0.4572  0.6888
  142OSM   H14B15435   1.145   0.463   1.904 -0.5299  0.9680  1.3457
  142OSM   H14C15436   1.254   0.359   1.822 -1.0809  0.3189 -0.1438
  142OSM    C1315437   1.118   0.340   2.121 -0.7462  0.8354 -0.1073
  142OSM   H13A15438   1.182   0.404   2.182  1.4110 -0.1526 -1.2086
  142OSM   H13B15439   1.095   0.258   2.187 -0.5386  0.6593 -0.2505
  142OSM   H13C15440   1.027   0.388   2.090 -1.5544 -0.9279 -0.5524
  142OSM    C1215441   1.329   0.228   2.043 -0.6519 -0.1922 -0.2486
  142OSM   H12A15442   1.398   0.303   2.079  0.0529  0.7799 -3.3671
  142OSM   H12B15443   1.374   0.181   1.957 -1.5656 -3.4654  0.8862
  142OSM    C1115444   1.340   0.096   2.136 -0.0015  0.1399 -0.1830
  142OSM   H11A15445   1.303   0.124   2.237 -2.2584  0.4541 -1.0454
  142OSM   H11B15446   1.446   0.064   2.141  0.2854  1.1832  1.0723
  142OSM      P15447   1.283  -0.102   1.980 -0.1199 -0.3439  0.2243
  142OSM    O1315448   1.162  -0.120   1.892  0.2472  0.3863 -0.2917
  142OSM    O1415449   1.404  -0.057   1.911  0.2837 -0.1093 -0.4479
  142OSM    O1115450   1.319  -0.231   2.061 -0.2744  0.3013  0.5700
  142OSM    O1215451   1.247  -0.007   2.092  0.5250 -0.0652  0.3214
  142OSM    C1S15452   1.420  -0.233   2.160  0.1446 -0.2505  0.1746
  142OSM    H1S15453   1.506  -0.163   2.152 -0.0495  0.0285  0.5285
  142OSM    H1T15454   1.467  -0.334   2.157  1.5638  0.3822 -2.4520
  142OSM     NF15455   1.455  -0.234   2.400  0.1270  0.4448  0.0146
  142OSM    HNF15456   1.463  -0.322   2.447  0.8753 -0.1270 -1.1512
  142OSM    C2S15457   1.354  -0.226   2.301 -0.1005  0.0451  0.0248
  142OSM    H2S15458   1.298  -0.131   2.314 -0.4117 -0.2417  0.9144
  142OSM    C3S15459   1.244  -0.333   2.314  0.9657  0.1449  0.0892
  142OSM    H3S15460   1.289  -0.434   2.302  0.8548  0.1569 -0.4712
  142OSM     O315461   1.143  -0.332   2.208  0.1282 -0.0448  0.3485
  142OSM    HO315462   1.182  -0.270   2.145 -1.4617 -0.6963 -1.3605
  142OSM    C4S15463   1.165  -0.325   2.446  0.3289 -0.1052  0.5555
  142OSM    H4S15464   1.091  -0.245   2.454  0.9771  0.9040 -2.2231
  142OSM    C5S15465   1.158  -0.416   2.543  0.0350 -0.2093  0.5927
  142OSM    H5S15466   1.221  -0.506   2.553  1.1639  0.6053  0.9802
  142OSM    C6S15467   1.052  -0.405   2.649  0.1327 -0.1733  0.7247
  142OSM    H6S15468   0.963  -0.465   2.619 -1.0380  1.3664  1.0226
  142OSM    H6T15469   1.015  -0.301   2.649  1.6286  0.4032 -0.8052
  142OSM    C7S15470   1.102  -0.447   2.793  0.0799 -0.0700  0.1276
  142OSM    H7S15471   1.195  -0.394   2.821 -0.1083  0.1017  0.4303
  142OSM    H7T15472   1.126  -0.556   2.787  2.2719  0.4108 -1.1735
  142OSM    C8S15473   0.985  -0.418   2.896  0.5872  0.6615 -0.6768
  142OSM    H8S15474   0.891  -0.469   2.865  1.8495 -2.8449  0.7352
  142OSM    H8T15475   0.964  -0.310   2.906 -1.3692  0.4855 -2.1571
  142OSM    C9S15476   1.013  -0.476   3.036  0.4368  0.1528 -0.2682
  142OSM    H9S15477   1.124  -0.476   3.047  0.4747  1.0605 -0.5378
  142OSM    H9T15478   0.984  -0.583   3.037  0.7850  0.0553 -0.2986
  142OSM   C10S15479   0.948  -0.408   3.156 -0.0009  0.8996 -0.3271
  142OSM   H10S15480   0.838  -0.393   3.147 -0.3201  0.5004  2.1263
  142OSM   H10T15481   0.991  -0.307   3.170 -0.7697  1.2124 -0.1495
  142OSM   C11S15482   0.980  -0.499   3.283  0.5060 -0.4850 -0.3171
  142OSM   H11S15483   1.088  -0.518   3.268  0.1930 -1.8090 -1.0164
  142OSM   H11T15484   0.927  -0.597   3.282  0.0947 -0.2806  0.4355
  142OSM   C12S15485   0.949  -0.425   3.415  0.3603 -0.2274 -0.7990
  142OSM   H12S15486   0.842  -0.398   3.406 -0.2083 -2.6489 -1.8753
  142OSM   H12T15487   1.019  -0.338   3.418  0.3925 -0.2686 -0.2521
  142OSM   C13S15488   0.948  -0.511   3.542  0.1144 -0.4127 -0.4720
  142OSM   H13S15489   1.019  -0.593   3.520  1.5057  0.8726 -0.8983
  142OSM   H13T15490   0.848  -0.555   3.566 -0.4865  1.1511  0.0250
  142OSM   C14S15491   1.000  -0.438   3.662 -0.3530 -0.6878  0.3869
  142OSM   H14S15492   0.937  -0.350   3.686  1.1087  0.2470  1.0097
  142OSM   H14T15493   1.102  -0.396   3.642 -0.0298 -1.1159  1.1040
  142OSM   C15S15494   1.007  -0.524   3.781 -0.3129  0.2632 -0.5437
  142OSM   H15S15495   1.082  -0.605   3.769  0.3036  0.6526  0.5261
  142OSM   H15T15496   0.910  -0.576   3.786 -0.4860  0.6096 -0.2858
  142OSM   C16S15497   1.053  -0.432   3.892 -0.3507  0.2262 -0.3177
  142OSM   H16S15498   0.972  -0.355   3.902 -0.8454 -0.5403  2.2997
  142OSM   H16T15499   1.143  -0.383   3.848  0.4846  0.6957  1.8184
  142OSM   C17S15500   1.074  -0.497   4.025 -1.0541 -0.0724 -0.0976
  142OSM   H17S15501   1.151  -0.449   4.089 -1.6759 -0.9930  1.4067
  142OSM   H17T15502   1.113  -0.598   4.002 -1.9298  0.2377 -3.5058
  142OSM   C18S15503   0.940  -0.528   4.109  0.0005 -0.6488  0.0237
  142OSM   H18S15504   0.875  -0.596   4.049 -0.4000  0.3963 -0.7695
  142OSM   H18T15505   0.891  -0.428   4.116 -1.5852 -1.3045 -1.0587
  142OSM   H18U15506   0.974  -0.569   4.206  1.1779  0.3525  0.0505
  142OSM    C1F15507   1.547  -0.143   2.425 -0.0921 -0.3448 -0.0553
  142OSM     OF15508   1.533  -0.028   2.377  0.0813 -0.0581  0.5243
  142OSM    C2F15509   1.665  -0.178   2.515  0.4628  0.3401  0.4277
  142OSM    H2F15510   1.758  -0.179   2.456 -0.1233  0.5980 -0.5233
  142OSM    H2G15511   1.648  -0.277   2.563  0.4374 -0.1186 -0.5208
  142OSM    C3F15512   1.674  -0.065   2.620 -0.0629  0.2865 -0.2816
  142OSM    H3F15513   1.678   0.031   2.565  0.8280  1.8544  2.3474
  142OSM    H3G15514   1.777  -0.062   2.663  0.7992 -0.4223 -2.1740
  142OSM    C4F15515   1.566  -0.058   2.728 -0.1866 -0.5248  0.4764
  142OSM    H4F15516   1.466  -0.041   2.683 -1.0533 -2.9071  1.3508
  142OSM    H4G15517   1.590   0.029   2.793 -0.3976 -0.2589  0.2031
  142OSM    C5F15518   1.577  -0.182   2.818  0.3891  0.2644  0.0604
  142OSM    H5F15519   1.681  -0.188   2.858 -0.1682  0.2026  1.5894
  142OSM    H5G15520   1.548  -0.273   2.761  0.8573  0.2719 -0.1943
  142OSM    C6F15521   1.482  -0.155   2.942 -0.5922  0.3126 -0.6859
  142OSM    H6F15522   1.382  -0.113   2.921 -0.4904  0.0322 -1.8060
  142OSM    H6G15523   1.542  -0.088   3.007  2.8857 -2.3599 -0.7842
  142OSM    C7F15524   1.489  -0.276   3.034 -0.8800 -0.3747 -0.3725
  142OSM    H7F15525   1.599  -0.292   3.040 -0.4232  2.3326  0.0624
  142OSM    H7G15526   1.430  -0.363   2.999 -2.3449 -0.2520  1.5891
  142OSM    C8F15527   1.449  -0.243   3.185  0.2806 -0.2453  0.1485
  142OSM    H8F15528   1.510  -0.155   3.214  0.5381 -0.9184  1.6752
  142OSM    H8G15529   1.482  -0.321   3.256  1.9215  0.8281  0.6305
  142OSM    C9F15530   1.303  -0.216   3.185 -0.4634  0.7351  0.0450
  142OSM    H9F15531   1.247  -0.259   3.101 -0.5030  0.5930  0.1446
  142OSM   C10F15532   1.239  -0.149   3.282  0.2564 -1.1027 -1.0482
  142OSM   H10F15533   1.131  -0.135   3.271  0.1733 -0.3885  0.5187
  142OSM   C11F15534   1.295  -0.080   3.403 -0.4975  0.1153 -1.1403
  142OSM   H11F15535   1.263   0.027   3.398 -0.7286  0.0378 -1.3710
  142OSM   H11G15536   1.406  -0.082   3.402 -0.5072 -0.6148 -2.1169
  142OSM   C12F15537   1.262  -0.160   3.530 -0.4146 -0.0467 -0.0479
  142OSM   H12F15538   1.289  -0.268   3.526  2.4180  0.6050 -2.8955
  142OSM   H12G15539   1.152  -0.157   3.546 -0.2775 -0.8655  1.1522
  142OSM   C13F15540   1.345  -0.103   3.650  0.1830 -0.0552 -0.0922
  142OSM   H13F15541   1.442  -0.157   3.643  0.2018 -0.1539  0.7623
  142OSM   H13G15542   1.310  -0.146   3.746  0.7429 -0.3484 -0.0189
  142OSM   C14F15543   1.375   0.049   3.654 -0.3378 -0.0099  0.7697
  142OSM   H14F15544   1.278   0.100   3.633 -0.9710 -1.6803 -0.5859
  142OSM   H14G15545   1.446   0.085   3.577 -0.5353 -0.8632  0.1824
  142OSM   C15F15546   1.417   0.086   3.797  0.1842  0.2110  0.5493
  142OSM   H15F15547   1.479   0.002   3.835 -0.0213 -1.1734 -2.0030
  142OSM   H15G15548   1.325   0.100   3.858  0.0626 -2.4701  1.0846
  142OSM   C16F15549   1.490   0.221   3.799 -0.3166  0.0819  0.4792
  142OSM   H16F15550   1.424   0.300   3.758  0.1936  0.0515 -0.4096
  142OSM   H16G15551   1.584   0.213   3.741  0.6674  0.8026  1.9114
  142OSM   C17F15552   1.536   0.266   3.938  0.3231  0.2132 -1.1556
  142OSM   H17F15553   1.633   0.321   3.934  0.5265 -0.1923 -2.0387
  142OSM   H17G15554   1.558   0.184   4.010 -0.1897  0.3402 -0.8534
  142OSM   C18F15555   1.433   0.362   3.999 -0.1433  0.2093 -0.1158
  142OSM   H18F15556   1.441   0.373   4.109 -0.0630  1.6730 -0.2520
  142OSM   H18G15557   1.333   0.329   3.963  0.1878 -0.6464 -0.2784
  142OSM   H18H15558   1.450   0.468   3.971 -1.7349  0.8617  1.2145
  143OSM      N15559   1.079   4.416   1.998  0.2796 -0.2550 -0.1211
  143OSM    C1515560   0.927   4.434   2.019  0.6055  1.1235  0.1021
  143OSM   H15A15561   0.886   4.404   1.924  0.9114 -1.7874  0.7890
  143OSM   H15B15562   0.902   4.536   2.042 -0.7370  0.9207 -0.3412
  143OSM   H15C15563   0.888   4.361   2.089 -0.8020 -0.7816 -2.4899
  143OSM    C1415564   1.104   4.271   1.988 -0.4814  0.6561  0.0935
  143OSM   H14A15565   1.184   4.250   1.919 -0.0772  1.4251  0.3224
  143OSM   H14B15566   1.022   4.218   1.942  0.1937 -2.2679  1.9678
  143OSM   H14C15567   1.114   4.223   2.085 -0.5778  1.0831  0.3178
  143OSM    C1315568   1.116   4.485   1.874 -0.1924  0.0651 -0.7310
  143OSM   H13A15569   1.222   4.485   1.854 -0.1188 -1.5334 -0.4616
  143OSM   H13B15570   1.065   4.580   1.886 -1.3936 -0.7825  1.2574
  143OSM   H13C15571   1.070   4.431   1.792 -2.7839  0.5397  0.3267
  143OSM    C1215572   1.164   4.471   2.113 -0.4115 -0.4573  0.4523
  143OSM   H12A15573   1.268   4.485   2.087 -0.1122  1.9484  2.5750
  143OSM   H12B15574   1.162   4.410   2.201 -2.5796  0.5627  1.1902
  143OSM    C1115575   1.132   4.609   2.171  0.7321  0.5849  0.1785
  143OSM   H11A15576   1.188   4.625   2.266 -0.4598 -3.7931  1.8763
  143OSM   H11B15577   1.024   4.612   2.197  0.3124  1.4294 -1.5493
  143OSM      P15578   1.273   4.791   2.046  0.1293 -0.4495 -0.4656
  143OSM    O1315579   1.371   4.697   1.994 -0.3582  0.1863  0.2322
  143OSM    O1415580   1.232   4.905   1.965  0.1771  0.1530 -0.1562
  143OSM    O1115581   1.322   4.845   2.182  0.1776 -0.0711 -0.0079
  143OSM    O1215582   1.143   4.709   2.069  0.4934  0.3439 -0.0540
  143OSM    C1S15583   1.237   4.916   2.266  0.2630 -0.6259 -0.0375
  143OSM    H1S15584   1.141   4.868   2.295 -1.4626  2.5539 -0.0518
  143OSM    H1T15585   1.216   5.018   2.229  2.2507 -0.7136 -1.5689
  143OSM     NF15586   1.196   5.005   2.485 -0.2430  1.0699 -0.3906
  143OSM    HNF15587   1.208   5.103   2.495 -0.4010  0.9112  2.0883
  143OSM    C2S15588   1.291   4.925   2.412  0.3125  0.8206  0.0342
  143OSM    H2S15589   1.296   4.820   2.449  0.4718  0.2430 -1.5495
  143OSM    C3S15590   1.440   4.980   2.412 -0.0814  0.1667  0.3411
  143OSM    H3S15591   1.437   5.082   2.368  1.4938 -0.2458 -0.8397
  143OSM     O315592   1.529   4.901   2.331  0.4372  0.2657  0.6046
  143OSM    HO315593   1.467   4.854   2.274  0.9278  1.6522 -1.1917
  143OSM    C4S15594   1.487   5.001   2.549  0.9205 -0.0170  0.5577
  143OSM    H4S15595   1.441   5.086   2.600  2.7324  0.2009  1.9255
  143OSM    C5S15596   1.569   4.920   2.621 -0.2778  0.0811  1.0859
  143OSM    H5S15597   1.611   4.829   2.577 -1.0570  0.2702 -0.0631
  143OSM    C6S15598   1.601   4.952   2.767 -0.0591  0.3229  0.0048
  143OSM    H6S15599   1.577   5.058   2.788  0.4531  0.0980  1.8795
  143OSM    H6T15600   1.711   4.945   2.785 -0.1016  1.4194  0.7944
  143OSM    C7S15601   1.529   4.868   2.866  0.1493  1.0687  0.8198
  143OSM    H7S15602   1.525   4.764   2.828  1.2533  1.0236  0.8006
  143OSM    H7T15603   1.420   4.892   2.869  0.4296  2.6138 -0.0048
  143OSM    C8S15604   1.590   4.861   3.003  0.1297 -0.5418 -0.5427
  143OSM    H8S15605   1.701   4.861   2.992  0.3256  1.2753  0.9600
  143OSM    H8T15606   1.561   4.770   3.058 -3.1419  1.1639  0.7938
  143OSM    C9S15607   1.555   4.981   3.084  0.5636 -0.4647 -0.3483
  143OSM    H9S15608   1.599   5.067   3.030  0.6254 -1.1063 -1.3515
  143OSM    H9T15609   1.607   4.980   3.183  0.8999 -0.0545 -0.5204
  143OSM   C10S15610   1.401   4.991   3.110 -1.0160  0.1210  0.0863
  143OSM   H10S15611   1.361   4.889   3.125 -0.2875 -0.0798  0.7027
  143OSM   H10T15612   1.352   5.022   3.015 -0.7926 -2.6796 -1.0406
  143OSM   C11S15613   1.376   5.076   3.228  0.1833  0.2903  0.1858
  143OSM   H11S15614   1.276   5.125   3.228 -0.9328 -1.7881 -2.2780
  143OSM   H11T15615   1.451   5.159   3.231 -1.4627  1.8128  2.0804
  143OSM   C12S15616   1.390   5.003   3.367  0.0405 -0.7842  1.3634
  143OSM   H12S15617   1.477   4.936   3.348  0.9251  0.8885 -0.7688
  143OSM   H12T15618   1.305   4.932   3.376  0.5992 -1.9766 -1.5366
  143OSM   C13S15619   1.387   5.092   3.493  0.2288 -0.0091  0.6206
  143OSM   H13S15620   1.301   5.162   3.488 -0.8465 -1.3167  0.0279
  143OSM   H13T15621   1.470   5.165   3.484 -1.3388  1.6289 -2.1638
  143OSM   C14S15622   1.417   5.016   3.618  0.6175  1.1208 -0.5260
  143OSM   H14S15623   1.376   4.913   3.612  1.0582  0.9321 -0.3847
  143OSM   H14T15624   1.377   5.064   3.710 -2.9936 -0.5612 -1.0346
  143OSM   C15S15625   1.565   5.005   3.640 -0.0320 -0.9204  0.0862
  143OSM   H15S15626   1.592   5.112   3.643  1.0501 -1.1908  2.6963
  143OSM   H15T15627   1.617   4.951   3.558  3.1407  1.2573  0.4812
  143OSM   C16S15628   1.594   4.937   3.773  0.1885  0.3389 -0.2286
  143OSM   H16S15629   1.574   4.828   3.769  3.5381 -0.4242  0.1584
  143OSM   H16T15630   1.536   4.983   3.856  1.0109  1.4887 -0.2732
  143OSM   C17S15631   1.740   4.951   3.825 -0.0544  0.2525  0.4554
  143OSM   H17S15632   1.749   4.900   3.923  0.4186  0.2820  0.4295
  143OSM   H17T15633   1.764   5.060   3.829 -3.4864  1.1067  0.5430
  143OSM   C18S15634   1.842   4.890   3.724  0.0511  0.1687  0.0533
  143OSM   H18S15635   1.843   4.954   3.633  0.0519 -0.4121 -0.3663
  143OSM   H18T15636   1.818   4.787   3.689  1.0314  0.1283 -0.5231
  143OSM   H18U15637   1.942   4.882   3.770 -0.1524 -1.2434  0.3225
  143OSM    C1F15638   1.077   4.950   2.525  0.3516 -0.3782 -0.5840
  143OSM     OF15639   1.055   4.829   2.523  0.0788 -0.0479  0.0026
  143OSM    C2F15640   0.974   5.050   2.563  1.1076 -0.1987 -0.0444
  143OSM    H2F15641   0.887   5.048   2.494  1.7208 -1.2943 -0.8123
  143OSM    H2G15642   1.022   5.151   2.559  0.3897  0.1782  0.6426
  143OSM    C3F15643   0.919   5.035   2.705  0.3602  0.0374  0.1372
  143OSM    H3F15644   0.866   4.938   2.717  0.7647  0.1486  3.9441
  143OSM    H3G15645   0.837   5.110   2.706  0.4408  0.1192  0.9963
  143OSM    C4F15646   1.015   5.035   2.823  0.0491  0.2412  0.4092
  143OSM    H4F15647   1.092   5.116   2.818 -0.2898  0.4935 -1.3460
  143OSM    H4G15648   1.077   4.943   2.824 -0.7819 -0.3244  0.5275
  143OSM    C5F15649   0.947   5.066   2.954 -0.9085 -0.3601 -0.7349
  143OSM    H5F15650   0.860   4.999   2.962 -0.9838 -0.4699 -2.2031
  143OSM    H5G15651   0.909   5.171   2.950  1.2665  0.6462  1.8010
  143OSM    C6F15652   1.035   5.072   3.082 -0.3678 -0.0985  0.6668
  143OSM    H6F15653   1.134   5.102   3.041 -1.4067  1.2547 -1.0071
  143OSM    H6G15654   1.046   4.970   3.123 -0.4607 -0.2722  0.2688
  143OSM    C7F15655   0.982   5.154   3.196 -0.3075  0.2415  0.2303
  143OSM    H7F15656   0.972   5.262   3.173  0.4163 -0.0825 -1.7557
  143OSM    H7G15657   1.059   5.147   3.276  0.2126 -0.5998 -0.3270
  143OSM    C8F15658   0.844   5.107   3.245  0.5246 -0.0359 -0.6335
  143OSM    H8F15659   0.769   5.108   3.164 -0.2421  1.3050  0.0483
  143OSM    H8G15660   0.807   5.180   3.321  2.3990 -2.3919  2.8189
  143OSM    C9F15661   0.849   4.970   3.314  0.6037 -0.0481  0.5059
  143OSM    H9F15662   0.821   4.886   3.249 -0.9350  1.4541 -0.8947
  143OSM   C10F15663   0.863   4.954   3.448 -0.3310 -0.0748 -0.1004
  143OSM   H10F15664   0.855   4.853   3.491 -1.7640  1.0065  2.3830
  143OSM   C11F15665   0.894   5.062   3.549  0.1991 -0.1621  0.4759
  143OSM   H11F15666   0.801   5.086   3.605 -0.6466  1.2893 -1.4146
  143OSM   H11G15667   0.933   5.153   3.499 -2.2668  1.7002  1.7126
  143OSM   C12F15668   1.000   5.023   3.642  0.2875 -0.3283  0.6233
  143OSM   H12F15669   1.104   5.033   3.607  0.6281 -2.7848  0.7712
  143OSM   H12G15670   0.999   4.915   3.670 -0.9697 -0.4322  0.2714
  143OSM   C13F15671   1.000   5.104   3.774  0.1434 -0.0200  0.2858
  143OSM   H13F15672   0.898   5.106   3.817 -0.7724  1.4171 -1.7997
  143OSM   H13G15673   1.028   5.207   3.743 -0.7835  0.1728  0.0662
  143OSM   C14F15674   1.098   5.065   3.880 -0.3070  0.0390 -0.0808
  143OSM   H14F15675   1.205   5.079   3.857  0.4315 -0.4670  2.6796
  143OSM   H14G15676   1.088   4.958   3.909  1.6473 -0.1310  0.0948
  143OSM   C15F15677   1.088   5.159   4.001  0.2920  0.4539  0.5860
  143OSM   H15F15678   0.981   5.156   4.030  0.2491 -0.1804  0.3884
  143OSM   H15G15679   1.123   5.258   3.966  0.1103  0.4882  0.4994
  143OSM   C16F15680   1.177   5.102   4.118 -0.6369  0.1694  0.5672
  143OSM   H16F15681   1.277   5.149   4.125 -1.9495  3.3138 -0.2047
  143OSM   H16G15682   1.199   4.998   4.085  0.8499  0.8562 -0.7663
  143OSM   C17F15683   1.120   5.091   4.265 -0.2274  0.2691  0.1581
  143OSM   H17F15684   1.015   5.061   4.243 -0.1963 -0.3266  0.7710
  143OSM   H17G15685   1.122   5.186   4.322  0.3360  1.6462 -2.0437
  143OSM   C18F15686   1.176   4.985   4.366  0.0793 -0.7284  1.4242
  143OSM   H18F15687   1.287   4.980   4.362  0.1615  0.7826  1.1023
  143OSM   H18G15688   1.127   4.889   4.338 -3.1113  0.4926  2.3302
  143OSM   H18H15689   1.142   5.008   4.470  3.0171  0.4461  2.2470
  144OSM      N15690   0.641   5.569   1.800  0.0922 -0.0615 -0.0355
  144OSM    C1515691   0.635   5.606   1.945  0.4697 -0.2151  0.5256
  144OSM   H15A15692   0.683   5.702   1.959 -0.1518 -0.0527  1.6257
  144OSM   H15B15693   0.703   5.539   1.995 -1.0659 -0.6214  2.1443
  144OSM   H15C15694   0.531   5.609   1.975  0.2764  0.4840 -0.1747
  144OSM    C1415695   0.560   5.443   1.783  0.2363 -0.0085  0.4862
  144OSM   H14A15696   0.606   5.357   1.828 -1.7934 -1.5199 -0.1581
  144OSM   H14B15697   0.557   5.405   1.682  2.1257 -1.0513  0.7771
  144OSM   H14C15698   0.457   5.454   1.815 -1.2505 -3.1328 -2.4960
  144OSM    C1315699   0.589   5.685   1.726  0.3176  0.3683  0.4432
  144OSM   H13A15700   0.653   5.771   1.742  0.4112  0.3153  0.3578
  144OSM   H13B15701   0.491   5.715   1.761  0.2685 -1.1597  1.7177
  144OSM   H13C15702   0.583   5.665   1.620  0.6466 -1.4152  0.7284
  144OSM    C1215703   0.782   5.543   1.762  0.4278  0.3467 -0.0589
  144OSM   H12A15704   0.779   5.498   1.664  2.3836 -0.5070  0.2336
  144OSM   H12B15705   0.830   5.465   1.817 -0.2632  0.1879  0.3293
  144OSM    C1115706   0.883   5.654   1.762  0.3821  0.0308  0.9286
  144OSM   H11A15707   0.834   5.742   1.715  0.8272 -0.4029 -0.3734
  144OSM   H11B15708   0.971   5.631   1.699 -0.0369 -1.3960  0.8389
  144OSM      P15709   1.034   5.595   1.969 -0.0076  0.3992  0.0357
  144OSM    O1315710   1.002   5.450   1.967 -0.1318  0.4942  0.2127
  144OSM    O1415711   1.167   5.638   1.929 -0.3271  0.1179 -0.3264
  144OSM    O1115712   1.031   5.651   2.116  0.9666 -0.0436  0.5526
  144OSM    O1215713   0.934   5.686   1.894  0.3975  0.5941  0.2351
  144OSM    C1S15714   0.919   5.739   2.149 -0.4179 -0.7349  0.5473
  144OSM    H1S15715   0.817   5.697   2.137  0.5125 -3.3058  0.9064
  144OSM    H1T15716   0.926   5.837   2.098  1.6697 -1.1227 -0.0312
  144OSM     NF15717   0.817   5.855   2.351 -0.5077 -0.1756  0.2558
  144OSM    HNF15718   0.817   5.952   2.372  1.7232 -0.2070  0.5866
  144OSM    C2S15719   0.930   5.788   2.303  0.0262  0.3390 -0.2641
  144OSM    H2S15720   0.945   5.694   2.360 -1.9080  0.2122  0.0856
  144OSM    C3S15721   1.060   5.877   2.317 -0.8130  0.0470  0.1311
  144OSM    H3S15722   1.034   5.980   2.285  0.5431  1.1859  2.3922
  144OSM     O315723   1.168   5.840   2.234 -0.8644  0.4402  0.2134
  144OSM    HO315724   1.136   5.766   2.181  3.0723 -0.0946 -1.7776
  144OSM    C4S15725   1.093   5.888   2.463  0.5120  0.8041 -0.3436
  144OSM    H4S15726   1.037   5.975   2.501 -4.5475 -2.0656 -0.3482
  144OSM    C5S15727   1.170   5.805   2.542 -0.3589  0.1239  0.5703
  144OSM    H5S15728   1.231   5.726   2.496 -1.5653 -1.5255  1.6827
  144OSM    C6S15729   1.192   5.826   2.688 -0.8534 -0.7869 -1.1226
  144OSM    H6S15730   1.277   5.768   2.730  0.7506  0.9285 -1.8532
  144OSM    H6T15731   1.110   5.787   2.752  0.3173 -1.1884  0.1740
  144OSM    C7S15732   1.221   5.971   2.743 -0.2946 -0.0063 -0.2219
  144OSM    H7S15733   1.128   6.031   2.735  0.1731  0.9005  0.8959
  144OSM    H7T15734   1.308   6.013   2.688 -0.3205  2.5754  1.5493
  144OSM    C8S15735   1.272   5.959   2.891 -0.7500  0.2859 -0.2323
  144OSM    H8S15736   1.361   5.893   2.895 -0.3532  0.8603  1.2847
  144OSM    H8T15737   1.200   5.900   2.952  0.8988 -2.9093 -1.2102
  144OSM    C9S15738   1.304   6.087   2.967  0.7715 -0.3247 -0.5745
  144OSM    H9S15739   1.217   6.155   2.954 -0.1491 -0.5747  3.0589
  144OSM    H9T15740   1.402   6.132   2.941  0.4438  0.2968 -0.7730
  144OSM   C10S15741   1.303   6.057   3.123 -0.1647 -0.3304 -0.0376
  144OSM   H10S15742   1.381   5.979   3.136 -0.2346 -0.1565  1.6989
  144OSM   H10T15743   1.212   5.997   3.146 -0.2162 -0.0480  0.5181
  144OSM   C11S15744   1.341   6.170   3.224  0.3452 -0.3864 -0.7689
  144OSM   H11S15745   1.271   6.254   3.203  0.9997  0.5960  0.8282
  144OSM   H11T15746   1.447   6.195   3.201  0.7334 -2.1820 -1.0890
  144OSM   C12S15747   1.318   6.121   3.364 -0.1361  0.2279  0.0264
  144OSM   H12S15748   1.373   6.027   3.385  2.3210  1.5976  0.0764
  144OSM   H12T15749   1.211   6.100   3.389 -1.1344  2.1126 -2.2806
  144OSM   C13S15750   1.373   6.220   3.473  0.0302  0.4945 -0.8788
  144OSM   H13S15751   1.341   6.326   3.472 -2.5301 -0.1015  1.8443
  144OSM   H13T15752   1.483   6.229   3.463  0.1138  0.0733 -0.4289
  144OSM   C14S15753   1.338   6.174   3.616  0.3059  0.3864  0.3952
  144OSM   H14S15754   1.383   6.075   3.639  1.6909  1.0632  0.7062
  144OSM   H14T15755   1.229   6.164   3.635  0.2461  0.2645 -0.0033
  144OSM   C15S15756   1.397   6.270   3.716 -0.0661  0.9885 -0.4628
  144OSM   H15S15757   1.364   6.220   3.810  0.1861  0.4375 -0.6598
  144OSM   H15T15758   1.350   6.370   3.708 -5.5076 -0.8953  2.4539
  144OSM   C16S15759   1.552   6.279   3.709  0.2541 -0.0449  0.2004
  144OSM   H16S15760   1.585   6.325   3.613 -0.3634  0.6063  0.2924
  144OSM   H16T15761   1.599   6.179   3.724  1.9182  0.5870 -0.5547
  144OSM   C17S15762   1.599   6.350   3.837  0.5152 -0.7468 -0.0513
  144OSM   H17S15763   1.709   6.366   3.838  0.3009  1.0182 -1.3275
  144OSM   H17T15764   1.570   6.284   3.921 -1.8040  1.2984  0.8711
  144OSM   C18S15765   1.541   6.490   3.865  0.2255  0.2412 -0.2195
  144OSM   H18S15766   1.563   6.567   3.788 -0.0623 -1.7191 -2.4056
  144OSM   H18T15767   1.576   6.540   3.958  1.6320 -1.4312  0.1993
  144OSM   H18U15768   1.430   6.483   3.876  0.1511  1.0509 -0.3660
  144OSM    C1F15769   0.702   5.801   2.351  0.9681  0.3781  0.6590
  144OSM     OF15770   0.681   5.687   2.298 -0.0258 -0.0307 -0.3729
  144OSM    C2F15771   0.599   5.894   2.417 -0.4075  0.5854 -0.9982
  144OSM    H2F15772   0.598   5.987   2.355  1.3839  0.0585 -1.8727
  144OSM    H2G15773   0.651   5.915   2.513  0.4569  0.2432 -1.3811
  144OSM    C3F15774   0.460   5.850   2.442  0.2630  0.1874 -0.1485
  144OSM    H3F15775   0.466   5.746   2.478  0.3724  0.2426 -0.0111
  144OSM    H3G15776   0.403   5.859   2.347 -2.2778  2.2783  1.4484
  144OSM    C4F15777   0.382   5.935   2.545 -0.3072 -0.1241 -0.5062
  144OSM    H4F15778   0.302   5.987   2.488 -0.8856  2.5723  2.4637
  144OSM    H4G15779   0.441   6.022   2.580 -0.5973 -0.2793  0.3832
  144OSM    C5F15780   0.329   5.864   2.668  0.3306 -0.6311  0.1970
  144OSM    H5F15781   0.290   5.938   2.742  1.9986 -1.0783  1.6090
  144OSM    H5G15782   0.421   5.826   2.718  0.0689 -3.1147 -1.0613
  144OSM    C6F15783   0.234   5.746   2.651 -0.4931 -0.3342  0.1336
  144OSM    H6F15784   0.266   5.683   2.566 -0.9268  0.6817 -0.8051
  144OSM    H6G15785   0.129   5.778   2.635  0.2191  1.3928 -1.3420
  144OSM    C7F15786   0.258   5.650   2.774  0.7633 -0.7054 -0.5815
  144OSM    H7F15787   0.259   5.709   2.868 -1.0685 -1.1910 -0.2304
  144OSM    H7G15788   0.362   5.610   2.764  1.2988  0.5554 -0.2760
  144OSM    C8F15789   0.154   5.536   2.785  0.4052  0.5617 -0.5539
  144OSM    H8F15790   0.200   5.450   2.837  0.5511  0.8947 -0.1230
  144OSM    H8G15791   0.135   5.511   2.678  2.3809  1.0659 -1.0546
  144OSM    C9F15792   0.020   5.564   2.846  0.3615 -1.0716 -0.1917
  144OSM    H9F15793  -0.063   5.586   2.778 -0.0563  0.0238  0.6448
  144OSM   C10F15794  -0.004   5.591   2.977  0.0828  0.3494  0.7058
  144OSM   H10F15795  -0.102   5.627   3.011  0.3214  0.8957  0.8270
  144OSM   C11F15796   0.098   5.575   3.082  0.7967 -0.1427  0.3281
  144OSM   H11F15797   0.187   5.636   3.057  3.0270 -2.4782  2.0753
  144OSM   H11G15798   0.119   5.468   3.099 -1.4806 -0.7191 -0.1612
  144OSM   C12F15799   0.033   5.627   3.213  0.4160 -0.5640  0.1356
  144OSM   H12F15800  -0.054   5.561   3.233 -0.5528 -0.1107 -2.2046
  144OSM   H12G15801  -0.011   5.729   3.202  2.5540  0.2760 -1.1651
  144OSM   C13F15802   0.139   5.611   3.329 -0.3735  0.3022  0.1742
  144OSM   H13F15803   0.227   5.673   3.302  0.8214 -1.0778  0.7186
  144OSM   H13G15804   0.189   5.512   3.335  1.5406  1.3032  3.2770
  144OSM   C14F15805   0.086   5.635   3.470 -0.1745 -0.5863 -0.3576
  144OSM   H14F15806  -0.021   5.612   3.453 -0.4191 -0.5271  0.9659
  144OSM   H14G15807   0.107   5.741   3.498  0.7728 -0.8112 -0.1801
  144OSM   C15F15808   0.150   5.540   3.575 -0.9294  0.1848  0.5076
  144OSM   H15F15809   0.227   5.592   3.635 -0.1410 -0.9482  0.4983
  144OSM   H15G15810   0.203   5.452   3.533 -1.1149  0.1395  0.3633
  144OSM   C16F15811   0.040   5.485   3.668 -0.2611 -0.2831 -0.2808
  144OSM   H16F15812   0.000   5.408   3.599  0.9308 -1.1963  0.0369
  144OSM   H16G15813  -0.037   5.563   3.689 -0.0984  0.0284 -0.8012
  144OSM   C17F15814   0.101   5.423   3.800 -0.4079 -0.3613 -0.3527
  144OSM   H17F15815   0.172   5.495   3.846 -0.9496 -1.0453  1.6408
  144OSM   H17G15816   0.151   5.328   3.772 -1.1204 -0.6534 -0.6660
  144OSM   C18F15817   0.002   5.388   3.915  0.2815 -0.0377 -0.4681
  144OSM   H18F15818   0.057   5.346   4.001  1.3847 -0.9150 -1.5524
  144OSM   H18G15819  -0.080   5.320   3.882 -0.2946  0.6816 -0.5315
  144OSM   H18H15820  -0.047   5.481   3.951  0.7382 -0.4824  1.3626
  145SAPE     N15821   1.835   0.811   6.810  0.4121  0.6318 -0.1654
  145SAPE   HN115822   1.754   0.824   6.873  1.3240  2.6675  0.6707
  145SAPE   HN215823   1.876   0.722   6.846 -1.4387  0.0347  0.6113
  145SAPE   HN315824   1.891   0.897   6.829  0.1036  0.4822  1.5810
  145SAPE   C1215825   1.796   0.795   6.666 -0.1474  0.2103 -0.5194
  145SAPE  H12A15826   1.712   0.864   6.646  0.8809  1.9693  0.9418
  145SAPE  H12B15827   1.760   0.690   6.661  1.4540 -0.4107  0.3409
  145SAPE   C1115828   1.919   0.812   6.577  0.1579 -0.0249 -0.2111
  145SAPE  H11A15829   1.873   0.800   6.477  0.1216  1.0071 -0.3313
  145SAPE  H11B15830   1.998   0.734   6.584  0.2681 -0.0426 -1.4616
  145SAPE     P15831   1.926   1.067   6.508 -0.2962 -0.0051 -0.4592
  145SAPE   O1315832   1.782   1.073   6.517  0.0606  0.0361  0.6930
  145SAPE   O1415833   2.004   1.183   6.542 -0.2103 -0.1801  0.3237
  145SAPE   O1215834   1.975   0.946   6.598 -0.2607 -0.0790  0.1556
  145SAPE   O1115835   1.960   1.009   6.359  0.1816 -0.0084 -0.3592
  145SAPE    C115836   2.074   0.940   6.321  0.0223 -0.4945  0.6696
  145SAPE    HA15837   2.165   1.002   6.334 -1.5011  2.5890 -1.9386
  145SAPE    HB15838   2.082   0.848   6.383 -0.6143 -0.9677  0.0668
  145SAPE    C215839   2.061   0.886   6.177  0.4576  0.4896  0.7643
  145SAPE    HS15840   2.038   0.972   6.111  0.8545  0.1246  0.1279
  145SAPE   O2115841   1.964   0.786   6.170  0.8251  0.2111  0.9039
  145SAPE   C2115842   1.896   0.791   6.054  0.2674 -0.5357  0.1234
  145SAPE   O2215843   1.916   0.867   5.959  0.0829 -0.1689  0.0338
  145SAPE   C2215844   1.799   0.674   6.048 -0.0967  0.2114 -0.1821
  145SAPE   H2R15845   1.860   0.581   6.054  1.1395  0.8919 -1.5631
  145SAPE   H2S15846   1.744   0.695   6.142 -3.1729 -1.2417 -1.5202
  145SAPE    C315847   2.196   0.824   6.127  0.4630 -0.0630  0.3701
  145SAPE    HX15848   2.231   0.737   6.186  0.0221  0.0770  0.8403
  145SAPE    HY15849   2.273   0.905   6.130  0.1475  0.3579 -1.3596
  145SAPE   O3115850   2.179   0.768   5.992 -0.5972 -0.7112 -0.2619
  145SAPE   C3115851   2.196   0.859   5.898  0.2533  0.5654 -0.3579
  145SAPE   O3215852   2.208   0.982   5.915 -0.0826 -0.1852 -0.2487
  145SAPE   C3215853   2.167   0.789   5.772  0.3197 -0.4105  0.5655
  145SAPE   H2X15854   2.066   0.743   5.773  0.7996 -1.8410 -2.6175
  145SAPE   H2Y15855   2.223   0.695   5.757  1.0017  0.2198 -1.1438
  145SAPE   C2315856   1.701   0.670   5.934 -0.6386 -0.4623  0.3999
  145SAPE   H3R15857   1.652   0.769   5.923  1.3516  0.5814  0.4514
  145SAPE   H3S15858   1.615   0.606   5.964 -1.6152 -0.0136 -1.2952
  145SAPE   C2415859   1.765   0.610   5.810  0.3101 -0.4974 -0.1118
  145SAPE   H4R15860   1.820   0.518   5.836  3.2713  1.2219  0.1191
  145SAPE   H4S15861   1.833   0.683   5.762 -1.1069  0.9569 -0.0068
  145SAPE   C2515862   1.659   0.568   5.712 -0.4632 -0.1537 -0.3480
  145SAPE   H5R15863   1.557   0.591   5.747 -0.5604  1.6094 -1.6605
  145SAPE   C2615864   1.675   0.510   5.588  0.7144  0.0892 -0.6232
  145SAPE   H6R15865   1.582   0.490   5.532 -0.2975  2.7352 -0.0526
  145SAPE   C2715866   1.807   0.478   5.529  0.4023  0.0735  1.2699
  145SAPE   H7R15867   1.791   0.374   5.493 -1.6701  0.6845  0.2336
  145SAPE   H7S15868   1.890   0.467   5.602  3.9711 -1.6208 -2.6581
  145SAPE   C2815869   1.863   0.564   5.420 -0.4104  0.7198  0.1355
  145SAPE   H8R15870   1.902   0.658   5.460  1.0708  0.7337 -1.2511
  145SAPE   C2915871   1.865   0.547   5.283  0.1308 -0.2731  0.1349
  145SAPE   H9R15872   1.904   0.632   5.225  3.4321 -1.9140 -0.2974
  145SAPE  C21015873   1.822   0.420   5.207  0.5275  0.5461 -0.5897
  145SAPE  H10R15874   1.797   0.332   5.271 -1.3582  0.5648 -1.2416
  145SAPE  H10S15875   1.913   0.387   5.153  1.1109  1.2074 -0.0410
  145SAPE  C21115876   1.709   0.431   5.108 -0.1447  0.2707 -0.0486
  145SAPE  H11R15877   1.616   0.381   5.141  0.8913 -2.2328 -0.7507
  145SAPE  C21215878   1.710   0.484   4.986 -0.0309 -0.1201 -0.0855
  145SAPE  H12R15879   1.620   0.472   4.923 -0.2237  0.0364  0.1539
  145SAPE  C21315880   1.830   0.553   4.921 -0.2108  0.6890 -1.2363
  145SAPE  H13R15881   1.900   0.470   4.896  0.0867  0.4991  0.1781
  145SAPE  H13S15882   1.886   0.611   4.997 -1.0543 -0.0300 -0.0431
  145SAPE  C21415883   1.796   0.636   4.801 -0.5235  0.4384  0.5647
  145SAPE  H14R15884   1.755   0.735   4.825  0.6191  1.6659 -2.0996
  145SAPE  C21515885   1.815   0.611   4.670 -0.7520 -0.2802  0.2101
  145SAPE  H15R15886   1.783   0.688   4.599 -1.7971 -1.5295 -0.7165
  145SAPE  C21615887   1.860   0.482   4.598  0.6743  0.5626 -0.0577
  145SAPE  H16R15888   1.776   0.411   4.584 -2.2556  3.1923  2.5951
  145SAPE  H16S15889   1.926   0.417   4.660  1.1581  1.1836  0.0854
  145SAPE  C21715890   1.929   0.514   4.459  0.1962 -0.2841  0.0935
  145SAPE  H17R15891   1.853   0.565   4.396 -0.6416 -2.4642 -0.7537
  145SAPE  H17S15892   1.953   0.416   4.413 -1.9857 -0.5449 -0.5912
  145SAPE  C21815893   2.047   0.601   4.477  0.4674  0.3453 -0.1439
  145SAPE  H18R15894   2.118   0.558   4.552  0.1060  0.3180  0.1843
  145SAPE  H18S15895   2.029   0.706   4.511  2.8110  0.9524 -0.5358
  145SAPE  C21915896   2.131   0.618   4.352 -0.1143  0.1331 -0.4437
  145SAPE  H19R15897   2.179   0.717   4.371  0.8721 -0.5446  0.7584
  145SAPE  H19S15898   2.069   0.634   4.261  0.3053 -0.3354 -0.8158
  145SAPE  C22015899   2.245   0.524   4.319 -0.6004  0.1515 -0.2168
  145SAPE  H20R15900   2.289   0.536   4.218  1.2473 -1.8452  0.2847
  145SAPE  H20S15901   2.206   0.420   4.319 -3.0146  0.9609 -2.1372
  145SAPE  H20T15902   2.330   0.529   4.391  0.3515  2.4880 -1.3923
  145SAPE   C3315903   2.208   0.878   5.650  0.1429  0.1075 -0.1671
  145SAPE   H3X15904   2.317   0.898   5.649 -0.0192  1.1104 -1.6142
  145SAPE   H3Y15905   2.151   0.974   5.653 -0.3778 -0.2248  1.4338
  145SAPE   C3415906   2.182   0.806   5.521 -0.1215  0.2790 -0.1955
  145SAPE   H4X15907   2.080   0.762   5.531  1.3401 -2.9946  1.8290
  145SAPE   H4Y15908   2.251   0.719   5.517 -0.5100 -0.0031 -1.4770
  145SAPE   C3515909   2.210   0.896   5.398  0.0103  0.9924 -0.6158
  145SAPE   H5X15910   2.314   0.934   5.412 -0.7251  3.0184 -0.3326
  145SAPE   H5Y15911   2.135   0.978   5.395 -1.5416 -0.3482  0.2506
  145SAPE   C3615912   2.209   0.828   5.266  0.2990 -0.7738  0.3725
  145SAPE   H6X15913   2.118   0.771   5.236 -0.2823  0.1314  0.3751
  145SAPE   H6Y15914   2.286   0.748   5.275  1.5830  0.0039 -2.6173
  145SAPE   C3715915   2.247   0.914   5.151 -0.4167 -0.4138  0.5534
  145SAPE   H7X15916   2.335   0.980   5.168 -0.2710 -0.4206 -0.1173
  145SAPE   H7Y15917   2.163   0.983   5.128  0.5524 -0.0128 -2.1701
  145SAPE   C3815918   2.281   0.834   5.027 -0.0588 -0.6657  0.4707
  145SAPE   H8X15919   2.209   0.749   5.031  0.0137 -0.7533 -0.0371
  145SAPE   H8Y15920   2.385   0.797   5.031  0.3848  0.0947 -2.0462
  145SAPE   C3915921   2.266   0.903   4.887 -0.0977  0.0436 -0.5059
  145SAPE   H9X15922   2.339   0.987   4.896 -0.5340  0.6000 -1.8896
  145SAPE   H9Y15923   2.173   0.964   4.882  0.2566  0.6370 -0.0915
  145SAPE  C31015924   2.310   0.821   4.763 -0.1019 -0.3225  0.3749
  145SAPE  H10X15925   2.223   0.755   4.745 -1.3387  1.5937 -1.0228
  145SAPE  H10Y15926   2.404   0.765   4.784  0.4113  0.4056  0.0408
  145SAPE  C31115927   2.356   0.914   4.640 -0.0071 -0.0719 -0.2634
  145SAPE  H11X15928   2.377   0.848   4.553 -0.2393 -0.5741  0.0499
  145SAPE  H11Y15929   2.442   0.975   4.675  0.9288 -0.6745 -1.4512
  145SAPE  C31215930   2.239   1.007   4.611 -0.0937  0.7618  0.4976
  145SAPE  H12X15931   2.223   1.084   4.689  0.2720  0.2567  1.0755
  145SAPE  H12Y15932   2.144   0.950   4.611 -0.8159  1.8934  2.0027
  145SAPE  C31315933   2.239   1.077   4.475  0.6530 -0.2112 -0.2128
  145SAPE  H13X15934   2.146   1.136   4.471  0.5376 -0.3575  0.2604
  145SAPE  H13Y15935   2.232   1.004   4.391 -1.4276  2.1906 -2.2741
  145SAPE  C31415936   2.358   1.169   4.443 -0.7407  0.7396 -0.7453
  145SAPE  H14X15937   2.457   1.120   4.437 -0.6248  0.9063 -0.2846
  145SAPE  H14Y15938   2.367   1.235   4.533 -0.6635 -0.0613 -0.1520
  145SAPE  C31515939   2.332   1.256   4.324 -0.3024 -0.8808  0.2052
  145SAPE  H15X15940   2.425   1.306   4.289 -0.8929 -0.3668 -0.6824
  145SAPE  H15Y15941   2.270   1.341   4.358  1.4424  0.6261 -0.2148
  145SAPE  C31615942   2.267   1.193   4.198 -0.1174  0.2148  0.6453
  145SAPE  H16X15943   2.168   1.161   4.234  0.9022 -3.1192  0.7851
  145SAPE  H16Y15944   2.315   1.100   4.161 -0.4675 -0.0612  0.8895
  145SAPE  C31715945   2.267   1.291   4.080 -0.5508  0.5836  0.2839
  145SAPE  H17X15946   2.367   1.332   4.051 -0.2719  0.6149  1.2457
  145SAPE  H17Y15947   2.210   1.380   4.114 -0.2876  0.6213  0.6419
  145SAPE  C31815948   2.192   1.227   3.962  0.4576 -0.0283  0.2746
  145SAPE  H18X15949   2.227   1.123   3.946  2.4083  0.3676  1.6870
  145SAPE  H18Y15950   2.214   1.289   3.872  0.7022 -2.2710 -1.3017
  145SAPE  H18Z15951   2.083   1.247   3.973  0.2341  0.3510 -2.0945
  146SAPE     N15952   4.802   6.377   6.638  0.0597  0.1964  0.5216
  146SAPE   HN115953   4.890   6.426   6.663  1.1177 -0.4954 -1.5953
  146SAPE   HN215954   4.722   6.396   6.702 -0.9059 -0.3177 -0.4959
  146SAPE   HN315955   4.832   6.279   6.656 -0.0802  0.3989  1.9388
  146SAPE   C1215956   4.757   6.406   6.496  0.2988  0.2317 -0.1363
  146SAPE  H12A15957   4.739   6.516   6.493 -1.3522  0.0271  1.0665
  146SAPE  H12B15958   4.655   6.362   6.484 -0.8456  2.2897  1.4262
  146SAPE   C1115959   4.849   6.353   6.396 -0.4049  0.1966  0.0586
  146SAPE  H11A15960   4.801   6.354   6.296  0.1510 -2.0689 -0.2903
  146SAPE  H11B15961   4.862   6.247   6.429 -0.7966  0.3491  0.7260
  146SAPE     P15962   4.989   6.553   6.299 -0.1882  0.1629 -0.1011
  146SAPE   O1315963   4.911   6.668   6.349  0.1767 -0.2134 -0.2500
  146SAPE   O1415964   5.131   6.581   6.274 -0.1419 -0.4012  0.7124
  146SAPE   O1215965   4.975   6.431   6.401 -0.0864  0.0978  0.3586
  146SAPE   O1115966   4.923   6.499   6.165  0.5835 -0.5476 -0.3675
  146SAPE    C115967   5.009   6.430   6.073 -0.1137 -0.1021  0.2935
  146SAPE    HA15968   5.098   6.383   6.120  0.1252 -1.8090 -1.7377
  146SAPE    HB15969   4.960   6.349   6.016 -0.5213  0.7538 -0.6060
  146SAPE    C215970   5.068   6.525   5.964  0.4866 -1.0663  0.2616
  146SAPE    HS15971   5.135   6.593   6.021  0.4863 -1.0269  0.2152
  146SAPE   O2115972   4.963   6.599   5.891 -0.1803  0.2512 -0.2782
  146SAPE   C2115973   4.938   6.722   5.923  0.7845 -0.3284 -0.6191
  146SAPE   O2215974   5.010   6.793   5.991 -0.3463  0.2924  0.0562
  146SAPE   C2215975   4.807   6.779   5.874 -0.3211 -0.9559 -0.5989
  146SAPE   H2R15976   4.763   6.726   5.787 -0.6060  0.7425 -1.5375
  146SAPE   H2S15977   4.735   6.759   5.956 -1.2478  0.8046 -0.9490
  146SAPE    C315978   5.162   6.465   5.858  0.2592  0.1543 -0.5238
  146SAPE    HX15979   5.210   6.556   5.817 -0.6248  1.1218  0.5112
  146SAPE    HY15980   5.110   6.403   5.782  1.9005 -1.6704 -0.2470
  146SAPE   O3115981   5.253   6.372   5.925  0.3229 -0.2738  0.2861
  146SAPE   C3115982   5.334   6.312   5.824 -0.2190 -0.2284  0.1469
  146SAPE   O3215983   5.336   6.357   5.711  0.1499  0.2672  0.2848
  146SAPE   C3215984   5.417   6.200   5.886 -0.1588  0.3474 -0.3940
  146SAPE   H2X15985   5.357   6.107   5.876  2.3082 -1.2585 -1.0080
  146SAPE   H2Y15986   5.432   6.220   5.994  1.2682  0.0203 -0.5180
  146SAPE   C2315987   4.809   6.934   5.852  0.3004  0.0826  0.7833
  146SAPE   H3R15988   4.872   6.998   5.917  0.7550  1.5784 -1.0350
  146SAPE   H3S15989   4.707   6.976   5.866  0.6738  1.7363 -1.0542
  146SAPE   C2415990   4.852   6.966   5.702  0.8981 -0.1424 -0.2104
  146SAPE   H4R15991   4.772   6.928   5.635  0.0905  0.7573  0.2280
  146SAPE   H4S15992   4.949   6.917   5.679  1.8922 -0.1687  3.4210
  146SAPE   C2515993   4.852   7.118   5.690  0.5270 -0.6745 -0.1029
  146SAPE   H5R15994   4.913   7.168   5.767 -0.4117  0.5784 -0.1402
  146SAPE   C2615995   4.788   7.194   5.598  0.3620  0.1830  0.2087
  146SAPE   H6R15996   4.797   7.302   5.615 -0.4731  0.0087  1.9932
  146SAPE   C2715997   4.712   7.141   5.473 -0.2328  0.0126 -0.1109
  146SAPE   H7R15998   4.663   7.218   5.410 -1.4929 -1.0718 -0.5159
  146SAPE   H7S15999   4.627   7.081   5.513  0.8205 -0.4830  1.4607
  146SAPE   C2816000   4.798   7.058   5.384  0.6812 -0.8185  0.2614
  146SAPE   H8R16001   4.895   7.020   5.419  1.2478 -0.8052 -1.1838
  146SAPE   C2916002   4.756   7.020   5.262  0.4936 -0.4516  0.1904
  146SAPE   H9R16003   4.837   6.972   5.205  0.3500 -0.4910  0.0183
  146SAPE  C21016004   4.632   7.064   5.186  0.2559  1.0713 -0.1352
  146SAPE  H10R16005   4.624   7.172   5.209 -1.2408  1.3794 -1.8585
  146SAPE  H10S16006   4.544   7.016   5.234  1.7401 -3.5001 -1.3963
  146SAPE  C21116007   4.633   7.039   5.037 -0.3871  0.0881 -0.5727
  146SAPE  H11R16008   4.679   6.947   4.999  2.5953  0.5602  1.5826
  146SAPE  C21216009   4.568   7.115   4.949 -1.0925  0.5299  0.0276
  146SAPE  H12R16010   4.582   7.094   4.842 -1.1821 -2.8090  0.5678
  146SAPE  C21316011   4.516   7.252   4.985  0.1679  0.4044 -0.5792
  146SAPE  H13R16012   4.598   7.315   5.026 -0.2618  0.1233  0.7706
  146SAPE  H13S16013   4.445   7.245   5.070  0.1398  1.0043 -0.5483
  146SAPE  C21416014   4.454   7.331   4.874  0.6415 -0.4578  0.0293
  146SAPE  H14R16015   4.346   7.347   4.884  0.5869 -1.4242  1.1737
  146SAPE  C21516016   4.519   7.380   4.771 -0.6345  0.5542 -0.0224
  146SAPE  H15R16017   4.470   7.441   4.694  2.1613  1.6163 -1.1114
  146SAPE  C21616018   4.667   7.363   4.746 -0.1597  0.4541 -0.1604
  146SAPE  H16R16019   4.695   7.280   4.678  1.1007  0.6143  0.1399
  146SAPE  H16S16020   4.728   7.344   4.836  0.4065  0.7108 -0.4830
  146SAPE  C21716021   4.725   7.488   4.673  0.4541 -0.2445 -0.1576
  146SAPE  H17R16022   4.710   7.575   4.740  0.3205 -1.0050  0.8192
  146SAPE  H17S16023   4.673   7.524   4.581 -1.5910  0.3630  1.1636
  146SAPE  C21816024   4.877   7.489   4.664 -0.0105 -0.2521  0.2096
  146SAPE  H18R16025   4.912   7.479   4.769 -0.8853  1.5102  0.7222
  146SAPE  H18S16026   4.909   7.587   4.621 -0.1194 -0.1626  0.3295
  146SAPE  C21916027   4.928   7.375   4.570  0.0045  0.5718  1.1102
  146SAPE  H19R16028   4.878   7.277   4.589 -0.8971  0.6994 -0.4191
  146SAPE  H19S16029   5.036   7.367   4.592  0.0620  2.3846  1.5947
  146SAPE  C22016030   4.909   7.417   4.420  0.1785  0.2480 -0.2731
  146SAPE  H20R16031   4.799   7.419   4.406  0.0873  1.7768  0.4424
  146SAPE  H20S16032   4.942   7.334   4.354 -2.6362 -1.1341 -0.0852
  146SAPE  H20T16033   4.954   7.517   4.401  2.7828 -1.0042 -1.1287
  146SAPE   C3316034   5.548   6.186   5.812  0.0150 -0.0231 -0.1888
  146SAPE   H3X16035   5.613   6.271   5.840 -1.5708  1.1912 -0.0979
  146SAPE   H3Y16036   5.540   6.199   5.702  0.2614 -0.8340 -0.3148
  146SAPE   C3416037   5.611   6.050   5.851 -0.2515 -0.2907 -0.0808
  146SAPE   H4X16038   5.560   5.964   5.802 -2.2525  0.7832  0.0246
  146SAPE   H4Y16039   5.597   6.036   5.960  1.3314  1.9378  0.4610
  146SAPE   C3516040   5.757   6.026   5.816 -0.3225  0.2187  0.3042
  146SAPE   H5X16041   5.820   6.108   5.857 -0.7496  0.3628  0.6796
  146SAPE   H5Y16042   5.776   6.040   5.708 -1.2926 -0.3389  0.0501
  146SAPE   C3616043   5.819   5.889   5.859  0.0168  0.1344 -0.2045
  146SAPE   H6X16044   5.747   5.816   5.817 -2.1747  1.0098  1.8689
  146SAPE   H6Y16045   5.798   5.868   5.965  0.2435 -0.0518 -0.1941
  146SAPE   C3716046   5.963   5.856   5.819 -0.6380  0.0371  0.2261
  146SAPE   H7X16047   5.996   5.771   5.883 -0.9016  0.5090  1.0085
  146SAPE   H7Y16048   6.032   5.939   5.846  1.9399 -1.3620 -1.5881
  146SAPE   C3816049   5.981   5.845   5.669  0.7181  0.2740  0.1579
  146SAPE   H8X16050   5.944   5.944   5.637  0.5531  0.6179  1.3345
  146SAPE   H8Y16051   5.923   5.760   5.626  1.1702 -0.1858  0.4410
  146SAPE   C3916052   6.126   5.825   5.625 -0.9421 -0.4222 -0.1184
  146SAPE   H9X16053   6.185   5.746   5.677  3.4852  2.5040 -0.1667
  146SAPE   H9Y16054   6.183   5.915   5.656 -1.6062 -0.2908  0.7635
  146SAPE  C31016055   6.135   5.795   5.473 -0.0821  0.2002  0.3992
  146SAPE  H10X16056   6.239   5.812   5.439  0.2045 -0.3697  0.9691
  146SAPE  H10Y16057   6.064   5.858   5.416 -2.5656 -0.9413  2.0468
  146SAPE  C31116058   6.083   5.652   5.447 -0.4349 -0.4382  0.2283
  146SAPE  H11X16059   5.972   5.657   5.441 -0.5107 -0.1322  1.5519
  146SAPE  H11Y16060   6.104   5.584   5.532 -1.0580  0.6473  1.2792
  146SAPE  C31216061   6.140   5.598   5.317 -0.2889  0.5409  0.3640
  146SAPE  H12X16062   6.248   5.626   5.318  0.1821 -1.0796 -0.8433
  146SAPE  H12Y16063   6.089   5.654   5.236  1.4641  1.0214 -0.4685
  146SAPE  C31316064   6.123   5.442   5.297  0.1542  0.3955 -0.6135
  146SAPE  H13X16065   6.015   5.419   5.308  0.3794 -0.5987 -0.2801
  146SAPE  H13Y16066   6.182   5.392   5.377  0.7791 -0.6135 -1.6677
  146SAPE  C31416067   6.151   5.384   5.163  0.4438 -0.1324  0.0033
  146SAPE  H14X16068   6.084   5.438   5.093  0.5678  0.6327  0.4650
  146SAPE  H14Y16069   6.121   5.277   5.153 -0.0628  0.0360 -0.3031
  146SAPE  C31516070   6.293   5.403   5.118 -0.0488 -0.0705  0.0446
  146SAPE  H15X16071   6.373   5.338   5.159  1.2155  1.3297 -0.1369
  146SAPE  H15Y16072   6.331   5.502   5.149  1.2378 -0.8127  0.9246
  146SAPE  C31616073   6.299   5.411   4.960  0.1956  0.1356 -0.0612
  146SAPE  H16X16074   6.236   5.493   4.919  2.7923  1.7374 -1.1565
  146SAPE  H16Y16075   6.252   5.319   4.921 -2.3929  1.8179 -1.2103
  146SAPE  C31716076   6.442   5.428   4.919 -0.0656 -0.2480 -0.1858
  146SAPE  H17X16077   6.491   5.331   4.943 -1.6414 -1.4940 -1.7136
  146SAPE  H17Y16078   6.493   5.509   4.974 -4.0365  2.9639 -0.7354
  146SAPE  C31816079   6.451   5.461   4.767  0.2305 -0.3027  0.4828
  146SAPE  H18X16080   6.428   5.370   4.707 -0.0155  0.8866 -1.3289
  146SAPE  H18Y16081   6.558   5.488   4.756  0.0730  1.1294  2.1661
  146SAPE  H18Z16082   6.380   5.539   4.731 -0.1921 -0.9188 -0.0418
  147SAPE     N16083   5.437   4.700   6.826 -0.1385 -0.1145 -0.6319
  147SAPE   HN116084   5.410   4.624   6.761 -0.8671  0.6284 -1.2210
  147SAPE   HN216085   5.355   4.765   6.825 -0.5842 -0.6679 -0.6244
  147SAPE   HN316086   5.519   4.750   6.787 -0.5392  1.0521 -0.0249
  147SAPE   C1216087   5.480   4.624   6.948 -0.5682 -0.4538  0.0548
  147SAPE  H12A16088   5.499   4.692   7.033  0.8172  1.4111 -1.6358
  147SAPE  H12B16089   5.569   4.565   6.917 -1.4377 -3.4872  2.8433
  147SAPE   C1116090   5.374   4.519   6.973  0.7132 -0.1171  0.2410
  147SAPE  H11A16091   5.277   4.552   7.015 -0.6331 -2.0294 -1.2020
  147SAPE  H11B16092   5.416   4.463   7.059  1.4898  0.2218  0.0913
  147SAPE     P16093   5.229   4.344   6.835 -0.1824  0.0516 -0.2273
  147SAPE   O1316094   5.255   4.198   6.825  0.4736  0.0324  0.3673
  147SAPE   O1416095   5.130   4.369   6.943 -0.3735 -0.0523 -0.4491
  147SAPE   O1216096   5.361   4.425   6.859  0.1609 -0.2770  0.0377
  147SAPE   O1116097   5.172   4.401   6.701  0.4618  0.0197  0.0103
  147SAPE    C116098   5.203   4.330   6.579  0.4522 -0.0268  0.3562
  147SAPE    HA16099   5.293   4.376   6.533 -0.3772  3.2974  1.7498
  147SAPE    HB16100   5.217   4.221   6.598  1.1787 -0.1448 -0.7426
  147SAPE    C216101   5.090   4.354   6.480 -0.1333  0.4510  0.5814
  147SAPE    HS16102   5.035   4.261   6.456  1.8198 -1.1137  1.8576
  147SAPE   O2116103   5.136   4.413   6.362  0.5109 -0.4471  0.4078
  147SAPE   C2116104   5.193   4.335   6.276  0.0951  1.0579 -0.6212
  147SAPE   O2216105   5.188   4.213   6.282 -0.5997  1.0877  0.0711
  147SAPE   C2216106   5.275   4.414   6.176 -0.1582  0.9563  0.7692
  147SAPE   H2R16107   5.295   4.519   6.205 -2.0697  1.2695  1.0541
  147SAPE   H2S16108   5.363   4.347   6.171 -2.0425 -1.5588 -1.9457
  147SAPE    C316109   4.966   4.445   6.530  0.2935  0.2467 -0.5797
  147SAPE    HX16110   5.011   4.537   6.572  0.8052  0.4124 -1.4475
  147SAPE    HY16111   4.907   4.386   6.602 -1.0333  2.3598  0.1567
  147SAPE   O3116112   4.882   4.483   6.425 -0.3535  0.0885  0.1913
  147SAPE   C3116113   4.915   4.590   6.352 -0.4495  0.3334  0.7479
  147SAPE   O3216114   5.016   4.664   6.367  0.2887  0.8338  0.1758
  147SAPE   C3216115   4.794   4.613   6.252  0.6313 -0.2639 -0.1703
  147SAPE   H2X16116   4.707   4.615   6.321  1.2258 -0.3723  0.6020
  147SAPE   H2Y16117   4.781   4.526   6.185  2.8928 -1.8612  1.3056
  147SAPE   C2316118   5.196   4.408   6.042  0.3936 -0.4678 -0.0694
  147SAPE   H3R16119   5.126   4.322   6.042 -2.1883  1.5048  1.3945
  147SAPE   H3S16120   5.257   4.396   5.950 -2.2470  2.0896 -2.3474
  147SAPE   C2416121   5.100   4.528   6.021  0.3173 -0.8076  0.4008
  147SAPE   H4R16122   5.059   4.570   6.115 -0.1637  1.4204 -0.7250
  147SAPE   H4S16123   5.013   4.493   5.960  0.4457 -2.1219  0.9334
  147SAPE   C2516124   5.165   4.648   5.960  0.6524 -0.4784 -0.1331
  147SAPE   H5R16125   5.221   4.708   6.033  0.8600 -0.6912 -0.1150
  147SAPE   C2616126   5.153   4.698   5.835 -0.3594 -0.7353  0.4336
  147SAPE   H6R16127   5.193   4.796   5.808 -2.8325  0.0745 -0.6381
  147SAPE   C2716128   5.076   4.628   5.722  0.7028 -0.3109  0.3930
  147SAPE   H7R16129   4.975   4.620   5.767 -0.0220  3.3312 -0.2178
  147SAPE   H7S16130   5.120   4.528   5.703 -0.2944 -0.9495  1.3397
  147SAPE   C2816131   5.061   4.714   5.598  0.1690  0.1008  0.0723
  147SAPE   H8R16132   5.005   4.806   5.619  0.4123  0.3604 -0.3998
  147SAPE   C2916133   5.096   4.695   5.465  0.2655  0.4497  0.6290
  147SAPE   H9R16134   5.091   4.775   5.388  1.2700 -0.9723 -0.9908
  147SAPE  C21016135   5.161   4.563   5.424  0.0912  0.4375 -0.4695
  147SAPE  H10R16136   5.153   4.499   5.514  0.3645  1.8812  0.6225
  147SAPE  H10S16137   5.268   4.582   5.400 -0.7733  3.0327 -2.7831
  147SAPE  C21116138   5.104   4.472   5.314  0.4758 -0.5183  1.0122
  147SAPE  H11R16139   5.052   4.381   5.348 -2.3106 -0.3750 -2.3408
  147SAPE  C21216140   5.097   4.498   5.178  0.6745 -0.3437 -0.2890
  147SAPE  H12R16141   5.057   4.425   5.107  0.7880 -2.0380  1.3129
  147SAPE  C21316142   5.141   4.631   5.119 -0.1577  0.1547 -0.4316
  147SAPE  H13R16143   5.089   4.710   5.178 -0.4984 -0.6085  0.3237
  147SAPE  H13S16144   5.088   4.633   5.022 -0.7156 -0.9548 -0.1616
  147SAPE  C21416145   5.291   4.659   5.106  0.2887  0.3959  0.9515
  147SAPE  H14R16146   5.350   4.681   5.196  0.0429 -0.0959  1.2326
  147SAPE  C21516147   5.361   4.642   4.990  0.4606  0.1167  0.1785
  147SAPE  H15R16148   5.470   4.660   4.995  0.4711 -0.2750  2.3676
  147SAPE  C21616149   5.320   4.589   4.854  0.0278 -0.3538  0.6319
  147SAPE  H16R16150   5.210   4.602   4.850  0.0240 -0.6334 -0.8120
  147SAPE  H16S16151   5.329   4.479   4.838  0.4531 -0.2445  0.0723
  147SAPE  C21716152   5.368   4.669   4.730  0.0185 -1.1947  0.0496
  147SAPE  H17R16153   5.383   4.775   4.760  1.8918 -1.5815  0.6027
  147SAPE  H17S16154   5.296   4.673   4.646  0.1937  0.5398 -0.0574
  147SAPE  C21816155   5.502   4.629   4.672 -0.4542  0.2067  0.1710
  147SAPE  H18R16156   5.576   4.610   4.753 -1.9884  3.2109  2.5063
  147SAPE  H18S16157   5.545   4.707   4.605  1.3405 -0.1869  0.7996
  147SAPE  C21916158   5.484   4.510   4.575  0.5569  0.1920 -0.0750
  147SAPE  H19R16159   5.411   4.541   4.498 -0.1316  0.6720  0.7522
  147SAPE  H19S16160   5.441   4.426   4.632 -1.5756 -0.0745 -1.9567
  147SAPE  C22016161   5.613   4.474   4.511  0.7549  0.0362  0.4636
  147SAPE  H20R16162   5.670   4.568   4.493  1.4521 -0.4291  0.1916
  147SAPE  H20S16163   5.599   4.429   4.411 -0.9660 -2.7347  1.8200
  147SAPE  H20T16164   5.674   4.407   4.576 -1.3113 -0.6122  1.8197
  147SAPE   C3316165   4.819   4.749   6.179  0.0768  0.7275  0.9516
  147SAPE   H3X16166   4.929   4.764   6.168 -0.3156  3.0717 -0.6284
  147SAPE   H3Y16167   4.780   4.836   6.236 -0.1448  3.0894 -2.4232
  147SAPE   C3416168   4.776   4.747   6.027  0.5394 -0.4606 -0.2084
  147SAPE   H4X16169   4.666   4.733   6.033  0.5688 -1.5889 -1.7089
  147SAPE   H4Y16170   4.825   4.664   5.973 -1.2619 -1.2144 -0.7590
  147SAPE   C3516171   4.816   4.878   5.961 -0.1367  0.4438 -0.1288
  147SAPE   H5X16172   4.927   4.878   5.961 -0.1352 -0.3001 -0.1954
  147SAPE   H5Y16173   4.777   4.966   6.017  0.5476 -0.4778  1.9026
  147SAPE   C3616174   4.773   4.871   5.814  0.2252  0.8700 -1.2735
  147SAPE   H6X16175   4.662   4.877   5.804  0.0534  0.0440 -0.0803
  147SAPE   H6Y16176   4.822   4.776   5.785 -0.2526  0.6123 -1.2445
  147SAPE   C3716177   4.828   4.983   5.730 -0.3008  0.1241 -0.4851
  147SAPE   H7X16178   4.938   4.986   5.737 -0.3354  0.8234 -0.1209
  147SAPE   H7Y16179   4.787   5.072   5.782  1.6047  1.6724 -1.4872
  147SAPE   C3816180   4.783   4.986   5.583 -0.7834  0.2468 -0.9168
  147SAPE   H8X16181   4.684   4.937   5.584 -1.6364  1.5421  3.8494
  147SAPE   H8Y16182   4.855   4.918   5.533 -1.1890 -0.7185 -0.2156
  147SAPE   C3916183   4.765   5.130   5.520 -0.5004  0.5695 -0.8658
  147SAPE   H9X16184   4.856   5.194   5.527  0.1395 -0.2773 -1.3514
  147SAPE   H9Y16185   4.681   5.178   5.575  0.1098 -0.9889  1.5621
  147SAPE  C31016186   4.726   5.133   5.367 -0.2171  0.6456 -0.4643
  147SAPE  H10X16187   4.618   5.117   5.348  0.1054 -2.1297 -0.4008
  147SAPE  H10Y16188   4.772   5.041   5.323 -1.1678  0.3694 -0.9042
  147SAPE  C31116189   4.783   5.243   5.289  0.2762  0.1797  0.3347
  147SAPE  H11X16190   4.887   5.282   5.292  0.0349  0.8882 -0.2115
  147SAPE  H11Y16191   4.709   5.323   5.306 -1.4506 -1.5891  1.5040
  147SAPE  C31216192   4.777   5.224   5.138  0.4491  0.1343 -0.4192
  147SAPE  H12X16193   4.673   5.207   5.102  0.9893 -0.3696 -1.7755
  147SAPE  H12Y16194   4.843   5.138   5.119 -0.4182 -0.4082 -1.0307
  147SAPE  C31316195   4.813   5.348   5.057  0.1878  0.0987 -0.2934
  147SAPE  H13X16196   4.915   5.371   5.093  0.2658 -0.9799  0.1950
  147SAPE  H13Y16197   4.749   5.438   5.073 -0.0196 -0.0623 -0.2102
  147SAPE  C31416198   4.814   5.302   4.916  0.2924  0.4497 -0.6411
  147SAPE  H14X16199   4.719   5.250   4.894  0.2272 -0.0434  0.6911
  147SAPE  H14Y16200   4.895   5.226   4.909 -0.7365 -0.6873 -0.4429
  147SAPE  C31516201   4.843   5.405   4.808  1.2509 -0.6536 -0.2791
  147SAPE  H15X16202   4.947   5.443   4.809  0.5150  1.7166 -2.3866
  147SAPE  H15Y16203   4.766   5.485   4.804 -0.5579 -2.3713 -2.3755
  147SAPE  C31616204   4.814   5.350   4.667 -0.0968 -0.2917  0.1193
  147SAPE  H16X16205   4.703   5.353   4.664 -0.0946 -0.2815  0.0501
  147SAPE  H16Y16206   4.842   5.243   4.662 -0.7426 -0.4198 -1.3527
  147SAPE  C31716207   4.874   5.430   4.552  1.2121  0.0740  0.5684
  147SAPE  H17X16208   4.845   5.537   4.549 -1.0842 -0.4948 -1.4720
  147SAPE  H17Y16209   4.827   5.382   4.462 -0.9366 -0.4984  1.9125
  147SAPE  C31816210   5.025   5.401   4.538  0.2438  0.6168  0.6108
  147SAPE  H18X16211   5.086   5.431   4.626  1.4698 -0.2106  0.0756
  147SAPE  H18Y16212   5.063   5.451   4.447  2.6420 -1.6549  0.2398
  147SAPE  H18Z16213   5.024   5.291   4.520 -1.4858  1.0892 -3.1692
  148SAPE     N16214   1.684   6.523   6.880  0.1411 -0.3455 -0.4120
  148SAPE   HN116215   1.622   6.580   6.940  0.1260 -0.0794 -0.6777
  148SAPE   HN216216   1.637   6.445   6.830 -1.7353 -0.1376  0.9370
  148SAPE   HN316217   1.774   6.497   6.926  0.1521 -2.5973 -1.6001
  148SAPE   C1216218   1.716   6.624   6.774  0.1760  0.1676  0.0545
  148SAPE  H12A16219   1.762   6.713   6.823  4.0109 -2.4714  1.7232
  148SAPE  H12B16220   1.624   6.650   6.717 -0.2091  1.0978  1.0721
  148SAPE   C1116221   1.827   6.580   6.672  0.1142  0.5944  0.1520
  148SAPE  H11A16222   1.842   6.665   6.602 -0.9445  0.1786 -0.5980
  148SAPE  H11B16223   1.786   6.494   6.615 -0.1763 -1.2007  2.8517
  148SAPE     P16224   2.059   6.458   6.702 -0.1634 -0.3331 -0.1515
  148SAPE   O1316225   2.180   6.488   6.786  0.7618 -0.9364 -0.6425
  148SAPE   O1416226   2.011   6.317   6.714  0.1207 -0.6071  0.1113
  148SAPE   O1216227   1.947   6.555   6.739 -0.9006 -0.7892  0.2443
  148SAPE   O1116228   2.090   6.488   6.548 -0.7690  0.4179  0.3275
  148SAPE    C116229   2.197   6.416   6.485 -0.3355  0.1992  0.0043
  148SAPE    HA16230   2.296   6.460   6.508 -0.4881  1.3846 -1.4742
  148SAPE    HB16231   2.204   6.310   6.518 -2.5324 -0.2839 -0.9384
  148SAPE    C216232   2.179   6.408   6.331  0.8613  0.0295 -0.6791
  148SAPE    HS16233   2.234   6.317   6.299 -0.7411 -1.1139 -0.2852
  148SAPE   O2116234   2.212   6.522   6.259  0.1085 -0.0088  0.5934
  148SAPE   C2116235   2.341   6.553   6.257 -0.0347 -0.2436 -0.0467
  148SAPE   O2216236   2.427   6.492   6.314 -0.4945 -0.2145 -0.0127
  148SAPE   C2216237   2.353   6.679   6.166 -0.4781 -0.2877 -0.2576
  148SAPE   H2R16238   2.337   6.770   6.227 -2.6124 -0.9693  0.2713
  148SAPE   H2S16239   2.460   6.678   6.134 -0.2203 -1.2983  0.5546
  148SAPE    C316240   2.023   6.380   6.301 -0.8008  0.6474  0.3629
  148SAPE    HX16241   1.962   6.468   6.331 -1.5552  0.3693 -0.3145
  148SAPE    HY16242   1.999   6.295   6.370 -0.0019 -0.0136 -0.1601
  148SAPE   O3116243   2.004   6.328   6.162  0.3323  0.0639 -0.3560
  148SAPE   C3116244   1.939   6.413   6.086 -0.9734 -0.1395 -0.6014
  148SAPE   O3216245   1.867   6.506   6.122  0.3559 -0.0608 -0.5661
  148SAPE   C3216246   1.966   6.379   5.938  0.1010 -0.4377  0.2931
  148SAPE   H2X16247   2.060   6.321   5.932  0.3024 -0.1162  0.3503
  148SAPE   H2Y16248   1.984   6.468   5.874  1.2251 -0.0809  1.0787
  148SAPE   C2316249   2.256   6.675   6.045  0.3880  0.2729 -0.1647
  148SAPE   H3R16250   2.158   6.719   6.073  1.5088  2.1795  1.0206
  148SAPE   H3S16251   2.232   6.575   6.005  1.1241 -0.2094  0.5600
  148SAPE   C2416252   2.324   6.756   5.931 -0.5017  0.0758  0.2375
  148SAPE   H4R16253   2.255   6.756   5.843  0.2144 -1.4638 -0.3670
  148SAPE   H4S16254   2.423   6.716   5.899 -0.5976 -0.4724  0.6078
  148SAPE   C2516255   2.338   6.894   5.984 -0.1341 -0.4137  0.6955
  148SAPE   H5R16256   2.423   6.910   6.053  1.4781 -0.6566 -1.1574
  148SAPE   C2616257   2.282   7.006   5.936  1.1421  0.7657  0.3269
  148SAPE   H6R16258   2.295   7.104   5.983 -0.8092  0.5077  1.5468
  148SAPE   C2716259   2.181   7.004   5.821  0.0285  0.4301  0.5200
  148SAPE   H7R16260   2.094   6.942   5.850 -0.7502  1.3006  0.1170
  148SAPE   H7S16261   2.234   6.966   5.732 -0.2274  3.6424 -1.1668
  148SAPE   C2816262   2.132   7.153   5.794  0.5983  0.2233  0.1317
  148SAPE   H8R16263   2.045   7.187   5.853 -1.2352 -1.1642 -1.6358
  148SAPE   C2916264   2.172   7.234   5.695  0.6446  0.6538 -0.0454
  148SAPE   H9R16265   2.132   7.336   5.690 -2.3357 -0.2631  2.1591
  148SAPE  C21016266   2.283   7.199   5.600 -0.0682  0.1622 -0.2834
  148SAPE  H10R16267   2.254   7.135   5.514 -2.2853  0.7100 -0.0062
  148SAPE  H10S16268   2.353   7.129   5.650 -0.7124  0.1070  0.5548
  148SAPE  C21116269   2.369   7.319   5.564  0.2503  0.0169  0.1164
  148SAPE  H11R16270   2.411   7.377   5.647 -1.2195 -1.5413  2.0328
  148SAPE  C21216271   2.397   7.358   5.443 -1.4087 -0.3045  0.8414
  148SAPE  H12R16272   2.459   7.447   5.430 -0.3652 -0.7385  2.5527
  148SAPE  C21316273   2.354   7.291   5.311 -0.4621  0.1019 -0.3010
  148SAPE  H13R16274   2.335   7.380   5.248 -0.1763  2.2426  2.4464
  148SAPE  H13S16275   2.266   7.224   5.320  1.0101 -1.8089  0.6680
  148SAPE  C21416276   2.468   7.208   5.250  0.4779 -0.0045 -0.1025
  148SAPE  H14R16277   2.520   7.149   5.326 -0.6696  0.5150  1.1269
  148SAPE  C21516278   2.506   7.206   5.122  0.5759  0.1568 -0.1055
  148SAPE  H15R16279   2.576   7.131   5.085  1.1723  1.2980 -1.3752
  148SAPE  C21616280   2.418   7.275   5.015 -0.2909  0.9285 -0.8237
  148SAPE  H16R16281   2.424   7.385   5.005  1.7174  0.9363  0.0713
  148SAPE  H16S16282   2.309   7.264   5.034 -0.1472  0.1884 -0.3912
  148SAPE  C21716283   2.450   7.200   4.877 -0.5698  0.1046 -0.2105
  148SAPE  H17R16284   2.407   7.098   4.882 -3.0700  1.0919  0.0061
  148SAPE  H17S16285   2.561   7.195   4.868 -0.4309  1.1923  0.6205
  148SAPE  C21816286   2.374   7.276   4.769  0.4978  0.6898 -0.6424
  148SAPE  H18R16287   2.404   7.380   4.791  0.9688  0.4157  0.0719
  148SAPE  H18S16288   2.265   7.257   4.780  0.5873 -1.8177 -3.0009
  148SAPE  C21916289   2.418   7.227   4.635  0.5144 -0.9939  0.6612
  148SAPE  H19R16290   2.527   7.249   4.624  0.3397  0.7063  1.8786
  148SAPE  H19S16291   2.382   7.297   4.558  0.7022 -0.5115  1.0052
  148SAPE  C22016292   2.385   7.074   4.615 -0.9984  0.9066  0.9312
  148SAPE  H20R16293   2.394   7.056   4.506  0.0288 -1.3557  1.3344
  148SAPE  H20S16294   2.282   7.049   4.646 -1.6077 -1.3303 -2.3962
  148SAPE  H20T16295   2.462   7.015   4.669 -0.1557  2.0403  1.0163
  148SAPE   C3316296   1.857   6.299   5.866  0.0767 -0.8205 -0.4105
  148SAPE   H3X16297   1.771   6.361   5.834  0.1378 -1.1062 -1.1394
  148SAPE   H3Y16298   1.808   6.229   5.938 -1.8800 -0.5949 -1.4658
  148SAPE   C3416299   1.915   6.239   5.735 -0.3771 -0.1301 -0.1439
  148SAPE   H4X16300   1.990   6.163   5.766  0.9848  0.8623 -0.8820
  148SAPE   H4Y16301   1.961   6.317   5.671 -0.5483 -0.3742 -0.5722
  148SAPE   C3516302   1.821   6.161   5.647 -0.3105 -0.3257  0.3784
  148SAPE   H5X16303   1.760   6.238   5.595  0.9734  0.3886 -0.1060
  148SAPE   H5Y16304   1.755   6.095   5.708 -0.2727  1.4305  2.4291
  148SAPE   C3616305   1.899   6.075   5.543 -0.5728 -0.0402 -0.5790
  148SAPE   H6X16306   1.967   6.006   5.597 -0.0728  0.7046 -0.2361
  148SAPE   H6Y16307   1.953   6.139   5.469  1.6684 -0.4124  0.6500
  148SAPE   C3716308   1.807   5.985   5.458  0.8477 -0.2263 -0.3395
  148SAPE   H7X16309   1.712   6.036   5.428  2.1640  1.6521 -1.5637
  148SAPE   H7Y16310   1.769   5.905   5.526 -0.9945 -0.6012 -1.7323
  148SAPE   C3816311   1.876   5.929   5.335 -0.3348 -0.4016  1.0061
  148SAPE   H8X16312   1.971   5.887   5.374 -1.8761 -3.1625  2.0021
  148SAPE   H8Y16313   1.894   6.001   5.252  2.8454 -0.3110  1.6637
  148SAPE   C3916314   1.820   5.803   5.265  0.2107 -0.0221  0.3274
  148SAPE   H9X16315   1.724   5.831   5.217 -0.1915  0.0332  1.1474
  148SAPE   H9Y16316   1.796   5.732   5.348  1.0570 -1.6191 -0.7478
  148SAPE  C31016317   1.922   5.744   5.167 -0.0252 -0.0666 -0.0043
  148SAPE  H10X16318   1.890   5.638   5.153  0.4315  0.1171 -3.3000
  148SAPE  H10Y16319   2.022   5.744   5.215  0.2887 -1.2686 -0.6256
  148SAPE  C31116320   1.922   5.815   5.038  0.1447  0.1681 -0.0127
  148SAPE  H11X16321   1.950   5.920   5.060  1.9920 -0.7396  2.5229
  148SAPE  H11Y16322   1.823   5.812   4.989 -1.1478  0.0267  2.4233
  148SAPE  C31216323   2.031   5.767   4.942 -0.2991 -0.6911 -0.5505
  148SAPE  H12X16324   2.030   5.831   4.851 -0.9651  2.2540  1.4152
  148SAPE  H12Y16325   2.007   5.661   4.918  1.1631 -1.2763  0.4261
  148SAPE  C31316326   2.173   5.765   4.991 -0.6103 -0.3222  0.1706
  148SAPE  H13X16327   2.244   5.735   4.911 -0.1688  0.2000  0.3580
  148SAPE  H13Y16328   2.176   5.682   5.065 -2.0068  2.0419  3.1111
  148SAPE  C31416329   2.229   5.890   5.064  0.4294  0.0379  0.2847
  148SAPE  H14X16330   2.335   5.860   5.074  0.6720 -0.0102 -1.9836
  148SAPE  H14Y16331   2.183   5.893   5.166  0.0407  0.9626  0.0978
  148SAPE  C31516332   2.218   6.022   4.992  0.3210 -0.0338 -0.4413
  148SAPE  H15X16333   2.288   6.092   5.042 -2.3604  1.6701  1.1954
  148SAPE  H15Y16334   2.115   6.063   4.996  0.3189  0.1173 -1.6637
  148SAPE  C31616335   2.269   6.012   4.851  0.6171 -0.1084 -0.4261
  148SAPE  H16X16336   2.195   5.955   4.792 -1.9094  3.6286 -1.2354
  148SAPE  H16Y16337   2.372   5.972   4.852  1.0027  0.6973  2.4966
  148SAPE  C31716338   2.261   6.142   4.772 -0.6001 -0.9989  0.0258
  148SAPE  H17X16339   2.308   6.223   4.831 -0.1276  0.6146 -2.4282
  148SAPE  H17Y16340   2.154   6.173   4.773 -1.2094 -2.9682  0.9813
  148SAPE  C31816341   2.324   6.136   4.633 -0.5367  0.6482 -0.5512
  148SAPE  H18X16342   2.266   6.069   4.566  0.2915 -0.0290 -0.6116
  148SAPE  H18Y16343   2.425   6.089   4.637  0.2286  2.2733  0.0704
  148SAPE  H18Z16344   2.332   6.235   4.583  0.2865  0.7093 -0.3241
  149SAPE     N16345   3.766   0.525   6.439  0.0974 -0.1535 -0.3916
  149SAPE   HN116346   3.700   0.491   6.366  0.6725 -0.8880 -0.5858
  149SAPE   HN216347   3.827   0.604   6.407 -0.2458  0.7868  1.1692
  149SAPE   HN316348   3.827   0.448   6.472 -0.2885  0.6928  2.6280
  149SAPE   C1216349   3.705   0.586   6.555  0.4033  0.2643  0.0328
  149SAPE  H12A16350   3.776   0.662   6.595  1.4898 -1.1392  0.8888
  149SAPE  H12B16351   3.692   0.502   6.626  0.9015 -0.2660 -0.4872
  149SAPE   C1116352   3.571   0.654   6.515 -0.6605 -0.2152 -0.4407
  149SAPE  H11A16353   3.603   0.750   6.468  1.4289 -0.2958  0.6876
  149SAPE  H11B16354   3.525   0.683   6.611  1.9291 -0.0228  0.8258
  149SAPE     P16355   3.357   0.522   6.460  0.2972  0.3902 -0.0875
  149SAPE   O1316356   3.366   0.379   6.417 -0.4733 -0.1723  0.8178
  149SAPE   O1416357   3.306   0.558   6.592 -0.0075 -0.0759  0.3458
  149SAPE   O1216358   3.498   0.575   6.427 -0.2329  0.0000  0.2040
  149SAPE   O1116359   3.264   0.597   6.353  0.3407  0.3228 -0.4916
  149SAPE    C116360   3.298   0.580   6.220  0.2112 -0.4626 -0.4796
  149SAPE    HA16361   3.352   0.485   6.200 -1.9192 -1.8882  0.1901
  149SAPE    HB16362   3.207   0.583   6.157 -2.1767  1.1223  2.7830
  149SAPE    C216363   3.388   0.700   6.168  0.4598 -0.2642 -0.3696
  149SAPE    HS16364   3.486   0.699   6.220  0.1104 -1.9090  0.3080
  149SAPE   O2116365   3.302   0.816   6.200  0.0240  0.4167 -0.2323
  149SAPE   C2116366   3.371   0.910   6.259 -0.3982 -0.5383  0.7540
  149SAPE   O2216367   3.492   0.915   6.262  0.5740 -0.0220 -0.7636
  149SAPE   C2216368   3.271   1.019   6.300  0.7065 -0.4956 -0.6193
  149SAPE   H2R16369   3.211   0.963   6.376  0.3845 -2.4943 -2.2565
  149SAPE   H2S16370   3.324   1.103   6.349 -1.7611  0.1951  1.0615
  149SAPE    C316371   3.412   0.688   6.019  0.4672  0.0997 -0.1035
  149SAPE    HX16372   3.318   0.709   5.965  0.3955  0.6242  0.2250
  149SAPE    HY16373   3.436   0.581   5.996 -1.1378 -0.2472 -0.2602
  149SAPE   O3116374   3.501   0.787   5.972 -0.4978  0.2221  0.0921
  149SAPE   C3116375   3.629   0.749   5.946 -0.2480 -0.5794 -0.1538
  149SAPE   O3216376   3.675   0.638   5.969 -0.0595  0.6356 -0.7415
  149SAPE   C3216377   3.700   0.876   5.895  0.3030 -0.2856  0.1944
  149SAPE   H2X16378   3.728   0.935   5.984 -2.1918 -1.0736  1.5896
  149SAPE   H2Y16379   3.629   0.944   5.843 -1.6965  0.8268  3.9776
  149SAPE   C2316380   3.184   1.069   6.184 -0.4616  0.0547  0.0769
  149SAPE   H3R16381   3.121   1.157   6.207  0.3630  1.3776 -2.3543
  149SAPE   H3S16382   3.115   0.984   6.165 -1.3008  0.5888  0.6682
  149SAPE   C2416383   3.259   1.113   6.051  0.1499  0.2202  0.0877
  149SAPE   H4R16384   3.333   1.041   6.012  0.7743 -0.5529  2.5053
  149SAPE   H4S16385   3.312   1.200   6.095 -2.1059  0.7007  2.1073
  149SAPE   C2516386   3.150   1.159   5.956 -0.3296 -0.1293 -0.7455
  149SAPE   H5R16387   3.086   1.238   5.997 -0.8491 -0.7789 -0.2804
  149SAPE   C2616388   3.122   1.118   5.834  0.3017  0.1369 -0.1901
  149SAPE   H6R16389   3.044   1.162   5.771  0.2057  0.7464  0.3360
  149SAPE   C2716390   3.211   1.013   5.762 -0.1647 -0.5137  1.1294
  149SAPE   H7R16391   3.318   1.014   5.794  0.2170  0.0339 -0.0811
  149SAPE   H7S16392   3.214   1.040   5.654  1.0033 -0.8869  1.0494
  149SAPE   C2816393   3.154   0.876   5.768 -0.2450  0.2969 -0.6164
  149SAPE   H8R16394   3.095   0.864   5.859  0.1105  0.3833 -0.3704
  149SAPE   C2916395   3.187   0.775   5.687  0.5397  0.0574  0.1782
  149SAPE   H9R16396   3.125   0.684   5.696 -2.2938  1.7254 -1.1389
  149SAPE  C21016397   3.298   0.772   5.583  0.6538 -0.4739 -0.7600
  149SAPE  H10R16398   3.384   0.717   5.626  1.7982  1.8426  0.0972
  149SAPE  H10S16399   3.325   0.876   5.555 -1.8333  0.1604 -1.0818
  149SAPE  C21116400   3.250   0.705   5.458  0.1749 -0.1557  0.2389
  149SAPE  H11R16401   3.160   0.643   5.472  0.3789 -0.4507  0.2631
  149SAPE  C21216402   3.311   0.711   5.336 -0.4692 -0.0245  0.2581
  149SAPE  H12R16403   3.276   0.644   5.256  0.6892 -0.4200  0.0586
  149SAPE  C21316404   3.440   0.781   5.308  0.7448  0.2596  0.6755
  149SAPE  H13R16405   3.508   0.700   5.272 -0.2635  0.5377 -2.0905
  149SAPE  H13S16406   3.476   0.822   5.404  3.6042  1.0329 -0.6053
  149SAPE  C21416407   3.442   0.891   5.212  0.7662 -0.1608 -0.1603
  149SAPE  H14R16408   3.392   0.979   5.256 -2.0741 -2.5624  1.8618
  149SAPE  C21516409   3.487   0.895   5.085  0.6025 -0.7076 -0.0625
  149SAPE  H15R16410   3.482   0.998   5.046 -1.3360 -0.8600 -0.3220
  149SAPE  C21616411   3.559   0.787   5.012  0.3361  0.2372  0.4480
  149SAPE  H16R16412   3.560   0.689   5.065 -2.9879 -0.8360 -1.1783
  149SAPE  H16S16413   3.664   0.818   4.996  0.4350  0.1310  0.8640
  149SAPE  C21716414   3.498   0.756   4.874  0.2594  1.0950 -0.5398
  149SAPE  H17R16415   3.556   0.691   4.805 -1.1238 -0.0974 -0.6308
  149SAPE  H17S16416   3.502   0.851   4.818  0.2645  2.0457  1.0050
  149SAPE  C21816417   3.357   0.690   4.859 -0.0935 -0.0585 -0.0680
  149SAPE  H18R16418   3.277   0.724   4.929 -1.1473 -1.4924 -0.5472
  149SAPE  H18S16419   3.355   0.579   4.864 -3.1723 -0.0626  1.1796
  149SAPE  C21916420   3.284   0.726   4.725 -0.1217 -0.2953 -0.9586
  149SAPE  H19R16421   3.340   0.695   4.634 -0.5410  0.1238 -1.3658
  149SAPE  H19S16422   3.284   0.837   4.720 -0.0489 -0.2068  0.5647
  149SAPE  C22016423   3.135   0.674   4.728  1.1480 -0.7041  0.8608
  149SAPE  H20R16424   3.089   0.706   4.632  0.8562 -2.2061  0.4775
  149SAPE  H20S16425   3.086   0.725   4.814  0.3226  0.2668 -0.1489
  149SAPE  H20T16426   3.121   0.565   4.736 -0.4777 -0.6653 -0.8240
  149SAPE   C3316427   3.822   0.842   5.808  0.3345  0.2952  0.4143
  149SAPE   H3X16428   3.886   0.779   5.873 -0.8497 -1.8696 -0.4304
  149SAPE   H3Y16429   3.880   0.934   5.787 -0.5768  0.8336  0.1884
  149SAPE   C3416430   3.787   0.790   5.677 -0.3559 -0.4100  0.9449
  149SAPE   H4X16431   3.706   0.854   5.635  0.0241 -0.5102  0.0153
  149SAPE   H4Y16432   3.746   0.688   5.696  1.9140 -1.1532  2.2256
  149SAPE   C3516433   3.900   0.788   5.566 -0.1471  0.5606 -0.1291
  149SAPE   H5X16434   3.972   0.713   5.605 -0.0177  1.1725  0.8200
  149SAPE   H5Y16435   3.952   0.886   5.563 -0.3630  0.7543  1.5023
  149SAPE   C3616436   3.837   0.753   5.425 -0.1236  0.2591  0.8225
  149SAPE   H6X16437   3.784   0.836   5.373  2.5943 -0.8697 -4.5532
  149SAPE   H6Y16438   3.768   0.668   5.443 -1.2320  1.1145  0.7062
  149SAPE   C3716439   3.934   0.703   5.321  0.4216  0.4585  0.2284
  149SAPE   H7X16440   4.003   0.627   5.364  0.3645  0.1879 -0.1528
  149SAPE   H7Y16441   3.994   0.794   5.297 -2.3862  3.1269  2.5329
  149SAPE   C3816442   3.864   0.638   5.203 -0.0490  0.5993  0.1532
  149SAPE   H8X16443   3.775   0.699   5.175 -1.0048 -1.4366 -1.4796
  149SAPE   H8Y16444   3.832   0.538   5.238  2.2209 -0.1156  0.3788
  149SAPE   C3916445   3.951   0.622   5.072 -0.7414 -0.3553 -0.4779
  149SAPE   H9X16446   4.035   0.558   5.105  1.2529  2.2306 -0.1830
  149SAPE   H9Y16447   3.997   0.720   5.044 -2.4590  0.4701 -0.5359
  149SAPE  C31016448   3.877   0.579   4.954  0.0224 -0.0101  0.3264
  149SAPE  H10X16449   3.790   0.648   4.962  0.4104  0.5848 -0.4218
  149SAPE  H10Y16450   3.854   0.471   4.963 -0.3195 -0.4125 -3.7754
  149SAPE  C31116451   3.944   0.596   4.820 -1.1458  0.2830 -0.2034
  149SAPE  H11X16452   3.864   0.576   4.746 -3.1091  0.8811  1.6550
  149SAPE  H11Y16453   4.025   0.520   4.819  0.8473  2.2399  1.4565
  149SAPE  C31216454   4.006   0.732   4.795 -0.3097  0.3998  0.4951
  149SAPE  H12X16455   4.077   0.765   4.873  0.1361  2.5107 -0.7332
  149SAPE  H12Y16456   3.930   0.812   4.806 -0.0960  0.6331  0.2941
  149SAPE  C31316457   4.075   0.734   4.652  0.6890  0.4630  0.6887
  149SAPE  H13X16458   4.114   0.838   4.655  0.6743  0.4840  0.1272
  149SAPE  H13Y16459   3.996   0.718   4.576  2.2483  0.8775 -1.0798
  149SAPE  C31416460   4.174   0.623   4.638  0.3387  0.0869  0.2879
  149SAPE  H14X16461   4.139   0.518   4.647 -3.4599  1.0922 -0.9802
  149SAPE  H14Y16462   4.242   0.628   4.726 -2.1248 -2.3920  2.5030
  149SAPE  C31516463   4.246   0.624   4.499 -0.4561  0.7197  0.3408
  149SAPE  H15X16464   4.169   0.596   4.423  0.8976 -1.0313 -0.4652
  149SAPE  H15Y16465   4.313   0.536   4.501 -0.5650  0.5907 -0.8750
  149SAPE  C31616466   4.322   0.755   4.464  0.1163  0.2614 -0.0398
  149SAPE  H16X16467   4.407   0.777   4.533 -1.5560  3.3369  1.2397
  149SAPE  H16Y16468   4.254   0.843   4.463  0.5511  0.6271  0.9140
  149SAPE  C31716469   4.378   0.728   4.326 -0.8380  1.3582  0.6107
  149SAPE  H17X16470   4.291   0.698   4.264  0.3520  1.6984 -1.3291
  149SAPE  H17Y16471   4.451   0.645   4.334  0.0027  1.9879 -0.1787
  149SAPE  C31816472   4.453   0.852   4.272  0.3548 -0.6752  0.0132
  149SAPE  H18X16473   4.513   0.896   4.355  0.5944  1.9028 -1.3994
  149SAPE  H18Y16474   4.374   0.929   4.256 -0.9044 -2.0086 -0.3880
  149SAPE  H18Z16475   4.528   0.842   4.191  1.7128  1.7927  0.8410
  150SAPE     N16476   5.425   2.622   6.264 -0.3260 -0.0023 -0.5081
  150SAPE   HN116477   5.321   2.622   6.251 -0.3720 -2.0238 -0.5200
  150SAPE   HN216478   5.468   2.577   6.181  1.1464 -2.8787  1.6324
  150SAPE   HN316479   5.460   2.561   6.341  3.2934  0.7030 -1.4548
  150SAPE   C1216480   5.495   2.754   6.295 -0.6079 -0.6599 -0.3727
  150SAPE  H12A16481   5.431   2.834   6.336 -0.9627 -1.2039  0.1545
  150SAPE  H12B16482   5.553   2.786   6.206  1.0670 -0.2283  0.8250
  150SAPE   C1116483   5.598   2.726   6.397 -0.4559  0.0187  0.4166
  150SAPE  H11A16484   5.550   2.692   6.491  0.1603 -0.2377  0.6412
  150SAPE  H11B16485   5.659   2.817   6.411  0.3246 -0.2893 -0.8453
  150SAPE     P16486   5.821   2.640   6.286 -0.0130  0.0314  0.3367
  150SAPE   O1316487   5.816   2.720   6.157 -0.2930 -0.1789 -0.5393
  150SAPE   O1416488   5.917   2.683   6.394  0.0482  0.2480 -0.4090
  150SAPE   O1216489   5.680   2.625   6.352 -0.4324  0.4998  0.5328
  150SAPE   O1116490   5.855   2.492   6.255  0.2206 -0.7466  0.3512
  150SAPE    C116491   5.763   2.412   6.181 -0.1148 -0.1124 -0.0245
  150SAPE    HA16492   5.807   2.311   6.194  0.5282  0.2163  0.3939
  150SAPE    HB16493   5.665   2.420   6.232  0.3358 -2.0640  1.2688
  150SAPE    C216494   5.756   2.439   6.022  0.2974 -0.1714 -0.5312
  150SAPE    HS16495   5.716   2.543   6.013 -2.7803 -1.1319  0.7221
  150SAPE   O2116496   5.680   2.343   5.950  0.7074 -0.3387  0.0355
  150SAPE   C2116497   5.549   2.363   5.980 -0.5515 -0.2584 -0.3863
  150SAPE   O2216498   5.511   2.454   6.056 -0.4948  0.6557  0.0004
  150SAPE   C2216499   5.464   2.270   5.896  0.3403 -0.7697 -0.5096
  150SAPE   H2R16500   5.501   2.262   5.791 -0.6028 -2.4723 -0.7605
  150SAPE   H2S16501   5.483   2.171   5.943  0.1689  0.3683  2.1137
  150SAPE    C316502   5.904   2.438   5.972 -0.2936  0.6217 -0.5199
  150SAPE    HX16503   5.964   2.360   6.023  0.0212  0.3822 -1.2468
  150SAPE    HY16504   5.943   2.533   6.013 -0.5270 -0.1820  1.6957
  150SAPE   O3116505   5.917   2.437   5.827  0.4307  0.5358  0.3529
  150SAPE   C3116506   5.907   2.321   5.763 -0.8003  0.0303  0.0099
  150SAPE   O3216507   5.932   2.214   5.815 -0.2460  0.0736  0.3206
  150SAPE   C3216508   5.854   2.336   5.622 -0.1914 -0.1919 -0.4645
  150SAPE   H2X16509   5.908   2.264   5.557 -0.2994 -2.0022  1.3577
  150SAPE   H2Y16510   5.882   2.438   5.588 -1.3473 -0.1609 -1.4026
  150SAPE   C2316511   5.318   2.306   5.879  0.3370 -0.0770  0.1399
  150SAPE   H3R16512   5.305   2.416   5.865  1.0882 -0.0659 -0.5348
  150SAPE   H3S16513   5.262   2.274   5.969  2.7172  0.3311  1.8323
  150SAPE   C2416514   5.244   2.250   5.753  0.4631 -0.7020 -0.1051
  150SAPE   H4R16515   5.290   2.292   5.661 -0.0644  0.0762 -0.0227
  150SAPE   H4S16516   5.146   2.300   5.739  0.8141  0.9079  2.4648
  150SAPE   C2516517   5.224   2.099   5.728  0.2032  0.7570 -0.1376
  150SAPE   H5R16518   5.281   2.033   5.796 -1.7973 -0.3368  0.5978
  150SAPE   C2616519   5.150   2.039   5.631  0.2797 -0.0306  0.0851
  150SAPE   H6R16520   5.137   1.930   5.640  0.8354  0.0650  3.0801
  150SAPE   C2716521   5.061   2.102   5.530 -0.6174 -0.1088  0.9253
  150SAPE   H7R16522   5.121   2.160   5.458 -0.7675 -0.8516  0.1923
  150SAPE   H7S16523   4.990   2.174   5.578 -2.2935 -0.2973 -1.1371
  150SAPE   C2816524   4.957   2.006   5.458  0.0019  0.3190 -0.8388
  150SAPE   H8R16525   4.940   1.912   5.512 -0.4233  0.4954 -0.6606
  150SAPE   C2916526   4.886   2.026   5.343 -0.5096 -0.6262 -0.0330
  150SAPE   H9R16527   4.824   1.945   5.302 -1.9552  0.1686  0.5302
  150SAPE  C21016528   4.892   2.158   5.273 -0.2943  0.5159 -0.5666
  150SAPE  H10R16529   4.986   2.149   5.214  0.1331  1.2087 -0.0104
  150SAPE  H10S16530   4.922   2.243   5.339 -2.1704  0.0133  1.0247
  150SAPE  C21116531   4.775   2.192   5.185  0.1874 -0.0671  0.8397
  150SAPE  H11R16532   4.675   2.196   5.231 -0.5539  0.5509 -0.7403
  150SAPE  C21216533   4.784   2.219   5.058 -0.2111 -0.3993  0.1548
  150SAPE  H12R16534   4.690   2.237   5.002 -0.2540 -0.2230  0.2845
  150SAPE  C21316535   4.912   2.241   4.980  0.0018  1.3946  0.2545
  150SAPE  H13R16536   4.906   2.174   4.891 -3.6144  2.9225 -0.8589
  150SAPE  H13S16537   5.005   2.209   5.032  0.1872  2.6141  0.7061
  150SAPE  C21416538   4.933   2.383   4.928  0.2517 -0.3464 -0.6936
  150SAPE  H14R16539   4.998   2.455   4.981  1.0045 -0.4973 -1.3865
  150SAPE  C21516540   4.867   2.438   4.817  0.2707  0.0420 -0.1179
  150SAPE  H15R16541   4.894   2.537   4.778  1.2183 -0.6566 -1.3264
  150SAPE  C21616542   4.775   2.355   4.726 -0.4211 -0.5830 -0.0218
  150SAPE  H16R16543   4.686   2.414   4.696  1.3554  1.7421 -0.9772
  150SAPE  H16S16544   4.750   2.251   4.757 -1.8472 -0.6141 -1.1516
  150SAPE  C21716545   4.847   2.323   4.592  0.8334  0.1462  0.4606
  150SAPE  H17R16546   4.946   2.279   4.617  1.3054 -1.0720 -3.0276
  150SAPE  H17S16547   4.867   2.418   4.538  3.2070 -1.4063 -1.6290
  150SAPE  C21816548   4.765   2.224   4.504  0.2952 -0.1850 -0.1369
  150SAPE  H18R16549   4.666   2.268   4.479  0.5711  0.3307 -0.3286
  150SAPE  H18S16550   4.739   2.134   4.564  0.6707  1.9388  3.5545
  150SAPE  C21916551   4.830   2.194   4.367 -0.2885 -0.0368  0.1084
  150SAPE  H19R16552   4.926   2.145   4.393 -0.1953 -0.4176 -0.8881
  150SAPE  H19S16553   4.868   2.291   4.327  1.2781  0.0070  1.5733
  150SAPE  C22016554   4.764   2.101   4.263  0.3875  0.0976 -0.5887
  150SAPE  H20R16555   4.832   2.068   4.182 -2.7851 -0.5759 -3.1894
  150SAPE  H20S16556   4.682   2.156   4.213 -0.9907 -1.5166 -0.2063
  150SAPE  H20T16557   4.723   2.008   4.308 -1.1705  0.5103 -1.1000
  150SAPE   C3316558   5.697   2.320   5.613 -0.5468 -0.1266  0.3158
  150SAPE   H3X16559   5.660   2.382   5.697 -0.8182 -1.2794  1.0669
  150SAPE   H3Y16560   5.677   2.212   5.630  1.2488 -0.3624  1.2121
  150SAPE   C3416561   5.637   2.368   5.482  0.5488  0.2103 -0.2802
  150SAPE   H4X16562   5.655   2.477   5.469 -1.6019  0.7631  0.7433
  150SAPE   H4Y16563   5.527   2.353   5.475  0.9468 -3.2280 -0.6609
  150SAPE   C3516564   5.692   2.308   5.353  0.0209  0.3381  0.3388
  150SAPE   H5X16565   5.685   2.198   5.342 -0.3292  0.2937  0.9942
  150SAPE   H5Y16566   5.799   2.332   5.331  0.6261 -1.8895  0.5886
  150SAPE   C3616567   5.618   2.357   5.228  0.1694 -0.4606  0.0328
  150SAPE   H6X16568   5.510   2.333   5.215 -0.0677  0.8100 -0.4179
  150SAPE   H6Y16569   5.657   2.290   5.149 -1.2154 -1.7267  0.3774
  150SAPE   C3716570   5.648   2.504   5.207 -0.4355  0.3528  0.4573
  150SAPE   H7X16571   5.742   2.541   5.252  0.2332 -1.3220  0.5027
  150SAPE   H7Y16572   5.568   2.555   5.264 -1.0601 -1.3192  1.1384
  150SAPE   C3816573   5.658   2.529   5.055  0.0109 -0.5754 -0.1279
  150SAPE   H8X16574   5.619   2.628   5.023  1.3677  0.1345  0.3353
  150SAPE   H8Y16575   5.605   2.451   4.997  0.6034 -1.2364  0.2016
  150SAPE   C3916576   5.802   2.512   5.002 -0.7777 -0.1330  0.2390
  150SAPE   H9X16577   5.837   2.424   5.059  1.0468  1.7908  2.3273
  150SAPE   H9Y16578   5.857   2.600   5.043 -1.0777  0.9225 -1.5156
  150SAPE  C31016579   5.820   2.492   4.853  0.0379 -0.4415  0.1102
  150SAPE  H10X16580   5.728   2.450   4.808 -0.7225  1.1770  0.0741
  150SAPE  H10Y16581   5.901   2.416   4.850  0.3173 -0.1409 -0.0563
  150SAPE  C31116582   5.851   2.627   4.779 -0.3212  0.5728  0.5738
  150SAPE  H11X16583   5.947   2.670   4.816  0.2001 -0.3055  0.2981
  150SAPE  H11Y16584   5.766   2.697   4.793 -0.8539 -0.1280  0.9149
  150SAPE  C31216585   5.844   2.612   4.628 -0.0139  0.0035 -0.2535
  150SAPE  H12X16586   5.851   2.712   4.581 -1.2208 -1.0861 -2.9846
  150SAPE  H12Y16587   5.740   2.579   4.607  0.0791  0.4139 -1.4246
  150SAPE  C31316588   5.946   2.526   4.561 -0.7784 -0.0212  0.3090
  150SAPE  H13X16589   5.936   2.428   4.613 -3.3952  1.8214  3.7375
  150SAPE  H13Y16590   6.051   2.557   4.576 -0.4697 -1.9281  2.7755
  150SAPE  C31416591   5.925   2.526   4.403  0.0143 -0.0932  0.3667
  150SAPE  H14X16592   5.957   2.621   4.357 -1.1083 -0.4059 -1.1377
  150SAPE  H14Y16593   5.817   2.527   4.376  0.2701  0.3098 -0.6715
  150SAPE  C31516594   5.998   2.420   4.330  1.1196 -0.3509 -0.2193
  150SAPE  H15X16595   6.105   2.416   4.361  1.6284  0.7922 -1.7094
  150SAPE  H15Y16596   6.012   2.456   4.226  0.4587  2.8530  0.6826
  150SAPE  C31616597   5.919   2.287   4.320 -0.1300  0.9058 -0.5904
  150SAPE  H16X16598   5.825   2.307   4.265  0.3536  0.2516 -1.6927
  150SAPE  H16Y16599   5.881   2.259   4.421 -1.4636 -0.2526 -1.3685
  150SAPE  C31716600   5.973   2.161   4.256 -0.2046 -0.3351 -0.7556
  150SAPE  H17X16601   6.070   2.143   4.306 -0.3189 -2.2491 -1.1614
  150SAPE  H17Y16602   5.986   2.194   4.151 -0.6617  1.1234 -0.3746
  150SAPE  C31816603   5.885   2.041   4.280 -0.2868 -0.1137 -0.8101
  150SAPE  H18X16604   5.783   2.038   4.236 -0.3917  0.4935 -0.6070
  150SAPE  H18Y16605   5.877   2.029   4.390  0.6899  1.2176 -0.5646
  150SAPE  H18Z16606   5.942   1.954   4.239  0.0142 -0.0905 -0.4392
  151SAPE     N16607   4.445   5.938   6.429 -0.2761 -0.1778  0.2117
  151SAPE   HN116608   4.418   6.024   6.479  0.7798  0.1986  0.1665
  151SAPE   HN216609   4.368   5.902   6.370 -0.0868 -0.4328  0.1165
  151SAPE   HN316610   4.476   5.861   6.492 -1.2072 -0.2386  0.6077
  151SAPE   C1216611   4.566   5.968   6.346  0.4166 -0.7985 -0.0812
  151SAPE  H12A16612   4.523   6.049   6.282 -0.2159  1.3335  2.8122
  151SAPE  H12B16613   4.590   5.875   6.291  1.0730  0.4222 -1.9649
  151SAPE   C1116614   4.670   6.037   6.428  0.6163 -0.0538  0.0616
  151SAPE  H11A16615   4.625   6.131   6.467  1.0692  0.8180 -1.4564
  151SAPE  H11B16616   4.758   6.067   6.367  0.2111 -0.2843 -0.6502
  151SAPE     P16617   4.848   5.966   6.606  0.1653  0.1638 -0.0879
  151SAPE   O1316618   4.859   6.109   6.633  0.2789 -0.4864  0.7711
  151SAPE   O1416619   4.866   5.871   6.718 -0.0859  0.4143 -0.1095
  151SAPE   O1216620   4.708   5.946   6.533  0.0842  0.2374 -0.0329
  151SAPE   O1116621   4.944   5.932   6.481 -0.5440 -0.2119 -0.4153
  151SAPE    C116622   4.988   5.803   6.446  0.2236  0.1545 -0.4513
  151SAPE    HA16623   5.092   5.805   6.405 -0.0581 -1.8405 -1.3837
  151SAPE    HB16624   4.989   5.739   6.538  1.0213 -1.2133 -1.3741
  151SAPE    C216625   4.914   5.725   6.335 -0.1900 -0.4085  0.9421
  151SAPE    HS16626   4.986   5.660   6.282 -1.6999 -0.8199 -0.7201
  151SAPE   O2116627   4.854   5.810   6.239  0.0857  0.9449 -0.0236
  151SAPE   C2116628   4.934   5.895   6.179  0.2928 -1.5606  0.0175
  151SAPE   O2216629   5.047   5.913   6.198  0.1833 -0.3541  0.2939
  151SAPE   C2216630   4.847   5.984   6.086  0.0550  0.0199 -0.0158
  151SAPE   H2R16631   4.780   5.912   6.033  1.9395 -0.3082 -2.1107
  151SAPE   H2S16632   4.772   6.039   6.147  0.1982 -0.4203  0.5744
  151SAPE    C316633   4.794   5.637   6.399 -0.7006  0.7357  0.3340
  151SAPE    HX16634   4.726   5.705   6.456  2.3734  0.0758  5.3417
  151SAPE    HY16635   4.834   5.562   6.470 -1.7542 -0.8739 -0.6927
  151SAPE   O3116636   4.722   5.575   6.288 -0.4929 -0.0557  0.0383
  151SAPE   C3116637   4.766   5.457   6.253  0.2371  0.3407 -0.5342
  151SAPE   O3216638   4.864   5.401   6.293 -0.7767 -0.7102 -0.4997
  151SAPE   C3216639   4.660   5.398   6.156 -0.2487 -0.6623 -0.3619
  151SAPE   H2X16640   4.579   5.472   6.136  1.2940  1.5694  1.1907
  151SAPE   H2Y16641   4.637   5.299   6.201  2.9885 -1.1864  0.3771
  151SAPE   C2316642   4.919   6.076   5.987  0.4244  0.1180 -0.3589
  151SAPE   H3R16643   5.014   6.109   6.034 -0.9560  3.6036  0.2781
  151SAPE   H3S16644   4.848   6.161   5.981  0.4656  0.0692 -1.8718
  151SAPE   C2416645   4.940   6.010   5.851  0.2090  0.8633 -0.3291
  151SAPE   H4R16646   4.847   5.954   5.826  1.2461  0.1484 -3.0121
  151SAPE   H4S16647   5.006   5.922   5.866 -0.7212  0.3558  0.9404
  151SAPE   C2516648   4.986   6.109   5.746 -0.4753 -0.1588 -0.6824
  151SAPE   H5R16649   4.929   6.203   5.749 -0.1053  0.0421  0.2542
  151SAPE   C2616650   5.079   6.091   5.653  0.8818  0.3152  0.0258
  151SAPE   H6R16651   5.105   6.171   5.583  3.2724 -0.1083  0.3494
  151SAPE   C2716652   5.162   5.968   5.634 -0.0908 -1.0591  0.0400
  151SAPE   H7R16653   5.111   5.917   5.550 -0.4222 -0.9246  0.1540
  151SAPE   H7S16654   5.151   5.895   5.717  0.8036  1.1933  2.2530
  151SAPE   C2816655   5.305   6.009   5.599 -0.4322 -0.3024  0.1651
  151SAPE   H8R16656   5.375   5.977   5.678 -2.3349 -1.2689  1.5353
  151SAPE   C2916657   5.362   6.041   5.486 -0.3540 -0.3981  0.6271
  151SAPE   H9R16658   5.470   6.059   5.481 -0.6536  1.4272 -0.4183
  151SAPE  C21016659   5.283   6.037   5.357  0.1879  0.3104 -0.9541
  151SAPE  H10R16660   5.174   6.023   5.372  0.2901 -0.7577 -1.2041
  151SAPE  H10S16661   5.312   5.948   5.299  1.2362 -0.5951  0.8579
  151SAPE  C21116662   5.306   6.156   5.276  0.5440 -0.1723  0.1664
  151SAPE  H11R16663   5.350   6.246   5.321 -0.6836  0.9412 -0.7577
  151SAPE  C21216664   5.260   6.171   5.150 -0.4063  0.9280 -0.4668
  151SAPE  H12R16665   5.273   6.276   5.117  0.4106  1.8598  2.4737
  151SAPE  C21316666   5.184   6.079   5.054 -1.1835 -0.6548  0.1847
  151SAPE  H13R16667   5.075   6.101   5.046 -0.7572  0.9367 -2.6104
  151SAPE  H13S16668   5.171   5.977   5.094 -0.5505 -0.9291 -0.2937
  151SAPE  C21416669   5.248   6.066   4.919 -0.1437 -0.5019 -0.9450
  151SAPE  H14R16670   5.324   5.986   4.905  0.1440 -0.7431  1.6042
  151SAPE  C21516671   5.214   6.130   4.810 -0.7419 -0.0829 -0.3200
  151SAPE  H15R16672   5.267   6.102   4.718 -0.7882  1.0427 -0.7033
  151SAPE  C21616673   5.115   6.243   4.792  1.0039 -0.2164 -0.2616
  151SAPE  H16R16674   5.049   6.271   4.877  0.5080  0.1465 -0.7571
  151SAPE  H16S16675   5.029   6.213   4.729  1.8070 -0.1867 -1.4223
  151SAPE  C21716676   5.170   6.374   4.730 -0.1975  0.0332 -0.2814
  151SAPE  H17R16677   5.250   6.411   4.797 -1.9828 -0.7814  2.4661
  151SAPE  H17S16678   5.088   6.448   4.737  1.5190  1.8733  1.7058
  151SAPE  C21816679   5.215   6.378   4.588  0.2596  0.1816  0.4499
  151SAPE  H18R16680   5.134   6.348   4.518  1.4728 -1.7540 -0.2214
  151SAPE  H18S16681   5.278   6.286   4.583  2.0384  1.3402  0.5283
  151SAPE  C21916682   5.292   6.505   4.538 -0.0193  0.2608 -0.0815
  151SAPE  H19R16683   5.386   6.509   4.597  1.0842  2.3375 -1.8127
  151SAPE  H19S16684   5.244   6.604   4.559 -1.3091 -0.1775 -0.8076
  151SAPE  C22016685   5.336   6.511   4.386  0.5495  0.0618  0.1044
  151SAPE  H20R16686   5.258   6.524   4.308  1.8963 -0.0586 -1.3144
  151SAPE  H20S16687   5.390   6.416   4.369  0.7343  0.3222 -0.7822
  151SAPE  H20T16688   5.410   6.592   4.370  0.6544 -0.1522 -0.5229
  151SAPE   C3316689   4.723   5.362   6.019  0.3687 -0.3166  0.0726
  151SAPE   H3X16690   4.662   5.291   5.958 -1.0131  0.7997  0.1096
  151SAPE   H3Y16691   4.821   5.312   6.031  0.8072 -0.1715 -2.4760
  151SAPE   C3416692   4.741   5.482   5.925 -0.0415  0.0024 -0.2100
  151SAPE   H4X16693   4.811   5.556   5.968 -0.2463 -0.8212  1.6299
  151SAPE   H4Y16694   4.644   5.532   5.904  1.0115  2.4285  0.3780
  151SAPE   C3516695   4.805   5.444   5.788  1.1422 -0.1466  0.0723
  151SAPE   H5X16696   4.737   5.359   5.767 -1.5954  1.5276  1.4791
  151SAPE   H5Y16697   4.904   5.400   5.812  0.5507 -1.5697 -0.0199
  151SAPE   C3616698   4.805   5.566   5.689 -0.0852 -0.2414  0.3075
  151SAPE   H6X16699   4.773   5.650   5.754  0.4893 -0.0125  0.2929
  151SAPE   H6Y16700   4.735   5.543   5.606  0.4468  0.3916 -0.3191
  151SAPE   C3716701   4.933   5.592   5.613 -0.0370  0.2416  0.1531
  151SAPE   H7X16702   5.022   5.589   5.679 -0.2235 -2.1772  0.3837
  151SAPE   H7Y16703   4.934   5.693   5.568  0.6453  0.5349  0.8066
  151SAPE   C3816704   4.962   5.479   5.515 -0.0101  0.1460  0.0929
  151SAPE   H8X16705   4.885   5.473   5.435  1.3966  0.0916 -1.3129
  151SAPE   H8Y16706   4.979   5.386   5.573 -2.2670 -1.1351 -1.1589
  151SAPE   C3916707   5.088   5.504   5.435  0.2348 -0.2354 -0.2528
  151SAPE   H9X16708   5.112   5.413   5.377 -0.7736 -0.6902  0.0241
  151SAPE   H9Y16709   5.176   5.514   5.503 -0.5873  1.3636  0.6344
  151SAPE  C31016710   5.095   5.634   5.340 -0.6663 -0.5340 -0.2568
  151SAPE  H10X16711   5.203   5.656   5.332 -0.5057 -1.6192 -1.1112
  151SAPE  H10Y16712   5.046   5.719   5.394 -0.1166 -1.1655  1.2752
  151SAPE  C31116713   5.043   5.610   5.198 -0.3010  0.1578 -1.0357
  151SAPE  H11X16714   4.940   5.570   5.195 -1.1059  2.1182 -0.6828
  151SAPE  H11Y16715   5.121   5.553   5.143  1.9216  2.5727 -0.6047
  151SAPE  C31216716   5.030   5.736   5.112  0.2210  0.3966  0.2300
  151SAPE  H12X16717   5.129   5.787   5.123  0.4174  0.1107 -0.2166
  151SAPE  H12Y16718   4.941   5.792   5.150 -2.3210 -3.4186  0.4021
  151SAPE  C31316719   5.001   5.712   4.965 -0.3996  0.1140  0.8811
  151SAPE  H13X16720   4.924   5.632   4.975 -0.1457 -0.0003  2.1928
  151SAPE  H13Y16721   5.083   5.667   4.906 -0.6047 -0.3390  0.9336
  151SAPE  C31416722   4.950   5.841   4.890 -0.5711  0.4519  0.2667
  151SAPE  H14X16723   5.032   5.915   4.882 -1.8662  1.7907 -1.2170
  151SAPE  H14Y16724   4.873   5.885   4.958  0.2775  2.6807 -0.1324
  151SAPE  C31516725   4.886   5.819   4.752 -0.1051  0.6344 -0.3261
  151SAPE  H15X16726   4.830   5.908   4.715 -1.9248 -0.7286 -1.0030
  151SAPE  H15Y16727   4.803   5.748   4.771 -0.7066  1.2706 -0.5231
  151SAPE  C31616728   4.980   5.764   4.644  0.4030 -1.1333  0.1333
  151SAPE  H16X16729   4.926   5.744   4.549 -0.9414  0.4016  0.5382
  151SAPE  H16Y16730   5.026   5.665   4.667  1.2819 -1.5025 -2.7955
  151SAPE  C31716731   5.092   5.858   4.604  0.3040  0.0924  0.0299
  151SAPE  H17X16732   5.161   5.890   4.685 -0.3550  1.3464  0.1234
  151SAPE  H17Y16733   5.049   5.950   4.558 -0.5426 -0.7925 -1.0039
  151SAPE  C31816734   5.181   5.797   4.495  0.8771 -0.3414  0.2197
  151SAPE  H18X16735   5.259   5.867   4.457 -1.9465  2.9296 -0.0752
  151SAPE  H18Y16736   5.119   5.771   4.408  0.9141 -1.2192  0.4448
  151SAPE  H18Z16737   5.228   5.707   4.541  0.2757 -0.9035 -0.2524
  152SAPE     N16738   6.669   6.793   6.388  0.7828 -0.1213 -0.2638
  152SAPE   HN116739   6.609   6.871   6.353  0.9652 -1.2493 -3.4270
  152SAPE   HN216740   6.674   6.711   6.325 -0.7251 -1.2934  1.0749
  152SAPE   HN316741   6.639   6.752   6.478 -1.5524  0.0978 -0.8719
  152SAPE   C1216742   6.813   6.842   6.406 -0.0589  0.3263 -0.4455
  152SAPE  H12A16743   6.878   6.760   6.444 -3.2321 -1.3795  1.7186
  152SAPE  H12B16744   6.809   6.924   6.481 -0.0687 -0.2215  0.1672
  152SAPE   C1116745   6.866   6.879   6.273  0.4233  0.3571  0.6358
  152SAPE  H11A16746   6.785   6.935   6.224  1.2542  1.9231  0.9874
  152SAPE  H11B16747   6.877   6.784   6.217 -1.7816 -0.5245  1.6063
  152SAPE     P16748   7.130   6.891   6.300 -0.1655 -0.3817  0.3404
  152SAPE   O1316749   7.223   7.007   6.294 -0.0444  0.0325  0.3485
  152SAPE   O1416750   7.135   6.807   6.425  0.5150  0.1460  0.3316
  152SAPE   O1216751   6.985   6.954   6.279  0.1686 -0.1010  0.2909
  152SAPE   O1116752   7.145   6.792   6.177 -0.3685 -0.6009 -0.1824
  152SAPE    C116753   7.208   6.828   6.052 -0.4966  0.4585 -0.4843
  152SAPE    HA16754   7.295   6.893   6.070 -0.1096 -0.0861 -0.3703
  152SAPE    HB16755   7.246   6.740   5.996  4.0748  0.9041  1.4897
  152SAPE    C216756   7.111   6.898   5.958 -0.3863  0.0144 -0.1185
  152SAPE    HS16757   7.080   6.997   5.996  0.8754  0.3148  0.1891
  152SAPE   O2116758   7.002   6.802   5.940  0.0715 -0.4487 -0.1301
  152SAPE   C2116759   6.886   6.858   5.935  0.7637  0.1311 -0.7435
  152SAPE   O2216760   6.862   6.976   5.931 -0.5882 -0.0312  0.0480
  152SAPE   C2216761   6.774   6.755   5.935 -0.5032  0.4522  0.2882
  152SAPE   H2R16762   6.791   6.676   6.012 -1.7223 -3.5298 -3.1605
  152SAPE   H2S16763   6.675   6.802   5.952 -0.9201 -0.9751  2.2405
  152SAPE    C316764   7.180   6.922   5.815 -0.2522  0.4181 -0.2980
  152SAPE    HX16765   7.168   6.824   5.764  1.1139  0.6125 -1.0440
  152SAPE    HY16766   7.289   6.931   5.831 -0.3156  0.6340  0.0129
  152SAPE   O3116767   7.113   7.026   5.736  0.1791 -0.4472 -0.2200
  152SAPE   C3116768   7.173   7.142   5.746 -0.3928  0.2668  0.1255
  152SAPE   O3216769   7.277   7.164   5.806 -0.1989 -0.7014  0.5095
  152SAPE   C3216770   7.081   7.254   5.696 -0.0871  0.1783  0.1702
  152SAPE   H2X16771   7.093   7.342   5.763  0.3092 -0.6559  1.2094
  152SAPE   H2Y16772   6.978   7.218   5.719  0.0104 -1.2640 -1.4371
  152SAPE   C2316773   6.770   6.684   5.801  0.5045 -0.1012  0.0303
  152SAPE   H3R16774   6.708   6.592   5.807 -0.5057  0.5661 -0.0186
  152SAPE   H3S16775   6.869   6.655   5.760  0.7956  0.8849  0.0046
  152SAPE   C2416776   6.689   6.757   5.691 -0.2899 -0.6385 -0.0554
  152SAPE   H4R16777   6.612   6.818   5.743 -0.2296  1.6618 -2.4487
  152SAPE   H4S16778   6.632   6.688   5.626  1.4545 -1.1606 -1.1225
  152SAPE   C2516779   6.785   6.846   5.617  0.2281  0.3954 -0.5071
  152SAPE   H5R16780   6.828   6.934   5.667  0.4083  0.7144 -1.2041
  152SAPE   C2616781   6.824   6.826   5.486  0.2533  0.0454  0.7103
  152SAPE   H6R16782   6.896   6.901   5.449  0.0231  0.4519  1.0764
  152SAPE   C2716783   6.793   6.717   5.389  0.3036 -0.1974 -0.6286
  152SAPE   H7R16784   6.715   6.645   5.419 -1.1605  1.1104 -1.1227
  152SAPE   H7S16785   6.891   6.665   5.388  1.1194  1.1911  1.1856
  152SAPE   C2816786   6.778   6.775   5.247 -0.3486  0.4844 -0.2190
  152SAPE   H8R16787   6.691   6.840   5.229 -2.1812 -1.4182  1.2229
  152SAPE   C2916788   6.855   6.749   5.139 -0.5772 -0.6519 -0.2842
  152SAPE   H9R16789   6.824   6.798   5.045 -2.6905 -2.4086 -0.5747
  152SAPE  C21016790   6.978   6.670   5.130 -0.8263  0.5216  0.0900
  152SAPE  H10R16791   6.952   6.585   5.064 -1.0350  0.9889 -0.4437
  152SAPE  H10S16792   7.001   6.615   5.223  0.2223  0.3230 -0.2749
  152SAPE  C21116793   7.101   6.735   5.073  0.9487 -0.2026  0.0805
  152SAPE  H11R16794   7.170   6.778   5.147  1.3709  0.5689 -0.7458
  152SAPE  C21216795   7.131   6.742   4.942 -0.1712  0.4489  0.0051
  152SAPE  H12R16796   7.223   6.793   4.911 -0.7417  1.3621 -0.2096
  152SAPE  C21316797   7.047   6.684   4.826 -0.0762  0.0977 -0.5947
  152SAPE  H13R16798   7.020   6.769   4.760  1.5299  0.7761 -0.4338
  152SAPE  H13S16799   6.951   6.638   4.855  0.1857  0.9482  1.8358
  152SAPE  C21416800   7.130   6.581   4.754 -0.3787 -0.1841  0.4595
  152SAPE  H14R16801   7.178   6.505   4.816  0.1097 -1.1944 -1.0928
  152SAPE  C21516802   7.136   6.560   4.621 -0.6632  0.3523 -0.9881
  152SAPE  H15R16803   7.202   6.482   4.582  0.4444 -0.2277  1.8272
  152SAPE  C21616804   7.060   6.645   4.517  0.2242 -0.0151  0.1546
  152SAPE  H16R16805   7.053   6.751   4.548 -0.7752 -0.2245  0.6723
  152SAPE  H16S16806   6.957   6.606   4.499  0.5329 -1.5474  1.4753
  152SAPE  C21716807   7.141   6.650   4.384  0.1906  0.1523 -0.3228
  152SAPE  H17R16808   7.106   6.734   4.320 -0.2395  2.1633  2.3631
  152SAPE  H17S16809   7.129   6.554   4.329  3.3772  0.7857 -2.3968
  152SAPE  C21816810   7.289   6.673   4.403 -0.6506 -0.4583 -0.5754
  152SAPE  H18R16811   7.332   6.574   4.427 -0.8341 -1.3696 -3.6528
  152SAPE  H18S16812   7.296   6.733   4.496 -0.9751 -1.1824 -0.0759
  152SAPE  C21916813   7.359   6.744   4.288  0.4216  0.2530  0.1716
  152SAPE  H19R16814   7.336   6.853   4.283  1.7971  0.5746  0.4213
  152SAPE  H19S16815   7.327   6.700   4.192  0.5421 -1.3560  0.8359
  152SAPE  C22016816   7.512   6.730   4.282 -0.4527  0.2364  0.2368
  152SAPE  H20R16817   7.541   6.624   4.267 -0.9998  0.3387 -1.8151
  152SAPE  H20S16818   7.565   6.767   4.372 -1.6887 -0.4277  1.2665
  152SAPE  H20T16819   7.551   6.786   4.194  1.8873  0.1300  1.1300
  152SAPE   C3316820   7.092   7.292   5.542  1.1524  0.1790  0.1101
  152SAPE   H3X16821   7.195   7.324   5.516  0.6055  2.5233  0.6761
  152SAPE   H3Y16822   7.023   7.378   5.531 -0.0822 -1.0199 -2.2259
  152SAPE   C3416823   7.039   7.182   5.445 -0.6829  0.2080  0.5676
  152SAPE   H4X16824   6.937   7.156   5.480 -0.3523 -2.7906 -0.3918
  152SAPE   H4Y16825   7.108   7.097   5.458 -0.6706 -0.1321 -1.3657
  152SAPE   C3516826   7.049   7.228   5.306 -0.9611  0.2800 -0.1992
  152SAPE   H5X16827   7.155   7.249   5.282 -0.7642 -0.5455 -0.0640
  152SAPE   H5Y16828   6.984   7.317   5.287  0.0901  1.3257  0.9216
  152SAPE   C3616829   7.020   7.118   5.202  0.4178 -0.4173 -0.2174
  152SAPE   H6X16830   6.927   7.072   5.242 -0.4632  0.0110 -1.7042
  152SAPE   H6Y16831   7.103   7.044   5.195 -0.4892 -1.2937 -2.8489
  152SAPE   C3716832   6.987   7.179   5.067  0.3752  0.3843 -0.1315
  152SAPE   H7X16833   7.056   7.261   5.038  1.7557 -0.8865 -0.6442
  152SAPE   H7Y16834   6.883   7.214   5.059 -0.2176 -0.9501  1.1361
  152SAPE   C3816835   7.007   7.063   4.964  0.1649 -0.0966  0.1558
  152SAPE   H8X16836   6.939   6.980   4.993 -1.6476  1.3833  0.3371
  152SAPE   H8Y16837   7.116   7.041   4.956  0.4191  1.6202 -2.5250
  152SAPE   C3916838   6.963   7.096   4.822  0.3653 -0.1822  0.2867
  152SAPE   H9X16839   6.854   7.112   4.831  0.6612  1.5279  1.2027
  152SAPE   H9Y16840   6.988   7.009   4.757  0.0345  0.9797 -1.4749
  152SAPE  C31016841   7.022   7.223   4.763  0.1915  0.2386 -0.4296
  152SAPE  H10X16842   7.023   7.301   4.841 -0.9023 -0.5635  0.4233
  152SAPE  H10Y16843   6.970   7.248   4.668 -1.2528 -0.0862  0.2551
  152SAPE  C31116844   7.170   7.193   4.735 -0.1273 -0.3250  0.1836
  152SAPE  H11X16845   7.189   7.108   4.667 -0.3557 -0.0891 -0.1801
  152SAPE  H11Y16846   7.225   7.171   4.829 -1.1788 -1.3959  0.5720
  152SAPE  C31216847   7.243   7.323   4.680 -1.1495  0.1720  0.5837
  152SAPE  H12X16848   7.348   7.297   4.705 -1.4197  0.0739  1.6632
  152SAPE  H12Y16849   7.218   7.413   4.740 -0.3686  1.4164 -0.8866
  152SAPE  C31316850   7.238   7.349   4.527  0.2214  0.4760 -0.2664
  152SAPE  H13X16851   7.134   7.377   4.502 -0.9832 -2.5986  0.8001
  152SAPE  H13Y16852   7.258   7.257   4.469  0.6418  0.1639  0.3618
  152SAPE  C31416853   7.334   7.457   4.480  0.4198 -0.4815 -0.1021
  152SAPE  H14X16854   7.437   7.433   4.514  0.7971 -0.4984 -1.2013
  152SAPE  H14Y16855   7.315   7.563   4.509  1.8638  0.4312 -2.1867
  152SAPE  C31516856   7.335   7.455   4.327  0.3229  0.5156 -0.0584
  152SAPE  H15X16857   7.235   7.474   4.282 -0.2330 -3.0418 -0.6462
  152SAPE  H15Y16858   7.366   7.356   4.288 -0.6885  0.1899 -0.0859
  152SAPE  C31616859   7.421   7.565   4.261 -0.5645  0.3021 -0.4332
  152SAPE  H16X16860   7.525   7.565   4.299 -0.6008 -0.0328 -0.3280
  152SAPE  H16Y16861   7.387   7.665   4.299 -0.5595 -0.0625  0.5681
  152SAPE  C31716862   7.425   7.567   4.111  0.0157 -0.1092 -0.1224
  152SAPE  H17X16863   7.330   7.606   4.068 -1.4409 -2.8180  0.4035
  152SAPE  H17Y16864   7.437   7.466   4.066  3.2248  0.6884 -1.2948
  152SAPE  C31816865   7.551   7.631   4.052 -1.0497 -0.0495  0.2598
  152SAPE  H18X16866   7.549   7.619   3.941  0.2533  0.0196  0.2097
  152SAPE  H18Y16867   7.633   7.576   4.101 -1.4250 -1.2110 -0.3685
  152SAPE  H18Z16868   7.547   7.739   4.075 -1.0662  0.2731 -1.1336
  153SAPE     N16869   6.354   5.937   6.823 -0.0751  0.1240  0.0902
  153SAPE   HN116870   6.446   5.913   6.780 -0.7685  1.8765 -2.5775
  153SAPE   HN216871   6.368   5.937   6.927  0.3374 -1.2225  0.0441
  153SAPE   HN316872   6.274   5.876   6.799 -0.2544  0.0602  0.8184
  153SAPE   C1216873   6.316   6.075   6.797 -0.3592  0.7589 -0.6169
  153SAPE  H12A16874   6.377   6.144   6.859 -1.8473  0.8990  0.7510
  153SAPE  H12B16875   6.211   6.091   6.827 -0.6342  1.1861 -1.7607
  153SAPE   C1116876   6.337   6.112   6.653 -0.2671 -0.2201  0.5077
  153SAPE  H11A16877   6.317   6.221   6.642  2.3579  0.2307 -0.5877
  153SAPE  H11B16878   6.260   6.069   6.586  0.6517  0.6751 -1.1845
  153SAPE     P16879   6.511   5.965   6.518  0.1777 -0.2164 -0.0571
  153SAPE   O1316880   6.657   5.975   6.496  0.6172 -0.2641 -0.4168
  153SAPE   O1416881   6.451   5.841   6.569  0.1266  0.0748 -0.3785
  153SAPE   O1216882   6.469   6.085   6.608 -0.7217 -0.1622 -0.1778
  153SAPE   O1116883   6.436   5.994   6.381  0.3274  0.0565  0.4281
  153SAPE    C116884   6.422   6.121   6.317  0.1576  0.9120  0.3880
  153SAPE    HA16885   6.379   6.199   6.384  2.4275  1.6521  1.0974
  153SAPE    HB16886   6.520   6.160   6.283  0.7369 -0.3554  0.5369
  153SAPE    C216887   6.348   6.097   6.180 -0.1605  0.2170 -0.1055
  153SAPE    HS16888   6.253   6.058   6.225 -0.9330  3.2111  1.1346
  153SAPE   O2116889   6.420   6.016   6.088 -0.3563  0.7334 -0.4829
  153SAPE   C2116890   6.390   5.888   6.081  0.4534 -0.5115 -0.0373
  153SAPE   O2216891   6.306   5.825   6.148 -0.0546 -0.8199 -0.1634
  153SAPE   C2216892   6.506   5.829   5.993  0.6206  0.0005  0.9033
  153SAPE   H2R16893   6.533   5.894   5.907  0.1980 -2.4919 -1.2346
  153SAPE   H2S16894   6.597   5.816   6.056  1.5085 -0.0412 -0.3601
  153SAPE    C316895   6.311   6.234   6.106  0.5343 -0.1645 -0.6001
  153SAPE    HX16896   6.405   6.287   6.082 -0.1114  1.2255 -0.1754
  153SAPE    HY16897   6.261   6.300   6.181  0.1314 -0.5903 -0.4889
  153SAPE   O3116898   6.224   6.210   5.993 -0.4695 -0.1968 -0.0769
  153SAPE   C3116899   6.272   6.233   5.873  0.9397 -0.1306 -0.5566
  153SAPE   O3216900   6.384   6.264   5.842 -0.4430 -0.2747  0.0246
  153SAPE   C3216901   6.158   6.217   5.779  0.5957  0.5831  0.5606
  153SAPE   H2X16902   6.081   6.146   5.815 -1.9165  3.0201  0.3383
  153SAPE   H2Y16903   6.212   6.168   5.695  0.2351 -0.6882  1.0505
  153SAPE   C2316904   6.476   5.688   5.939  0.8278 -0.1134 -0.2279
  153SAPE   H3R16905   6.380   5.702   5.886 -0.2333 -0.5158  1.5368
  153SAPE   H3S16906   6.464   5.625   6.029 -1.6839 -0.0153 -0.4389
  153SAPE   C2416907   6.579   5.644   5.841  0.0953  0.4211  0.5299
  153SAPE   H4R16908   6.550   5.689   5.743 -0.1705  0.8678  0.8061
  153SAPE   H4S16909   6.566   5.534   5.831  0.3992  0.5298 -1.4939
  153SAPE   C2516910   6.723   5.679   5.862  0.3007  0.4031 -0.0503
  153SAPE   H5R16911   6.755   5.683   5.967  1.7072 -0.3164 -0.4223
  153SAPE   C2616912   6.805   5.743   5.780 -0.0468 -0.7239  0.4744
  153SAPE   H6R16913   6.908   5.766   5.811  0.2109 -1.4447  0.1572
  153SAPE   C2716914   6.784   5.765   5.630  0.9641  0.1117 -0.7280
  153SAPE   H7R16915   6.798   5.875   5.624 -0.8536  0.7771  3.4601
  153SAPE   H7S16916   6.683   5.735   5.595  0.3912 -0.3990  1.2209
  153SAPE   C2816917   6.886   5.687   5.551  0.9187 -1.3521  0.5760
  153SAPE   H8R16918   6.921   5.589   5.586 -0.0417 -2.1861 -0.6812
  153SAPE   C2916919   6.950   5.734   5.441  0.0665 -0.1036  0.3739
  153SAPE   H9R16920   7.023   5.667   5.395 -0.4921 -0.0159 -0.6803
  153SAPE  C21016921   6.926   5.867   5.359 -0.1238 -0.0920 -0.1011
  153SAPE  H10R16922   7.003   5.945   5.374 -1.8154  1.1458  3.2127
  153SAPE  H10S16923   6.839   5.928   5.391 -0.6166 -0.3786 -0.8670
  153SAPE  C21116924   6.909   5.831   5.211 -0.3008  0.3406 -0.3956
  153SAPE  H11R16925   7.003   5.811   5.159 -1.2196 -2.0424 -1.2975
  153SAPE  C21216926   6.788   5.824   5.151  0.6034 -0.5998 -0.3525
  153SAPE  H12R16927   6.785   5.806   5.043  0.0423  0.6482 -0.5612
  153SAPE  C21316928   6.656   5.845   5.224  0.3139  0.5706 -0.8677
  153SAPE  H13R16929   6.626   5.952   5.222  1.7140  0.9821 -2.0306
  153SAPE  H13S16930   6.668   5.825   5.333  0.3101 -0.4696 -1.0466
  153SAPE  C21416931   6.546   5.750   5.163 -0.0088  0.5748  0.5203
  153SAPE  H14R16932   6.558   5.646   5.193  0.3838  1.0416  2.0475
  153SAPE  C21516933   6.456   5.795   5.076 -0.2160  0.0209  0.7762
  153SAPE  H15R16934   6.372   5.737   5.035 -1.1123  3.0889 -2.1410
  153SAPE  C21616935   6.442   5.939   5.027  0.2355  0.0519 -0.4993
  153SAPE  H16R16936   6.519   6.011   5.063 -0.3906  0.7430 -0.5297
  153SAPE  H16S16937   6.353   5.982   5.077  1.6379  0.7784  1.5527
  153SAPE  C21716938   6.434   5.947   4.876 -0.2719 -0.0501 -1.0088
  153SAPE  H17R16939   6.407   6.050   4.844  4.3719  1.7849  0.2119
  153SAPE  H17S16940   6.364   5.875   4.829  0.3125 -1.2043 -0.1596
  153SAPE  C21816941   6.572   5.917   4.807  0.3748  0.3651 -0.0321
  153SAPE  H18R16942   6.604   5.814   4.831  3.1880  1.2460  0.3271
  153SAPE  H18S16943   6.650   5.982   4.852 -1.4538  1.3425  1.8901
  153SAPE  C21916944   6.578   5.942   4.652 -0.1219 -0.3196 -0.3852
  153SAPE  H19R16945   6.566   6.049   4.627 -0.2309  0.1851  1.6250
  153SAPE  H19S16946   6.479   5.902   4.619 -0.7502 -1.6554  2.6777
  153SAPE  C22016947   6.704   5.877   4.585  0.6057  0.0579 -0.2713
  153SAPE  H20R16948   6.697   5.766   4.593 -1.0456  0.2283  1.0987
  153SAPE  H20S16949   6.797   5.902   4.641  1.9982 -0.2291 -2.3312
  153SAPE  H20T16950   6.717   5.923   4.485  1.5839  0.0352 -0.1680
  153SAPE   C3316951   6.071   6.336   5.744  0.2545 -0.3079 -0.2392
  153SAPE   H3X16952   6.151   6.406   5.711  1.6335 -1.2009  1.0581
  153SAPE   H3Y16953   6.004   6.375   5.824 -1.4616 -1.8371 -0.8801
  153SAPE   C3416954   5.988   6.317   5.614 -0.3491  0.7908  0.4507
  153SAPE   H4X16955   5.966   6.209   5.597  3.3941  0.1417 -1.1252
  153SAPE   H4Y16956   6.051   6.357   5.532  0.5333  1.2970  1.3568
  153SAPE   C3516957   5.854   6.388   5.628  0.9394  0.3401  0.0537
  153SAPE   H5X16958   5.851   6.486   5.680  0.6677 -0.8865  2.4937
  153SAPE   H5Y16959   5.792   6.322   5.693  0.9665 -0.2877 -0.5546
  153SAPE   C3616960   5.788   6.400   5.486 -0.1496  0.2265  0.0644
  153SAPE   H6X16961   5.864   6.448   5.420 -0.8488  0.1744 -0.8021
  153SAPE   H6Y16962   5.702   6.469   5.482 -0.1977  0.2066  0.7331
  153SAPE   C3716963   5.743   6.261   5.429 -0.6395  0.4106 -0.1458
  153SAPE   H7X16964   5.692   6.207   5.512  1.1922 -0.9024  0.1714
  153SAPE   H7Y16965   5.830   6.194   5.416 -1.3200 -0.4353 -0.4737
  153SAPE   C3816966   5.655   6.264   5.305  0.8749 -0.2489 -0.3557
  153SAPE   H8X16967   5.566   6.319   5.342  1.9437  1.4550 -0.2025
  153SAPE   H8Y16968   5.616   6.164   5.277 -0.3007  0.4748 -1.4248
  153SAPE   C3916969   5.702   6.327   5.170 -0.1124 -0.4480  0.0365
  153SAPE   H9X16970   5.803   6.283   5.157  0.0234 -0.1993  0.2355
  153SAPE   H9Y16971   5.709   6.437   5.187  2.8070 -0.5053 -0.2955
  153SAPE  C31016972   5.612   6.292   5.052  0.3110  0.3299  0.6766
  153SAPE  H10X16973   5.517   6.346   5.071  0.6090  1.2307 -0.3091
  153SAPE  H10Y16974   5.602   6.182   5.059 -1.2472  0.3747 -0.3415
  153SAPE  C31116975   5.663   6.317   4.908  0.0771  0.6250  0.7110
  153SAPE  H11X16976   5.768   6.282   4.902  1.0260  3.4293 -1.4425
  153SAPE  H11Y16977   5.669   6.427   4.892 -1.6031  0.6768  0.2152
  153SAPE  C31216978   5.580   6.262   4.797  0.0974 -0.1412 -0.3834
  153SAPE  H12X16979   5.620   6.307   4.703 -0.3019  0.5021 -0.2493
  153SAPE  H12Y16980   5.477   6.300   4.815  0.6570  0.3924  2.0047
  153SAPE  C31316981   5.566   6.108   4.797  0.5911 -0.1824  0.6227
  153SAPE  H13X16982   5.473   6.082   4.742  1.0728 -2.5233  0.7729
  153SAPE  H13Y16983   5.572   6.069   4.901  1.0466 -1.4980  0.1299
  153SAPE  C31416984   5.678   6.036   4.725  0.1725  0.0125  0.5060
  153SAPE  H14X16985   5.776   6.055   4.773  0.5584 -0.3895 -0.1000
  153SAPE  H14Y16986   5.669   6.056   4.616  0.9837 -0.6903  0.2966
  153SAPE  C31516987   5.676   5.884   4.739  0.1427  0.3028  0.3016
  153SAPE  H15X16988   5.729   5.858   4.834 -1.5930  2.2683  1.8975
  153SAPE  H15Y16989   5.736   5.839   4.657  0.1649  0.8075  0.0371
  153SAPE  C31616990   5.532   5.825   4.743  0.2277 -0.4368 -0.1071
  153SAPE  H16X16991   5.483   5.871   4.654  0.6474  1.0101  0.3929
  153SAPE  H16Y16992   5.476   5.870   4.827 -0.2443 -1.6682  0.2718
  153SAPE  C31716993   5.526   5.672   4.747  0.0853  0.1666  0.5425
  153SAPE  H17X16994   5.610   5.647   4.816  0.8411 -1.4923 -0.9007
  153SAPE  H17Y16995   5.557   5.630   4.649 -2.3978 -1.3693  0.3222
  153SAPE  C31816996   5.395   5.617   4.797  0.8575  0.5880  0.6513
  153SAPE  H18X16997   5.317   5.653   4.727  2.7801  2.2902 -0.7471
  153SAPE  H18Y16998   5.368   5.638   4.903 -2.2424  1.5077 -0.2159
  153SAPE  H18Z16999   5.388   5.507   4.782 -2.5850  0.9199 -1.0646
  154SAPE     N17000   4.719   0.916   6.730 -0.0075 -0.4516 -0.2946
  154SAPE   HN117001   4.799   0.854   6.709 -0.0930 -0.5815 -0.2424
  154SAPE   HN217002   4.719   0.929   6.833 -0.1977 -0.4615 -0.2917
  154SAPE   HN317003   4.629   0.869   6.707 -1.5508  1.9620  0.3417
  154SAPE   C1217004   4.735   1.044   6.648 -0.3714 -0.1375  0.2248
  154SAPE  H12A17005   4.818   1.099   6.696 -0.9060  3.0168 -2.1452
  154SAPE  H12B17006   4.636   1.095   6.661  0.1125  1.1838 -1.0210
  154SAPE   C1117007   4.761   1.010   6.502  0.2045 -0.1476  0.8414
  154SAPE  H11A17008   4.761   1.102   6.441  0.7513 -1.6042 -1.4743
  154SAPE  H11B17009   4.680   0.950   6.455 -0.8086  2.4149 -0.8789
  154SAPE     P17010   5.016   0.993   6.420  0.0985 -0.4837  0.8412
  154SAPE   O1317011   5.074   1.104   6.503 -0.2088 -0.4388  0.2580
  154SAPE   O1417012   5.099   0.876   6.385 -0.8191  0.1456  0.0921
  154SAPE   O1217013   4.881   0.940   6.481  0.7818 -0.3397 -0.4734
  154SAPE   O1117014   4.968   1.060   6.291  0.3669 -0.2317 -0.0733
  154SAPE    C117015   4.877   0.991   6.195  0.6939 -0.2284 -0.1092
  154SAPE    HA17016   4.801   0.925   6.242  1.5952 -1.1993  0.0197
  154SAPE    HB17017   4.824   1.074   6.143  0.7694 -1.1663 -1.7505
  154SAPE    C217018   4.955   0.908   6.083  0.3097  0.6690 -0.0886
  154SAPE    HS17019   5.016   0.838   6.145 -1.0685  0.8619  1.5501
  154SAPE   O2117020   5.026   1.010   6.011  0.4861 -0.4036 -0.2092
  154SAPE   C2117021   5.128   0.966   5.937  0.2232 -0.2846 -0.1489
  154SAPE   O2217022   5.166   0.851   5.932  0.2298 -0.1288 -0.1009
  154SAPE   C2217023   5.207   1.089   5.863 -0.0376  0.4573  0.3805
  154SAPE   H2R17024   5.142   1.179   5.867 -0.1535  0.3372  2.5074
  154SAPE   H2S17025   5.297   1.096   5.928  1.6821  0.1604 -1.8415
  154SAPE    C317026   4.856   0.822   5.993 -0.3811 -0.2182  0.3289
  154SAPE    HX17027   4.912   0.784   5.905 -0.2886  0.9744 -0.1543
  154SAPE    HY17028   4.787   0.895   5.944 -0.4936 -1.1742 -0.9869
  154SAPE   O3117029   4.769   0.735   6.064 -0.2887  0.5366  0.3928
  154SAPE   C3117030   4.804   0.603   6.056  1.2271  0.4295 -0.3725
  154SAPE   O3217031   4.902   0.563   6.005 -0.0637  0.2678 -0.0129
  154SAPE   C3217032   4.701   0.505   6.119  0.1110 -0.3166  0.6256
  154SAPE   H2X17033   4.618   0.569   6.156  1.2346  1.1597  0.7209
  154SAPE   H2Y17034   4.743   0.463   6.213 -1.2804  0.0953  1.4575
  154SAPE   C2317035   5.246   1.050   5.720 -0.1739  1.1105 -0.0019
  154SAPE   H3R17036   5.263   1.144   5.662  1.4777  0.0882 -1.2779
  154SAPE   H3S17037   5.163   0.999   5.667  0.2025 -0.0114  0.4710
  154SAPE   C2417038   5.379   0.966   5.715  0.4613 -0.2003  0.4186
  154SAPE   H4R17039   5.373   0.886   5.792  0.1683  0.2236  0.8468
  154SAPE   H4S17040   5.444   1.050   5.746  0.6706  2.1481 -5.2350
  154SAPE   C2517041   5.407   0.919   5.570 -0.9447  0.4731  0.2825
  154SAPE   H5R17042   5.415   0.810   5.558 -1.2127  0.1304  2.5913
  154SAPE   C2617043   5.427   0.989   5.458  0.2359  0.0471  0.4293
  154SAPE   H6R17044   5.451   0.929   5.369  0.3729 -0.4020  0.7604
  154SAPE   C2717045   5.425   1.142   5.437 -0.1792 -0.0315 -0.3198
  154SAPE   H7R17046   5.522   1.183   5.403  0.3007  0.3219  1.3800
  154SAPE   H7S17047   5.418   1.197   5.534  1.3282  1.3256 -0.9369
  154SAPE   C2817048   5.305   1.198   5.360  0.5663  0.2585  1.2862
  154SAPE   H8R17049   5.211   1.220   5.412 -2.1665 -1.0699 -2.6723
  154SAPE   C2917050   5.301   1.239   5.237  0.4843  0.3343  0.5309
  154SAPE   H9R17051   5.204   1.273   5.198  0.7915  0.2945 -0.2674
  154SAPE  C21017052   5.419   1.245   5.141 -0.0602 -0.4157 -0.2404
  154SAPE  H10R17053   5.412   1.159   5.071  1.5581  0.8646 -2.0968
  154SAPE  H10S17054   5.516   1.240   5.195 -0.0214  0.4176 -0.2234
  154SAPE  C21117055   5.435   1.376   5.066 -0.0120 -0.9635  0.3335
  154SAPE  H11R17056   5.497   1.454   5.112  1.0074 -0.0142 -2.4287
  154SAPE  C21217057   5.383   1.406   4.945 -0.0383  0.1827 -0.0455
  154SAPE  H12R17058   5.392   1.506   4.900  0.7640 -0.0709 -0.4756
  154SAPE  C21317059   5.306   1.308   4.868  0.0401  1.1002 -0.4785
  154SAPE  H13R17060   5.303   1.206   4.911 -0.2397  1.4264  0.2923
  154SAPE  H13S17061   5.366   1.278   4.779 -1.0677 -1.2516 -0.4942
  154SAPE  C21417062   5.165   1.356   4.829  0.7109  0.2792  0.4550
  154SAPE  H14R17063   5.079   1.324   4.889 -0.5199  0.8831 -0.9382
  154SAPE  C21517064   5.144   1.406   4.713 -0.1580  0.0438  0.1316
  154SAPE  H15R17065   5.041   1.436   4.687 -1.2921 -1.1450  2.8354
  154SAPE  C21617066   5.245   1.443   4.605  1.1728 -0.3524  0.1138
  154SAPE  H16R17067   5.349   1.410   4.628  0.9072 -0.2142  1.5883
  154SAPE  H16S17068   5.259   1.552   4.594  0.0287  0.0274  2.0048
  154SAPE  C21717069   5.201   1.377   4.475  0.0065  0.0948  0.1523
  154SAPE  H17R17070   5.104   1.418   4.439  1.0876  1.6159 -1.1546
  154SAPE  H17S17071   5.200   1.268   4.497 -0.4065  0.1418  0.3790
  154SAPE  C21817072   5.302   1.399   4.361 -0.2269 -0.4075 -0.0523
  154SAPE  H18R17073   5.400   1.425   4.407 -0.0865  0.5111 -0.8187
  154SAPE  H18S17074   5.267   1.488   4.304 -1.6721  0.5875  2.2372
  154SAPE  C21917075   5.330   1.279   4.266  0.0027 -0.8826 -0.0158
  154SAPE  H19R17076   5.238   1.252   4.211 -0.6655 -1.3219  1.2790
  154SAPE  H19S17077   5.369   1.192   4.324  0.1509 -1.2018 -0.5878
  154SAPE  C22017078   5.439   1.323   4.163  0.3442 -0.0731 -0.3700
  154SAPE  H20R17079   5.534   1.317   4.221 -0.2319 -0.7172  0.5391
  154SAPE  H20S17080   5.416   1.425   4.126 -1.2638 -0.1982  0.2026
  154SAPE  H20T17081   5.453   1.258   4.074  2.5163 -0.9065  0.4984
  154SAPE   C3317082   4.648   0.397   6.025  0.9893 -0.3492 -0.1002
  154SAPE   H3X17083   4.587   0.321   6.080  0.4865 -1.5170 -2.1707
  154SAPE   H3Y17084   4.734   0.351   5.972  1.2036 -0.5058  0.3811
  154SAPE   C3417085   4.538   0.456   5.930 -0.9750  1.0843 -0.2261
  154SAPE   H4X17086   4.583   0.537   5.868  0.5178 -0.7494 -1.6451
  154SAPE   H4Y17087   4.457   0.505   5.988 -0.4457  4.6516 -2.1726
  154SAPE   C3517088   4.468   0.353   5.836 -0.3517 -0.3112 -0.4264
  154SAPE   H5X17089   4.423   0.277   5.904 -2.2238  2.6765  1.9162
  154SAPE   H5Y17090   4.549   0.308   5.774  1.9211 -1.9890  3.3657
  154SAPE   C3617091   4.369   0.418   5.736 -1.1095  0.3412  0.8518
  154SAPE   H6X17092   4.302   0.493   5.782 -0.6695  1.3662 -0.1318
  154SAPE   H6Y17093   4.314   0.330   5.696  0.9883 -0.7424  0.1587
  154SAPE   C3717094   4.450   0.477   5.613 -0.1650  0.2406 -0.6080
  154SAPE   H7X17095   4.500   0.387   5.571  1.3886  0.6160  0.3701
  154SAPE   H7Y17096   4.536   0.543   5.638  1.5579 -2.1109  0.0447
  154SAPE   C3817097   4.351   0.538   5.510  0.0297 -0.0549  0.4323
  154SAPE   H8X17098   4.308   0.630   5.555 -0.0487  1.4547 -2.4756
  154SAPE   H8Y17099   4.274   0.466   5.474  0.0074  1.0429 -1.8924
  154SAPE   C3917100   4.434   0.586   5.388 -0.5319 -0.2588  0.2315
  154SAPE   H9X17101   4.480   0.505   5.329  1.0702  1.0248 -0.3493
  154SAPE   H9Y17102   4.510   0.655   5.431  0.1163 -1.2780  0.7367
  154SAPE  C31017103   4.340   0.675   5.295 -0.2914 -0.7724 -0.0827
  154SAPE  H10X17104   4.276   0.742   5.356  0.2331  0.5694 -0.9701
  154SAPE  H10Y17105   4.269   0.604   5.249  0.7799 -1.2802 -0.9982
  154SAPE  C31117106   4.425   0.739   5.184  0.3892 -0.0173 -0.0733
  154SAPE  H11X17107   4.499   0.671   5.138  0.3465  0.7846 -1.3864
  154SAPE  H11Y17108   4.477   0.826   5.231 -0.8702  0.7497 -0.0435
  154SAPE  C31217109   4.349   0.797   5.069 -0.0209 -0.0141 -0.4975
  154SAPE  H12X17110   4.305   0.890   5.112  1.5609  1.7277 -2.4209
  154SAPE  H12Y17111   4.276   0.724   5.029  1.0605 -0.6714 -1.3332
  154SAPE  C31317112   4.443   0.848   4.964  0.5276  0.2100  0.8059
  154SAPE  H13X17113   4.507   0.768   4.921 -0.0673 -0.5469  1.3003
  154SAPE  H13Y17114   4.516   0.918   5.008 -0.4224 -0.2191  3.2384
  154SAPE  C31417115   4.373   0.916   4.845 -0.4224  0.0629  0.0656
  154SAPE  H14X17116   4.266   0.942   4.850 -0.4548  0.2283 -1.0616
  154SAPE  H14Y17117   4.395   0.857   4.753  0.3202  0.2128  0.1399
  154SAPE  C31517118   4.445   1.047   4.810  0.1263  0.6527  0.7501
  154SAPE  H15X17119   4.531   1.026   4.743 -1.3789  0.9334 -1.3565
  154SAPE  H15Y17120   4.469   1.095   4.908  0.9297  1.5341  0.1444
  154SAPE  C31617121   4.361   1.144   4.741 -0.5347  0.3911 -0.8284
  154SAPE  H16X17122   4.396   1.250   4.747 -0.5499  0.4747 -1.9857
  154SAPE  H16Y17123   4.262   1.148   4.790  0.2094 -2.0029  1.0697
  154SAPE  C31717124   4.331   1.116   4.593  0.6834  0.3602  0.5321
  154SAPE  H17X17125   4.244   1.174   4.554  1.4828  0.8623 -0.5654
  154SAPE  H17Y17126   4.304   1.010   4.573 -2.5194  1.1750 -0.1203
  154SAPE  C31817127   4.451   1.162   4.504 -0.3504 -0.3897 -0.4052
  154SAPE  H18X17128   4.535   1.093   4.522 -0.3764 -0.0920  0.9966
  154SAPE  H18Y17129   4.481   1.264   4.539  2.0551 -0.7865 -1.1241
  154SAPE  H18Z17130   4.416   1.173   4.399  1.0005  3.1315 -0.6295
  155SAPE     N17131   6.313   4.489   6.751  0.1630 -0.1282  0.3151
  155SAPE   HN117132   6.318   4.576   6.694  1.7034 -1.4071 -1.6246
  155SAPE   HN217133   6.410   4.460   6.776  0.6009 -0.2651 -1.4545
  155SAPE   HN317134   6.268   4.409   6.703 -1.0218  0.0782  1.0370
  155SAPE   C1217135   6.240   4.527   6.876  0.7810  0.0658  0.6296
  155SAPE  H12A17136   6.296   4.599   6.939 -3.8699  3.0122  1.8716
  155SAPE  H12B17137   6.199   4.439   6.930 -2.5934  0.0434 -1.7058
  155SAPE   C1117138   6.112   4.599   6.831  0.0163  0.3998 -0.1687
  155SAPE  H11A17139   6.140   4.687   6.769 -1.9827  0.9198 -0.4032
  155SAPE  H11B17140   6.065   4.631   6.926 -0.5063 -3.0808  0.8589
  155SAPE     P17141   5.869   4.584   6.728  0.0905  0.2463  0.2415
  155SAPE   O1317142   5.768   4.499   6.798 -0.0531  0.3079 -0.7514
  155SAPE   O1417143   5.871   4.727   6.775 -0.0606  0.2713 -0.1669
  155SAPE   O1217144   6.016   4.526   6.752 -0.3515 -0.3519 -0.0200
  155SAPE   O1117145   5.848   4.584   6.571  0.1263 -0.2539 -0.2372
  155SAPE    C117146   5.960   4.545   6.488 -0.4970 -1.2041  0.2152
  155SAPE    HA17147   6.059   4.582   6.525 -1.9257  3.0351  0.3592
  155SAPE    HB17148   5.959   4.434   6.490  1.4462 -1.2876 -0.9382
  155SAPE    C217149   5.945   4.587   6.337 -0.5126  0.7016  0.1403
  155SAPE    HS17150   6.027   4.541   6.278 -2.3321 -0.4909 -1.5821
  155SAPE   O2117151   5.936   4.729   6.332 -0.2220 -0.4180  0.3434
  155SAPE   C2117152   6.044   4.804   6.356  0.2634  0.2719  0.7165
  155SAPE   O2217153   6.158   4.763   6.368 -0.4018  0.4020 -0.5764
  155SAPE   C2217154   6.002   4.945   6.381  0.6507  0.1236 -0.0060
  155SAPE   H2R17155   5.923   4.975   6.310  0.6276  1.1035  0.4216
  155SAPE   H2S17156   5.956   4.947   6.482 -1.6187  0.4725 -0.9935
  155SAPE    C317157   5.817   4.528   6.282  0.7675  0.1583  0.9218
  155SAPE    HX17158   5.737   4.563   6.351 -0.1485  1.4152 -0.6814
  155SAPE    HY17159   5.827   4.417   6.281  0.7993  0.1199 -1.9763
  155SAPE   O3117160   5.793   4.580   6.152 -0.3529  0.0087  0.4256
  155SAPE   C3117161   5.691   4.521   6.089  0.6190 -1.2484 -0.6221
  155SAPE   O3217162   5.640   4.423   6.138 -0.1779  0.4054 -0.2160
  155SAPE   C3217163   5.675   4.577   5.948  0.0611 -0.4690  0.3644
  155SAPE   H2X17164   5.767   4.552   5.891  0.3627  0.3420  0.4771
  155SAPE   H2Y17165   5.669   4.687   5.965  1.8667 -0.2452 -0.2105
  155SAPE   C2317166   6.119   5.045   6.385  1.2845 -0.2584 -0.6191
  155SAPE   H3R17167   6.196   5.019   6.461  1.7903  2.6528 -0.0358
  155SAPE   H3S17168   6.075   5.143   6.413  0.6318 -0.4401 -0.9702
  155SAPE   C2417169   6.189   5.060   6.245  0.4338  0.5479  0.2495
  155SAPE   H4R17170   6.245   4.967   6.225  3.6942  2.0832  1.4541
  155SAPE   H4S17171   6.259   5.145   6.261  1.4101 -0.3161  0.6288
  155SAPE   C2517172   6.094   5.096   6.132 -0.2054  0.1911  0.5376
  155SAPE   H5R17173   6.046   5.195   6.136  1.1440  1.2681 -4.2868
  155SAPE   C2617174   6.052   5.026   6.024  0.4226  0.8428 -0.6184
  155SAPE   H6R17175   5.995   5.083   5.949 -1.5318 -0.7642 -0.4263
  155SAPE   C2717176   6.098   4.892   5.981 -0.6058  0.1758  0.0698
  155SAPE   H7R17177   6.111   4.819   6.064  2.4286 -0.2847 -0.6862
  155SAPE   H7S17178   6.191   4.901   5.921 -0.5306 -0.6495  0.0538
  155SAPE   C2817179   6.000   4.810   5.900 -0.2539  0.4029  0.0284
  155SAPE   H8R17180   5.924   4.756   5.958 -2.8114  4.1151  0.5192
  155SAPE   C2917181   5.975   4.815   5.772  0.1867  0.4524  0.4199
  155SAPE   H9R17182   5.893   4.756   5.729 -1.0825  2.8307 -0.5777
  155SAPE  C21017183   6.048   4.900   5.674  0.1031  0.0518  0.1824
  155SAPE  H10R17184   6.118   4.833   5.619 -1.8440 -1.1323 -0.9961
  155SAPE  H10S17185   6.105   4.980   5.726 -0.0682  1.7637 -2.1139
  155SAPE  C21117186   5.950   4.972   5.575  0.3315 -0.1858 -0.2027
  155SAPE  H11R17187   5.846   4.978   5.609  0.1830  2.6120 -0.8832
  155SAPE  C21217188   5.967   5.004   5.447  0.1967  0.3477  0.3082
  155SAPE  H12R17189   5.883   5.046   5.389  0.7510  0.2068 -0.6258
  155SAPE  C21317190   6.102   5.006   5.374 -0.0655  0.2757 -0.1695
  155SAPE  H13R17191   6.192   5.018   5.439 -0.1364  0.0576 -0.0299
  155SAPE  H13S17192   6.100   5.086   5.297 -0.7761  0.2505 -0.1835
  155SAPE  C21417193   6.121   4.868   5.314  0.2715  0.9584  0.8090
  155SAPE  H14R17194   6.126   4.784   5.384  1.7131 -1.2343 -1.7345
  155SAPE  C21517195   6.151   4.850   5.183  0.0018  0.2121 -0.5754
  155SAPE  H15R17196   6.156   4.747   5.145  0.2054 -0.8483  2.1454
  155SAPE  C21617197   6.166   4.951   5.076  0.4064  0.5162  0.0521
  155SAPE  H16R17198   6.239   5.028   5.109  0.3617  0.2798  0.7293
  155SAPE  H16S17199   6.064   4.994   5.070  0.0012 -0.2416  1.1816
  155SAPE  C21717200   6.206   4.882   4.941 -0.5039  0.0765  0.5969
  155SAPE  H17R17201   6.128   4.813   4.902 -0.4791  0.1818  0.3605
  155SAPE  H17S17202   6.303   4.832   4.956 -0.3213  0.3006  0.1897
  155SAPE  C21817203   6.253   4.978   4.832  0.2598 -0.7017  0.5616
  155SAPE  H18R17204   6.315   4.919   4.760 -0.4666 -0.6490 -0.1174
  155SAPE  H18S17205   6.336   5.037   4.877  0.6785 -2.5248  2.3622
  155SAPE  C21917206   6.143   5.070   4.785  0.8145 -0.0033  0.6169
  155SAPE  H19R17207   6.103   5.127   4.872  2.8668  0.5425  1.2668
  155SAPE  H19S17208   6.061   5.002   4.755  0.2377  0.4833  1.0708
  155SAPE  C22017209   6.188   5.155   4.662 -0.9494 -0.2744  0.2963
  155SAPE  H20R17210   6.289   5.196   4.685 -0.3131 -2.6446  2.2184
  155SAPE  H20S17211   6.120   5.238   4.633 -1.1828 -0.2523  0.8926
  155SAPE  H20T17212   6.198   5.086   4.576  1.4522  0.0589  0.2291
  155SAPE   C3317213   5.549   4.538   5.885  0.4406 -0.2964  0.1576
  155SAPE   H3X17214   5.471   4.544   5.964  0.7281  0.5387  0.3825
  155SAPE   H3Y17215   5.553   4.435   5.842  0.9532 -0.6596  1.0419
  155SAPE   C3417216   5.516   4.634   5.770  0.1629 -0.2412  0.4904
  155SAPE   H4X17217   5.510   4.739   5.807 -3.2034  0.5067 -1.7539
  155SAPE   H4Y17218   5.416   4.610   5.727 -1.2610  1.2271  2.7090
  155SAPE   C3517219   5.619   4.621   5.659 -0.7226  0.2757  0.5555
  155SAPE   H5X17220   5.612   4.516   5.621 -2.8931 -0.0778  1.7284
  155SAPE   H5Y17221   5.718   4.645   5.702  0.7617  0.2194 -2.5345
  155SAPE   C3617222   5.595   4.718   5.537 -0.2484  0.0085 -0.6170
  155SAPE   H6X17223   5.639   4.817   5.561  0.2927 -0.0739 -1.2663
  155SAPE   H6Y17224   5.487   4.736   5.520 -0.0210  3.0753  0.6073
  155SAPE   C3717225   5.659   4.658   5.412  1.0527 -0.6254  0.1412
  155SAPE   H7X17226   5.613   4.560   5.386 -0.5305 -0.1450  1.0211
  155SAPE   H7Y17227   5.768   4.648   5.429  1.4610  0.9556 -1.2337
  155SAPE   C3817228   5.654   4.768   5.298  0.3792  0.3828  0.6120
  155SAPE   H8X17229   5.706   4.860   5.335 -0.2003  0.7368  0.5538
  155SAPE   H8Y17230   5.550   4.788   5.265  0.3024 -2.8345 -1.4660
  155SAPE   C3917231   5.725   4.717   5.175 -0.2252  0.4452 -0.0010
  155SAPE   H9X17232   5.682   4.624   5.131 -0.9314  1.1276 -0.7918
  155SAPE   H9Y17233   5.832   4.703   5.202  0.2309  0.2331 -1.7908
  155SAPE  C31017234   5.719   4.809   5.053 -0.1973  0.1039 -0.7475
  155SAPE  H10X17235   5.759   4.908   5.085  2.6312 -1.4294  0.8460
  155SAPE  H10Y17236   5.612   4.817   5.022 -0.9770 -3.8871  0.2808
  155SAPE  C31117237   5.802   4.756   4.940 -0.2636 -0.2822 -0.5610
  155SAPE  H11X17238   5.742   4.671   4.901 -1.4980 -0.3790  1.4234
  155SAPE  H11Y17239   5.900   4.721   4.978  0.1269  0.1590 -1.1501
  155SAPE  C31217240   5.835   4.866   4.832  0.9106  0.6707 -0.9430
  155SAPE  H12X17241   5.920   4.826   4.773  1.5269  0.7846 -0.1534
  155SAPE  H12Y17242   5.875   4.961   4.872  0.2815  0.1467  1.0467
  155SAPE  C31317243   5.722   4.885   4.739 -0.0382  0.5485 -0.0733
  155SAPE  H13X17244   5.630   4.886   4.801  0.0581 -2.4040  0.2575
  155SAPE  H13Y17245   5.723   4.793   4.677  0.3264  0.2054  0.4330
  155SAPE  C31417246   5.723   5.019   4.663 -0.1990  0.1991 -0.9875
  155SAPE  H14X17247   5.825   5.060   4.646  0.5059 -0.1039  2.0489
  155SAPE  H14Y17248   5.681   5.083   4.743  2.1892 -0.2516  0.7156
  155SAPE  C31517249   5.632   5.024   4.552 -0.2635  0.8047  0.5374
  155SAPE  H15X17250   5.541   4.972   4.588 -1.0577  3.0360  1.9072
  155SAPE  H15Y17251   5.676   4.956   4.475 -1.0039  2.0598 -1.0616
  155SAPE  C31617252   5.612   5.163   4.493 -0.0119 -0.3343 -0.4600
  155SAPE  H16X17253   5.576   5.148   4.389  1.0166 -1.7164 -0.6594
  155SAPE  H16Y17254   5.712   5.207   4.474  0.3166 -1.4519 -1.5069
  155SAPE  C31717255   5.520   5.256   4.573  0.3566  0.3078  0.0999
  155SAPE  H17X17256   5.546   5.252   4.681  3.8053 -3.8054 -0.6113
  155SAPE  H17Y17257   5.422   5.204   4.564  1.9604 -2.5807 -2.9000
  155SAPE  C31817258   5.507   5.391   4.517 -0.6263 -0.6147  0.1176
  155SAPE  H18X17259   5.471   5.384   4.411  1.3624 -0.6335 -0.5919
  155SAPE  H18Y17260   5.607   5.439   4.519 -1.8529  2.2118 -1.2791
  155SAPE  H18Z17261   5.450   5.454   4.588 -1.7383 -1.9390  0.4472
  156SAPE     N17262   0.350   6.361   6.202 -0.1812 -0.4381  0.8275
  156SAPE   HN117263   0.359   6.311   6.293  2.3987 -2.1788 -0.2699
  156SAPE   HN217264   0.284   6.310   6.140 -0.4892 -0.8829  1.5063
  156SAPE   HN317265   0.444   6.351   6.158 -0.7625  3.0337 -1.6280
  156SAPE   C1217266   0.291   6.499   6.216 -0.6440  0.3448  0.1896
  156SAPE  H12A17267   0.262   6.549   6.121 -0.3855  1.3266  0.6064
  156SAPE  H12B17268   0.361   6.567   6.270  1.2454 -0.7601 -0.7327
  156SAPE   C1117269   0.155   6.498   6.294  0.4091  0.0227 -0.5596
  156SAPE  H11A17270   0.120   6.604   6.296  1.8233  0.5303 -1.3715
  156SAPE  H11B17271   0.185   6.467   6.397  4.9611 -0.5885 -1.8223
  156SAPE     P17272  -0.094   6.415   6.274  0.0842  0.0921  0.0043
  156SAPE   O1317273  -0.110   6.348   6.407 -0.1882 -0.3271 -0.6096
  156SAPE   O1417274  -0.143   6.550   6.266 -0.2883 -0.0193  0.6299
  156SAPE   O1217275   0.059   6.406   6.237 -0.5865  0.4169  0.5862
  156SAPE   O1117276  -0.167   6.328   6.162 -0.5070 -0.4223 -0.1354
  156SAPE    C117277  -0.135   6.190   6.128  0.9427  0.2123 -0.3565
  156SAPE    HA17278  -0.125   6.124   6.217 -1.2155 -1.5003 -1.2964
  156SAPE    HB17279  -0.216   6.148   6.066 -0.2907 -0.6272  1.7181
  156SAPE    C217280  -0.005   6.177   6.049 -0.0758  0.6886 -0.2701
  156SAPE    HS17281   0.080   6.149   6.115 -1.2573  0.0774  1.0422
  156SAPE   O2117282   0.014   6.291   5.964  0.3729  0.5235 -0.4151
  156SAPE   C2117283   0.140   6.321   5.940  0.4485 -0.2412 -0.0729
  156SAPE   O2217284   0.235   6.263   5.987  0.2704 -0.4230  0.1770
  156SAPE   C2217285   0.152   6.452   5.867  0.1004 -0.5570  0.6202
  156SAPE   H2R17286   0.077   6.451   5.785  0.9238 -1.0355 -0.1462
  156SAPE   H2S17287   0.108   6.531   5.930  0.4645 -0.3697  0.6416
  156SAPE    C317288  -0.015   6.039   5.971 -0.1783  0.5888 -0.7527
  156SAPE    HX17289  -0.043   5.956   6.039  0.2951 -0.4001 -1.7293
  156SAPE    HY17290   0.085   6.014   5.928 -0.8391  0.4457 -2.2363
  156SAPE   O3117291  -0.122   6.048   5.875  0.4670 -0.4033 -0.2079
  156SAPE   C3117292  -0.076   6.106   5.764  0.9605 -0.9766 -0.1701
  156SAPE   O3217293   0.038   6.124   5.733 -0.0077 -0.1835  0.0311
  156SAPE   C3217294  -0.195   6.163   5.684  0.0744 -0.6563  0.2733
  156SAPE   H2X17295  -0.219   6.261   5.731 -0.8992 -1.3603  1.2987
  156SAPE   H2Y17296  -0.273   6.084   5.695 -0.7337  0.3107  2.0379
  156SAPE   C2317297   0.290   6.487   5.812 -0.3328  0.2323  0.3845
  156SAPE   H3R17298   0.355   6.494   5.902 -0.7251 -2.5778  0.9955
  156SAPE   H3S17299   0.282   6.587   5.765  2.2051  0.1296 -0.4611
  156SAPE   C2417300   0.332   6.389   5.703 -0.1742 -0.2491 -0.3931
  156SAPE   H4R17301   0.347   6.286   5.744  1.5313  0.7270  1.6478
  156SAPE   H4S17302   0.436   6.415   5.674  0.2722 -0.4330  0.9532
  156SAPE   C2517303   0.233   6.391   5.588  0.3944 -0.8849  0.4776
  156SAPE   H5R17304   0.149   6.324   5.609 -1.2570  0.9156 -0.0584
  156SAPE   C2617305   0.241   6.459   5.471 -1.0742 -0.8018 -0.0547
  156SAPE   H6R17306   0.173   6.439   5.387 -1.1674  0.0958 -0.1998
  156SAPE   C2717307   0.349   6.566   5.425  0.1788  0.1911 -0.3275
  156SAPE   H7R17308   0.328   6.578   5.316 -0.7399 -1.8059 -0.3987
  156SAPE   H7S17309   0.441   6.504   5.428 -1.7856 -2.8593  1.7601
  156SAPE   C2817310   0.355   6.689   5.504  0.3944 -0.0437  0.5718
  156SAPE   H8R17311   0.281   6.705   5.585  0.5945 -2.7000  1.3685
  156SAPE   C2917312   0.447   6.785   5.482  0.0971  0.4610  0.7338
  156SAPE   H9R17313   0.448   6.878   5.541 -0.2554  0.5297  0.6359
  156SAPE  C21017314   0.557   6.788   5.377 -0.2372 -0.5916 -0.2580
  156SAPE  H10R17315   0.584   6.686   5.342 -0.5606 -0.6117 -0.4552
  156SAPE  H10S17316   0.649   6.825   5.427 -0.5016 -0.6368  0.2735
  156SAPE  C21117317   0.525   6.878   5.254  0.0361 -0.3093  0.2528
  156SAPE  H11R17318   0.442   6.949   5.258  0.0591 -0.1020 -1.7311
  156SAPE  C21217319   0.579   6.861   5.130  0.0520  0.0764 -0.0082
  156SAPE  H12R17320   0.556   6.939   5.055 -0.0010  0.0191 -0.0515
  156SAPE  C21317321   0.692   6.759   5.103 -0.2549 -0.3231 -0.3273
  156SAPE  H13R17322   0.733   6.720   5.199  0.3414 -0.5412 -0.6646
  156SAPE  H13S17323   0.776   6.806   5.047  0.0884 -0.8836 -0.2965
  156SAPE  C21417324   0.635   6.640   5.021 -0.5676 -0.7121  0.1718
  156SAPE  H14R17325   0.617   6.549   5.080 -0.2739 -0.9539 -0.1117
  156SAPE  C21517326   0.640   6.614   4.890 -0.1177  0.5919 -0.2327
  156SAPE  H15R17327   0.599   6.517   4.859  2.1417 -0.8759  1.1243
  156SAPE  C21617328   0.678   6.699   4.779 -0.5623  0.0612  0.3698
  156SAPE  H16R17329   0.664   6.809   4.789  0.2323  0.3451 -1.2155
  156SAPE  H16S17330   0.616   6.675   4.690  0.2820 -1.4976  0.1813
  156SAPE  C21717331   0.826   6.692   4.720 -0.4603 -0.9286 -0.2841
  156SAPE  H17R17332   0.892   6.640   4.793  1.2412  0.5749 -0.6986
  156SAPE  H17S17333   0.869   6.793   4.708 -0.6455 -0.7662  0.3608
  156SAPE  C21817334   0.853   6.598   4.598  0.0613  0.3408 -0.0386
  156SAPE  H18R17335   0.777   6.620   4.521  0.8642  0.1559 -0.9081
  156SAPE  H18S17336   0.869   6.493   4.631 -0.2912 -0.9446 -3.5551
  156SAPE  C21917337   0.988   6.632   4.530  0.4510  0.3998 -0.0532
  156SAPE  H19R17338   1.072   6.598   4.594  0.0523 -2.2189 -0.8252
  156SAPE  H19S17339   0.987   6.742   4.511 -0.1681  1.1254  3.4908
  156SAPE  C22017340   1.005   6.553   4.395 -0.0160  0.2159  0.5618
  156SAPE  H20R17341   1.096   6.567   4.334 -1.2563 -0.0770 -1.4520
  156SAPE  H20S17342   0.920   6.579   4.328  1.1335  0.4441 -0.8617
  156SAPE  H20T17343   1.011   6.443   4.409 -0.2565  0.2708  1.1756
  156SAPE   C3317344  -0.153   6.182   5.537 -0.5470  0.1498 -0.1960
  156SAPE   H3X17345  -0.121   6.084   5.495 -2.5500 -0.8389  0.4322
  156SAPE   H3Y17346  -0.058   6.240   5.540 -0.6339  0.3600 -1.1145
  156SAPE   C3417347  -0.252   6.243   5.438  0.1574  0.2948  0.3615
  156SAPE   H4X17348  -0.283   6.345   5.470 -2.6294 -0.7669  1.4156
  156SAPE   H4Y17349  -0.345   6.183   5.449  1.4661 -1.7135  1.0456
  156SAPE   C3517350  -0.212   6.240   5.291  0.5476  0.5525 -0.3742
  156SAPE   H5X17351  -0.302   6.266   5.231  1.0912 -1.4306 -2.2038
  156SAPE   H5Y17352  -0.191   6.131   5.280 -2.1764  0.0045 -0.8691
  156SAPE   C3617353  -0.097   6.332   5.245 -0.5505 -0.5642  0.0732
  156SAPE   H6X17354  -0.030   6.347   5.332 -1.8374 -1.1636  1.2144
  156SAPE   H6Y17355  -0.144   6.429   5.220 -1.8215 -0.0129  3.8502
  156SAPE   C3717356  -0.010   6.275   5.132  0.1589  0.1956  0.2353
  156SAPE   H7X17357   0.027   6.171   5.150  0.2197  0.5117  2.1530
  156SAPE   H7Y17358   0.071   6.348   5.112  0.1760  0.0480 -0.2464
  156SAPE   C3817359  -0.090   6.265   5.005  0.2582 -0.1775  0.1890
  156SAPE   H8X17360  -0.150   6.358   4.995 -0.7725 -0.6242  1.8654
  156SAPE   H8Y17361  -0.154   6.176   5.020  0.6206 -0.3520  0.7177
  156SAPE   C3917362  -0.002   6.251   4.873 -0.3800 -0.6171  0.1870
  156SAPE   H9X17363   0.060   6.160   4.857  0.9583  0.2085  0.5333
  156SAPE   H9Y17364   0.077   6.328   4.866  0.7241 -1.6186  1.0986
  156SAPE  C31017365  -0.098   6.273   4.755  0.5095  0.8317 -0.1128
  156SAPE  H10X17366  -0.148   6.373   4.756 -0.0231  0.6194  2.7638
  156SAPE  H10Y17367  -0.173   6.191   4.748  1.9726 -0.4906 -0.9387
  156SAPE  C31117368  -0.010   6.247   4.619  0.6423  0.5348 -1.0299
  156SAPE  H11X17369   0.047   6.152   4.624 -1.5566 -0.8081  0.8897
  156SAPE  H11Y17370   0.069   6.325   4.620  1.8628 -0.6025  1.2024
  156SAPE  C31217371  -0.083   6.271   4.496  0.1028  0.5253  0.2221
  156SAPE  H12X17372  -0.092   6.381   4.484  0.4307  0.9491  3.2011
  156SAPE  H12Y17373  -0.181   6.221   4.501  0.1683  0.5270  2.9008
  156SAPE  C31317374  -0.016   6.216   4.369 -0.6891  0.3323  0.4880
  156SAPE  H13X17375  -0.066   6.252   4.276  0.6699 -0.3653 -0.5573
  156SAPE  H13Y17376  -0.008   6.105   4.375  0.2585  0.4661  2.9231
  156SAPE  C31417377   0.136   6.250   4.356  0.2011 -0.0822  0.1766
  156SAPE  H14X17378   0.190   6.209   4.444  1.7646 -1.4799 -1.3737
  156SAPE  H14Y17379   0.152   6.359   4.365  0.9830 -0.2073  0.3847
  156SAPE  C31517380   0.198   6.192   4.226  0.5469  0.5397  0.6656
  156SAPE  H15X17381   0.123   6.220   4.149 -0.3292  1.5318  1.8536
  156SAPE  H15Y17382   0.201   6.080   4.228  0.3480  0.5189  0.0894
  156SAPE  C31617383   0.332   6.255   4.177  0.2554 -0.4731 -0.0340
  156SAPE  H16X17384   0.317   6.364   4.160 -0.2454 -0.8003 -1.8132
  156SAPE  H16Y17385   0.370   6.218   4.080  1.9345  0.8763  0.0600
  156SAPE  C31717386   0.447   6.252   4.284  0.1405  0.0065  0.0885
  156SAPE  H17X17387   0.484   6.148   4.302 -1.2174 -0.3371  1.1020
  156SAPE  H17Y17388   0.416   6.296   4.381  2.0559  1.1352  0.2515
  156SAPE  C31817389   0.552   6.348   4.241 -0.6075  0.4355  0.3040
  156SAPE  H18X17390   0.591   6.350   4.137  1.5008  0.2459  1.0402
  156SAPE  H18Y17391   0.644   6.323   4.300 -1.1111 -1.1474  0.4636
  156SAPE  H18Z17392   0.527   6.455   4.254 -2.1184  0.2447 -0.7633
  157SAPE     N17393   0.732   3.685   7.058 -0.2122  0.0936  0.0709
  157SAPE   HN117394   0.775   3.623   7.129  0.4892  1.1640  0.6041
  157SAPE   HN217395   0.815   3.694   6.997 -0.2831 -1.5085 -0.3034
  157SAPE   HN317396   0.715   3.783   7.089 -0.5480  0.4311 -1.1339
  157SAPE   C1217397   0.610   3.622   6.992 -0.2366  0.3769  0.6631
  157SAPE  H12A17398   0.535   3.631   7.073 -0.1278 -0.4817  0.8631
  157SAPE  H12B17399   0.643   3.517   6.977 -0.0216  0.5191  0.0969
  157SAPE   C1117400   0.592   3.700   6.856  0.1658 -0.5565 -0.5689
  157SAPE  H11A17401   0.557   3.804   6.872  2.5870  0.5332 -1.7600
  157SAPE  H11B17402   0.508   3.653   6.800 -1.5218 -0.2129  1.5218
  157SAPE     P17403   0.743   3.612   6.667 -0.2686  0.0534  0.1228
  157SAPE   O1317404   0.878   3.647   6.628  0.3664 -0.0770  0.3420
  157SAPE   O1417405   0.720   3.470   6.698  0.1604  0.4223  0.1617
  157SAPE   O1217406   0.710   3.702   6.785  0.0720 -0.0100 -0.0297
  157SAPE   O1117407   0.631   3.654   6.565 -0.0009 -0.6811  0.0844
  157SAPE    C117408   0.592   3.790   6.547  0.0224 -0.5826  0.1399
  157SAPE    HA17409   0.482   3.793   6.564  0.0931  0.0261  0.5041
  157SAPE    HB17410   0.649   3.858   6.613  0.7777  0.5710 -1.6080
  157SAPE    C217411   0.623   3.849   6.403 -0.0991  0.1191  0.2706
  157SAPE    HS17412   0.592   3.954   6.391  0.6419  0.1947 -1.2421
  157SAPE   O2117413   0.538   3.775   6.309  0.7476  0.2752 -0.6827
  157SAPE   C2117414   0.414   3.814   6.297  0.7933  0.1921 -0.0446
  157SAPE   O2217415   0.365   3.916   6.350  0.5403 -0.4088  0.1371
  157SAPE   C2217416   0.338   3.719   6.206 -0.1027  0.2524 -0.2582
  157SAPE   H2R17417   0.376   3.729   6.102 -1.1747 -1.8168 -0.9069
  157SAPE   H2S17418   0.378   3.620   6.238 -1.3574  0.5899  2.6607
  157SAPE    C317419   0.770   3.830   6.359  0.2633 -0.2998 -0.0998
  157SAPE    HX17420   0.798   3.724   6.339  0.0068 -1.3357  4.1287
  157SAPE    HY17421   0.826   3.865   6.448  0.4713  1.4628 -0.8771
  157SAPE   O3117422   0.794   3.899   6.235 -0.2916  0.5227 -0.0110
  157SAPE   C3117423   0.898   3.984   6.232  0.1139  0.4427  0.2638
  157SAPE   O3217424   0.977   3.992   6.322  0.3834  0.3453  0.2358
  157SAPE   C3217425   0.906   4.047   6.094 -0.1151  0.4182 -0.3424
  157SAPE   H2X17426   0.822   4.120   6.087 -0.1236  0.4650  0.1878
  157SAPE   H2Y17427   0.884   3.972   6.014 -0.2120  1.8423 -1.7029
  157SAPE   C2317428   0.189   3.720   6.221  1.0120 -0.0218 -0.0243
  157SAPE   H3R17429   0.148   3.820   6.198 -0.3341 -0.8384 -1.4422
  157SAPE   H3S17430   0.153   3.698   6.323  0.3331 -0.7754 -0.4118
  157SAPE   C2417431   0.113   3.629   6.117 -1.0278 -0.6920 -0.5888
  157SAPE   H4R17432   0.139   3.522   6.133 -1.3694 -1.3291 -3.6909
  157SAPE   H4S17433   0.156   3.656   6.019 -1.8775  0.2099 -0.7324
  157SAPE   C2517434  -0.036   3.654   6.128 -0.4571  0.4523  0.8428
  157SAPE   H5R17435  -0.075   3.629   6.227  0.0909 -0.7797  0.7753
  157SAPE   C2617436  -0.114   3.692   6.025 -0.2949 -0.7561 -0.1917
  157SAPE   H6R17437  -0.222   3.705   6.044  0.1966  0.9116  1.8855
  157SAPE   C2717438  -0.076   3.717   5.882  0.3567  0.1330  0.2316
  157SAPE   H7R17439  -0.170   3.730   5.824  0.0045  0.5216  0.8802
  157SAPE   H7S17440  -0.043   3.620   5.840 -4.9281 -0.9257 -2.2939
  157SAPE   C2817441   0.020   3.835   5.859  0.5019 -0.0691 -0.5509
  157SAPE   H8R17442   0.081   3.865   5.946  1.4666  1.1790 -1.6120
  157SAPE   C2917443   0.036   3.906   5.745 -1.4442  0.6966 -1.3402
  157SAPE   H9R17444   0.109   3.989   5.747  1.6464 -1.8298 -0.5582
  157SAPE  C21017445  -0.034   3.887   5.608 -0.0708  0.2102 -0.7232
  157SAPE  H10R17446  -0.087   3.983   5.592 -1.2917 -0.1499  0.8709
  157SAPE  H10S17447  -0.107   3.804   5.618 -0.7172  0.6942 -1.2544
  157SAPE  C21117448   0.059   3.843   5.496 -0.6093  0.8660  0.5615
  157SAPE  H11R17449   0.106   3.746   5.518 -0.6818  1.3485  3.0545
  157SAPE  C21217450   0.075   3.904   5.379  1.2099  0.6789  0.0655
  157SAPE  H12R17451   0.134   3.862   5.297 -2.5578 -0.5555 -2.2887
  157SAPE  C21317452   0.009   4.038   5.347  0.4197 -0.8374 -0.0374
  157SAPE  H13R17453   0.024   4.118   5.423  0.1743  0.8718 -1.7090
  157SAPE  H13S17454  -0.101   4.019   5.350  0.3679 -0.5583 -0.1392
  157SAPE  C21417455   0.051   4.083   5.213  0.5043 -0.3148  0.4467
  157SAPE  H14R17456   0.158   4.110   5.213  0.9070 -1.7713  0.8787
  157SAPE  C21517457  -0.018   4.086   5.094 -0.0040 -0.6207 -0.7447
  157SAPE  H15R17458   0.034   4.118   5.002 -1.6164  0.1312 -1.4457
  157SAPE  C21617459  -0.164   4.048   5.077  0.0528  0.3510 -0.1193
  157SAPE  H16R17460  -0.215   4.115   5.005 -0.1332 -0.5369 -0.8353
  157SAPE  H16S17461  -0.211   4.066   5.176  1.2534  0.4498  0.4500
  157SAPE  C21717462  -0.194   3.895   5.040 -0.0131  0.1551 -0.5774
  157SAPE  H17R17463  -0.303   3.883   5.059  0.2910  0.0318  1.2550
  157SAPE  H17S17464  -0.156   3.830   5.122 -0.5644  1.7863  1.0321
  157SAPE  C21817465  -0.149   3.854   4.902 -0.7499 -0.5629  0.1769
  157SAPE  H18R17466  -0.155   3.936   4.828 -0.1106 -0.0474  0.6898
  157SAPE  H18S17467  -0.236   3.796   4.864 -2.0685  1.0290  0.6436
  157SAPE  C21917468  -0.012   3.781   4.895  0.5477  0.6697 -0.3651
  157SAPE  H19R17469  -0.013   3.693   4.963 -2.3532  0.4758 -0.5047
  157SAPE  H19S17470   0.066   3.850   4.934  2.0982 -2.8982  3.5294
  157SAPE  C22017471   0.034   3.728   4.756 -0.1872 -0.0881  0.1887
  157SAPE  H20R17472  -0.042   3.661   4.710 -1.1177  1.9936 -1.5076
  157SAPE  H20S17473   0.126   3.667   4.764  0.4711  0.8772  0.1956
  157SAPE  H20T17474   0.047   3.807   4.679  1.4038 -1.0058 -0.5219
  157SAPE   C3317475   1.049   4.107   6.052 -0.4124 -0.3470  0.0214
  157SAPE   H3X17476   1.127   4.029   6.064  0.0169 -0.4099 -2.5957
  157SAPE   H3Y17477   1.071   4.194   6.118 -2.6341 -0.7948  1.4950
  157SAPE   C3417478   1.035   4.151   5.909 -0.2334  0.3891  0.5624
  157SAPE   H4X17479   0.934   4.194   5.894  0.1667  1.7316  1.6054
  157SAPE   H4Y17480   1.042   4.068   5.835  2.1537  2.5053 -1.7970
  157SAPE   C3517481   1.136   4.253   5.864 -0.6402  0.6652 -0.0006
  157SAPE   H5X17482   1.119   4.338   5.933  0.4351 -0.3144  1.5287
  157SAPE   H5Y17483   1.101   4.288   5.765  1.5920  1.2487 -0.6418
  157SAPE   C3617484   1.284   4.213   5.866 -0.0230 -0.1094 -0.6400
  157SAPE   H6X17485   1.318   4.206   5.971  0.6792  1.3450 -0.7467
  157SAPE   H6Y17486   1.338   4.301   5.824  0.0422 -0.3442 -1.0610
  157SAPE   C3717487   1.323   4.102   5.773  0.2197 -0.1782  0.0222
  157SAPE   H7X17488   1.278   4.004   5.798 -1.8314  0.3906 -1.2296
  157SAPE   H7Y17489   1.434   4.104   5.764  0.1787  1.2413 -0.4351
  157SAPE   C3817490   1.282   4.136   5.627 -0.4493  0.1298 -0.1137
  157SAPE   H8X17491   1.331   4.233   5.605  0.1453 -0.3154 -0.7799
  157SAPE   H8Y17492   1.171   4.138   5.633 -0.3520  1.2076  3.0784
  157SAPE   C3917493   1.325   4.029   5.530 -0.1865  0.3197 -0.0890
  157SAPE   H9X17494   1.292   3.934   5.576 -0.1221 -0.5938 -1.8611
  157SAPE   H9Y17495   1.435   4.021   5.538 -0.3023  0.4491  2.2136
  157SAPE  C31017496   1.275   4.050   5.387  0.0767 -0.3483 -0.1648
  157SAPE  H10X17497   1.165   4.060   5.394  0.3714  2.7648  3.9134
  157SAPE  H10Y17498   1.303   3.959   5.329  2.3716 -1.8726  2.9528
  157SAPE  C31117499   1.332   4.181   5.319 -0.1712 -0.0222  0.0186
  157SAPE  H11X17500   1.436   4.195   5.358  1.7170 -2.4607 -3.5406
  157SAPE  H11Y17501   1.266   4.267   5.341 -0.3476 -0.0075 -0.5681
  157SAPE  C31217502   1.345   4.176   5.169  0.0347 -0.2758  0.4740
  157SAPE  H12X17503   1.240   4.175   5.133  0.3849  3.5563 -1.1879
  157SAPE  H12Y17504   1.407   4.087   5.146  4.5863  1.7969  3.1748
  157SAPE  C31317505   1.413   4.301   5.105 -0.3612 -0.5465 -0.2945
  157SAPE  H13X17506   1.512   4.317   5.153 -0.9465  1.1994  0.4118
  157SAPE  H13Y17507   1.359   4.396   5.128  0.4947 -0.1104 -0.0468
  157SAPE  C31417508   1.425   4.286   4.953 -0.6437  0.0881 -0.4921
  157SAPE  H14X17509   1.319   4.271   4.924  0.0612 -1.5335 -2.3890
  157SAPE  H14Y17510   1.482   4.196   4.923  0.6301  1.2722 -1.7809
  157SAPE  C31517511   1.495   4.399   4.882  0.5809 -0.5865 -0.0662
  157SAPE  H15X17512   1.603   4.406   4.909  0.1080  1.7903  1.4797
  157SAPE  H15Y17513   1.466   4.503   4.906  2.1931  0.0568 -0.7310
  157SAPE  C31617514   1.490   4.384   4.724  0.1018  0.1087 -0.5940
  157SAPE  H16X17515   1.387   4.409   4.693 -0.0941 -1.3076 -1.1607
  157SAPE  H16Y17516   1.506   4.276   4.703 -1.0766 -0.3675  0.8132
  157SAPE  C31717517   1.584   4.487   4.649 -0.4103 -0.5662 -0.3038
  157SAPE  H17X17518   1.597   4.439   4.549  0.0864 -1.8917  0.3618
  157SAPE  H17Y17519   1.686   4.479   4.693 -1.5945  0.0173  2.7500
  157SAPE  C31817520   1.555   4.635   4.651 -0.0826 -0.0300  0.4229
  157SAPE  H18X17521   1.452   4.660   4.687  0.3642  0.6730  1.2568
  157SAPE  H18Y17522   1.568   4.669   4.546 -1.4432 -2.3702 -0.5954
  157SAPE  H18Z17523   1.623   4.689   4.720 -2.0163  1.4799  1.2670
  158SAPE     N17524   3.086   6.332   7.021 -1.0231  0.3340 -0.5792
  158SAPE   HN117525   3.066   6.242   7.068 -1.9339  0.1274 -1.3189
  158SAPE   HN217526   3.161   6.318   6.950 -0.0985  0.4536  0.3570
  158SAPE   HN317527   3.107   6.414   7.081 -0.8222 -0.2333  0.1338
  158SAPE   C1217528   2.955   6.365   6.959  0.1558  0.7327 -0.0882
  158SAPE  H12A17529   2.973   6.452   6.891 -0.2986  1.1867  0.3687
  158SAPE  H12B17530   2.886   6.404   7.037 -1.1030  2.6753 -2.0418
  158SAPE   C1117531   2.887   6.255   6.885 -0.5717  0.4616 -0.8326
  158SAPE  H11A17532   2.955   6.244   6.798 -1.4075  1.1577 -1.5946
  158SAPE  H11B17533   2.789   6.297   6.855 -1.2194  0.1770  0.7655
  158SAPE     P17534   2.843   5.995   6.934 -0.0797  0.2151 -0.4448
  158SAPE   O1317535   2.939   5.907   7.004 -0.6602 -0.2885  0.1913
  158SAPE   O1417536   2.697   5.968   6.966 -0.1610  0.5015 -0.3530
  158SAPE   O1217537   2.873   6.145   6.971 -0.4947  0.2911  0.3240
  158SAPE   O1117538   2.873   5.998   6.779 -0.2078  0.8662  0.1509
  158SAPE    C117539   2.829   5.886   6.701  0.2309  0.0801  0.0264
  158SAPE    HA17540   2.882   5.789   6.716 -0.1158 -0.0265  0.6165
  158SAPE    HB17541   2.723   5.871   6.731  0.8888 -0.0707  2.4808
  158SAPE    C217542   2.830   5.942   6.559 -0.0953 -0.1443  0.0476
  158SAPE    HS17543   2.756   5.882   6.502  0.3150  0.1563 -0.8330
  158SAPE   O2117544   2.962   5.929   6.502 -0.2890 -0.1585  0.3826
  158SAPE   C2117545   2.961   5.920   6.365  0.1409  0.3918  0.2311
  158SAPE   O2217546   2.862   5.935   6.297  0.1417  0.2665  0.3091
  158SAPE   C2217547   3.101   5.886   6.320 -0.3155  0.3527  0.4952
  158SAPE   H2R17548   3.158   5.982   6.315 -1.2318  0.9245  0.8008
  158SAPE   H2S17549   3.143   5.814   6.394 -0.6395  0.4129  0.7419
  158SAPE    C317550   2.781   6.088   6.554  0.4077  0.6659 -0.1522
  158SAPE    HX17551   2.858   6.159   6.588  0.0513  0.4296  1.1862
  158SAPE    HY17552   2.702   6.107   6.630  0.3677  2.7065 -0.6439
  158SAPE   O3117553   2.739   6.128   6.425 -0.1481 -0.3983  0.1015
  158SAPE   C3117554   2.615   6.113   6.389 -0.1010 -0.7317 -0.4317
  158SAPE   O3217555   2.528   6.062   6.456  0.0206  0.2963  0.1554
  158SAPE   C3217556   2.590   6.175   6.247 -0.1176  0.0825 -0.3774
  158SAPE   H2X17557   2.671   6.161   6.172 -0.9652 -1.0402 -1.1101
  158SAPE   H2Y17558   2.572   6.282   6.271  0.8397  0.0493  0.5324
  158SAPE   C2317559   3.110   5.815   6.186 -0.5506  0.0426  0.3322
  158SAPE   H3R17560   3.085   5.878   6.098  2.6243 -2.6820 -2.8759
  158SAPE   H3S17561   3.052   5.720   6.182  1.0361 -0.9566 -0.3058
  158SAPE   C2417562   3.250   5.756   6.150  0.7095 -0.6249 -0.3669
  158SAPE   H4R17563   3.250   5.717   6.046 -0.7321 -0.8810 -0.2910
  158SAPE   H4S17564   3.267   5.666   6.211 -2.5409 -0.9949  0.1378
  158SAPE   C2517565   3.351   5.863   6.176 -0.3600  0.0234 -0.6772
  158SAPE   H5R17566   3.385   5.861   6.280 -1.5177 -1.1984 -0.2941
  158SAPE   C2617567   3.410   5.939   6.079 -0.2492  0.1368 -0.2736
  158SAPE   H6R17568   3.479   6.020   6.103  0.6139  0.0788 -2.3352
  158SAPE   C2717569   3.381   5.946   5.929  0.3362  0.7077  0.0916
  158SAPE   H7R17570   3.422   6.044   5.898 -1.5960  1.1161 -1.3359
  158SAPE   H7S17571   3.275   5.968   5.908  0.2770 -1.4356 -2.4036
  158SAPE   C2817572   3.432   5.820   5.858 -0.4780 -0.1241 -0.2308
  158SAPE   H8R17573   3.446   5.730   5.920  0.0796  0.3488  0.3497
  158SAPE   C2917574   3.469   5.801   5.728  0.0979 -0.1519 -0.4506
  158SAPE   H9R17575   3.489   5.695   5.703 -1.8604 -1.5401  3.1493
  158SAPE  C21017576   3.461   5.903   5.616  0.2480  0.1038 -0.5782
  158SAPE  H10R17577   3.423   5.999   5.657  0.2563 -0.8239  1.7264
  158SAPE  H10S17578   3.389   5.862   5.541  0.3489 -2.3944  0.5876
  158SAPE  C21117579   3.590   5.933   5.541 -0.3725 -0.4467  0.4098
  158SAPE  H11R17580   3.652   6.015   5.580  0.2164 -0.0657 -1.2258
  158SAPE  C21217581   3.639   5.860   5.436  0.8991 -0.4252 -0.0217
  158SAPE  H12R17582   3.737   5.888   5.395  1.7888  1.0372  2.8833
  158SAPE  C21317583   3.573   5.739   5.383 -0.0663  0.6973 -0.1043
  158SAPE  H13R17584   3.466   5.757   5.362  0.4246  2.0794 -1.6532
  158SAPE  H13S17585   3.573   5.662   5.463 -0.0435 -1.6143 -2.1633
  158SAPE  C21417586   3.645   5.688   5.257  0.5724  0.2662  0.9216
  158SAPE  H14R17587   3.714   5.604   5.274 -0.7060 -0.6263  1.9956
  158SAPE  C21517588   3.624   5.738   5.133 -0.4444  0.1881  1.4099
  158SAPE  H15R17589   3.675   5.692   5.047  1.0130  0.0457  2.3205
  158SAPE  C21617590   3.541   5.859   5.090  0.8106  1.3032  0.3069
  158SAPE  H16R17591   3.488   5.903   5.177 -0.1309 -0.7657  0.8494
  158SAPE  H16S17592   3.469   5.813   5.019  2.9222 -2.1753  0.1633
  158SAPE  C21717593   3.617   5.972   5.011  0.4735 -0.0478  0.3366
  158SAPE  H17R17594   3.704   6.015   5.065  0.7674 -1.1862  0.8070
  158SAPE  H17S17595   3.550   6.060   5.012  1.2746  0.5868 -0.3926
  158SAPE  C21817596   3.644   5.938   4.855  1.1067  0.6694 -0.4627
  158SAPE  H18R17597   3.544   5.934   4.806  2.4344  3.1387 -3.7154
  158SAPE  H18S17598   3.682   5.834   4.850 -0.0872  0.2838 -3.0953
  158SAPE  C21917599   3.721   6.044   4.782  0.0518  0.4081  0.2302
  158SAPE  H19R17600   3.812   6.076   4.839 -2.2705  3.1520  2.7425
  158SAPE  H19S17601   3.664   6.139   4.771 -0.7695 -0.3260 -2.6719
  158SAPE  C22017602   3.745   6.005   4.632  0.5102  0.1319 -0.0460
  158SAPE  H20R17603   3.784   6.086   4.567 -0.0465 -0.3595 -1.0128
  158SAPE  H20S17604   3.654   5.969   4.580  0.5326 -0.8439  0.5724
  158SAPE  H20T17605   3.812   5.919   4.612  0.2082 -0.3168  0.8122
  158SAPE   C3317606   2.468   6.106   6.175  0.1608  0.0044  0.0306
  158SAPE   H3X17607   2.371   6.115   6.228  0.4898  0.0776  0.6247
  158SAPE   H3Y17608   2.491   5.998   6.168 -2.4978 -0.5784 -1.1101
  158SAPE   C3417609   2.453   6.165   6.035 -0.3954 -0.1200  0.1870
  158SAPE   H4X17610   2.539   6.118   5.983  0.3849  1.1579  0.2762
  158SAPE   H4Y17611   2.465   6.275   6.025 -1.2476  0.2353  2.5162
  158SAPE   C3517612   2.321   6.120   5.965 -0.0121 -0.0598 -0.1525
  158SAPE   H5X17613   2.244   6.172   6.026  0.9440  0.5338  0.5698
  158SAPE   H5Y17614   2.297   6.013   5.985  0.0826 -0.9231 -3.9359
  158SAPE   C3617615   2.297   6.159   5.819  0.1587  0.3601  0.6728
  158SAPE   H6X17616   2.189   6.137   5.804 -0.0398 -0.5005  2.9488
  158SAPE   H6Y17617   2.357   6.096   5.750  0.3732 -0.0070  1.1855
  158SAPE   C3717618   2.333   6.307   5.804 -0.5453 -0.2349 -0.0271
  158SAPE   H7X17619   2.443   6.298   5.791 -0.5037  0.0945  0.0887
  158SAPE   H7Y17620   2.315   6.358   5.901  0.6012  2.9475 -1.3423
  158SAPE   C3817621   2.262   6.390   5.698 -0.1004  0.3524 -0.4561
  158SAPE   H8X17622   2.303   6.493   5.707 -0.7699  0.5381  0.6812
  158SAPE   H8Y17623   2.157   6.399   5.733  0.0082  1.8726 -0.4391
  158SAPE   C3917624   2.278   6.355   5.553 -0.3168 -0.3166 -0.7491
  158SAPE   H9X17625   2.259   6.246   5.562 -1.3089 -0.2886 -2.0823
  158SAPE   H9Y17626   2.381   6.370   5.515 -1.1421  0.0602 -3.0397
  158SAPE  C31017627   2.172   6.404   5.462 -0.4746  0.0253  0.1760
  158SAPE  H10X17628   2.170   6.515   5.460  1.0844  0.0687 -0.6138
  158SAPE  H10Y17629   2.080   6.365   5.509 -0.9891 -1.7646 -2.1348
  158SAPE  C31117630   2.176   6.329   5.319  0.8178  0.1641 -0.8710
  158SAPE  H11X17631   2.087   6.375   5.270  1.4248  0.6819 -1.5203
  158SAPE  H11Y17632   2.164   6.220   5.335 -1.4341  0.2717 -1.5095
  158SAPE  C31217633   2.302   6.352   5.237  0.0424  0.4013  0.3673
  158SAPE  H12X17634   2.298   6.285   5.149 -3.2069 -0.9752  1.4159
  158SAPE  H12Y17635   2.392   6.332   5.298  0.5598  2.0863  0.2173
  158SAPE  C31317636   2.324   6.499   5.190 -0.0598  0.1271 -0.0495
  158SAPE  H13X17637   2.429   6.507   5.157 -0.3286  1.3356 -0.6730
  158SAPE  H13Y17638   2.299   6.565   5.277 -0.5528 -0.5885  0.3683
  158SAPE  C31417639   2.228   6.548   5.080  0.0581 -0.7714  0.2180
  158SAPE  H14X17640   2.234   6.658   5.063  0.4610 -0.8138  0.0886
  158SAPE  H14Y17641   2.124   6.535   5.118 -0.2046 -1.8989 -0.8403
  158SAPE  C31517642   2.240   6.474   4.942 -0.1661 -0.6987 -0.0686
  158SAPE  H15X17643   2.190   6.375   4.946  1.2390 -1.3889  1.2589
  158SAPE  H15Y17644   2.350   6.458   4.941 -0.1319 -0.8487 -3.3129
  158SAPE  C31617645   2.187   6.557   4.826  0.6836  0.1363 -0.6178
  158SAPE  H16X17646   2.215   6.664   4.839  2.4268 -0.4001  0.5227
  158SAPE  H16Y17647   2.080   6.534   4.808  0.9192 -0.1678 -1.6925
  158SAPE  C31717648   2.246   6.526   4.689 -0.4804 -0.3675  0.0226
  158SAPE  H17X17649   2.230   6.417   4.671  1.3411 -0.7700  0.6119
  158SAPE  H17Y17650   2.356   6.529   4.707 -0.8864  0.3602  2.6823
  158SAPE  C31817651   2.214   6.608   4.563 -0.4119  0.2568  0.4949
  158SAPE  H18X17652   2.297   6.601   4.489 -1.1050  1.7766 -0.4732
  158SAPE  H18Y17653   2.208   6.716   4.584 -1.4909  0.2617  0.2676
  158SAPE  H18Z17654   2.112   6.584   4.523 -1.1845  2.2504  1.1462
  159SAPE     N17655   5.288   2.217   2.065 -0.0976  0.6702  0.6305
  159SAPE   HN117656   5.294   2.225   2.169 -0.2900  0.7160  0.6377
  159SAPE   HN217657   5.292   2.118   2.036 -0.0802  0.5292  1.1057
  159SAPE   HN317658   5.379   2.260   2.038 -0.2236 -0.0715 -1.0900
  159SAPE   C1217659   5.164   2.286   2.015 -0.7064 -0.7532 -1.0602
  159SAPE  H12A17660   5.176   2.315   1.909  2.3876  0.4548 -0.5059
  159SAPE  H12B17661   5.149   2.384   2.067 -0.9769 -1.4206  0.1682
  159SAPE   C1117662   5.046   2.196   2.040 -0.0934  0.5685  0.0456
  159SAPE  H11A17663   4.961   2.260   2.009  0.2915  0.6713 -0.8360
  159SAPE  H11B17664   5.034   2.167   2.147 -0.5912  0.3860 -0.0579
  159SAPE     P17665   4.931   1.988   1.939  0.0478 -0.0942  0.0352
  159SAPE   O1317666   4.839   2.050   1.838  0.2027 -0.2078 -0.0386
  159SAPE   O1417667   4.981   1.848   1.915  0.2265  0.1203  0.2665
  159SAPE   O1217668   5.062   2.078   1.954 -0.2768 -0.1770  0.4106
  159SAPE   O1117669   4.856   2.004   2.083 -0.1383  0.5129  0.7204
  159SAPE    C117670   4.860   1.898   2.176 -0.5018 -0.8099  0.3414
  159SAPE    HA17671   4.755   1.862   2.182 -0.6810 -0.5570 -0.8791
  159SAPE    HB17672   4.923   1.810   2.152 -0.1865 -0.5794  0.3235
  159SAPE    C217673   4.901   1.951   2.325  0.7897 -0.1515  0.0699
  159SAPE    HS17674   4.825   1.914   2.398 -0.1169 -0.1725 -0.8576
  159SAPE   O2117675   4.895   2.094   2.347  0.3470  0.4876 -0.0414
  159SAPE   C2117676   4.774   2.144   2.330 -0.3122  0.1665 -0.4931
  159SAPE   O2217677   4.671   2.080   2.316 -0.1846 -0.8974  0.3612
  159SAPE   C2217678   4.768   2.296   2.323  0.1466  0.2522  0.2618
  159SAPE   H2R17679   4.872   2.335   2.333  0.1679  0.5034 -0.7633
  159SAPE   H2S17680   4.735   2.315   2.218  3.3913 -0.5668 -1.0406
  159SAPE    C317681   5.040   1.890   2.368  0.3866  0.2617 -0.0733
  159SAPE    HX17682   5.108   1.914   2.284 -0.3745 -0.8810 -1.0404
  159SAPE    HY17683   5.032   1.780   2.382 -0.5695  0.4465  0.9946
  159SAPE   O3117684   5.070   1.960   2.492  0.1502 -0.2944  0.0996
  159SAPE   C3117685   5.184   2.026   2.495  0.6301 -0.3415  0.3966
  159SAPE   O3217686   5.269   2.031   2.406  0.0485  0.3691 -0.6180
  159SAPE   C3217687   5.190   2.106   2.629  1.1702  0.1100  0.5649
  159SAPE   H2X17688   5.239   2.044   2.708 -1.0762 -1.8665  0.5031
  159SAPE   H2Y17689   5.086   2.129   2.661  0.7332  2.0234 -1.9911
  159SAPE   C2317690   4.671   2.362   2.416  0.5532 -0.8202 -0.3725
  159SAPE   H3R17691   4.568   2.346   2.378  0.3080  0.8089 -0.4594
  159SAPE   H3S17692   4.683   2.472   2.426  0.3167 -0.9943  2.7782
  159SAPE   C2417693   4.680   2.313   2.568  0.7423  0.5000 -0.4046
  159SAPE   H4R17694   4.666   2.204   2.579 -1.7451  0.6513 -1.5339
  159SAPE   H4S17695   4.599   2.354   2.632  0.2515  0.6955 -1.1357
  159SAPE   C2517696   4.813   2.353   2.626  0.6241 -0.2068 -0.4980
  159SAPE   H5R17697   4.890   2.345   2.548  1.0474  1.4569 -0.3010
  159SAPE   C2617698   4.835   2.404   2.750  0.0649  0.0892  0.0509
  159SAPE   H6R17699   4.937   2.443   2.767  0.4784 -0.7533 -0.4565
  159SAPE   C2717700   4.738   2.439   2.859  0.2166 -0.7582  0.4197
  159SAPE   H7R17701   4.785   2.409   2.955  0.7475  2.5613  1.3184
  159SAPE   H7S17702   4.646   2.377   2.847  0.4409 -0.9290 -0.4759
  159SAPE   C2817703   4.709   2.587   2.847 -0.1090  0.1355 -0.8474
  159SAPE   H8R17704   4.726   2.642   2.753  0.9754  1.9685  0.3601
  159SAPE   C2917705   4.660   2.665   2.947  0.2652 -0.3591  0.2865
  159SAPE   H9R17706   4.636   2.770   2.928 -1.4575 -0.5693  1.1048
  159SAPE  C21017707   4.630   2.608   3.087 -0.1583 -0.0379  0.0133
  159SAPE  H10R17708   4.726   2.571   3.129  0.4946 -0.5783 -1.8656
  159SAPE  H10S17709   4.552   2.529   3.088 -0.7745  0.5619  1.0647
  159SAPE  C21117710   4.572   2.716   3.171 -0.1848 -0.2515 -0.3228
  159SAPE  H11R17711   4.472   2.752   3.144 -1.0342 -1.1078  1.5631
  159SAPE  C21217712   4.634   2.781   3.270  0.3156  0.1120  0.3239
  159SAPE  H12R17713   4.570   2.851   3.326  0.5096  2.1354 -1.8242
  159SAPE  C21317714   4.770   2.768   3.319  0.3885  0.0032 -0.6562
  159SAPE  H13R17715   4.806   2.873   3.321  1.2207 -0.2542 -1.4861
  159SAPE  H13S17716   4.835   2.720   3.243  1.3632  2.0129 -1.1618
  159SAPE  C21417717   4.778   2.681   3.445  0.1396  0.8116  0.0211
  159SAPE  H14R17718   4.732   2.583   3.457  2.2589  0.0373  2.8200
  159SAPE  C21517719   4.814   2.721   3.564 -0.2480  0.8898 -0.1850
  159SAPE  H15R17720   4.815   2.650   3.648 -0.1856 -1.3708 -2.0239
  159SAPE  C21617721   4.866   2.860   3.583  0.0574 -0.1716  0.0888
  159SAPE  H16R17722   4.786   2.921   3.631  1.9228 -0.2755  3.6749
  159SAPE  H16S17723   4.908   2.916   3.497 -0.5230  0.1459  0.0045
  159SAPE  C21717724   4.991   2.863   3.679 -1.2251  0.0519 -1.4274
  159SAPE  H17R17725   5.069   2.794   3.639 -1.4192 -1.2248  0.2645
  159SAPE  H17S17726   4.955   2.818   3.774  3.3174  0.4275  0.7169
  159SAPE  C21817727   5.055   2.999   3.713  0.0703  0.2912 -0.2536
  159SAPE  H18R17728   4.970   3.056   3.756 -0.5425  0.3124 -1.4702
  159SAPE  H18S17729   5.096   3.057   3.628  0.2635  0.2800 -0.1695
  159SAPE  C21917730   5.162   2.982   3.822  0.0267  0.4006  0.2376
  159SAPE  H19R17731   5.256   2.963   3.767 -0.2282 -2.4167  0.6222
  159SAPE  H19S17732   5.134   2.898   3.890 -0.2403  1.6081  1.6774
  159SAPE  C22017733   5.186   3.096   3.915  0.0083 -0.3564  0.6882
  159SAPE  H20R17734   5.085   3.117   3.956 -0.0864 -2.5492  1.7023
  159SAPE  H20S17735   5.225   3.195   3.880  0.1896  0.3114  2.6016
  159SAPE  H20T17736   5.238   3.069   4.010 -0.6573 -1.0557  0.8562
  159SAPE   C3317737   5.258   2.245   2.604 -0.4631 -0.2686 -0.1195
  159SAPE   H3X17738   5.177   2.313   2.570 -0.8118 -0.9082 -0.5959
  159SAPE   H3Y17739   5.332   2.242   2.521 -0.6091  0.6870 -0.2977
  159SAPE   C3417740   5.330   2.286   2.732  0.0456  0.6293 -0.1094
  159SAPE   H4X17741   5.371   2.389   2.733  0.2661  0.5464  1.4755
  159SAPE   H4Y17742   5.408   2.211   2.760 -0.3123  0.4835  0.5151
  159SAPE   C3517743   5.244   2.281   2.862  0.0736 -0.3680 -0.5130
  159SAPE   H5X17744   5.183   2.189   2.859  0.6172 -0.7419 -3.5401
  159SAPE   H5Y17745   5.161   2.353   2.847  0.3809 -0.5296 -4.0733
  159SAPE   C3617746   5.327   2.299   2.994  0.2732  0.6166  0.0966
  159SAPE   H6X17747   5.409   2.373   2.980  0.1337  0.8186  0.3390
  159SAPE   H6Y17748   5.374   2.207   3.034  1.2586  0.1281 -2.0269
  159SAPE   C3717749   5.234   2.340   3.110 -0.2230  0.2149  0.5189
  159SAPE   H7X17750   5.162   2.259   3.135 -0.5261 -0.1095 -1.2428
  159SAPE   H7Y17751   5.161   2.419   3.081 -0.1613 -0.1909 -0.7851
  159SAPE   C3817752   5.311   2.387   3.230 -0.3777 -0.6312  0.2036
  159SAPE   H8X17753   5.396   2.446   3.190 -0.2080 -1.0469 -0.0495
  159SAPE   H8Y17754   5.355   2.293   3.269  3.9473  1.1290  0.1052
  159SAPE   C3917755   5.230   2.463   3.333  0.5791  0.1494 -0.0689
  159SAPE   H9X17756   5.138   2.405   3.354  0.7904  0.2528  1.2454
  159SAPE   H9Y17757   5.198   2.561   3.291 -0.6182 -1.6243 -3.6526
  159SAPE  C31017758   5.304   2.480   3.469  0.0005 -0.1202 -0.7471
  159SAPE  H10X17759   5.404   2.524   3.450 -0.5679  1.1791 -0.8558
  159SAPE  H10Y17760   5.336   2.379   3.502  0.5950  0.7439  1.5028
  159SAPE  C31117761   5.241   2.572   3.572 -0.0833 -0.0454  0.1222
  159SAPE  H11X17762   5.137   2.540   3.596 -0.5899  2.0319  0.9697
  159SAPE  H11Y17763   5.233   2.673   3.526 -1.9236  0.5539  1.5999
  159SAPE  C31217764   5.321   2.570   3.706 -0.4178 -0.0271 -0.3757
  159SAPE  H12X17765   5.414   2.629   3.694 -0.0283  0.0942  2.5641
  159SAPE  H12Y17766   5.345   2.463   3.722  2.2275  0.6100  0.3290
  159SAPE  C31317767   5.242   2.611   3.829  0.2690 -0.0179 -0.5309
  159SAPE  H13X17768   5.147   2.555   3.816  0.5299 -0.5088 -0.3214
  159SAPE  H13Y17769   5.224   2.721   3.830 -1.8176 -0.3205 -0.5745
  159SAPE  C31417770   5.309   2.579   3.956  1.0213 -0.0121 -0.2562
  159SAPE  H14X17771   5.419   2.588   3.944  1.1090  0.3631  0.7220
  159SAPE  H14Y17772   5.282   2.475   3.982  0.3028 -0.0676 -1.1866
  159SAPE  C31517773   5.285   2.667   4.077  0.5653 -0.3634  0.2195
  159SAPE  H15X17774   5.308   2.772   4.050  0.5862  0.2374  2.3635
  159SAPE  H15Y17775   5.350   2.629   4.160  1.5713 -1.7614 -1.1562
  159SAPE  C31617776   5.134   2.663   4.120  0.4723  0.1513 -0.3689
  159SAPE  H16X17777   5.104   2.557   4.136 -1.1891  0.7330  0.6227
  159SAPE  H16Y17778   5.066   2.701   4.040 -1.6968 -0.8456  0.9225
  159SAPE  C31717779   5.098   2.751   4.248 -0.1292 -0.7171  0.4834
  159SAPE  H17X17780   4.988   2.757   4.260 -0.0172 -0.6794  1.6077
  159SAPE  H17Y17781   5.147   2.849   4.232  1.4931 -1.3804  1.1689
  159SAPE  C31817782   5.158   2.689   4.369  0.3341 -0.2339  0.0571
  159SAPE  H18X17783   5.139   2.740   4.466  0.5877  2.4932 -1.2257
  159SAPE  H18Y17784   5.268   2.681   4.362  0.4132 -0.4408  1.2116
  159SAPE  H18Z17785   5.115   2.588   4.385  0.3207 -0.5569 -1.7919
  160SAPE     N17786   4.972   0.925   1.695  0.2998  0.3769  0.0717
  160SAPE   HN117787   4.890   0.932   1.632 -0.6872 -2.2176  0.9451
  160SAPE   HN217788   4.960   1.006   1.759  0.4703 -0.5001  1.2629
  160SAPE   HN317789   5.062   0.929   1.643 -0.2425 -1.6435 -1.1554
  160SAPE   C1217790   4.977   0.813   1.793  0.2439  0.1175 -0.7149
  160SAPE  H12A17791   5.052   0.739   1.756  1.1868  0.8368 -0.2741
  160SAPE  H12B17792   4.874   0.772   1.791 -0.8147  2.5752  0.1222
  160SAPE   C1117793   5.015   0.880   1.926 -0.3858 -0.1854  0.3249
  160SAPE  H11A17794   4.987   0.818   2.014  0.1862 -0.3257  0.4109
  160SAPE  H11B17795   4.957   0.974   1.936  3.2899  2.4344 -0.8943
  160SAPE     P17796   5.219   0.974   2.064 -0.1023 -0.5843  0.4150
  160SAPE   O1317797   5.348   0.914   2.102  0.3449 -0.6249 -0.1876
  160SAPE   O1417798   5.223   1.120   2.030 -0.2194 -0.1552 -0.3620
  160SAPE   O1217799   5.158   0.907   1.935  0.2091  0.3192 -0.2599
  160SAPE   O1117800   5.119   0.959   2.182  0.0928 -0.5786 -0.2905
  160SAPE    C117801   5.018   1.059   2.210  0.3909 -0.5078  0.6047
  160SAPE    HA17802   5.008   1.136   2.131  1.3079 -0.4659  0.5182
  160SAPE    HB17803   4.920   1.006   2.221 -0.0511  0.3085  0.6793
  160SAPE    C217804   5.053   1.141   2.342  0.3934 -0.2905 -0.4806
  160SAPE    HS17805   5.155   1.182   2.326  0.1409  1.0380  1.1262
  160SAPE   O2117806   5.047   1.046   2.455 -0.3383  0.6166  0.5631
  160SAPE   C2117807   5.113   1.089   2.552 -0.7256 -0.3356 -0.7518
  160SAPE   O2217808   5.193   1.184   2.553 -0.1776 -0.0817 -0.4534
  160SAPE   C2217809   5.071   1.009   2.678 -0.4856  0.4438  0.1114
  160SAPE   H2R17810   4.975   1.057   2.706 -1.3305 -0.5653 -0.9902
  160SAPE   H2S17811   5.049   0.904   2.653  1.3718  0.1107 -0.2703
  160SAPE    C317812   4.947   1.251   2.353 -0.3110  0.8993  0.4167
  160SAPE    HX17813   4.843   1.217   2.334 -1.6433  3.7758  1.8030
  160SAPE    HY17814   4.975   1.322   2.273  0.4806  0.3479  0.1987
  160SAPE   O3117815   4.945   1.325   2.480  0.0579  0.1435  0.4275
  160SAPE   C3117816   5.023   1.436   2.494  0.0439 -0.1048  0.5290
  160SAPE   O3217817   5.095   1.486   2.407 -0.0196  0.0038 -0.1156
  160SAPE   C3217818   5.004   1.487   2.638  0.4369 -0.3723 -0.0032
  160SAPE   H2X17819   5.029   1.402   2.705 -0.7771  0.2209  1.2424
  160SAPE   H2Y17820   4.896   1.511   2.639  0.5145  0.1251 -1.3503
  160SAPE   C2317821   5.162   1.008   2.805 -0.7593 -0.4009 -0.4452
  160SAPE   H3R17822   5.194   1.109   2.839 -0.2649 -1.3547  2.2091
  160SAPE   H3S17823   5.256   0.956   2.777 -0.6654 -0.8583  0.6755
  160SAPE   C2417824   5.093   0.939   2.931  0.0852 -0.1086  0.0424
  160SAPE   H4R17825   5.164   0.942   3.016 -1.8642 -0.3941  1.7569
  160SAPE   H4S17826   5.087   0.830   2.910 -0.7592  0.4064 -2.8503
  160SAPE   C2517827   4.956   0.985   2.969  0.0238  0.2605  0.7828
  160SAPE   H5R17828   4.873   0.947   2.908 -0.0801  3.1079 -1.0358
  160SAPE   C2617829   4.923   1.084   3.053 -0.0949  0.7295 -0.6198
  160SAPE   H6R17830   4.814   1.104   3.053 -0.2189  0.1988 -2.1259
  160SAPE   C2717831   5.021   1.150   3.148 -0.5232 -0.3359  0.2187
  160SAPE   H7R17832   4.981   1.250   3.175 -2.9185 -0.9777 -0.6862
  160SAPE   H7S17833   5.119   1.176   3.102  0.6200 -1.2910  2.0207
  160SAPE   C2817834   5.041   1.060   3.270 -0.4291  0.9245  0.6001
  160SAPE   H8R17835   5.085   0.960   3.251  0.0153  1.5296 -1.8719
  160SAPE   C2917836   5.045   1.104   3.398 -0.2107  0.2184 -0.0985
  160SAPE   H9R17837   5.066   1.029   3.475 -3.2158  1.1545  1.7970
  160SAPE  C21017838   5.008   1.242   3.452  0.9942 -0.1417 -0.2863
  160SAPE  H10R17839   5.031   1.323   3.379  1.8569 -1.4082 -1.4645
  160SAPE  H10S17840   5.074   1.258   3.540 -0.8663  0.6925  1.0179
  160SAPE  C21117841   4.865   1.257   3.499  0.0336  0.0881  0.1043
  160SAPE  H11R17842   4.791   1.243   3.419 -0.8895 -0.2166  0.9969
  160SAPE  C21217843   4.809   1.300   3.615 -0.4472 -0.2125  0.2961
  160SAPE  H12R17844   4.699   1.312   3.613 -0.4845 -0.0621  1.8045
  160SAPE  C21317845   4.880   1.342   3.742 -0.7348  0.5614 -0.0062
  160SAPE  H13R17846   4.987   1.357   3.719  0.0842 -2.1859  1.5346
  160SAPE  H13S17847   4.878   1.250   3.805 -0.4624  0.8687  0.4573
  160SAPE  C21417848   4.810   1.465   3.799  0.5959  0.1257 -0.0712
  160SAPE  H14R17849   4.720   1.501   3.747 -0.8296  0.4968  2.4879
  160SAPE  C21517850   4.846   1.524   3.915  0.9007 -0.2590  0.8019
  160SAPE  H15R17851   4.791   1.614   3.947  0.1795 -0.0544 -0.8521
  160SAPE  C21617852   4.956   1.492   4.014 -1.1740 -0.5547 -0.5098
  160SAPE  H16R17853   5.022   1.580   4.018 -0.8170 -0.7075 -2.0704
  160SAPE  H16S17854   5.012   1.409   3.966  1.1065  0.8730 -0.4302
  160SAPE  C21717855   4.913   1.461   4.155  0.2318 -0.5647  0.4869
  160SAPE  H17R17856   5.002   1.448   4.219  1.0348  1.5947 -0.0917
  160SAPE  H17S17857   4.866   1.362   4.141  0.9225 -0.7631 -0.4560
  160SAPE  C21817858   4.827   1.561   4.234  0.4204  0.3568 -0.0691
  160SAPE  H18R17859   4.729   1.575   4.184  1.6273  3.0524 -1.9207
  160SAPE  H18S17860   4.887   1.655   4.240 -1.1670  1.3201  1.4917
  160SAPE  C21917861   4.819   1.531   4.390  0.1335 -0.2620  0.6416
  160SAPE  H19R17862   4.923   1.533   4.429 -0.2091 -3.0217  1.9579
  160SAPE  H19S17863   4.789   1.424   4.392  1.6090 -0.8066 -1.5565
  160SAPE  C22017864   4.722   1.622   4.465  0.4937 -0.7618 -0.4567
  160SAPE  H20R17865   4.754   1.725   4.438  0.1306 -0.4347  0.3276
  160SAPE  H20S17866   4.730   1.605   4.574 -2.1277 -1.3440 -0.2864
  160SAPE  H20T17867   4.615   1.605   4.440  0.5666 -0.6353 -0.8570
  160SAPE   C3317868   5.087   1.612   2.673  0.3120  0.1083 -0.1695
  160SAPE   H3X17869   5.067   1.689   2.596  2.7035 -0.9038 -1.9385
  160SAPE   H3Y17870   5.187   1.571   2.647 -0.7525 -0.6126 -3.4938
  160SAPE   C3417871   5.080   1.671   2.811 -0.3351 -0.1485 -0.3529
  160SAPE   H4X17872   5.123   1.593   2.878 -0.6255 -0.5315 -0.6095
  160SAPE   H4Y17873   4.973   1.690   2.835  0.1866  1.2974  1.0533
  160SAPE   C3517874   5.165   1.798   2.832 -0.3721 -0.2831 -0.5925
  160SAPE   H5X17875   5.175   1.853   2.736 -0.2694  0.4973 -0.1422
  160SAPE   H5Y17876   5.266   1.755   2.849  1.0149  2.6773 -0.7685
  160SAPE   C3617877   5.141   1.898   2.947 -0.5537  0.1412 -0.0804
  160SAPE   H6X17878   5.039   1.868   2.978 -0.9160 -1.2169 -2.3419
  160SAPE   H6Y17879   5.128   2.004   2.914 -0.1818 -0.5138 -2.5383
  160SAPE   C3717880   5.237   1.886   3.063  0.3760 -0.7718 -0.8048
  160SAPE   H7X17881   5.323   1.943   3.023 -0.4983  0.2612 -1.2811
  160SAPE   H7Y17882   5.266   1.782   3.087 -0.3074 -0.7968 -0.0494
  160SAPE   C3817883   5.187   1.959   3.188 -0.2611 -0.3790 -0.7210
  160SAPE   H8X17884   5.097   1.907   3.227  0.0382 -1.2668 -1.1776
  160SAPE   H8Y17885   5.160   2.056   3.144 -0.1838 -0.4666 -0.9647
  160SAPE   C3917886   5.299   1.971   3.297 -0.0087  0.1278 -0.0922
  160SAPE   H9X17887   5.354   2.066   3.281 -2.6402  1.8157  0.2713
  160SAPE   H9Y17888   5.363   1.881   3.286 -1.0140 -0.3838 -2.3672
  160SAPE  C31017889   5.254   1.971   3.445 -0.5269 -0.3900 -0.3320
  160SAPE  H10X17890   5.343   1.974   3.512 -1.1362 -2.1051  0.6279
  160SAPE  H10Y17891   5.196   1.879   3.468 -0.0778 -0.3814  0.9401
  160SAPE  C31117892   5.172   2.092   3.507  0.2027  0.5512  0.0361
  160SAPE  H11X17893   5.194   2.195   3.472 -0.8559  0.8331  0.1697
  160SAPE  H11Y17894   5.200   2.099   3.614 -2.1971  0.0105  0.7552
  160SAPE  C31217895   5.017   2.071   3.492  0.2139  0.1656 -0.0241
  160SAPE  H12X17896   5.008   1.980   3.555 -1.8182  0.2856 -0.0710
  160SAPE  H12Y17897   4.994   2.051   3.385  2.2946  1.8165 -0.8285
  160SAPE  C31317898   4.933   2.192   3.525 -0.7617  0.4799 -0.7191
  160SAPE  H13X17899   4.824   2.170   3.514 -0.5650 -1.6438  0.8595
  160SAPE  H13Y17900   4.956   2.280   3.463  1.4206  0.2628 -0.3094
  160SAPE  C31417901   4.965   2.235   3.672 -0.1045 -0.1663 -0.3327
  160SAPE  H14X17902   5.064   2.286   3.662  0.0932 -0.6765 -1.1150
  160SAPE  H14Y17903   4.976   2.136   3.721 -0.5135 -0.7166 -1.3251
  160SAPE  C31517904   4.866   2.321   3.748  0.0034  0.1896  0.6170
  160SAPE  H15X17905   4.774   2.259   3.759 -0.6994  1.0276 -0.2878
  160SAPE  H15Y17906   4.843   2.401   3.674 -4.0706 -2.4966 -1.4096
  160SAPE  C31617907   4.921   2.372   3.885  0.2702  0.0524 -0.6252
  160SAPE  H16X17908   4.927   2.482   3.869  1.0156  0.0498 -0.3739
  160SAPE  H16Y17909   5.027   2.340   3.892 -0.3143 -2.2075 -1.2887
  160SAPE  C31717910   4.832   2.322   4.000 -0.2575 -0.4695 -0.2692
  160SAPE  H17X17911   4.856   2.369   4.097 -3.0995  0.3382  0.1559
  160SAPE  H17Y17912   4.849   2.213   4.005 -0.8613 -0.5118  2.6349
  160SAPE  C31817913   4.689   2.357   3.992  0.4903 -0.4211 -0.1467
  160SAPE  H18X17914   4.625   2.320   4.075  0.6643  2.3374  1.3295
  160SAPE  H18Y17915   4.639   2.309   3.905 -1.4797  0.8899  0.2079
  160SAPE  H18Z17916   4.669   2.466   3.992 -1.4221 -0.6529  3.3190
  161SAPE     N17917   4.706   5.002   1.984  0.4292 -0.1410  0.4337
  161SAPE   HN117918   4.693   4.933   2.061 -0.1956 -0.0664  0.4016
  161SAPE   HN217919   4.782   4.982   1.916  2.6503  3.3195  1.6344
  161SAPE   HN317920   4.742   5.087   2.031 -0.7459  1.2343 -1.0385
  161SAPE   C1217921   4.576   5.037   1.925 -0.0465 -0.1354  0.5331
  161SAPE  H12A17922   4.545   4.949   1.864  0.2624 -0.1197  0.3543
  161SAPE  H12B17923   4.597   5.121   1.854  0.9217 -0.7569  0.0605
  161SAPE   C1117924   4.469   5.054   2.033  0.7403 -1.1971  0.0920
  161SAPE  H11A17925   4.376   5.083   1.981  0.1421  0.1865  1.8233
  161SAPE  H11B17926   4.490   5.145   2.094  1.3780 -0.2024 -1.5442
  161SAPE     P17927   4.315   4.886   2.164  0.1186  0.0852 -0.3703
  161SAPE   O1317928   4.207   4.972   2.118  0.2484 -0.3481  0.0741
  161SAPE   O1417929   4.288   4.749   2.137  0.1987 -0.1676 -0.5273
  161SAPE   O1217930   4.451   4.934   2.108  0.4886  0.0249  0.7834
  161SAPE   O1117931   4.334   4.918   2.317 -0.2237  0.0196 -0.1486
  161SAPE    C117932   4.433   4.854   2.401 -0.9056 -0.2547  0.5105
  161SAPE    HA17933   4.487   4.774   2.346 -0.8065  0.2653 -0.1439
  161SAPE    HB17934   4.505   4.935   2.426 -0.8488  0.2084 -1.0603
  161SAPE    C217935   4.369   4.783   2.527  0.4575 -0.7718 -0.1841
  161SAPE    HS17936   4.284   4.727   2.483 -0.2840 -0.0556  0.3244
  161SAPE   O2117937   4.329   4.891   2.611 -0.3635 -0.2286  0.2134
  161SAPE   C2117938   4.226   4.857   2.691  0.1879 -0.3856 -0.1124
  161SAPE   O2217939   4.158   4.759   2.688 -0.0660 -0.8038  0.1920
  161SAPE   C2217940   4.195   4.974   2.794  1.0487  0.6620 -0.5479
  161SAPE   H2R17941   4.291   5.023   2.822  0.6546  0.5357  1.1685
  161SAPE   H2S17942   4.125   5.044   2.745 -2.8637  0.1678  3.6198
  161SAPE    C317943   4.466   4.682   2.600 -0.4237  0.9381  0.6293
  161SAPE    HX17944   4.564   4.735   2.610  0.5088 -0.4137 -0.8136
  161SAPE    HY17945   4.491   4.601   2.528  2.3773 -0.4018  2.9218
  161SAPE   O3117946   4.421   4.639   2.728  0.4312 -0.0731 -0.1814
  161SAPE   C3117947   4.350   4.524   2.729  0.6493  0.0819 -0.3274
  161SAPE   O3217948   4.336   4.452   2.632 -0.0259  0.2925  0.2023
  161SAPE   C3217949   4.303   4.488   2.871  0.5344 -0.6752 -0.4141
  161SAPE   H2X17950   4.298   4.578   2.936  2.6378 -1.5974  1.1373
  161SAPE   H2Y17951   4.372   4.413   2.916 -1.9441 -2.2757  0.9406
  161SAPE   C2317952   4.115   4.921   2.908 -0.1856 -0.1412  0.2271
  161SAPE   H3R17953   4.159   4.828   2.948 -0.3867 -0.0917  0.5653
  161SAPE   H3S17954   4.019   4.890   2.862  0.0676 -0.4865 -0.0794
  161SAPE   C2417955   4.121   5.023   3.022  0.1366 -0.2242 -0.1583
  161SAPE   H4R17956   4.081   5.121   2.991 -0.9844 -0.3019  0.9949
  161SAPE   H4S17957   4.231   5.035   3.036  0.4695 -0.3894 -2.1870
  161SAPE   C2517958   4.042   4.976   3.147 -0.4393 -0.1128 -0.1386
  161SAPE   H5R17959   3.938   4.947   3.128  0.0762 -2.4314  0.2349
  161SAPE   C2617960   4.097   4.947   3.273  0.3200 -0.2563  0.3879
  161SAPE   H6R17961   4.031   4.899   3.346  1.0166 -0.5799  0.8121
  161SAPE   C2717962   4.244   4.952   3.305  1.0336  0.5784 -0.2647
  161SAPE   H7R17963   4.251   5.011   3.399  0.8355 -2.3874  1.7481
  161SAPE   H7S17964   4.296   5.014   3.229  2.6308  0.7023  0.8869
  161SAPE   C2817965   4.288   4.806   3.326 -0.3375  0.2417 -0.3943
  161SAPE   H8R17966   4.290   4.732   3.245 -0.9058  0.0388 -0.2281
  161SAPE   C2917967   4.338   4.758   3.446  0.7482 -0.0969 -0.3570
  161SAPE   H9R17968   4.367   4.652   3.437 -1.2902 -0.6080 -1.5863
  161SAPE  C21017969   4.341   4.835   3.581 -0.2117  0.0322  0.0058
  161SAPE  H10R17970   4.264   4.914   3.584 -0.4154 -0.1617 -0.0752
  161SAPE  H10S17971   4.441   4.882   3.594 -0.5200 -0.0553  4.2683
  161SAPE  C21117972   4.332   4.749   3.706 -1.2630 -0.0671 -0.3862
  161SAPE  H11R17973   4.297   4.645   3.699  2.4632 -1.7634  2.4283
  161SAPE  C21217974   4.380   4.787   3.829 -0.8461  0.3364 -0.3584
  161SAPE  H12R17975   4.388   4.709   3.907  0.2060  1.1286  0.3340
  161SAPE  C21317976   4.424   4.923   3.870  0.5888  0.0050  0.2720
  161SAPE  H13R17977   4.335   4.989   3.865  0.2607 -0.5451 -2.3633
  161SAPE  H13S17978   4.494   4.978   3.803  0.3049 -0.0843 -0.1017
  161SAPE  C21417979   4.483   4.925   4.009  0.8483 -0.1287  0.3005
  161SAPE  H14R17980   4.592   4.940   4.018  0.8252  0.2891 -0.1203
  161SAPE  C21517981   4.407   4.907   4.123 -0.4794  0.3739 -0.2415
  161SAPE  H15R17982   4.460   4.888   4.217 -1.8250 -0.0686  0.4536
  161SAPE  C21617983   4.262   4.885   4.145  0.0816 -0.2831 -0.3481
  161SAPE  H16R17984   4.199   4.917   4.059 -0.4536  3.2932  1.2000
  161SAPE  H16S17985   4.238   4.952   4.230 -0.8975 -1.3421  0.2251
  161SAPE  C21717986   4.215   4.745   4.184 -0.7776 -0.1039  0.2507
  161SAPE  H17R17987   4.249   4.719   4.286 -0.2446  0.4329  0.2220
  161SAPE  H17S17988   4.268   4.678   4.113  0.6603  1.3588 -0.1303
  161SAPE  C21817989   4.064   4.726   4.162  0.4882  0.1712 -0.2468
  161SAPE  H18R17990   4.041   4.620   4.137  0.6745  0.0199  0.2127
  161SAPE  H18S17991   4.045   4.760   4.058  1.6471 -0.6597 -0.7602
  161SAPE  C21917992   3.969   4.773   4.273 -0.2306  0.3009  0.0888
  161SAPE  H19R17993   3.977   4.686   4.341 -1.1022 -1.4238 -1.8918
  161SAPE  H19S17994   3.869   4.788   4.227 -0.3447 -0.8316 -0.0608
  161SAPE  C22017995   4.003   4.901   4.348 -0.4167  0.2465  0.8319
  161SAPE  H20R17996   4.110   4.903   4.379  0.4241  0.4855 -1.8540
  161SAPE  H20S17997   3.919   4.926   4.416 -1.8615 -1.2423 -0.3221
  161SAPE  H20T17998   3.994   4.980   4.271  0.9330  0.2799  0.6865
  161SAPE   C3317999   4.169   4.410   2.864  0.6473 -0.0727  0.1800
  161SAPE   H3X18000   4.190   4.323   2.799  0.8870  0.3206 -0.2811
  161SAPE   H3Y18001   4.092   4.475   2.816 -0.3669 -0.8766  0.6945
  161SAPE   C3418002   4.105   4.357   2.994 -0.2767  0.4013 -0.4396
  161SAPE   H4X18003   4.175   4.286   3.042  0.6290  0.3872 -1.7397
  161SAPE   H4Y18004   4.021   4.291   2.963  1.6910 -2.0147 -0.9858
  161SAPE   C3518005   4.053   4.475   3.087  0.3795  0.1254  0.9845
  161SAPE   H5X18006   3.972   4.525   3.030  0.1744 -3.1304 -1.9057
  161SAPE   H5Y18007   4.127   4.553   3.114  0.1296 -0.1822  2.7275
  161SAPE   C3618008   3.988   4.419   3.218 -0.0822  0.4257 -0.1504
  161SAPE   H6X18009   4.069   4.367   3.275  0.1156 -0.5065 -1.2374
  161SAPE   H6Y18010   3.906   4.350   3.190  0.7978  0.0158 -1.8728
  161SAPE   C3718011   3.943   4.530   3.316 -0.3172 -0.4027  0.1178
  161SAPE   H7X18012   3.865   4.582   3.257  2.6597  2.5549 -1.5005
  161SAPE   H7Y18013   4.017   4.610   3.337  0.0167 -0.5526 -0.4677
  161SAPE   C3818014   3.889   4.498   3.452 -0.0569 -0.5363 -0.8629
  161SAPE   H8X18015   3.973   4.467   3.518  0.7965  0.8167 -1.2585
  161SAPE   H8Y18016   3.826   4.407   3.451 -0.3414 -0.3401 -1.0186
  161SAPE   C3918017   3.818   4.618   3.526  0.0788 -0.5054  0.0795
  161SAPE   H9X18018   3.774   4.580   3.620 -0.3739 -0.7074 -0.2068
  161SAPE   H9Y18019   3.736   4.649   3.458 -0.6060 -1.5155  0.4191
  161SAPE  C31018020   3.914   4.729   3.570 -0.0922 -0.4657 -0.3027
  161SAPE  H10X18021   3.936   4.792   3.481  0.6758 -0.2371  0.0483
  161SAPE  H10Y18022   4.009   4.693   3.615  0.6294 -0.7109 -1.9476
  161SAPE  C31118023   3.858   4.837   3.666  0.3089 -0.2839 -0.1316
  161SAPE  H11X18024   3.819   4.786   3.757 -2.1625  2.6229  0.6334
  161SAPE  H11Y18025   3.765   4.879   3.622 -1.6563 -4.6502 -0.5890
  161SAPE  C31218026   3.957   4.956   3.691 -0.2819  0.7268 -0.6196
  161SAPE  H12X18027   3.972   5.014   3.597 -0.8055 -0.3819 -1.4123
  161SAPE  H12Y18028   4.057   4.912   3.711 -1.1579 -1.2865 -0.4227
  161SAPE  C31318029   3.917   5.060   3.790  0.4532 -0.0609 -0.7353
  161SAPE  H13X18030   3.811   5.079   3.763  0.4263  0.1933 -0.4529
  161SAPE  H13Y18031   3.983   5.149   3.785 -2.8866  2.5357 -3.5136
  161SAPE  C31418032   3.917   5.011   3.931  0.5171  1.2307  0.5913
  161SAPE  H14X18033   4.016   5.025   3.978  0.1306  4.1510  0.7315
  161SAPE  H14Y18034   3.883   4.906   3.939  1.3969  0.7999 -0.8395
  161SAPE  C31518035   3.821   5.086   4.017  0.7264  0.3212  0.3959
  161SAPE  H15X18036   3.802   5.015   4.100  3.7540 -1.4698 -0.3143
  161SAPE  H15Y18037   3.721   5.099   3.970  0.0502 -0.6595  1.5192
  161SAPE  C31618038   3.889   5.208   4.077 -0.4049 -0.2608 -0.6023
  161SAPE  H16X18039   3.917   5.288   4.006 -0.4625  2.4620  2.2296
  161SAPE  H16Y18040   3.981   5.176   4.131 -0.7383  1.8884  1.4279
  161SAPE  C31718041   3.805   5.293   4.178  0.3083  0.1410  0.9217
  161SAPE  H17X18042   3.780   5.237   4.270  1.8896  0.1754  1.4011
  161SAPE  H17Y18043   3.706   5.327   4.142 -0.4342 -3.0272 -0.3161
  161SAPE  C31818044   3.864   5.424   4.225  0.0949 -0.1584  0.8697
  161SAPE  H18X18045   3.880   5.480   4.130 -1.6057  0.3411  0.8444
  161SAPE  H18Y18046   3.967   5.419   4.266  0.4389  1.9492  0.4022
  161SAPE  H18Z18047   3.797   5.475   4.296 -1.5537 -2.2872  0.9405
  162SAPE     N18048   2.682   5.880   2.094 -0.0734  0.4033 -0.0175
  162SAPE   HN118049   2.752   5.949   2.061  1.9347 -0.4740  2.1277
  162SAPE   HN218050   2.639   5.833   2.012  0.5919  1.8857 -1.2445
  162SAPE   HN318051   2.602   5.922   2.145 -0.5415 -3.5760  3.0690
  162SAPE   C1218052   2.769   5.793   2.186  0.4065 -0.2272 -0.0655
  162SAPE  H12A18053   2.698   5.723   2.235 -0.0212 -1.6220 -2.4885
  162SAPE  H12B18054   2.809   5.878   2.245 -2.2232  1.4898 -0.5573
  162SAPE   C1118055   2.865   5.704   2.111 -0.6588 -0.1254 -0.2339
  162SAPE  H11A18056   2.953   5.706   2.178 -1.2696  4.0704  0.7267
  162SAPE  H11B18057   2.903   5.760   2.023 -2.7271 -1.8115 -2.3409
  162SAPE     P18058   2.894   5.486   1.980  0.5797 -0.1299  0.0167
  162SAPE   O1318059   2.804   5.387   1.914  0.0889  0.1729  0.0333
  162SAPE   O1418060   2.972   5.569   1.889 -0.6297 -0.5905  0.0483
  162SAPE   O1218061   2.800   5.575   2.074 -0.0701 -0.0562 -0.1030
  162SAPE   O1118062   2.985   5.406   2.075  0.5033 -0.3927 -0.1491
  162SAPE    C118063   2.921   5.308   2.157  0.2396  0.2437 -0.3846
  162SAPE    HA18064   2.831   5.262   2.112 -0.3904 -1.1583  2.1182
  162SAPE    HB18065   2.991   5.223   2.171  0.2030 -0.0515 -1.8459
  162SAPE    C218066   2.870   5.369   2.293 -0.3072  0.2775 -0.3936
  162SAPE    HS18067   2.793   5.447   2.275 -0.3695  0.1777 -0.5582
  162SAPE   O2118068   2.992   5.414   2.356  0.1056 -0.3915 -0.3748
  162SAPE   C2118069   2.975   5.496   2.451 -0.1365  0.0571  1.0522
  162SAPE   O2218070   2.872   5.555   2.476 -0.0341 -0.0492 -0.1292
  162SAPE   C2218071   3.110   5.522   2.528 -0.0822  0.8796 -0.2813
  162SAPE   H2R18072   3.175   5.431   2.522 -1.5435 -0.3686  1.6425
  162SAPE   H2S18073   3.164   5.600   2.471 -1.1480  2.7574  1.1794
  162SAPE    C318074   2.817   5.242   2.375  0.5330  0.1367 -0.1526
  162SAPE    HX18075   2.903   5.172   2.370 -0.5498 -1.2494 -0.0114
  162SAPE    HY18076   2.734   5.193   2.320 -0.7987  1.3681  0.6834
  162SAPE   O3118077   2.789   5.270   2.516  0.2610  0.8350 -0.2909
  162SAPE   C3118078   2.665   5.312   2.539 -0.1841  0.1244 -0.4345
  162SAPE   O3218079   2.585   5.340   2.453  0.1459 -0.3561 -0.8395
  162SAPE   C3218080   2.648   5.329   2.691  0.6650  0.0868  0.5851
  162SAPE   H2X18081   2.738   5.370   2.743  1.5584 -0.6055 -0.3762
  162SAPE   H2Y18082   2.635   5.227   2.731 -0.0543  0.4724  1.3604
  162SAPE   C2318083   3.090   5.564   2.676  0.1302 -0.7637 -0.4310
  162SAPE   H3R18084   3.010   5.639   2.692  1.7623  0.4759  2.6333
  162SAPE   H3S18085   3.190   5.597   2.710 -0.2215  1.7544 -1.6567
  162SAPE   C2418086   3.040   5.438   2.769 -0.2095  0.7700 -0.0883
  162SAPE   H4R18087   2.953   5.403   2.710 -0.4436 -0.4355  0.9127
  162SAPE   H4S18088   3.002   5.480   2.865 -0.8366  1.7843 -0.7635
  162SAPE   C2518089   3.152   5.340   2.782 -0.4848  0.0312  0.2149
  162SAPE   H5R18090   3.192   5.298   2.689 -1.2535 -0.8566  0.2673
  162SAPE   C2618091   3.200   5.295   2.894  0.1397 -0.1925 -0.2984
  162SAPE   H6R18092   3.274   5.215   2.901  0.3928  0.1405  1.2052
  162SAPE   C2718093   3.150   5.333   3.033 -0.7550 -0.7771 -0.1870
  162SAPE   H7R18094   3.062   5.272   3.062 -1.7090 -0.8926 -3.0262
  162SAPE   H7S18095   3.106   5.435   3.036  1.2251  0.1155  0.3713
  162SAPE   C2818096   3.264   5.335   3.139  0.5063  0.9365 -0.0252
  162SAPE   H8R18097   3.294   5.239   3.182  1.1293 -1.0872 -4.3994
  162SAPE   C2918098   3.309   5.447   3.198 -0.0316 -0.0706 -0.0961
  162SAPE   H9R18099   3.390   5.432   3.270 -0.7258  0.7826  0.8832
  162SAPE  C21018100   3.293   5.589   3.155  0.3885  0.0142 -0.1318
  162SAPE  H10R18101   3.264   5.663   3.233  1.4704 -0.9896  1.2813
  162SAPE  H10S18102   3.222   5.602   3.070  0.9371  1.5303 -0.3905
  162SAPE  C21118103   3.421   5.637   3.095  0.1672  0.5835  0.4347
  162SAPE  H11R18104   3.446   5.604   2.993 -0.5694  0.8849  0.1489
  162SAPE  C21218105   3.507   5.718   3.154 -0.2332 -0.1960 -0.0826
  162SAPE  H12R18106   3.589   5.756   3.091 -0.1499 -0.2794 -0.0234
  162SAPE  C21318107   3.494   5.786   3.286 -0.1659 -0.5359 -0.0790
  162SAPE  H13R18108   3.435   5.726   3.359  1.4931 -0.8270  1.0785
  162SAPE  H13S18109   3.448   5.884   3.261  1.2036 -0.2408 -1.5629
  162SAPE  C21418110   3.630   5.825   3.335  0.2293 -0.4539 -0.3221
  162SAPE  H14R18111   3.706   5.749   3.312  1.8230  0.9285  0.1166
  162SAPE  C21518112   3.662   5.930   3.427 -0.0529 -0.5450 -0.2194
  162SAPE  H15R18113   3.764   5.951   3.462  0.1589 -1.0274 -0.5373
  162SAPE  C21618114   3.565   6.035   3.479  0.5186  0.2249 -0.6801
  162SAPE  H16R18115   3.474   6.042   3.416 -0.1147  1.4087  0.3161
  162SAPE  H16S18116   3.610   6.135   3.460 -0.4869  0.4219 -2.2387
  162SAPE  C21718117   3.530   6.037   3.637  0.2252  0.0701 -0.4287
  162SAPE  H17R18118   3.482   6.136   3.655  0.0288 -0.0769 -0.1530
  162SAPE  H17S18119   3.627   6.040   3.691 -0.5567 -0.1612  1.0344
  162SAPE  C21818120   3.444   5.925   3.698  0.3454  1.0534 -0.4031
  162SAPE  H18R18121   3.457   5.927   3.808  1.5167 -3.1960 -0.2932
  162SAPE  H18S18122   3.472   5.824   3.661 -0.1629  0.4865  0.7162
  162SAPE  C21918123   3.289   5.939   3.681 -0.5632 -0.1068  0.7728
  162SAPE  H19R18124   3.264   5.917   3.575 -0.1812  1.9178  0.2228
  162SAPE  H19S18125   3.254   6.039   3.714  1.8219  0.4609  1.8138
  162SAPE  C22018126   3.215   5.829   3.758 -0.2213  0.5793 -0.3830
  162SAPE  H20R18127   3.106   5.820   3.738 -0.3980 -1.3951  1.1686
  162SAPE  H20S18128   3.225   5.833   3.868  1.0543 -1.6643 -0.3666
  162SAPE  H20T18129   3.269   5.737   3.728 -0.7840 -0.6342  2.0633
  162SAPE   C3318130   2.531   5.427   2.722  0.5815  0.4331 -0.1971
  162SAPE   H3X18131   2.438   5.389   2.674  0.3017 -0.0282  0.6953
  162SAPE   H3Y18132   2.570   5.523   2.681  1.4930  0.9890  1.8721
  162SAPE   C3418133   2.508   5.457   2.867 -0.2144  0.4691  0.3648
  162SAPE   H4X18134   2.478   5.367   2.926 -0.9182  0.0212 -0.6437
  162SAPE   H4Y18135   2.417   5.520   2.861  0.4190  1.4389  0.8130
  162SAPE   C3518136   2.618   5.529   2.953 -0.1801 -1.0717 -0.0501
  162SAPE   H5X18137   2.713   5.471   2.961  1.2814  1.1342 -0.3542
  162SAPE   H5Y18138   2.569   5.531   3.052 -1.8458 -1.0902 -0.8374
  162SAPE   C3618139   2.646   5.672   2.903  0.2836 -0.0068 -0.0496
  162SAPE   H6X18140   2.559   5.696   2.838  0.0283 -0.4601  0.1177
  162SAPE   H6Y18141   2.730   5.682   2.831 -0.1543  2.0451 -0.3485
  162SAPE   C3718142   2.652   5.781   3.008 -0.5058 -0.2177 -0.7922
  162SAPE   H7X18143   2.551   5.773   3.055 -0.4534 -0.5641 -0.7353
  162SAPE   H7Y18144   2.648   5.884   2.966  0.1445 -0.2577 -0.9538
  162SAPE   C3818145   2.763   5.766   3.113 -0.2823  0.5699  0.1753
  162SAPE   H8X18146   2.860   5.745   3.063  0.0751 -0.8428  1.3842
  162SAPE   H8Y18147   2.742   5.670   3.164  0.8337  0.3228  0.1995
  162SAPE   C3918148   2.760   5.872   3.225 -0.3471 -0.3703  0.7063
  162SAPE   H9X18149   2.655   5.878   3.259 -0.5775 -0.9797  0.1286
  162SAPE   H9Y18150   2.774   5.971   3.174  1.4485 -1.7278 -1.6580
  162SAPE  C31018151   2.854   5.862   3.339 -0.7931 -0.2971  0.3422
  162SAPE  H10X18152   2.961   5.864   3.310 -0.2984 -0.8886  2.0192
  162SAPE  H10Y18153   2.832   5.766   3.391  1.5826 -1.2441 -0.2637
  162SAPE  C31118154   2.837   5.978   3.436 -0.0728  0.2227 -0.1459
  162SAPE  H11X18155   2.728   5.985   3.455  0.1131  1.4893  0.5162
  162SAPE  H11Y18156   2.856   6.073   3.382 -1.5291  1.2540  1.0646
  162SAPE  C31218157   2.930   5.969   3.556 -0.0125 -0.0517  0.5319
  162SAPE  H12X18158   3.030   5.953   3.510 -0.6507 -0.1341 -0.8663
  162SAPE  H12Y18159   2.913   5.874   3.612 -0.0355 -1.9040 -2.4332
  162SAPE  C31318160   2.936   6.090   3.644 -0.2179 -0.2007  0.4363
  162SAPE  H13X18161   2.943   6.178   3.576 -3.4208  0.5874  0.9783
  162SAPE  H13Y18162   3.018   6.079   3.718 -0.1715 -1.6440  0.1979
  162SAPE  C31418163   2.805   6.115   3.723  0.3997 -0.0208 -0.2001
  162SAPE  H14X18164   2.716   6.124   3.658 -0.2180 -0.4392  0.5721
  162SAPE  H14Y18165   2.815   6.208   3.783  0.7509 -0.4183  0.3718
  162SAPE  C31518166   2.769   6.004   3.821  0.6972  0.1637  0.3199
  162SAPE  H15X18167   2.762   5.905   3.771 -0.8812  0.7470 -0.7186
  162SAPE  H15Y18168   2.670   6.039   3.857  1.3819  0.1982  2.2896
  162SAPE  C31618169   2.860   5.990   3.945 -0.0787 -0.2977  0.2985
  162SAPE  H16X18170   2.825   6.077   4.004 -1.1845 -1.1958  1.0227
  162SAPE  H16Y18171   2.963   6.005   3.908  0.2138 -1.0833  0.7619
  162SAPE  C31718172   2.852   5.868   4.032  0.6471 -0.1151 -0.0159
  162SAPE  H17X18173   2.898   5.786   3.972  1.6052  1.5893 -1.7377
  162SAPE  H17Y18174   2.747   5.843   4.057  1.0516 -1.0371  0.8226
  162SAPE  C31818175   2.931   5.886   4.156 -0.0290 -0.4447 -0.8962
  162SAPE  H18X18176   2.893   5.973   4.213  2.2045 -0.9725  1.6002
  162SAPE  H18Y18177   3.042   5.895   4.144  0.1338 -1.5744 -0.4100
  162SAPE  H18Z18178   2.916   5.797   4.220  0.6246 -0.4564 -0.7476
  163SAPE     N18179   2.276   2.720   2.334  0.5788  0.0818  0.6103
  163SAPE   HN118180   2.179   2.749   2.313  0.3648 -1.2761 -0.3781
  163SAPE   HN218181   2.345   2.783   2.287  1.1284 -1.9418 -1.4426
  163SAPE   HN318182   2.286   2.627   2.288  1.2764 -0.0421  0.9924
  163SAPE   C1218183   2.289   2.720   2.479  0.4827 -0.0805 -0.2421
  163SAPE  H12A18184   2.397   2.700   2.492  0.2196 -2.1360 -0.7870
  163SAPE  H12B18185   2.223   2.641   2.521  0.3561 -0.5702 -1.3200
  163SAPE   C1118186   2.233   2.851   2.548 -0.1689 -0.4036  0.4079
  163SAPE  H11A18187   2.304   2.936   2.550 -0.2096 -0.3870  1.3720
  163SAPE  H11B18188   2.213   2.826   2.654 -0.5002  0.9832  0.6878
  163SAPE     P18189   1.972   2.884   2.550  0.0151 -0.4665 -0.1936
  163SAPE   O1318190   1.876   2.959   2.466 -0.2435  0.2303  0.0890
  163SAPE   O1418191   1.941   2.739   2.568 -0.2570  0.0458  0.7993
  163SAPE   O1218192   2.119   2.892   2.476  0.4660 -0.5460 -0.4872
  163SAPE   O1118193   1.995   2.944   2.693 -0.5204  0.0461  0.1577
  163SAPE    C118194   2.036   3.077   2.715  0.2649  0.2430 -0.0728
  163SAPE    HA18195   2.106   3.080   2.802 -0.5844 -1.1613  0.6956
  163SAPE    HB18196   2.096   3.117   2.631 -1.6838 -0.0353 -1.6804
  163SAPE    C218197   1.918   3.168   2.760 -0.0049  0.3498 -0.8251
  163SAPE    HS18198   1.869   3.194   2.663 -0.8807 -1.2862 -0.8611
  163SAPE   O2118199   1.973   3.283   2.824  0.4488 -0.2591 -0.6121
  163SAPE   C2118200   1.884   3.381   2.826  0.0377 -0.0983 -0.4547
  163SAPE   O2218201   1.777   3.378   2.767  0.2210  0.1416 -0.0222
  163SAPE   C2218202   1.938   3.500   2.903 -0.6889 -0.4416 -0.3350
  163SAPE   H2R18203   2.046   3.491   2.925 -0.7246  0.3830  0.2457
  163SAPE   H2S18204   1.943   3.590   2.837 -0.1175 -0.2085  0.0208
  163SAPE    C318205   1.810   3.094   2.839 -0.0831 -0.7704  0.2983
  163SAPE    HX18206   1.788   3.009   2.772  1.6429  0.3792 -1.8404
  163SAPE    HY18207   1.718   3.153   2.861  0.8846  1.1191 -0.5593
  163SAPE   O3118208   1.869   3.047   2.960 -0.0087 -0.3229  0.1419
  163SAPE   C3118209   1.844   3.115   3.070 -0.3618  0.8633  0.0278
  163SAPE   O3218210   1.794   3.223   3.071  0.1956  0.1110  0.1328
  163SAPE   C3218211   1.868   3.020   3.190 -0.3579 -0.5309  0.1246
  163SAPE   H2X18212   1.978   3.001   3.188 -0.3496 -0.4374 -1.1699
  163SAPE   H2Y18213   1.826   2.922   3.160  0.1447 -0.4998 -0.7212
  163SAPE   C2318214   1.856   3.519   3.028 -0.5554  0.9960  0.3031
  163SAPE   H3R18215   1.887   3.433   3.091  1.3359 -0.5358 -2.5153
  163SAPE   H3S18216   1.751   3.506   2.994 -0.3035 -0.3364 -0.0217
  163SAPE   C2418217   1.887   3.644   3.108 -0.9411  0.2056  0.2418
  163SAPE   H4R18218   1.997   3.659   3.121 -0.7091 -1.9484  1.2667
  163SAPE   H4S18219   1.854   3.636   3.214  0.5225  2.2073  0.9196
  163SAPE   C2518220   1.836   3.763   3.028 -0.1201 -0.1683  0.3224
  163SAPE   H5R18221   1.855   3.765   2.919 -0.9628  1.8463  0.1711
  163SAPE   C2618222   1.781   3.878   3.083 -0.4118 -0.4397  0.7437
  163SAPE   H6R18223   1.746   3.963   3.022  2.1347 -0.0808 -0.3323
  163SAPE   C2718224   1.760   3.896   3.232  0.0652 -0.4240 -0.5917
  163SAPE   H7R18225   1.798   3.811   3.293  0.1699  0.8012  1.0829
  163SAPE   H7S18226   1.651   3.905   3.252 -0.2484 -0.6833 -2.0149
  163SAPE   C2818227   1.824   4.025   3.270 -0.7691 -0.3762  0.4240
  163SAPE   H8R18228   1.798   4.121   3.222 -1.9397 -0.3562  1.0613
  163SAPE   C2918229   1.912   4.036   3.373  0.7033  0.6756  0.0808
  163SAPE   H9R18230   1.946   4.138   3.398 -2.6655  1.3604  2.5051
  163SAPE  C21018231   1.960   3.929   3.465 -1.3569  0.6141 -0.4209
  163SAPE  H10R18232   2.059   3.950   3.509 -0.5014 -2.6711 -0.5228
  163SAPE  H10S18233   1.967   3.830   3.415  1.3985  0.5830 -0.0828
  163SAPE  C21118234   1.857   3.899   3.573 -0.2843  0.1195 -0.3289
  163SAPE  H11R18235   1.755   3.881   3.537  0.0025 -0.0455 -1.0792
  163SAPE  C21218236   1.875   3.913   3.709  0.7811  0.2204 -0.0183
  163SAPE  H12R18237   1.786   3.891   3.769  0.9201  0.2462  0.1970
  163SAPE  C21318238   2.003   3.963   3.780 -0.1830 -0.2052  0.0493
  163SAPE  H13R18239   1.972   4.044   3.850 -0.0836 -0.0742 -0.0579
  163SAPE  H13S18240   2.084   4.009   3.721  0.3327 -1.0778  0.0642
  163SAPE  C21418241   2.074   3.854   3.859 -0.1927 -0.5792  0.1966
  163SAPE  H14R18242   2.150   3.800   3.800 -1.0415 -0.1787 -1.3319
  163SAPE  C21518243   2.033   3.808   3.982 -0.6971 -0.4259  0.1520
  163SAPE  H15R18244   2.093   3.725   4.022 -0.3581 -0.1429  0.2324
  163SAPE  C21618245   1.917   3.850   4.076 -1.1693  0.0707 -0.0757
  163SAPE  H16R18246   1.868   3.755   4.106  0.5331 -0.7330  0.2804
  163SAPE  H16S18247   1.838   3.912   4.029 -0.7425  0.4982 -0.2399
  163SAPE  C21718248   1.965   3.932   4.197  0.6971 -0.0345 -0.0222
  163SAPE  H17R18249   2.046   4.002   4.168 -0.3138  0.6495 -1.3036
  163SAPE  H17S18250   2.014   3.871   4.275  2.0745  1.2239  0.1303
  163SAPE  C21818251   1.850   4.015   4.248 -0.2725 -0.9236 -0.1991
  163SAPE  H18R18252   1.772   3.955   4.300 -3.4324  2.9320 -0.0058
  163SAPE  H18S18253   1.792   4.063   4.167 -0.0627  1.3853  0.9419
  163SAPE  C21918254   1.895   4.130   4.334  0.5860 -0.0993 -0.7747
  163SAPE  H19R18255   1.947   4.207   4.274  0.1409 -0.9410 -2.2959
  163SAPE  H19S18256   1.964   4.088   4.410 -0.6589 -2.2793 -0.7519
  163SAPE  C22018257   1.789   4.187   4.424 -0.2254 -0.0583 -0.1037
  163SAPE  H20R18258   1.703   4.220   4.363  1.5825  1.7836 -1.8153
  163SAPE  H20S18259   1.825   4.277   4.477  0.3710 -0.3183 -0.0609
  163SAPE  H20T18260   1.746   4.109   4.491 -2.3807 -0.0976 -1.4408
  163SAPE   C3318261   1.814   3.089   3.314 -0.1920  0.7556  0.0459
  163SAPE   H3X18262   1.812   3.009   3.391 -3.3393  1.1853  0.5276
  163SAPE   H3Y18263   1.712   3.124   3.291 -0.6119  0.2750  1.1171
  163SAPE   C3418264   1.900   3.209   3.363  0.7372  0.3615 -0.1161
  163SAPE   H4X18265   1.898   3.291   3.288  0.8649  1.3379  0.9159
  163SAPE   H4Y18266   2.007   3.181   3.360  0.5122 -0.5562 -0.0240
  163SAPE   C3518267   1.853   3.280   3.487  0.2949  0.1818 -0.3354
  163SAPE   H5X18268   1.842   3.198   3.561 -2.9662 -0.6483 -1.5269
  163SAPE   H5Y18269   1.744   3.302   3.478 -0.5909 -3.8049 -1.6736
  163SAPE   C3618270   1.927   3.410   3.512 -0.0153  0.2656 -0.3170
  163SAPE   H6X18271   1.908   3.472   3.421 -1.6237 -2.5219 -2.0318
  163SAPE   H6Y18272   2.036   3.396   3.527 -0.4111 -2.3385  0.7496
  163SAPE   C3718273   1.871   3.482   3.632  0.4885  0.1379 -0.4560
  163SAPE   H7X18274   1.760   3.487   3.632  0.5424  1.7605 -0.8572
  163SAPE   H7Y18275   1.911   3.585   3.623 -0.5746  0.8152  1.9216
  163SAPE   C3818276   1.941   3.419   3.754  0.4746 -0.2507 -0.1969
  163SAPE   H8X18277   2.050   3.423   3.735  0.3115 -1.4351 -1.5845
  163SAPE   H8Y18278   1.923   3.309   3.762 -0.0327 -0.0293  2.9517
  163SAPE   C3918279   1.900   3.477   3.890  1.0844 -0.7840 -0.0513
  163SAPE   H9X18280   1.792   3.451   3.896  0.5727  0.9257 -1.1006
  163SAPE   H9Y18281   1.905   3.587   3.878 -1.8296 -0.6428 -0.9672
  163SAPE  C31018282   1.978   3.423   4.010 -0.1986 -0.1214 -0.0423
  163SAPE  H10X18283   2.083   3.456   3.994  1.0356 -2.9465  1.4036
  163SAPE  H10Y18284   1.983   3.312   4.006 -0.2680 -0.2637  2.5679
  163SAPE  C31118285   1.935   3.464   4.152 -0.1561  0.4274 -0.5468
  163SAPE  H11X18286   1.846   3.408   4.188 -0.5811 -0.6114 -2.9647
  163SAPE  H11Y18287   1.912   3.572   4.158  0.2770  0.5108 -0.3669
  163SAPE  C31218288   2.056   3.424   4.240  0.2283 -0.4312  0.4769
  163SAPE  H12X18289   2.146   3.456   4.185  0.3130 -0.6684  0.4736
  163SAPE  H12Y18290   2.065   3.313   4.241 -0.8718 -0.5354  1.6728
  163SAPE  C31318291   2.060   3.470   4.386 -0.0057  0.1914  0.6180
  163SAPE  H13X18292   1.985   3.418   4.450 -0.0383  0.4629  0.8022
  163SAPE  H13Y18293   2.033   3.577   4.398  2.6877  1.1771 -1.1225
  163SAPE  C31418294   2.194   3.429   4.452 -0.4411  0.3535  0.1510
  163SAPE  H14X18295   2.184   3.458   4.559 -2.5244 -0.6138  0.2719
  163SAPE  H14Y18296   2.270   3.496   4.408  0.1972 -0.4516 -0.0065
  163SAPE  C31518297   2.250   3.290   4.430  0.6624 -0.1120  0.0081
  163SAPE  H15X18298   2.347   3.271   4.481  0.6874  1.8484  0.7980
  163SAPE  H15Y18299   2.265   3.285   4.320 -1.2313  2.7100 -0.4820
  163SAPE  C31618300   2.151   3.183   4.469  0.2167  0.7551 -0.2678
  163SAPE  H16X18301   2.164   3.084   4.420 -0.1328  0.9886 -0.8372
  163SAPE  H16Y18302   2.051   3.213   4.431 -0.1658  0.9123  0.8123
  163SAPE  C31718303   2.134   3.153   4.625  0.1916  1.0351 -0.1179
  163SAPE  H17X18304   2.103   3.247   4.677  0.8618  1.3326 -0.2330
  163SAPE  H17Y18305   2.226   3.116   4.675 -0.1024 -0.6569 -0.7736
  163SAPE  C31818306   2.022   3.050   4.642 -0.0101 -0.3351 -0.7042
  163SAPE  H18X18307   2.020   3.013   4.747 -0.2496 -0.8295 -0.8837
  163SAPE  H18Y18308   2.039   2.964   4.574 -3.4309 -0.7197 -1.2523
  163SAPE  H18Z18309   1.921   3.091   4.624  1.0196  1.4026 -3.0874
  164SAPE     N18310   0.455   3.897   2.367 -0.4594 -0.3032 -0.3412
  164SAPE   HN118311   0.360   3.867   2.397 -0.1382  0.1916  1.2709
  164SAPE   HN218312   0.487   3.845   2.283 -2.9597 -1.2463 -0.8118
  164SAPE   HN318313   0.513   3.894   2.453 -1.3714 -2.4195  0.2680
  164SAPE   C1218314   0.436   4.042   2.320  0.4249 -0.2266  0.6934
  164SAPE  H12A18315   0.338   4.087   2.351  1.9961  2.8006  1.7086
  164SAPE  H12B18316   0.447   4.051   2.210  0.7454  0.5054  0.7806
  164SAPE   C1118317   0.541   4.131   2.383  0.5561  0.1261 -0.0625
  164SAPE  H11A18318   0.523   4.126   2.493  1.0705 -0.6395 -0.0046
  164SAPE  H11B18319   0.511   4.231   2.345 -0.5528 -1.1648 -2.8950
  164SAPE     P18320   0.741   4.140   2.220 -0.2757 -0.1337 -0.3253
  164SAPE   O1318321   0.769   4.020   2.146 -0.2410  0.9009  0.3039
  164SAPE   O1418322   0.673   4.247   2.150  0.2663 -0.3411 -0.1554
  164SAPE   O1218323   0.666   4.091   2.350  0.1764  0.1978  0.3398
  164SAPE   O1118324   0.866   4.209   2.291  0.6484  0.1556 -0.4807
  164SAPE    C118325   0.971   4.142   2.372  0.2581 -0.6451  0.7175
  164SAPE    HA18326   1.024   4.063   2.313  1.1983 -0.9015  1.8741
  164SAPE    HB18327   1.044   4.225   2.382 -1.9320  1.3330  1.0220
  164SAPE    C218328   0.930   4.104   2.520  0.1138  0.4343 -0.1505
  164SAPE    HS18329   0.879   4.006   2.518  2.1385 -0.8752  3.3916
  164SAPE   O2118330   0.860   4.217   2.573 -0.5713  1.1223  0.1619
  164SAPE   C2118331   0.773   4.184   2.673 -0.9306 -0.4854  1.1428
  164SAPE   O2218332   0.750   4.069   2.701  0.1791 -0.7204 -0.1786
  164SAPE   C2218333   0.702   4.315   2.702  0.0047 -0.1658 -0.5348
  164SAPE   H2R18334   0.779   4.394   2.718  0.7519 -0.9095 -0.3926
  164SAPE   H2S18335   0.642   4.348   2.615 -0.3152  0.1840 -0.1900
  164SAPE    C318336   1.059   4.057   2.599 -0.1971 -0.1729 -0.3095
  164SAPE    HX18337   1.124   4.147   2.593  0.3780 -0.5050  0.6121
  164SAPE    HY18338   1.110   3.974   2.546  1.4023  0.4574  0.1682
  164SAPE   O3118339   1.025   4.028   2.741 -0.9225  0.0929 -0.1202
  164SAPE   C3118340   1.004   3.898   2.767  0.0889  0.4892  0.3165
  164SAPE   O3218341   1.026   3.801   2.691  0.1143  0.1176  0.3268
  164SAPE   C3218342   0.966   3.896   2.916  1.3800  0.1084 -0.0779
  164SAPE   H2X18343   0.968   3.999   2.958 -0.4578 -0.2515  0.9966
  164SAPE   H2Y18344   1.040   3.840   2.977 -1.0182 -0.7264  2.2304
  164SAPE   C2318345   0.589   4.313   2.808 -0.2587 -0.0307 -0.6632
  164SAPE   H3R18346   0.519   4.227   2.799 -2.0360  1.3981 -1.3034
  164SAPE   H3S18347   0.531   4.407   2.793  0.1035  0.1735 -0.7849
  164SAPE   C2418348   0.647   4.312   2.952 -0.2474  0.0865 -0.2925
  164SAPE   H4R18349   0.698   4.409   2.972  0.1763 -0.1718 -0.0954
  164SAPE   H4S18350   0.726   4.235   2.970  0.6453  1.4182  1.9024
  164SAPE   C2518351   0.543   4.309   3.063 -0.6759 -0.8302  0.2060
  164SAPE   H5R18352   0.446   4.262   3.037 -1.0058  0.9164 -1.9916
  164SAPE   C2618353   0.551   4.385   3.178  0.0666  0.2213  0.3032
  164SAPE   H6R18354   0.474   4.371   3.256  1.0033 -1.1081  1.0216
  164SAPE   C2718355   0.661   4.480   3.217  0.9767 -0.3981 -0.4075
  164SAPE   H7R18356   0.708   4.537   3.134 -3.2414  2.1257 -1.3691
  164SAPE   H7S18357   0.740   4.424   3.273 -0.7478 -2.1382  0.4051
  164SAPE   C2818358   0.594   4.578   3.307  0.8150 -0.0661 -0.4326
  164SAPE   H8R18359   0.553   4.668   3.260 -0.5938  0.1279  1.0840
  164SAPE   C2918360   0.582   4.556   3.439  0.8730  0.0954 -0.3793
  164SAPE   H9R18361   0.535   4.627   3.509  0.0500 -1.6451  0.9176
  164SAPE  C21018362   0.642   4.452   3.517 -0.2089 -1.2875  0.1883
  164SAPE  H10R18363   0.703   4.513   3.587 -0.8373  1.6215 -1.6489
  164SAPE  H10S18364   0.717   4.387   3.466  1.3664  1.0480 -0.6490
  164SAPE  C21118365   0.548   4.371   3.599  0.5913  0.0950  0.1039
  164SAPE  H11R18366   0.481   4.317   3.530  1.5396  1.9732 -2.4375
  164SAPE  C21218367   0.520   4.377   3.729 -0.4500  0.5268 -0.0109
  164SAPE  H12R18368   0.458   4.296   3.771 -2.3415  1.5257 -0.7623
  164SAPE  C21318369   0.607   4.455   3.828 -0.3280 -0.4648 -0.2429
  164SAPE  H13R18370   0.556   4.464   3.927 -0.4732  0.9501 -0.4369
  164SAPE  H13S18371   0.620   4.559   3.792 -0.4464 -0.4392 -0.2130
  164SAPE  C21418372   0.752   4.407   3.837 -0.1588  0.5132 -1.3075
  164SAPE  H14R18373   0.800   4.346   3.760  1.3846  1.7297 -1.3608
  164SAPE  C21518374   0.833   4.448   3.939  0.4345  0.2011 -0.0733
  164SAPE  H15R18375   0.942   4.435   3.938  0.5334  0.8400  0.6988
  164SAPE  C21618376   0.797   4.536   4.054  0.2766  0.2980  0.0270
  164SAPE  H16R18377   0.717   4.608   4.026  0.1419 -0.7468 -2.5134
  164SAPE  H16S18378   0.887   4.595   4.081  1.3379 -1.2049 -0.1329
  164SAPE  C21718379   0.750   4.451   4.176 -0.3034 -0.2666  0.6329
  164SAPE  H17R18380   0.656   4.395   4.158 -0.9773  0.3850  1.9646
  164SAPE  H17S18381   0.721   4.522   4.256  1.9160  1.2447  0.1976
  164SAPE  C21818382   0.855   4.352   4.231 -0.3939  0.2595  0.2696
  164SAPE  H18R18383   0.952   4.405   4.234 -0.1055 -0.2012 -0.7521
  164SAPE  H18S18384   0.868   4.272   4.156  1.4191  0.8936 -0.1206
  164SAPE  C21918385   0.817   4.308   4.374 -0.2114 -0.0251  0.3767
  164SAPE  H19R18386   0.718   4.258   4.384 -0.8574  1.0065 -0.5591
  164SAPE  H19S18387   0.797   4.408   4.419 -1.3856  0.8508 -1.9064
  164SAPE  C22018388   0.925   4.225   4.445  0.3957 -0.2547 -0.7314
  164SAPE  H20R18389   0.908   4.225   4.554  0.4968  1.3941 -0.6887
  164SAPE  H20S18390   1.031   4.259   4.437  0.9173 -1.1916  1.4761
  164SAPE  H20T18391   0.930   4.128   4.390  0.2223 -0.6228 -0.1063
  164SAPE   C3318392   0.830   3.825   2.940 -0.3745  0.1348  0.0981
  164SAPE   H3X18393   0.826   3.728   2.885  0.2009 -0.0833  0.4267
  164SAPE   H3Y18394   0.746   3.885   2.899  0.1218  0.0738 -1.0375
  164SAPE   C3418395   0.809   3.795   3.081  0.0369  0.3094  0.3831
  164SAPE   H4X18396   0.866   3.709   3.123  1.2021  0.0908 -1.5085
  164SAPE   H4Y18397   0.701   3.773   3.096  0.1294 -0.9505 -0.6108
  164SAPE   C3518398   0.830   3.918   3.180 -0.2814  0.0405 -0.5047
  164SAPE   H5X18399   0.745   3.987   3.160 -1.1353 -0.6015  0.8164
  164SAPE   H5Y18400   0.935   3.956   3.178  0.3403 -1.6312 -1.7409
  164SAPE   C3618401   0.814   3.869   3.326 -0.6225 -0.1638  0.4730
  164SAPE   H6X18402   0.902   3.811   3.362 -1.4288 -0.8657  1.4064
  164SAPE   H6Y18403   0.728   3.798   3.328 -2.4280  1.9087 -0.3788
  164SAPE   C3718404   0.805   3.987   3.430  0.1694  0.1198 -0.0390
  164SAPE   H7X18405   0.724   4.056   3.399  0.4332 -0.4538 -2.1468
  164SAPE   H7Y18406   0.895   4.047   3.406  1.8438 -0.9713  2.9549
  164SAPE   C3818407   0.795   3.936   3.573  0.3979  0.1111  0.9146
  164SAPE   H8X18408   0.898   3.910   3.605  0.1187 -1.4060  0.6348
  164SAPE   H8Y18409   0.728   3.848   3.576 -0.2148  0.5987  2.8418
  164SAPE   C3918410   0.743   4.037   3.680 -0.3463 -0.1247 -0.1043
  164SAPE   H9X18411   0.651   4.082   3.637  0.8245  1.9188 -0.5964
  164SAPE   H9Y18412   0.811   4.123   3.701 -2.5527  1.4947  0.8175
  164SAPE  C31018413   0.711   3.964   3.804 -0.1483  0.8064  1.0340
  164SAPE  H10X18414   0.733   3.858   3.779 -2.2079  0.8033 -1.1095
  164SAPE  H10Y18415   0.604   3.963   3.835 -1.0107 -1.3496 -1.5927
  164SAPE  C31118416   0.809   4.005   3.920  0.1822  0.7180  0.0169
  164SAPE  H11X18417   0.753   4.082   3.977 -0.5523 -0.7433  1.3252
  164SAPE  H11Y18418   0.907   4.046   3.886  1.6381 -1.5427  1.1707
  164SAPE  C31218419   0.840   3.885   4.017  0.1082 -0.5449  0.3185
  164SAPE  H12X18420   0.908   3.820   3.959 -0.9046  0.6977 -2.4651
  164SAPE  H12Y18421   0.747   3.831   4.045 -2.2331  1.7597 -2.3867
  164SAPE  C31318422   0.890   3.937   4.149  0.4950 -0.4738 -0.5736
  164SAPE  H13X18423   0.825   4.025   4.170 -1.0804 -1.5262 -0.8051
  164SAPE  H13Y18424   0.993   3.977   4.137  0.3707 -0.1286 -0.4988
  164SAPE  C31418425   0.873   3.830   4.261  0.0866 -0.0336  0.1149
  164SAPE  H14X18426   0.911   3.871   4.357 -1.6462  1.9498  0.0174
  164SAPE  H14Y18427   0.936   3.743   4.231  0.2067 -0.0574  0.4332
  164SAPE  C31518428   0.731   3.780   4.295 -0.0746 -0.0509 -0.7425
  164SAPE  H15X18429   0.727   3.738   4.398 -0.3788  1.2122 -0.2209
  164SAPE  H15Y18430   0.709   3.698   4.222 -1.3714  0.4988 -0.9917
  164SAPE  C31618431   0.610   3.874   4.288  0.3826  0.4639 -0.1778
  164SAPE  H16X18432   0.515   3.824   4.262  0.7332 -0.9045  1.0302
  164SAPE  H16Y18433   0.638   3.928   4.195 -2.3600  0.1343 -1.2976
  164SAPE  C31718434   0.609   3.979   4.397 -0.1364 -0.4857 -0.5198
  164SAPE  H17X18435   0.556   4.069   4.361  0.5569 -0.2084 -0.8786
  164SAPE  H17Y18436   0.716   4.008   4.409  0.2447 -0.6197 -2.9766
  164SAPE  C31818437   0.544   3.934   4.524 -0.2025 -0.9827  0.4276
  164SAPE  H18X18438   0.571   3.828   4.544 -1.8087 -1.5409 -0.2694
  164SAPE  H18Y18439   0.434   3.944   4.521 -0.1246  0.2760  0.9552
  164SAPE  H18Z18440   0.571   3.993   4.615  1.2371  0.2058 -0.7052
  165SAPE     N18441   5.128   5.990   2.376  0.0046 -0.1841 -0.3244
  165SAPE   HN118442   5.173   6.064   2.433  0.5292 -0.1077 -0.8329
  165SAPE   HN218443   5.160   6.000   2.277  0.1843  0.4416 -0.2044
  165SAPE   HN318444   5.026   6.006   2.386  0.0440  0.6951 -1.1949
  165SAPE   C1218445   5.170   5.853   2.427  0.8231  0.1456 -0.1344
  165SAPE  H12A18446   5.111   5.774   2.375  1.1880 -0.8710  0.9503
  165SAPE  H12B18447   5.141   5.853   2.534 -2.8700  1.2552 -0.9897
  165SAPE   C1118448   5.320   5.823   2.402 -0.0173 -0.6646  0.2918
  165SAPE  H11A18449   5.335   5.714   2.413  0.4498 -0.5038  1.3937
  165SAPE  H11B18450   5.381   5.877   2.478  0.1470  0.8755 -0.8727
  165SAPE     P18451   5.507   5.849   2.219  0.0568 -0.6476 -0.1729
  165SAPE   O1318452   5.554   5.709   2.203 -0.5391 -0.4225  0.5286
  165SAPE   O1418453   5.525   5.928   2.097  0.1179 -0.0182 -0.3434
  165SAPE   O1218454   5.360   5.848   2.268  0.2828 -0.4990 -0.0686
  165SAPE   O1118455   5.574   5.923   2.334  0.0697  0.4577 -0.1157
  165SAPE    C118456   5.717   5.945   2.331 -0.4198  0.0138 -0.0301
  165SAPE    HA18457   5.779   5.871   2.275 -0.9908 -0.6761  0.2456
  165SAPE    HB18458   5.739   6.046   2.289  2.4069 -1.0726 -1.4075
  165SAPE    C218459   5.775   5.950   2.476  0.7940 -0.4914 -0.6582
  165SAPE    HS18460   5.881   5.980   2.467  0.5356  0.6179 -0.1401
  165SAPE   O2118461   5.757   5.821   2.548  0.4032  0.3583  0.1883
  165SAPE   C2118462   5.869   5.784   2.610  0.0719  0.0450  0.4503
  165SAPE   O2218463   5.969   5.848   2.619 -0.7330  0.1556 -0.0060
  165SAPE   C2218464   5.839   5.659   2.695  0.4548  0.4107 -0.5407
  165SAPE   H2R18465   5.806   5.579   2.625  0.1021 -0.5969  0.7347
  165SAPE   H2S18466   5.934   5.631   2.743  0.5423  2.7939  0.8446
  165SAPE    C318467   5.692   6.056   2.555 -0.7018 -0.0532 -0.8634
  165SAPE    HX18468   5.586   6.024   2.570 -1.8461  3.0003 -1.8623
  165SAPE    HY18469   5.671   6.151   2.503 -2.7864 -0.6054 -1.1330
  165SAPE   O3118470   5.750   6.080   2.687 -0.3155  0.1997 -0.3042
  165SAPE   C3118471   5.864   6.150   2.689 -0.2085  0.3234  0.6212
  165SAPE   O3218472   5.907   6.214   2.595 -0.5532 -0.2091 -0.0041
  165SAPE   C3218473   5.920   6.150   2.833  0.2272  0.1222 -0.0844
  165SAPE   H2X18474   5.948   6.046   2.860 -1.2985 -1.0103 -2.5569
  165SAPE   H2Y18475   5.833   6.178   2.896  0.4938  0.9244 -0.0584
  165SAPE   C2318476   5.726   5.685   2.801 -0.4885  0.2281  0.1294
  165SAPE   H3R18477   5.629   5.716   2.756 -0.7626 -0.0010  0.5526
  165SAPE   H3S18478   5.759   5.767   2.868  0.3604  0.8898 -1.0689
  165SAPE   C2418479   5.705   5.566   2.895  0.6935 -0.0356  0.2794
  165SAPE   H4R18480   5.682   5.470   2.843 -1.6825  0.9105 -0.5547
  165SAPE   H4S18481   5.616   5.592   2.956  0.9638  1.0059  0.2417
  165SAPE   C2518482   5.808   5.547   2.992  0.2590 -0.3477 -0.3669
  165SAPE   H5R18483   5.868   5.455   2.976 -1.2453 -1.5898  0.8152
  165SAPE   C2618484   5.844   5.628   3.093  0.1082 -0.1709 -0.5780
  165SAPE   H6R18485   5.927   5.592   3.155 -0.2719  0.9547  0.6375
  165SAPE   C2718486   5.787   5.754   3.150 -0.8330 -0.4686 -0.1114
  165SAPE   H7R18487   5.744   5.733   3.251  0.3549 -0.9470  0.3084
  165SAPE   H7S18488   5.705   5.792   3.086  0.6911  3.6931  0.1246
  165SAPE   C2818489   5.890   5.864   3.152 -0.7981  0.5181 -0.0351
  165SAPE   H8R18490   5.916   5.906   3.054  0.1609  2.4691  1.0000
  165SAPE   C2918491   5.959   5.907   3.259 -0.4791 -0.0106  0.1703
  165SAPE   H9R18492   6.028   5.993   3.251 -2.5004  1.5343 -2.4251
  165SAPE  C21018493   5.953   5.847   3.399 -0.0610  0.0044  0.6887
  165SAPE  H10R18494   5.846   5.828   3.423 -0.0827 -1.5318 -0.4492
  165SAPE  H10S18495   5.989   5.931   3.463  1.7870  1.2962 -1.8485
  165SAPE  C21118496   6.028   5.721   3.416  0.4073 -0.2375 -0.3388
  165SAPE  H11R18497   6.056   5.666   3.325  0.2696 -0.9042  0.0131
  165SAPE  C21218498   6.045   5.663   3.536  1.2014 -0.6765 -0.0686
  165SAPE  H12R18499   6.098   5.567   3.538 -0.5090 -1.6892 -1.1310
  165SAPE  C21318500   6.003   5.732   3.666  0.3557 -0.3603 -0.0109
  165SAPE  H13R18501   6.001   5.649   3.740 -0.7876  0.0810  0.4637
  165SAPE  H13S18502   5.898   5.766   3.656  0.4800 -0.6805 -4.8993
  165SAPE  C21418503   6.100   5.844   3.719  0.7786 -0.3581  0.1257
  165SAPE  H14R18504   6.189   5.857   3.656  0.7818  2.3736  0.5740
  165SAPE  C21518505   6.089   5.920   3.831 -0.1356  0.4981  0.1922
  165SAPE  H15R18506   6.167   5.992   3.858  2.8322 -1.3920 -2.6587
  165SAPE  C21618507   5.979   5.907   3.933 -0.5166  0.0323  0.1114
  165SAPE  H16R18508   5.941   5.804   3.951 -2.1445  0.5742 -0.0179
  165SAPE  H16S18509   5.892   5.967   3.899 -1.0236 -0.6321  0.2018
  165SAPE  C21718510   6.021   5.956   4.069  0.2129 -0.8218 -0.6946
  165SAPE  H17R18511   6.041   6.065   4.065  2.6368 -1.2375 -1.3959
  165SAPE  H17S18512   6.110   5.904   4.108  0.3063  0.3290  0.7203
  165SAPE  C21818513   5.901   5.948   4.168  0.2385 -0.3276 -0.7413
  165SAPE  H18R18514   5.874   5.841   4.176  0.7904 -0.5154 -1.3198
  165SAPE  H18S18515   5.809   5.999   4.133 -0.5778 -0.9499  0.4164
  165SAPE  C21918516   5.932   5.991   4.312  0.3895  0.1362  0.4491
  165SAPE  H19R18517   5.991   6.085   4.310 -2.6251  2.1507 -1.3588
  165SAPE  H19S18518   5.985   5.904   4.354 -0.2164 -0.2098  0.5150
  165SAPE  C22018519   5.807   5.998   4.400  0.1502 -0.2135 -0.3903
  165SAPE  H20R18520   5.745   6.090   4.393  2.5858  1.7738  1.7626
  165SAPE  H20S18521   5.851   5.995   4.502 -2.0967 -0.0741  0.6330
  165SAPE  H20T18522   5.731   5.918   4.393 -0.4096  0.1571  1.0932
  165SAPE   C3318523   6.032   6.256   2.853  0.4215  0.5531  0.2081
  165SAPE   H3X18524   6.008   6.321   2.940  0.5047  1.0584 -0.1411
  165SAPE   H3Y18525   6.044   6.320   2.763  0.6439 -1.4692 -1.2717
  165SAPE   C3418526   6.156   6.184   2.893 -0.4416  0.5726  0.3896
  165SAPE   H4X18527   6.200   6.105   2.829  0.0629 -1.8656  3.4598
  165SAPE   H4Y18528   6.151   6.136   2.993  0.4810  0.5197  0.4175
  165SAPE   C3518529   6.276   6.285   2.904 -0.4379  0.3114 -0.7518
  165SAPE   H5X18530   6.254   6.370   2.972 -2.1717  1.9707 -3.2219
  165SAPE   H5Y18531   6.292   6.330   2.804  0.2881  2.2592  0.2007
  165SAPE   C3618532   6.410   6.209   2.944 -0.7474 -1.0755 -0.8603
  165SAPE   H6X18533   6.491   6.285   2.949 -1.1033 -0.7468  0.2995
  165SAPE   H6Y18534   6.420   6.131   2.866 -3.2527 -0.9548 -1.3783
  165SAPE   C3718535   6.396   6.151   3.083  0.1312 -0.5564  0.5299
  165SAPE   H7X18536   6.490   6.091   3.083  0.4862 -0.0201  1.4656
  165SAPE   H7Y18537   6.304   6.091   3.098 -0.7738  1.0554  1.7136
  165SAPE   C3818538   6.395   6.240   3.212  0.5097 -0.6573  0.1675
  165SAPE   H8X18539   6.294   6.286   3.214  0.1132 -1.4992  1.9356
  165SAPE   H8Y18540   6.473   6.319   3.210 -0.7752  0.6686  0.6393
  165SAPE   C3918541   6.421   6.159   3.331 -0.0317  0.1317 -0.2054
  165SAPE   H9X18542   6.519   6.107   3.325 -0.4117 -0.8359  1.3940
  165SAPE   H9Y18543   6.358   6.068   3.333 -1.1478  0.9030  0.6171
  165SAPE  C31018544   6.407   6.240   3.463 -0.1120 -1.1370  0.3377
  165SAPE  H10X18545   6.300   6.267   3.468 -0.3754 -0.8830 -3.5155
  165SAPE  H10Y18546   6.471   6.330   3.446 -1.5219 -0.2627 -0.5581
  165SAPE  C31118547   6.464   6.167   3.582 -0.4209 -0.7582  0.0301
  165SAPE  H11X18548   6.565   6.136   3.550  0.7253  3.0378 -0.5444
  165SAPE  H11Y18549   6.400   6.080   3.607 -0.6772 -1.2166 -2.0415
  165SAPE  C31218550   6.472   6.260   3.699 -0.5480 -0.0030  0.2725
  165SAPE  H12X18551   6.368   6.295   3.717 -0.9823 -2.1737  2.4752
  165SAPE  H12Y18552   6.545   6.340   3.673  1.8395 -1.8142  1.0613
  165SAPE  C31318553   6.516   6.193   3.829  0.7759  0.2504 -0.5699
  165SAPE  H13X18554   6.616   6.147   3.814 -0.7381 -2.8898 -2.0237
  165SAPE  H13Y18555   6.429   6.124   3.841 -1.5968  2.8147 -1.8137
  165SAPE  C31418556   6.519   6.297   3.933 -0.0986  0.1941 -0.8209
  165SAPE  H14X18557   6.421   6.349   3.921 -1.0981 -0.4725  3.0545
  165SAPE  H14Y18558   6.588   6.377   3.899 -1.6035  1.8362 -0.1635
  165SAPE  C31518559   6.550   6.239   4.071 -0.3630 -0.0075  0.2355
  165SAPE  H15X18560   6.547   6.315   4.152 -0.4009 -0.6886  0.8858
  165SAPE  H15Y18561   6.652   6.194   4.067 -1.0414 -1.5806 -3.5664
  165SAPE  C31618562   6.447   6.142   4.119  0.5159  0.5169  0.2544
  165SAPE  H16X18563   6.444   6.051   4.057 -2.2507  0.3454  0.4810
  165SAPE  H16Y18564   6.348   6.192   4.116  0.1030 -0.3581 -1.2173
  165SAPE  C31718565   6.474   6.089   4.257 -0.0033 -0.3090  0.2712
  165SAPE  H17X18566   6.498   6.181   4.314 -0.3809 -1.1150  1.7710
  165SAPE  H17Y18567   6.576   6.048   4.241  0.3621  1.6353 -3.6398
  165SAPE  C31818568   6.365   6.001   4.328 -0.6342 -0.4415 -0.8066
  165SAPE  H18X18569   6.401   5.896   4.326 -0.6403 -0.4391 -1.0237
  165SAPE  H18Y18570   6.267   6.017   4.280 -0.1878 -0.0579 -1.5970
  165SAPE  H18Z18571   6.358   6.041   4.432 -3.2752  1.3875 -1.6015
  166SAPE     N18572   6.658   6.115   1.708  0.4723 -0.5969 -0.0980
  166SAPE   HN118573   6.715   6.186   1.658 -0.5097 -0.2892 -0.8229
  166SAPE   HN218574   6.612   6.054   1.638 -1.3369 -0.2888  0.7556
  166SAPE   HN318575   6.592   6.165   1.772  1.8780  0.9106  0.2387
  166SAPE   C1218576   6.749   6.039   1.797  0.0153  0.8271  0.7366
  166SAPE  H12A18577   6.808   5.970   1.733 -1.7322 -0.7064  0.6999
  166SAPE  H12B18578   6.698   5.983   1.878 -0.8743 -0.2976 -0.5573
  166SAPE   C1118579   6.862   6.139   1.850 -0.4096  0.2563 -0.0354
  166SAPE  H11A18580   6.919   6.188   1.769  2.2590  0.9540  2.0931
  166SAPE  H11B18581   6.925   6.069   1.909 -0.0141  0.7127  0.0959
  166SAPE     P18582   6.863   6.319   2.047  0.3583  0.1254  0.0721
  166SAPE   O1318583   6.979   6.399   2.007  0.3791 -0.1211 -0.1138
  166SAPE   O1418584   6.750   6.377   2.120 -0.3861 -0.0566  0.5627
  166SAPE   O1218585   6.805   6.246   1.920 -0.2484 -0.2059  0.3476
  166SAPE   O1118586   6.913   6.202   2.135  0.4466  0.5346 -0.3351
  166SAPE    C118587   6.821   6.103   2.186 -0.3784 -0.0523 -0.1730
  166SAPE    HA18588   6.744   6.077   2.111 -0.1262 -1.1575 -0.0574
  166SAPE    HB18589   6.874   6.008   2.208 -0.4616  0.3518  1.9573
  166SAPE    C218590   6.753   6.130   2.329 -0.4366 -0.6653  0.7669
  166SAPE    HS18591   6.704   6.229   2.319  1.8883  0.4658 -0.0192
  166SAPE   O2118592   6.858   6.128   2.431 -0.2453  0.0896 -0.4302
  166SAPE   C2118593   6.914   6.247   2.464 -0.0706 -0.5505 -0.2054
  166SAPE   O2218594   6.866   6.355   2.433 -0.0956  0.3943  0.3578
  166SAPE   C2218595   7.038   6.229   2.536 -0.6807 -0.0679  0.0119
  166SAPE   H2R18596   7.020   6.148   2.610  3.0638 -0.2352  0.9712
  166SAPE   H2S18597   7.115   6.205   2.459 -2.6494  0.5278 -2.2498
  166SAPE    C318598   6.648   6.019   2.367 -0.5225  0.3784  0.3557
  166SAPE    HX18599   6.698   5.924   2.342 -0.1191  0.9975 -1.3022
  166SAPE    HY18600   6.554   6.013   2.308  0.3209  0.7971 -1.0623
  166SAPE   O3118601   6.611   6.028   2.508  0.1656 -0.7979  0.8943
  166SAPE   C3118602   6.694   5.946   2.587  0.1670 -0.3053 -0.5383
  166SAPE   O3218603   6.756   5.848   2.548  0.3703 -1.0075  1.0267
  166SAPE   C3218604   6.687   5.998   2.727 -0.8250  0.1322 -0.2020
  166SAPE   H2X18605   6.617   5.925   2.773  1.8172 -2.4600  0.0241
  166SAPE   H2Y18606   6.656   6.104   2.729 -0.6523  0.2043 -0.9811
  166SAPE   C2318607   7.084   6.351   2.619  0.4370 -0.4859  0.5163
  166SAPE   H3R18608   6.992   6.372   2.678  0.6493 -0.5150  0.8596
  166SAPE   H3S18609   7.093   6.434   2.545  0.0641 -0.4504  0.5115
  166SAPE   C2418610   7.210   6.328   2.697  0.5814 -0.1724  0.3116
  166SAPE   H4R18611   7.294   6.337   2.625  1.5129 -1.0166  1.2466
  166SAPE   H4S18612   7.225   6.227   2.742 -0.7684 -0.3402  0.4393
  166SAPE   C2518613   7.229   6.438   2.799 -0.0871  0.2633  0.0358
  166SAPE   H5R18614   7.241   6.539   2.758  2.1206 -0.4912 -1.3433
  166SAPE   C2618615   7.265   6.416   2.927  0.1630 -0.0478  0.5022
  166SAPE   H6R18616   7.267   6.510   2.984  1.1882  0.0141  0.3913
  166SAPE   C2718617   7.284   6.283   3.000  0.8385  0.0333 -0.0229
  166SAPE   H7R18618   7.280   6.196   2.930 -1.8932 -1.6511  2.0394
  166SAPE   H7S18619   7.198   6.273   3.070  0.2286  1.3126 -0.5603
  166SAPE   C2818620   7.420   6.280   3.065 -0.6913  0.5952 -0.2120
  166SAPE   H8R18621   7.505   6.293   2.996  1.2594 -1.1742  1.7241
  166SAPE   C2918622   7.450   6.245   3.185  0.1527  0.4626  0.0174
  166SAPE   H9R18623   7.552   6.235   3.223 -0.7058 -0.5737  2.2285
  166SAPE  C21018624   7.348   6.216   3.293 -0.0398  0.8764 -0.3361
  166SAPE  H10R18625   7.248   6.205   3.246 -0.8096  2.3746  0.8755
  166SAPE  H10S18626   7.338   6.304   3.361 -0.0703  0.1503  0.6260
  166SAPE  C21118627   7.386   6.085   3.361 -0.0628  0.3151 -0.5819
  166SAPE  H11R18628   7.463   6.021   3.316 -0.3999 -1.5192  1.3066
  166SAPE  C21218629   7.354   6.048   3.481 -0.4950 -0.8869 -0.2844
  166SAPE  H12R18630   7.374   5.946   3.516  0.3409 -1.0374 -1.1738
  166SAPE  C21318631   7.276   6.137   3.582 -0.4817 -0.3416  0.3054
  166SAPE  H13R18632   7.205   6.079   3.644 -1.5168  2.3925  1.8052
  166SAPE  H13S18633   7.221   6.217   3.528  2.6927  1.1304 -0.9984
  166SAPE  C21418634   7.376   6.202   3.667  0.0479 -0.1605 -0.5487
  166SAPE  H14R18635   7.413   6.301   3.637  0.7220  0.1060  1.0534
  166SAPE  C21518636   7.432   6.141   3.778 -0.3837  0.1658  0.5887
  166SAPE  H15R18637   7.515   6.194   3.825  0.5809 -1.4931  0.8413
  166SAPE  C21618638   7.385   6.013   3.848 -0.6329 -0.0964  0.6302
  166SAPE  H16R18639   7.429   5.930   3.788  2.3183  1.4896  0.4275
  166SAPE  H16S18640   7.275   5.998   3.843 -0.4642 -1.3010  0.2809
  166SAPE  C21718641   7.432   5.989   3.995  0.7573 -0.7643  0.3241
  166SAPE  H17R18642   7.387   5.898   4.038 -0.1268  1.1602  3.8243
  166SAPE  H17S18643   7.405   6.075   4.060  1.9336  0.2869 -0.5117
  166SAPE  C21818644   7.587   5.973   3.996  0.3246 -0.0173  0.5311
  166SAPE  H18R18645   7.634   6.043   3.925  2.3999 -2.1376 -0.3221
  166SAPE  H18S18646   7.609   5.873   3.952  0.4000  0.3964 -0.3878
  166SAPE  C21918647   7.650   5.974   4.134  0.5138  0.0880 -0.0283
  166SAPE  H19R18648   7.632   6.073   4.180  3.0752  1.2187 -1.2376
  166SAPE  H19S18649   7.760   5.969   4.122  0.6237  0.3430  0.8278
  166SAPE  C22018650   7.591   5.867   4.227  0.7186 -0.4376 -0.0302
  166SAPE  H20R18651   7.622   5.873   4.333 -1.2244  1.9549  0.4892
  166SAPE  H20S18652   7.624   5.768   4.189  0.8927 -0.5493  0.4135
  166SAPE  H20T18653   7.480   5.869   4.225  0.7350  0.0875 -0.8835
  166SAPE   C3318654   6.823   5.975   2.793 -0.4590 -0.7383  0.1787
  166SAPE   H3X18655   6.911   6.008   2.735 -1.1669  2.0596  0.5808
  166SAPE   H3Y18656   6.842   5.868   2.818 -0.0148 -0.5606  0.6178
  166SAPE   C3418657   6.845   6.062   2.918  0.3400  0.0447  0.4937
  166SAPE   H4X18658   6.751   6.049   2.976  0.4334 -0.0442  0.6242
  166SAPE   H4Y18659   6.852   6.172   2.905  2.9513 -0.2334 -1.1061
  166SAPE   C3518660   6.960   6.012   3.005  0.1959 -0.2804 -0.4095
  166SAPE   H5X18661   7.053   6.031   2.948  0.5831  0.2066  0.3646
  166SAPE   H5Y18662   6.946   5.902   3.015 -1.7352 -0.1539 -1.1536
  166SAPE   C3618663   6.944   6.070   3.146  0.7087  0.2837 -0.0959
  166SAPE   H6X18664   6.838   6.048   3.171  1.1694  0.0276  1.8264
  166SAPE   H6Y18665   6.966   6.177   3.161 -1.5891  0.4152  3.8940
  166SAPE   C3718666   7.030   5.991   3.248  0.3868  0.0522 -0.0743
  166SAPE   H7X18667   7.138   6.011   3.231  0.7800 -0.8052  1.2093
  166SAPE   H7Y18668   7.020   5.880   3.249  1.0788 -0.0463  1.8867
  166SAPE   C3818669   6.995   6.035   3.390 -0.1679 -0.0111  0.2730
  166SAPE   H8X18670   7.035   6.139   3.394  2.4821 -0.9057 -0.7398
  166SAPE   H8Y18671   7.057   5.987   3.469  1.9716  0.3105 -1.0993
  166SAPE   C3918672   6.846   6.019   3.429  0.2161  0.3057  1.0166
  166SAPE   H9X18673   6.808   5.923   3.388  0.2120 -0.1251  1.9858
  166SAPE   H9Y18674   6.793   6.107   3.387  1.2447  0.3758 -0.2167
  166SAPE  C31018675   6.820   6.014   3.585  0.7535  0.5612  0.5483
  166SAPE  H10X18676   6.869   5.926   3.633 -2.6133 -1.9295 -0.1554
  166SAPE  H10Y18677   6.712   5.999   3.607  1.2228 -1.3825  1.8261
  166SAPE  C31118678   6.881   6.124   3.664  0.2201  0.4119 -0.3195
  166SAPE  H11X18679   6.991   6.119   3.657  0.1123 -0.8491 -1.5624
  166SAPE  H11Y18680   6.854   6.124   3.772  1.3815 -1.0368  0.0082
  166SAPE  C31218681   6.847   6.267   3.622 -0.2810  0.3214 -0.3158
  166SAPE  H12X18682   6.750   6.305   3.662  0.1230 -1.8006  3.0614
  166SAPE  H12Y18683   6.857   6.272   3.511  2.3586 -1.7107 -0.2736
  166SAPE  C31318684   6.946   6.373   3.689  0.3330  0.3083 -0.2317
  166SAPE  H13X18685   6.911   6.474   3.661  0.2357  0.5998  0.8777
  166SAPE  H13Y18686   7.046   6.368   3.641 -0.1808  0.5623 -1.3593
  166SAPE  C31418687   6.951   6.357   3.839 -0.5757 -1.3045  0.8696
  166SAPE  H14X18688   6.989   6.258   3.870  0.6437 -0.4069  2.3953
  166SAPE  H14Y18689   6.845   6.370   3.872 -0.7248  3.4637 -0.7225
  166SAPE  C31518690   7.041   6.470   3.897  0.1282  0.2013  0.2021
  166SAPE  H15X18691   7.028   6.473   4.008 -1.9082  2.2304 -0.0277
  166SAPE  H15Y18692   7.003   6.568   3.861 -1.8025  0.5092  2.7457
  166SAPE  C31618693   7.188   6.462   3.863 -0.2078 -0.4303 -0.1911
  166SAPE  H16X18694   7.197   6.465   3.753 -1.7977  3.5666 -0.3810
  166SAPE  H16Y18695   7.233   6.364   3.889 -0.4073 -0.5032 -0.1185
  166SAPE  C31718696   7.265   6.574   3.933 -0.1645 -0.0796  0.3478
  166SAPE  H17X18697   7.246   6.572   4.042  0.0669 -0.2729  0.3852
  166SAPE  H17Y18698   7.229   6.669   3.887  2.6341  0.8235 -0.2221
  166SAPE  C31818699   7.414   6.578   3.897 -0.5074  0.0819  0.1777
  166SAPE  H18X18700   7.471   6.655   3.953  0.4424 -0.6580  0.2376
  166SAPE  H18Y18701   7.434   6.576   3.787  2.5882 -0.6173  0.6611
  166SAPE  H18Z18702   7.465   6.489   3.938 -0.5460  0.0360  0.1260
  167SAPE     N18703   6.320   2.054   2.324 -0.3146 -1.1883 -0.0811
  167SAPE   HN118704   6.328   1.962   2.372  0.0717 -2.3416 -2.2114
  167SAPE   HN218705   6.404   2.114   2.340 -0.0059 -1.9910  1.5234
  167SAPE   HN318706   6.232   2.106   2.341  0.2274  0.9578 -3.0038
  167SAPE   C1218707   6.335   2.017   2.175 -0.8094  0.1316  0.2654
  167SAPE  H12A18708   6.288   2.102   2.121 -2.6140 -1.1400 -0.2573
  167SAPE  H12B18709   6.288   1.922   2.141 -1.0299  0.2810  0.1506
  167SAPE   C1118710   6.482   2.004   2.133  0.1180 -0.0721 -0.1962
  167SAPE  H11A18711   6.478   1.997   2.022 -2.2563  0.7256 -0.2240
  167SAPE  H11B18712   6.527   1.904   2.151 -1.0131 -0.5753 -0.1088
  167SAPE     P18713   6.687   2.152   2.078 -0.0137  0.3374  0.0207
  167SAPE   O1318714   6.791   2.042   2.065  0.5639  0.5869  0.4451
  167SAPE   O1418715   6.636   2.202   1.948 -0.0635 -0.1811 -0.2773
  167SAPE   O1218716   6.562   2.119   2.174 -0.3867 -0.3783 -0.4673
  167SAPE   O1118717   6.765   2.275   2.145 -0.1700 -0.6099  0.2955
  167SAPE    C118718   6.875   2.251   2.235  0.6561 -0.8291  0.5010
  167SAPE    HA18719   6.928   2.155   2.213  0.1390 -0.8218 -0.8665
  167SAPE    HB18720   6.952   2.330   2.236  1.1441 -1.2701 -0.6567
  167SAPE    C218721   6.812   2.243   2.385 -0.3155  0.0799  0.4090
  167SAPE    HS18722   6.900   2.248   2.452 -1.7509 -0.1974  2.3918
  167SAPE   O2118723   6.744   2.115   2.416 -0.2959 -0.1214  0.7281
  167SAPE   C2118724   6.825   2.002   2.409  0.3046 -0.6277 -0.5683
  167SAPE   O2218725   6.945   2.006   2.398 -0.3089  0.5391  0.3834
  167SAPE   C2218726   6.734   1.884   2.455 -0.5488 -0.2018 -0.0302
  167SAPE   H2R18727   6.626   1.909   2.452 -1.1148 -2.3100  0.9741
  167SAPE   H2S18728   6.759   1.812   2.375 -0.7516 -2.3532  1.7411
  167SAPE    C318729   6.729   2.372   2.411  0.2187  0.0792 -0.7781
  167SAPE    HX18730   6.656   2.378   2.327 -1.1796 -2.0406  0.2007
  167SAPE    HY18731   6.790   2.464   2.402  1.3372 -0.7057 -1.3853
  167SAPE   O3118732   6.654   2.378   2.538 -0.0720  0.9734 -0.2419
  167SAPE   C3118733   6.554   2.291   2.550  0.1073 -0.0012  0.4272
  167SAPE   O3218734   6.491   2.246   2.458  0.6923  0.7507  0.4176
  167SAPE   C3218735   6.524   2.264   2.699  0.4227 -0.2959 -0.6489
  167SAPE   H2X18736   6.545   2.362   2.747 -5.2140 -0.1375  2.3541
  167SAPE   H2Y18737   6.600   2.195   2.741  0.5964 -0.1943 -0.7948
  167SAPE   C2318738   6.763   1.822   2.597  0.8621 -0.1839  0.5328
  167SAPE   H3R18739   6.873   1.810   2.586  0.5821 -0.9854 -2.2215
  167SAPE   H3S18740   6.728   1.717   2.612  1.1686 -0.2045  1.1682
  167SAPE   C2418741   6.732   1.910   2.719  1.3276  0.1406  0.4051
  167SAPE   H4R18742   6.760   2.015   2.700 -1.3801  0.8650 -0.1244
  167SAPE   H4S18743   6.787   1.871   2.807 -1.3285  0.9698  2.6081
  167SAPE   C2518744   6.583   1.910   2.751  0.2974  0.2226  0.2580
  167SAPE   H5R18745   6.521   1.935   2.664  0.6267  0.9867  0.2370
  167SAPE   C2618746   6.515   1.888   2.870 -0.4314 -0.0662  0.5341
  167SAPE   H6R18747   6.406   1.905   2.863 -0.2231  0.5571 -2.2083
  167SAPE   C2718748   6.584   1.858   3.003 -0.9810 -1.0963  0.3174
  167SAPE   H7R18749   6.541   1.922   3.083 -2.0694 -1.1076 -0.2342
  167SAPE   H7S18750   6.693   1.881   3.007 -0.7117 -2.3961  0.8753
  167SAPE   C2818751   6.588   1.712   3.042  0.1467  0.2422  0.0565
  167SAPE   H8R18752   6.587   1.644   2.955 -0.2984 -0.4646  0.6027
  167SAPE   C2918753   6.624   1.663   3.166 -0.5678  0.4345  0.2429
  167SAPE   H9R18754   6.633   1.555   3.185 -1.1118 -0.1698 -2.5234
  167SAPE  C21018755   6.677   1.740   3.288  0.7096 -0.5245 -0.3809
  167SAPE  H10R18756   6.747   1.821   3.257  0.9378 -0.3159  0.6371
  167SAPE  H10S18757   6.743   1.680   3.355 -0.0258 -0.0782  0.7735
  167SAPE  C21118758   6.550   1.798   3.353  0.7107  0.2431  0.1867
  167SAPE  H11R18759   6.484   1.853   3.285 -1.2393 -1.8873  0.2547
  167SAPE  C21218760   6.523   1.806   3.483  0.0661 -0.5827  0.2037
  167SAPE  H12R18761   6.425   1.847   3.512 -0.6383 -1.2050 -1.1848
  167SAPE  C21318762   6.610   1.759   3.595 -0.1947  0.1188 -0.1652
  167SAPE  H13R18763   6.691   1.830   3.623 -0.9856  1.3635 -0.9355
  167SAPE  H13S18764   6.667   1.666   3.574  1.1750  0.4750  1.7420
  167SAPE  C21418765   6.527   1.723   3.713  0.3327 -0.1228 -0.2496
  167SAPE  H14R18766   6.462   1.634   3.702 -0.6618  0.4264  0.9434
  167SAPE  C21518767   6.517   1.792   3.825  0.3660  1.0639  0.4018
  167SAPE  H15R18768   6.433   1.755   3.885 -0.9566  0.3324 -1.7845
  167SAPE  C21618769   6.594   1.908   3.868  0.0961 -0.5192 -0.5637
  167SAPE  H16R18770   6.525   1.965   3.934  0.2318 -0.6618 -0.2974
  167SAPE  H16S18771   6.619   1.981   3.787 -0.3963 -0.3328 -0.5513
  167SAPE  C21718772   6.730   1.867   3.929 -0.8725  0.4763 -0.1240
  167SAPE  H17R18773   6.759   1.775   3.875 -2.6249  0.5009 -1.2054
  167SAPE  H17S18774   6.709   1.849   4.037 -2.9905  1.4676 -0.3013
  167SAPE  C21818775   6.846   1.972   3.913  0.0171 -0.1826 -0.2637
  167SAPE  H18R18776   6.835   2.012   3.810 -1.1266  1.9552  0.6131
  167SAPE  H18S18777   6.944   1.922   3.933 -1.8421 -3.0252  2.7454
  167SAPE  C21918778   6.830   2.096   3.998  0.2812  0.5505  0.3785
  167SAPE  H19R18779   6.867   2.077   4.101  0.6701  1.0734  0.3410
  167SAPE  H19S18780   6.722   2.122   3.989  0.5009  1.7945  1.1526
  167SAPE  C22018781   6.902   2.218   3.942  0.4781 -0.2478 -0.2751
  167SAPE  H20R18782   6.854   2.242   3.845  0.2166 -0.0464 -0.0963
  167SAPE  H20S18783   7.010   2.212   3.915  0.6018 -0.0083  0.1635
  167SAPE  H20T18784   6.895   2.301   4.015  1.7196 -0.1116 -0.2840
  167SAPE   C3318785   6.370   2.236   2.721  0.2561 -0.2760 -0.2537
  167SAPE   H3X18786   6.353   2.128   2.698 -0.5301 -0.0700 -0.7160
  167SAPE   H3Y18787   6.298   2.296   2.661 -1.5266  0.4074  2.3950
  167SAPE   C3418788   6.327   2.271   2.864 -0.2586 -0.3115  0.7004
  167SAPE   H4X18789   6.343   2.379   2.884 -0.0534 -0.4197  1.1218
  167SAPE   H4Y18790   6.397   2.227   2.938  0.6356  2.1159  1.4014
  167SAPE   C3518791   6.190   2.229   2.900  1.1710 -0.1559  0.3054
  167SAPE   H5X18792   6.174   2.119   2.906 -2.3121  0.2692  4.6368
  167SAPE   H5Y18793   6.106   2.270   2.841 -0.7208  1.4518  3.7696
  167SAPE   C3618794   6.149   2.275   3.043 -0.0518 -0.4781 -0.0583
  167SAPE   H6X18795   6.043   2.306   3.027 -0.9360 -2.8816  0.6932
  167SAPE   H6Y18796   6.201   2.367   3.074 -0.0309 -1.0162  1.5751
  167SAPE   C3718797   6.176   2.166   3.142  0.3573 -0.2908 -0.4215
  167SAPE   H7X18798   6.282   2.132   3.143  1.0802  1.8097  0.0393
  167SAPE   H7Y18799   6.114   2.078   3.114 -0.1099 -0.3798  0.8288
  167SAPE   C3818800   6.129   2.208   3.279  1.0214  0.6012  0.2419
  167SAPE   H8X18801   6.027   2.251   3.287 -0.0687 -2.1487  3.2816
  167SAPE   H8Y18802   6.196   2.287   3.318  0.1853  2.1157 -1.2516
  167SAPE   C3918803   6.133   2.091   3.379  0.0366 -0.1359 -0.3501
  167SAPE   H9X18804   6.239   2.067   3.400  0.1171 -1.5702 -2.1619
  167SAPE   H9Y18805   6.090   1.996   3.339  1.1403 -0.6296 -0.3893
  167SAPE  C31018806   6.065   2.115   3.510 -0.5539  0.5390  0.4329
  167SAPE  H10X18807   5.956   2.100   3.493 -0.8371 -0.3708  2.6628
  167SAPE  H10Y18808   6.076   2.223   3.534  3.4844  0.2330  0.6611
  167SAPE  C31118809   6.111   2.033   3.628  0.2418 -0.3392  0.1984
  167SAPE  H11X18810   6.214   2.068   3.650 -0.9564  2.2290  2.2501
  167SAPE  H11Y18811   6.116   1.925   3.600  0.9799 -0.5683  1.1737
  167SAPE  C31218812   6.043   2.069   3.759  0.5172  0.0318  0.2910
  167SAPE  H12X18813   5.939   2.031   3.750  0.7128 -0.1549 -1.8388
  167SAPE  H12Y18814   6.050   2.179   3.770  1.0072  0.2046 -1.4478
  167SAPE  C31318815   6.107   2.005   3.889  0.3578 -0.0753  0.3376
  167SAPE  H13X18816   6.058   2.047   3.980  0.3395  0.5040  0.0626
  167SAPE  H13Y18817   6.214   2.031   3.892  0.7056 -1.4993  1.6768
  167SAPE  C31418818   6.093   1.857   3.887  0.0470  0.1450  1.0817
  167SAPE  H14X18819   6.161   1.813   3.811 -0.8732 -0.1536  0.4256
  167SAPE  H14Y18820   5.992   1.838   3.846  0.4000 -0.8762  0.6493
  167SAPE  C31518821   6.108   1.772   4.012 -0.0421 -1.2816  1.0411
  167SAPE  H15X18822   6.025   1.772   4.086 -1.2414 -0.5797 -0.2627
  167SAPE  H15Y18823   6.205   1.793   4.060  0.9345 -1.7843 -0.6310
  167SAPE  C31618824   6.121   1.622   3.982 -0.2272 -0.4289  0.0352
  167SAPE  H16X18825   6.142   1.572   4.078  1.5081  0.1535 -0.0150
  167SAPE  H16Y18826   6.211   1.605   3.918 -0.2586 -0.4309 -0.0087
  167SAPE  C31718827   5.995   1.569   3.918 -0.5122 -0.0633 -0.3232
  167SAPE  H17X18828   5.991   1.616   3.817  1.8612 -0.0651 -0.4682
  167SAPE  H17Y18829   5.908   1.610   3.973  0.5029  2.4848 -0.4828
  167SAPE  C31818830   5.985   1.413   3.899 -0.4967 -0.2377 -0.0666
  167SAPE  H18X18831   6.068   1.373   3.837  0.2453  2.6094 -1.0730
  167SAPE  H18Y18832   5.893   1.386   3.843 -1.0554 -2.2821  1.6868
  167SAPE  H18Z18833   5.991   1.350   3.990  1.7881  0.1318  0.1083
  168SAPE     N18834   3.296   5.318   1.880 -0.3659  0.5640  0.1062
  168SAPE   HN118835   3.294   5.360   1.975  2.5479 -1.1991  1.0684
  168SAPE   HN218836   3.384   5.344   1.832  0.3744  0.3554  1.3309
  168SAPE   HN318837   3.216   5.360   1.827 -0.3269 -1.1662 -1.4186
  168SAPE   C1218838   3.273   5.176   1.896  0.7291  0.2878 -0.1338
  168SAPE  H12A18839   3.345   5.129   1.967  1.3565  2.4876  0.7876
  168SAPE  H12B18840   3.298   5.132   1.798  2.1534  0.6017  0.0634
  168SAPE   C1118841   3.126   5.133   1.921  0.1312 -0.9459 -0.2121
  168SAPE  H11A18842   3.066   5.199   1.855  1.0012  3.3662  2.8346
  168SAPE  H11B18843   3.113   5.171   2.025  0.7227  1.6175 -1.0005
  168SAPE     P18844   2.991   4.918   1.971  0.4651  0.0173 -0.0978
  168SAPE   O1318845   2.885   4.955   1.880  0.5634  0.0287  0.7980
  168SAPE   O1418846   3.017   4.774   1.986 -0.2832  0.2409 -0.1734
  168SAPE   O1218847   3.125   4.992   1.912  0.1117 -0.0133  0.6193
  168SAPE   O1118848   2.974   4.985   2.113  0.7184 -0.1234 -0.5018
  168SAPE    C118849   2.984   4.914   2.227  0.3756 -0.4857 -0.4541
  168SAPE    HA18850   3.072   4.847   2.228  0.2482 -0.6518 -0.1129
  168SAPE    HB18851   2.990   4.986   2.312  0.0748  0.1103 -0.9283
  168SAPE    C218852   2.865   4.819   2.261 -0.9885  0.2870  0.5068
  168SAPE    HS18853   2.870   4.746   2.177 -1.6816  0.2648  0.4758
  168SAPE   O2118854   2.746   4.894   2.256  0.2908  0.4905 -0.7212
  168SAPE   C2118855   2.630   4.827   2.248  0.4872 -0.3634 -0.1247
  168SAPE   O2218856   2.615   4.705   2.242  0.0339 -0.2048  0.4333
  168SAPE   C2218857   2.519   4.928   2.251  0.5952  0.5294 -0.2178
  168SAPE   H2R18858   2.532   4.997   2.166 -1.4045  0.9125 -0.2702
  168SAPE   H2S18859   2.422   4.881   2.223  0.2009  0.7988  0.6376
  168SAPE    C318860   2.882   4.745   2.397 -0.2278  0.2363  0.5846
  168SAPE    HX18861   2.972   4.681   2.388 -0.1577  0.2990  0.8491
  168SAPE    HY18862   2.795   4.677   2.416 -1.2216  0.1303 -3.3842
  168SAPE   O3118863   2.876   4.831   2.510  0.4224  0.1902 -0.1041
  168SAPE   C3118864   2.987   4.874   2.559 -0.3351  0.2013 -0.1398
  168SAPE   O3218865   3.092   4.854   2.504  0.0830 -0.1167  0.6816
  168SAPE   C3218866   2.963   4.948   2.686  0.2295  0.0388 -0.1214
  168SAPE   H2X18867   2.891   5.030   2.667  0.7777  0.8044  1.0040
  168SAPE   H2Y18868   3.052   5.004   2.721  0.5140 -1.0550  0.9778
  168SAPE   C2318869   2.503   5.016   2.376 -0.2155  0.2461  0.0704
  168SAPE   H3R18870   2.444   5.100   2.335  1.2855  0.3402 -2.0142
  168SAPE   H3S18871   2.597   5.062   2.414  0.0402 -0.0964 -0.1410
  168SAPE   C2418872   2.420   4.958   2.497 -0.5549  0.3363  0.1931
  168SAPE   H4R18873   2.503   4.970   2.569 -0.0945  1.0363 -0.4527
  168SAPE   H4S18874   2.398   4.849   2.494 -0.5755  0.3206  0.7636
  168SAPE   C2518875   2.298   5.032   2.546 -0.1096 -0.2908 -0.3363
  168SAPE   H5R18876   2.219   5.030   2.468  0.3589 -0.3230 -0.8160
  168SAPE   C2618877   2.265   5.098   2.661 -0.0630  0.2477  0.1028
  168SAPE   H6R18878   2.162   5.137   2.670 -0.7825 -1.0353 -1.8486
  168SAPE   C2718879   2.351   5.121   2.787 -0.0795  1.0375  0.7066
  168SAPE   H7R18880   2.319   5.221   2.825 -2.2885 -0.5080  3.2976
  168SAPE   H7S18881   2.461   5.125   2.769 -0.1290 -0.1018  0.0461
  168SAPE   C2818882   2.320   5.017   2.891  0.4681  0.5084 -0.2291
  168SAPE   H8R18883   2.270   4.925   2.858  1.0511  0.5942 -1.4126
  168SAPE   C2918884   2.312   5.037   3.017 -0.8424  0.1096 -0.7124
  168SAPE   H9R18885   2.294   4.948   3.079  1.3977 -1.2286 -1.8370
  168SAPE  C21018886   2.345   5.167   3.099 -0.5103  0.3152  0.6065
  168SAPE  H10R18887   2.307   5.147   3.202  1.5055  1.4817  1.6494
  168SAPE  H10S18888   2.298   5.257   3.055 -0.1996  0.0198 -0.3613
  168SAPE  C21118889   2.498   5.185   3.111 -0.1702  0.2623 -0.2170
  168SAPE  H11R18890   2.558   5.130   3.037  3.6723  1.9947  1.3411
  168SAPE  C21218891   2.558   5.249   3.209  0.0200  0.0497  0.2036
  168SAPE  H12R18892   2.667   5.263   3.219 -0.2405  0.5089  3.3324
  168SAPE  C21318893   2.485   5.329   3.318  0.0243  0.1056  0.0909
  168SAPE  H13R18894   2.380   5.343   3.286  0.2946 -2.0507 -1.9694
  168SAPE  H13S18895   2.535   5.428   3.332  2.0938 -0.7652 -0.6630
  168SAPE  C21418896   2.483   5.254   3.444  0.1048  0.1913  0.4572
  168SAPE  H14R18897   2.420   5.165   3.431 -0.4428  0.8120 -1.5231
  168SAPE  C21518898   2.550   5.262   3.561  0.0553 -0.1365 -0.7153
  168SAPE  H15R18899   2.535   5.175   3.627  0.9238 -0.6059 -1.1176
  168SAPE  C21618900   2.663   5.353   3.602 -0.2881 -0.1913 -0.4570
  168SAPE  H16R18901   2.708   5.311   3.695  1.7592  0.5784 -1.0469
  168SAPE  H16S18902   2.623   5.454   3.629  1.2441  0.1214  0.8033
  168SAPE  C21718903   2.778   5.396   3.502  0.3499  0.9133  0.1406
  168SAPE  H17R18904   2.738   5.468   3.426 -1.6797  0.1581  0.4175
  168SAPE  H17S18905   2.820   5.304   3.457  0.0920  1.0778 -0.4508
  168SAPE  C21818906   2.892   5.464   3.576 -0.2754  0.2931 -0.4314
  168SAPE  H18R18907   2.939   5.391   3.645  1.6636  2.1877  0.3998
  168SAPE  H18S18908   2.858   5.544   3.646  1.9445  0.3252  0.7270
  168SAPE  C21918909   3.010   5.510   3.493  0.4887 -0.8107 -0.5502
  168SAPE  H19R18910   2.977   5.592   3.426 -0.5806 -2.4029 -2.0854
  168SAPE  H19S18911   3.024   5.429   3.417  0.5461 -1.3775  0.0562
  168SAPE  C22018912   3.149   5.547   3.552  0.0851  0.9152 -0.0664
  168SAPE  H20R18913   3.148   5.645   3.605  3.1776 -0.6031  3.1944
  168SAPE  H20S18914   3.220   5.553   3.467 -1.2826 -1.8781 -1.5364
  168SAPE  H20T18915   3.194   5.479   3.626  1.0989  1.6936  0.0578
  168SAPE   C3318916   2.931   4.850   2.801  0.1400 -0.3495 -0.2482
  168SAPE   H3X18917   2.866   4.770   2.759 -1.0363  0.1486  0.5894
  168SAPE   H3Y18918   2.870   4.905   2.875  0.9264 -2.2054  1.8836
  168SAPE   C3418919   3.060   4.812   2.873 -0.6489 -0.0528  0.5574
  168SAPE   H4X18920   3.100   4.909   2.911 -0.5347 -0.1680  0.7361
  168SAPE   H4Y18921   3.133   4.764   2.805 -0.6540 -0.3834  0.7866
  168SAPE   C3518922   3.035   4.723   2.993  0.6885 -0.4713  0.1011
  168SAPE   H5X18923   3.132   4.676   3.019  0.1377 -1.0263  1.1995
  168SAPE   H5Y18924   2.970   4.646   2.945 -1.9395  2.1309 -0.8086
  168SAPE   C3618925   2.980   4.798   3.119 -0.1570 -0.1461 -0.0057
  168SAPE   H6X18926   2.975   4.716   3.194  2.7695  0.5122  1.0223
  168SAPE   H6Y18927   2.882   4.834   3.081 -0.3672 -0.7109 -0.0080
  168SAPE   C3718928   3.061   4.922   3.156  0.3150 -0.2232  0.4639
  168SAPE   H7X18929   3.018   5.003   3.093  3.0122  0.3088 -0.8470
  168SAPE   H7Y18930   3.170   4.915   3.138  0.1929 -1.8171  0.2040
  168SAPE   C3818931   3.034   4.960   3.300 -0.1642 -0.9132 -0.2125
  168SAPE   H8X18932   3.086   4.886   3.365  2.1087 -1.0249 -2.0192
  168SAPE   H8Y18933   2.926   4.947   3.321 -0.2249  0.6015  0.4892
  168SAPE   C3918934   3.074   5.100   3.346  0.1567  0.1500 -0.1236
  168SAPE   H9X18935   2.996   5.173   3.317 -1.7408 -2.4594 -2.0580
  168SAPE   H9Y18936   3.172   5.129   3.301  0.4373  1.3040  1.1619
  168SAPE  C31018937   3.078   5.121   3.505  0.8191  0.6709  0.6253
  168SAPE  H10X18938   2.990   5.074   3.553  1.1102  0.2479  0.7526
  168SAPE  H10Y18939   3.077   5.230   3.524  1.5890  0.5016  1.7289
  168SAPE  C31118940   3.205   5.075   3.577 -0.2622 -0.2903 -0.4108
  168SAPE  H11X18941   3.280   5.154   3.553 -0.5063  0.2496  0.5268
  168SAPE  H11Y18942   3.238   4.977   3.536  4.3245  0.5900  0.5430
  168SAPE  C31218943   3.176   5.071   3.732  0.1341  0.0731 -0.3966
  168SAPE  H12X18944   3.270   5.048   3.785  0.1239  0.4074 -0.2291
  168SAPE  H12Y18945   3.104   4.990   3.756  0.2516  0.4539  1.4343
  168SAPE  C31318946   3.136   5.205   3.807  0.1248  0.7841  0.2228
  168SAPE  H13X18947   3.039   5.247   3.773 -0.8952 -0.0285  2.0070
  168SAPE  H13Y18948   3.209   5.277   3.765  2.4804 -0.3985  2.0806
  168SAPE  C31418949   3.146   5.203   3.963  0.1644 -0.9104  0.0870
  168SAPE  H14X18950   3.251   5.200   3.999 -0.3307 -0.9212  1.5833
  168SAPE  H14Y18951   3.078   5.130   4.013 -1.4592 -0.0633 -0.7780
  168SAPE  C31518952   3.101   5.340   4.021 -0.1006 -0.0933  0.4591
  168SAPE  H15X18953   3.122   5.339   4.130 -0.4423  1.2660  0.5439
  168SAPE  H15Y18954   2.996   5.369   4.002 -0.7435 -1.1413  2.1906
  168SAPE  C31618955   3.190   5.451   3.971 -0.5276 -0.0645 -0.6505
  168SAPE  H16X18956   3.126   5.509   3.901  0.2570  1.5626 -0.0718
  168SAPE  H16Y18957   3.284   5.418   3.921 -0.7427  0.3996 -1.3790
  168SAPE  C31718958   3.211   5.562   4.075 -0.2665  0.5500  0.1136
  168SAPE  H17X18959   3.121   5.605   4.124  0.6542 -0.3329  2.7640
  168SAPE  H17Y18960   3.268   5.644   4.025  1.3468 -0.8684 -0.4876
  168SAPE  C31818961   3.309   5.524   4.193  0.0450  0.0369 -0.5831
  168SAPE  H18X18962   3.268   5.430   4.236 -1.8472 -0.4500 -3.1832
  168SAPE  H18Y18963   3.313   5.616   4.254 -0.6574 -0.3011 -0.0154
  168SAPE  H18Z18964   3.412   5.500   4.156  0.3947 -0.5188  0.7042
  169SAPE     N18965   6.481   2.411   1.946 -0.0259 -0.3318 -0.2899
  169SAPE   HN118966   6.513   2.313   1.957 -2.7372 -1.2638  0.0525
  169SAPE   HN218967   6.404   2.421   1.877  0.2861  1.7117 -0.4114
  169SAPE   HN318968   6.554   2.466   1.897 -0.3490  0.9877  0.6278
  169SAPE   C1218969   6.430   2.470   2.072 -0.4509  0.1481 -0.0905
  169SAPE  H12A18970   6.457   2.577   2.070 -1.5055  0.4560  0.8158
  169SAPE  H12B18971   6.497   2.420   2.146 -0.4132 -0.1827 -0.3446
  169SAPE   C1118972   6.280   2.442   2.097  0.4174  0.2494  0.0056
  169SAPE  H11A18973   6.232   2.534   2.056  2.6517  1.5996  0.2107
  169SAPE  H11B18974   6.265   2.448   2.207  0.5533  2.4527 -0.0437
  169SAPE     P18975   6.073   2.317   1.996  0.4131 -0.2786  0.1663
  169SAPE   O1318976   6.041   2.429   1.904 -0.3954  0.3626  0.1690
  169SAPE   O1418977   6.053   2.179   1.944  0.1694 -0.2338 -0.8305
  169SAPE   O1218978   6.224   2.326   2.031 -0.6610  0.2778  0.6162
  169SAPE   O1118979   5.998   2.331   2.130  0.4641  0.7216  0.3581
  169SAPE    C118980   5.865   2.383   2.131 -0.4098  0.2232  0.3337
  169SAPE    HA18981   5.858   2.479   2.076  1.7083 -0.7014 -1.7164
  169SAPE    HB18982   5.805   2.312   2.071 -0.4068  0.9668 -0.5801
  169SAPE    C218983   5.808   2.395   2.275 -0.0481  0.0336  0.2089
  169SAPE    HS18984   5.735   2.479   2.274  0.2815  0.3240 -0.1727
  169SAPE   O2118985   5.917   2.416   2.366 -0.1241  0.4609  0.1966
  169SAPE   C2118986   5.977   2.533   2.356 -0.4982  0.3823  0.5862
  169SAPE   O2218987   5.940   2.625   2.292  0.1397 -0.0405  1.1898
  169SAPE   C2218988   6.101   2.549   2.448  0.1009  0.0436  0.1343
  169SAPE   H2R18989   6.179   2.469   2.444  1.7655  1.5523  1.0099
  169SAPE   H2S18990   6.167   2.633   2.418 -0.5558 -0.1669 -2.0993
  169SAPE    C318991   5.741   2.267   2.315 -0.0818  0.2853 -0.4273
  169SAPE    HX18992   5.804   2.176   2.310 -0.8491 -0.2203 -1.1927
  169SAPE    HY18993   5.664   2.242   2.238 -0.5413  0.5479 -0.0565
  169SAPE   O3118994   5.688   2.274   2.451 -0.1111  0.4061 -0.2348
  169SAPE   C3118995   5.759   2.236   2.556  0.6124 -0.3661  0.2357
  169SAPE   O3218996   5.872   2.190   2.555 -0.1268 -0.5134  0.5045
  169SAPE   C3218997   5.673   2.262   2.683  0.2706  0.0439  0.4367
  169SAPE   H2X18998   5.581   2.206   2.658 -0.2230  1.8962 -2.3320
  169SAPE   H2Y18999   5.648   2.370   2.675 -0.0350  0.1328  2.2744
  169SAPE   C2319000   6.053   2.544   2.595  0.1763  0.0855  0.4258
  169SAPE   H3R19001   6.003   2.446   2.613  1.5153 -1.3003 -2.6341
  169SAPE   H3S19002   5.980   2.624   2.621 -0.1006 -0.5934  1.8349
  169SAPE   C2419003   6.173   2.558   2.694  0.3938  0.6975 -0.4015
  169SAPE   H4R19004   6.255   2.492   2.659 -1.0790 -2.2400  1.3038
  169SAPE   H4S19005   6.129   2.529   2.792 -0.6921 -0.2108 -1.1172
  169SAPE   C2519006   6.222   2.700   2.707 -0.1033  0.9069  0.0938
  169SAPE   H5R19007   6.143   2.768   2.742 -2.0079 -1.7174  1.2252
  169SAPE   C2619008   6.342   2.744   2.668 -0.1652 -0.2472 -0.4008
  169SAPE   H6R19009   6.356   2.852   2.683  1.9596 -0.7345  1.5831
  169SAPE   C2719010   6.461   2.658   2.625  0.0863 -0.6264 -0.3319
  169SAPE   H7R19011   6.447   2.604   2.529  1.7773  3.3957 -3.0846
  169SAPE   H7S19012   6.478   2.589   2.710 -0.4609  0.2281  0.4967
  169SAPE   C2819013   6.586   2.742   2.604 -0.5469  0.4414 -0.2212
  169SAPE   H8R19014   6.594   2.810   2.517  0.4519  1.7036  0.8184
  169SAPE   C2919015   6.686   2.758   2.693 -0.3456 -0.8844  0.6884
  169SAPE   H9R19016   6.769   2.824   2.665 -1.0971 -0.5950 -0.9498
  169SAPE  C21019017   6.712   2.689   2.828  0.2790 -0.2545 -0.3090
  169SAPE  H10R19018   6.822   2.693   2.846  0.0870 -4.6874  3.8492
  169SAPE  H10S19019   6.694   2.579   2.822 -2.2742 -0.2448  3.6859
  169SAPE  C21119020   6.632   2.757   2.937 -0.4670  0.1947 -0.5539
  169SAPE  H11R19021   6.524   2.768   2.917 -0.5283  0.9862  0.1574
  169SAPE  C21219022   6.680   2.828   3.039  0.7647  0.2127 -0.5173
  169SAPE  H12R19023   6.610   2.877   3.109  0.5143 -1.3709  0.4002
  169SAPE  C21319024   6.817   2.865   3.093  0.1480 -0.0970 -0.1423
  169SAPE  H13R19025   6.798   2.915   3.190 -2.5455 -0.7019 -0.2754
  169SAPE  H13S19026   6.860   2.940   3.024 -2.4646  1.1598 -0.5438
  169SAPE  C21419027   6.920   2.755   3.106  0.2551  0.3898 -0.3965
  169SAPE  H14R19028   6.881   2.654   3.092  3.0810 -0.8882  0.2467
  169SAPE  C21519029   7.051   2.778   3.141 -0.5474 -0.3962 -0.0636
  169SAPE  H15R19030   7.130   2.702   3.150 -0.2322 -0.0509  0.0947
  169SAPE  C21619031   7.121   2.908   3.163  0.3119  0.8435  0.8029
  169SAPE  H16R19032   7.045   2.990   3.162 -2.4379 -1.5375  0.9022
  169SAPE  H16S19033   7.198   2.920   3.085  3.2545 -1.5608  3.0849
  169SAPE  C21719034   7.182   2.915   3.304  0.1155 -0.5837  0.1877
  169SAPE  H17R19035   7.221   3.017   3.325  1.1154 -0.5512 -1.6084
  169SAPE  H17S19036   7.269   2.848   3.315  1.9289  1.7665  0.9596
  169SAPE  C21819037   7.080   2.877   3.421  0.1564 -0.3393  0.2386
  169SAPE  H18R19038   7.025   2.781   3.412 -1.4224  0.1193  3.5243
  169SAPE  H18S19039   6.997   2.950   3.422 -0.6806 -1.2570 -0.6989
  169SAPE  C21919040   7.154   2.874   3.555 -0.0434 -0.3442  0.4093
  169SAPE  H19R19041   7.234   2.952   3.550  0.5036 -0.9766 -1.1644
  169SAPE  H19S19042   7.208   2.778   3.565 -1.4696 -1.0101  2.2264
  169SAPE  C22019043   7.073   2.885   3.683  0.2466  0.2515 -0.5472
  169SAPE  H20R19044   7.000   2.801   3.673  0.5377  0.1210 -1.6923
  169SAPE  H20S19045   7.009   2.975   3.692 -1.4745 -1.0441  0.8852
  169SAPE  H20T19046   7.138   2.878   3.773 -2.2095  0.9331  1.3918
  169SAPE   C3319047   5.741   2.209   2.813  0.2231  0.5088  0.1005
  169SAPE   H3X19048   5.837   2.264   2.822  0.3039  0.6168 -1.1792
  169SAPE   H3Y19049   5.753   2.098   2.813 -0.0792  0.4744  0.0266
  169SAPE   C3419050   5.657   2.231   2.937 -0.6163  0.5896 -0.2048
  169SAPE   H4X19051   5.577   2.156   2.921  1.7816 -1.5166 -3.6537
  169SAPE   H4Y19052   5.614   2.334   2.936 -1.7659  0.1345  0.3104
  169SAPE   C3519053   5.715   2.190   3.070 -0.4687 -0.6407  0.8281
  169SAPE   H5X19054   5.811   2.244   3.078  0.7037 -1.8906 -2.7139
  169SAPE   H5Y19055   5.722   2.080   3.082 -1.0066 -0.7377  0.3012
  169SAPE   C3619056   5.633   2.241   3.192 -0.0351  0.2225 -0.3962
  169SAPE   H6X19057   5.530   2.202   3.182 -0.6098  1.2464  1.1530
  169SAPE   H6Y19058   5.631   2.352   3.186  2.7166  0.2906 -2.7401
  169SAPE   C3719059   5.682   2.197   3.332  1.0114 -0.1359 -0.5718
  169SAPE   H7X19060   5.774   2.257   3.351  1.0619 -0.2778 -0.3596
  169SAPE   H7Y19061   5.714   2.091   3.320 -0.1402 -0.5105 -0.4604
  169SAPE   C3819062   5.582   2.215   3.447  0.1125 -0.4855 -0.4638
  169SAPE   H8X19063   5.486   2.163   3.422 -0.4081 -0.0672  0.5894
  169SAPE   H8Y19064   5.560   2.324   3.448 -0.8296 -0.6348  1.6176
  169SAPE   C3919065   5.635   2.179   3.591 -0.4015 -0.1615  0.4851
  169SAPE   H9X19066   5.713   2.253   3.616 -1.7528  2.0478 -1.4502
  169SAPE   H9Y19067   5.665   2.072   3.592 -1.9940 -0.6881 -1.0983
  169SAPE  C31019068   5.522   2.205   3.700  0.4175 -0.6444 -0.3616
  169SAPE  H10X19069   5.448   2.127   3.673  0.8955 -0.6710 -1.6621
  169SAPE  H10Y19070   5.482   2.307   3.682  0.3820 -0.5772  0.0924
  169SAPE  C31119071   5.580   2.182   3.846 -0.7929 -0.2494 -0.0286
  169SAPE  H11X19072   5.681   2.227   3.842 -0.8233 -0.2225 -0.5666
  169SAPE  H11Y19073   5.591   2.074   3.868 -1.3454 -0.0207  1.4946
  169SAPE  C31219074   5.498   2.252   3.956  0.1961  0.8650  0.4989
  169SAPE  H12X19075   5.392   2.222   3.938 -0.3456  0.5658  3.5324
  169SAPE  H12Y19076   5.517   2.358   3.929 -0.9211  1.1362  0.7154
  169SAPE  C31319077   5.532   2.225   4.103  0.3932 -0.5949  0.3176
  169SAPE  H13X19078   5.642   2.216   4.120 -0.1503 -3.5094  3.5861
  169SAPE  H13Y19079   5.487   2.130   4.140 -0.4631 -0.0373  0.7415
  169SAPE  C31419080   5.471   2.327   4.196  0.4220 -0.2284  0.3833
  169SAPE  H14X19081   5.381   2.368   4.146  0.8547  0.8759  0.4767
  169SAPE  H14Y19082   5.546   2.409   4.194 -1.1022  1.2206  0.3761
  169SAPE  C31519083   5.428   2.263   4.327 -0.4819  0.2070  0.8079
  169SAPE  H15X19084   5.523   2.239   4.379  0.5292  0.8808 -0.6474
  169SAPE  H15Y19085   5.368   2.173   4.302 -0.4632  0.4958 -0.3631
  169SAPE  C31619086   5.355   2.368   4.418  0.1009 -0.1520  0.3269
  169SAPE  H16X19087   5.284   2.434   4.364 -1.4944 -0.8198  1.5281
  169SAPE  H16Y19088   5.434   2.433   4.460 -0.0137  0.0760  0.1887
  169SAPE  C31719089   5.281   2.278   4.516  0.3384 -0.0471  0.2665
  169SAPE  H17X19090   5.341   2.190   4.546 -1.3870 -1.1491  0.6099
  169SAPE  H17Y19091   5.185   2.245   4.470  0.0857 -1.5069  1.7692
  169SAPE  C31819092   5.246   2.363   4.642  0.0491 -0.3562 -0.6291
  169SAPE  H18X19093   5.217   2.299   4.728 -1.6469  3.0591  1.5859
  169SAPE  H18Y19094   5.153   2.421   4.623 -0.1713 -1.2119 -2.4017
  169SAPE  H18Z19095   5.331   2.431   4.663  0.4118 -0.5507 -1.4494
  170SAPE     N19096   0.163   3.738   1.785  0.1667  0.0961 -0.0088
  170SAPE   HN119097   0.063   3.739   1.812  0.8001  1.8565  2.7117
  170SAPE   HN219098   0.203   3.753   1.880  3.0767 -0.6629 -0.9848
  170SAPE   HN319099   0.177   3.827   1.732  1.4862  0.4823  0.9274
  170SAPE   C1219100   0.211   3.620   1.705  0.0612  0.0780 -0.1950
  170SAPE  H12A19101   0.285   3.659   1.632  0.9255 -1.2418 -0.0633
  170SAPE  H12B19102   0.132   3.581   1.638  1.4241 -3.7788  0.1431
  170SAPE   C1119103   0.240   3.495   1.797  0.1458 -0.5157 -0.2985
  170SAPE  H11A19104   0.287   3.412   1.739 -1.6431 -1.6997 -0.1322
  170SAPE  H11B19105   0.137   3.466   1.827 -0.4451 -1.4156 -2.9509
  170SAPE     P19106   0.375   3.426   2.006 -0.0017  0.1740 -0.0940
  170SAPE   O1319107   0.436   3.327   1.919  0.3290  0.4805 -0.2617
  170SAPE   O1419108   0.459   3.488   2.105  0.5051  0.2538 -0.1328
  170SAPE   O1219109   0.317   3.532   1.909  0.2277 -0.0048 -0.6729
  170SAPE   O1119110   0.260   3.358   2.078  0.8729 -0.2688 -0.6032
  170SAPE    C119111   0.155   3.449   2.122 -0.1130  0.7534 -0.4771
  170SAPE    HA19112   0.193   3.549   2.154  1.5838 -0.2198  0.7175
  170SAPE    HB19113   0.072   3.456   2.049  1.8202  0.5063 -2.8221
  170SAPE    C219114   0.096   3.377   2.245 -0.1662 -0.1160 -0.5324
  170SAPE    HS19115   0.007   3.430   2.286  0.6285  0.8426  0.0106
  170SAPE   O2119116   0.200   3.369   2.343  0.3671 -0.4075 -0.3563
  170SAPE   C2119117   0.251   3.481   2.392 -0.9613  0.0481 -0.2680
  170SAPE   O2219118   0.187   3.589   2.402 -0.6229  0.3611  0.2662
  170SAPE   C2219119   0.401   3.440   2.439 -0.4851  0.3231 -0.0975
  170SAPE   H2R19120   0.444   3.389   2.350 -0.8621  0.0494 -0.1214
  170SAPE   H2S19121   0.458   3.531   2.470 -1.3254  0.0362  2.5376
  170SAPE    C319122   0.044   3.236   2.204 -0.7218 -0.3031 -0.1565
  170SAPE    HX19123   0.127   3.178   2.160  0.3834  0.8005  0.4286
  170SAPE    HY19124  -0.033   3.252   2.125 -1.8429 -2.6176  0.3512
  170SAPE   O3119125  -0.014   3.160   2.308  0.0882 -0.3084 -0.1058
  170SAPE   C3119126  -0.139   3.193   2.361  0.4771 -0.2936  0.2653
  170SAPE   O3219127  -0.216   3.267   2.305 -0.7886 -0.4447  0.0213
  170SAPE   C3219128  -0.172   3.117   2.498 -0.1191  0.6713 -0.0672
  170SAPE   H2X19129  -0.080   3.063   2.527  0.1448  1.0048 -0.2692
  170SAPE   H2Y19130  -0.249   3.046   2.460 -0.4700  1.4558 -0.8853
  170SAPE   C2319131   0.384   3.351   2.563 -0.2255  0.1119 -0.7913
  170SAPE   H3R19132   0.336   3.257   2.530 -0.4318 -0.1380  0.1794
  170SAPE   H3S19133   0.314   3.410   2.627  0.7723 -0.3882  0.8242
  170SAPE   C2419134   0.511   3.319   2.645 -1.1157 -0.1383  0.1734
  170SAPE   H4R19135   0.585   3.273   2.577  0.6135 -0.2122  2.0119
  170SAPE   H4S19136   0.476   3.239   2.714 -0.8181  0.6754  1.3017
  170SAPE   C2519137   0.570   3.437   2.712  0.2564  0.2771 -0.5045
  170SAPE   H5R19138   0.638   3.497   2.650 -2.8441  1.2812 -3.1831
  170SAPE   C2619139   0.548   3.479   2.843 -0.8121 -0.1176  0.4762
  170SAPE   H6R19140   0.600   3.574   2.865 -0.1032 -0.2039 -0.7217
  170SAPE   C2719141   0.470   3.405   2.946  0.9423  0.6853  0.5178
  170SAPE   H7R19142   0.391   3.341   2.901 -0.8292  3.4565 -0.5864
  170SAPE   H7S19143   0.413   3.486   2.998 -2.7275  1.1140 -3.5759
  170SAPE   C2819144   0.561   3.321   3.035 -0.6262 -0.0795 -0.4719
  170SAPE   H8R19145   0.643   3.277   2.976 -0.9934 -0.8634 -0.4107
  170SAPE   C2919146   0.573   3.326   3.170 -0.2140  0.1587 -0.3577
  170SAPE   H9R19147   0.648   3.265   3.221  0.0092  0.7040 -0.0293
  170SAPE  C21019148   0.483   3.410   3.260  0.5939 -0.3247 -0.9608
  170SAPE  H10R19149   0.405   3.462   3.201  1.0507  1.5002 -0.0300
  170SAPE  H10S19150   0.543   3.489   3.310 -0.1370 -0.3583  0.0007
  170SAPE  C21119151   0.421   3.323   3.359 -0.2752  0.1994  0.0302
  170SAPE  H11R19152   0.450   3.217   3.360  0.5624  0.4109 -0.6564
  170SAPE  C21219153   0.335   3.354   3.451 -0.4789 -0.1463 -0.5421
  170SAPE  H12R19154   0.273   3.278   3.501 -1.1993  0.1254 -1.0151
  170SAPE  C21319155   0.298   3.496   3.477 -0.6024  0.5837 -0.4569
  170SAPE  H13R19156   0.276   3.546   3.381 -2.6126 -3.4714 -2.3656
  170SAPE  H13S19157   0.383   3.553   3.519 -0.8874  1.4182 -0.9937
  170SAPE  C21419158   0.171   3.521   3.566  0.5885 -0.4084  0.6233
  170SAPE  H14R19159   0.083   3.560   3.513  2.2248 -0.4534 -2.3914
  170SAPE  C21519160   0.162   3.507   3.703 -0.1727 -0.4154  0.5122
  170SAPE  H15R19161   0.070   3.539   3.755 -0.8528 -1.6970  0.1610
  170SAPE  C21619162   0.275   3.448   3.787  0.1166 -0.1893  0.1071
  170SAPE  H16R19163   0.292   3.517   3.872  1.0123  1.1709 -1.1202
  170SAPE  H16S19164   0.365   3.447   3.722 -0.8900 -1.3555 -1.3158
  170SAPE  C21719165   0.236   3.311   3.851 -0.6472 -0.1030 -0.1911
  170SAPE  H17R19166   0.335   3.264   3.871 -0.1119  2.1329  3.6735
  170SAPE  H17S19167   0.174   3.249   3.784 -0.6792  1.8233 -2.0295
  170SAPE  C21819168   0.175   3.316   3.994  0.6809  0.5848 -0.6739
  170SAPE  H18R19169   0.068   3.345   3.981  0.9180  1.0708 -1.6869
  170SAPE  H18S19170   0.223   3.396   4.054 -0.2626  1.0702 -0.5484
  170SAPE  C21919171   0.183   3.178   4.070 -0.0400  0.0707  0.5167
  170SAPE  H19R19172   0.291   3.151   4.069 -0.0668 -0.1879  2.4118
  170SAPE  H19S19173   0.127   3.104   4.010  2.7493 -1.8936  0.1307
  170SAPE  C22019174   0.128   3.199   4.208 -0.1118 -0.3625  0.8651
  170SAPE  H20R19175   0.017   3.201   4.213 -0.2211  0.9334 -0.8510
  170SAPE  H20S19176   0.162   3.296   4.249  2.2482 -0.3257 -0.9385
  170SAPE  H20T19177   0.172   3.124   4.277  4.9826  1.1520 -0.3143
  170SAPE   C3319178  -0.240   3.198   2.612  0.7015  0.4964 -0.6032
  170SAPE   H3X19179  -0.320   3.266   2.575 -0.3855 -0.3501  0.1238
  170SAPE   H3Y19180  -0.166   3.265   2.661  0.2213 -0.9017  2.2394
  170SAPE   C3419181  -0.313   3.119   2.718 -0.3890 -0.5236  0.3531
  170SAPE   H4X19182  -0.233   3.057   2.765  2.2593 -0.1029 -3.1716
  170SAPE   H4Y19183  -0.387   3.048   2.677 -3.2273  2.1039  0.5728
  170SAPE   C3519184  -0.393   3.212   2.817  0.1145  0.5057  0.4885
  170SAPE   H5X19185  -0.478   3.268   2.772 -1.4006 -1.9363  0.1107
  170SAPE   H5Y19186  -0.331   3.295   2.855  0.4248  0.6184 -0.2602
  170SAPE   C3619187  -0.437   3.151   2.947 -0.8337 -0.2674  0.0505
  170SAPE   H6X19188  -0.373   3.067   2.981 -0.1146 -0.2317 -1.1535
  170SAPE   H6Y19189  -0.532   3.097   2.925  0.2828 -1.8879 -1.0093
  170SAPE   C3719190  -0.447   3.249   3.064  0.6473  0.2720  0.6368
  170SAPE   H7X19191  -0.520   3.331   3.046 -2.5421 -1.9315  2.5262
  170SAPE   H7Y19192  -0.356   3.308   3.088 -0.2487  1.6845  0.7137
  170SAPE   C3819193  -0.496   3.176   3.190 -0.3611  0.1841  1.0599
  170SAPE   H8X19194  -0.418   3.100   3.212  0.9577  0.4184 -2.2407
  170SAPE   H8Y19195  -0.581   3.109   3.167  0.1655 -0.5939  1.3111
  170SAPE   C3919196  -0.525   3.263   3.312  0.2753 -0.9141 -0.8876
  170SAPE   H9X19197  -0.596   3.336   3.267 -2.6520 -1.3474  2.6167
  170SAPE   H9Y19198  -0.435   3.322   3.340 -1.7532  1.5470  0.8624
  170SAPE  C31019199  -0.584   3.196   3.439 -0.8242  0.2198 -0.0165
  170SAPE  H10X19200  -0.603   3.275   3.514 -1.0885  0.2208 -0.0815
  170SAPE  H10Y19201  -0.507   3.124   3.473  0.1184  1.4230  0.4589
  170SAPE  C31119202  -0.709   3.112   3.408  0.2305 -0.0581  0.1055
  170SAPE  H11X19203  -0.696   3.025   3.340 -3.0352  0.5449 -1.4762
  170SAPE  H11Y19204  -0.779   3.176   3.351  0.5128  0.0886 -0.0822
  170SAPE  C31219205  -0.785   3.075   3.538  0.1028  0.3935 -0.2515
  170SAPE  H12X19206  -0.725   3.007   3.603 -0.5767 -0.5520 -0.5872
  170SAPE  H12Y19207  -0.876   3.024   3.501  2.3641 -2.6942 -2.1537
  170SAPE  C31319208  -0.843   3.198   3.606 -0.4676  0.1300  0.4364
  170SAPE  H13X19209  -0.911   3.255   3.539 -0.8634 -3.2255 -2.2622
  170SAPE  H13Y19210  -0.754   3.259   3.632  0.2898 -0.1095 -1.4248
  170SAPE  C31419211  -0.903   3.189   3.744 -1.1210  0.8351  0.7747
  170SAPE  H14X19212  -0.825   3.123   3.786  0.0200  1.3183 -0.5291
  170SAPE  H14Y19213  -1.003   3.139   3.748 -0.9377  0.5164  1.6857
  170SAPE  C31519214  -0.915   3.330   3.808 -0.3033 -0.6808  0.0202
  170SAPE  H15X19215  -0.975   3.404   3.751  1.5354 -0.6684 -2.0641
  170SAPE  H15Y19216  -0.815   3.380   3.808 -0.8051  0.4532 -1.9957
  170SAPE  C31619217  -0.963   3.312   3.956  0.6689  0.6584 -0.4004
  170SAPE  H16X19218  -1.073   3.308   3.963  0.6363  0.4714 -0.9985
  170SAPE  H16Y19219  -0.926   3.404   4.006 -2.2985  1.2989  0.8248
  170SAPE  C31719220  -0.909   3.189   4.035 -0.1673  0.0688 -0.2839
  170SAPE  H17X19221  -0.800   3.209   4.031  0.0475 -0.6002  1.5156
  170SAPE  H17Y19222  -0.933   3.088   3.996 -1.5989  0.2717  0.0405
  170SAPE  C31819223  -0.944   3.199   4.190  0.0243  0.2693  0.5247
  170SAPE  H18X19224  -0.923   3.296   4.240  1.8646  0.6486 -0.8955
  170SAPE  H18Y19225  -0.883   3.122   4.242  1.3286  0.3088 -0.9123
  170SAPE  H18Z19226  -1.054   3.184   4.185 -0.1422  1.8245 -1.4043
  171SAPE     N19227   5.641   1.918   2.012 -0.1107  0.5355 -0.6565
  171SAPE   HN119228   5.641   1.992   1.939 -1.3666  1.7029  0.4842
  171SAPE   HN219229   5.564   1.929   2.080 -0.3474 -0.7935 -0.6833
  171SAPE   HN319230   5.733   1.923   2.060 -1.0457  1.8229  1.1002
  171SAPE   C1219231   5.637   1.784   1.940 -0.0322 -0.2472 -0.2006
  171SAPE  H12A19232   5.743   1.772   1.906  0.7733 -0.1933  2.1076
  171SAPE  H12B19233   5.582   1.799   1.845 -1.4127  0.5344  0.6990
  171SAPE   C1119234   5.596   1.671   2.033  0.1271  0.0230  0.0436
  171SAPE  H11A19235   5.613   1.583   1.967  1.9646 -1.1697  1.9696
  171SAPE  H11B19236   5.490   1.683   2.065  0.6063  0.8644  1.3982
  171SAPE     P19237   5.781   1.564   2.187  0.0874 -0.1890 -0.3332
  171SAPE   O1319238   5.778   1.442   2.107  0.1862 -0.5015 -0.4039
  171SAPE   O1419239   5.917   1.628   2.194  0.4755 -0.4189  0.3407
  171SAPE   O1219240   5.677   1.674   2.149 -0.5319  0.2339  0.9314
  171SAPE   O1119241   5.737   1.534   2.338 -0.7010  0.2702  0.0551
  171SAPE    C119242   5.792   1.434   2.407 -0.0684 -0.1339 -0.6096
  171SAPE    HA19243   5.719   1.353   2.424 -0.0158 -0.0953 -0.1907
  171SAPE    HB19244   5.885   1.393   2.361 -0.8488 -4.1576  1.0020
  171SAPE    C219245   5.816   1.485   2.553  0.9863  0.1940  0.1852
  171SAPE    HS19246   5.858   1.388   2.589 -0.1152 -1.1626 -1.9682
  171SAPE   O2119247   5.688   1.525   2.612 -0.3441 -0.5474  0.5174
  171SAPE   C2119248   5.645   1.441   2.697  0.1406  0.5753 -0.7890
  171SAPE   O2219249   5.696   1.340   2.738  0.3758  0.2827  0.6227
  171SAPE   C2219250   5.516   1.502   2.757 -0.2232  0.5626 -0.3100
  171SAPE   H2R19251   5.445   1.533   2.679  0.7519  2.6259 -0.4290
  171SAPE   H2S19252   5.470   1.430   2.829  2.6857  0.3962  1.5727
  171SAPE    C319253   5.918   1.601   2.567 -0.6035  0.0474 -0.3397
  171SAPE    HX19254   5.860   1.693   2.541  0.0198  0.6181  0.2335
  171SAPE    HY19255   6.004   1.587   2.498 -0.8628 -0.5079 -0.5576
  171SAPE   O3119256   5.981   1.598   2.695 -0.5563 -0.3631 -0.1432
  171SAPE   C3119257   5.992   1.714   2.754 -0.4021 -0.0810 -0.1903
  171SAPE   O3219258   5.974   1.818   2.695 -0.3484  0.1692 -0.0613
  171SAPE   C3219259   6.034   1.700   2.897 -0.3252  0.2679 -0.1801
  171SAPE   H2X19260   6.103   1.615   2.914  0.3288  0.5509 -1.3180
  171SAPE   H2Y19261   5.945   1.688   2.962 -0.1659 -2.1337 -0.2877
  171SAPE   C2319262   5.563   1.629   2.830 -0.1330  0.4281 -0.0441
  171SAPE   H3R19263   5.468   1.680   2.858  0.5540  1.5363  0.3767
  171SAPE   H3S19264   5.601   1.700   2.753  0.3877  1.2898  0.9832
  171SAPE   C2419265   5.647   1.611   2.959  0.0848  0.3862 -0.1277
  171SAPE   H4R19266   5.738   1.550   2.938 -0.3894 -0.8123  1.0853
  171SAPE   H4S19267   5.590   1.545   3.028  1.0575 -0.3185  0.0261
  171SAPE   C2519268   5.661   1.751   3.014 -0.5772  0.2363 -0.2305
  171SAPE   H5R19269   5.670   1.836   2.946  2.4761 -0.4594 -0.8558
  171SAPE   C2619270   5.670   1.783   3.146 -0.0353  0.5520 -0.1094
  171SAPE   H6R19271   5.672   1.890   3.173 -0.4640  0.5928 -0.2396
  171SAPE   C2719272   5.698   1.689   3.262 -0.2602  0.0280  0.4074
  171SAPE   H7R19273   5.717   1.582   3.237  0.9854  0.3144  0.0690
  171SAPE   H7S19274   5.615   1.666   3.333 -0.2307 -0.7471  0.1989
  171SAPE   C2819275   5.823   1.745   3.323  0.0204  0.6217 -0.1900
  171SAPE   H8R19276   5.900   1.785   3.255 -0.4427  2.5071  0.3361
  171SAPE   C2919277   5.858   1.750   3.452 -0.0191 -0.0850 -0.7973
  171SAPE   H9R19278   5.959   1.792   3.467 -0.2627 -0.0370  0.7898
  171SAPE  C21019279   5.777   1.709   3.573  0.1116 -0.3359 -0.0134
  171SAPE  H10R19280   5.845   1.724   3.660  2.5119 -1.8589 -1.5266
  171SAPE  H10S19281   5.761   1.599   3.567  2.1337 -0.7389  1.0515
  171SAPE  C21119282   5.650   1.789   3.597  0.0383 -0.1600  0.2265
  171SAPE  H11R19283   5.604   1.834   3.508  0.9016  2.3402  0.9535
  171SAPE  C21219284   5.585   1.800   3.718  0.2024 -0.5014  0.2204
  171SAPE  H12R19285   5.494   1.861   3.720 -0.2061 -1.1205  1.1586
  171SAPE  C21319286   5.641   1.749   3.843  0.5463  0.4108 -0.1171
  171SAPE  H13R19287   5.712   1.829   3.874  0.1100  0.2757  1.3041
  171SAPE  H13S19288   5.688   1.648   3.836 -2.3671 -1.3949  3.1020
  171SAPE  C21419289   5.537   1.712   3.943  0.6567  0.7332 -0.4937
  171SAPE  H14R19290   5.449   1.668   3.895  0.4838 -0.5707  0.9293
  171SAPE  C21519291   5.532   1.721   4.077  0.1532 -0.8163  0.5403
  171SAPE  H15R19292   5.443   1.698   4.138  0.7021 -0.1101  1.6490
  171SAPE  C21619293   5.642   1.767   4.168  0.3494  0.1193  0.1488
  171SAPE  H16R19294   5.598   1.858   4.216 -2.5223 -0.5283 -1.0338
  171SAPE  H16S19295   5.732   1.801   4.112  0.3025 -0.2885 -0.1837
  171SAPE  C21719296   5.689   1.678   4.282 -0.1429 -0.0462  0.4045
  171SAPE  H17R19297   5.606   1.647   4.349  0.5235 -0.0249  1.2658
  171SAPE  H17S19298   5.754   1.746   4.341  1.4030 -1.7129  0.6819
  171SAPE  C21819299   5.798   1.582   4.239  0.0657 -0.0330 -0.4584
  171SAPE  H18R19300   5.876   1.650   4.199  0.2066  0.3550  0.4524
  171SAPE  H18S19301   5.766   1.512   4.158 -0.0419 -0.6702  0.1269
  171SAPE  C21919302   5.866   1.508   4.356  0.4753  0.1780 -0.1877
  171SAPE  H19R19303   5.793   1.445   4.410  1.2897  1.4660  2.6388
  171SAPE  H19S19304   5.910   1.565   4.441 -0.0718 -1.5227  1.2812
  171SAPE  C22019305   5.974   1.422   4.305  0.3228 -0.3740  0.2562
  171SAPE  H20R19306   6.036   1.474   4.229 -0.9790 -0.0199 -0.5865
  171SAPE  H20S19307   5.920   1.336   4.261 -3.9902  1.7718  0.9159
  171SAPE  H20T19308   6.034   1.368   4.382 -1.4917 -1.3956  1.0031
  171SAPE   C3319309   6.135   1.811   2.933 -0.1107  0.2591  0.0379
  171SAPE   H3X19310   6.098   1.905   2.886  2.7029  1.8344  0.7212
  171SAPE   H3Y19311   6.225   1.787   2.873 -1.2935  1.3120 -2.3161
  171SAPE   C3419312   6.162   1.826   3.083  0.1941 -0.2527  0.3457
  171SAPE   H4X19313   6.068   1.856   3.134 -0.9258 -2.0870 -0.5680
  171SAPE   H4Y19314   6.236   1.909   3.094 -0.5406  0.1589  2.8428
  171SAPE   C3519315   6.220   1.700   3.143  0.6207 -0.1185 -0.2465
  171SAPE   H5X19316   6.328   1.687   3.120  1.1594  0.4825  1.7501
  171SAPE   H5Y19317   6.164   1.611   3.106 -1.6508  1.0070  0.2817
  171SAPE   C3619318   6.195   1.678   3.291  0.0202 -0.2422 -0.1578
  171SAPE   H6X19319   6.087   1.663   3.312 -0.1236 -0.4947 -1.0540
  171SAPE   H6Y19320   6.224   1.774   3.339  0.5295  1.2622 -3.2428
  171SAPE   C3719321   6.268   1.548   3.332 -0.4088 -0.2626 -1.1771
  171SAPE   H7X19322   6.364   1.551   3.276  0.7088 -2.3686  0.4307
  171SAPE   H7Y19323   6.230   1.450   3.297  1.8302 -2.3595  1.6687
  171SAPE   C3819324   6.291   1.529   3.475  0.2818 -0.6629 -0.0897
  171SAPE   H8X19325   6.191   1.538   3.521 -0.1131  1.9548 -1.2968
  171SAPE   H8Y19326   6.362   1.609   3.506 -1.4370  0.6497  0.5754
  171SAPE   C3919327   6.344   1.396   3.528  0.9803 -0.0267  1.1171
  171SAPE   H9X19328   6.434   1.360   3.475  0.5198  1.6916 -0.9426
  171SAPE   H9Y19329   6.258   1.333   3.495  2.1718 -0.3607 -1.6134
  171SAPE  C31019330   6.368   1.392   3.681  0.5007  0.1878 -0.6258
  171SAPE  H10X19331   6.303   1.473   3.721  0.9580 -0.3120  1.1791
  171SAPE  H10Y19332   6.474   1.416   3.705  0.1541 -0.1305  1.3300
  171SAPE  C31119333   6.331   1.254   3.729 -0.5214 -0.0914 -0.6978
  171SAPE  H11X19334   6.385   1.175   3.673  1.5623 -0.7287  2.0307
  171SAPE  H11Y19335   6.220   1.245   3.722 -0.7431  1.7297 -0.0046
  171SAPE  C31219336   6.375   1.223   3.872 -0.1070 -0.3110 -0.6256
  171SAPE  H12X19337   6.366   1.318   3.929  3.3240  0.1183 -0.6150
  171SAPE  H12Y19338   6.485   1.216   3.881 -0.0719  0.8294  0.0422
  171SAPE  C31319339   6.301   1.107   3.937  0.2750  0.1099 -0.2082
  171SAPE  H13X19340   6.263   1.034   3.863 -0.8209 -0.9040  1.3108
  171SAPE  H13Y19341   6.216   1.158   3.987 -0.2381 -0.2273 -0.7232
  171SAPE  C31419342   6.385   1.028   4.030 -0.2174 -0.1817 -1.0406
  171SAPE  H14X19343   6.429   1.088   4.113 -2.3040  1.2173 -0.8731
  171SAPE  H14Y19344   6.475   1.000   3.972  0.6445 -1.0960  0.6483
  171SAPE  C31519345   6.313   0.902   4.084 -0.4435  0.8089  0.2803
  171SAPE  H15X19346   6.279   0.840   3.998  0.0242  0.0567  0.6244
  171SAPE  H15Y19347   6.227   0.937   4.146 -0.7413  4.0516 -1.7414
  171SAPE  C31619348   6.413   0.818   4.177  1.3897 -1.0666  0.1376
  171SAPE  H16X19349   6.435   0.877   4.269  1.4686 -2.1393  0.8156
  171SAPE  H16Y19350   6.503   0.799   4.116  1.4233 -0.5860  0.0293
  171SAPE  C31719351   6.349   0.688   4.228  0.0087  0.0400 -0.3857
  171SAPE  H17X19352   6.423   0.632   4.289 -0.2916  0.9229  0.8244
  171SAPE  H17Y19353   6.309   0.625   4.146 -0.4239 -1.1397  0.6912
  171SAPE  C31819354   6.227   0.712   4.318 -0.7348  0.0587  0.1805
  171SAPE  H18X19355   6.246   0.777   4.406  0.5833 -0.6289  0.4236
  171SAPE  H18Y19356   6.186   0.617   4.358  2.8132 -1.4810  0.5547
  171SAPE  H18Z19357   6.149   0.765   4.259 -1.3020  1.5450  2.1557
  172SAPE     N19358   6.705   5.248   1.793 -0.1891 -0.6820 -0.0658
  172SAPE   HN119359   6.675   5.315   1.719  1.4436  0.3523  0.1549
  172SAPE   HN219360   6.635   5.257   1.869  0.2382  0.1017  0.2578
  172SAPE   HN319361   6.793   5.293   1.827 -0.6028  0.0997 -0.0092
  172SAPE   C1219362   6.703   5.103   1.764 -0.0271  0.0017 -0.8864
  172SAPE  H12A19363   6.746   5.090   1.662  1.2838  3.1957 -0.8513
  172SAPE  H12B19364   6.601   5.059   1.769 -0.1482  0.1655 -1.7511
  172SAPE   C1119365   6.800   5.026   1.861 -0.6372 -0.1749  0.1649
  172SAPE  H11A19366   6.794   4.921   1.823  0.4066 -0.4319  0.6696
  172SAPE  H11B19367   6.760   5.013   1.964 -0.8512 -1.5474 -0.0734
  172SAPE     P19368   7.043   4.971   1.913 -0.2911 -0.1011 -0.1420
  172SAPE   O1319369   7.054   4.846   1.831 -0.1169  0.2348 -0.9743
  172SAPE   O1419370   7.169   5.040   1.928  0.1342 -0.2262 -0.6460
  172SAPE   O1219371   6.932   5.068   1.860 -0.3187 -0.0365  0.6216
  172SAPE   O1119372   6.990   4.936   2.059  0.9931  0.9993 -0.4399
  172SAPE    C119373   6.988   5.027   2.165  1.0127 -0.1934 -0.3466
  172SAPE    HA19374   6.942   5.122   2.129 -1.5472 -1.5970 -1.0596
  172SAPE    HB19375   6.919   4.981   2.239  2.2523 -1.6129 -0.0287
  172SAPE    C219376   7.122   5.054   2.233  0.1305  0.0871  0.3327
  172SAPE    HS19377   7.204   5.087   2.164 -0.9464  1.0200 -0.5329
  172SAPE   O2119378   7.169   4.931   2.287 -0.1084  0.5863  0.1476
  172SAPE   C2119379   7.295   4.926   2.331  0.1957 -0.6042 -0.4295
  172SAPE   O2219380   7.383   5.006   2.292 -0.2392  0.0332  0.0314
  172SAPE   C2219381   7.318   4.801   2.422 -0.0562 -0.7031  0.0888
  172SAPE   H2R19382   7.217   4.760   2.446 -0.0552  0.3437  2.1499
  172SAPE   H2S19383   7.374   4.731   2.357  0.8757  1.1988 -1.2730
  172SAPE    C319384   7.103   5.177   2.325  0.0482  0.1538  0.4141
  172SAPE    HX19385   7.090   5.262   2.254 -2.6703  0.9743  1.7647
  172SAPE    HY19386   7.197   5.197   2.382  0.9467 -1.3941 -0.4685
  172SAPE   O3119387   6.994   5.159   2.421 -0.1886 -0.5487 -0.1509
  172SAPE   C3119388   7.016   5.084   2.531  0.3716  0.6562  0.7733
  172SAPE   O3219389   7.129   5.049   2.564 -0.5137  0.7257 -0.2131
  172SAPE   C3219390   6.881   5.042   2.581  0.2529 -0.2073 -0.0628
  172SAPE   H2X19391   6.842   4.961   2.515 -0.5578  0.2525 -0.1535
  172SAPE   H2Y19392   6.805   5.123   2.589  2.4518  2.0184 -0.3739
  172SAPE   C2319393   7.387   4.827   2.556  0.2326 -0.2454 -0.0303
  172SAPE   H3R19394   7.338   4.896   2.629  1.1562 -2.8634  3.3232
  172SAPE   H3S19395   7.480   4.884   2.532 -0.5976  1.1807 -0.0059
  172SAPE   C2419396   7.434   4.700   2.633 -0.0212  0.0490  0.3804
  172SAPE   H4R19397   7.504   4.634   2.577 -0.9296 -2.4922  2.0335
  172SAPE   H4S19398   7.344   4.639   2.655 -0.3479  0.4580  0.1975
  172SAPE   C2519399   7.519   4.746   2.750 -0.2919 -0.4365 -0.6481
  172SAPE   H5R19400   7.624   4.765   2.722 -0.1241  0.6118  0.6368
  172SAPE   C2619401   7.481   4.766   2.874  0.1708  0.4349 -0.2049
  172SAPE   H6R19402   7.551   4.807   2.949  1.0016  0.7498 -1.1446
  172SAPE   C2719403   7.335   4.753   2.918 -0.1521  0.0003 -0.5546
  172SAPE   H7R19404   7.344   4.702   3.016  0.7980 -1.1262 -1.1916
  172SAPE   H7S19405   7.285   4.687   2.844 -1.0289  0.6555 -0.5513
  172SAPE   C2819406   7.258   4.882   2.931 -0.5112 -0.0098 -0.2580
  172SAPE   H8R19407   7.200   4.917   2.844 -0.2190 -1.4549 -1.0688
  172SAPE   C2919408   7.259   4.960   3.041  0.2231 -0.1009  0.1248
  172SAPE   H9R19409   7.202   5.054   3.038  0.2685 -0.0780 -0.0026
  172SAPE  C21019410   7.323   4.926   3.175  0.4828 -0.3521  0.4782
  172SAPE  H10R19411   7.378   5.010   3.221  0.3862 -0.1082  0.1560
  172SAPE  H10S19412   7.397   4.844   3.162  0.6463 -0.2064  0.4867
  172SAPE  C21119413   7.217   4.889   3.280 -0.4295  0.0362 -0.1694
  172SAPE  H11R19414   7.118   4.884   3.233 -0.2196  1.6869 -0.8588
  172SAPE  C21219415   7.239   4.891   3.414 -0.0523  0.3716  0.1746
  172SAPE  H12R19416   7.152   4.863   3.475 -0.8432  0.9999 -0.6414
  172SAPE  C21319417   7.355   4.942   3.492 -0.5995  0.7464 -0.8185
  172SAPE  H13R19418   7.429   5.001   3.434 -0.4372  1.3873  0.0182
  172SAPE  H13S19419   7.416   4.856   3.527  0.8537  2.2217  0.4488
  172SAPE  C21419420   7.317   5.037   3.605  0.5820 -0.2886  1.2840
  172SAPE  H14R19421   7.333   5.141   3.572 -0.3608 -0.4960  0.0996
  172SAPE  C21519422   7.285   5.017   3.732  0.3881  0.6520 -0.1512
  172SAPE  H15R19423   7.265   5.106   3.794 -1.0861 -0.7934  1.5296
  172SAPE  C21619424   7.279   4.881   3.794 -0.1159  0.6226 -0.3434
  172SAPE  H16R19425   7.325   4.799   3.735 -0.4306 -0.8086  1.3048
  172SAPE  H16S19426   7.177   4.850   3.825 -0.0596  0.8352  0.0645
  172SAPE  C21719427   7.369   4.887   3.919 -0.4031 -0.8768  0.4733
  172SAPE  H17R19428   7.386   4.782   3.953 -2.9211 -1.6052 -0.3118
  172SAPE  H17S19429   7.326   4.948   4.002 -2.0228  1.4582 -1.9281
  172SAPE  C21819430   7.511   4.940   3.894 -0.0969 -0.2757 -0.5681
  172SAPE  H18R19431   7.502   5.049   3.872  0.0797  0.1767  1.3508
  172SAPE  H18S19432   7.559   4.893   3.806 -0.4416  1.3682 -1.6883
  172SAPE  C21919433   7.601   4.924   4.018  0.2546  0.9506  0.4124
  172SAPE  H19R19434   7.707   4.920   3.988 -0.0849 -0.0894 -0.7137
  172SAPE  H19S19435   7.584   4.825   4.067  0.0186  0.4228 -0.6999
  172SAPE  C22019436   7.584   5.027   4.126 -0.4834 -0.0186  1.1219
  172SAPE  H20R19437   7.481   5.013   4.167 -2.0044  0.1419 -2.2855
  172SAPE  H20S19438   7.580   5.127   4.078 -3.9632 -1.4006 -2.0681
  172SAPE  H20T19439   7.658   5.027   4.208  1.0778  1.5628 -0.2086
  172SAPE   C3319440   6.901   4.987   2.724 -0.1840 -0.4854 -0.3527
  172SAPE   H3X19441   6.981   4.910   2.727  1.2948  0.8984 -1.8162
  172SAPE   H3Y19442   6.799   4.954   2.752  0.5571 -0.7479  2.3256
  172SAPE   C3419443   6.939   5.086   2.834 -0.4357  0.4861 -0.0621
  172SAPE   H4X19444   6.874   5.173   2.811 -1.3636 -0.5713 -1.5845
  172SAPE   H4Y19445   7.043   5.124   2.822 -0.3686 -0.0840 -1.5001
  172SAPE   C3519446   6.912   5.041   2.974  0.2099  0.1120 -0.0450
  172SAPE   H5X19447   6.986   4.960   2.994  1.3399  1.5965  2.2136
  172SAPE   H5Y19448   6.811   4.995   2.977  1.1306 -2.1681 -1.2004
  172SAPE   C3619449   6.921   5.168   3.067  0.5636  0.1613 -0.4185
  172SAPE   H6X19450   6.845   5.245   3.043  1.1756  0.8727 -0.1132
  172SAPE   H6Y19451   7.023   5.212   3.061  0.4293  0.5225 -0.0988
  172SAPE   C3719452   6.894   5.125   3.210 -0.3146  0.2460  0.0947
  172SAPE   H7X19453   6.950   5.029   3.211  1.1256  0.9107 -2.9586
  172SAPE   H7Y19454   6.788   5.108   3.237 -0.3588  0.8408  0.3201
  172SAPE   C3819455   6.948   5.228   3.312  0.7426 -0.1132 -0.4460
  172SAPE   H8X19456   6.865   5.299   3.334  1.3674 -0.1648  2.4875
  172SAPE   H8Y19457   7.035   5.289   3.282  0.8263  0.1380  0.2803
  172SAPE   C3919458   6.975   5.158   3.444  0.1064 -0.1152  0.1153
  172SAPE   H9X19459   7.034   5.227   3.508 -0.9606  1.8892 -0.9924
  172SAPE   H9Y19460   7.046   5.073   3.434  0.8231  0.6536 -1.6412
  172SAPE  C31019461   6.853   5.108   3.528  0.7094 -0.2542 -0.0088
  172SAPE  H10X19462   6.790   5.056   3.452  0.3424  0.6086 -0.3068
  172SAPE  H10Y19463   6.798   5.201   3.552 -1.0818 -1.0845 -0.7014
  172SAPE  C31119464   6.900   5.037   3.650  0.0377  0.1928  0.6600
  172SAPE  H11X19465   6.946   5.115   3.714 -0.7985  0.5592  0.8205
  172SAPE  H11Y19466   6.973   4.957   3.624 -0.2052 -0.2185  1.2178
  172SAPE  C31219467   6.786   4.981   3.738  0.6120  0.3871  0.5691
  172SAPE  H12X19468   6.721   4.911   3.681  2.1572 -0.9897  0.4128
  172SAPE  H12Y19469   6.725   5.058   3.789 -0.8787 -0.9997  0.9704
  172SAPE  C31319470   6.845   4.896   3.853  0.1629 -0.6444 -0.5477
  172SAPE  H13X19471   6.939   4.849   3.817  0.0519 -0.2350 -1.3879
  172SAPE  H13Y19472   6.767   4.821   3.879 -2.1366  1.2545 -1.6507
  172SAPE  C31419473   6.873   4.988   3.973  1.0002 -0.6907  0.5449
  172SAPE  H14X19474   6.782   5.040   4.010  1.8292 -0.8199  2.9458
  172SAPE  H14Y19475   6.947   5.064   3.940 -0.4241 -0.3139 -2.0252
  172SAPE  C31519476   6.916   4.913   4.108 -0.0112 -0.1350  0.6532
  172SAPE  H15X19477   6.835   4.842   4.136  0.2971 -0.6472  0.2638
  172SAPE  H15Y19478   6.933   4.988   4.188  0.2137  0.4178  0.0955
  172SAPE  C31619479   7.045   4.826   4.077  0.2224 -0.0747  0.3133
  172SAPE  H16X19480   7.135   4.885   4.049 -0.4210  1.0309  0.5128
  172SAPE  H16Y19481   7.020   4.755   3.995  0.1825 -1.9926  1.8964
  172SAPE  C31719482   7.075   4.734   4.192 -1.0718  0.6875 -0.7221
  172SAPE  H17X19483   6.982   4.684   4.224  0.2251 -0.6719  1.1321
  172SAPE  H17Y19484   7.098   4.790   4.285 -0.6264 -0.5624 -0.0572
  172SAPE  C31819485   7.191   4.622   4.188  0.0574  0.2082 -0.4716
  172SAPE  H18X19486   7.177   4.558   4.278  0.8440  0.9079  0.1615
  172SAPE  H18Y19487   7.285   4.682   4.192 -0.9251  1.7281  1.4791
  172SAPE  H18Z19488   7.179   4.559   4.097 -0.2576 -3.3791  1.8575
  173SLPC     N19489   6.711   4.043   6.918  0.0713 -0.4341 -0.0266
  173SLPC   C1319490   6.777   3.927   6.977  0.2597  0.4835 -0.3825
  173SLPC  H13A19491   6.835   3.956   7.063 -1.3218  1.0161  0.5453
  173SLPC  H13B19492   6.708   3.849   7.003  1.4417 -1.0258 -1.5987
  173SLPC  H13C19493   6.852   3.884   6.912 -1.0840 -0.3687 -1.4376
  173SLPC   C1419494   6.813   4.155   6.913 -0.0404  0.0080 -0.1782
  173SLPC  H14A19495   6.897   4.123   6.853 -0.0061 -0.9924  0.3868
  173SLPC  H14B19496   6.776   4.244   6.865 -0.6077  0.7183  1.5255
  173SLPC  H14C19497   6.855   4.176   7.010  0.7953 -1.2491 -0.2382
  173SLPC   C1519498   6.605   4.085   7.013 -0.0934  0.6290 -0.5770
  173SLPC  H15A19499   6.650   4.105   7.109  0.1724  0.7163 -0.7210
  173SLPC  H15B19500   6.552   4.176   6.990 -0.3951  0.7117  0.3795
  173SLPC  H15C19501   6.530   4.007   7.023  0.4104  0.1885 -0.2169
  173SLPC   C1219502   6.653   4.015   6.781 -0.0554  0.9135 -0.2207
  173SLPC  H12A19503   6.582   3.933   6.781  1.2758 -0.2980 -1.4070
  173SLPC  H12B19504   6.727   3.981   6.711  1.0962 -1.2714  1.8697
  173SLPC   C1119505   6.583   4.135   6.710 -0.2151  0.3829  0.1075
  173SLPC  H11A19506   6.508   4.181   6.777 -0.7150 -0.7615  0.3687
  173SLPC  H11B19507   6.523   4.098   6.624  0.6653 -1.6422  0.2894
  173SLPC     P19508   6.787   4.199   6.561 -0.0789 -0.1776  0.5095
  173SLPC   O1319509   6.877   4.314   6.562 -0.0361 -0.1341 -0.0875
  173SLPC   O1419510   6.845   4.063   6.556  0.5403 -0.9737  0.0249
  173SLPC   O1219511   6.688   4.220   6.683 -0.1771 -0.6200  0.2253
  173SLPC   O1119512   6.692   4.215   6.434 -0.1281 -0.3608 -0.2009
  173SLPC    C119513   6.603   4.325   6.435  0.7252 -0.0929 -0.0123
  173SLPC    HA19514   6.511   4.308   6.495 -0.3980 -0.4324 -1.7742
  173SLPC    HB19515   6.645   4.419   6.477 -1.7081  0.1317  2.1749
  173SLPC    C219516   6.545   4.358   6.298 -0.2126 -0.0261  0.1846
  173SLPC    HS19517   6.494   4.270   6.253  1.3323 -1.4977  1.1976
  173SLPC   O2119518   6.654   4.395   6.204 -0.1450 -0.6157  0.2957
  173SLPC   C2119519   6.643   4.348   6.078 -0.3961 -0.4610 -0.3202
  173SLPC   O2219520   6.560   4.268   6.041  0.0604  0.4301  0.1955
  173SLPC   C2219521   6.736   4.443   5.983  0.3192  0.0775  0.6902
  173SLPC   H2R19522   6.737   4.551   6.008  1.2107  0.4212 -0.7269
  173SLPC   H2S19523   6.836   4.400   6.004 -0.8590 -2.8030  0.9353
  173SLPC    C319524   6.462   4.487   6.307  0.1906  0.2432  0.0989
  173SLPC    HX19525   6.542   4.562   6.327  1.6259 -1.3221  0.4525
  173SLPC    HY19526   6.398   4.494   6.398  0.6844 -0.5222  0.5182
  173SLPC   O3119527   6.403   4.515   6.177 -0.2745 -0.5073 -0.2536
  173SLPC   C3119528   6.284   4.468   6.164 -0.4003 -0.2545  0.0510
  173SLPC   O3219529   6.232   4.393   6.247  0.7354 -0.3586  0.5795
  173SLPC   C3219530   6.231   4.521   6.037 -0.1204 -0.2704 -0.3604
  173SLPC   H2X19531   6.246   4.630   6.054  0.2958 -0.6498  2.1502
  173SLPC   H2Y19532   6.124   4.494   6.039 -0.2993  0.4340 -0.3151
  173SLPC   C2319533   6.712   4.411   5.839 -0.4529  0.0522  0.4699
  173SLPC   H3R19534   6.607   4.427   5.807 -0.3062 -1.9663 -1.2141
  173SLPC   H3S19535   6.727   4.303   5.817 -0.7714  0.1771 -0.3995
  173SLPC   C2419536   6.801   4.491   5.739 -0.2800  0.1316  0.2655
  173SLPC   H4R19537   6.910   4.488   5.761  0.0770  2.6180 -0.8471
  173SLPC   H4S19538   6.772   4.598   5.735  0.9101  0.4346 -1.7885
  173SLPC   C2519539   6.782   4.439   5.595  0.3828  0.6779  0.2684
  173SLPC   H5R19540   6.672   4.426   5.580  0.4283 -1.8914  1.5767
  173SLPC   H5S19541   6.823   4.336   5.590 -2.1182 -0.4364  0.9537
  173SLPC   C2619542   6.833   4.524   5.476  0.4774 -0.1918 -0.0194
  173SLPC   H6R19543   6.927   4.569   5.512  0.0979 -0.3391  1.1987
  173SLPC   H6S19544   6.762   4.608   5.460 -1.8513 -1.7612  1.4579
  173SLPC   C2719545   6.871   4.440   5.356 -0.8568  0.0843  0.5933
  173SLPC   H7R19546   6.803   4.364   5.313 -2.2639  0.7978  1.5015
  173SLPC   H7S19547   6.958   4.374   5.380 -0.1140 -0.5158 -3.2276
  173SLPC   C2819548   6.912   4.538   5.239 -0.0092 -0.0109  0.3849
  173SLPC   H8R19549   6.981   4.619   5.272 -0.5796  0.4821  0.3898
  173SLPC   H8S19550   6.814   4.580   5.207 -0.3397 -0.7231  0.4396
  173SLPC   C2919551   6.973   4.452   5.131 -0.2321 -0.9418  0.3036
  173SLPC   H9R19552   7.037   4.377   5.179 -0.5299 -1.7037 -0.4599
  173SLPC  C21019553   6.981   4.470   4.998 -0.4515  0.3710 -0.3647
  173SLPC  H10R19554   7.034   4.402   4.929  0.8871  0.2961  0.7011
  173SLPC  C21119555   6.916   4.587   4.922  0.6717  0.2768 -0.6101
  173SLPC  H11R19556   6.845   4.646   4.984  0.1665 -0.3553 -0.5722
  173SLPC  H11S19557   6.853   4.544   4.841 -0.5249  0.8174  0.0096
  173SLPC  C21219558   7.007   4.684   4.856  0.2327  0.1343  0.3061
  173SLPC  H12R19559   7.094   4.707   4.919  1.2947 -1.9208 -0.3500
  173SLPC  C21319560   7.021   4.713   4.724 -0.7279  0.2502 -0.6984
  173SLPC  H13R19561   7.105   4.779   4.694  0.9175 -1.6530 -0.4669
  173SLPC  C21419562   6.934   4.674   4.612  0.1333 -0.1278  0.3235
  173SLPC  H14R19563   6.914   4.754   4.538 -0.9376  0.0772  0.8297
  173SLPC  H14S19564   6.837   4.634   4.647  0.6224 -0.8342  0.9093
  173SLPC  C21519565   6.991   4.560   4.526 -0.4441 -0.6788  0.3612
  173SLPC  H15R19566   7.088   4.592   4.481 -1.1213 -0.5442 -1.0590
  173SLPC  H15S19567   6.928   4.552   4.435  1.3253  0.2719 -1.0234
  173SLPC  C21619568   7.010   4.424   4.593  0.8073  0.0096 -0.3890
  173SLPC  H16R19569   6.926   4.389   4.657  1.1613 -0.5893 -0.2395
  173SLPC  H16S19570   7.104   4.435   4.651  0.7559 -3.8951  0.7098
  173SLPC  C21719571   7.023   4.306   4.500 -0.1471 -0.4630  0.4260
  173SLPC  H17R19572   7.120   4.316   4.446 -0.4102 -1.5341 -0.2804
  173SLPC  H17S19573   6.940   4.287   4.428 -0.2849 -0.6868  0.6442
  173SLPC  C21819574   7.025   4.179   4.595 -0.6289  0.2350  0.6706
  173SLPC  H18R19575   6.993   4.087   4.541  1.4438  0.0769 -0.3889
  173SLPC  H18S19576   6.941   4.188   4.667 -1.1109  1.1710  0.0207
  173SLPC  H18T19577   7.126   4.164   4.639 -0.3648  1.7706  0.6534
  173SLPC   C3319578   6.305   4.461   5.911 -0.0956  0.2796 -0.2349
  173SLPC   H3X19579   6.290   4.351   5.907  1.6686 -0.0197  0.5079
  173SLPC   H3Y19580   6.409   4.500   5.915 -0.2288  0.7078 -0.8440
  173SLPC   C3419581   6.237   4.512   5.786 -0.0672 -1.1961 -1.1811
  173SLPC   H4X19582   6.256   4.621   5.772  0.5252 -1.2507 -0.8461
  173SLPC   H4Y19583   6.128   4.501   5.803  0.5188 -2.3934  2.7996
  173SLPC   C3519584   6.285   4.424   5.671 -0.1811 -0.5840 -0.3019
  173SLPC   H5X19585   6.224   4.331   5.667  1.3426 -1.6087 -0.7937
  173SLPC   H5Y19586   6.395   4.407   5.682  0.0368  0.8041 -0.1560
  173SLPC   C3619587   6.281   4.507   5.544 -0.0654 -0.0805 -0.3959
  173SLPC   H6X19588   6.340   4.598   5.566 -1.9426  0.5232  2.7168
  173SLPC   H6Y19589   6.176   4.538   5.524 -0.9998 -0.9233  2.6817
  173SLPC   C3719590   6.340   4.434   5.419 -0.0153  0.7163  0.0134
  173SLPC   H7X19591   6.287   4.338   5.399  2.0101 -0.0969 -1.8730
  173SLPC   H7Y19592   6.445   4.408   5.444 -0.2303  0.9780  1.2390
  173SLPC   C3819593   6.343   4.517   5.297  0.1896  0.1104  0.5889
  173SLPC   H8X19594   6.369   4.622   5.321 -1.9860  1.6495 -3.0360
  173SLPC   H8Y19595   6.241   4.519   5.255 -0.4164  0.2158  2.0145
  173SLPC   C3919596   6.429   4.458   5.181  0.3431 -0.1123  0.5503
  173SLPC   H9X19597   6.401   4.354   5.154  1.3758 -0.5229  1.0013
  173SLPC   H9Y19598   6.535   4.447   5.214  0.1559 -0.5444  1.0166
  173SLPC  C31019599   6.414   4.544   5.051 -0.1627  0.4973 -0.3313
  173SLPC  H10X19600   6.449   4.648   5.072 -1.2152  1.1275 -1.4974
  173SLPC  H10Y19601   6.312   4.552   5.006 -0.3946  2.8921  0.4249
  173SLPC  C31119602   6.515   4.505   4.939 -0.0407  0.3986  0.8834
  173SLPC  H11X19603   6.613   4.551   4.965 -0.0493  0.4773  0.7791
  173SLPC  H11Y19604   6.498   4.553   4.841 -2.3214 -3.8671 -1.0847
  173SLPC  C31219605   6.544   4.354   4.918 -0.4282 -0.4402 -0.1918
  173SLPC  H12X19606   6.453   4.295   4.942 -0.9210  1.0722  1.9038
  173SLPC  H12Y19607   6.612   4.314   4.995  0.1413 -1.2058 -1.0639
  173SLPC  C31319608   6.618   4.322   4.785  0.5473  0.2124 -0.2029
  173SLPC  H13X19609   6.667   4.223   4.788 -0.6399 -0.3785  0.2936
  173SLPC  H13Y19610   6.702   4.395   4.779  0.3950  0.6544  2.0703
  173SLPC  C31419611   6.523   4.337   4.665  0.3290  0.4424 -0.2121
  173SLPC  H14X19612   6.451   4.417   4.693 -1.5283 -2.1344  3.2209
  173SLPC  H14Y19613   6.459   4.247   4.651  0.4707  0.1949  0.6907
  173SLPC  C31519614   6.594   4.368   4.533  0.2883 -0.4111 -0.3553
  173SLPC  H15X19615   6.687   4.306   4.529  1.0159  0.3899  2.3012
  173SLPC  H15Y19616   6.622   4.475   4.533  0.2480 -0.3971  0.2575
  173SLPC  C31619617   6.523   4.330   4.410 -0.7291 -0.1427  1.1359
  173SLPC  H16X19618   6.501   4.221   4.402  0.9034 -0.5390  1.6236
  173SLPC  H16Y19619   6.589   4.354   4.324 -0.6230 -2.0398  0.6370
  173SLPC  C31719620   6.397   4.403   4.385  0.1322 -0.4455 -0.0532
  173SLPC  H17X19621   6.321   4.399   4.465 -2.2885  1.4104 -2.0981
  173SLPC  H17Y19622   6.339   4.369   4.297 -1.1940 -0.5877  0.8545
  173SLPC  C31819623   6.412   4.556   4.360 -0.3724 -0.4007  0.1301
  173SLPC  H18X19624   6.316   4.607   4.337  0.1860 -0.1130 -1.6350
  173SLPC  H18Y19625   6.481   4.570   4.275  0.9948 -0.2117  1.2333
  173SLPC  H18Z19626   6.458   4.605   4.448 -0.7610  0.0468  0.0908
  174SLPC     N19627   5.627   1.646   6.417  0.4459 -0.0355  0.8889
  174SLPC   C1319628   5.685   1.521   6.472 -0.2464  0.0735 -0.2459
  174SLPC  H13A19629   5.789   1.535   6.500  0.8035  3.1795 -4.6270
  174SLPC  H13B19630   5.623   1.471   6.545  0.1051 -2.6923 -1.6816
  174SLPC  H13C19631   5.686   1.449   6.391  1.1614  1.6942 -1.7532
  174SLPC   C1419632   5.709   1.702   6.310  0.1713 -0.1512  0.1195
  174SLPC  H14A19633   5.810   1.709   6.345  0.6391  0.0461 -1.2049
  174SLPC  H14B19634   5.705   1.653   6.214  0.7604  1.4884 -0.7818
  174SLPC  H14C19635   5.690   1.808   6.302  0.6142 -0.0832 -0.0696
  174SLPC   C1519636   5.628   1.744   6.530 -0.4843  0.2485  0.7576
  174SLPC  H15A19637   5.582   1.834   6.495 -0.8353 -0.8488 -1.8550
  174SLPC  H15B19638   5.576   1.701   6.614  1.5215 -0.9262  1.4763
  174SLPC  H15C19639   5.725   1.763   6.574 -0.0492 -0.8355  0.3255
  174SLPC   C1219640   5.480   1.613   6.373 -0.4770 -0.6424  0.3949
  174SLPC  H12A19641   5.425   1.586   6.461  0.8958 -0.2253  1.4072
  174SLPC  H12B19642   5.481   1.533   6.300 -0.1872  0.7546 -1.2025
  174SLPC   C1119643   5.399   1.723   6.299  0.4015 -0.0216 -0.2804
  174SLPC  H11A19644   5.292   1.694   6.284 -0.2088  0.5949  2.4383
  174SLPC  H11B19645   5.443   1.750   6.200  0.7159  0.3492 -0.0408
  174SLPC     P19646   5.283   1.835   6.507  0.6097 -0.3407 -0.1050
  174SLPC   O1319647   5.286   1.698   6.568 -0.3196  0.2802 -0.3873
  174SLPC   O1419648   5.312   1.948   6.597  0.0440 -0.6293  0.2152
  174SLPC   O1219649   5.392   1.832   6.391  0.1315 -0.6420 -0.6352
  174SLPC   O1119650   5.148   1.858   6.430 -0.4170 -0.6849  0.4511
  174SLPC    C119651   5.138   1.975   6.347 -0.1433 -0.4656 -0.2671
  174SLPC    HA19652   5.117   2.066   6.407  0.2014  0.5085 -1.5879
  174SLPC    HB19653   5.235   1.997   6.298  0.1643  0.9266  0.9015
  174SLPC    C219654   5.028   1.964   6.246  0.9083 -0.1454  0.5201
  174SLPC    HS19655   4.934   1.940   6.300  0.0292 -0.1594 -0.9761
  174SLPC   O2119656   5.055   1.859   6.150 -0.3286 -0.3337 -0.1302
  174SLPC   C2119657   4.944   1.797   6.111 -0.3096 -0.9929  0.2818
  174SLPC   O2219658   4.832   1.815   6.154  0.0379  0.0824 -0.3968
  174SLPC   C2219659   4.979   1.702   5.996 -0.3992 -0.6388 -0.1827
  174SLPC   H2R19660   5.088   1.715   5.979 -0.6168  1.5976 -0.1282
  174SLPC   H2S19661   4.951   1.601   6.033 -2.9327  0.2347  0.4225
  174SLPC    C319662   5.010   2.100   6.171  0.4391 -0.5246 -0.1910
  174SLPC    HX19663   5.110   2.145   6.155  0.8384 -0.7313  1.4915
  174SLPC    HY19664   4.963   2.169   6.243 -1.9124 -1.3387 -0.8729
  174SLPC   O3119665   4.950   2.088   6.046  0.3495  0.2433 -0.0887
  174SLPC   C3119666   4.848   2.169   6.016 -0.3338 -0.0326  0.1058
  174SLPC   O3219667   4.809   2.257   6.094 -0.3080 -0.6393  0.5560
  174SLPC   C3219668   4.793   2.135   5.881 -0.1962 -0.1724  0.5060
  174SLPC   H2X19669   4.698   2.077   5.886 -0.3066 -0.1179 -0.7272
  174SLPC   H2Y19670   4.870   2.063   5.846  0.9194  0.5336  1.4213
  174SLPC   C2319671   4.902   1.735   5.864  0.4531 -0.0193 -0.5063
  174SLPC   H3R19672   4.915   1.839   5.827 -1.2439  0.1050 -0.8336
  174SLPC   H3S19673   4.795   1.743   5.892  0.7081  0.9246  0.2655
  174SLPC   C2419674   4.909   1.617   5.762 -0.4669 -0.6240  0.4028
  174SLPC   H4R19675   5.006   1.600   5.712 -1.5202 -1.2905 -1.5248
  174SLPC   H4S19676   4.850   1.646   5.672  1.4950  0.4386 -0.6034
  174SLPC   C2519677   4.877   1.481   5.817  0.1770  0.2447 -0.4802
  174SLPC   H5R19678   4.778   1.505   5.860  1.2095  1.7951  1.1390
  174SLPC   H5S19679   4.946   1.451   5.898 -0.6634 -0.2173  0.0833
  174SLPC   C2619680   4.881   1.369   5.715 -0.1105 -0.1732  0.7757
  174SLPC   H6R19681   4.988   1.352   5.689  0.4225  2.2538  1.1530
  174SLPC   H6S19682   4.823   1.409   5.629  0.1654  1.0504  1.1389
  174SLPC   C2719683   4.821   1.239   5.765 -0.7263 -0.3834 -0.0403
  174SLPC   H7R19684   4.713   1.242   5.790  0.1057  0.4482  4.1048
  174SLPC   H7S19685   4.869   1.218   5.863 -0.7844 -2.4794 -0.4318
  174SLPC   C2819686   4.832   1.124   5.671 -0.2732  0.1820  0.2197
  174SLPC   H8R19687   4.792   1.029   5.710  0.4482 -0.6242 -0.9347
  174SLPC   H8S19688   4.941   1.112   5.650 -0.0267  0.3672  1.3502
  174SLPC   C2919689   4.761   1.155   5.540  0.2973  0.0108 -1.6230
  174SLPC   H9R19690   4.688   1.236   5.552 -0.7728 -0.9052 -1.8045
  174SLPC  C21019691   4.795   1.116   5.415 -0.4493  0.0294 -0.1088
  174SLPC  H10R19692   4.739   1.163   5.332  0.4738  0.0579 -0.7361
  174SLPC  C21119693   4.896   1.009   5.395  0.1067 -0.0224  0.3933
  174SLPC  H11R19694   4.898   0.936   5.479 -0.1286  0.1092  0.5141
  174SLPC  H11S19695   4.997   1.057   5.397  0.2649 -0.3682  1.3077
  174SLPC  C21219696   4.873   0.949   5.260 -0.3176 -0.0145  0.3792
  174SLPC  H12R19697   4.913   1.022   5.188  2.2086 -0.8493  0.8399
  174SLPC  C21319698   4.824   0.827   5.229  0.0543  0.7398  0.0520
  174SLPC  H13R19699   4.809   0.804   5.122  0.0265  0.0227  0.2110
  174SLPC  C21419700   4.782   0.724   5.328  0.3617  0.1066  0.0380
  174SLPC  H14R19701   4.689   0.673   5.293  1.7046 -0.5167 -2.9423
  174SLPC  H14S19702   4.770   0.776   5.425 -1.7604  2.9440 -1.5901
  174SLPC  C21519703   4.883   0.611   5.340  0.0201  0.4035 -0.0127
  174SLPC  H15R19704   4.889   0.549   5.248 -1.6809  0.3224 -0.0964
  174SLPC  H15S19705   4.838   0.532   5.404  0.9821 -0.8126 -0.7965
  174SLPC  C21619706   5.024   0.647   5.395 -0.4562  0.3775  0.4087
  174SLPC  H16R19707   5.043   0.757   5.402  2.8663 -0.1463  2.2343
  174SLPC  H16S19708   5.103   0.610   5.326 -2.3853 -2.6700 -0.3415
  174SLPC  C21719709   5.059   0.596   5.537  0.9202  0.7408  0.0684
  174SLPC  H17R19710   5.167   0.598   5.565  0.7584 -0.4584  0.8201
  174SLPC  H17S19711   5.020   0.492   5.529 -1.0115  1.5220 -1.5408
  174SLPC  C21819712   4.978   0.677   5.643  0.2735 -0.1680  0.1425
  174SLPC  H18R19713   5.024   0.676   5.744  0.8563 -2.9567 -0.0813
  174SLPC  H18S19714   4.873   0.642   5.645  0.7040 -1.5675 -0.2841
  174SLPC  H18T19715   4.966   0.782   5.609 -3.1584 -0.5977 -0.3252
  174SLPC   C3319716   4.778   2.249   5.785  0.7960 -0.0524 -0.4137
  174SLPC   H3X19717   4.784   2.198   5.686  2.0945 -0.1391 -0.3104
  174SLPC   H3Y19718   4.859   2.325   5.793  0.2614  0.4975 -0.1592
  174SLPC   C3419719   4.647   2.336   5.812 -0.0579 -0.1374  0.4428
  174SLPC   H4X19720   4.654   2.375   5.916  3.4405  3.8832 -1.0351
  174SLPC   H4Y19721   4.555   2.274   5.804  0.4466 -0.6996 -1.4881
  174SLPC   C3519722   4.640   2.451   5.717  0.7494  0.7347 -0.5470
  174SLPC   H5X19723   4.705   2.533   5.755 -0.0193  0.6621  1.0402
  174SLPC   H5Y19724   4.536   2.490   5.716  0.9739  1.3449 -1.9547
  174SLPC   C3619725   4.669   2.418   5.572 -0.2926 -0.2608  1.1098
  174SLPC   H6X19726   4.617   2.323   5.549  1.3196 -1.5167  2.4125
  174SLPC   H6Y19727   4.776   2.398   5.550 -0.8541 -0.6043 -1.6311
  174SLPC   C3719728   4.634   2.545   5.489  0.5674  0.1148 -0.5110
  174SLPC   H7X19729   4.690   2.631   5.530 -0.3255 -0.6050  2.4319
  174SLPC   H7Y19730   4.525   2.558   5.507  0.5742  1.1181 -1.1024
  174SLPC   C3819731   4.658   2.536   5.341  0.9497  0.1889  0.3063
  174SLPC   H8X19732   4.613   2.438   5.310  0.2461  1.1027 -1.7928
  174SLPC   H8Y19733   4.768   2.527   5.336  0.9890 -0.0806  1.4344
  174SLPC   C3919734   4.607   2.659   5.269  0.0853  0.4445  0.6186
  174SLPC   H9X19735   4.666   2.749   5.298 -0.8829  0.8286  1.4434
  174SLPC   H9Y19736   4.499   2.679   5.286  0.1774  1.7868 -0.2036
  174SLPC  C31019737   4.648   2.629   5.118  0.1532  0.2020  0.7833
  174SLPC  H10X19738   4.607   2.528   5.098  1.1811 -0.1421  0.3513
  174SLPC  H10Y19739   4.759   2.622   5.121  0.1625 -0.3936 -0.5449
  174SLPC  C31119740   4.596   2.736   5.017 -0.6653  0.5422 -0.3374
  174SLPC  H11X19741   4.649   2.830   5.039  2.0211 -1.3390  1.9275
  174SLPC  H11Y19742   4.487   2.750   5.032 -0.5645 -0.3501  1.4231
  174SLPC  C31219743   4.617   2.697   4.869 -0.2422  0.0329  0.1186
  174SLPC  H12X19744   4.554   2.606   4.857 -0.3494 -0.1301  1.7547
  174SLPC  H12Y19745   4.723   2.675   4.844 -0.3568  1.3858 -1.7855
  174SLPC  C31319746   4.567   2.805   4.774 -0.1197  0.0167 -0.3062
  174SLPC  H13X19747   4.657   2.865   4.752  0.2145 -0.6183 -0.6854
  174SLPC  H13Y19748   4.491   2.864   4.830  0.8428  0.6110  0.3974
  174SLPC  C31419749   4.505   2.751   4.645  0.7138 -0.4707 -0.1112
  174SLPC  H14X19750   4.441   2.835   4.610  0.7906  0.3842  1.6660
  174SLPC  H14Y19751   4.434   2.674   4.682 -1.3009  0.8278 -1.0890
  174SLPC  C31519752   4.599   2.717   4.537  0.5327 -0.2464 -0.6198
  174SLPC  H15X19753   4.683   2.650   4.566  0.4773  0.0804  0.3167
  174SLPC  H15Y19754   4.646   2.808   4.494  1.0594 -0.9552 -1.5921
  174SLPC  C31619755   4.518   2.640   4.427  0.2067 -1.2472  0.1405
  174SLPC  H16X19756   4.411   2.669   4.435  0.2933 -1.1615  1.1367
  174SLPC  H16Y19757   4.517   2.532   4.451 -1.5883 -1.2472  0.2005
  174SLPC  C31719758   4.580   2.659   4.284 -0.1075  0.1961  0.1808
  174SLPC  H17X19759   4.672   2.597   4.274 -0.0059  0.5301 -1.3123
  174SLPC  H17Y19760   4.599   2.767   4.268  0.2829 -0.0227 -1.0185
  174SLPC  C31819761   4.499   2.614   4.159 -0.3395  0.5024  0.4393
  174SLPC  H18X19762   4.503   2.503   4.148  1.3574  0.6411 -0.7141
  174SLPC  H18Y19763   4.537   2.655   4.063 -0.0711 -0.5463  0.0794
  174SLPC  H18Z19764   4.390   2.635   4.156 -0.6364 -0.9741  0.2372
  175SLPC     N19765   1.394   1.731   6.495 -0.8952  0.0633  0.2199
  175SLPC   C1319766   1.386   1.585   6.535 -0.4181  0.6902 -0.4804
  175SLPC  H13A19767   1.347   1.515   6.463  1.4035  0.1177 -0.9623
  175SLPC  H13B19768   1.484   1.543   6.550 -0.2264  0.5017 -2.1375
  175SLPC  H13C19769   1.324   1.569   6.622  0.9492  0.9464  0.5685
  175SLPC   C1419770   1.494   1.737   6.387 -0.2120  0.2762 -0.4953
  175SLPC  H14A19771   1.514   1.836   6.348  0.8734 -0.1581 -1.0720
  175SLPC  H14B19772   1.586   1.709   6.436  0.5387  2.0555 -0.7952
  175SLPC  H14C19773   1.472   1.668   6.307 -2.5786 -0.5359  0.7443
  175SLPC   C1519774   1.433   1.812   6.614  0.2496  0.2552  1.2140
  175SLPC  H15A19775   1.450   1.913   6.579  0.7832 -0.3097 -0.2608
  175SLPC  H15B19776   1.358   1.807   6.691 -1.8540  2.1007 -0.5933
  175SLPC  H15C19777   1.526   1.776   6.656  1.0694 -0.1142 -0.7713
  175SLPC   C1219778   1.259   1.775   6.440  0.5509  0.2727  0.2005
  175SLPC  H12A19779   1.258   1.881   6.418 -2.8071 -0.1085 -2.0388
  175SLPC  H12B19780   1.185   1.757   6.517  1.6219 -0.6606  1.0478
  175SLPC   C1119781   1.211   1.707   6.308 -0.6667 -0.4694  0.4998
  175SLPC  H11A19782   1.296   1.723   6.238  0.0311  1.4525  1.7232
  175SLPC  H11B19783   1.126   1.764   6.265 -0.0362  0.9524  1.0773
  175SLPC     P19784   1.056   1.527   6.401 -0.0796  0.5576  0.3390
  175SLPC   O1319785   1.102   1.410   6.479 -0.3674 -0.7175  0.3830
  175SLPC   O1419786   1.004   1.640   6.480  0.0817  0.0565  0.0666
  175SLPC   O1219787   1.184   1.569   6.322  0.3486  0.5679  0.3427
  175SLPC   O1119788   0.945   1.475   6.300  0.5171 -0.6166 -0.0202
  175SLPC    C119789   0.957   1.521   6.165 -0.0186 -0.4991 -0.0431
  175SLPC    HA19790   0.854   1.558   6.144  1.0540  2.3940 -0.5607
  175SLPC    HB19791   1.017   1.611   6.141 -0.5101 -0.0395  0.4177
  175SLPC    C219792   1.005   1.403   6.074 -0.3579 -0.4798  0.5235
  175SLPC    HS19793   1.112   1.394   6.105 -0.1894 -0.1311  0.0530
  175SLPC   O2119794   0.974   1.446   5.940  0.0599  0.1374  0.2619
  175SLPC   C2119795   1.056   1.376   5.859 -0.5740 -0.5432 -0.3481
  175SLPC   O2219796   1.163   1.317   5.894  0.2422 -0.6020  0.1503
  175SLPC   C2219797   0.992   1.383   5.723 -0.2882 -0.8085  0.1291
  175SLPC   H2R19798   0.935   1.289   5.714 -3.9491  1.3235 -1.5140
  175SLPC   H2S19799   0.922   1.469   5.710  1.4831  0.6701 -0.0844
  175SLPC    C319800   0.938   1.271   6.113  0.0347 -0.6753 -0.1743
  175SLPC    HX19801   0.976   1.245   6.214 -0.8983 -0.9768  0.1132
  175SLPC    HY19802   0.974   1.194   6.042  0.5471  0.1779 -0.8728
  175SLPC   O3119803   0.797   1.267   6.117  0.2158  0.0310 -0.0207
  175SLPC   C3119804   0.732   1.252   6.000  0.3773  0.8269  1.1222
  175SLPC   O3219805   0.784   1.220   5.898 -0.1265  0.6455 -0.1468
  175SLPC   C3219806   0.585   1.281   6.018 -0.0648  0.1312 -0.2693
  175SLPC   H2X19807   0.578   1.314   6.124  0.9933  0.8032 -0.3964
  175SLPC   H2Y19808   0.529   1.186   6.009  1.9473 -1.3731  1.8515
  175SLPC   C2319809   1.104   1.399   5.619 -0.1905 -0.2172 -0.9958
  175SLPC   H3R19810   1.183   1.326   5.647 -1.5981 -1.2064  0.5658
  175SLPC   H3S19811   1.154   1.499   5.616 -1.5170  0.5102  0.0338
  175SLPC   C2419812   1.074   1.356   5.473 -0.2388 -0.6241  0.1100
  175SLPC   H4R19813   1.088   1.246   5.470 -0.6387 -0.6614 -0.4442
  175SLPC   H4S19814   1.147   1.417   5.416 -2.8567  2.7703  0.1202
  175SLPC   C2519815   0.932   1.391   5.425  0.5939 -0.1615 -0.4745
  175SLPC   H5R19816   0.921   1.498   5.453  0.1951 -0.7133  1.6370
  175SLPC   H5S19817   0.857   1.326   5.474 -0.1380  1.7514  1.0583
  175SLPC   C2619818   0.915   1.395   5.269  0.1438  0.3331  0.4867
  175SLPC   H6R19819   0.999   1.449   5.221  0.1446 -2.0293 -2.4506
  175SLPC   H6S19820   0.822   1.454   5.256  1.5195  2.2955 -1.0430
  175SLPC   C2719821   0.927   1.254   5.206 -0.1845  0.5027  0.3314
  175SLPC   H7R19822   0.852   1.180   5.240 -1.1666  1.2277 -0.2215
  175SLPC   H7S19823   1.022   1.204   5.235  0.3672  0.9616 -0.6502
  175SLPC   C2819824   0.926   1.258   5.046  0.4577  0.6450 -0.2828
  175SLPC   H8R19825   0.837   1.319   5.021  2.0848  2.1006 -3.0546
  175SLPC   H8S19826   0.917   1.151   5.017  1.0360 -0.0646  1.9663
  175SLPC   C2919827   1.053   1.307   4.988 -0.0726  0.0578 -0.2579
  175SLPC   H9R19828   1.106   1.380   5.050 -0.7070 -0.5868  1.0718
  175SLPC  C21019829   1.118   1.280   4.870 -0.3042  0.9054 -0.4615
  175SLPC  H10R19830   1.214   1.328   4.846 -0.0162  0.2912 -0.5457
  175SLPC  C21119831   1.079   1.182   4.759  0.1260 -0.2764  0.0539
  175SLPC  H11R19832   1.079   1.251   4.672 -1.1266 -0.0184  0.2383
  175SLPC  H11S19833   0.978   1.138   4.772  1.1935 -2.6351  0.8338
  175SLPC  C21219834   1.181   1.079   4.733  0.4936  0.2430  0.0347
  175SLPC  H12R19835   1.163   0.986   4.789  1.6709 -0.4251 -0.6399
  175SLPC  C21319836   1.286   1.084   4.651 -0.1369 -0.0555 -0.1771
  175SLPC  H13R19837   1.346   0.992   4.652  1.0089  0.5770  3.3229
  175SLPC  C21419838   1.322   1.199   4.565 -0.6828  0.0167  0.4556
  175SLPC  H14R19839   1.433   1.206   4.559 -0.6334 -1.5168 -2.0181
  175SLPC  H14S19840   1.280   1.294   4.605  0.0329  0.0540  1.1431
  175SLPC  C21519841   1.288   1.187   4.414  0.2647 -0.4174 -0.1848
  175SLPC  H15R19842   1.306   1.290   4.377 -0.8447  0.2261  0.9932
  175SLPC  H15S19843   1.179   1.171   4.404 -0.1833  2.1809 -0.1316
  175SLPC  C21619844   1.366   1.086   4.332  0.5163  0.3247  0.0862
  175SLPC  H16R19845   1.334   0.984   4.359 -0.3045  0.7540  0.7680
  175SLPC  H16S19846   1.476   1.086   4.347  0.8589 -0.7026 -2.1249
  175SLPC  C21719847   1.341   1.104   4.181 -0.2997  0.0172 -0.1896
  175SLPC  H17R19848   1.398   1.195   4.154  1.4284 -1.2361 -0.9426
  175SLPC  H17S19849   1.231   1.116   4.169 -0.5279 -0.0283  1.6491
  175SLPC  C21819850   1.405   1.003   4.082  0.1048  0.4856 -0.9658
  175SLPC  H18R19851   1.352   0.907   4.090  1.1947 -0.2630 -2.3466
  175SLPC  H18S19852   1.512   0.984   4.107  0.2051  1.7486 -0.3453
  175SLPC  H18T19853   1.403   1.031   3.975  1.5782 -1.4151 -1.5466
  175SLPC   C3319854   0.533   1.390   5.921  0.1431  0.2865 -0.2236
  175SLPC   H3X19855   0.425   1.399   5.944 -0.3953 -3.5094 -0.5949
  175SLPC   H3Y19856   0.543   1.366   5.813 -1.7955 -1.0072 -0.1562
  175SLPC   C3419857   0.604   1.522   5.931  0.2258 -0.3525  0.2754
  175SLPC   H4X19858   0.713   1.511   5.913  0.2935  0.2905  0.2523
  175SLPC   H4Y19859   0.592   1.567   6.031 -0.6462  1.1357 -0.4634
  175SLPC   C3519860   0.561   1.625   5.830 -0.6645 -0.4090  0.2559
  175SLPC   H5X19861   0.609   1.724   5.848  0.4776 -0.8645 -0.2384
  175SLPC   H5Y19862   0.450   1.626   5.831 -0.6668 -0.5348  1.7207
  175SLPC   C3619863   0.616   1.591   5.688  0.0441  0.1024 -0.3756
  175SLPC   H6X19864   0.565   1.496   5.659 -1.8640  0.2922  1.9760
  175SLPC   H6Y19865   0.725   1.571   5.688 -0.3043 -2.0577 -0.1485
  175SLPC   C3719866   0.583   1.701   5.579  0.9786  0.0713 -0.4605
  175SLPC   H7X19867   0.647   1.789   5.600  0.7740  0.2727 -0.6786
  175SLPC   H7Y19868   0.481   1.745   5.589  2.3105  3.0836  1.3475
  175SLPC   C3819869   0.601   1.649   5.440 -0.0923  0.0163  0.0076
  175SLPC   H8X19870   0.695   1.592   5.432 -0.1090 -0.4130  2.1889
  175SLPC   H8Y19871   0.607   1.736   5.370  0.3768 -1.5296 -1.9557
  175SLPC   C3919872   0.477   1.560   5.396  0.0309  0.5042 -0.2636
  175SLPC   H9X19873   0.378   1.606   5.418 -0.6042 -0.5193 -0.8599
  175SLPC   H9Y19874   0.478   1.463   5.451  0.7881  1.7692  2.0676
  175SLPC  C31019875   0.490   1.514   5.252 -0.5133  0.0094  0.5330
  175SLPC  H10X19876   0.399   1.458   5.219  0.3268  0.4392 -2.9762
  175SLPC  H10Y19877   0.576   1.444   5.245 -1.2019 -0.8346  0.2760
  175SLPC  C31119878   0.496   1.628   5.137  0.6284  0.0145 -0.0465
  175SLPC  H11X19879   0.595   1.677   5.147  0.3104  0.9479 -1.3319
  175SLPC  H11Y19880   0.408   1.687   5.170  0.1939 -1.1000  0.8715
  175SLPC  C31219881   0.482   1.561   4.999  0.0606 -0.8096 -0.2253
  175SLPC  H12X19882   0.400   1.492   5.026 -0.2152  1.0385  4.7129
  175SLPC  H12Y19883   0.581   1.512   4.983  1.3197  0.2853  3.1661
  175SLPC  C31319884   0.448   1.673   4.896 -0.0713  0.1177  0.1372
  175SLPC  H13X19885   0.532   1.744   4.911 -0.4115  0.9817 -1.7258
  175SLPC  H13Y19886   0.353   1.715   4.933 -0.2577  0.0194 -0.2225
  175SLPC  C31419887   0.426   1.632   4.752 -0.0268  0.6288  0.7925
  175SLPC  H14X19888   0.357   1.544   4.748  1.0863 -0.2548  0.5603
  175SLPC  H14Y19889   0.515   1.592   4.700 -0.6045 -1.0925  1.0424
  175SLPC  C31519890   0.364   1.755   4.682 -0.7070 -0.2232 -0.1076
  175SLPC  H15X19891   0.438   1.837   4.696 -2.0167  0.5374  3.5042
  175SLPC  H15Y19892   0.283   1.796   4.745  2.1003  1.3488  2.7589
  175SLPC  C31619893   0.323   1.724   4.536 -0.1942 -0.6034  0.1014
  175SLPC  H16X19894   0.290   1.618   4.531  0.1615 -0.6541 -1.6369
  175SLPC  H16Y19895   0.405   1.755   4.467 -0.4806 -1.0230 -0.4339
  175SLPC  C31719896   0.194   1.804   4.492  0.0040  1.0691 -0.7167
  175SLPC  H17X19897   0.197   1.910   4.524 -0.0903  0.8842 -0.0579
  175SLPC  H17Y19898   0.105   1.751   4.533  0.6586  1.0859  0.8238
  175SLPC  C31819899   0.180   1.788   4.339 -0.0828  0.2671 -0.1161
  175SLPC  H18X19900   0.186   1.683   4.304 -1.2510 -1.2061  3.6206
  175SLPC  H18Y19901   0.265   1.836   4.286 -0.2698 -0.1116 -0.7643
  175SLPC  H18Z19902   0.086   1.836   4.304  0.7746  2.5290  0.4918
  176SLPC     N19903   5.255   6.190   6.537  0.7740  0.2459 -0.4935
  176SLPC   C1319904   5.237   6.062   6.465  0.1919 -0.1233 -0.2578
  176SLPC  H13A19905   5.228   5.978   6.532 -0.4727 -1.1392 -1.5690
  176SLPC  H13B19906   5.145   6.059   6.408  0.0245  0.4131 -0.0272
  176SLPC  H13C19907   5.316   6.047   6.394 -1.3759 -0.0507 -2.0971
  176SLPC   C1419908   5.388   6.185   6.610 -0.1006  0.0635 -0.0265
  176SLPC  H14A19909   5.407   6.091   6.660  0.9103  0.5698  0.5746
  176SLPC  H14B19910   5.471   6.200   6.542  1.1899  0.4419  1.5568
  176SLPC  H14C19911   5.385   6.260   6.688  2.6153 -2.1238  2.4396
  176SLPC   C1519912   5.137   6.195   6.631  0.1196 -0.5756 -0.0536
  176SLPC  H15A19913   5.139   6.112   6.700  1.2871 -1.6671 -1.3455
  176SLPC  H15B19914   5.152   6.285   6.690  1.0342 -1.2120  0.7181
  176SLPC  H15C19915   5.045   6.196   6.575 -0.1343 -2.9546  0.2485
  176SLPC   C1219916   5.246   6.320   6.452  0.3475  0.2971  0.1508
  176SLPC  H12A19917   5.271   6.398   6.523  2.1965 -1.7756  1.9156
  176SLPC  H12B19918   5.144   6.338   6.421  0.2978  0.4382  0.3867
  176SLPC   C1119919   5.327   6.336   6.325  0.6208 -0.4084 -0.3334
  176SLPC  H11A19920   5.308   6.423   6.258 -0.1245  0.2292  0.6703
  176SLPC  H11B19921   5.307   6.250   6.258  0.5432 -1.2904  0.7867
  176SLPC     P19922   5.549   6.468   6.362  0.4740 -0.2232 -0.1436
  176SLPC   O1319923   5.478   6.561   6.451 -0.2306  0.0841  0.3663
  176SLPC   O1419924   5.688   6.433   6.397 -0.3960  0.0734 -0.0700
  176SLPC   O1219925   5.466   6.339   6.352  0.2177 -0.4566 -0.0833
  176SLPC   O1119926   5.540   6.523   6.218  0.2964  0.0758  1.1669
  176SLPC    C119927   5.629   6.463   6.116 -0.3546  0.1490  0.3673
  176SLPC    HA19928   5.657   6.358   6.140  2.0712  1.0607  1.9814
  176SLPC    HB19929   5.587   6.459   6.013  0.9370 -0.7434 -0.1510
  176SLPC    C219930   5.758   6.552   6.095 -0.2117 -0.1013  0.5198
  176SLPC    HS19931   5.781   6.587   6.198 -1.7498 -1.1276  1.2488
  176SLPC   O2119932   5.732   6.665   6.004 -0.0692  0.4502  0.9902
  176SLPC   C2119933   5.785   6.779   6.040  0.7317 -0.0532  0.1496
  176SLPC   O2219934   5.854   6.802   6.140 -0.0586 -0.0263 -0.0625
  176SLPC   C2219935   5.767   6.893   5.932 -0.2231 -0.9734 -0.1309
  176SLPC   H2R19936   5.673   6.946   5.955  1.0752  1.4303  0.0006
  176SLPC   H2S19937   5.844   6.973   5.937 -0.3952 -0.7151 -1.2504
  176SLPC    C319938   5.883   6.473   6.054  0.2525  0.1235 -0.1308
  176SLPC    HX19939   5.859   6.411   5.966 -0.2391  0.1578 -0.0234
  176SLPC    HY19940   5.913   6.395   6.128  1.6658  0.7833  0.0408
  176SLPC   O3119941   5.982   6.564   6.008  0.3608  0.1702  0.0338
  176SLPC   C3119942   6.107   6.570   6.060 -0.2719  1.0026 -0.0643
  176SLPC   O3219943   6.151   6.515   6.158 -1.1741  0.5954  0.1252
  176SLPC   C3219944   6.189   6.638   5.955  0.1055 -0.1148  0.3536
  176SLPC   H2X19945   6.234   6.555   5.897 -1.7674 -2.2526  1.8325
  176SLPC   H2Y19946   6.269   6.690   6.012  1.8175 -0.9791 -1.1532
  176SLPC   C2319947   5.765   6.833   5.788  0.3639  0.6882 -0.0727
  176SLPC   H3R19948   5.680   6.765   5.765  0.4432  1.1287 -1.7716
  176SLPC   H3S19949   5.867   6.788   5.784  0.5319  0.3036  3.9316
  176SLPC   C2419950   5.755   6.942   5.683 -0.1601  0.6386  0.0210
  176SLPC   H4R19951   5.845   7.007   5.696 -0.8024  1.4858  0.3380
  176SLPC   H4S19952   5.661   6.996   5.707  0.4269  0.9076  1.8664
  176SLPC   C2519953   5.765   6.887   5.539 -0.1723 -0.1463  0.5584
  176SLPC   H5R19954   5.695   6.801   5.536  0.1766 -0.4480  0.9296
  176SLPC   H5S19955   5.872   6.857   5.539  1.1746  3.9891  2.5669
  176SLPC   C2619956   5.730   7.008   5.444 -0.1533  0.5589 -0.5037
  176SLPC   H6R19957   5.806   7.088   5.453  0.9270 -0.3452 -1.1884
  176SLPC   H6S19958   5.633   7.046   5.482  0.2808 -1.1480  2.6781
  176SLPC   C2719959   5.695   6.978   5.296  0.3673  0.2859  0.3891
  176SLPC   H7R19960   5.629   7.061   5.263 -1.2138 -0.8672  0.5375
  176SLPC   H7S19961   5.628   6.891   5.281  0.8735 -0.1360  0.5608
  176SLPC   C2819962   5.821   6.974   5.209 -0.1096  0.2556  0.0742
  176SLPC   H8R19963   5.890   6.899   5.255 -1.8117 -0.2992  1.8550
  176SLPC   H8S19964   5.868   7.074   5.197  2.3741 -0.5744  1.9992
  176SLPC   C2919965   5.784   6.920   5.076 -0.3194 -0.1648 -0.0236
  176SLPC   H9R19966   5.772   6.811   5.062  1.2142 -0.3126 -0.3693
  176SLPC  C21019967   5.755   6.983   4.963 -0.1004  0.2891 -0.0378
  176SLPC  H10R19968   5.742   6.919   4.874 -3.4590  0.4513  0.1899
  176SLPC  C21119969   5.754   7.134   4.951  0.4582 -0.4064  0.1250
  176SLPC  H11R19970   5.852   7.179   4.926 -0.5222  2.9101  1.6217
  176SLPC  H11S19971   5.741   7.191   5.045 -1.5542  0.0089 -0.3453
  176SLPC  C21219972   5.651   7.175   4.845 -0.2671 -0.6548 -0.5963
  176SLPC  H12R19973   5.696   7.178   4.745 -2.5554  0.8883 -1.6777
  176SLPC  C21319974   5.533   7.222   4.874  0.1475 -0.7545  0.2079
  176SLPC  H13R19975   5.469   7.231   4.785  0.6421 -3.6795 -0.5223
  176SLPC  C21419976   5.473   7.236   5.012  0.1627  0.5990 -0.0553
  176SLPC  H14R19977   5.494   7.333   5.062 -3.0980  0.7978  1.2031
  176SLPC  H14S19978   5.501   7.149   5.075  0.9378 -0.2578 -1.5495
  176SLPC  C21519979   5.318   7.218   4.999  0.1683  0.0523  0.7601
  176SLPC  H15R19980   5.293   7.112   4.977  0.1455  0.5271 -1.7572
  176SLPC  H15S19981   5.272   7.277   4.918 -0.8305  0.3347  1.5179
  176SLPC  C21619982   5.248   7.262   5.128 -0.2805  0.1738  0.5379
  176SLPC  H16R19983   5.262   7.369   5.154  0.8414 -0.0740  1.0131
  176SLPC  H16S19984   5.295   7.194   5.203  2.1175  1.4257  0.2863
  176SLPC  C21719985   5.095   7.235   5.116  0.0413  0.0909 -1.1231
  176SLPC  H17R19986   5.054   7.253   5.217 -0.8057  0.3011 -1.4913
  176SLPC  H17S19987   5.067   7.128   5.103  1.5882 -0.4620 -0.1084
  176SLPC  C21819988   5.028   7.325   5.009 -0.5312  0.1797 -0.4589
  176SLPC  H18R19989   5.050   7.433   5.022  0.5490 -0.1028  0.1599
  176SLPC  H18S19990   4.918   7.309   5.003 -0.3723 -1.7512  0.9065
  176SLPC  H18T19991   5.070   7.304   4.908  0.5488  1.5125 -0.3065
  176SLPC   C3319992   6.120   6.754   5.869  0.4148 -0.0395  0.7854
  176SLPC   H3X19993   6.056   6.818   5.933  0.1749  0.4094  0.1067
  176SLPC   H3Y19994   6.054   6.713   5.790  0.6225 -0.1859  0.6849
  176SLPC   C3419995   6.229   6.842   5.795  0.3038  0.1955 -0.1750
  176SLPC   H4X19996   6.274   6.904   5.875  0.1843  0.1122 -0.0417
  176SLPC   H4Y19997   6.184   6.925   5.736  0.2374 -1.0589 -1.9376
  176SLPC   C3519998   6.333   6.756   5.710 -0.2853 -0.2541  0.2149
  176SLPC   H5X19999   6.386   6.693   5.785  1.8450  0.0881 -0.9268
  176SLPC   H5Y20000   6.409   6.826   5.670 -1.4950 -0.0720 -1.8960
  176SLPC   C3620001   6.276   6.683   5.595  0.1252 -0.2242  0.1114
  176SLPC   H6X20002   6.200   6.746   5.544  0.5481  1.1201  1.0878
  176SLPC   H6Y20003   6.215   6.598   5.632 -0.4816  0.1154 -0.1063
  176SLPC   C3720004   6.381   6.628   5.497  0.0995 -0.4063  0.1700
  176SLPC   H7X20005   6.453   6.566   5.555 -1.8581 -2.0574  0.9261
  176SLPC   H7Y20006   6.425   6.723   5.460 -0.2531 -0.4225 -0.3061
  176SLPC   C3820007   6.311   6.536   5.392 -0.2533 -0.0254 -0.3219
  176SLPC   H8X20008   6.260   6.447   5.433  3.0518 -1.7835  0.2821
  176SLPC   H8Y20009   6.395   6.487   5.337 -0.6866 -0.5402 -0.5301
  176SLPC   C3920010   6.227   6.617   5.288 -0.5918 -0.5661  0.1552
  176SLPC   H9X20011   6.306   6.630   5.210  2.0831 -0.0356  2.7736
  176SLPC   H9Y20012   6.203   6.714   5.336 -1.3445 -0.7849  0.2355
  176SLPC  C31020013   6.108   6.545   5.236  0.0296 -0.3094 -0.3020
  176SLPC  H10X20014   6.040   6.525   5.321  1.7323 -0.1996  1.1403
  176SLPC  H10Y20015   6.142   6.447   5.197 -1.0685  0.0655 -2.3579
  176SLPC  C31120016   6.040   6.605   5.114 -0.1623 -0.4590  0.7781
  176SLPC  H11X20017   5.989   6.702   5.129  2.0764  0.6551  1.5806
  176SLPC  H11Y20018   5.958   6.539   5.078 -0.3451  0.9714 -1.6643
  176SLPC  C31220019   6.118   6.635   4.980 -0.2977  0.3798 -0.1580
  176SLPC  H12X20020   6.163   6.538   4.950 -1.0752 -0.4963  1.3943
  176SLPC  H12Y20021   6.203   6.705   4.992  0.2226  0.4514 -3.3345
  176SLPC  C31320022   6.037   6.707   4.868 -0.0344 -1.0693  0.2638
  176SLPC  H13X20023   6.099   6.728   4.779 -0.0533 -2.0126  0.0124
  176SLPC  H13Y20024   6.013   6.799   4.925  1.0767 -1.9998  2.3853
  176SLPC  C31420025   5.912   6.624   4.820 -0.1408 -0.3259  0.2462
  176SLPC  H14X20026   5.831   6.614   4.895 -0.4399 -0.1624 -0.0544
  176SLPC  H14Y20027   5.949   6.524   4.789  0.3944 -0.3765  1.0181
  176SLPC  C31520028   5.853   6.693   4.700  0.4742 -0.9308  0.3279
  176SLPC  H15X20029   5.933   6.734   4.635 -1.4034  1.0012 -0.9217
  176SLPC  H15Y20030   5.792   6.782   4.727  0.8368 -0.2555 -0.9551
  176SLPC  C31620031   5.757   6.598   4.627 -0.0834 -0.4375 -0.1094
  176SLPC  H16X20032   5.682   6.656   4.569  2.3430  0.6799 -2.3742
  176SLPC  H16Y20033   5.703   6.538   4.703 -1.0398  2.6315  1.8611
  176SLPC  C31720034   5.827   6.523   4.519  0.0477  0.2882 -0.0046
  176SLPC  H17X20035   5.880   6.440   4.571 -0.6128  0.0536  0.3171
  176SLPC  H17Y20036   5.910   6.578   4.471  0.7653 -0.5422  0.2475
  176SLPC  C31820037   5.731   6.472   4.412 -0.3552 -0.4181 -0.2742
  176SLPC  H18X20038   5.704   6.553   4.341  0.6933 -0.4820 -0.7683
  176SLPC  H18Y20039   5.634   6.436   4.454 -0.4238 -0.6105 -0.5936
  176SLPC  H18Z20040   5.769   6.395   4.342  1.3593 -0.8646  1.0835
  177SLPC     N20041   0.092   0.386   6.529 -0.1877  0.7428 -0.3569
  177SLPC   C1320042   0.205   0.301   6.580  0.0044 -0.7276 -0.0058
  177SLPC  H13A20043   0.286   0.291   6.508  0.8960  3.2341  0.2205
  177SLPC  H13B20044   0.240   0.339   6.675 -1.5070  0.9241 -0.0575
  177SLPC  H13C20045   0.158   0.206   6.597 -0.8221 -0.2392  0.5160
  177SLPC   C1420046   0.137   0.526   6.533 -0.6828  0.1759 -0.4647
  177SLPC  H14A20047   0.049   0.585   6.512 -1.4446 -1.0744 -0.9265
  177SLPC  H14B20048   0.180   0.549   6.629  0.0167  0.9886 -0.9587
  177SLPC  H14C20049   0.202   0.547   6.449  1.3656  0.6526  1.1587
  177SLPC   C1520050  -0.016   0.372   6.620 -0.0572 -0.7183  0.2013
  177SLPC  H15A20051   0.008   0.310   6.705 -0.3783 -1.1770 -0.0364
  177SLPC  H15B20052  -0.053   0.466   6.659 -0.3570 -0.2029 -1.2408
  177SLPC  H15C20053  -0.099   0.326   6.569  0.1257 -0.4272 -0.3655
  177SLPC   C1220054   0.047   0.342   6.384 -0.0416  0.1922 -0.2185
  177SLPC  H12A20055   0.060   0.235   6.379 -0.6289 -0.0560  2.0254
  177SLPC  H12B20056   0.125   0.370   6.316  0.1126  2.0400  0.6587
  177SLPC   C1120057  -0.098   0.387   6.338 -0.2637  0.0970  0.8126
  177SLPC  H11A20058  -0.099   0.363   6.229  1.6604  2.6876  0.1276
  177SLPC  H11B20059  -0.103   0.495   6.361 -2.6023  0.7446 -2.1214
  177SLPC     P20060  -0.344   0.291   6.340 -0.3350  0.2083  0.0358
  177SLPC   O1320061  -0.346   0.154   6.289  0.3581 -0.0687  0.2721
  177SLPC   O1420062  -0.440   0.313   6.450 -0.3107  0.3823 -0.1267
  177SLPC   O1220063  -0.203   0.316   6.401  0.8704 -0.0995 -0.9868
  177SLPC   O1120064  -0.359   0.395   6.222 -0.2442  0.1579 -0.9105
  177SLPC    C120065  -0.476   0.379   6.140  0.5032  0.3224 -0.1358
  177SLPC    HA20066  -0.539   0.288   6.141 -1.5615  1.7031  0.4631
  177SLPC    HB20067  -0.548   0.460   6.163  0.5879  0.2726  0.3134
  177SLPC    C220068  -0.430   0.399   5.993  0.1580  0.8948 -0.1588
  177SLPC    HS20069  -0.385   0.501   5.984 -0.1840  0.9968 -0.7417
  177SLPC   O2120070  -0.552   0.371   5.927  0.0491 -0.3386 -0.2687
  177SLPC   C2120071  -0.571   0.442   5.820  0.2031  0.3001 -0.4319
  177SLPC   O2220072  -0.495   0.523   5.767 -0.2799  0.3312  0.1126
  177SLPC   C2220073  -0.724   0.431   5.786  0.4901  0.4136 -0.5196
  177SLPC   H2R20074  -0.767   0.336   5.823  1.5969  0.8289  2.0257
  177SLPC   H2S20075  -0.787   0.511   5.831  1.0242  0.7792 -0.4129
  177SLPC    C320076  -0.329   0.293   5.942  0.2072 -0.3974  0.4003
  177SLPC    HX20077  -0.361   0.194   5.981 -0.4012  0.0585  1.1041
  177SLPC    HY20078  -0.233   0.306   5.998  0.6315  1.7121 -0.7370
  177SLPC   O3120079  -0.318   0.295   5.798 -0.1953  0.0058  0.0879
  177SLPC   C3120080  -0.236   0.387   5.753  0.3101 -0.0480  0.3170
  177SLPC   O3220081  -0.179   0.475   5.813 -0.6236  0.3568  0.3507
  177SLPC   C3220082  -0.217   0.363   5.597  0.7129  0.4761  0.3363
  177SLPC   H2X20083  -0.319   0.381   5.555  1.1633  3.7667  0.4067
  177SLPC   H2Y20084  -0.186   0.258   5.575 -2.4882 -0.7108  0.8940
  177SLPC   C2320085  -0.753   0.455   5.631  0.5070 -0.1022 -0.3338
  177SLPC   H3R20086  -0.749   0.564   5.611 -0.0195 -0.2320 -1.2128
  177SLPC   H3S20087  -0.858   0.420   5.621 -0.3701  1.8465  1.3775
  177SLPC   C2420088  -0.659   0.379   5.537  0.6053 -0.5461 -0.2101
  177SLPC   H4R20089  -0.664   0.273   5.572 -0.7668  0.2040  2.0501
  177SLPC   H4S20090  -0.556   0.422   5.542  0.3728  0.0541 -0.5278
  177SLPC   C2520091  -0.697   0.386   5.384  0.0030 -0.3531 -0.3203
  177SLPC   H5R20092  -0.688   0.495   5.363 -1.9887  0.3541  2.0236
  177SLPC   H5S20093  -0.805   0.359   5.385 -0.5395  1.6052  1.8312
  177SLPC   C2620094  -0.613   0.300   5.285 -0.7232  0.4064 -0.7974
  177SLPC   H6R20095  -0.547   0.368   5.226 -1.0507  0.7480 -0.7720
  177SLPC   H6S20096  -0.685   0.252   5.216 -0.5356  2.6260 -2.6860
  177SLPC   C2720097  -0.528   0.191   5.347 -0.3006 -0.0944  0.2945
  177SLPC   H7R20098  -0.588   0.125   5.413 -0.9196 -0.2054 -0.3628
  177SLPC   H7S20099  -0.449   0.231   5.414 -0.3760  1.6778 -0.6285
  177SLPC   C2820100  -0.467   0.095   5.241  0.4228  0.3533 -0.1261
  177SLPC   H8R20101  -0.552   0.058   5.181  0.0257  0.1658  0.5358
  177SLPC   H8S20102  -0.428   0.006   5.296 -1.5308  0.7394  2.0514
  177SLPC   C2920103  -0.356   0.154   5.149  0.8958  1.2036 -0.1745
  177SLPC   H9R20104  -0.275   0.202   5.205 -0.8462  2.6333  1.2519
  177SLPC  C21020105  -0.338   0.124   5.015 -0.4706 -1.1678  0.5177
  177SLPC  H10R20106  -0.261   0.180   4.959 -0.9681  0.0141  0.9817
  177SLPC  C21120107  -0.408   0.016   4.930 -0.5789  0.3748 -0.4274
  177SLPC  H11R20108  -0.375   0.045   4.828  1.6932  0.6794  0.3336
  177SLPC  H11S20109  -0.517   0.032   4.940 -0.8022 -0.5545 -1.2948
  177SLPC  C21220110  -0.367  -0.122   4.970 -0.5642 -0.1327  0.2783
  177SLPC  H12R20111  -0.393  -0.147   5.074 -1.4746  0.7721  0.2852
  177SLPC  C21320112  -0.296  -0.212   4.894 -0.3478  0.2570 -0.0328
  177SLPC  H13R20113  -0.265  -0.309   4.937 -2.6947 -0.3840  0.3526
  177SLPC  C21420114  -0.259  -0.193   4.745  0.3075 -0.3231  0.3913
  177SLPC  H14R20115  -0.174  -0.253   4.707 -1.5447 -2.0280 -1.2622
  177SLPC  H14S20116  -0.234  -0.085   4.735  3.3451 -0.9168  0.6751
  177SLPC  C21520117  -0.381  -0.217   4.662 -0.4404  0.0441  0.2632
  177SLPC  H15R20118  -0.354  -0.182   4.560  1.1667  0.8173  0.8992
  177SLPC  H15S20119  -0.466  -0.151   4.689 -0.7354  0.2332 -1.0606
  177SLPC  C21620120  -0.427  -0.363   4.661 -0.7120 -0.2695  0.0748
  177SLPC  H16R20121  -0.461  -0.400   4.760 -0.0440 -0.9937  0.0447
  177SLPC  H16S20122  -0.333  -0.416   4.633 -1.1897 -0.9444 -0.2638
  177SLPC  C21720123  -0.519  -0.388   4.541 -0.7208  0.0514  0.2973
  177SLPC  H17R20124  -0.518  -0.496   4.517 -1.8306 -0.3199  1.7853
  177SLPC  H17S20125  -0.497  -0.323   4.454 -0.9366 -0.4328 -0.1255
  177SLPC  C21820126  -0.661  -0.357   4.569  0.2389 -0.5876 -0.0094
  177SLPC  H18R20127  -0.721  -0.368   4.476 -0.3829 -1.6437  0.4926
  177SLPC  H18S20128  -0.675  -0.254   4.607  2.2355 -0.3552  0.2204
  177SLPC  H18T20129  -0.697  -0.429   4.645  0.9708 -0.7577  0.1858
  177SLPC   C3320130  -0.144   0.480   5.542 -0.5024  0.4018  0.2821
  177SLPC   H3X20131  -0.045   0.476   5.593 -1.5300  0.9888  2.4615
  177SLPC   H3Y20132  -0.194   0.577   5.563 -1.1344  0.3137 -0.7561
  177SLPC   C3420133  -0.137   0.481   5.387 -0.5975  0.2717 -0.6401
  177SLPC   H4X20134  -0.069   0.403   5.348  4.3874  2.1453  3.2909
  177SLPC   H4Y20135  -0.088   0.579   5.367  1.4465 -0.0351  2.2175
  177SLPC   C3520136  -0.274   0.477   5.310  0.0083  0.1622  0.3113
  177SLPC   H5X20137  -0.339   0.561   5.344  1.6581  1.6019  0.0359
  177SLPC   H5Y20138  -0.311   0.376   5.337 -1.4371  0.4476 -0.4842
  177SLPC   C3620139  -0.258   0.473   5.158  0.0016 -0.2709 -0.4553
  177SLPC   H6X20140  -0.346   0.430   5.105 -1.2661  0.7190  0.7620
  177SLPC   H6Y20141  -0.170   0.405   5.148  0.3025 -0.0778  0.7138
  177SLPC   C3720142  -0.234   0.609   5.080  1.1496  0.2758 -0.0071
  177SLPC   H7X20143  -0.178   0.678   5.147  0.8373 -0.3128  0.8737
  177SLPC   H7Y20144  -0.335   0.652   5.064  0.5659 -1.2170 -0.5521
  177SLPC   C3820145  -0.165   0.590   4.938 -0.2752  0.0378 -0.6564
  177SLPC   H8X20146  -0.083   0.516   4.954 -1.1126 -0.8496 -0.3743
  177SLPC   H8Y20147  -0.105   0.681   4.920 -0.3320 -0.1770 -2.0448
  177SLPC   C3920148  -0.244   0.560   4.808  0.5900 -0.1997  0.6738
  177SLPC   H9X20149  -0.328   0.489   4.824 -1.8628  2.3044 -0.0842
  177SLPC   H9Y20150  -0.174   0.531   4.726  0.5243  3.9841 -1.1234
  177SLPC  C31020151  -0.315   0.692   4.764 -0.5618  0.7037 -0.0134
  177SLPC  H10X20152  -0.352   0.735   4.860 -1.2193  0.4423 -0.1389
  177SLPC  H10Y20153  -0.404   0.673   4.700 -0.7419  0.4558  0.3058
  177SLPC  C31120154  -0.226   0.796   4.695 -0.8440  0.5132  0.9495
  177SLPC  H11X20155  -0.192   0.754   4.598  0.7011 -0.2504  1.7903
  177SLPC  H11Y20156  -0.134   0.819   4.754 -0.3268 -1.1943  0.8467
  177SLPC  C31220157  -0.296   0.926   4.658  0.6336  0.2752  0.6245
  177SLPC  H12X20158  -0.320   0.989   4.746 -4.0195 -0.6058  0.2501
  177SLPC  H12Y20159  -0.385   0.904   4.594  1.1138 -0.9068  0.3406
  177SLPC  C31320160  -0.218   1.004   4.554  0.0672 -0.6134 -0.1103
  177SLPC  H13X20161  -0.221   0.944   4.461  0.4938 -2.8913  1.2473
  177SLPC  H13Y20162  -0.119   1.023   4.599 -0.3588 -0.8141  0.9495
  177SLPC  C31420163  -0.272   1.146   4.536  0.0150  0.0105  0.1829
  177SLPC  H14X20164  -0.243   1.214   4.619 -2.8668  0.7615  0.6844
  177SLPC  H14Y20165  -0.382   1.137   4.541 -0.3258  1.9655 -2.0275
  177SLPC  C31520166  -0.231   1.199   4.402  0.0758 -0.5991  0.4332
  177SLPC  H15X20167  -0.269   1.144   4.313  0.6663  1.5638 -1.2631
  177SLPC  H15Y20168  -0.121   1.189   4.396  0.2814  0.1457  2.2112
  177SLPC  C31620169  -0.279   1.343   4.379 -0.2157 -0.2776  0.4700
  177SLPC  H16X20170  -0.226   1.393   4.463  0.8606 -1.5007  0.5455
  177SLPC  H16Y20171  -0.387   1.364   4.396  0.2477  0.8357  2.2485
  177SLPC  C31720172  -0.239   1.408   4.244  0.2480  0.3029  0.1176
  177SLPC  H17X20173  -0.310   1.494   4.243  0.1181  0.1984  0.2798
  177SLPC  H17Y20174  -0.271   1.336   4.166 -0.0449 -0.5761  1.0299
  177SLPC  C31820175  -0.087   1.443   4.231 -0.0289 -0.6988  0.1247
  177SLPC  H18X20176  -0.043   1.499   4.316 -1.1262  0.7341 -0.2052
  177SLPC  H18Y20177  -0.058   1.491   4.135 -1.4732 -0.8129 -0.4117
  177SLPC  H18Z20178  -0.044   1.341   4.237  0.5885 -0.7471 -3.1787
  178SLPC     N20179   2.935   0.703   6.404  0.0439  0.4879 -0.1232
  178SLPC   C1320180   3.003   0.811   6.486 -0.5181 -0.3772 -0.3139
  178SLPC  H13A20181   3.001   0.911   6.443  0.5161  0.0274  0.5303
  178SLPC  H13B20182   2.951   0.823   6.580 -0.1464 -1.8737  0.0984
  178SLPC  H13C20183   3.103   0.778   6.507 -0.2990 -1.0938 -2.2864
  178SLPC   C1420184   2.984   0.714   6.262  0.3876 -0.0877 -0.0991
  178SLPC  H14A20185   2.947   0.806   6.221  0.5734  0.1479  0.2569
  178SLPC  H14B20186   3.092   0.707   6.262  0.3193 -1.4615 -0.1527
  178SLPC  H14C20187   2.939   0.629   6.212 -0.4317 -0.9924  2.0374
  178SLPC   C1520188   2.790   0.740   6.417  0.4132  1.0301 -0.1448
  178SLPC  H15A20189   2.752   0.739   6.518 -0.7897  1.1981 -0.5831
  178SLPC  H15B20190   2.774   0.837   6.372 -1.0305  0.4548 -0.9465
  178SLPC  H15C20191   2.730   0.670   6.360  1.6519 -0.7428  0.6108
  178SLPC   C1220192   2.961   0.570   6.467  0.6350 -0.1558  0.2918
  178SLPC  H12A20193   3.066   0.555   6.448  0.8141  0.7857  0.4716
  178SLPC  H12B20194   2.892   0.501   6.423 -1.7599  2.3485 -0.1681
  178SLPC   C1120195   2.941   0.552   6.623 -0.0835 -0.6709  0.2362
  178SLPC  H11A20196   2.995   0.634   6.675 -2.9534  2.1016 -0.7758
  178SLPC  H11B20197   2.994   0.460   6.655 -2.0383 -1.4282  1.4656
  178SLPC     P20198   2.732   0.405   6.653  0.3730  0.1162  0.0372
  178SLPC   O1320199   2.801   0.323   6.750 -0.4163 -0.4433 -0.0576
  178SLPC   O1420200   2.589   0.432   6.675 -0.1675  0.4895  0.2130
  178SLPC   O1220201   2.806   0.545   6.661  0.7323 -0.0628  0.4918
  178SLPC   O1120202   2.749   0.345   6.504 -0.2192  0.1415  0.3467
  178SLPC    C120203   2.825   0.223   6.482 -0.2000 -0.0810  0.0918
  178SLPC    HA20204   2.908   0.210   6.555 -0.3120  1.1341  0.4614
  178SLPC    HB20205   2.754   0.138   6.484 -0.5908  0.2474  0.7794
  178SLPC    C220206   2.885   0.218   6.338  0.5993  1.0682 -0.8477
  178SLPC    HS20207   2.941   0.313   6.321 -0.8465  2.1627  0.2355
  178SLPC   O2120208   2.788   0.196   6.234 -0.2090  0.1665  0.0943
  178SLPC   C2120209   2.791   0.299   6.143  0.0418  0.0077  0.7950
  178SLPC   O2220210   2.821   0.412   6.169  0.4240  0.0765  0.0419
  178SLPC   C2220211   2.750   0.239   6.001  0.3769  0.2536 -0.4736
  178SLPC   H2R20212   2.832   0.173   5.965 -0.7647 -1.6369  0.2472
  178SLPC   H2S20213   2.663   0.172   6.020  2.0985 -2.7289 -2.2176
  178SLPC    C320214   2.990   0.093   6.329  0.3724 -0.1598 -0.2389
  178SLPC    HX20215   3.040   0.071   6.426 -0.2995 -1.1846 -0.1078
  178SLPC    HY20216   3.065   0.126   6.254  1.1180 -0.4693  0.3497
  178SLPC   O3120217   2.929  -0.028   6.276  0.1841 -0.0150 -0.0426
  178SLPC   C3120218   2.895  -0.121   6.364 -0.7752 -0.3674  0.7124
  178SLPC   O3220219   2.899  -0.116   6.485 -0.1213 -0.9657  0.0695
  178SLPC   C3220220   2.829  -0.234   6.283  0.5522  0.6797  1.3441
  178SLPC   H2X20221   2.729  -0.246   6.330  0.8235 -0.5399  1.6423
  178SLPC   H2Y20222   2.890  -0.327   6.296  0.6485  0.4487 -0.4790
  178SLPC   C2320223   2.716   0.347   5.894  0.3723  0.6729  0.1245
  178SLPC   H3R20224   2.804   0.381   5.835  0.3138  1.7608  0.6551
  178SLPC   H3S20225   2.677   0.442   5.935 -1.4299  0.8399 -1.7935
  178SLPC   C2420226   2.608   0.294   5.795 -0.5448  0.4496  0.4336
  178SLPC   H4R20227   2.596   0.373   5.718  1.2884 -1.3037 -1.8238
  178SLPC   H4S20228   2.514   0.286   5.853 -1.5096  1.1308 -0.9927
  178SLPC   C2520229   2.649   0.167   5.714 -0.3595 -0.5147  0.2208
  178SLPC   H5R20230   2.573   0.135   5.639  0.6994 -1.0690 -0.6496
  178SLPC   H5S20231   2.638   0.082   5.784  1.3350 -1.4490 -0.5845
  178SLPC   C2620232   2.785   0.171   5.648  0.2155 -0.1645  0.1170
  178SLPC   H6R20233   2.807   0.068   5.614  0.6765  0.0336 -0.1973
  178SLPC   H6S20234   2.860   0.189   5.729  0.1680 -1.4073  0.4540
  178SLPC   C2720235   2.804   0.285   5.544  0.1476 -0.5486  0.2447
  178SLPC   H7R20236   2.778   0.372   5.609  0.2548 -1.1371  1.0978
  178SLPC   H7S20237   2.723   0.277   5.468  1.3912 -1.2561 -1.0486
  178SLPC   C2820238   2.941   0.302   5.467  0.7074 -0.5605  0.6843
  178SLPC   H8R20239   3.017   0.299   5.548  2.3357 -0.0179 -0.7514
  178SLPC   H8S20240   2.945   0.398   5.411  1.9787 -2.5412 -2.9952
  178SLPC   C2920241   2.948   0.203   5.358  0.0394 -0.5393  0.0564
  178SLPC   H9R20242   2.906   0.107   5.392 -0.8358  0.0938  0.8109
  178SLPC  C21020243   2.988   0.211   5.230  0.0967  0.4210 -0.9426
  178SLPC  H10R20244   2.985   0.116   5.174  1.1040  0.4653 -1.1002
  178SLPC  C21120245   3.037   0.334   5.161 -0.4983 -0.1312 -0.1390
  178SLPC  H11R20246   3.117   0.387   5.216  1.9422 -2.4083 -1.2597
  178SLPC  H11S20247   2.953   0.406   5.147 -0.9132 -0.3865  0.9382
  178SLPC  C21220248   3.102   0.315   5.025  0.0223 -0.2202 -0.0048
  178SLPC  H12R20249   3.209   0.293   5.035 -0.1272 -1.0037 -0.0663
  178SLPC  C21320250   3.043   0.302   4.909 -0.8333  0.8376  0.0299
  178SLPC  H13R20251   3.108   0.293   4.821 -1.4325  2.3709 -0.6191
  178SLPC  C21420252   2.895   0.299   4.883 -0.2923 -0.0498  0.3204
  178SLPC  H14R20253   2.839   0.364   4.953  1.8969  2.8748 -0.4740
  178SLPC  H14S20254   2.849   0.198   4.889  0.7017 -0.5851 -0.7328
  178SLPC  C21520255   2.859   0.336   4.735 -0.0115  0.1302 -0.2910
  178SLPC  H15R20256   2.895   0.439   4.710 -0.4363  0.1549 -0.8394
  178SLPC  H15S20257   2.748   0.343   4.739  0.1182  1.8601  1.9670
  178SLPC  C21620258   2.912   0.232   4.637 -0.6132  0.1528 -0.2478
  178SLPC  H16R20259   2.911   0.133   4.687  1.0188  0.6753  0.8919
  178SLPC  H16S20260   3.014   0.260   4.603 -1.0432 -0.6266 -2.3187
  178SLPC  C21720261   2.831   0.245   4.504  0.4240 -0.4189  0.7236
  178SLPC  H17R20262   2.822   0.352   4.473 -0.2912 -1.0841 -1.5631
  178SLPC  H17S20263   2.727   0.214   4.527 -0.3803  2.0916  0.7704
  178SLPC  C21820264   2.889   0.181   4.382  0.4774  0.3346 -0.2107
  178SLPC  H18R20265   2.831   0.190   4.287  0.5368 -0.3284 -0.3103
  178SLPC  H18S20266   2.881   0.072   4.399 -0.6980  0.3917 -0.3210
  178SLPC  H18T20267   2.992   0.218   4.364  0.6170 -0.2034 -0.5274
  178SLPC   C3320268   2.816  -0.197   6.128  0.5697 -0.0464 -0.2605
  178SLPC   H3X20269   2.919  -0.199   6.086  0.2121  0.1002 -1.1640
  178SLPC   H3Y20270   2.762  -0.100   6.122 -0.9740 -0.8725 -0.1499
  178SLPC   C3420271   2.733  -0.301   6.059  0.8293  0.1427 -0.3865
  178SLPC   H4X20272   2.630  -0.289   6.101  1.1555  0.3143  0.3927
  178SLPC   H4Y20273   2.767  -0.405   6.077 -0.1921 -0.4769 -1.8332
  178SLPC   C3520274   2.717  -0.270   5.908 -0.0831 -0.6321  0.0008
  178SLPC   H5X20275   2.817  -0.282   5.862 -0.7243 -3.0630 -0.8904
  178SLPC   H5Y20276   2.682  -0.165   5.904 -0.9081 -0.8495  0.9611
  178SLPC   C3620277   2.621  -0.365   5.842 -0.0007 -0.9068 -0.2993
  178SLPC   H6X20278   2.516  -0.344   5.873  1.1431  1.7352  2.2897
  178SLPC   H6Y20279   2.642  -0.471   5.866  1.3242 -0.8696 -1.1996
  178SLPC   C3720280   2.643  -0.371   5.687 -0.4263 -0.3268 -0.2212
  178SLPC   H7X20281   2.573  -0.444   5.642 -0.7877 -0.7660  1.0079
  178SLPC   H7Y20282   2.746  -0.414   5.680  0.0860  0.1869  2.7787
  178SLPC   C3820283   2.643  -0.232   5.616  0.3547  0.3464 -0.3484
  178SLPC   H8X20284   2.747  -0.196   5.600 -0.0689  2.9226  1.9116
  178SLPC   H8Y20285   2.590  -0.159   5.682 -2.5132 -1.6103 -0.3310
  178SLPC   C3920286   2.565  -0.230   5.478 -0.6324  0.0713 -1.0580
  178SLPC   H9X20287   2.466  -0.278   5.493 -1.0050  1.5045  2.0815
  178SLPC   H9Y20288   2.622  -0.281   5.398 -0.5998  0.0009 -0.9902
  178SLPC  C31020289   2.544  -0.087   5.429 -0.0573  0.3750 -0.2785
  178SLPC  H10X20290   2.520  -0.026   5.519 -0.4844 -0.4220  0.1610
  178SLPC  H10Y20291   2.450  -0.081   5.369  0.3751  0.1219 -0.9917
  178SLPC  C31120292   2.655  -0.033   5.334  0.1410  0.8589  0.1245
  178SLPC  H11X20293   2.757  -0.061   5.370  1.0637  0.5124 -2.5707
  178SLPC  H11Y20294   2.638   0.077   5.334  0.7949  0.9953  1.6344
  178SLPC  C31220295   2.662  -0.100   5.198 -0.1264 -0.1507  0.4789
  178SLPC  H12X20296   2.555  -0.107   5.167 -0.5507  0.6814  1.6919
  178SLPC  H12Y20297   2.694  -0.207   5.202 -1.0705 -0.4855 -0.3503
  178SLPC  C31320298   2.741  -0.017   5.088 -0.1708 -0.2849  0.0532
  178SLPC  H13X20299   2.845  -0.015   5.126 -0.2021 -1.7915  0.3108
  178SLPC  H13Y20300   2.701   0.086   5.087  0.8701  0.1383  0.6455
  178SLPC  C31420301   2.725  -0.097   4.959  0.2112  0.5057 -0.0196
  178SLPC  H14X20302   2.726  -0.203   4.991  0.0954  0.5608  0.1712
  178SLPC  H14Y20303   2.814  -0.072   4.899  0.8521 -0.4551  0.5005
  178SLPC  C31520304   2.599  -0.056   4.874 -0.6728  0.3377 -0.7048
  178SLPC  H15X20305   2.599   0.054   4.860 -0.4842  0.2786 -1.1822
  178SLPC  H15Y20306   2.513  -0.080   4.940 -0.3514  1.2754  0.0867
  178SLPC  C31620307   2.571  -0.142   4.749  0.6241 -0.1539 -0.1452
  178SLPC  H16X20308   2.469  -0.122   4.713  0.4668 -0.5653  0.0690
  178SLPC  H16Y20309   2.562  -0.250   4.771  1.9455 -0.6463 -1.8229
  178SLPC  C31720310   2.683  -0.126   4.649 -0.1910 -0.8038  0.0682
  178SLPC  H17X20311   2.782  -0.164   4.683 -1.4040 -2.7733  1.6222
  178SLPC  H17Y20312   2.696  -0.016   4.640 -2.8894 -0.4493 -0.4381
  178SLPC  C31820313   2.641  -0.197   4.521  0.0525  0.2337 -0.6995
  178SLPC  H18X20314   2.718  -0.185   4.442  0.8656  2.0891  0.2977
  178SLPC  H18Y20315   2.542  -0.166   4.482  0.0776  1.3110  0.0692
  178SLPC  H18Z20316   2.629  -0.305   4.545 -0.0205 -0.2176 -2.6121
  179SLPC     N20317   3.791   1.201   1.915  0.2199 -0.2115 -0.5541
  179SLPC   C1320318   3.891   1.128   1.830  0.1200 -0.6188  0.4306
  179SLPC  H13A20319   3.962   1.076   1.893 -0.5750 -3.1378 -0.7292
  179SLPC  H13B20320   3.845   1.058   1.762 -0.2481 -0.8260  0.8847
  179SLPC  H13C20321   3.946   1.203   1.775 -0.7272 -0.5197 -0.3011
  179SLPC   C1420322   3.722   1.299   1.822 -0.8799 -0.2096 -0.6536
  179SLPC  H14A20323   3.796   1.364   1.778 -0.4208 -0.1521  0.1913
  179SLPC  H14B20324   3.669   1.237   1.751 -2.7378 -1.3655  1.5874
  179SLPC  H14C20325   3.651   1.356   1.880  0.7141  0.8668  0.3155
  179SLPC   C1520326   3.860   1.287   2.023 -0.6810 -0.1216 -0.3122
  179SLPC  H15A20327   3.938   1.240   2.082 -0.1688  0.3184 -0.6335
  179SLPC  H15B20328   3.907   1.366   1.967 -1.7232  0.0344 -0.9842
  179SLPC  H15C20329   3.786   1.335   2.086  2.3141  3.4824  0.8392
  179SLPC   C1220330   3.700   1.099   1.978 -0.6226 -0.5374 -0.9249
  179SLPC  H12A20331   3.628   1.059   1.909 -1.1212 -3.3770  1.0201
  179SLPC  H12B20332   3.646   1.156   2.052 -0.2970 -0.2886 -0.8794
  179SLPC   C1120333   3.763   0.978   2.053 -0.1158 -0.2893 -0.2439
  179SLPC  H11A20334   3.820   0.911   1.986 -0.9288 -2.1938  0.8779
  179SLPC  H11B20335   3.677   0.913   2.083  0.1018 -0.0358  1.0115
  179SLPC     P20336   3.998   0.955   2.189  0.8516 -0.5331 -0.2723
  179SLPC   O1320337   3.993   0.810   2.188  0.4001  0.2775 -0.2953
  179SLPC   O1420338   4.103   1.023   2.109  0.2154  0.4568 -0.4010
  179SLPC   O1220339   3.849   1.008   2.165 -0.7524  0.0133 -0.0685
  179SLPC   O1120340   4.020   1.001   2.342 -0.5303 -0.0588 -0.0251
  179SLPC    C120341   3.996   1.136   2.380 -0.2807  0.1590 -0.5879
  179SLPC    HA20342   4.086   1.200   2.387  0.7190 -1.1364 -1.2372
  179SLPC    HB20343   3.928   1.192   2.312  0.6541  0.8317 -0.9877
  179SLPC    C220344   3.920   1.134   2.516  0.3647  0.4899  0.2935
  179SLPC    HS20345   3.888   1.241   2.523  1.6187  0.8840  0.2527
  179SLPC   O2120346   3.998   1.088   2.626  0.0964  0.6516 -0.0664
  179SLPC   C2120347   4.094   1.165   2.662 -0.0744 -0.3096 -0.6525
  179SLPC   O2220348   4.122   1.278   2.627 -0.2446 -0.4879  0.0790
  179SLPC   C2220349   4.171   1.098   2.772 -0.0667  0.2669 -0.5370
  179SLPC   H2R20350   4.103   1.024   2.820  1.3538  0.9037  2.7178
  179SLPC   H2S20351   4.251   1.034   2.730 -1.7338 -2.2513 -0.1069
  179SLPC    C320352   3.801   1.037   2.517 -0.1797  0.4675  0.1274
  179SLPC    HX20353   3.849   0.937   2.514 -2.2210 -0.5524 -1.2729
  179SLPC    HY20354   3.751   1.026   2.418 -1.2587 -0.0929  0.7068
  179SLPC   O3120355   3.695   1.044   2.621 -0.5851 -0.5560 -0.2379
  179SLPC   C3120356   3.611   0.941   2.619  0.3649 -0.0020  0.1069
  179SLPC   O3220357   3.623   0.843   2.546  0.2514 -0.8170  0.3256
  179SLPC   C3220358   3.519   0.958   2.736 -0.3325  0.2542 -0.3065
  179SLPC   H2X20359   3.567   0.913   2.826 -1.0180  2.5774  1.3452
  179SLPC   H2Y20360   3.430   0.896   2.716 -0.3638 -0.1586  0.9703
  179SLPC   C2320361   4.200   1.202   2.883  0.2264  0.0531 -0.2700
  179SLPC   H3R20362   4.241   1.300   2.852  1.0416 -0.3159 -0.3814
  179SLPC   H3S20363   4.269   1.155   2.956 -1.1020 -0.0933  0.9491
  179SLPC   C2420364   4.066   1.240   2.964 -0.3556  0.1231 -0.3415
  179SLPC   H4R20365   4.025   1.146   3.008 -0.5577 -0.5833 -1.9791
  179SLPC   H4S20366   3.998   1.267   2.881 -1.5897  0.4766  0.7538
  179SLPC   C2520367   4.077   1.357   3.068 -0.1065  0.4824  0.4058
  179SLPC   H5R20368   3.972   1.345   3.104 -0.2547  0.5401 -0.0019
  179SLPC   H5S20369   4.095   1.447   3.006 -1.0122 -0.5000 -1.3725
  179SLPC   C2620370   4.179   1.330   3.177  0.0547  0.0566 -0.8691
  179SLPC   H6R20371   4.280   1.318   3.134 -0.4199 -1.5514 -1.5732
  179SLPC   H6S20372   4.159   1.242   3.242 -0.0041 -0.0539 -1.0364
  179SLPC   C2720373   4.193   1.450   3.273 -0.5774  0.4538 -0.0021
  179SLPC   H7R20374   4.092   1.486   3.305 -0.8596  0.2530 -0.6433
  179SLPC   H7S20375   4.253   1.525   3.217  2.3941 -0.7833  1.3577
  179SLPC   C2820376   4.275   1.414   3.397  0.5179  0.2596 -0.4030
  179SLPC   H8R20377   4.360   1.353   3.360  0.6019  0.1561 -0.0395
  179SLPC   H8S20378   4.211   1.347   3.457  0.5801  2.7497  2.6815
  179SLPC   C2920379   4.316   1.526   3.493 -0.6034  0.4625 -0.6882
  179SLPC   H9R20380   4.357   1.611   3.438  0.5984 -0.8186 -1.8559
  179SLPC  C21020381   4.325   1.531   3.628 -0.5992  0.2660  0.4362
  179SLPC  H10R20382   4.365   1.621   3.677 -0.6736  0.3360  0.3702
  179SLPC  C21120383   4.285   1.416   3.717  0.1157  0.6745 -0.2987
  179SLPC  H11R20384   4.244   1.326   3.666  2.4211 -0.1734 -0.7471
  179SLPC  H11S20385   4.205   1.446   3.789 -0.5486 -0.9091 -0.3413
  179SLPC  C21220386   4.423   1.379   3.784 -0.7099 -0.3364  0.6544
  179SLPC  H12R20387   4.508   1.360   3.717 -0.5646  0.8984  0.4512
  179SLPC  C21320388   4.442   1.350   3.913 -0.3050 -0.6368 -0.1280
  179SLPC  H13R20389   4.540   1.310   3.945  0.8075 -0.8348 -3.3885
  179SLPC  C21420390   4.335   1.369   4.017 -0.0876  0.1487 -0.0190
  179SLPC  H14R20391   4.338   1.295   4.100 -0.8773 -0.5714 -0.6173
  179SLPC  H14S20392   4.232   1.363   3.976 -0.2393  2.2706 -0.0604
  179SLPC  C21520393   4.340   1.500   4.090  0.2368 -0.0007 -0.2033
  179SLPC  H15R20394   4.420   1.506   4.167  0.4234 -0.6522 -0.3365
  179SLPC  H15S20395   4.251   1.514   4.154  0.3900  0.1350 -0.0203
  179SLPC  C21620396   4.349   1.620   3.993 -0.3643 -0.2822 -0.6549
  179SLPC  H16R20397   4.268   1.629   3.918 -0.6133  0.9895 -0.2718
  179SLPC  H16S20398   4.445   1.618   3.938 -1.0811 -1.0480 -1.9300
  179SLPC  C21720399   4.333   1.761   4.067 -0.5589  0.1581  0.2519
  179SLPC  H17R20400   4.246   1.754   4.136  0.4914  0.2325  1.6239
  179SLPC  H17S20401   4.297   1.828   3.986 -2.0940 -1.9738 -0.9402
  179SLPC  C21820402   4.468   1.816   4.139  0.1768  0.0355  0.0155
  179SLPC  H18R20403   4.558   1.792   4.080 -0.4716 -1.3517 -0.4508
  179SLPC  H18S20404   4.478   1.754   4.231  2.7824 -1.4224 -1.1378
  179SLPC  H18T20405   4.459   1.921   4.173  0.0076  0.0009  0.0815
  179SLPC   C3320406   3.490   1.105   2.780  0.1069 -0.4881  0.7929
  179SLPC   H3X20407   3.438   1.151   2.694  0.3182 -1.0496  0.3636
  179SLPC   H3Y20408   3.585   1.160   2.793  1.0007 -1.6857 -0.4501
  179SLPC   C3420409   3.412   1.115   2.903 -0.5362 -0.4611  0.7877
  179SLPC   H4X20410   3.350   1.023   2.904  1.0314 -1.7272 -2.9565
  179SLPC   H4Y20411   3.354   1.208   2.883  3.2451  1.5016 -2.5354
  179SLPC   C3520412   3.500   1.133   3.023 -0.2481 -0.5751  0.3430
  179SLPC   H5X20413   3.573   1.051   3.034 -0.2818 -0.7774 -0.8365
  179SLPC   H5Y20414   3.553   1.228   2.999  0.8657 -0.3225  3.3676
  179SLPC   C3620415   3.441   1.138   3.163 -0.2555 -0.4679 -0.3738
  179SLPC   H6X20416   3.390   1.040   3.175 -1.4075  0.3378  1.9659
  179SLPC   H6Y20417   3.363   1.215   3.180 -0.9852 -1.7310  2.6872
  179SLPC   C3720418   3.542   1.154   3.285 -0.3239  0.5028 -0.2521
  179SLPC   H7X20419   3.564   1.263   3.294  0.3108  0.5424 -1.9901
  179SLPC   H7Y20420   3.640   1.107   3.265  0.5885  2.0254  0.4284
  179SLPC   C3820421   3.485   1.116   3.420 -0.1139 -0.6320 -0.0573
  179SLPC   H8X20422   3.498   1.006   3.424  1.4645 -0.6713 -3.2646
  179SLPC   H8Y20423   3.381   1.155   3.432  0.5487  1.5970 -1.0401
  179SLPC   C3920424   3.560   1.159   3.542 -0.7272  0.3409 -0.4157
  179SLPC   H9X20425   3.545   1.269   3.546 -0.1585  0.4022  0.2749
  179SLPC   H9Y20426   3.669   1.147   3.529 -0.8382 -0.9103 -0.3508
  179SLPC  C31020427   3.493   1.106   3.676 -0.1326 -0.0392 -0.3394
  179SLPC  H10X20428   3.514   0.997   3.676 -0.2326 -0.0623  0.5285
  179SLPC  H10Y20429   3.382   1.109   3.673 -0.1722 -0.5878  0.3594
  179SLPC  C31120430   3.542   1.186   3.796 -0.2618  0.1447 -0.6834
  179SLPC  H11X20431   3.495   1.287   3.788 -1.4178 -0.2865  0.3236
  179SLPC  H11Y20432   3.650   1.208   3.790 -0.3287  0.7444  0.0808
  179SLPC  C31220433   3.501   1.131   3.937  0.4966 -0.4518 -0.0021
  179SLPC  H12X20434   3.390   1.137   3.943  0.5778  1.4684  0.0632
  179SLPC  H12Y20435   3.527   1.204   4.016 -1.1090  0.1814 -0.0191
  179SLPC  C31320436   3.541   0.990   3.969  1.2898 -0.1095  0.6990
  179SLPC  H13X20437   3.652   0.994   3.962  1.3267  1.2084  1.7411
  179SLPC  H13Y20438   3.519   0.918   3.887  0.5003  0.3920  0.4641
  179SLPC  C31420439   3.479   0.942   4.103 -0.3484 -0.0314 -0.2914
  179SLPC  H14X20440   3.368   0.937   4.090 -0.4691 -0.8749  0.8661
  179SLPC  H14Y20441   3.501   1.016   4.184 -1.6240 -0.5784  0.5936
  179SLPC  C31520442   3.530   0.808   4.147 -0.7768  0.9104  0.2225
  179SLPC  H15X20443   3.640   0.805   4.157 -0.9336 -1.4000  2.5639
  179SLPC  H15Y20444   3.497   0.734   4.071  0.8261  0.8244 -0.4175
  179SLPC  C31620445   3.471   0.772   4.294  0.6448 -0.3092  0.5800
  179SLPC  H16X20446   3.474   0.662   4.314  0.8704 -0.7980 -1.8298
  179SLPC  H16Y20447   3.380   0.836   4.294  1.3886  0.8031  1.9266
  179SLPC  C31720448   3.551   0.815   4.425  0.1789  0.1513 -0.1533
  179SLPC  H17X20449   3.490   0.797   4.517  1.4045  1.0614  0.8826
  179SLPC  H17Y20450   3.572   0.925   4.424  0.6434  0.1044  1.2353
  179SLPC  C31820451   3.682   0.743   4.441  0.4608  0.1551  0.4282
  179SLPC  H18X20452   3.754   0.746   4.357 -1.4833 -0.2994 -1.3255
  179SLPC  H18Y20453   3.664   0.634   4.460  2.1092  0.2400  3.0412
  179SLPC  H18Z20454   3.737   0.781   4.530  2.8734 -2.6565  0.2955
  180SLPC     N20455   3.436   1.814   1.685 -0.4211 -0.1190 -0.3805
  180SLPC   C1320456   3.527   1.718   1.758 -0.2077  0.2756 -0.4805
  180SLPC  H13A20457   3.469   1.637   1.799  1.3358  0.8477  3.3184
  180SLPC  H13B20458   3.604   1.675   1.695  0.8153  0.2070  0.7763
  180SLPC  H13C20459   3.572   1.774   1.838 -0.4185 -0.7758  0.3987
  180SLPC   C1420460   3.382   1.759   1.556 -0.0109 -0.5333  0.1206
  180SLPC  H14A20461   3.456   1.694   1.512 -0.3794 -2.1448  1.7499
  180SLPC  H14B20462   3.283   1.719   1.573 -0.1850 -0.5906 -0.9365
  180SLPC  H14C20463   3.370   1.848   1.496  0.6538 -1.9719 -2.2809
  180SLPC   C1520464   3.526   1.932   1.650 -0.1608 -0.0602  0.0421
  180SLPC  H15A20465   3.459   2.003   1.604 -2.3209 -1.0075  1.5395
  180SLPC  H15B20466   3.576   1.979   1.733 -1.4724  2.0897 -0.3300
  180SLPC  H15C20467   3.598   1.898   1.576  0.5979  1.9556 -0.1884
  180SLPC   C1220468   3.323   1.851   1.780  0.0878 -0.5559 -0.0294
  180SLPC  H12A20469   3.246   1.905   1.726  0.0852  1.7682  2.1182
  180SLPC  H12B20470   3.354   1.927   1.850  1.0820  0.4009 -1.4601
  180SLPC   C1120471   3.257   1.740   1.860 -0.4284  0.0521 -0.4190
  180SLPC  H11A20472   3.198   1.806   1.928 -0.2356  2.0471 -2.0833
  180SLPC  H11B20473   3.334   1.679   1.912 -0.9912 -0.2387  0.0906
  180SLPC     P20474   3.025   1.638   1.803 -0.1551  0.0144  0.2996
  180SLPC   O1320475   2.954   1.766   1.797  0.0286 -0.6559 -0.5840
  180SLPC   O1420476   2.972   1.527   1.726  0.2065  0.4556  0.4662
  180SLPC   O1220477   3.177   1.659   1.772 -1.1313  0.2154 -0.1343
  180SLPC   O1120478   3.027   1.604   1.959  0.1249  0.5242  0.0585
  180SLPC    C120479   3.069   1.479   2.018  0.0754  0.1737 -0.4190
  180SLPC    HA20480   3.130   1.419   1.948  0.2021  0.1595 -0.2973
  180SLPC    HB20481   3.120   1.507   2.113 -0.4255 -1.7045  0.4338
  180SLPC    C220482   2.936   1.410   2.062 -0.2644  0.1231  0.0289
  180SLPC    HS20483   2.874   1.414   1.970  1.0180 -0.8812 -0.9169
  180SLPC   O2120484   2.873   1.486   2.164 -0.4768 -0.0899 -0.2929
  180SLPC   C2120485   2.738   1.471   2.170  0.1364 -0.8025  0.3990
  180SLPC   O2220486   2.671   1.410   2.091 -0.4843 -0.5313  0.1861
  180SLPC   C2220487   2.685   1.536   2.302  0.3337 -0.5201 -0.4506
  180SLPC   H2R20488   2.709   1.459   2.377 -2.1111 -2.4847 -1.5499
  180SLPC   H2S20489   2.751   1.625   2.310 -0.1972 -0.2781  2.2321
  180SLPC    C320490   2.957   1.261   2.109 -0.0701 -0.1209 -0.2623
  180SLPC    HX20491   3.030   1.273   2.193  0.6018  0.0788 -0.8608
  180SLPC    HY20492   3.009   1.203   2.030  0.4012 -0.9174  0.6061
  180SLPC   O3120493   2.830   1.203   2.146  0.7786 -0.5755 -0.0059
  180SLPC   C3120494   2.848   1.096   2.229  0.3027 -0.4120 -0.3143
  180SLPC   O3220495   2.960   1.055   2.258  0.4858  0.3510 -0.4290
  180SLPC   C3220496   2.719   1.029   2.253 -0.8894 -0.1018 -0.1476
  180SLPC   H2X20497   2.732   0.943   2.323 -0.0993  0.4605  0.4176
  180SLPC   H2Y20498   2.678   0.978   2.164 -0.4218 -2.9788  1.1756
  180SLPC   C2320499   2.532   1.549   2.302 -0.0301  0.2658 -0.2098
  180SLPC   H3R20500   2.489   1.447   2.319  0.9166 -0.3485 -1.3272
  180SLPC   H3S20501   2.488   1.577   2.204  1.5860  1.8218 -0.5225
  180SLPC   C2420502   2.470   1.646   2.404 -0.7933 -0.7001 -0.4289
  180SLPC   H4R20503   2.366   1.621   2.432 -1.5298  2.0791 -0.3973
  180SLPC   H4S20504   2.466   1.749   2.362  2.4422 -0.4902 -0.4740
  180SLPC   C2520505   2.540   1.661   2.548  0.1456  0.2249 -0.2715
  180SLPC   H5R20506   2.629   1.728   2.539  1.3732 -1.1977  0.8280
  180SLPC   H5S20507   2.587   1.566   2.579 -0.7212 -0.9057 -2.2535
  180SLPC   C2620508   2.451   1.712   2.666 -0.0859  0.5644  0.3071
  180SLPC   H6R20509   2.400   1.620   2.703 -1.4197  0.6613 -1.1875
  180SLPC   H6S20510   2.376   1.781   2.624 -1.4259 -0.7960  0.3658
  180SLPC   C2720511   2.539   1.795   2.762 -0.0699 -0.0707  0.6217
  180SLPC   H7R20512   2.555   1.892   2.708 -2.4767  0.9978  1.6881
  180SLPC   H7S20513   2.635   1.743   2.784 -0.3467 -0.2661  1.3580
  180SLPC   C2820514   2.460   1.827   2.889 -0.9670 -0.7713 -0.5196
  180SLPC   H8R20515   2.364   1.856   2.841 -0.9310  0.8653  0.3002
  180SLPC   H8S20516   2.488   1.925   2.934  0.8416 -0.8518 -1.3825
  180SLPC   C2920517   2.462   1.701   2.978  0.1507  0.0516 -0.2280
  180SLPC   H9R20518   2.411   1.614   2.934 -0.2298 -0.0607  0.4201
  180SLPC  C21020519   2.496   1.682   3.111 -0.0051  0.2109  0.1609
  180SLPC  H10R20520   2.481   1.583   3.157 -0.3605  1.0730  2.0041
  180SLPC  C21120521   2.556   1.783   3.202  0.0750  0.0831 -0.5402
  180SLPC  H11R20522   2.652   1.819   3.158 -1.0644  1.7124 -1.8320
  180SLPC  H11S20523   2.581   1.729   3.296 -1.2577 -0.6820 -0.5962
  180SLPC  C21220524   2.466   1.891   3.245 -0.5490 -0.4993  0.1625
  180SLPC  H12R20525   2.395   1.924   3.167  1.7989 -1.9171 -2.8129
  180SLPC  C21320526   2.501   1.974   3.347  0.3471  0.4091 -0.8698
  180SLPC  H13R20527   2.419   2.038   3.382 -1.1205 -1.8185  0.0434
  180SLPC  C21420528   2.616   1.962   3.441  0.5552 -0.1112 -0.0682
  180SLPC  H14R20529   2.683   2.045   3.410 -1.7538  1.7878 -0.3533
  180SLPC  H14S20530   2.668   1.866   3.426  2.2771  0.7749  0.0251
  180SLPC  C21520531   2.592   1.983   3.589 -0.1327 -0.3241 -0.4363
  180SLPC  H15R20532   2.543   1.892   3.629  0.5704 -0.1826  0.7878
  180SLPC  H15S20533   2.526   2.072   3.601  0.3843  0.1220 -0.8341
  180SLPC  C21620534   2.723   1.995   3.664 -0.0028 -0.7575  0.7578
  180SLPC  H16R20535   2.773   2.085   3.623  1.9511 -2.2849 -0.3499
  180SLPC  H16S20536   2.770   1.895   3.661  0.7629 -0.3767 -0.3335
  180SLPC  C21720537   2.693   2.034   3.813  0.0303  0.1763  0.2263
  180SLPC  H17R20538   2.652   1.941   3.858 -1.6666  1.0020  0.4980
  180SLPC  H17S20539   2.611   2.108   3.822 -1.0056 -0.6286 -1.7801
  180SLPC  C21820540   2.815   2.086   3.884  0.4551 -0.3140 -0.0366
  180SLPC  H18R20541   2.904   2.020   3.874 -0.5478 -2.1842  2.1824
  180SLPC  H18S20542   2.786   2.094   3.991 -1.3300 -0.6471 -0.4703
  180SLPC  H18T20543   2.834   2.189   3.849 -1.7926 -0.5617 -2.2467
  180SLPC   C3320544   2.618   1.120   2.339  0.3326  0.1194  0.4158
  180SLPC   H3X20545   2.530   1.061   2.371  0.8457  0.3543  2.3951
  180SLPC   H3Y20546   2.588   1.211   2.283  0.2503 -1.3902 -2.1705
  180SLPC   C3420547   2.689   1.172   2.465  0.4011 -0.3938 -0.0924
  180SLPC   H4X20548   2.750   1.263   2.446 -0.9994  0.2600 -1.6083
  180SLPC   H4Y20549   2.766   1.102   2.504 -1.5975 -0.4359  4.4440
  180SLPC   C3520550   2.596   1.204   2.587  0.4275 -0.3945  0.8668
  180SLPC   H5X20551   2.493   1.162   2.579  0.0035  0.7647 -0.0974
  180SLPC   H5Y20552   2.582   1.314   2.591 -2.3534 -0.6910  1.2197
  180SLPC   C3620553   2.645   1.156   2.724 -0.5203 -0.3114  0.5025
  180SLPC   H6X20554   2.750   1.189   2.730 -0.5007 -0.1694 -0.4188
  180SLPC   H6Y20555   2.645   1.045   2.738 -0.0074 -0.1769  1.6944
  180SLPC   C3720556   2.578   1.229   2.838  0.3080 -0.4679  0.5375
  180SLPC   H7X20557   2.471   1.250   2.818  0.5299 -1.7649 -2.6411
  180SLPC   H7Y20558   2.628   1.323   2.868 -2.9050  1.4240  0.4572
  180SLPC   C3820559   2.577   1.129   2.961 -0.3184 -0.6927  0.0937
  180SLPC   H8X20560   2.677   1.089   2.989  0.2851 -1.1303 -2.4240
  180SLPC   H8Y20561   2.522   1.034   2.941 -0.9890 -0.0593 -1.1720
  180SLPC   C3920562   2.509   1.196   3.081  0.4789 -0.0515  0.8780
  180SLPC   H9X20563   2.482   1.123   3.160  0.4420  1.7627  2.6508
  180SLPC   H9Y20564   2.415   1.246   3.048 -0.0945  0.1462  2.6627
  180SLPC  C31020565   2.592   1.308   3.155 -0.0443  0.6738  0.2549
  180SLPC  H10X20566   2.611   1.389   3.081 -0.2962  1.2558  0.8197
  180SLPC  H10Y20567   2.684   1.259   3.191 -1.1896 -0.6706  1.4683
  180SLPC  C31120568   2.520   1.357   3.285  0.3971  0.3040 -0.5157
  180SLPC  H11X20569   2.503   1.267   3.348  2.2683  1.5847  1.9813
  180SLPC  H11Y20570   2.417   1.394   3.269  0.1185 -0.2628 -0.0835
  180SLPC  C31220571   2.616   1.444   3.364  0.7494  0.6283 -0.2583
  180SLPC  H12X20572   2.638   1.528   3.294 -2.9231  0.5555 -1.7145
  180SLPC  H12Y20573   2.708   1.385   3.382  1.6652  1.8688 -0.6758
  180SLPC  C31320574   2.559   1.489   3.498  0.2556 -0.5247  0.0225
  180SLPC  H13X20575   2.521   1.402   3.557 -0.3561  0.2906  0.8695
  180SLPC  H13Y20576   2.466   1.547   3.481  0.6253  0.6101  1.5923
  180SLPC  C31420577   2.650   1.565   3.599 -0.0084  0.5787 -0.9237
  180SLPC  H14X20578   2.704   1.638   3.534  3.4744 -1.7683 -0.9469
  180SLPC  H14Y20579   2.723   1.497   3.647 -2.1776 -0.2783  1.3370
  180SLPC  C31520580   2.586   1.639   3.711 -0.0448 -0.2033  0.0584
  180SLPC  H15X20581   2.487   1.682   3.684 -0.7072 -0.9168  1.2693
  180SLPC  H15Y20582   2.649   1.728   3.729  0.8120 -0.8376  0.2204
  180SLPC  C31620583   2.559   1.556   3.840 -0.5792 -0.4552  0.7841
  180SLPC  H16X20584   2.514   1.462   3.803 -0.4577 -1.5570  3.2493
  180SLPC  H16Y20585   2.483   1.612   3.897 -1.5825 -2.1417  1.1746
  180SLPC  C31720586   2.688   1.539   3.915  0.8783 -0.2727  0.2513
  180SLPC  H17X20587   2.749   1.481   3.843 -1.6949 -2.1347 -0.6234
  180SLPC  H17Y20588   2.676   1.470   4.002  1.5668  3.6191  3.7372
  180SLPC  C31820589   2.763   1.666   3.962 -0.0830  0.4312 -0.0938
  180SLPC  H18X20590   2.851   1.635   4.023 -1.6777 -2.4331  0.9323
  180SLPC  H18Y20591   2.705   1.750   4.005  1.3334  1.0931  0.5849
  180SLPC  H18Z20592   2.809   1.716   3.874  0.6066 -0.6002 -0.3384
  181SLPC     N20593   2.954   0.423   1.953  0.0046  0.4422 -0.0253
  181SLPC   C1320594   3.012   0.294   1.960  0.3846  0.2088  0.1971
  181SLPC  H13A20595   3.073   0.279   2.048 -0.4364 -1.5537  0.5153
  181SLPC  H13B20596   2.933   0.222   1.975  0.0598  0.5977  0.3523
  181SLPC  H13C20597   3.066   0.270   1.870  1.1657 -1.3360  1.0309
  181SLPC   C1420598   3.054   0.515   1.883 -0.3385 -0.2032  0.1711
  181SLPC  H14A20599   3.072   0.483   1.781  1.1448  0.2132  0.2725
  181SLPC  H14B20600   3.018   0.616   1.869  1.5706  0.5660  0.4105
  181SLPC  H14C20601   3.148   0.518   1.937  0.0891 -0.1293 -0.5541
  181SLPC   C1520602   2.925   0.482   2.085  0.5656  0.4643 -0.0238
  181SLPC  H15A20603   2.903   0.588   2.079 -0.1913  0.3709  0.9078
  181SLPC  H15B20604   2.849   0.422   2.132  0.9907 -0.8735 -0.9740
  181SLPC  H15C20605   3.013   0.488   2.148  0.9944 -0.9096 -0.4626
  181SLPC   C1220606   2.816   0.420   1.883  0.2308  0.5615  0.0464
  181SLPC  H12A20607   2.842   0.396   1.781  0.3022 -0.8836  0.3866
  181SLPC  H12B20608   2.766   0.515   1.873 -0.8682 -0.2052 -2.5542
  181SLPC   C1120609   2.703   0.328   1.943  0.0570 -0.0982 -0.0888
  181SLPC  H11A20610   2.746   0.228   1.964  0.3213 -0.3506 -1.6483
  181SLPC  H11B20611   2.616   0.309   1.876 -0.9327  1.2725  0.7544
  181SLPC     P20612   2.520   0.335   2.131  0.1588 -0.6771 -0.1931
  181SLPC   O1320613   2.405   0.411   2.075  0.1831  0.0737  0.3170
  181SLPC   O1420614   2.504   0.186   2.105 -0.8386  0.0579 -0.2049
  181SLPC   O1220615   2.648   0.392   2.065 -0.1790 -0.7757 -0.4621
  181SLPC   O1120616   2.532   0.362   2.281  0.0441  0.0774 -0.2582
  181SLPC    C120617   2.479   0.465   2.363  0.2748 -0.8855 -0.2337
  181SLPC    HA20618   2.385   0.509   2.322  0.4601  0.2543  0.5253
  181SLPC    HB20619   2.446   0.426   2.461  0.9479 -1.8489 -0.3732
  181SLPC    C220620   2.584   0.590   2.377 -0.1164 -0.1172  0.4942
  181SLPC    HS20621   2.631   0.600   2.277  0.0776  1.5515  0.7192
  181SLPC   O2120622   2.686   0.552   2.465 -0.6433  0.0305 -0.3673
  181SLPC   C2120623   2.795   0.624   2.454 -0.6884  0.1588  0.3489
  181SLPC   O2220624   2.810   0.706   2.368  0.1331 -0.0583 -0.1012
  181SLPC   C2220625   2.906   0.568   2.544  0.0624  0.0021  0.3392
  181SLPC   H2R20626   2.926   0.466   2.504 -2.8021 -0.7842  0.7201
  181SLPC   H2S20627   2.996   0.633   2.538  0.2328 -0.3064 -0.7055
  181SLPC    C320628   2.508   0.722   2.419  0.1103 -0.6561  0.6353
  181SLPC    HX20629   2.421   0.734   2.350 -0.6474 -1.2764  1.4500
  181SLPC    HY20630   2.576   0.808   2.401 -0.8017 -0.1637 -0.6670
  181SLPC   O3120631   2.462   0.710   2.554  0.5208  0.3531 -0.2271
  181SLPC   C3120632   2.551   0.745   2.649 -0.5584  0.1966 -0.1947
  181SLPC   O3220633   2.653   0.805   2.636  0.0031 -0.0745  0.3746
  181SLPC   C3220634   2.492   0.708   2.784 -0.4138 -0.2714  0.1954
  181SLPC   H2X20635   2.461   0.602   2.790 -0.4063 -0.2916 -0.0848
  181SLPC   H2Y20636   2.398   0.767   2.786 -0.1126  0.2804 -0.8566
  181SLPC   C2320637   2.868   0.573   2.694 -0.0743  0.2064  0.0419
  181SLPC   H3R20638   2.786   0.502   2.719  0.5832 -0.1382  1.3192
  181SLPC   H3S20639   2.842   0.678   2.716 -1.6598 -0.1362 -0.0829
  181SLPC   C2420640   2.983   0.521   2.775 -0.3777  0.4391 -0.8841
  181SLPC   H4R20641   3.057   0.601   2.798 -0.8496  0.1379  2.1424
  181SLPC   H4S20642   3.037   0.441   2.721 -1.0948 -1.9178  1.6803
  181SLPC   C2520643   2.944   0.441   2.901 -0.8109 -0.2743 -0.9020
  181SLPC   H5R20644   2.927   0.332   2.888 -1.3675 -0.1647 -1.1230
  181SLPC   H5S20645   2.845   0.472   2.939 -0.0615 -0.8612  1.7451
  181SLPC   C2620646   3.043   0.464   3.030  0.3891 -0.7649  0.4439
  181SLPC   H6R20647   3.032   0.572   3.052  2.2161 -0.0050 -2.0472
  181SLPC   H6S20648   3.146   0.450   2.992  0.5262 -1.1988  0.9439
  181SLPC   C2720649   3.003   0.361   3.136 -0.2793 -0.2639 -0.3408
  181SLPC   H7R20650   3.078   0.371   3.217 -1.0059  0.5249  0.2619
  181SLPC   H7S20651   3.014   0.260   3.093  0.0467  0.2548 -1.5251
  181SLPC   C2820652   2.870   0.387   3.196 -0.0565  0.0757  0.2146
  181SLPC   H8R20653   2.864   0.320   3.285  0.0105 -0.6695 -0.3404
  181SLPC   H8S20654   2.788   0.348   3.134 -0.8219  1.0191  0.5954
  181SLPC   C2920655   2.857   0.536   3.229  0.0382 -0.2767 -0.4829
  181SLPC   H9R20656   2.825   0.591   3.139 -1.9231 -1.6668 -0.6915
  181SLPC  C21020657   2.895   0.601   3.337  0.0873 -0.6535 -0.5113
  181SLPC  H10R20658   2.877   0.710   3.338  1.2557 -0.4533  0.0351
  181SLPC  C21120659   2.953   0.541   3.469 -0.4781 -0.5258  0.9803
  181SLPC  H11R20660   3.040   0.606   3.495 -1.0834 -0.1185  2.0477
  181SLPC  H11S20661   2.996   0.439   3.463  1.8703  0.4901 -1.1115
  181SLPC  C21220662   2.853   0.554   3.581 -0.3832 -0.0473  0.2287
  181SLPC  H12R20663   2.806   0.460   3.612 -0.4398 -0.5945 -1.4029
  181SLPC  C21320664   2.822   0.673   3.647  0.6569  0.5509 -0.1392
  181SLPC  H13R20665   2.741   0.662   3.721 -0.2378 -1.1897 -1.2830
  181SLPC  C21420666   2.886   0.808   3.619 -0.2681 -0.8459 -0.1636
  181SLPC  H14R20667   2.968   0.799   3.544 -0.1676  1.2866 -0.3884
  181SLPC  H14S20668   2.926   0.855   3.711 -0.5231 -1.4856  0.2739
  181SLPC  C21520669   2.781   0.911   3.557  0.3130  0.5056 -0.9468
  181SLPC  H15R20670   2.735   0.876   3.461  1.3398  1.4237 -1.8045
  181SLPC  H15S20671   2.847   0.993   3.522  0.9578 -0.1104 -1.2022
  181SLPC  C21620672   2.682   0.966   3.657 -0.7359  0.3138  0.4185
  181SLPC  H16R20673   2.743   0.989   3.747  0.7233  1.5236 -0.8238
  181SLPC  H16S20674   2.610   0.882   3.669  0.2075 -0.7424 -0.9827
  181SLPC  C21720675   2.610   1.094   3.605 -0.4820  0.1280 -0.0636
  181SLPC  H17R20676   2.540   1.057   3.527  1.1616 -1.7624 -0.7453
  181SLPC  H17S20677   2.685   1.167   3.569 -1.6698  1.3728 -0.0963
  181SLPC  C21820678   2.515   1.164   3.705  0.0635 -0.0248  0.2227
  181SLPC  H18R20679   2.463   1.086   3.765  1.1874 -1.8363 -1.0346
  181SLPC  H18S20680   2.434   1.218   3.651  0.2551 -2.3210 -2.5602
  181SLPC  H18T20681   2.568   1.227   3.780 -1.8205  0.3073  1.3582
  181SLPC   C3320682   2.578   0.751   2.905 -0.0062 -0.9073 -0.3917
  181SLPC   H3X20683   2.601   0.856   2.877 -2.0275 -0.4344 -0.4341
  181SLPC   H3Y20684   2.668   0.687   2.916  0.8267  0.6058  2.6347
  181SLPC   C3420685   2.497   0.749   3.033  0.0450  0.0402  0.5569
  181SLPC   H4X20686   2.454   0.649   3.053 -1.2501  0.0741 -1.7768
  181SLPC   H4Y20687   2.414   0.822   3.021  1.3718  1.3562 -1.1966
  181SLPC   C3520688   2.565   0.821   3.160  0.2886 -0.3862  0.4002
  181SLPC   H5X20689   2.585   0.925   3.126  1.0063 -0.2992  1.0537
  181SLPC   H5Y20690   2.665   0.777   3.183 -0.7327 -2.6371  0.8512
  181SLPC   C3620691   2.482   0.834   3.285 -0.3714 -0.6047 -0.0378
  181SLPC   H6X20692   2.382   0.880   3.273 -0.8940 -0.6101  3.3488
  181SLPC   H6Y20693   2.542   0.897   3.355  0.3537  0.1683 -1.3034
  181SLPC   C3720694   2.461   0.710   3.374 -0.2441  0.0501  0.5438
  181SLPC   H7X20695   2.555   0.681   3.426 -0.3328 -1.6385 -0.1805
  181SLPC   H7Y20696   2.444   0.627   3.303  2.4116 -0.2065  0.1024
  181SLPC   C3820697   2.346   0.749   3.471 -0.3095 -1.1455  0.2055
  181SLPC   H8X20698   2.258   0.777   3.410 -2.2552 -1.1854  2.7857
  181SLPC   H8Y20699   2.366   0.844   3.524 -0.1740 -0.6670 -0.6938
  181SLPC   C3920700   2.318   0.630   3.577  0.5457 -0.0726 -0.0780
  181SLPC   H9X20701   2.418   0.594   3.611  1.5664  0.8268 -1.9616
  181SLPC   H9Y20702   2.260   0.552   3.524  0.2790 -1.1196  1.6644
  181SLPC  C31020703   2.246   0.679   3.703  0.9336 -0.6940 -0.7693
  181SLPC  H10X20704   2.175   0.602   3.740  3.1563 -1.7527  1.6606
  181SLPC  H10Y20705   2.175   0.758   3.671 -2.1412 -2.3878  1.4183
  181SLPC  C31120706   2.339   0.724   3.815 -0.0680 -0.1302 -0.9714
  181SLPC  H11X20707   2.287   0.795   3.884  1.5831  0.4163 -0.2299
  181SLPC  H11Y20708   2.417   0.792   3.775  0.2996  0.6397  0.9381
  181SLPC  C31220709   2.399   0.607   3.896 -0.3433  0.2120  0.6462
  181SLPC  H12X20710   2.437   0.535   3.820 -1.7154  0.1386 -0.0088
  181SLPC  H12Y20711   2.324   0.545   3.951 -2.2519  1.7814 -0.0513
  181SLPC  C31320712   2.517   0.646   3.988  0.1845 -0.2819 -0.4833
  181SLPC  H13X20713   2.487   0.723   4.063  1.1894  1.8304 -2.1203
  181SLPC  H13Y20714   2.590   0.699   3.923 -0.9861  0.6744 -1.0491
  181SLPC  C31420715   2.592   0.531   4.052 -0.1397  0.5685 -0.5489
  181SLPC  H14X20716   2.676   0.509   3.982  0.6423 -1.5498  0.9441
  181SLPC  H14Y20717   2.541   0.433   4.060  0.2582  0.5322  3.2043
  181SLPC  C31520718   2.637   0.558   4.197 -0.5365  0.3602 -0.5151
  181SLPC  H15X20719   2.714   0.482   4.221 -0.8588  0.4551  0.8588
  181SLPC  H15Y20720   2.554   0.532   4.266  0.9005 -3.1180  0.1291
  181SLPC  C31620721   2.700   0.692   4.229  0.3109  0.0162 -0.0819
  181SLPC  H16X20722   2.638   0.783   4.216  2.3224  1.5765  0.6965
  181SLPC  H16Y20723   2.791   0.706   4.167  0.5633 -0.4654  0.1696
  181SLPC  C31720724   2.739   0.698   4.379 -0.1676  0.5049 -0.8140
  181SLPC  H17X20725   2.803   0.786   4.405  2.9570 -2.1956  1.5605
  181SLPC  H17Y20726   2.796   0.605   4.400 -0.7950 -0.0807 -1.6660
  181SLPC  C31820727   2.624   0.697   4.476  0.2843  0.5465  0.2093
  181SLPC  H18X20728   2.537   0.671   4.413  0.4962  0.4554 -0.0462
  181SLPC  H18Y20729   2.606   0.803   4.504 -2.5687  0.3491 -0.5318
  181SLPC  H18Z20730   2.642   0.630   4.563  1.1858 -0.5186 -0.7621
  182SLPC     N20731   1.154   6.299   1.895 -0.5781  0.3010  0.1618
  182SLPC   C1320732   1.063   6.422   1.903 -0.0433 -0.1811 -0.1151
  182SLPC  H13A20733   0.972   6.399   1.851 -0.1307  2.1203 -1.0933
  182SLPC  H13B20734   1.042   6.445   2.007 -0.0111  1.7202 -0.4956
  182SLPC  H13C20735   1.114   6.502   1.853  0.5065 -0.6252 -0.2812
  182SLPC   C1420736   1.117   6.217   1.772  0.0154  0.0305 -0.1889
  182SLPC  H14A20737   1.195   6.143   1.761  0.3627  0.5852 -1.7608
  182SLPC  H14B20738   1.028   6.156   1.784 -0.0618  0.5948  3.2354
  182SLPC  H14C20739   1.105   6.269   1.678 -1.8567 -0.1415 -0.0811
  182SLPC   C1520740   1.118   6.220   2.017  0.0853  0.0118 -0.1225
  182SLPC  H15A20741   1.171   6.127   2.016 -0.4552 -0.3006 -0.8308
  182SLPC  H15B20742   1.150   6.280   2.101  2.6670  0.7286 -1.5217
  182SLPC  H15C20743   1.012   6.198   2.019 -0.2311  1.4786  1.0153
  182SLPC   C1220744   1.299   6.340   1.900  0.3698  1.1152  0.2769
  182SLPC  H12A20745   1.309   6.409   1.982  0.2736  1.4235  0.0328
  182SLPC  H12B20746   1.329   6.401   1.816  1.2752  2.8245  1.7754
  182SLPC   C1120747   1.401   6.223   1.914  0.7243 -0.0087 -0.0913
  182SLPC  H11A20748   1.388   6.157   1.826  1.8525 -0.4061  0.0364
  182SLPC  H11B20749   1.363   6.181   2.010 -0.0428 -0.8346 -0.7345
  182SLPC     P20750   1.631   6.238   2.033  0.1372  0.1082 -0.2836
  182SLPC   O1320751   1.724   6.139   1.966  0.7753 -0.3411  0.5852
  182SLPC   O1420752   1.694   6.357   2.097 -0.5600  0.6648  0.1797
  182SLPC   O1220753   1.529   6.288   1.930  0.5345 -0.3600  0.3199
  182SLPC   O1120754   1.543   6.161   2.143 -0.2917 -0.4194 -0.2420
  182SLPC    C120755   1.470   6.220   2.248 -0.5697 -0.3678 -0.1366
  182SLPC    HA20756   1.498   6.325   2.274  0.1810 -0.6527  0.2684
  182SLPC    HB20757   1.362   6.228   2.224 -0.5010 -0.3587 -0.4399
  182SLPC    C220758   1.492   6.136   2.380 -0.3727 -0.0390  0.0175
  182SLPC    HS20759   1.404   6.149   2.447 -0.6669 -2.4714  0.1641
  182SLPC   O2120760   1.610   6.176   2.446 -0.5836 -0.2663  0.2443
  182SLPC   C2120761   1.586   6.280   2.533 -0.2590  0.2733 -0.0704
  182SLPC   O2220762   1.493   6.360   2.527 -0.2932  0.1076 -0.0383
  182SLPC   C2220763   1.699   6.283   2.635  0.2618  0.0244 -0.8797
  182SLPC   H2R20764   1.767   6.198   2.613  0.4685  0.1205 -0.6179
  182SLPC   H2S20765   1.755   6.378   2.628  0.5942 -0.2496 -2.0592
  182SLPC    C320766   1.487   5.981   2.352  0.2001 -0.3047  0.1717
  182SLPC    HX20767   1.550   5.964   2.262 -0.8181  1.0552 -0.8477
  182SLPC    HY20768   1.384   5.959   2.315  1.1799 -0.3784 -2.8241
  182SLPC   O3120769   1.526   5.905   2.470  0.6375  0.4958 -0.2377
  182SLPC   C3120770   1.654   5.864   2.482  0.3563 -0.2325 -0.0205
  182SLPC   O3220771   1.738   5.878   2.395  0.3747 -0.2277 -0.0137
  182SLPC   C3220772   1.677   5.779   2.605 -0.4373 -0.4367  0.7643
  182SLPC   H2X20773   1.770   5.723   2.582  0.6646  2.5408 -3.2771
  182SLPC   H2Y20774   1.598   5.701   2.608  0.4236 -1.4294 -0.7790
  182SLPC   C2320775   1.641   6.269   2.780  0.4335 -0.3984  0.5612
  182SLPC   H3R20776   1.566   6.189   2.795  0.8650 -0.8235  0.4968
  182SLPC   H3S20777   1.590   6.365   2.804  0.8580 -0.5272  2.0855
  182SLPC   C2420778   1.760   6.262   2.875 -0.0709 -0.3629  0.0009
  182SLPC   H4R20779   1.830   6.346   2.857 -2.3016  1.8183  0.8420
  182SLPC   H4S20780   1.816   6.166   2.871 -0.0656 -0.4503  1.3974
  182SLPC   C2520781   1.705   6.273   3.020  0.6384 -0.0413  0.0191
  182SLPC   H5R20782   1.597   6.249   3.030  1.1390 -1.8805  1.6740
  182SLPC   H5S20783   1.703   6.379   3.052 -1.1100 -0.8853  3.0857
  182SLPC   C2620784   1.798   6.195   3.110 -0.0847 -0.1594  0.2342
  182SLPC   H6R20785   1.900   6.228   3.079  0.2778  0.2865  1.7958
  182SLPC   H6S20786   1.789   6.085   3.094  0.9053 -0.1605 -0.4733
  182SLPC   C2720787   1.768   6.226   3.258 -0.0214 -0.1006 -0.6253
  182SLPC   H7R20788   1.661   6.234   3.287  0.7004  0.4875  2.2264
  182SLPC   H7S20789   1.807   6.329   3.275 -0.8300  0.4439 -1.9522
  182SLPC   C2820790   1.850   6.136   3.349  0.7904  0.0944 -0.1495
  182SLPC   H8R20791   1.958   6.142   3.327  1.1801  0.3867  1.6743
  182SLPC   H8S20792   1.812   6.037   3.316  1.6495  0.1597 -1.3859
  182SLPC   C2920793   1.827   6.156   3.502  0.6168  0.4704  0.6968
  182SLPC   H9R20794   1.726   6.124   3.534  1.1016 -0.0450  1.7809
  182SLPC  C21020795   1.920   6.193   3.595  0.3075  0.8705 -0.5571
  182SLPC  H10R20796   1.895   6.216   3.700  1.3412 -0.4102  0.0131
  182SLPC  C21120797   2.057   6.242   3.569 -0.0244  0.5394 -0.3843
  182SLPC  H11R20798   2.071   6.239   3.458  1.6672 -1.5911 -0.1808
  182SLPC  H11S20799   2.137   6.170   3.596  0.3300  2.2570  3.8873
  182SLPC  C21220800   2.099   6.369   3.653  0.5577 -0.7106  0.6844
  182SLPC  H12R20801   2.082   6.464   3.601 -0.6822 -1.1048  0.3363
  182SLPC  C21320802   2.135   6.375   3.782  0.3254  0.1733  0.2810
  182SLPC  H13R20803   2.146   6.475   3.827  0.6176  0.7456 -1.0163
  182SLPC  C21420804   2.177   6.253   3.863  0.3319  0.6855 -0.3278
  182SLPC  H14R20805   2.271   6.288   3.912  2.4133 -1.5416 -2.4321
  182SLPC  H14S20806   2.218   6.173   3.797  1.0824  2.1004 -1.6672
  182SLPC  C21520807   2.071   6.200   3.955 -0.2381 -0.2462  0.4832
  182SLPC  H15R20808   2.112   6.112   4.009  3.2037  0.7164 -0.3145
  182SLPC  H15S20809   1.984   6.168   3.894  1.7995 -1.7112 -1.8175
  182SLPC  C21620810   2.024   6.300   4.065 -0.2264  1.0197  1.4004
  182SLPC  H16R20811   1.923   6.282   4.109 -0.0973  0.5640  1.5138
  182SLPC  H16S20812   2.025   6.401   4.018 -0.2127 -0.4763 -2.1299
  182SLPC  C21720813   2.124   6.295   4.180 -0.0935  0.7549  0.8190
  182SLPC  H17R20814   2.231   6.294   4.150  0.1474  0.4064  1.6653
  182SLPC  H17S20815   2.114   6.195   4.226 -0.9597  0.5195  0.1385
  182SLPC  C21820816   2.090   6.403   4.283  0.5981 -0.1504  0.4888
  182SLPC  H18R20817   1.981   6.419   4.298  0.6530  0.0074  0.7334
  182SLPC  H18S20818   2.130   6.498   4.242  0.7254 -0.1842  0.5338
  182SLPC  H18T20819   2.146   6.379   4.376  0.8410 -0.9706  0.1369
  182SLPC   C3320820   1.663   5.843   2.744  0.7819  0.1995  0.5324
  182SLPC   H3X20821   1.580   5.917   2.739  1.0621  0.6822  2.5392
  182SLPC   H3Y20822   1.755   5.896   2.777  0.3242  1.6551 -0.4341
  182SLPC   C3420823   1.626   5.751   2.851  0.6594 -0.0480 -0.0946
  182SLPC   H4X20824   1.711   5.679   2.847  3.1961  2.6786  0.6043
  182SLPC   H4Y20825   1.538   5.688   2.827  0.0229  0.5259  0.6973
  182SLPC   C3520826   1.629   5.819   2.986  1.1221 -0.0338  0.8126
  182SLPC   H5X20827   1.592   5.924   2.978  0.2627 -0.4340 -0.8595
  182SLPC   H5Y20828   1.733   5.818   3.024  1.3930 -1.6964  0.1244
  182SLPC   C3620829   1.544   5.736   3.092  0.2352 -0.3996 -0.4870
  182SLPC   H6X20830   1.585   5.633   3.090 -0.3867 -0.6851  0.4976
  182SLPC   H6Y20831   1.440   5.737   3.052 -0.5653  0.2685  1.5038
  182SLPC   C3720832   1.554   5.785   3.237 -0.8484  0.3742 -0.3179
  182SLPC   H7X20833   1.475   5.732   3.296 -2.4529  1.8390 -1.0532
  182SLPC   H7Y20834   1.542   5.894   3.250 -0.6202  0.4001 -0.3214
  182SLPC   C3820835   1.688   5.752   3.302  0.5837 -0.6824 -1.4409
  182SLPC   H8X20836   1.775   5.795   3.247  1.0402  1.2097  0.6087
  182SLPC   H8Y20837   1.690   5.642   3.292 -3.2318 -0.8844 -1.4968
  182SLPC   C3920838   1.698   5.787   3.456 -0.1186 -0.6440 -0.5286
  182SLPC   H9X20839   1.664   5.893   3.457  2.0910  0.1372 -2.1719
  182SLPC   H9Y20840   1.798   5.796   3.502 -1.7887  0.5633  3.3052
  182SLPC  C31020841   1.617   5.704   3.548 -0.0478  0.5926 -0.2268
  182SLPC  H10X20842   1.680   5.619   3.583  0.6593  1.2241  0.0642
  182SLPC  H10Y20843   1.525   5.663   3.501 -2.0900  2.2202  2.0689
  182SLPC  C31120844   1.574   5.773   3.686  0.0934  0.0351  0.5248
  182SLPC  H11X20845   1.548   5.688   3.752  2.2350  0.7807  2.4671
  182SLPC  H11Y20846   1.484   5.830   3.655  0.8540  1.1788  0.3107
  182SLPC  C31220847   1.681   5.865   3.743  0.9146 -0.2071  0.1621
  182SLPC  H12X20848   1.694   5.950   3.673 -1.3272 -0.2265 -0.3614
  182SLPC  H12Y20849   1.782   5.819   3.755  1.9721  2.3279  1.7765
  182SLPC  C31320850   1.634   5.916   3.878  0.8045 -0.2533  0.0033
  182SLPC  H13X20851   1.533   5.964   3.877  0.4048 -0.9124  2.4485
  182SLPC  H13Y20852   1.696   6.003   3.909 -0.1855  0.3633  0.3071
  182SLPC  C31420853   1.629   5.810   3.992 -0.3899 -0.3210 -0.4647
  182SLPC  H14X20854   1.736   5.798   4.018  0.0441  0.4494 -1.8141
  182SLPC  H14Y20855   1.593   5.712   3.955  1.3578 -1.0556 -0.3273
  182SLPC  C31520856   1.534   5.852   4.104 -0.0171  0.8441 -0.6146
  182SLPC  H15X20857   1.434   5.864   4.057 -0.1547 -1.6526 -1.0977
  182SLPC  H15Y20858   1.569   5.943   4.157  1.0926  0.0803  0.0180
  182SLPC  C31620859   1.521   5.732   4.201  0.2046 -0.6443  0.1595
  182SLPC  H16X20860   1.624   5.704   4.231  0.5035 -0.5759 -0.8009
  182SLPC  H16Y20861   1.478   5.649   4.141 -1.0495  0.6846 -0.8461
  182SLPC  C31720862   1.432   5.774   4.320  0.1553 -0.2758 -0.2002
  182SLPC  H17X20863   1.329   5.777   4.278 -0.5300  1.3648  1.4524
  182SLPC  H17Y20864   1.456   5.875   4.360  0.2253  1.0434 -3.3485
  182SLPC  C31820865   1.434   5.668   4.433 -0.2595 -0.2032  0.2927
  182SLPC  H18X20866   1.533   5.664   4.485 -1.2136  0.1658  2.2183
  182SLPC  H18Y20867   1.410   5.569   4.389  0.3870 -1.1684  2.0171
  182SLPC  H18Z20868   1.350   5.688   4.503 -0.0430  1.7604  0.0527
  183SLPC     N20869   4.631   6.361   1.654  0.2973 -0.5341  0.3557
  183SLPC   C1320870   4.613   6.224   1.706  0.1273  0.3018 -0.6089
  183SLPC  H13A20871   4.516   6.179   1.689 -0.1799  0.5338  0.4362
  183SLPC  H13B20872   4.693   6.161   1.671 -1.2583 -2.4192  0.8024
  183SLPC  H13C20873   4.625   6.237   1.813  2.0178  1.3598 -0.9099
  183SLPC   C1420874   4.636   6.354   1.500 -0.1200 -0.0408 -0.2277
  183SLPC  H14A20875   4.641   6.452   1.456 -0.4266 -0.4039 -1.0915
  183SLPC  H14B20876   4.732   6.317   1.467 -0.2774  0.3670 -1.1484
  183SLPC  H14C20877   4.556   6.295   1.458 -0.0136  0.1764 -0.7323
  183SLPC   C1520878   4.767   6.411   1.690 -0.4449  0.2485 -0.4236
  183SLPC  H15A20879   4.778   6.414   1.798  0.1814  2.0377 -0.5037
  183SLPC  H15B20880   4.845   6.347   1.651  2.1184  2.2227  1.0905
  183SLPC  H15C20881   4.785   6.510   1.653  1.8646  0.3674  0.8024
  183SLPC   C1220882   4.519   6.454   1.691  0.5161 -0.1211 -0.7288
  183SLPC  H12A20883   4.425   6.420   1.649  0.4212 -1.6843  0.6566
  183SLPC  H12B20884   4.538   6.553   1.650 -1.4370  0.5743 -0.0545
  183SLPC   C1120885   4.498   6.466   1.846  1.0942  0.6885 -0.1302
  183SLPC  H11A20886   4.479   6.363   1.882  2.5594  0.5208  0.2199
  183SLPC  H11B20887   4.409   6.528   1.872  0.5666 -0.1691  0.1572
  183SLPC     P20888   4.631   6.666   1.960 -0.2248 -0.1691  0.5991
  183SLPC   O1320889   4.777   6.685   1.972  0.2042  0.1011  0.4326
  183SLPC   O1420890   4.561   6.747   1.859 -0.2174 -0.2836 -0.1419
  183SLPC   O1220891   4.613   6.518   1.909 -0.4433  0.5123  0.2633
  183SLPC   O1120892   4.558   6.672   2.102 -0.3407 -0.4339  0.7515
  183SLPC    C120893   4.558   6.557   2.189 -0.7397  0.9193 -0.0062
  183SLPC    HA20894   4.502   6.476   2.137  3.0251 -2.3695  0.6061
  183SLPC    HB20895   4.659   6.510   2.189  0.2735  2.8929 -1.8059
  183SLPC    C220896   4.521   6.585   2.334  0.3570  0.0917 -0.1341
  183SLPC    HS20897   4.522   6.497   2.401 -0.5449 -0.3241 -0.6419
  183SLPC   O2120898   4.385   6.641   2.336 -0.0439  0.3718  0.2347
  183SLPC   C2120899   4.301   6.596   2.434 -0.4979 -0.1942  0.6430
  183SLPC   O2220900   4.326   6.511   2.513 -0.1780  0.3692 -0.5032
  183SLPC   C2220901   4.163   6.671   2.427 -0.0619 -0.1519 -0.3966
  183SLPC   H2R20902   4.153   6.717   2.326 -3.1194 -1.0986 -0.6165
  183SLPC   H2S20903   4.087   6.591   2.440 -0.8177  0.8515  1.9059
  183SLPC    C320904   4.612   6.685   2.399 -0.4538 -0.2509 -0.5155
  183SLPC    HX20905   4.601   6.784   2.348 -0.9521  1.3317  2.4412
  183SLPC    HY20906   4.718   6.659   2.380 -0.8348 -1.2316 -1.4137
  183SLPC   O3120907   4.578   6.708   2.538  0.4945 -0.0311  0.0766
  183SLPC   C3120908   4.628   6.613   2.618 -0.5892 -0.3144  0.1574
  183SLPC   O3220909   4.705   6.526   2.575 -0.1941 -0.3570  0.2237
  183SLPC   C3220910   4.572   6.625   2.766  0.9135  0.1331  0.0129
  183SLPC   H2X20911   4.644   6.570   2.830 -1.0886 -3.7637 -0.7897
  183SLPC   H2Y20912   4.478   6.567   2.761  0.8206  0.2292  0.6101
  183SLPC   C2320913   4.142   6.763   2.551  0.0721  0.6977  0.1899
  183SLPC   H3R20914   4.158   6.704   2.644 -1.3001  2.8392  1.8951
  183SLPC   H3S20915   4.035   6.795   2.551 -1.0217 -2.6309  0.5807
  183SLPC   C2420916   4.229   6.894   2.557 -0.3120 -0.0469 -0.0964
  183SLPC   H4R20917   4.189   6.942   2.464 -1.4752  0.3663  0.5997
  183SLPC   H4S20918   4.332   6.854   2.544 -0.8220 -1.3317 -0.3525
  183SLPC   C2520919   4.209   6.986   2.684 -0.2019  0.2932  0.9780
  183SLPC   H5R20920   4.238   6.927   2.774  1.7869 -0.4796 -0.0932
  183SLPC   H5S20921   4.103   7.009   2.706 -0.3494  0.6429 -0.0395
  183SLPC   C2620922   4.301   7.107   2.682  0.3416 -0.8665  0.1804
  183SLPC   H6R20923   4.248   7.183   2.620  2.0686 -0.9851 -1.5181
  183SLPC   H6S20924   4.400   7.074   2.644 -0.2221 -2.0711 -0.2852
  183SLPC   C2720925   4.325   7.186   2.816  0.8259  0.4762 -0.1843
  183SLPC   H7R20926   4.369   7.114   2.889  0.0830  2.3624  2.2295
  183SLPC   H7S20927   4.224   7.216   2.850  0.5041  2.3293 -2.5203
  183SLPC   C2820928   4.422   7.299   2.804 -0.0275 -0.1357  0.8429
  183SLPC   H8R20929   4.522   7.264   2.771 -0.0384  0.0114  0.6531
  183SLPC   H8S20930   4.451   7.333   2.905  1.6131 -1.9969  1.0656
  183SLPC   C2920931   4.354   7.412   2.730  0.3404  0.6871  0.1273
  183SLPC   H9R20932   4.296   7.382   2.642  0.8691  0.9751 -0.3308
  183SLPC  C21020933   4.353   7.545   2.755  0.3189  0.2468  0.3863
  183SLPC  H10R20934   4.306   7.608   2.678 -1.1574 -3.4832 -2.0378
  183SLPC  C21120935   4.439   7.619   2.858 -0.3518 -0.3107  0.2433
  183SLPC  H11R20936   4.512   7.688   2.810 -1.0257 -0.3826 -0.9360
  183SLPC  H11S20937   4.488   7.551   2.931  0.8527  0.2047 -0.0548
  183SLPC  C21220938   4.343   7.702   2.929  0.2852  0.9269  0.3796
  183SLPC  H12R20939   4.236   7.698   2.902 -0.0926 -0.6203  1.9092
  183SLPC  C21320940   4.380   7.769   3.041 -0.9782  0.3027  0.5111
  183SLPC  H13R20941   4.299   7.816   3.099 -1.7238 -2.5177  1.8985
  183SLPC  C21420942   4.525   7.782   3.083 -0.3577 -0.0843 -0.9012
  183SLPC  H14R20943   4.589   7.834   3.008 -1.4901  1.8171 -0.6256
  183SLPC  H14S20944   4.575   7.687   3.111 -0.6748  0.7441  3.2032
  183SLPC  C21520945   4.526   7.858   3.224 -0.7973 -0.2977  0.3200
  183SLPC  H15R20946   4.482   7.960   3.224 -1.3923 -0.5444  0.4583
  183SLPC  H15S20947   4.635   7.873   3.233 -0.2282 -0.8942 -3.8782
  183SLPC  C21620948   4.475   7.785   3.345  0.8895 -0.2896 -0.6895
  183SLPC  H16R20949   4.514   7.682   3.341 -0.0859 -0.6946 -0.2520
  183SLPC  H16S20950   4.366   7.774   3.324  0.3190  2.2035  0.5600
  183SLPC  C21720951   4.494   7.841   3.487  1.1908  0.0180  0.0864
  183SLPC  H17R20952   4.603   7.835   3.508  0.6851 -0.8066  2.8624
  183SLPC  H17S20953   4.439   7.777   3.558  0.0684 -0.2835 -1.0227
  183SLPC  C21820954   4.426   7.976   3.511 -0.1741 -0.3682  0.1807
  183SLPC  H18R20955   4.324   7.970   3.469  0.1442 -0.1507 -0.6385
  183SLPC  H18S20956   4.481   8.066   3.476  1.7414 -1.8600 -0.8705
  183SLPC  H18T20957   4.422   7.998   3.620  1.1040 -0.8118  0.3318
  183SLPC   C3320958   4.555   6.772   2.803  0.7737 -0.0233 -0.0923
  183SLPC   H3X20959   4.479   6.820   2.739  0.5659  1.8801  1.4879
  183SLPC   H3Y20960   4.643   6.839   2.802 -0.8265  2.2394  0.9760
  183SLPC   C3420961   4.483   6.803   2.940  0.3151  0.5673 -0.7020
  183SLPC   H4X20962   4.469   6.913   2.947  1.0255  0.8109 -2.5625
  183SLPC   H4Y20963   4.558   6.779   3.019 -1.7728  0.1615  1.2478
  183SLPC   C3520964   4.355   6.735   2.975 -1.1431  0.5339  0.6004
  183SLPC   H5X20965   4.367   6.625   2.962  0.7559  0.8007 -0.2451
  183SLPC   H5Y20966   4.279   6.773   2.903  0.6732  0.4848 -1.4217
  183SLPC   C3620967   4.313   6.774   3.118 -0.2304  0.4125  0.6140
  183SLPC   H6X20968   4.292   6.883   3.124  0.7557  0.5247  3.0907
  183SLPC   H6Y20969   4.398   6.751   3.186  1.3007  1.6079 -0.8239
  183SLPC   C3720970   4.200   6.687   3.179  0.3000  0.3401 -0.6350
  183SLPC   H7X20971   4.216   6.581   3.149 -2.9130 -0.8176  1.1685
  183SLPC   H7Y20972   4.100   6.700   3.134 -0.5717 -0.8892  0.8240
  183SLPC   C3820973   4.189   6.707   3.331 -0.3881 -0.0456  0.0829
  183SLPC   H8X20974   4.112   6.639   3.374  2.7011 -2.2387  2.6911
  183SLPC   H8Y20975   4.152   6.810   3.349  2.2545  0.6837  1.9149
  183SLPC   C3920976   4.307   6.686   3.432  0.2037 -0.8419  0.3039
  183SLPC   H9X20977   4.376   6.773   3.431 -0.0035 -0.6451 -2.0341
  183SLPC   H9Y20978   4.363   6.595   3.402  0.6510 -0.5536  0.2506
  183SLPC  C31020979   4.256   6.668   3.575 -0.4231  0.0863 -0.1473
  183SLPC  H10X20980   4.338   6.628   3.638  0.6086 -0.0794 -1.5610
  183SLPC  H10Y20981   4.184   6.584   3.586 -1.8268  1.4440  2.0631
  183SLPC  C31120982   4.204   6.797   3.636 -0.2372  0.0956  0.4425
  183SLPC  H11X20983   4.125   6.851   3.580  0.2420  1.5826  1.1696
  183SLPC  H11Y20984   4.295   6.858   3.622 -0.4680  0.7753  1.7773
  183SLPC  C31220985   4.168   6.781   3.787  0.0175  0.6921 -0.1984
  183SLPC  H12X20986   4.255   6.734   3.836 -1.4869 -0.9513  1.0400
  183SLPC  H12Y20987   4.074   6.724   3.802 -2.1379  2.7476 -4.0999
  183SLPC  C31320988   4.143   6.918   3.857 -0.2577  0.0806  0.5678
  183SLPC  H13X20989   4.116   6.910   3.964  0.8278  3.6240  1.2299
  183SLPC  H13Y20990   4.048   6.961   3.821 -0.6298  0.2919  1.7707
  183SLPC  C31420991   4.258   7.021   3.840 -0.1425 -0.2199  0.1950
  183SLPC  H14X20992   4.241   7.070   3.742  1.1887  2.0185  0.9843
  183SLPC  H14Y20993   4.353   6.963   3.846 -0.4573 -0.7999 -0.4352
  183SLPC  C31520994   4.260   7.125   3.955 -0.2334  0.0857 -0.5165
  183SLPC  H15X20995   4.315   7.214   3.917  0.4022 -0.7479 -1.5984
  183SLPC  H15Y20996   4.319   7.098   4.046 -0.3718 -0.3398 -0.5527
  183SLPC  C31620997   4.122   7.171   4.006 -0.3007 -0.1413 -0.1970
  183SLPC  H16X20998   4.072   7.090   4.065  1.6617 -0.6944  0.7819
  183SLPC  H16Y20999   4.055   7.196   3.921  0.6983  0.1039 -0.9249
  183SLPC  C31721000   4.147   7.302   4.090  0.4847  0.1510  0.1528
  183SLPC  H17X21001   4.199   7.378   4.026  0.9190 -0.7271 -0.5557
  183SLPC  H17Y21002   4.209   7.266   4.174 -0.1005  0.1521  0.5916
  183SLPC  C31821003   4.014   7.360   4.142 -0.6604  0.2890  0.1298
  183SLPC  H18X21004   3.964   7.414   4.059 -1.8263 -1.2885 -0.2467
  183SLPC  H18Y21005   4.040   7.434   4.221  1.3153  0.0480 -0.2459
  183SLPC  H18Z21006   3.956   7.280   4.192  1.9961 -2.2688 -0.6238
  184SLPC     N21007   0.443   1.353   2.017 -0.0458 -0.3399  0.5784
  184SLPC   C1321008   0.559   1.421   1.942  0.1515  1.1517 -0.1840
  184SLPC  H13A21009   0.576   1.527   1.957 -3.0519  1.6642  0.4406
  184SLPC  H13B21010   0.650   1.366   1.962 -0.2802 -0.6096 -2.5516
  184SLPC  H13C21011   0.545   1.411   1.835  0.2456 -1.0048 -0.0350
  184SLPC   C1421012   0.327   1.444   2.020  0.4269  0.1688 -0.1939
  184SLPC  H14A21013   0.243   1.393   2.065  0.6187  1.6740  2.0444
  184SLPC  H14B21014   0.336   1.529   2.086 -0.4733  0.1918 -0.0936
  184SLPC  H14C21015   0.301   1.476   1.920 -1.0866 -0.8998 -0.1696
  184SLPC   C1521016   0.483   1.288   2.143  0.4126 -0.7699 -0.5152
  184SLPC  H15A21017   0.504   1.357   2.224  0.5606 -1.8683  0.4060
  184SLPC  H15B21018   0.405   1.223   2.179 -1.6597 -1.7882 -5.9738
  184SLPC  H15C21019   0.570   1.228   2.121  1.5041  0.7860 -0.6262
  184SLPC   C1221020   0.402   1.242   1.921 -0.5501 -0.2834 -1.1700
  184SLPC  H12A21021   0.476   1.164   1.916  0.2863  0.3841  0.3839
  184SLPC  H12B21022   0.398   1.283   1.821  0.6348 -0.1656 -1.1813
  184SLPC   C1121023   0.271   1.159   1.940 -0.7241  0.1348 -0.2815
  184SLPC  H11A21024   0.269   1.111   1.840  0.0776 -0.7989  0.1394
  184SLPC  H11B21025   0.179   1.222   1.939 -0.6995  0.1686 -0.4360
  184SLPC     P21026   0.159   0.982   2.095 -0.0852 -0.3386 -0.1301
  184SLPC   O1321027   0.056   0.972   1.989 -0.5967 -0.1305 -0.1295
  184SLPC   O1421028   0.216   0.859   2.151 -0.0232 -0.4436  0.0076
  184SLPC   O1221029   0.293   1.067   2.048  0.1024  0.8203  0.2102
  184SLPC   O1121030   0.098   1.059   2.211  0.8529  0.3534 -0.1184
  184SLPC    C121031   0.022   1.178   2.226 -0.0164  0.5841 -1.1487
  184SLPC    HA21032   0.041   1.255   2.149 -2.2542  0.0019 -2.4016
  184SLPC    HB21033  -0.084   1.143   2.224  0.6268 -1.8312  0.8504
  184SLPC    C221034   0.029   1.243   2.365 -0.7439  0.6428 -0.6543
  184SLPC    HS21035   0.109   1.319   2.364  0.7806 -0.8106  1.5459
  184SLPC   O2121036   0.053   1.147   2.474  0.0817 -0.1405  0.1434
  184SLPC   C2121037  -0.019   1.041   2.498  1.3234 -0.0342 -0.1931
  184SLPC   O2221038  -0.128   1.020   2.444 -0.7176  0.3214 -0.1091
  184SLPC   C2221039   0.052   0.951   2.597  0.8673  0.6129  0.8664
  184SLPC   H2R21040  -0.030   0.889   2.640  1.8921 -0.7295  0.9536
  184SLPC   H2S21041   0.126   0.884   2.548  0.8020 -0.1087  1.7201
  184SLPC    C321042  -0.098   1.317   2.399 -0.2007 -0.3237  0.0109
  184SLPC    HX21043  -0.182   1.245   2.382  0.2603 -1.6694  2.8267
  184SLPC    HY21044  -0.094   1.401   2.326 -0.1545  0.7976  1.2643
  184SLPC   O3121045  -0.111   1.363   2.536  0.1340  0.6747  0.0173
  184SLPC   C3121046  -0.035   1.471   2.565  0.0973 -0.1144  0.0461
  184SLPC   O3221047   0.023   1.542   2.487 -0.3656 -0.9163  0.0304
  184SLPC   C3221048  -0.030   1.482   2.722 -0.5944 -0.1006  0.5849
  184SLPC   H2X21049  -0.106   1.413   2.764 -2.1339  1.8018  1.0301
  184SLPC   H2Y21050  -0.051   1.586   2.752 -1.8456 -0.0811 -0.3224
  184SLPC   C2321051   0.146   1.010   2.710  0.1383  0.2841 -0.3529
  184SLPC   H3R21052   0.222   1.083   2.675  0.5997  1.2685  2.4177
  184SLPC   H3S21053   0.209   0.921   2.733  0.0950  0.2189 -0.4888
  184SLPC   C2421054   0.074   1.065   2.834  0.2052  0.1272 -0.8955
  184SLPC   H4R21055   0.013   0.981   2.874  2.1523 -0.4757  1.0182
  184SLPC   H4S21056   0.002   1.138   2.792 -2.5795 -0.7588  1.9571
  184SLPC   C2521057   0.152   1.118   2.949  0.2371  0.1327 -0.7329
  184SLPC   H5R21058   0.209   1.211   2.928 -0.3283  0.8827  0.8970
  184SLPC   H5S21059   0.226   1.040   2.981 -0.3851  0.1365  0.8371
  184SLPC   C2621060   0.065   1.144   3.079  0.5354  0.6180  0.3865
  184SLPC   H6R21061  -0.016   1.069   3.075  0.7319  0.4270 -0.1498
  184SLPC   H6S21062   0.002   1.234   3.062  0.6398  0.6015 -0.1103
  184SLPC   C2721063   0.128   1.137   3.214 -0.1701  0.0959 -0.7138
  184SLPC   H7R21064   0.178   1.038   3.220 -1.4364 -0.4708  1.7764
  184SLPC   H7S21065   0.057   1.161   3.296  0.3065  0.3870 -0.3805
  184SLPC   C2821066   0.237   1.241   3.221  0.3477  0.2233  0.2495
  184SLPC   H8R21067   0.313   1.205   3.148 -2.2841 -0.8434 -2.1650
  184SLPC   H8S21068   0.288   1.226   3.318  1.9575  3.0152 -0.0346
  184SLPC   C2921069   0.192   1.382   3.192  0.0428  1.0306  0.0722
  184SLPC   H9R21070   0.215   1.417   3.090 -0.8434 -2.3751 -1.4356
  184SLPC  C21021071   0.121   1.457   3.282 -0.4943  0.1491  0.2783
  184SLPC  H10R21072   0.105   1.561   3.249 -3.1507 -0.5477 -0.8832
  184SLPC  C21121073   0.088   1.431   3.428  0.2422  0.0555  0.1193
  184SLPC  H11R21074   0.113   1.528   3.476 -0.7263  0.1429  0.4566
  184SLPC  H11S21075   0.154   1.348   3.463 -0.2846 -0.0070  0.9817
  184SLPC  C21221076  -0.061   1.392   3.439 -0.0880 -0.4029  0.9665
  184SLPC  H12R21077  -0.127   1.465   3.391  0.8884 -0.3820 -0.4002
  184SLPC  C21321078  -0.108   1.283   3.496 -0.2649 -0.5342  0.1580
  184SLPC  H13R21079  -0.214   1.268   3.520 -0.4150  0.1721 -0.0320
  184SLPC  C21421080  -0.034   1.167   3.562  0.1252  0.5447 -0.0541
  184SLPC  H14R21081   0.073   1.152   3.536 -0.5885 -2.4265 -1.7864
  184SLPC  H14S21082  -0.086   1.070   3.546 -2.6225  1.0685  4.1213
  184SLPC  C21521083  -0.043   1.175   3.715 -0.2220  0.1476  0.8495
  184SLPC  H15R21084  -0.148   1.201   3.740  0.0578  1.9059  0.3038
  184SLPC  H15S21085   0.023   1.255   3.754  0.4021 -0.7332  1.6389
  184SLPC  C21621086  -0.006   1.045   3.795 -0.4753 -0.1868  0.1076
  184SLPC  H16R21087   0.084   0.996   3.752  0.8307  1.0310  1.3960
  184SLPC  H16S21088  -0.094   0.977   3.796 -0.0278 -1.0107 -3.1311
  184SLPC  C21721089   0.032   1.076   3.936 -0.8639  0.9104  0.2433
  184SLPC  H17R21090   0.104   1.159   3.949 -0.9153  0.7266  1.9320
  184SLPC  H17S21091   0.082   0.992   3.989 -0.3393  0.6621 -0.6205
  184SLPC  C21821092  -0.096   1.098   4.013  0.0627  0.1465  0.1933
  184SLPC  H18R21093  -0.142   0.998   4.026 -2.4588  1.0754 -1.0255
  184SLPC  H18S21094  -0.166   1.176   3.977 -0.5677  0.2850  1.6627
  184SLPC  H18T21095  -0.080   1.131   4.118  0.4225  1.8910 -0.3641
  184SLPC   C3321096   0.108   1.436   2.776 -0.4144  0.0414  0.1004
  184SLPC   H3X21097   0.152   1.362   2.706 -2.9074 -2.7296  1.2659
  184SLPC   H3Y21098   0.094   1.389   2.876  0.2474  0.0124  0.1834
  184SLPC   C3421099   0.208   1.552   2.790 -0.8682  0.4734  0.2643
  184SLPC   H4X21100   0.225   1.597   2.690  0.5976  1.0620  0.7548
  184SLPC   H4Y21101   0.303   1.514   2.832 -0.9980  1.3364  1.3872
  184SLPC   C3521102   0.183   1.671   2.888 -0.1686  0.1882 -0.6621
  184SLPC   H5X21103   0.179   1.632   2.992 -2.6830  1.2260 -0.3178
  184SLPC   H5Y21104   0.091   1.729   2.869 -0.7816  0.4039  2.5431
  184SLPC   C3621105   0.287   1.780   2.863 -0.4101 -0.7256 -0.1477
  184SLPC   H6X21106   0.305   1.796   2.755  0.3944  0.7407  0.1765
  184SLPC   H6Y21107   0.378   1.750   2.919  0.7285  1.0964 -0.9628
  184SLPC   C3721108   0.247   1.920   2.906  0.1446 -0.8290  0.0270
  184SLPC   H7X21109   0.144   1.942   2.871 -0.6399 -1.1394  2.0232
  184SLPC   H7Y21110   0.319   1.984   2.850  1.6485 -1.6917  0.8939
  184SLPC   C3821111   0.260   1.958   3.054 -0.3123 -0.2676  0.4557
  184SLPC   H8X21112   0.229   2.065   3.060  2.9474  0.9110 -1.0595
  184SLPC   H8Y21113   0.368   1.963   3.080 -0.5730  1.1157  1.4085
  184SLPC   C3921114   0.184   1.867   3.152  0.5736  0.1823 -0.8963
  184SLPC   H9X21115   0.221   1.762   3.146 -1.0457 -0.5543  0.9460
  184SLPC   H9Y21116   0.075   1.875   3.132  0.2432  1.0481  0.9769
  184SLPC  C31021117   0.193   1.898   3.302 -0.1242  0.3895 -0.1642
  184SLPC  H10X21118   0.302   1.919   3.312 -0.2222  1.1167 -0.5364
  184SLPC  H10Y21119   0.160   1.811   3.363 -0.2921  1.8284  1.9035
  184SLPC  C31121120   0.115   2.020   3.350 -0.1840  0.3414  0.1844
  184SLPC  H11X21121   0.006   2.012   3.333 -0.7514  0.9177  3.1348
  184SLPC  H11Y21122   0.153   2.109   3.295  1.7111 -0.3158  0.3507
  184SLPC  C31221123   0.143   2.050   3.500  0.1279 -0.1184 -0.8248
  184SLPC  H12X21124   0.250   2.074   3.515 -0.4770  3.0359 -0.8454
  184SLPC  H12Y21125   0.114   1.955   3.550 -1.6751 -0.5870 -2.6350
  184SLPC  C31321126   0.044   2.158   3.544 -0.0386 -0.5445 -0.0433
  184SLPC  H13X21127   0.040   2.147   3.654  2.8569 -0.5623  0.1322
  184SLPC  H13Y21128  -0.048   2.139   3.485 -0.7360 -1.2555  1.2389
  184SLPC  C31421129   0.101   2.304   3.536  0.2622  0.1526  0.0131
  184SLPC  H14X21130   0.147   2.308   3.435  1.6970  2.3881  0.6762
  184SLPC  H14Y21131   0.186   2.331   3.602  1.2434 -1.5884 -0.4779
  184SLPC  C31521132  -0.016   2.406   3.557 -0.4705 -0.3765 -0.1735
  184SLPC  H15X21133  -0.061   2.386   3.656  1.5883 -1.2981  0.6243
  184SLPC  H15Y21134  -0.089   2.396   3.474  1.1330 -0.4819 -1.6355
  184SLPC  C31621135   0.024   2.551   3.543 -0.1212 -0.1265  0.4959
  184SLPC  H16X21136   0.064   2.572   3.442  2.3147  0.8425  1.5877
  184SLPC  H16Y21137   0.097   2.581   3.621  0.5928 -0.0895 -0.1818
  184SLPC  C31721138  -0.103   2.638   3.543  0.4492 -0.1215 -0.2274
  184SLPC  H17X21139  -0.184   2.586   3.487 -0.2501  1.3023 -0.5928
  184SLPC  H17Y21140  -0.076   2.732   3.490 -1.9841  1.0765  0.4632
  184SLPC  C31821141  -0.161   2.663   3.681 -0.2203 -0.5964 -0.1571
  184SLPC  H18X21142  -0.261   2.711   3.675 -0.4174 -1.0263 -0.4469
  184SLPC  H18Y21143  -0.095   2.737   3.729 -1.2704  0.8229 -0.8121
  184SLPC  H18Z21144  -0.168   2.572   3.746 -0.1086 -0.6158 -0.1737
  185POPC     N21145   2.172   6.853   6.818 -0.0663  0.7364  0.4661
  185POPC   C1221146   2.092   6.883   6.697 -0.3049 -0.2755 -0.7918
  185POPC  H12A21147   2.055   6.789   6.658 -0.5216 -1.0549  1.2042
  185POPC  H12B21148   2.159   6.923   6.622  0.8196  0.3812  0.5179
  185POPC   C1321149   2.287   6.765   6.778  0.2534  0.3673  0.0140
  185POPC  H13A21150   2.365   6.823   6.731  0.7877  0.2739  0.7708
  185POPC  H13B21151   2.350   6.727   6.857  0.2289 -1.7159 -0.9244
  185POPC  H13C21152   2.243   6.683   6.724  0.3844  0.4954 -0.2965
  185POPC   C1421153   2.232   6.976   6.882 -0.3429  0.5356  0.6990
  185POPC  H14A21154   2.150   7.029   6.929 -0.1263  2.6526 -1.1272
  185POPC  H14B21155   2.304   6.952   6.959 -2.4523  0.8675  2.9085
  185POPC  H14C21156   2.276   7.040   6.807 -0.1755  0.0850  0.4037
  185POPC   C1521157   2.075   6.784   6.912  0.3809 -0.4685 -0.7552
  185POPC  H15A21158   2.115   6.767   7.011  0.0006  2.4319 -0.0124
  185POPC  H15B21159   2.043   6.687   6.877  1.2873 -1.0780  0.0727
  185POPC  H15C21160   1.988   6.842   6.938  0.9263 -0.6936  1.8868
  185POPC   C1121161   1.968   6.974   6.711  0.0743 -0.0398  0.4910
  185POPC  H11A21162   1.891   6.927   6.775 -0.1911  1.6023  1.4130
  185POPC  H11B21163   1.936   6.982   6.605  1.9011 -1.7442 -0.2539
  185POPC     P21164   2.083   7.212   6.672  0.0448 -0.7025  0.2060
  185POPC   O1321165   2.228   7.187   6.685 -0.3866 -0.1097 -0.1232
  185POPC   O1421166   2.033   7.341   6.728  0.1559  0.1920  0.3369
  185POPC   O1221167   2.003   7.106   6.751  0.3862 -0.1750 -0.1021
  185POPC   O1121168   2.033   7.198   6.524  0.4550 -0.1503 -0.3022
  185POPC    C121169   1.927   7.291   6.484  0.3095  0.6364  0.7168
  185POPC    HA21170   1.971   7.356   6.406 -1.1726  0.3388 -0.3890
  185POPC    HB21171   1.880   7.349   6.566 -0.0862 -0.6341  1.4136
  185POPC    C221172   1.810   7.221   6.418 -0.5632 -1.1085  0.1647
  185POPC    HS21173   1.771   7.151   6.496 -1.1970  1.0063  1.8264
  185POPC   O2121174   1.872   7.160   6.299  0.0986  0.4081 -0.5593
  185POPC   C2121175   1.832   7.038   6.282  0.3598  0.6652 -0.2061
  185POPC   O2221176   1.752   6.977   6.357 -0.1286 -0.7987  0.2744
  185POPC   C2221177   1.895   6.977   6.155 -0.5906  0.7558 -0.0838
  185POPC   H2R21178   1.941   6.877   6.175  1.6390  1.6856 -0.2753
  185POPC   H2S21179   1.972   7.048   6.118 -1.4204  1.3913 -0.6137
  185POPC    C321180   1.689   7.311   6.378  0.2113 -0.1259  0.5935
  185POPC    HX21181   1.719   7.401   6.321 -4.6151  1.0546 -0.5457
  185POPC    HY21182   1.650   7.361   6.469  2.4741 -0.0843  1.6161
  185POPC   O3121183   1.599   7.234   6.297  0.4928  0.3566 -0.5438
  185POPC   C3121184   1.504   7.162   6.362  0.3819 -0.7428  0.2812
  185POPC   O3221185   1.492   7.158   6.482 -0.5676  0.7561 -0.6982
  185POPC   C3221186   1.398   7.095   6.270 -0.2810 -0.3232  0.4187
  185POPC   H2X21187   1.335   7.037   6.341 -0.2757  0.4519  1.0797
  185POPC   H2Y21188   1.458   7.028   6.204  0.5238  3.4308 -3.0384
  185POPC   C2321189   1.788   6.946   6.043 -0.3787 -0.2679  0.2574
  185POPC   H3R21190   1.710   6.878   6.085  0.7715 -2.5892 -1.1657
  185POPC   H3S21191   1.838   6.889   5.962 -0.4238 -0.5780  0.4441
  185POPC   C2421192   1.725   7.077   5.986  0.0323  0.1764 -0.1330
  185POPC   H4R21193   1.810   7.145   5.965  0.3332  0.5353  1.9824
  185POPC   H4S21194   1.650   7.099   6.066 -0.4794 -2.3557  0.1773
  185POPC   C2521195   1.653   7.057   5.846 -0.2440 -0.8222  1.0541
  185POPC   H5R21196   1.727   7.048   5.764 -0.3930  1.2299  0.6297
  185POPC   H5S21197   1.606   7.157   5.833 -0.2332 -0.8762  0.6066
  185POPC   C2621198   1.545   6.948   5.827  0.3470 -0.2596 -0.0217
  185POPC   H6R21199   1.467   6.979   5.755  1.6897  2.2156 -0.5452
  185POPC   H6S21200   1.498   6.922   5.924 -0.4989 -0.1924 -0.4081
  185POPC   C2721201   1.593   6.817   5.771  0.1618 -0.7644 -0.2949
  185POPC   H7R21202   1.523   6.734   5.795  0.5595 -0.7077  1.1493
  185POPC   H7S21203   1.676   6.797   5.842  0.6632  1.7651 -0.0803
  185POPC   C2821204   1.626   6.814   5.622 -0.0227  0.2962  0.1864
  185POPC   H8R21205   1.667   6.914   5.597  1.2338  0.2027  1.7361
  185POPC   H8S21206   1.531   6.809   5.564 -0.9693 -1.0633  1.7889
  185POPC   C2921207   1.716   6.702   5.591 -0.3487  0.5467  0.0124
  185POPC   H9121208   1.671   6.602   5.592 -1.6082  1.0723 -1.2179
  185POPC  C21021209   1.852   6.712   5.570  0.1974 -0.1029 -0.0251
  185POPC  H10121210   1.909   6.631   5.524 -0.1584  0.0006 -0.6609
  185POPC  C21121211   1.927   6.842   5.576 -0.9367 -0.2625  0.1376
  185POPC  H11R21212   2.021   6.828   5.633 -1.4769 -0.8807  0.9144
  185POPC  H11S21213   1.871   6.923   5.627  0.9403  0.7773  0.6224
  185POPC  C21221214   1.965   6.910   5.448  0.3642 -0.1282  0.4161
  185POPC  H12R21215   1.988   7.018   5.456  0.1584  0.0074 -0.6518
  185POPC  H12S21216   1.876   6.912   5.381 -0.4286 -2.5613  1.3066
  185POPC  C21321217   2.071   6.841   5.362  0.4386  0.2531  0.6992
  185POPC  H13R21218   2.018   6.753   5.320  0.6306 -0.1218  1.2386
  185POPC  H13S21219   2.157   6.812   5.426 -0.9455 -1.6212  1.7958
  185POPC  C21421220   2.130   6.929   5.253 -0.0746  0.1969  0.0264
  185POPC  H14R21221   2.232   6.895   5.224 -0.3889 -1.4455  0.7232
  185POPC  H14S21222   2.147   7.032   5.290 -0.4398  0.5711 -0.8156
  185POPC  C21521223   2.048   6.926   5.124 -0.5314 -0.6784  0.9923
  185POPC  H15R21224   1.944   6.959   5.140 -0.7518 -1.1467  0.5345
  185POPC  H15S21225   2.046   6.824   5.080  1.2078 -0.5910  0.6356
  185POPC  C21621226   2.114   7.026   5.023 -0.4598  0.1003 -0.2745
  185POPC  H16R21227   2.215   6.985   5.000 -0.3477 -0.9395  1.8160
  185POPC  H16S21228   2.112   7.124   5.076 -0.3362 -0.8459  1.5404
  185POPC  C21721229   2.025   7.048   4.899  0.4638  0.4995 -0.5110
  185POPC  H17R21230   2.068   7.129   4.836  0.4428  0.9996  0.1056
  185POPC  H17S21231   1.929   7.096   4.930  1.5674  2.5404 -0.0749
  185POPC  C21821232   1.994   6.917   4.825  0.3107 -0.6716  0.1899
  185POPC  H18R21233   2.088   6.864   4.798  0.7474 -0.1418  0.6411
  185POPC  H18S21234   1.947   6.946   4.728  0.2356 -0.9178  0.1532
  185POPC  H18T21235   1.917   6.849   4.865 -1.8184  2.3460  1.5718
  185POPC   C3321236   1.314   7.190   6.181 -0.2399  0.5533  0.3100
  185POPC   H3X21237   1.281   7.266   6.255  0.8632  1.7919 -0.4273
  185POPC   H3Y21238   1.224   7.131   6.152 -0.9525  0.5134  2.3910
  185POPC   C3421239   1.378   7.233   6.050 -0.0029  0.7057  0.5602
  185POPC   H4X21240   1.386   7.144   5.985  0.4295  0.4059  1.0217
  185POPC   H4Y21241   1.481   7.270   6.067  0.5509 -0.2710 -0.5643
  185POPC   C3521242   1.316   7.346   5.982 -0.2899  0.1533  0.0002
  185POPC   H5X21243   1.380   7.385   5.899  0.9107 -1.0218  0.3445
  185POPC   H5Y21244   1.306   7.427   6.058 -1.0503  0.1839 -0.1212
  185POPC   C3621245   1.182   7.323   5.924 -0.0306  0.0647 -0.6396
  185POPC   H6X21246   1.128   7.412   5.884  0.5319  0.7990  0.1963
  185POPC   H6Y21247   1.123   7.278   6.007  0.3673 -0.9956 -0.9163
  185POPC   C3721248   1.186   7.226   5.804  0.3110  0.6380  0.3160
  185POPC   H7X21249   1.078   7.202   5.794  0.4199  0.9834 -2.3213
  185POPC   H7Y21250   1.247   7.137   5.829  1.5392  1.3656 -0.0150
  185POPC   C3821251   1.239   7.304   5.679  0.2660  1.0964  0.4422
  185POPC   H8X21252   1.341   7.346   5.687  0.5471  1.0352 -2.1723
  185POPC   H8Y21253   1.167   7.385   5.654 -1.1912 -0.4487 -0.6108
  185POPC   C3921254   1.249   7.200   5.559  0.0330  0.3432 -0.1121
  185POPC   H9X21255   1.148   7.153   5.547  0.4674 -0.7690  0.4682
  185POPC   H9Y21256   1.321   7.119   5.582  0.0265  0.1689 -0.6915
  185POPC  C31021257   1.295   7.266   5.438 -0.6529 -0.2646  0.9516
  185POPC  H10X21258   1.375   7.337   5.467 -1.2624  0.5390  0.6953
  185POPC  H10Y21259   1.214   7.322   5.387  0.9655 -0.0772 -1.5583
  185POPC  C31121260   1.340   7.168   5.326  1.4968  0.8676 -0.2197
  185POPC  H11X21261   1.355   7.235   5.239  2.1589 -1.3291 -1.8724
  185POPC  H11Y21262   1.255   7.100   5.307  1.7155  0.6609 -0.4637
  185POPC  C31221263   1.469   7.081   5.362  0.2098 -0.4388 -0.6632
  185POPC  H12X21264   1.444   7.003   5.437  1.3448 -0.0006  0.1831
  185POPC  H12Y21265   1.541   7.144   5.418  0.6149 -3.0180  1.9342
  185POPC  C31321266   1.531   7.011   5.242 -0.1564 -0.0098 -0.0275
  185POPC  H13X21267   1.641   7.018   5.258 -0.1295 -0.3797 -0.0434
  185POPC  H13Y21268   1.518   7.079   5.155 -1.7206  0.9611  0.9144
  185POPC  C31421269   1.479   6.873   5.219  0.1619  0.5099  0.1527
  185POPC  H14X21270   1.381   6.881   5.168  0.4491  0.4935 -0.4048
  185POPC  H14Y21271   1.469   6.822   5.318 -0.1859  1.1287  0.4385
  185POPC  C31521272   1.573   6.786   5.132 -0.1595 -0.1936 -0.1392
  185POPC  H15X21273   1.587   6.841   5.036 -1.3639  1.5175  0.6009
  185POPC  H15Y21274   1.525   6.687   5.118 -3.3252  1.4844 -2.2604
  185POPC  C31621275   1.704   6.758   5.203  0.6138 -0.6468  0.6455
  185POPC  H16X21276   1.772   6.845   5.195  0.1780 -0.1925  1.7283
  185POPC  H16Y21277   1.750   6.665   5.163  0.6802 -0.3223 -0.0515
  185POPC  H16Z21278   1.694   6.740   5.312  2.6373  0.3568  1.0453
  186POPC     N21279   3.750   4.161   7.137 -0.2579 -0.2261  0.4722
  186POPC   C1221280   3.792   4.094   7.005 -0.5582  0.3576  0.3237
  186POPC  H12A21281   3.743   4.001   6.982  0.7573 -0.2673 -0.0131
  186POPC  H12B21282   3.892   4.060   7.026 -0.6501 -2.0364 -2.5203
  186POPC   C1321283   3.609   4.206   7.140  0.2611 -0.3185  0.8467
  186POPC  H13A21284   3.591   4.292   7.076 -3.4928  0.2635  2.3904
  186POPC  H13B21285   3.540   4.125   7.126  2.1224 -1.7374 -0.5412
  186POPC  H13C21286   3.586   4.260   7.231  0.0527  1.5560 -0.2642
  186POPC   C1421287   3.779   4.067   7.255 -0.6173 -0.2431  0.6274
  186POPC  H14A21288   3.880   4.031   7.245 -0.0493  1.6389 -1.1197
  186POPC  H14B21289   3.759   4.121   7.347  3.1707  0.4482  1.2198
  186POPC  H14C21290   3.710   3.984   7.255 -1.1653  0.2037  0.2165
  186POPC   C1521291   3.843   4.275   7.161 -0.0046  0.2470 -0.1517
  186POPC  H15A21292   3.846   4.352   7.086  2.5918 -1.2626 -1.7403
  186POPC  H15B21293   3.946   4.244   7.161  0.0299  0.3452 -1.0455
  186POPC  H15C21294   3.813   4.321   7.255 -0.6882  1.6111 -1.0073
  186POPC   C1121295   3.790   4.182   6.877 -0.4765 -0.2941  0.2396
  186POPC  H11A21296   3.693   4.235   6.870 -0.4445 -0.3879 -1.1969
  186POPC  H11B21297   3.795   4.135   6.776 -0.8339  0.2085 -0.0125
  186POPC     P21298   4.050   4.240   6.860 -0.1761 -0.1012  0.1246
  186POPC   O1321299   4.080   4.118   6.938 -0.0338  0.1596 -0.4029
  186POPC   O1421300   4.133   4.360   6.881 -0.8487 -0.0094  0.1994
  186POPC   O1221301   3.896   4.283   6.880 -0.1255  0.0367 -0.5001
  186POPC   O1121302   4.061   4.185   6.712  0.1857 -0.2728 -0.8062
  186POPC    C121303   4.146   4.256   6.616 -0.0970 -1.2982 -1.0426
  186POPC    HA21304   4.255   4.241   6.630 -0.0966 -1.8587 -1.5878
  186POPC    HB21305   4.131   4.366   6.616  2.1168 -0.9544 -0.9432
  186POPC    C221306   4.126   4.199   6.467  0.4977  0.4654 -0.3753
  186POPC    HS21307   4.192   4.256   6.398 -2.0722  2.2414 -1.5138
  186POPC   O2121308   3.993   4.233   6.420  0.1621 -0.1186 -0.4598
  186POPC   C2121309   3.979   4.361   6.377  0.0062 -0.1720  0.7029
  186POPC   O2221310   4.071   4.439   6.369 -0.1207  0.1135  0.3895
  186POPC   C2221311   3.847   4.390   6.329  0.0732  0.4060  0.0501
  186POPC   H2R21312   3.850   4.487   6.275  2.3836  0.5186  0.2588
  186POPC   H2S21313   3.780   4.408   6.415  0.2917 -1.6395  0.6961
  186POPC    C321314   4.134   4.041   6.461 -0.8970  0.3067  0.7760
  186POPC    HX21315   4.038   4.010   6.507 -0.6658 -0.0565  1.0170
  186POPC    HY21316   4.220   4.016   6.526  0.7131  0.5552 -1.1762
  186POPC   O3121317   4.155   3.993   6.325 -0.1512 -0.2095 -0.1801
  186POPC   C3121318   4.243   3.892   6.311  0.3225  0.5186 -0.7340
  186POPC   O3221319   4.296   3.841   6.408  0.5623 -0.3511 -0.3670
  186POPC   C3221320   4.276   3.857   6.167  0.0456 -0.0945  0.3612
  186POPC   H2X21321   4.205   3.779   6.133 -1.5120  0.4998  2.0814
  186POPC   H2Y21322   4.379   3.817   6.158 -0.0276 -0.7462  2.0729
  186POPC   C2321323   3.796   4.290   6.225 -0.2911  0.3129 -0.0974
  186POPC   H3R21324   3.708   4.341   6.180 -0.6893  0.9766  1.3506
  186POPC   H3S21325   3.778   4.195   6.281  1.6811  0.6443  1.1866
  186POPC   C2421326   3.892   4.253   6.103  0.8195 -0.4314  0.0701
  186POPC   H4R21327   3.830   4.181   6.046  0.7560  0.8162 -1.5214
  186POPC   H4S21328   3.977   4.198   6.148 -1.7177 -3.7112  1.2243
  186POPC   C2521329   3.922   4.375   6.019 -0.2476  0.2984 -0.0410
  186POPC   H5R21330   3.946   4.461   6.085 -0.1141 -1.7793  2.7490
  186POPC   H5S21331   3.823   4.406   5.977 -2.2782 -1.8901  2.7837
  186POPC   C2621332   4.027   4.358   5.912 -0.0112  0.1341 -0.3083
  186POPC   H6R21333   4.014   4.260   5.861  0.0063 -0.6237  1.0887
  186POPC   H6S21334   4.125   4.361   5.963 -0.0971  2.6027 -0.1905
  186POPC   C2721335   4.016   4.464   5.802  0.2669  0.0464  0.4362
  186POPC   H7R21336   4.002   4.563   5.852 -0.4655  0.1805 -0.0155
  186POPC   H7S21337   3.921   4.448   5.747  1.1046 -0.2706 -0.9705
  186POPC   C2821338   4.135   4.464   5.707 -0.3775  0.3928  0.3530
  186POPC   H8R21339   4.141   4.360   5.668 -0.1988 -0.0067  1.4087
  186POPC   H8S21340   4.224   4.497   5.766 -0.1776 -0.7293  0.6939
  186POPC   C2921341   4.131   4.574   5.599  1.1175 -0.2097  0.3821
  186POPC   H9121342   4.179   4.672   5.607 -0.1391  0.5250 -0.7158
  186POPC  C21021343   4.041   4.568   5.498  0.9644  0.3402 -0.5479
  186POPC  H10121344   4.026   4.655   5.433 -1.2781 -0.8282 -1.6998
  186POPC  C21121345   3.958   4.449   5.450 -0.2556 -0.0137  0.4483
  186POPC  H11R21346   3.850   4.473   5.460 -0.2489  0.0869  0.2935
  186POPC  H11S21347   3.976   4.356   5.507 -0.7265 -0.9282 -0.8498
  186POPC  C21221348   3.985   4.408   5.302  0.7316 -0.5362  0.0472
  186POPC  H12R21349   3.908   4.332   5.276 -0.0660 -0.2145  1.3895
  186POPC  H12S21350   4.093   4.383   5.296  0.6051 -0.8067 -2.1727
  186POPC  C21321351   3.962   4.522   5.197  0.2710 -0.3125 -0.1168
  186POPC  H13R21352   4.033   4.605   5.217 -0.1713 -0.3258  1.6603
  186POPC  H13S21353   3.859   4.552   5.225  0.7370 -0.9930  2.5362
  186POPC  C21421354   3.974   4.461   5.061 -0.0917  0.2717 -0.0625
  186POPC  H14R21355   3.929   4.360   5.062  0.0458  0.2033  1.7486
  186POPC  H14S21356   4.081   4.445   5.034  0.4019  0.5483  1.6323
  186POPC  C21521357   3.904   4.533   4.948  0.0182 -0.2558  0.1529
  186POPC  H15R21358   3.948   4.496   4.853  0.5766  1.8712 -0.4680
  186POPC  H15S21359   3.931   4.641   4.942 -1.1178 -0.0235 -1.5190
  186POPC  C21621360   3.755   4.513   4.944  0.5315 -0.1347 -0.4403
  186POPC  H16R21361   3.706   4.530   5.042 -0.3385 -0.2509 -0.8440
  186POPC  H16S21362   3.719   4.408   4.932 -1.8517  0.6673 -0.6327
  186POPC  C21721363   3.696   4.608   4.839 -0.3217 -0.0198 -0.3122
  186POPC  H17R21364   3.772   4.684   4.810  1.9746 -1.7456  0.8558
  186POPC  H17S21365   3.607   4.658   4.884 -2.0611 -3.4370  0.3410
  186POPC  C21821366   3.644   4.536   4.710 -0.5506 -0.3134 -0.1330
  186POPC  H18R21367   3.629   4.596   4.618 -0.3236 -1.8247 -1.2002
  186POPC  H18S21368   3.546   4.495   4.743 -0.6800 -0.1195 -0.2691
  186POPC  H18T21369   3.705   4.446   4.688  0.0969  0.2570 -0.7345
  186POPC   C3321370   4.259   3.974   6.074  0.0955 -0.4394  0.6027
  186POPC   H3X21371   4.331   4.057   6.094 -0.2034  0.2052 -0.7922
  186POPC   H3Y21372   4.156   4.014   6.082  0.7731  1.3492  0.8456
  186POPC   C3421373   4.285   3.938   5.926 -0.1655  0.5546 -0.8963
  186POPC   H4X21374   4.208   3.865   5.894 -0.8367  2.3613 -3.7896
  186POPC   H4Y21375   4.380   3.879   5.921 -0.2863  0.2292  0.2492
  186POPC   C3521376   4.296   4.058   5.829 -0.4222  0.4314 -0.5051
  186POPC   H5X21377   4.377   4.122   5.867  1.0730 -1.7949  0.2506
  186POPC   H5Y21378   4.201   4.115   5.841 -1.7260 -1.7061 -0.1523
  186POPC   C3621379   4.312   3.995   5.691 -0.1715  0.3341 -0.2283
  186POPC   H6X21380   4.230   3.920   5.681 -0.3705  0.0228  2.8037
  186POPC   H6Y21381   4.410   3.944   5.702  0.2371  1.2418  0.4589
  186POPC   C3721382   4.317   4.104   5.578  0.7853  0.0270  0.3082
  186POPC   H7X21383   4.394   4.179   5.609  1.6484 -0.5032 -0.5157
  186POPC   H7Y21384   4.222   4.161   5.588  1.4592  0.9137  2.1400
  186POPC   C3821385   4.347   4.053   5.433  1.1366  0.4037 -0.1304
  186POPC   H8X21386   4.282   3.964   5.416  1.5277  0.0996 -0.0637
  186POPC   H8Y21387   4.451   4.015   5.433  0.7811 -0.7218 -2.2060
  186POPC   C3921388   4.307   4.157   5.321 -0.0571 -0.6230 -0.3123
  186POPC   H9X21389   4.197   4.169   5.332 -0.4016 -3.3011 -0.1106
  186POPC   H9Y21390   4.339   4.100   5.231  0.7038  0.1808 -0.5642
  186POPC  C31021391   4.382   4.292   5.322 -0.2717  1.0362 -0.2130
  186POPC  H10X21392   4.486   4.273   5.353 -0.5368  0.1354  0.1546
  186POPC  H10Y21393   4.343   4.365   5.396  0.4740  0.4470  0.7788
  186POPC  C31121394   4.372   4.365   5.191  1.0026  0.6036  0.2685
  186POPC  H11X21395   4.424   4.463   5.190  1.4873  0.3501  0.2360
  186POPC  H11Y21396   4.264   4.379   5.169  0.9820  0.9863  0.5909
  186POPC  C31221397   4.427   4.270   5.075  0.3019 -0.2344  0.0865
  186POPC  H12X21398   4.358   4.187   5.050 -0.8399  1.3328 -2.3430
  186POPC  H12Y21399   4.527   4.230   5.102 -0.4592 -2.1010  0.2668
  186POPC  C31321400   4.439   4.334   4.934 -0.0513  0.2792 -0.0828
  186POPC  H13X21401   4.476   4.437   4.953  0.1546 -0.0771  1.6609
  186POPC  H13Y21402   4.338   4.354   4.895  0.2394  3.7000  0.6754
  186POPC  C31421403   4.530   4.258   4.842  0.0364 -0.2042  0.0715
  186POPC  H14X21404   4.491   4.156   4.825 -1.7613  0.0994  2.0147
  186POPC  H14Y21405   4.627   4.255   4.897  0.1646  0.3990 -0.1124
  186POPC  C31521406   4.561   4.326   4.706 -0.4395  0.0075 -0.4025
  186POPC  H15X21407   4.578   4.429   4.742 -3.3110  0.4787 -0.2158
  186POPC  H15Y21408   4.469   4.326   4.645 -0.4000  1.0330 -0.4783
  186POPC  C31621409   4.676   4.268   4.626 -0.0201  0.3982 -0.2754
  186POPC  H16X21410   4.669   4.308   4.523  0.4680 -1.5993 -1.1101
  186POPC  H16Y21411   4.671   4.157   4.628  1.8775  0.2865  0.4451
  186POPC  H16Z21412   4.772   4.290   4.677 -1.0190 -1.0025  2.4730
  187POPC     N21413   6.833   4.497   1.877  0.0595  0.4832 -0.4705
  187POPC   C1221414   6.692   4.450   1.897 -0.1872  0.6918  0.0197
  187POPC  H12A21415   6.691   4.353   1.945 -0.9164  0.4628 -0.4513
  187POPC  H12B21416   6.647   4.435   1.800  1.2358 -0.8498 -0.4641
  187POPC   C1321417   6.904   4.417   1.774 -1.2162  0.3864  0.3200
  187POPC  H13A21418   6.914   4.320   1.819  0.1882  0.7899  0.9493
  187POPC  H13B21419   6.847   4.416   1.682 -0.2547 -1.5370 -0.3072
  187POPC  H13C21420   6.997   4.470   1.757 -0.9968 -0.1200 -0.0835
  187POPC   C1421421   6.831   4.632   1.826  0.0312  0.4998 -0.1275
  187POPC  H14A21422   6.934   4.667   1.822  0.4513 -0.7445 -0.4452
  187POPC  H14B21423   6.789   4.630   1.727 -0.4730 -0.0848  0.0948
  187POPC  H14C21424   6.767   4.698   1.883 -0.5292  0.9158 -1.2068
  187POPC   C1521425   6.903   4.492   2.009 -0.3030 -0.6451  0.1251
  187POPC  H15A21426   6.858   4.557   2.083 -0.8924  1.6274 -2.0854
  187POPC  H15B21427   7.001   4.535   2.000 -0.8875  0.7060 -0.1155
  187POPC  H15C21428   6.918   4.388   2.029 -0.0225 -0.4093  1.1669
  187POPC   C1121429   6.603   4.543   1.980  0.4506  0.8055  0.3111
  187POPC  H11A21430   6.656   4.546   2.077 -0.1440 -2.4196  0.8461
  187POPC  H11B21431   6.516   4.474   1.982 -0.1957  1.6027  0.0993
  187POPC     P21432   6.467   4.741   2.021  0.2439 -0.0058  0.4950
  187POPC   O1321433   6.338   4.676   2.003  0.5791  0.4971 -0.6437
  187POPC   O1421434   6.465   4.888   2.003 -0.5402  0.2899 -0.2588
  187POPC   O1221435   6.574   4.670   1.926 -0.4034 -0.3246  0.1992
  187POPC   O1121436   6.521   4.717   2.172  0.3964  0.0345  0.1470
  187POPC    C121437   6.640   4.790   2.218 -0.3919  0.6186 -0.1853
  187POPC    HA21438   6.629   4.900   2.206  0.7506  0.7278 -0.2797
  187POPC    HB21439   6.730   4.766   2.157 -1.2041 -1.8992 -0.5153
  187POPC    C221440   6.675   4.761   2.370 -0.5453 -0.8583  0.5695
  187POPC    HS21441   6.772   4.808   2.398 -0.8375  0.2276 -0.1490
  187POPC   O2121442   6.686   4.628   2.402  0.7602  0.4485  0.2350
  187POPC   C2121443   6.796   4.566   2.373  0.3810 -0.1760  0.2624
  187POPC   O2221444   6.878   4.610   2.286 -0.1211  0.0703 -0.7782
  187POPC   C2221445   6.801   4.433   2.440  0.0866 -0.2631 -0.0529
  187POPC   H2R21446   6.794   4.358   2.358 -0.0954 -0.5986  0.2672
  187POPC   H2S21447   6.706   4.413   2.492  0.0128  1.3564  0.4822
  187POPC    C321448   6.571   4.827   2.467  0.5161  0.3391  1.1902
  187POPC    HX21449   6.472   4.780   2.450  0.2392  1.8168 -1.9302
  187POPC    HY21450   6.562   4.936   2.449  1.2228 -0.0209 -1.7976
  187POPC   O3121451   6.623   4.799   2.598  0.2004 -0.2081  0.6419
  187POPC   C3121452   6.527   4.834   2.688  0.0720 -0.5407  0.3537
  187POPC   O3221453   6.430   4.901   2.664  0.1631  0.1762  0.2563
  187POPC   C3221454   6.576   4.771   2.825 -0.0630  0.4579  0.1452
  187POPC   H2X21455   6.662   4.835   2.854  0.9069 -0.6778 -0.1437
  187POPC   H2Y21456   6.607   4.667   2.800 -1.5966 -0.3580  1.4020
  187POPC   C2321457   6.944   4.406   2.514 -0.2786  0.1971  0.1439
  187POPC   H3R21458   7.021   4.464   2.457 -0.5827  0.8135  0.3525
  187POPC   H3S21459   6.971   4.301   2.536  0.6255  0.5089  0.6053
  187POPC   C2421460   6.935   4.487   2.649  0.1845  0.3682 -0.5283
  187POPC   H4R21461   6.850   4.446   2.707  0.2001  1.1811  0.0949
  187POPC   H4S21462   6.916   4.596   2.634 -0.3691  0.4518  0.6236
  187POPC   C2521463   7.064   4.487   2.729  0.2412 -0.5125 -0.9388
  187POPC   H5R21464   7.126   4.573   2.698 -1.7252  0.5454 -2.0951
  187POPC   H5S21465   7.108   4.388   2.705  0.5293 -0.8614  0.8656
  187POPC   C2621466   7.051   4.494   2.884  0.0990  0.3989 -0.2982
  187POPC   H6R21467   7.156   4.496   2.920 -0.0011  2.0465 -0.0206
  187POPC   H6S21468   7.002   4.398   2.914 -1.0350  1.2583  0.7458
  187POPC   C2721469   6.976   4.606   2.948 -0.0451 -0.4042 -0.2984
  187POPC   H7R21470   6.867   4.586   2.946 -0.1655  0.2788 -1.4969
  187POPC   H7S21471   6.993   4.703   2.896 -1.0103  0.9919  1.8295
  187POPC   C2821472   7.024   4.625   3.094  0.0080  0.8615 -0.4090
  187POPC   H8R21473   7.002   4.725   3.137 -0.3392  1.0858 -1.0838
  187POPC   H8S21474   7.131   4.601   3.104 -0.2049 -0.2107 -0.6191
  187POPC   C2921475   6.941   4.523   3.176 -0.1111 -0.4327  0.4703
  187POPC   H9121476   6.942   4.419   3.141  1.4648 -0.6649  1.1152
  187POPC  C21021477   6.906   4.544   3.304  0.4720  0.8023  0.6593
  187POPC  H10121478   6.865   4.454   3.352 -1.4220  0.7114 -0.9853
  187POPC  C21121479   6.919   4.660   3.392 -0.2953  0.0710  0.8211
  187POPC  H11R21480   6.841   4.737   3.373  0.8149  1.6975  2.4369
  187POPC  H11S21481   7.020   4.700   3.368 -0.9918  0.1361 -2.4095
  187POPC  C21221482   6.898   4.629   3.541 -0.5656 -0.0783  0.7023
  187POPC  H12R21483   6.794   4.607   3.573 -0.6254 -1.5692 -0.4338
  187POPC  H12S21484   6.915   4.725   3.594  1.3311 -0.9362  1.7330
  187POPC  C21321485   7.004   4.530   3.595 -0.5313 -0.6235 -0.0300
  187POPC  H13R21486   7.101   4.572   3.562 -1.8790  1.2921 -1.8557
  187POPC  H13S21487   6.997   4.430   3.546  0.9064 -0.2973 -0.9368
  187POPC  C21421488   7.015   4.522   3.748  0.4943 -0.0370 -0.6835
  187POPC  H14R21489   7.045   4.615   3.799 -1.1862  0.5554 -0.7339
  187POPC  H14S21490   7.081   4.435   3.773  0.8511  0.0462 -1.3106
  187POPC  C21521491   6.883   4.476   3.816 -0.0474  0.6053  0.3482
  187POPC  H15R21492   6.853   4.379   3.772 -0.4540  0.9021 -0.0296
  187POPC  H15S21493   6.808   4.554   3.791  1.1207  1.4680 -0.5372
  187POPC  C21621494   6.895   4.468   3.972  0.0181 -0.6939 -1.3978
  187POPC  H16R21495   6.913   4.571   4.009  0.5013 -1.0928 -0.5058
  187POPC  H16S21496   6.982   4.402   3.994  1.1434  0.5124 -2.1200
  187POPC  C21721497   6.764   4.417   4.037 -0.2483  0.6006 -0.1176
  187POPC  H17R21498   6.796   4.368   4.132 -0.5450 -1.6334 -1.0929
  187POPC  H17S21499   6.717   4.345   3.965  2.7741 -0.0558 -1.6228
  187POPC  C21821500   6.671   4.529   4.064 -0.0030  0.4405  0.0158
  187POPC  H18R21501   6.652   4.598   3.979  0.1657  1.7870  1.0375
  187POPC  H18S21502   6.723   4.592   4.139  0.4790 -2.2251  2.0875
  187POPC  H18T21503   6.575   4.485   4.097 -0.3347 -0.1043 -1.5863
  187POPC   C3321504   6.479   4.775   2.947  0.1563 -0.0721 -0.1112
  187POPC   H3X21505   6.395   4.704   2.933 -1.6836  1.4122  2.4519
  187POPC   H3Y21506   6.417   4.866   2.964  0.5126  0.4273 -1.3515
  187POPC   C3421507   6.547   4.732   3.076  0.3388  0.6470 -0.0650
  187POPC   H4X21508   6.608   4.809   3.128 -1.7612  1.2940  1.5615
  187POPC   H4Y21509   6.610   4.643   3.055  1.5695  1.5303 -0.2573
  187POPC   C3521510   6.439   4.681   3.179 -0.4356 -0.0539  0.3228
  187POPC   H5X21511   6.381   4.598   3.134 -0.4888  0.5204 -0.7190
  187POPC   H5Y21512   6.363   4.760   3.202 -0.2544 -0.2152  1.5118
  187POPC   C3621513   6.519   4.640   3.305 -0.1246 -0.2553 -0.1106
  187POPC   H6X21514   6.562   4.739   3.332 -1.3136  0.3114 -0.2270
  187POPC   H6Y21515   6.596   4.571   3.265  1.2976  2.5595 -2.6465
  187POPC   C3721516   6.436   4.579   3.411 -0.9325  0.2577 -0.0273
  187POPC   H7X21517   6.378   4.497   3.362  0.6578 -0.1930 -1.2579
  187POPC   H7Y21518   6.374   4.664   3.446 -1.2158 -0.3641  1.0489
  187POPC   C3821519   6.533   4.523   3.520 -0.4269  0.2588 -0.0231
  187POPC   H8X21520   6.583   4.602   3.580  1.4058 -1.6108  1.0467
  187POPC   H8Y21521   6.613   4.469   3.464  0.6614 -0.0535  1.7702
  187POPC   C3921522   6.463   4.427   3.621  0.9187  0.0480  0.4890
  187POPC   H9X21523   6.540   4.359   3.663  0.4015 -0.2489  0.9840
  187POPC   H9Y21524   6.392   4.360   3.567  0.5311  0.6247  0.2782
  187POPC  C31021525   6.385   4.489   3.746 -0.3974  0.3028  0.0239
  187POPC  H10X21526   6.294   4.545   3.718  0.6799  1.7146 -0.8149
  187POPC  H10Y21527   6.460   4.551   3.800 -1.1817  0.9763  0.3618
  187POPC  C31121528   6.331   4.382   3.853  0.2692 -0.5047  0.7769
  187POPC  H11X21529   6.255   4.441   3.909  1.6093  2.5839 -0.4578
  187POPC  H11Y21530   6.410   4.366   3.929  1.7269 -0.3631 -0.6477
  187POPC  C31221531   6.284   4.247   3.799  0.0144 -0.0076  0.0622
  187POPC  H12X21532   6.372   4.201   3.748 -0.1294 -2.5408  1.8757
  187POPC  H12Y21533   6.197   4.277   3.737 -0.0667  0.0233  0.1911
  187POPC  C31321534   6.242   4.153   3.915  0.3553 -0.5354  0.4516
  187POPC  H13X21535   6.135   4.165   3.942  0.0013  0.4529 -1.2396
  187POPC  H13Y21536   6.303   4.188   4.001  1.4435 -2.3113  0.4574
  187POPC  C31421537   6.275   3.999   3.903  0.2024 -0.0555 -0.4506
  187POPC  H14X21538   6.384   3.991   3.886  0.4487 -1.0543  1.3218
  187POPC  H14Y21539   6.216   3.971   3.813 -1.0316 -1.8842  0.8480
  187POPC  C31521540   6.235   3.907   4.022  0.1015 -0.8020  0.0356
  187POPC  H15X21541   6.145   3.938   4.079  0.2293  0.1842 -0.2654
  187POPC  H15Y21542   6.323   3.914   4.090  1.6215 -0.8920 -1.8420
  187POPC  C31621543   6.208   3.766   3.970 -0.2620  0.5486  0.0693
  187POPC  H16X21544   6.206   3.692   4.052 -1.3700 -1.7731 -1.9176
  187POPC  H16Y21545   6.293   3.745   3.902 -0.2113  1.9547 -0.3298
  187POPC  H16Z21546   6.113   3.747   3.914  0.5212 -1.6611 -0.6281
  188POPC     N21547   4.748   5.806   1.834  0.1850  0.0562  0.3441
  188POPC   C1221548   4.670   5.826   1.964 -0.3097 -0.1423 -0.5552
  188POPC  H12A21549   4.641   5.930   1.961 -1.0575 -0.3382 -0.3533
  188POPC  H12B21550   4.741   5.823   2.046 -1.1501 -2.8622  0.1779
  188POPC   C1321551   4.850   5.918   1.815  0.4773  0.3652  0.3221
  188POPC  H13A21552   4.875   5.916   1.710 -3.7218  1.7518 -0.9138
  188POPC  H13B21553   4.800   6.011   1.836 -2.3137 -1.5697  3.4535
  188POPC  H13C21554   4.943   5.909   1.869  0.4980 -2.2529 -0.0049
  188POPC   C1421555   4.831   5.682   1.844 -0.7428  0.0383  0.2422
  188POPC  H14A21556   4.773   5.591   1.849 -1.7949  0.5627 -1.6450
  188POPC  H14B21557   4.898   5.673   1.760 -0.8359  1.2607  0.0224
  188POPC  H14C21558   4.883   5.691   1.939  0.4461 -2.8167 -0.0286
  188POPC   C1521559   4.663   5.801   1.711  0.5370  0.7241  0.2634
  188POPC  H15A21560   4.618   5.897   1.690  1.0300  0.7557 -0.6505
  188POPC  H15B21561   4.588   5.724   1.722  1.8566 -0.5052  1.0484
  188POPC  H15C21562   4.714   5.766   1.623 -1.6222  0.8794 -1.1081
  188POPC   C1121563   4.559   5.725   1.999 -0.1427  0.0082 -0.1864
  188POPC  H11A21564   4.493   5.702   1.913 -0.1995 -0.9282  0.0933
  188POPC  H11B21565   4.500   5.766   2.085  1.1458  0.4233  0.5259
  188POPC     P21566   4.699   5.585   2.164 -0.1410  0.2832 -0.0179
  188POPC   O1321567   4.749   5.718   2.207  0.4725  0.5338  0.3934
  188POPC   O1421568   4.802   5.485   2.139 -0.2004  0.2891 -0.2021
  188POPC   O1221569   4.615   5.599   2.034  0.1370 -0.7522 -0.1182
  188POPC   O1121570   4.594   5.540   2.271 -0.0212  0.4979  0.0726
  188POPC    C121571   4.514   5.427   2.278 -0.0670  0.0735 -0.5013
  188POPC    HA21572   4.535   5.355   2.197 -1.2437 -2.4883  1.3176
  188POPC    HB21573   4.409   5.459   2.261  0.1495  0.4065 -1.2024
  188POPC    C221574   4.521   5.353   2.416  0.4556  0.2739 -0.3296
  188POPC    HS21575   4.472   5.254   2.404 -1.3214  0.6677  2.6895
  188POPC   O2121576   4.469   5.442   2.515  0.0173  0.0770 -0.1807
  188POPC   C2121577   4.384   5.385   2.595  0.5157  0.1108 -0.8297
  188POPC   O2221578   4.348   5.267   2.590 -0.2817 -0.2221 -0.0451
  188POPC   C2221579   4.357   5.484   2.708  1.3176 -0.0228 -0.2741
  188POPC   H2R21580   4.252   5.519   2.692  0.0822 -3.0011  0.5746
  188POPC   H2S21581   4.432   5.565   2.721 -0.5098  1.7898 -0.4203
  188POPC    C321582   4.666   5.318   2.444 -0.3744 -0.0367 -0.2409
  188POPC    HX21583   4.724   5.410   2.463 -0.7560  0.4223 -1.2038
  188POPC    HY21584   4.714   5.279   2.351  1.0786 -3.0996  1.6514
  188POPC   O3121585   4.679   5.205   2.542 -0.4790 -0.0742  0.3512
  188POPC   C3121586   4.671   5.233   2.669  1.1478  0.0828  0.2967
  188POPC   O3221587   4.676   5.344   2.725 -0.3089  0.2342 -0.3332
  188POPC   C3221588   4.625   5.099   2.736 -0.1250 -0.0093  0.5931
  188POPC   H2X21589   4.687   5.013   2.701 -0.3232  0.1666 -0.2277
  188POPC   H2Y21590   4.519   5.080   2.709  0.0697  0.6245 -0.7353
  188POPC   C2321591   4.360   5.405   2.841  0.3862  0.0299 -0.2243
  188POPC   H3R21592   4.463   5.370   2.863  0.6763  1.0927  0.1674
  188POPC   H3S21593   4.303   5.311   2.829  1.8835 -1.0227  0.6016
  188POPC   C2421594   4.300   5.485   2.959 -0.2643  0.7645  0.6856
  188POPC   H4R21595   4.190   5.487   2.944 -0.0517  0.0581 -1.3150
  188POPC   H4S21596   4.353   5.583   2.967  0.5231  0.1983  2.9444
  188POPC   C2521597   4.330   5.423   3.091  0.3227  0.4047  0.0010
  188POPC   H5R21598   4.365   5.319   3.080  0.6436  0.1502  2.7350
  188POPC   H5S21599   4.235   5.407   3.146  0.7450 -1.9903  0.1382
  188POPC   C2621600   4.434   5.495   3.171 -0.2188 -0.1594  0.0126
  188POPC   H6R21601   4.421   5.604   3.153  0.6788 -0.3258 -2.0406
  188POPC   H6S21602   4.536   5.475   3.131 -0.8805  1.6192 -2.8980
  188POPC   C2721603   4.424   5.461   3.320  0.9310  0.2022  0.3357
  188POPC   H7R21604   4.422   5.350   3.324  4.0035 -0.0106 -1.0980
  188POPC   H7S21605   4.335   5.512   3.362  0.5482  0.8973 -1.2322
  188POPC   C2821606   4.546   5.513   3.399  1.0023  0.2989  0.3244
  188POPC   H8R21607   4.643   5.478   3.356  0.7305  0.6801 -0.6010
  188POPC   H8S21608   4.541   5.468   3.501 -0.6214  0.0557  0.1573
  188POPC   C2921609   4.552   5.658   3.406  0.3180  0.4706 -0.1666
  188POPC   H9121610   4.559   5.707   3.308 -0.3358  0.9165 -0.0008
  188POPC  C21021611   4.585   5.731   3.516 -0.6999  0.5131  0.0872
  188POPC  H10121612   4.584   5.840   3.507 -1.8692  0.7123  2.0979
  188POPC  C21121613   4.612   5.679   3.655  0.6193  0.2039 -0.3589
  188POPC  H11R21614   4.708   5.623   3.661  1.4056  1.4277 -1.0204
  188POPC  H11S21615   4.527   5.609   3.669 -0.7931  1.7961 -0.6030
  188POPC  C21221616   4.607   5.788   3.760 -0.5232  0.0519 -0.0298
  188POPC  H12R21617   4.514   5.848   3.754 -1.0303 -0.8249 -1.4915
  188POPC  H12S21618   4.686   5.865   3.748 -0.2753 -0.0557  0.8617
  188POPC  C21321619   4.629   5.722   3.897 -0.1011  0.0098 -0.7987
  188POPC  H13R21620   4.717   5.654   3.888 -0.7656 -1.0490  0.4751
  188POPC  H13S21621   4.537   5.663   3.915  0.7783 -0.9243  0.8659
  188POPC  C21421622   4.630   5.817   4.012  0.1117  0.3972 -0.5457
  188POPC  H14R21623   4.538   5.879   4.023 -1.2373 -1.8963  2.3673
  188POPC  H14S21624   4.722   5.879   4.002  0.2755  0.1556 -0.5494
  188POPC  C21521625   4.656   5.733   4.135 -0.1877  0.5635 -0.9611
  188POPC  H15R21626   4.731   5.654   4.112 -0.1317  0.3188 -0.0017
  188POPC  H15S21627   4.564   5.678   4.165  1.0484 -1.0055  0.2018
  188POPC  C21621628   4.695   5.801   4.265  0.8309  0.1072 -0.1359
  188POPC  H16R21629   4.793   5.853   4.254 -0.4025  2.2671 -1.6248
  188POPC  H16S21630   4.711   5.718   4.338 -2.4367 -2.5340 -2.1234
  188POPC  C21721631   4.597   5.907   4.335  0.2737  1.1538 -0.3281
  188POPC  H17R21632   4.501   5.855   4.355  0.6157  0.7261  0.2328
  188POPC  H17S21633   4.587   5.989   4.260 -1.3229  3.0696  1.8366
  188POPC  C21821634   4.659   5.968   4.466  0.2624  0.4954 -0.2164
  188POPC  H18R21635   4.732   5.894   4.507 -1.0833  0.3714  2.1310
  188POPC  H18S21636   4.574   5.988   4.534  0.7845 -1.1847  0.9975
  188POPC  H18T21637   4.708   6.064   4.439  0.9736  0.4096  0.7177
  188POPC   C3321638   4.626   5.107   2.891  0.0144 -0.3113 -0.4285
  188POPC   H3X21639   4.530   5.151   2.925  0.4100 -0.9531  1.6811
  188POPC   H3Y21640   4.710   5.170   2.927 -0.7337  0.8826 -0.6892
  188POPC   C3421641   4.634   4.965   2.956  0.0380 -1.2844 -0.0965
  188POPC   H4X21642   4.737   4.924   2.946  0.0770 -1.4202  0.7725
  188POPC   H4Y21643   4.576   4.894   2.894 -1.4134 -0.7349  0.5757
  188POPC   C3521644   4.592   4.965   3.099  0.3168  0.2462 -0.4399
  188POPC   H5X21645   4.575   4.858   3.122  1.0552 -0.5455 -3.1998
  188POPC   H5Y21646   4.502   5.027   3.119 -0.2251 -0.7547  0.3198
  188POPC   C3621647   4.700   5.020   3.198 -0.4946  0.4180  0.0430
  188POPC   H6X21648   4.738   5.111   3.147 -1.1517 -0.2540 -1.7036
  188POPC   H6Y21649   4.792   4.958   3.209  1.0117  2.6618  0.7885
  188POPC   C3721650   4.635   5.061   3.340 -0.3369  0.2341  0.0367
  188POPC   H7X21651   4.600   4.961   3.375  0.5547 -0.7981 -1.8210
  188POPC   H7Y21652   4.551   5.133   3.340  1.1470  2.0376  0.8625
  188POPC   C3821653   4.741   5.105   3.436 -0.5935  0.0362  0.1716
  188POPC   H8X21654   4.776   5.207   3.412 -2.5327  1.2644  2.1911
  188POPC   H8Y21655   4.823   5.030   3.436  0.3410  1.0277 -0.1205
  188POPC   C3921656   4.685   5.111   3.582  0.2606 -0.7606  0.4649
  188POPC   H9X21657   4.632   5.019   3.614 -1.4642  0.5543  1.5628
  188POPC   H9Y21658   4.621   5.200   3.600  0.5250 -0.2906 -0.8279
  188POPC  C31021659   4.803   5.138   3.670 -0.4032 -0.0234  0.2396
  188POPC  H10X21660   4.880   5.058   3.660  1.8033  1.8014  1.5577
  188POPC  H10Y21661   4.768   5.147   3.775  0.4905  0.7025  0.4885
  188POPC  C31121662   4.879   5.275   3.645  0.1833 -0.6083 -1.4068
  188POPC  H11X21663   4.811   5.351   3.602  0.0662  1.1225  1.5600
  188POPC  H11Y21664   4.966   5.264   3.577  0.4622 -1.4765 -0.9272
  188POPC  C31221665   4.942   5.343   3.772  0.5421  0.1927  0.2345
  188POPC  H12X21666   5.006   5.269   3.825  1.7192 -0.6067 -2.1417
  188POPC  H12Y21667   4.854   5.366   3.835  2.0012  1.0575  2.0453
  188POPC  C31321668   5.016   5.472   3.739 -0.4128 -0.9131 -1.0292
  188POPC  H13X21669   4.940   5.534   3.687 -0.1403 -0.0432 -0.4124
  188POPC  H13Y21670   5.101   5.449   3.671  1.9122  1.1626  0.9921
  188POPC  C31421671   5.076   5.540   3.862 -0.5991 -1.1436 -0.5179
  188POPC  H14X21672   5.145   5.617   3.821 -1.1619 -0.8394 -0.9009
  188POPC  H14Y21673   5.138   5.463   3.913 -0.8532 -1.5666 -0.8431
  188POPC  C31521674   4.974   5.600   3.957 -0.2563  0.5084  0.1256
  188POPC  H15X21675   4.885   5.534   3.963 -0.3767  0.6361 -0.2315
  188POPC  H15Y21676   4.929   5.691   3.910  2.3973  0.6665 -2.3921
  188POPC  C31621677   5.027   5.627   4.100 -0.0597 -0.5595  0.4813
  188POPC  H16X21678   5.033   5.530   4.154 -0.7419 -0.4148  0.8291
  188POPC  H16Y21679   4.958   5.692   4.158  1.4300  0.7574  0.8626
  188POPC  H16Z21680   5.128   5.673   4.097 -0.0023 -0.6371  0.9981
  189SAPI   C1221681   2.642   5.201   6.808  0.9000  0.0547 -0.6559
  189SAPI    H221682   2.672   5.248   6.712 -0.5969  3.2022  0.2987
  189SAPI    O221683   2.508   5.143   6.793  0.2605 -0.4878  0.8272
  189SAPI   HO221684   2.505   5.073   6.727 -1.0688 -0.2164  0.5707
  189SAPI   C1321685   2.744   5.092   6.836  0.9991 -0.2238 -0.3712
  189SAPI    H321686   2.840   5.133   6.872 -0.0775  0.6190  1.7476
  189SAPI    O321687   2.778   5.022   6.714  0.2984  0.3140 -0.1777
  189SAPI   HO321688   2.835   4.950   6.742 -0.5715  0.1948  1.4023
  189SAPI   C1421689   2.691   5.006   6.953 -0.6551 -0.2038  0.2981
  189SAPI    H421690   2.592   4.956   6.939 -0.5090 -0.5793  0.5808
  189SAPI    O421691   2.771   4.895   6.985  0.1418  0.1988 -0.2323
  189SAPI   HO421692   2.706   4.826   7.002  2.6749 -2.4045 -0.3811
  189SAPI   C1521693   2.674   5.089   7.079  0.0016  0.2893  0.1890
  189SAPI    H521694   2.777   5.113   7.114  0.4028  3.5328 -2.6998
  189SAPI    O521695   2.606   5.018   7.184 -0.2890  0.4394  0.3165
  189SAPI   HO521696   2.514   5.016   7.155  0.3108 -0.6901 -1.7211
  189SAPI   C1621697   2.616   5.233   7.051 -0.4434  0.3208 -0.1163
  189SAPI    H621698   2.506   5.219   7.044 -0.5301  0.4483  0.8243
  189SAPI    O621699   2.639   5.315   7.163 -0.3030 -0.3166  0.3688
  189SAPI   HO621700   2.709   5.372   7.131 -1.0444  1.0146  1.0593
  189SAPI   C1121701   2.657   5.303   6.920  0.0141  0.3535 -0.9212
  189SAPI    H121702   2.765   5.330   6.920  0.2335 -0.2851  1.1811
  189SAPI     P21703   2.608   5.536   6.807  0.2132  0.2739 -0.6432
  189SAPI   O1321704   2.748   5.574   6.839 -0.2356 -0.5942 -0.3405
  189SAPI   O1421705   2.490   5.634   6.817  0.1041  0.3604  0.0213
  189SAPI   O1221706   2.565   5.411   6.897  0.1903 -0.5122  0.1075
  189SAPI   O1121707   2.611   5.473   6.668  0.2575  0.3451  0.2332
  189SAPI    C121708   2.485   5.471   6.594 -0.8663 -0.1684  0.2063
  189SAPI    HA21709   2.415   5.400   6.645  0.3994 -0.1540  2.0517
  189SAPI    HB21710   2.438   5.571   6.591  0.9602  0.7752  1.3688
  189SAPI    C221711   2.501   5.396   6.457  0.0661 -1.2915  0.0703
  189SAPI    HS21712   2.561   5.303   6.472  1.1399 -0.6229  0.0231
  189SAPI   O2121713   2.550   5.489   6.364 -0.0823  0.4660 -0.1578
  189SAPI   C2121714   2.658   5.553   6.381 -0.3360 -0.2885  0.1273
  189SAPI   O2221715   2.754   5.533   6.464  0.1061 -0.0566 -0.1671
  189SAPI   C2221716   2.660   5.666   6.270  0.9303  0.2780  0.3835
  189SAPI   H2R21717   2.580   5.741   6.287 -1.1782 -1.5834 -0.7596
  189SAPI   H2S21718   2.756   5.722   6.279  0.4195  1.3758 -0.6976
  189SAPI    C321719   2.363   5.352   6.402  0.1589 -0.4552  0.0324
  189SAPI    HX21720   2.285   5.429   6.423 -0.3285 -0.4840 -1.5338
  189SAPI    HY21721   2.345   5.263   6.465  1.4661 -0.7124  0.0685
  189SAPI   O3121722   2.355   5.330   6.260  0.1541  0.1484 -0.0411
  189SAPI   C3121723   2.410   5.221   6.216 -0.6757 -1.0086 -0.7448
  189SAPI   O3221724   2.465   5.134   6.289  0.2072 -0.0405 -0.0905
  189SAPI   C3221725   2.428   5.223   6.063 -0.3497 -0.5401 -0.0054
  189SAPI   H2X21726   2.390   5.322   6.029 -2.2795 -1.0596  0.5436
  189SAPI   H2Y21727   2.353   5.149   6.028 -0.9625  0.1959 -0.2729
  189SAPI   C2321728   2.635   5.590   6.132 -0.3596 -0.4899  0.0436
  189SAPI   H3R21729   2.531   5.599   6.093 -0.2055 -0.8991 -0.4791
  189SAPI   H3S21730   2.658   5.481   6.129 -1.8597 -0.8240 -0.4461
  189SAPI   C2421731   2.725   5.659   6.037 -0.0313  0.0489  0.7316
  189SAPI   H4R21732   2.721   5.598   5.943 -0.7397 -0.8016  1.2997
  189SAPI   H4S21733   2.831   5.656   6.071  0.4029  2.0873 -0.3006
  189SAPI   C2521734   2.692   5.805   6.008 -0.4317 -0.1172  0.2393
  189SAPI   H5R21735   2.724   5.884   6.078 -1.5963  1.2154 -0.6506
  189SAPI   C2621736   2.636   5.846   5.889  0.6730  0.1353 -0.2610
  189SAPI   H6R21737   2.628   5.955   5.872  1.8756  0.7386  2.4871
  189SAPI   C2721738   2.578   5.773   5.772  0.0248  0.0468  0.5332
  189SAPI   H7R21739   2.610   5.667   5.778  0.9393  0.3922  3.5210
  189SAPI   H7S21740   2.612   5.808   5.673  1.1015  0.1301  0.9064
  189SAPI   C2821741   2.429   5.785   5.802 -0.4456 -0.0670 -0.6776
  189SAPI   H8R21742   2.407   5.764   5.908  1.2230 -2.4072 -0.7046
  189SAPI   C2921743   2.333   5.803   5.708  0.7535  0.4092  0.6967
  189SAPI   H9R21744   2.227   5.816   5.734  0.6185  0.5000  0.1068
  189SAPI  C21021745   2.351   5.815   5.560 -0.0217 -0.2107  0.6234
  189SAPI  H10R21746   2.292   5.734   5.512  2.0583 -0.6637 -1.3345
  189SAPI  H10S21747   2.456   5.792   5.533 -0.1829  1.5788 -1.8899
  189SAPI  C21121748   2.311   5.945   5.495 -0.0187  0.3742  0.2271
  189SAPI  H11R21749   2.203   5.959   5.477 -0.6385  0.2183  3.3256
  189SAPI  C21221750   2.394   6.045   5.450  0.2589  0.1769 -0.1676
  189SAPI  H12R21751   2.362   6.135   5.395  2.4347  0.8856 -0.3988
  189SAPI  C21321752   2.550   6.041   5.471  0.2648 -0.0716  0.0713
  189SAPI  H13R21753   2.597   5.971   5.399  1.0220 -0.2360  0.7154
  189SAPI  H13S21754   2.574   5.999   5.571  0.3187  1.5730  0.7745
  189SAPI  C21421755   2.627   6.172   5.465  0.2008 -0.6714  0.0888
  189SAPI  H14R21756   2.641   6.222   5.562 -2.0236  1.3294 -0.5381
  189SAPI  C21521757   2.692   6.226   5.361 -0.2351  0.5429  0.6552
  189SAPI  H15R21758   2.750   6.318   5.373  0.6217  0.4497 -2.1097
  189SAPI  C21621759   2.683   6.173   5.221  0.2328  0.6251  0.0806
  189SAPI  H16R21760   2.607   6.093   5.207  2.1068 -1.1357 -0.5476
  189SAPI  H16S21761   2.781   6.129   5.193  0.7619  0.8882  1.4721
  189SAPI  C21721762   2.647   6.278   5.112 -0.3649  0.8187  0.1637
  189SAPI  H17R21763   2.698   6.377   5.115 -0.6134  0.9870 -0.7740
  189SAPI  H17S21764   2.539   6.299   5.131 -0.4221  0.0260  0.7375
  189SAPI  C21821765   2.654   6.233   4.963 -0.3235 -0.0155 -0.6659
  189SAPI  H18R21766   2.573   6.167   4.925  0.3463 -0.4849 -1.3231
  189SAPI  H18S21767   2.748   6.173   4.959 -0.8179 -0.7648 -1.4619
  189SAPI  C21921768   2.667   6.347   4.867  0.1135 -0.2507  0.4294
  189SAPI  H19R21769   2.742   6.420   4.905  0.0852 -0.0234  0.0548
  189SAPI  H19S21770   2.575   6.409   4.859  0.4185  0.1708  0.1327
  189SAPI  C22021771   2.713   6.303   4.729 -0.4211  0.0041  0.2590
  189SAPI  H20R21772   2.633   6.237   4.690  0.3683  0.0478 -1.5189
  189SAPI  H20S21773   2.808   6.246   4.733 -0.3133  0.2101  0.6817
  189SAPI  H20T21774   2.739   6.379   4.652 -1.2564 -1.3804 -1.4680
  189SAPI   C3321775   2.569   5.190   6.015  0.0374 -0.1607 -0.5497
  189SAPI   H3X21776   2.585   5.089   6.059  1.6999  0.5002  0.4585
  189SAPI   H3Y21777   2.643   5.256   6.066  0.7960 -0.5522 -1.1284
  189SAPI   C3421778   2.578   5.184   5.864 -0.0425  0.3810  0.5245
  189SAPI   H4X21779   2.509   5.102   5.836 -1.2206  0.4971  2.8502
  189SAPI   H4Y21780   2.680   5.149   5.837 -1.2748 -0.2457 -4.1512
  189SAPI   C3521781   2.567   5.317   5.795 -0.1703  0.2824  0.5557
  189SAPI   H5X21782   2.658   5.380   5.806  0.8874 -0.4813 -2.6435
  189SAPI   H5Y21783   2.490   5.385   5.837  0.6150  0.8299  1.1573
  189SAPI   C3621784   2.541   5.304   5.639 -0.0395  0.2565 -0.0286
  189SAPI   H6X21785   2.436   5.279   5.613  0.7952 -0.3636 -3.1964
  189SAPI   H6Y21786   2.612   5.229   5.598 -1.7592  0.0136 -2.7846
  189SAPI   C3721787   2.572   5.433   5.564 -0.2602  0.3257 -0.2327
  189SAPI   H7X21788   2.679   5.462   5.573 -0.4202  1.3879 -1.4212
  189SAPI   H7Y21789   2.513   5.519   5.603 -0.7641  1.0378 -2.4059
  189SAPI   C3821790   2.527   5.414   5.416 -0.5128 -0.2877  0.1780
  189SAPI   H8X21791   2.423   5.373   5.416 -0.9375  0.6329 -1.9360
  189SAPI   H8Y21792   2.595   5.341   5.369  1.7226  1.4003  0.6167
  189SAPI   C3921793   2.530   5.542   5.333  0.3872 -0.9016 -0.0446
  189SAPI   H9X21794   2.637   5.546   5.306 -0.0970 -2.4284 -2.5909
  189SAPI   H9Y21795   2.500   5.634   5.388  0.2692 -1.2342  0.4611
  189SAPI  C31021796   2.453   5.517   5.199  0.0494 -0.5698  0.4421
  189SAPI  H10X21797   2.498   5.591   5.129  3.3631 -2.5685  0.2776
  189SAPI  H10Y21798   2.344   5.542   5.206 -0.0059 -0.0070 -1.6120
  189SAPI  C31121799   2.468   5.378   5.144 -0.1554  0.6237 -0.9411
  189SAPI  H11X21800   2.432   5.297   5.209  0.4070  1.1970  0.1121
  189SAPI  H11Y21801   2.571   5.354   5.108  0.7275  1.3099  0.9678
  189SAPI  C31221802   2.378   5.354   5.022  0.7433  0.6515 -0.4034
  189SAPI  H12X21803   2.372   5.454   4.975  0.0173  1.7593  1.9486
  189SAPI  H12Y21804   2.277   5.330   5.061  0.8604 -1.1861 -1.0843
  189SAPI  C31321805   2.430   5.243   4.926  0.1400 -0.1431  0.5337
  189SAPI  H13X21806   2.468   5.154   4.982  1.5110 -1.6726 -2.6023
  189SAPI  H13Y21807   2.515   5.287   4.870 -0.4977  1.0527  0.4738
  189SAPI  C31421808   2.329   5.203   4.821 -0.0661  0.3419 -0.1152
  189SAPI  H14X21809   2.277   5.296   4.793  0.5418  0.6886 -0.1063
  189SAPI  H14Y21810   2.257   5.131   4.866  2.4779 -2.0795  0.3469
  189SAPI  C31521811   2.406   5.126   4.715  0.4932  0.3519  0.8175
  189SAPI  H15X21812   2.502   5.177   4.690 -0.8436  3.0669  0.8871
  189SAPI  H15Y21813   2.337   5.136   4.628 -0.1501 -1.4860  1.0830
  189SAPI  C31621814   2.436   4.981   4.747  0.3566 -0.2141 -0.7340
  189SAPI  H16X21815   2.352   4.917   4.783  1.4914 -0.5257  1.5121
  189SAPI  H16Y21816   2.505   4.980   4.833 -1.6690 -1.4938  0.9801
  189SAPI  C31721817   2.502   4.910   4.630 -0.1351 -0.7468  0.1875
  189SAPI  H17X21818   2.581   4.981   4.597  1.3291 -2.8015 -0.8943
  189SAPI  H17Y21819   2.423   4.908   4.551  0.2206  0.4183 -0.2126
  189SAPI  C31821820   2.562   4.771   4.658 -0.0059 -0.3891 -0.6650
  189SAPI  H18X21821   2.485   4.691   4.661 -0.3604 -0.0200  1.2640
  189SAPI  H18Y21822   2.608   4.769   4.759 -1.8971  1.4427  0.3116
  189SAPI  H18Z21823   2.637   4.754   4.578  1.5654  1.6026  0.2903
  190SAPI   C1221824   2.908   1.355   6.743  0.0970 -0.0411  0.1643
  190SAPI    H221825   2.813   1.395   6.703 -0.0435 -0.4523  0.0782
  190SAPI    O221826   3.008   1.421   6.668 -0.1520  0.1114  0.0161
  190SAPI   HO221827   3.015   1.374   6.585 -2.1344  0.6054 -0.4632
  190SAPI   C1321828   2.919   1.390   6.885 -0.0886  0.1446 -0.5135
  190SAPI    H321829   2.847   1.328   6.943 -0.8125 -2.3850 -3.8592
  190SAPI    O321830   2.901   1.523   6.905 -0.2632 -0.9319  0.5301
  190SAPI   HO321831   2.865   1.536   6.993 -1.8878 -1.8856  0.0558
  190SAPI   C1421832   3.057   1.343   6.932  0.2476  0.2265  0.0207
  190SAPI    H421833   3.136   1.413   6.897  1.0119  0.8034  2.6400
  190SAPI    O421834   3.063   1.344   7.071 -0.5184  0.2820 -0.2287
  190SAPI   HO421835   3.134   1.404   7.095 -0.8544  0.6441 -0.1204
  190SAPI   C1521836   3.112   1.212   6.868 -0.1959 -0.0892  1.4808
  190SAPI    H521837   3.101   1.143   6.955  1.1831 -0.9593  0.9999
  190SAPI    O521838   3.254   1.213   6.846  0.4062  0.4987 -0.4438
  190SAPI   HO521839   3.294   1.136   6.887 -0.8263  0.1779  0.2187
  190SAPI   C1621840   3.039   1.137   6.752  1.1482 -0.3390 -0.5588
  190SAPI    H621841   3.107   1.157   6.666  0.9335 -1.1282 -0.9183
  190SAPI    O621842   3.021   0.996   6.777  0.0950 -0.0672  0.3275
  190SAPI   HO621843   3.108   0.964   6.753  0.7514  0.6189  1.6522
  190SAPI   C1121844   2.909   1.208   6.709 -0.2422  0.3993  0.0834
  190SAPI    H121845   2.835   1.162   6.777  0.9000 -1.4016  0.1576
  190SAPI     P21846   2.732   1.147   6.510  0.1285  0.7026 -0.1140
  190SAPI   O1321847   2.639   1.121   6.628  0.0252 -0.1102  0.3209
  190SAPI   O1421848   2.740   1.041   6.409  0.3680 -0.2552 -0.4695
  190SAPI   O1221849   2.888   1.178   6.565  0.1871  0.1953  0.3353
  190SAPI   O1121850   2.696   1.289   6.440 -0.1919  0.5343 -0.3182
  190SAPI    C121851   2.571   1.296   6.374 -0.2655  0.7415  0.2887
  190SAPI    HA21852   2.497   1.228   6.422  0.3329  0.5602  0.9637
  190SAPI    HB21853   2.528   1.396   6.392  0.3437  1.3265 -1.2978
  190SAPI    C221854   2.584   1.268   6.223  0.1472  0.3163  0.5315
  190SAPI    HS21855   2.620   1.164   6.214 -1.0444  0.0624 -2.3001
  190SAPI   O2121856   2.667   1.366   6.156 -0.1946 -0.3430 -0.4005
  190SAPI   C2121857   2.751   1.322   6.063  0.4452 -0.6121  0.6477
  190SAPI   O2221858   2.764   1.208   6.023  0.4594  0.3202  0.0062
  190SAPI   C2221859   2.848   1.439   6.031  0.0267  0.7248  0.1913
  190SAPI   H2R21860   2.829   1.532   6.090 -0.3936  0.1337  1.0158
  190SAPI   H2S21861   2.949   1.404   6.059 -0.4190 -1.3152 -0.5489
  190SAPI    C321862   2.447   1.267   6.150  0.3502  0.4112  0.5673
  190SAPI    HX21863   2.385   1.189   6.199  0.0940 -1.7388 -2.8137
  190SAPI    HY21864   2.454   1.236   6.043  1.4128  2.2439  0.0641
  190SAPI   O3121865   2.375   1.387   6.152  0.3877  0.2661  0.2625
  190SAPI   C3121866   2.399   1.467   6.049 -0.9033 -0.8770  0.1797
  190SAPI   O3221867   2.464   1.437   5.948 -0.1624 -0.1359 -0.1149
  190SAPI   C3221868   2.345   1.605   6.084 -0.4782  0.2659  1.2891
  190SAPI   H2X21869   2.411   1.639   6.167  0.5210  1.0483  0.2145
  190SAPI   H2Y21870   2.242   1.588   6.121 -1.0545 -1.5887 -0.9280
  190SAPI   C2321871   2.839   1.489   5.886 -0.3189 -0.1904  0.1289
  190SAPI   H3R21872   2.905   1.578   5.877  0.7062 -0.7206  1.9489
  190SAPI   H3S21873   2.735   1.525   5.868 -0.8633 -1.9109 -0.3296
  190SAPI   C2421874   2.886   1.392   5.784 -0.0702 -0.3806  0.4219
  190SAPI   H4R21875   2.844   1.291   5.803 -2.2969  0.3279 -0.4209
  190SAPI   H4S21876   2.998   1.392   5.783  0.0962 -3.1066 -3.1358
  190SAPI   C2521877   2.837   1.431   5.649  0.4678 -0.4786  0.4695
  190SAPI   H5R21878   2.738   1.479   5.657  0.1523 -1.1376  0.6887
  190SAPI   C2621879   2.907   1.439   5.534 -0.7120  0.6473  0.8278
  190SAPI   H6R21880   2.860   1.465   5.438 -1.0050 -0.0343  0.7808
  190SAPI   C2721881   3.052   1.389   5.516 -1.0476  0.4085  0.0529
  190SAPI   H7R21882   3.105   1.368   5.611  0.1452  1.7700 -0.2855
  190SAPI   H7S21883   3.111   1.475   5.479 -0.1002 -0.5733 -0.7736
  190SAPI   C2821884   3.066   1.265   5.435 -0.5832 -0.9507  0.2731
  190SAPI   H8R21885   3.070   1.165   5.481 -1.0428 -0.4731  1.3994
  190SAPI   C2921886   3.083   1.267   5.298  0.4010  0.1067 -0.0851
  190SAPI   H9R21887   3.093   1.172   5.244 -0.0280  0.8479 -1.5289
  190SAPI  C21021888   3.100   1.384   5.198 -0.3853  0.0101  0.1751
  190SAPI  H10R21889   3.205   1.420   5.183 -0.8847  0.7945 -1.8029
  190SAPI  H10S21890   3.049   1.474   5.238  1.2636  1.0322  0.1102
  190SAPI  C21121891   3.030   1.357   5.066 -0.6499 -0.6067  0.0195
  190SAPI  H11R21892   2.923   1.341   5.086 -0.3976 -0.3982  1.6202
  190SAPI  C21221893   3.078   1.356   4.944 -0.2916 -0.5001  0.0092
  190SAPI  H12R21894   3.015   1.348   4.855 -1.0593  1.8478  0.2707
  190SAPI  C21321895   3.223   1.371   4.894  0.4644 -0.7264  0.2248
  190SAPI  H13R21896   3.291   1.331   4.973 -0.9720 -0.6410  1.5408
  190SAPI  H13S21897   3.239   1.480   4.884 -2.8483 -0.2028 -0.4602
  190SAPI  C21421898   3.230   1.303   4.759  0.4310 -0.0433  0.4318
  190SAPI  H14R21899   3.268   1.200   4.765  1.1269  0.2262  0.7061
  190SAPI  C21521900   3.216   1.362   4.635  0.4319  0.4442  0.2305
  190SAPI  H15R21901   3.254   1.298   4.553 -0.8767 -0.7338  0.5040
  190SAPI  C21621902   3.175   1.512   4.614  0.2020  0.4057 -0.4845
  190SAPI  H16R21903   3.221   1.541   4.518 -1.0072 -1.2116 -1.6149
  190SAPI  H16S21904   3.216   1.576   4.695 -0.6176  0.4653 -0.1088
  190SAPI  C21721905   3.022   1.531   4.597  0.2147 -0.0456 -0.6952
  190SAPI  H17R21906   2.991   1.633   4.626 -1.1467 -0.8700  0.9227
  190SAPI  H17S21907   2.975   1.477   4.682  0.8812  0.4883  0.0236
  190SAPI  C21821908   2.955   1.486   4.459  0.4932 -0.4470 -0.7113
  190SAPI  H18R21909   2.981   1.383   4.426  1.8438  0.2974 -2.0703
  190SAPI  H18S21910   2.992   1.552   4.378  0.1435  0.2476 -0.3176
  190SAPI  C21921911   2.803   1.500   4.458 -0.9729  0.5525  0.6362
  190SAPI  H19R21912   2.768   1.593   4.509  0.1965  1.3387  0.0374
  190SAPI  H19S21913   2.755   1.420   4.519 -1.6617  0.0567 -0.5293
  190SAPI  C22021914   2.744   1.480   4.316 -0.3667 -0.3919  0.1632
  190SAPI  H20R21915   2.779   1.381   4.280 -1.6159 -0.2771 -1.4843
  190SAPI  H20S21916   2.787   1.555   4.246 -1.5406 -1.8473 -2.2616
  190SAPI  H20T21917   2.634   1.495   4.315 -0.1481  1.5236  1.2489
  190SAPI   C3321918   2.335   1.703   5.972 -0.2866 -0.2942 -0.2926
  190SAPI   H3X21919   2.434   1.747   5.950 -0.0628 -2.0030 -3.0729
  190SAPI   H3Y21920   2.277   1.791   6.007  0.1702 -0.7487  1.7608
  190SAPI   C3421921   2.254   1.662   5.849 -0.0597  0.4816 -0.0148
  190SAPI   H4X21922   2.305   1.581   5.793  0.4983  0.1435  0.9615
  190SAPI   H4Y21923   2.246   1.759   5.794  0.8269  1.3635  1.3474
  190SAPI   C3521924   2.115   1.606   5.880  0.1581  0.6707 -0.4501
  190SAPI   H5X21925   2.072   1.662   5.966  2.6233  1.0851  0.6009
  190SAPI   H5Y21926   2.135   1.500   5.908  1.1616  1.0332  0.2525
  190SAPI   C3621927   2.016   1.617   5.765  0.4802  0.1855 -0.2840
  190SAPI   H6X21928   1.981   1.723   5.776  1.6136  0.4890  0.5872
  190SAPI   H6Y21929   1.926   1.562   5.799  1.7894 -2.1939 -0.4992
  190SAPI   C3721930   2.049   1.573   5.620 -0.5577 -0.0406 -0.5517
  190SAPI   H7X21931   2.071   1.465   5.634 -2.2730 -0.3108  0.3515
  190SAPI   H7Y21932   2.131   1.635   5.579 -1.0012  1.1095  0.2344
  190SAPI   C3821933   1.923   1.593   5.530 -0.1164 -1.0846  0.1852
  190SAPI   H8X21934   1.883   1.695   5.550 -2.2207 -1.7145 -0.5768
  190SAPI   H8Y21935   1.836   1.526   5.543 -0.6122 -0.1394  2.1054
  190SAPI   C3921936   1.961   1.590   5.377 -0.3728 -0.1107  0.3060
  190SAPI   H9X21937   2.022   1.502   5.349  0.0723 -0.0082  0.9017
  190SAPI   H9Y21938   2.018   1.685   5.365 -1.7828  1.0142  1.9870
  190SAPI  C31021939   1.846   1.593   5.282 -0.2294 -0.7808 -0.1749
  190SAPI  H10X21940   1.782   1.682   5.302 -0.0591 -1.0263  1.5754
  190SAPI  H10Y21941   1.782   1.503   5.296  1.4060 -2.2648 -1.7460
  190SAPI  C31121942   1.883   1.599   5.136  0.1739 -0.4740 -0.1616
  190SAPI  H11X21943   1.927   1.501   5.107 -1.5255 -0.7779 -1.9285
  190SAPI  H11Y21944   1.953   1.679   5.105  0.0542 -0.5328 -0.5933
  190SAPI  C31221945   1.759   1.598   5.046  0.6994  0.5882 -0.4473
  190SAPI  H12X21946   1.686   1.668   5.091 -0.3406 -2.6274  3.5157
  190SAPI  H12Y21947   1.713   1.497   5.054 -0.2803  1.1849  2.5383
  190SAPI  C31321948   1.798   1.626   4.899 -0.1148  0.1898  0.3092
  190SAPI  H13X21949   1.718   1.583   4.835 -1.6282  0.3059  2.0196
  190SAPI  H13Y21950   1.894   1.582   4.867 -1.0882 -2.7591  1.1497
  190SAPI  C31421951   1.782   1.779   4.869 -0.6506 -0.4264  0.3802
  190SAPI  H14X21952   1.879   1.820   4.905 -0.2800 -0.8364 -0.1351
  190SAPI  H14Y21953   1.696   1.818   4.927 -0.8493 -0.7134  0.2817
  190SAPI  C31521954   1.747   1.813   4.724  0.1620 -0.5839  0.2175
  190SAPI  H15X21955   1.750   1.924   4.715 -0.5961 -0.6589 -1.3321
  190SAPI  H15Y21956   1.641   1.789   4.705 -0.2984 -1.1206  2.9683
  190SAPI  C31621957   1.849   1.761   4.620 -0.1737  0.2659 -0.6849
  190SAPI  H16X21958   1.832   1.651   4.622 -0.9579  0.3819  1.2776
  190SAPI  H16Y21959   1.950   1.787   4.659 -0.7741  0.6396  0.6415
  190SAPI  C31721960   1.833   1.817   4.481 -0.1186  0.2178 -0.1059
  190SAPI  H17X21961   1.909   1.767   4.418  0.0589 -0.2717  0.4940
  190SAPI  H17Y21962   1.849   1.926   4.498 -0.6734  0.1202  1.0752
  190SAPI  C31821963   1.686   1.798   4.431 -0.1245 -0.8396 -0.7547
  190SAPI  H18X21964   1.672   1.688   4.415  0.3827 -1.1035  0.4980
  190SAPI  H18Y21965   1.675   1.858   4.339 -0.7580  1.0737  0.5181
  190SAPI  H18Z21966   1.606   1.839   4.496 -0.1364 -2.4287  0.3066
  191SAPI   C1221967   4.717   3.931   1.899 -0.1795 -0.0683  0.4436
  191SAPI    H221968   4.611   3.901   1.916 -0.0807 -0.9670 -0.4966
  191SAPI    O221969   4.740   3.918   1.756 -0.1694  0.0803  0.7098
  191SAPI   HO221970   4.676   3.863   1.709 -1.8153  2.5780 -0.1593
  191SAPI   C1321971   4.741   4.078   1.943 -0.0079  0.6689  0.7223
  191SAPI    H321972   4.736   4.088   2.054 -1.5552  1.2674  0.6191
  191SAPI    O321973   4.651   4.175   1.902  0.5025  0.2740  0.4107
  191SAPI   HO321974   4.649   4.175   1.806 -1.2276  0.3862  0.4041
  191SAPI   C1421975   4.878   4.114   1.887  0.5830 -0.5608  0.3661
  191SAPI    H421976   4.858   4.115   1.778  0.4607  0.3797  0.3891
  191SAPI    O421977   4.930   4.246   1.913  0.1761  0.3138  1.1091
  191SAPI   HO421978   5.004   4.240   1.974  1.2532 -0.7768 -0.2246
  191SAPI   C1521979   4.990   4.019   1.916  0.2784 -0.5592  0.2903
  191SAPI    H521980   5.041   4.054   2.008  3.3717 -0.3158 -1.3943
  191SAPI    O521981   5.092   4.023   1.813  0.2606 -0.3739 -0.5795
  191SAPI   HO521982   5.069   3.965   1.739 -0.2552 -1.0091  0.0676
  191SAPI   C1621983   4.952   3.875   1.951 -0.6675  0.5518  0.0620
  191SAPI    H621984   4.978   3.814   1.863  0.9344  0.0758  0.8182
  191SAPI    O621985   5.043   3.819   2.043 -0.0315 -0.2586  0.2090
  191SAPI   HO621986   5.034   3.858   2.130 -0.9630 -1.5341  0.7254
  191SAPI   C1121987   4.810   3.841   1.975 -0.2191 -0.2633 -0.8884
  191SAPI    H121988   4.786   3.860   2.082 -0.8391 -0.4247 -0.9911
  191SAPI     P21989   4.691   3.601   2.021 -0.0732 -0.1383 -0.1956
  191SAPI   O1321990   4.641   3.500   1.926  1.0349  0.0475 -0.1396
  191SAPI   O1421991   4.591   3.686   2.094  0.0817  0.0059 -0.0639
  191SAPI   O1221992   4.792   3.701   1.937  0.2789  0.0684  0.0226
  191SAPI   O1121993   4.790   3.531   2.132  0.4956 -0.0129 -0.3290
  191SAPI    C121994   4.769   3.564   2.271  0.5044 -0.1521  0.0849
  191SAPI    HA21995   4.721   3.664   2.282  0.0919  0.1263 -3.2152
  191SAPI    HB21996   4.677   3.517   2.311 -1.1712  1.5155 -1.6135
  191SAPI    C221997   4.894   3.545   2.362  0.7113  0.6421 -0.4225
  191SAPI    HS21998   4.965   3.623   2.326  2.1115 -0.5692 -0.3844
  191SAPI   O2121999   4.964   3.414   2.336 -0.0375  0.1397  0.5052
  191SAPI   C2122000   5.090   3.413   2.363 -0.0417 -0.2261 -0.3569
  191SAPI   O2222001   5.162   3.510   2.387 -0.6488 -0.2294 -0.2818
  191SAPI   C2222002   5.141   3.272   2.349 -0.0653  0.5217  0.9151
  191SAPI   H2R22003   5.064   3.203   2.390 -0.7913 -0.9179 -2.5150
  191SAPI   H2S22004   5.146   3.249   2.241  1.0026  1.2137  0.7953
  191SAPI    C322005   4.857   3.566   2.514 -0.4619  0.2905  0.0157
  191SAPI    HX22006   4.787   3.483   2.538  1.0630 -1.1353 -0.3236
  191SAPI    HY22007   4.805   3.664   2.522  1.2145  1.3243 -1.1243
  191SAPI   O3122008   4.972   3.553   2.608 -0.2535  0.0957 -0.0797
  191SAPI   C3122009   5.043   3.663   2.628 -0.3402 -0.0053 -0.2621
  191SAPI   O3222010   5.014   3.771   2.585  0.2051 -0.4603  0.1852
  191SAPI   C3222011   5.162   3.631   2.708 -0.7034  0.4891  0.1415
  191SAPI   H2X22012   5.218   3.726   2.720  1.0735 -0.5977  0.9868
  191SAPI   H2Y22013   5.211   3.550   2.649 -2.3293  0.5256 -1.3224
  191SAPI   C2322014   5.287   3.249   2.399 -0.1114 -0.4520  0.1301
  191SAPI   H3R22015   5.299   3.314   2.488 -6.1828  2.6361 -0.7365
  191SAPI   H3S22016   5.354   3.273   2.314 -0.1843  2.1664  0.7477
  191SAPI   C2422017   5.311   3.099   2.438 -0.2168 -0.2832  0.7014
  191SAPI   H4R22018   5.280   3.040   2.349 -0.8340 -0.4373  1.0183
  191SAPI   H4S22019   5.229   3.068   2.506  1.0318 -0.4013  2.2080
  191SAPI   C2522020   5.447   3.059   2.484  0.1910  0.1832 -0.2969
  191SAPI   H5R22021   5.515   3.030   2.402  0.3629  0.9569 -0.4332
  191SAPI   C2622022   5.487   3.053   2.617  0.2256 -0.3190  0.3512
  191SAPI   H6R22023   5.591   3.031   2.646  0.6115  0.7458 -0.1676
  191SAPI   C2722024   5.400   3.102   2.730  0.4548  0.4453 -0.1121
  191SAPI   H7R22025   5.293   3.118   2.705  1.1511  0.9715 -3.0107
  191SAPI   H7S22026   5.437   3.204   2.755 -0.4626  0.8770 -0.5002
  191SAPI   C2822027   5.423   3.009   2.841 -0.1790  0.1781 -0.8002
  191SAPI   H8R22028   5.388   2.905   2.832  0.6843 -0.0725 -1.3664
  191SAPI   C2922029   5.496   3.036   2.958 -0.3085 -0.6593  0.2341
  191SAPI   H9R22030   5.515   2.956   3.030  1.3807  1.2270  2.0389
  191SAPI  C21022031   5.564   3.164   2.995 -0.0274  0.8334  0.0142
  191SAPI  H10R22032   5.488   3.230   3.042  1.7691  1.6650  1.9378
  191SAPI  H10S22033   5.587   3.220   2.902  0.1472 -2.3899 -2.0473
  191SAPI  C21122034   5.701   3.149   3.069  0.7522  0.0453  0.3866
  191SAPI  H11R22035   5.784   3.102   3.013  0.7470 -0.3450  0.6998
  191SAPI  C21222036   5.727   3.183   3.195  0.5976 -0.1398 -0.4654
  191SAPI  H12R22037   5.825   3.160   3.240 -1.5752 -3.9902  2.9662
  191SAPI  C21322038   5.626   3.254   3.288 -0.5587 -0.8178  0.1998
  191SAPI  H13R22039   5.571   3.170   3.334 -0.9965  0.3245  1.8644
  191SAPI  H13S22040   5.543   3.311   3.241  0.5720  1.9795  1.3275
  191SAPI  C21422041   5.674   3.345   3.393 -0.1411  0.3750  0.4087
  191SAPI  H14R22042   5.782   3.366   3.382 -0.3527  0.3973 -2.3083
  191SAPI  C21522043   5.597   3.392   3.495 -0.0890  0.4579 -0.0964
  191SAPI  H15R22044   5.635   3.469   3.563  2.1435 -0.7482  0.0970
  191SAPI  C21622045   5.447   3.372   3.515  0.4477  0.5225  0.1880
  191SAPI  H16R22046   5.413   3.305   3.433  1.4274  1.8071 -1.3445
  191SAPI  H16S22047   5.390   3.466   3.499 -1.3725 -0.9755 -3.3940
  191SAPI  C21722048   5.424   3.314   3.658  0.4866  0.8191  0.2937
  191SAPI  H17R22049   5.470   3.216   3.682  1.2313  1.2280  0.5582
  191SAPI  H17S22050   5.315   3.292   3.665  0.6465 -0.5652 -1.1702
  191SAPI  C21822051   5.466   3.399   3.778 -0.0826  0.0457 -0.5577
  191SAPI  H18R22052   5.575   3.416   3.766  0.3232 -1.0790  1.1107
  191SAPI  H18S22053   5.474   3.336   3.870  2.3533  0.9252 -0.0806
  191SAPI  C21922054   5.396   3.532   3.810  0.0584  0.5148 -0.2587
  191SAPI  H19R22055   5.409   3.606   3.728  1.9281  0.8470  0.2844
  191SAPI  H19S22056   5.454   3.578   3.894  2.0563 -0.0899 -1.2530
  191SAPI  C22022057   5.251   3.507   3.841  0.3911 -0.0606  0.1627
  191SAPI  H20R22058   5.221   3.445   3.928 -2.2705  1.2774  0.3096
  191SAPI  H20S22059   5.217   3.445   3.755  2.1970 -0.0818 -0.5935
  191SAPI  H20T22060   5.196   3.603   3.848  0.2293 -0.1871  0.6667
  191SAPI   C3322061   5.134   3.582   2.852 -0.4006 -0.0860 -0.1584
  191SAPI   H3X22062   5.221   3.526   2.893 -1.7605 -0.4607  2.3901
  191SAPI   H3Y22063   5.049   3.510   2.851 -0.5948  0.1402 -0.1335
  191SAPI   C3422064   5.102   3.705   2.940  0.4385 -0.4855  0.0456
  191SAPI   H4X22065   5.032   3.782   2.901  1.8136  0.7914  0.0382
  191SAPI   H4Y22066   5.198   3.760   2.938  0.6667 -0.8821 -1.7403
  191SAPI   C3522067   5.068   3.659   3.077  0.1129 -0.5504 -0.0145
  191SAPI   H5X22068   5.158   3.612   3.122 -0.3039 -1.3270  0.0212
  191SAPI   H5Y22069   4.992   3.578   3.086  0.5483 -0.7412  2.5437
  191SAPI   C3622070   5.023   3.773   3.166 -0.3400  0.3693  0.4259
  191SAPI   H6X22071   4.918   3.802   3.145 -1.4630 -1.6464  2.7943
  191SAPI   H6Y22072   5.089   3.861   3.149 -1.0837  0.3022 -3.6793
  191SAPI   C3722073   5.041   3.731   3.315 -0.0353 -1.1111 -0.4008
  191SAPI   H7X22074   5.144   3.692   3.330 -0.4703 -1.8109  0.9156
  191SAPI   H7Y22075   4.967   3.653   3.343 -1.2831  0.9167  2.5044
  191SAPI   C3822076   5.011   3.844   3.416  0.5149  0.5117  0.0830
  191SAPI   H8X22077   4.916   3.899   3.402  0.2060  0.2331  1.0122
  191SAPI   H8Y22078   5.085   3.926   3.410  1.6283 -0.3969  0.8899
  191SAPI   C3922079   5.001   3.790   3.561  0.0805  0.4812 -0.8816
  191SAPI   H9X22080   5.094   3.733   3.581 -0.5453 -0.7065 -1.2906
  191SAPI   H9Y22081   4.919   3.716   3.559 -2.0489  2.5844  1.5878
  191SAPI  C31022082   4.979   3.899   3.664 -0.0898 -0.4945 -0.0428
  191SAPI  H10X22083   4.888   3.953   3.628 -0.7761 -2.0741 -0.7661
  191SAPI  H10Y22084   5.067   3.966   3.662  0.3650 -1.0982 -0.8967
  191SAPI  C31122085   4.960   3.839   3.803  0.0400  0.4559  0.0311
  191SAPI  H11X22086   5.032   3.755   3.817 -0.9400 -0.2162  1.2701
  191SAPI  H11Y22087   4.860   3.791   3.802 -0.8973  2.3215 -0.4932
  191SAPI  C31222088   4.987   3.925   3.927  0.1028 -0.2057  0.0372
  191SAPI  H12X22089   4.912   4.004   3.905  1.0695  0.1586 -2.1983
  191SAPI  H12Y22090   5.085   3.977   3.925 -0.3663  0.6870 -1.5310
  191SAPI  C31322091   4.963   3.856   4.063 -0.1744 -0.4258  0.0801
  191SAPI  H13X22092   5.025   3.765   4.073  2.1152  1.1958  1.4854
  191SAPI  H13Y22093   4.856   3.829   4.076 -0.8581  1.0684 -1.9306
  191SAPI  C31422094   5.019   3.936   4.181  1.2767 -0.0945  0.6807
  191SAPI  H14X22095   4.991   4.040   4.157  2.9304  0.0588 -0.7441
  191SAPI  H14Y22096   5.129   3.945   4.177  1.4428 -0.8943  2.3369
  191SAPI  C31522097   4.967   3.883   4.319  0.4555  0.0558 -0.2106
  191SAPI  H15X22098   5.018   3.945   4.395 -0.1233  0.4258 -0.1197
  191SAPI  H15Y22099   5.009   3.780   4.329 -1.9022 -1.0426 -0.7578
  191SAPI  C31622100   4.815   3.890   4.357  0.2607  0.3424  0.4957
  191SAPI  H16X22101   4.813   3.875   4.467 -0.0404 -0.3998  0.3943
  191SAPI  H16Y22102   4.752   3.809   4.316 -0.4988 -0.2208  2.6319
  191SAPI  C31722103   4.756   4.022   4.327 -0.0268 -0.6808 -0.1031
  191SAPI  H17X22104   4.763   4.052   4.220 -0.8037 -1.0147 -0.2582
  191SAPI  H17Y22105   4.820   4.088   4.389 -0.0243  1.7590 -2.5155
  191SAPI  C31822106   4.605   4.038   4.364 -0.0016  0.0324  0.5691
  191SAPI  H18X22107   4.583   4.035   4.473 -3.0075 -0.4046  0.0294
  191SAPI  H18Y22108   4.556   3.951   4.317  0.7389  0.8899 -1.9453
  191SAPI  H18Z22109   4.564   4.129   4.315  0.2984 -0.9734 -1.6824
  192SAPI   C1222110   1.575   0.616   1.926 -0.3846  0.5678 -0.6673
  192SAPI    H222111   1.514   0.708   1.920  0.1396  1.2406  2.4979
  192SAPI    O222112   1.506   0.515   1.851  0.5410 -0.0865  0.0302
  192SAPI   HO222113   1.496   0.548   1.761  3.1625 -0.8399 -0.6196
  192SAPI   C1322114   1.715   0.667   1.870  0.0075  0.5031 -0.4406
  192SAPI    H322115   1.752   0.753   1.930  0.5517 -0.1253  0.1439
  192SAPI    O322116   1.691   0.718   1.743  0.6840  0.1247 -0.3293
  192SAPI   HO322117   1.777   0.733   1.704  1.1633 -2.5657 -0.5592
  192SAPI   C1422118   1.819   0.562   1.870 -0.8035 -0.3048 -0.3951
  192SAPI    H422119   1.810   0.490   1.786  0.7780 -1.7226  0.5889
  192SAPI    O422120   1.951   0.621   1.857 -0.4685  0.1244 -0.1731
  192SAPI   HO422121   1.959   0.709   1.894 -0.2574 -0.6529  1.7920
  192SAPI   C1522122   1.817   0.464   1.995  0.3512 -0.5261  0.3557
  192SAPI    H522123   1.903   0.502   2.055  0.9844  0.0413 -0.8774
  192SAPI    O522124   1.863   0.334   1.957  0.0653  0.1483 -0.2708
  192SAPI   HO522125   1.946   0.318   2.004  0.3435 -0.7143 -1.0221
  192SAPI   C1622126   1.691   0.453   2.088 -0.1886 -0.1322 -0.1410
  192SAPI    H622127   1.631   0.370   2.046 -1.9017  0.7598  0.4309
  192SAPI    O622128   1.714   0.414   2.222  0.2034  0.2025 -0.6351
  192SAPI   HO622129   1.628   0.399   2.263  0.0395 -0.3029 -1.1537
  192SAPI   C1122130   1.593   0.573   2.076  0.1004 -0.7446  0.2175
  192SAPI    H122131   1.640   0.662   2.123 -2.3052  0.4168  0.5580
  192SAPI     P22132   1.390   0.674   2.195  0.2855  0.1930 -0.2455
  192SAPI   O1322133   1.245   0.663   2.173  0.0311 -0.5114  0.6576
  192SAPI   O1422134   1.452   0.797   2.146 -0.2719 -0.7894 -0.2031
  192SAPI   O1222135   1.470   0.546   2.137  0.4468  0.3719  0.1879
  192SAPI   O1122136   1.405   0.664   2.350  0.6326  0.2271 -0.0003
  192SAPI    C122137   1.436   0.544   2.420  0.4058 -0.5104 -0.1513
  192SAPI    HA22138   1.378   0.454   2.392  0.0960 -0.8538  1.4852
  192SAPI    HB22139   1.539   0.505   2.405  1.2255  1.4703  0.0021
  192SAPI    C222140   1.421   0.570   2.568  0.0075 -0.2552 -0.6257
  192SAPI    HS22141   1.470   0.667   2.589 -1.6821  0.6675 -0.8099
  192SAPI   O2122142   1.480   0.461   2.641 -0.2993 -0.0119 -0.1820
  192SAPI   C2122143   1.614   0.456   2.648  0.0003 -0.4870 -0.0047
  192SAPI   O2222144   1.690   0.535   2.602 -0.6380  0.0572  0.6117
  192SAPI   C2222145   1.643   0.319   2.709  0.6246  0.0625  0.2619
  192SAPI   H2R22146   1.561   0.285   2.775  0.5638  2.1408  1.3386
  192SAPI   H2S22147   1.650   0.249   2.623  2.5079  1.2055 -0.5935
  192SAPI    C322148   1.271   0.564   2.603 -0.0465  0.4682 -0.6420
  192SAPI    HX22149   1.232   0.461   2.588  1.0888  0.0101 -0.5479
  192SAPI    HY22150   1.212   0.624   2.531  0.6063  0.4040 -1.2421
  192SAPI   O3122151   1.253   0.618   2.740 -0.3451  0.4218  0.1994
  192SAPI   C3122152   1.129   0.622   2.796 -0.0440  0.7305  0.1309
  192SAPI   O3222153   1.025   0.599   2.742  0.6852 -0.1816 -0.0260
  192SAPI   C3222154   1.143   0.654   2.945 -0.5509  0.2336  0.8295
  192SAPI   H2X22155   1.235   0.717   2.950 -0.2564 -0.0700 -0.5633
  192SAPI   H2Y22156   1.160   0.566   3.011 -0.9445  0.6957  1.5707
  192SAPI   C2322157   1.764   0.317   2.808  0.4963 -0.6584  0.2478
  192SAPI   H3R22158   1.756   0.409   2.869  1.2956  0.6786 -1.5546
  192SAPI   H3S22159   1.854   0.334   2.746 -0.2177  1.7123 -0.2374
  192SAPI   C2422160   1.778   0.196   2.898 -0.6040  0.5017 -0.6600
  192SAPI   H4R22161   1.823   0.117   2.835 -1.2765  0.6958 -1.3937
  192SAPI   H4S22162   1.678   0.164   2.935 -0.7630  2.2940  0.6244
  192SAPI   C2522163   1.877   0.224   3.007  0.1242 -0.8115  0.9241
  192SAPI   H5R22164   1.958   0.285   2.964 -1.1125 -0.6063 -1.2486
  192SAPI   C2622165   1.874   0.190   3.139 -0.4355  0.8011  0.3824
  192SAPI   H6R22166   1.952   0.227   3.206 -0.5191  0.2282  0.8018
  192SAPI   C2722167   1.759   0.105   3.194 -0.3876  0.2760 -0.1997
  192SAPI   H7R22168   1.661   0.136   3.151  0.3062  0.8740 -1.3918
  192SAPI   H7S22169   1.740   0.127   3.301 -1.1094 -0.4492 -0.1680
  192SAPI   C2822170   1.782  -0.041   3.163  0.3408  0.6351 -0.0615
  192SAPI   H8R22171   1.807  -0.064   3.058  0.3308  0.6319 -0.0631
  192SAPI   C2922172   1.783  -0.139   3.256 -0.0427  0.0792  0.4159
  192SAPI   H9R22173   1.781  -0.240   3.212 -2.3984  0.8812 -1.5786
  192SAPI  C21022174   1.723  -0.124   3.393 -0.1662 -0.2473 -0.0968
  192SAPI  H10R22175   1.624  -0.073   3.387 -0.0110  0.0500 -0.1555
  192SAPI  H10S22176   1.788  -0.046   3.438  1.3199 -0.7061 -1.3557
  192SAPI  C21122177   1.707  -0.256   3.471 -0.1689  0.2234  0.6230
  192SAPI  H11R22178   1.661  -0.341   3.419  0.0123 -0.2758  1.2755
  192SAPI  C21222179   1.747  -0.271   3.596  0.3577  0.2454 -0.0538
  192SAPI  H12R22180   1.745  -0.374   3.634  2.6241 -0.8635 -2.6306
  192SAPI  C21322181   1.814  -0.167   3.685 -0.5220 -0.2949  0.3302
  192SAPI  H13R22182   1.745  -0.080   3.690  1.0054  1.3097 -2.8931
  192SAPI  H13S22183   1.900  -0.116   3.636 -0.8805  1.2573  1.2262
  192SAPI  C21422184   1.856  -0.230   3.814 -0.0173  0.5584 -0.2670
  192SAPI  H14R22185   1.917  -0.320   3.799  0.5433  1.1180 -1.5339
  192SAPI  C21522186   1.839  -0.178   3.933  0.0805 -0.5174  0.3807
  192SAPI  H15R22187   1.872  -0.234   4.021 -0.0686  0.4150  1.0405
  192SAPI  C21622188   1.773  -0.046   3.971  0.0006 -0.0232  0.2401
  192SAPI  H16R22189   1.718  -0.004   3.884  3.0544 -2.3304 -3.0787
  192SAPI  H16S22190   1.859   0.024   3.975  0.3798 -0.1424 -3.1361
  192SAPI  C21722191   1.697  -0.065   4.105 -0.3030 -0.2285  0.7130
  192SAPI  H17R22192   1.636  -0.158   4.105 -1.1335  0.2723 -1.1051
  192SAPI  H17S22193   1.626   0.020   4.119 -0.5602 -0.2485 -0.4166
  192SAPI  C21822194   1.791  -0.071   4.224 -0.3607 -0.1503  0.3699
  192SAPI  H18R22195   1.850  -0.164   4.211 -0.6672 -0.2716 -0.1694
  192SAPI  H18S22196   1.731  -0.098   4.314  1.4163 -1.4166  1.2235
  192SAPI  C21922197   1.879   0.052   4.250  0.2781 -0.9535  0.8117
  192SAPI  H19R22198   1.815   0.143   4.242 -0.5624 -1.6767 -1.9477
  192SAPI  H19S22199   1.947   0.058   4.163 -0.9863  1.0745 -0.1360
  192SAPI  C22022200   1.960   0.053   4.382 -0.2480  0.1588  0.4865
  192SAPI  H20R22201   2.035   0.134   4.371 -1.8939  1.5557 -1.2432
  192SAPI  H20S22202   2.011  -0.045   4.391 -0.8567 -0.3812 -1.4117
  192SAPI  H20T22203   1.901   0.082   4.472  0.2410 -1.6400  1.4196
  192SAPI   C3322204   1.030   0.742   2.991 -0.6759  0.1401 -0.0332
  192SAPI   H3X22205   0.935   0.686   3.003 -0.7548  0.3515  0.3319
  192SAPI   H3Y22206   0.991   0.799   2.904 -1.0445 -0.1064 -0.0342
  192SAPI   C3422207   1.064   0.837   3.107 -0.0081  0.0501  0.1013
  192SAPI   H4X22208   0.993   0.921   3.118  1.0794  0.9148  0.7347
  192SAPI   H4Y22209   1.165   0.881   3.090  0.8805 -1.1643  1.9033
  192SAPI   C3522210   1.064   0.777   3.246  0.1556 -0.5733  0.6945
  192SAPI   H5X22211   1.128   0.687   3.261  1.1224  0.1958  1.3177
  192SAPI   H5Y22212   0.961   0.746   3.272 -0.1451 -0.3479 -0.1823
  192SAPI   C3622213   1.099   0.882   3.351  0.7546  0.0831 -0.1428
  192SAPI   H6X22214   1.032   0.970   3.339 -0.3068 -0.9304 -2.0637
  192SAPI   H6Y22215   1.198   0.928   3.326  0.6944 -1.1310 -3.0059
  192SAPI   C3722216   1.095   0.835   3.496 -0.2111 -0.3426  1.1076
  192SAPI   H7X22217   1.191   0.783   3.518 -0.0069 -0.8677 -0.8399
  192SAPI   H7Y22218   1.009   0.769   3.517 -0.5481 -0.0682  0.6205
  192SAPI   C3822219   1.082   0.945   3.603 -0.2253 -0.1366  0.0173
  192SAPI   H8X22220   0.989   1.003   3.580 -1.2426 -1.6922  0.0572
  192SAPI   H8Y22221   1.167   1.012   3.580  0.5419 -1.3448 -0.7736
  192SAPI   C3922222   1.091   0.901   3.747 -0.0048 -0.2717  0.2447
  192SAPI   H9X22223   1.177   0.832   3.760  0.7658  0.3403 -1.2541
  192SAPI   H9Y22224   1.001   0.847   3.780  0.5211 -0.7601  0.9132
  192SAPI  C31022225   1.111   1.020   3.837 -0.0327  0.0002 -0.0184
  192SAPI  H10X22226   1.175   1.090   3.778  2.4208 -1.4579  0.7850
  192SAPI  H10Y22227   1.157   0.980   3.930  3.3440 -1.8832 -2.3012
  192SAPI  C31122228   0.980   1.089   3.878  0.0082  0.9282 -0.2561
  192SAPI  H11X22229   0.910   1.020   3.931  1.2750  1.2628  1.9276
  192SAPI  H11Y22230   0.932   1.124   3.784 -2.2260  2.9907  1.5272
  192SAPI  C31222231   1.003   1.195   3.986  0.3693 -0.6629 -0.1678
  192SAPI  H12X22232   1.066   1.279   3.951 -0.7859  0.7885  1.1056
  192SAPI  H12Y22233   1.052   1.141   4.070  0.4461 -0.1798  0.0980
  192SAPI  C31322234   0.871   1.255   4.030  0.3334 -0.0333 -0.1960
  192SAPI  H13X22235   0.796   1.176   4.047  0.8539 -0.7667 -1.1688
  192SAPI  H13Y22236   0.827   1.309   3.943  2.7702 -0.6120 -1.9159
  192SAPI  C31422237   0.875   1.348   4.148 -0.0939  0.0954 -0.6553
  192SAPI  H14X22238   0.909   1.447   4.110  0.7250  1.6196  3.5359
  192SAPI  H14Y22239   0.937   1.304   4.229  0.4979  1.1911 -0.4848
  192SAPI  C31522240   0.724   1.360   4.211 -0.1667  0.0481  0.2867
  192SAPI  H15X22241   0.689   1.272   4.269 -2.9576  1.4722  0.9282
  192SAPI  H15Y22242   0.664   1.372   4.118  0.3373 -2.6709 -0.4771
  192SAPI  C31622243   0.716   1.483   4.297  0.1783  0.2309 -0.1396
  192SAPI  H16X22244   0.608   1.499   4.319  0.1289  0.0935 -0.2847
  192SAPI  H16Y22245   0.737   1.566   4.226  1.0495 -0.0585 -0.2278
  192SAPI  C31722246   0.800   1.494   4.432 -0.1926 -0.3623  0.4456
  192SAPI  H17X22247   0.907   1.500   4.402 -0.4743 -1.3380 -0.8318
  192SAPI  H17Y22248   0.786   1.393   4.476  2.7926 -1.6974 -1.3576
  192SAPI  C31822249   0.761   1.608   4.522 -0.4525 -0.0257 -0.0437
  192SAPI  H18X22250   0.659   1.588   4.560 -0.2490  0.7366  0.9557
  192SAPI  H18Y22251   0.769   1.706   4.469  1.4230 -0.1690 -0.0811
  192SAPI  H18Z22252   0.825   1.621   4.611 -0.9054  1.7570  0.0557
  193SOD    SOD22253   3.843   4.859   6.573 -0.0031 -0.1023  0.0193
  194SOD    SOD22254   2.944   6.721   2.070  0.4181  0.0950 -0.1648
  195SOD    SOD22255   5.828   5.510   1.547  0.3204 -0.0474 -0.0763
  196SOD    SOD22256   1.417   1.062   8.265  0.2483 -0.0733 -0.5173
  197SOD    SOD22257   6.806   1.409   6.564 -0.1027 -0.4040  0.0196
  198SOD    SOD22258   3.066   1.816   7.285  0.2451 -0.3562  0.4412
  199SOD    SOD22259   5.262   2.295   1.559  0.2612 -0.0897  0.3569
  200SOD    SOD22260   2.752   4.745   1.285 -0.5812 -0.0754 -0.1998
  201SOD    SOD22261   4.518   3.085   7.685  0.3199 -0.1783  0.0679
  202SOD    SOD22262   2.071   3.923   7.415  0.0470 -0.2455  0.1951
  203SOD    SOD22263   2.348   0.789   6.762 -0.6335 -0.5462 -0.4445
  204SOD    SOD22264   3.067   5.350   6.662  0.3965  0.4640  0.1805
  205SOD    SOD22265   6.077   0.050   6.511 -0.1701  0.0938  0.0219
  206SOD    SOD22266   4.448   1.408   6.682  0.6233 -0.3145 -0.6042
  207SOD    SOD22267   4.215   2.356   0.864 -0.3775  0.1426 -0.0695
  208SOD    SOD22268   3.370   0.736   1.417 -0.0900  0.3030 -0.3534
  209SOD    SOD22269   2.335   4.311   8.131  0.4082  0.6029 -0.1432
  210SOD    SOD22270   2.127   5.731   8.187 -0.0623 -0.5460 -0.4212
  211SOD    SOD22271   2.309   6.510   1.752  0.1587 -0.4525 -0.5688
  212SOD    SOD22272   1.555   6.704   7.360 -0.2818 -0.2723  0.4257
  213SOD    SOD22273   5.297   5.841   0.836  0.2259 -0.2769  0.2052
  214SOD    SOD22274   3.923   3.955   1.865 -0.0451  0.5807  0.4636
  215SOD    SOD22275   5.070   4.803   6.842  0.3144  0.2185 -0.3310
  216SOD    SOD22276   3.615   1.825   6.529  0.0346  0.1970  0.4292
  217SOD    SOD22277   5.705   4.262   8.650  0.2792  0.3653  0.0004
  218SOD    SOD22278   1.262   3.204   7.573 -0.0786  0.3037  0.0400
  219SOD    SOD22279   6.168   6.473   6.391  0.1385  0.2447 -0.1986
  220SOD    SOD22280   1.554   3.994   2.597 -0.1382 -0.2905 -0.0558
  221SOD    SOD22281   1.217   1.924   7.389  0.6918 -0.2296 -0.1239
  222SOD    SOD22282   0.554   4.210   1.544 -0.3623 -0.0426  0.4194
  223SOD    SOD22283   3.642   6.109   7.279  0.3978 -0.0936 -0.2026
  224SOD    SOD22284   0.666   0.597   8.529  0.1748 -0.3885 -0.2991
  225SOD    SOD22285   5.674   0.003   2.386  0.2584 -0.4679  0.5356
  226SOD    SOD22286   1.007   2.490   2.070 -0.6481  0.2075 -0.3341
  227SOD    SOD22287   5.374   1.667   8.194 -0.6626  0.6483 -0.0179
  228SOD    SOD22288   1.713   1.626   0.626 -0.1594 -0.3234 -0.5281
  229SOD    SOD22289   6.471   3.731   0.026  0.2598 -0.3425  0.3223
  230SOD    SOD22290   3.795   0.251   7.844 -0.1763 -0.2435  0.5582
  231SOD    SOD22291   6.817   2.835   7.079 -0.4047 -0.3015 -0.3502
  232SOD    SOD22292   6.767   0.073   1.524 -0.1626 -0.4273  0.4492
  233SOD    SOD22293   3.034   6.614   6.673  0.2620  0.5603  0.7157
  234CLA    CLA22294   6.284   5.014   7.629 -0.2646  0.0148  0.2785
  235CLA    CLA22295   4.559   0.911   0.994 -0.0013  0.1608 -0.2281
  236CLA    CLA22296   2.199   3.088   7.557  0.0753 -0.2973  0.2546
  237CLA    CLA22297   5.604   5.001   6.948 -0.4270 -0.1710  0.2096
  238CLA    CLA22298   2.170   5.338   0.171  0.0725  0.0046 -0.4853
  239CLA    CLA22299   6.721   3.537   7.049 -0.5140  0.5035  0.2598
  240CLA    CLA22300   0.248   0.388   8.667 -0.1019  0.2278  0.0978
  241CLA    CLA22301   6.474   6.726   6.613 -0.0989 -0.2135  0.0693
  242CLA    CLA22302   0.536   4.575   1.303 -0.2118 -0.0019 -0.2936
  243CLA    CLA22303   4.099   6.680   7.088  0.3209  0.1331  0.0434
  244CLA    CLA22304   6.597   2.219   0.412 -0.0063  0.3040 -0.1834
  245CLA    CLA22305   5.286   0.824   0.295  0.1966 -0.4105  0.0051
  246CLA    CLA22306   1.065   6.763   7.295  0.2245 -0.1873 -0.0181
  247CLA    CLA22307   0.696   2.779   7.516 -0.0608  0.1212  0.3821
  248CLA    CLA22308   5.204   2.066   7.902  0.4857 -0.0045 -0.0442
  249CLA    CLA22309   6.405   2.259   7.432 -0.5754 -0.2103  0.0814
  250CLA    CLA22310   4.145   5.630   8.491 -0.0792 -0.2630 -0.1461
  251TIP3   OH222311   6.345   4.716   8.611 -0.0287  0.0437 -0.0068
  251TIP3    H122312   6.326   4.629   8.575  0.2415  0.4358 -1.1608
  251TIP3    H222313   6.416   4.749   8.556 -0.6531  1.3035 -0.0952
  252TIP3   OH222314   1.943   1.586   7.447  0.1057 -0.5088 -0.1604
  252TIP3    H122315   1.981   1.546   7.369  0.1368  0.4753 -0.6614
  252TIP3    H222316   1.878   1.523   7.477  1.1569 -1.6004 -0.0802
  253TIP3   OH222317   2.104   4.694   6.635  0.3081 -0.0085 -0.0182
  253TIP3    H122318   2.168   4.627   6.611 -1.4283 -2.1199  0.8422
  253TIP3    H222319   2.156   4.771   6.655  2.5448 -1.4884  0.2303
  254TIP3   OH222320   3.333   0.304   2.283  0.4110  0.3731 -0.2886
  254TIP3    H122321   3.244   0.320   2.315  0.9659 -1.2495  2.3574
  254TIP3    H222322   3.372   0.246   2.348  3.4599  1.0817 -1.3158
  255TIP3   OH222323   4.000   1.976   0.612 -0.4969  0.4804 -0.4501
  255TIP3    H122324   3.953   2.059   0.615 -2.9046 -0.7506 -1.3240
  255TIP3    H222325   3.933   1.911   0.592  1.6944 -1.3619 -2.4604
  256TIP3   OH222326   2.093   0.140   0.768 -0.1639 -0.1881 -0.2716
  256TIP3    H122327   2.163   0.154   0.832 -0.3164 -0.0809 -0.1280
  256TIP3    H222328   2.013   0.132   0.820 -0.8565  3.2360 -0.5256
  257TIP3   OH222329   0.263   1.796   0.629 -0.7931  0.7073  0.1433
  257TIP3    H122330   0.274   1.881   0.586  0.8645  0.6761  0.4242
  257TIP3    H222331   0.307   1.807   0.714 -1.1339 -0.2380  0.4517
  258TIP3   OH222332   0.785   1.318   0.543 -0.4203 -0.5635 -0.3092
  258TIP3    H122333   0.830   1.296   0.625 -1.5252 -0.8519  0.2324
  258TIP3    H222334   0.693   1.329   0.568 -0.4509  1.3804 -1.1720
  259TIP3   OH222335   5.293   6.287   1.487 -0.6299 -0.1375 -0.7431
  259TIP3    H122336   5.233   6.258   1.556  0.4322 -1.8681 -0.4867
  259TIP3    H222337   5.309   6.379   1.506 -0.1613 -0.6302  1.4883
  260TIP3   OH222338   2.440   2.596   0.667  0.2940  0.5835 -0.3599
  260TIP3    H122339   2.509   2.628   0.723  0.4697  1.1292 -0.8810
  260TIP3    H222340   2.408   2.673   0.620  0.0485  0.1686 -0.8953
  261TIP3   OH222341   4.386   2.504   0.941  0.2867  0.3814  0.0794
  261TIP3    H122342   4.339   2.534   1.019 -0.1371  0.2210 -0.1072
  261TIP3    H222343   4.474   2.484   0.971 -0.0516 -0.2864  0.6388
  262TIP3   OH222344   1.020   4.617   1.309 -0.4736 -0.7610  0.0868
  262TIP3    H122345   0.944   4.568   1.341 -0.7445 -1.1935 -1.1425
  262TIP3    H222346   1.046   4.571   1.229 -0.4327  0.8128 -0.8543
  263TIP3   OH222347   3.710   2.612   6.988 -0.0511  0.3649 -0.1802
  263TIP3    H122348   3.697   2.644   7.077 -3.6101 -1.1368  0.0232
  263TIP3    H222349   3.693   2.687   6.932 -0.3883  0.7183  0.3883
  264TIP3   OH222350   5.488   6.670   0.004 -0.8398 -0.1312 -0.3557
  264TIP3    H122351   5.519   6.761  -0.004 -1.2887 -0.0038 -0.6649
  264TIP3    H222352   5.556   6.618  -0.039 -0.5063  0.0463 -0.0432
  265TIP3   OH222353   0.014   3.840   7.313 -0.0078 -0.1785 -0.0970
  265TIP3    H122354   0.054   3.762   7.276  1.1136  0.2965  0.0450
  265TIP3    H222355   0.068   3.860   7.390 -1.1779 -0.1036  0.7364
  266TIP3   OH222356   2.156   0.536   1.704 -0.3844 -0.2128 -0.2984
  266TIP3    H122357   2.074   0.556   1.748 -0.7192  1.4785 -1.6088
  266TIP3    H222358   2.223   0.553   1.770 -0.9884  0.2116  0.2158
  267TIP3   OH222359   5.749   1.191   8.611  0.0805  0.7697  0.0122
  267TIP3    H122360   5.843   1.209   8.614  0.4333 -0.9625  0.5912
  267TIP3    H222361   5.711   1.250   8.676  0.6344  2.0680 -0.8068
  268TIP3   OH222362   3.441   3.200   6.490  0.5313 -0.3499  0.4457
  268TIP3    H122363   3.421   3.276   6.544 -1.2857 -0.1731 -0.4257
  268TIP3    H222364   3.370   3.195   6.427  1.3990 -1.9042 -0.4829
  269TIP3   OH222365   0.248   3.152   6.303 -0.1499 -0.4642  0.7830
  269TIP3    H122366   0.247   3.058   6.325 -0.8721 -0.5574  0.3859
  269TIP3    H222367   0.297   3.193   6.374  0.4954 -1.1898  0.7717
  270TIP3   OH222368   6.390   6.452   6.449  0.3549 -1.0916 -0.4348
  270TIP3    H122369   6.440   6.397   6.510 -1.5591 -1.0125  1.2903
  270TIP3    H222370   6.420   6.541   6.466  0.4967 -1.1652 -0.2959
  271TIP3   OH222371   6.505   5.662   7.270  0.0536 -0.0186 -0.2172
  271TIP3    H122372   6.593   5.700   7.277  0.2697 -0.5707  0.0861
  271TIP3    H222373   6.503   5.623   7.182  0.3003 -0.4690 -0.0252
  272TIP3   OH222374   2.780   4.381   6.898 -0.0382  0.2733  0.1456
  272TIP3    H122375   2.863   4.335   6.891 -0.1950  0.1458 -1.1032
  272TIP3    H222376   2.732   4.357   6.819 -0.7519  1.3419  0.2289
  273TIP3   OH222377   2.355   1.864   0.002 -0.4550 -0.2435  0.0646
  273TIP3    H122378   2.420   1.878  -0.066 -1.0646  1.7889 -0.1796
  273TIP3    H222379   2.271   1.869  -0.044 -0.8470 -1.7748  0.5399
  274TIP3   OH222380   1.093   5.056   0.191 -0.2911  0.4013  0.1083
  274TIP3    H122381   1.141   5.111   0.129 -0.4778  1.4720  0.8814
  274TIP3    H222382   1.005   5.048   0.153 -0.7373  1.9715  0.7229
  275TIP3   OH222383   4.817   2.796   1.372  0.1179  0.3662  0.6361
  275TIP3    H122384   4.828   2.741   1.295 -0.7799  0.3517  0.4999
  275TIP3    H222385   4.874   2.871   1.357 -0.2923  0.5298 -0.2142
  276TIP3   OH222386   0.574   3.931   7.095  0.5430  0.4492 -0.2363
  276TIP3    H122387   0.639   3.998   7.118 -0.2663  1.4818 -0.8356
  276TIP3    H222388   0.530   3.966   7.018  1.8432 -2.0081 -2.2238
  277TIP3   OH222389   0.645   1.969   7.281 -0.0721 -0.3508  0.0822
  277TIP3    H122390   0.699   1.960   7.203 -1.2400 -0.1773 -0.7743
  277TIP3    H222391   0.668   1.893   7.335 -0.1002 -1.1190 -0.9611
  278TIP3   OH222392   4.172   2.542   0.417  0.4518 -0.6452 -0.3905
  278TIP3    H122393   4.211   2.485   0.351  0.7438  0.5347 -1.2590
  278TIP3    H222394   4.197   2.630   0.391 -1.0641 -0.0034  0.2091
  279TIP3   OH222395   4.037   0.403   2.046 -0.3349 -0.4214  0.0359
  279TIP3    H122396   3.997   0.456   1.978 -1.6773  0.4953  1.4588
  279TIP3    H222397   3.966   0.348   2.079 -0.2184  0.3811  1.7998
  280TIP3   OH222398   3.381   5.429   1.484 -0.4236  0.5194  0.5650
  280TIP3    H122399   3.393   5.491   1.412  0.2325 -0.3473 -0.0908
  280TIP3    H222400   3.337   5.354   1.445  1.8451 -0.8860  0.5213
  281TIP3   OH222401   0.221   1.707   1.901  0.2036 -0.3864  0.2871
  281TIP3    H122402   0.156   1.724   1.969 -1.6955  0.0869 -1.5137
  281TIP3    H222403   0.288   1.773   1.913 -1.0132  0.8151  0.6396
  282TIP3   OH222404   6.152   3.504   7.466 -0.1430 -0.3744  0.7857
  282TIP3    H122405   6.154   3.494   7.562 -0.8861 -0.6443  0.7740
  282TIP3    H222406   6.176   3.595   7.451 -1.0565 -0.0391  1.2882
  283TIP3   OH222407   6.545   1.081   0.514 -0.1127 -0.3617 -0.1751
  283TIP3    H122408   6.562   1.056   0.423  1.3981  1.5706 -0.4953
  283TIP3    H222409   6.506   1.169   0.508 -1.6040 -0.8927  1.0142
  284TIP3   OH222410   3.613   2.887   8.263 -0.1766  0.4257  0.4914
  284TIP3    H122411   3.708   2.894   8.265 -0.1790  0.6747 -0.1487
  284TIP3    H222412   3.596   2.801   8.224 -0.2172  1.5406 -2.1021
  285TIP3   OH222413   5.550   4.145   0.607  0.3548 -0.7360  0.0159
  285TIP3    H122414   5.476   4.096   0.571  1.9982 -4.1029  0.7504
  285TIP3    H222415   5.574   4.206   0.537 -1.3950 -1.4673 -1.3239
  286TIP3   OH222416   5.618   0.186   6.732 -0.2620  0.5334  0.0696
  286TIP3    H122417   5.655   0.265   6.771  0.6793  0.5012 -0.7054
  286TIP3    H222418   5.573   0.216   6.653 -0.2369  0.3519 -0.0159
  287TIP3   OH222419   0.346   4.265   0.524  0.0696 -0.1590  0.0865
  287TIP3    H122420   0.436   4.247   0.497 -0.3380 -2.4899  0.0849
  287TIP3    H222421   0.305   4.306   0.448  0.7634 -0.3345 -0.3871
  288TIP3   OH222422   2.479   4.569   7.625  0.2874  0.0669 -0.2203
  288TIP3    H122423   2.409   4.604   7.679  0.6096 -1.1395  1.0470
  288TIP3    H222424   2.443   4.488   7.587  0.4104  0.3677 -1.0076
  289TIP3   OH222425   6.086   4.782   2.459  0.3118 -0.6410  0.6071
  289TIP3    H122426   6.099   4.687   2.464 -0.2880 -0.7663  0.0055
  289TIP3    H222427   5.993   4.794   2.479  0.3416 -0.1962  0.4780
  290TIP3   OH222428   2.750   6.304   0.428 -0.1258 -0.1136 -0.4083
  290TIP3    H122429   2.669   6.352   0.411 -0.1886 -0.1545 -0.2244
  290TIP3    H222430   2.781   6.337   0.512  0.5971  0.6478 -0.9606
  291TIP3   OH222431   4.669   5.180   8.689 -0.1213 -0.6369  0.2738
  291TIP3    H122432   4.664   5.272   8.713 -0.1289 -0.6736  0.4197
  291TIP3    H222433   4.591   5.164   8.637  0.1851 -0.4183 -0.2641
  292TIP3   OH222434   4.488   6.090   7.274 -0.7382  0.1004  0.4383
  292TIP3    H122435   4.506   6.010   7.324 -0.2328  0.6008  1.0778
  292TIP3    H222436   4.533   6.159   7.322 -1.0523  0.7555 -0.1844
  293TIP3   OH222437   2.871   5.292   1.158 -0.5019  0.1657 -0.3595
  293TIP3    H122438   2.903   5.239   1.231  0.0185 -0.7013 -1.1964
  293TIP3    H222439   2.938   5.360   1.145  0.0020 -0.4029 -0.7860
  294TIP3   OH222440   1.270   3.213   0.921  0.2891  0.1539 -0.2370
  294TIP3    H122441   1.194   3.167   0.886 -0.5570  0.5726  0.9838
  294TIP3    H222442   1.283   3.176   1.008  0.9228  0.7184 -0.0818
  295TIP3   OH222443   5.990   2.656   7.568 -0.3411 -0.4280  0.6369
  295TIP3    H122444   6.082   2.679   7.551 -0.9136 -0.6841 -3.9252
  295TIP3    H222445   5.945   2.740   7.575 -0.1320 -0.2675  0.1174
  296TIP3   OH222446   2.095   6.114   0.995 -0.6328 -0.9702  0.1442
  296TIP3    H122447   2.057   6.028   0.978 -2.0009  0.1296 -3.0072
  296TIP3    H222448   2.178   6.113   0.948 -0.3642 -0.7692  0.6111
  297TIP3   OH222449   4.761   3.268   6.333 -0.1535  0.0117  0.3722
  297TIP3    H122450   4.829   3.208   6.365  0.7211  0.1530 -1.1613
  297TIP3    H222451   4.726   3.225   6.255 -0.9576  0.5415  0.4340
  298TIP3   OH222452   0.758   5.174   8.118 -0.0768  0.0614 -0.2881
  298TIP3    H122453   0.749   5.100   8.178  0.5632  2.0966  2.5588
  298TIP3    H222454   0.707   5.149   8.041 -1.3015 -2.5796  1.2298
  299TIP3   OH222455   1.429   1.884   7.493  0.1421  0.1619 -0.3816
  299TIP3    H122456   1.452   1.804   7.445  0.2707  1.7894 -3.2909
  299TIP3    H222457   1.501   1.944   7.474  0.4744  0.7721  2.4502
  300TIP3   OH222458   0.000   6.284   0.050  0.3616  0.0926  0.5329
  300TIP3    H122459  -0.067   6.347   0.023  0.2709  0.3653  1.3646
  300TIP3    H222460   0.039   6.254  -0.032 -0.8140 -0.1146  0.0305
  301TIP3   OH222461   3.557   0.856   0.251 -0.4019 -0.1594 -0.4182
  301TIP3    H122462   3.629   0.917   0.267 -1.4036  0.7217  0.9277
  301TIP3    H222463   3.545   0.810   0.334 -1.8580  0.2287 -0.3969
  302TIP3   OH222464   5.728   3.210   2.369  0.4098 -0.2874 -0.5990
  302TIP3    H122465   5.638   3.217   2.336 -0.1574  0.4356  0.9879
  302TIP3    H222466   5.772   3.153   2.307 -0.3869  1.4842 -2.9685
  303TIP3   OH222467   1.855   1.314   7.415 -0.5460  0.4976 -0.2403
  303TIP3    H122468   1.878   1.345   7.327 -3.5328 -0.1593 -1.3907
  303TIP3    H222469   1.829   1.223   7.403  1.3089 -0.4051  1.8429
  304TIP3   OH222470   4.171   5.429   8.034  0.4308 -0.9369  0.7291
  304TIP3    H122471   4.265   5.414   8.018  1.1931  0.4919  3.2872
  304TIP3    H222472   4.127   5.370   7.972  2.9831 -1.5853 -0.6453
  305TIP3   OH222473   4.404   3.649   0.756  0.1646 -0.0257 -0.1270
  305TIP3    H122474   4.313   3.670   0.735 -0.1619 -1.1494  0.0591
  305TIP3    H222475   4.449   3.733   0.759 -0.4198  0.4008 -2.2610
  306TIP3   OH222476   5.931   4.730   8.435 -0.2740 -0.5240 -0.7864
  306TIP3    H122477   5.957   4.717   8.344 -1.4225  1.6253 -1.4959
  306TIP3    H222478   5.976   4.810   8.462  0.1634 -1.2060  0.6045
  307TIP3   OH222479   1.907   1.842   7.106 -0.1313  0.1518 -0.0193
  307TIP3    H122480   1.853   1.916   7.076  1.3730  0.8862 -1.0620
  307TIP3    H222481   1.845   1.771   7.120 -1.5202  1.3529  0.1229
  308TIP3   OH222482   4.866   2.211   0.376  0.3111  0.2460  0.2147
  308TIP3    H122483   4.925   2.148   0.419  1.3212  0.7797 -0.3596
  308TIP3    H222484   4.841   2.271   0.446  2.0999  1.2195  0.0761
  309TIP3   OH222485   1.725   3.300   7.585 -0.7348 -0.2994 -0.3259
  309TIP3    H122486   1.685   3.317   7.499 -1.0941  0.1767 -0.0732
  309TIP3    H222487   1.800   3.359   7.588 -3.1424  3.0184  1.3782
  310TIP3   OH222488   3.532   2.453   7.165 -0.5405  0.3469  0.2511
  310TIP3    H122489   3.599   2.497   7.114 -1.2504 -0.4343 -1.4181
  310TIP3    H222490   3.544   2.486   7.254  2.3770 -0.1305  0.1324
  311TIP3   OH222491   2.451   0.008   0.970  0.3877  0.1146  0.1303
  311TIP3    H122492   2.520   0.074   0.976 -0.9100  1.7880 -1.7721
  311TIP3    H222493   2.369   0.059   0.968 -0.9778 -1.7771  2.2789
  312TIP3   OH222494   2.969   3.232   2.296 -0.2494  0.3932 -0.3144
  312TIP3    H122495   2.958   3.159   2.235  0.2351 -0.0608  0.1210
  312TIP3    H222496   2.933   3.308   2.251 -0.0238  0.0352 -1.1035
  313TIP3   OH222497   6.770   5.835   6.296 -0.4527 -0.2578  0.3112
  313TIP3    H122498   6.758   5.740   6.305 -1.9121 -0.4483 -2.5651
  313TIP3    H222499   6.696   5.873   6.343 -0.7280 -0.6006  0.1578
  314TIP3   OH222500   2.747   5.248   7.443 -0.2252  0.0786  0.1687
  314TIP3    H122501   2.810   5.177   7.453 -0.8406 -0.6322 -0.7942
  314TIP3    H222502   2.718   5.241   7.352 -1.8448  0.2397  0.6458
  315TIP3   OH222503   6.646   4.060   1.175 -0.6873 -0.5302 -0.8890
  315TIP3    H122504   6.727   4.035   1.130  1.4779  1.8004  1.3293
  315TIP3    H222505   6.658   4.153   1.196 -2.1158 -1.0352  2.9940
  316TIP3   OH222506   2.095   1.018   8.417  0.3332 -0.1710 -0.0881
  316TIP3    H122507   2.062   1.013   8.506 -1.6665  0.8082 -0.7190
  316TIP3    H222508   2.139   0.934   8.403 -1.5280 -1.3751  0.9854
  317TIP3   OH222509   1.508   6.210   1.098 -0.1882 -0.0212 -0.3135
  317TIP3    H122510   1.489   6.303   1.112 -2.1622 -0.2125 -1.4050
  317TIP3    H222511   1.579   6.191   1.159 -2.2939  1.2740  2.7543
  318TIP3   OH222512   6.274   1.237   7.427 -0.4183 -0.4500  0.5232
  318TIP3    H122513   6.243   1.317   7.385 -1.4973 -1.3799 -0.5069
  318TIP3    H222514   6.368   1.252   7.441  0.2830 -0.4897 -3.2529
  319TIP3   OH222515   5.082   3.123   0.045  0.5954 -0.5893 -0.1417
  319TIP3    H122516   5.030   3.185   0.096  0.6794 -1.2183  0.7295
  319TIP3    H222517   5.047   3.130  -0.044  0.4326  0.5040 -0.0072
  320TIP3   OH222518   5.779   2.002   7.383  0.1061 -0.1603 -0.2820
  320TIP3    H122519   5.714   2.067   7.409  0.7062  0.3659 -0.0717
  320TIP3    H222520   5.773   1.998   7.288 -0.2011 -0.0812 -0.2668
  321TIP3   OH222521   4.428   5.690   2.400 -0.3696  0.0722  0.3936
  321TIP3    H122522   4.341   5.655   2.381 -0.7879  1.2801 -0.0112
  321TIP3    H222523   4.488   5.619   2.377 -1.1101  0.0868 -1.8021
  322TIP3   OH222524   2.881   6.436   1.178 -0.3658  0.6303  1.0548
  322TIP3    H122525   2.841   6.434   1.091  4.0591  1.0712 -1.2779
  322TIP3    H222526   2.846   6.358   1.222  0.4350 -2.2016 -2.8385
  323TIP3   OH222527   6.714   2.394   8.121 -0.2901 -0.2583 -0.2586
  323TIP3    H122528   6.655   2.396   8.046 -0.1274 -3.2783 -0.6287
  323TIP3    H222529   6.657   2.375   8.196 -0.4744  2.9109  0.5226
  324TIP3   OH222530   1.478   1.048   0.543  0.1081 -0.1361 -0.1269
  324TIP3    H122531   1.410   1.052   0.610  1.1718  1.3353  0.9612
  324TIP3    H222532   1.523   0.965   0.560 -1.4352 -1.1897 -0.9486
  325TIP3   OH222533   6.024   4.967   2.258  0.5106 -0.1532  0.2793
  325TIP3    H122534   6.011   5.043   2.315 -1.8929  0.3748 -0.8764
  325TIP3    H222535   6.058   4.899   2.317  0.9439  1.2328  1.7071
  326TIP3   OH222536   4.440   3.950   0.928 -0.1420 -0.2710 -0.3857
  326TIP3    H122537   4.451   4.030   0.877 -0.1364 -0.3964 -0.5834
  326TIP3    H222538   4.519   3.944   0.982 -0.4509  0.2160  0.1378
  327TIP3   OH222539   3.975   3.538   8.110  0.1320 -0.5205  0.5216
  327TIP3    H122540   3.961   3.519   8.202 -2.1419 -1.0229  0.1290
  327TIP3    H222541   4.056   3.492   8.088  0.6900 -0.4184  2.2321
  328TIP3   OH222542   5.777   4.739   8.123 -0.1251  0.2930 -0.2219
  328TIP3    H122543   5.820   4.817   8.088 -0.1958  0.5245  0.2018
  328TIP3    H222544   5.684   4.759   8.119 -0.2132 -0.3135 -1.3843
  329TIP3   OH222545   1.558   0.169   8.690 -0.1968  0.3812  0.3583
  329TIP3    H122546   1.619   0.215   8.748 -0.1944 -0.4500  1.0424
  329TIP3    H222547   1.485   0.145   8.748 -0.5143  0.1265 -0.1453
  330TIP3   OH222548   6.757   4.458   0.967  0.1151 -0.0268  0.6141
  330TIP3    H122549   6.811   4.525   1.009 -0.4539 -0.7968  2.7002
  330TIP3    H222550   6.814   4.382   0.960 -0.1037 -0.2330  1.0197
  331TIP3   OH222551   2.746   0.105   0.806  0.2971  0.1448 -0.0215
  331TIP3    H122552   2.771   0.193   0.836  0.1998  0.4450 -0.7904
  331TIP3    H222553   2.804   0.088   0.732  0.2341 -0.3960  0.0539
  332TIP3   OH222554   5.331   2.552   1.136 -0.1422  0.1899 -0.4055
  332TIP3    H122555   5.423   2.578   1.128 -0.0740  0.0464 -0.0923
  332TIP3    H222556   5.282   2.632   1.115  0.0697  0.8734  1.4254
  333TIP3   OH222557   5.115   4.571   0.577  0.1337 -0.1774  0.1995
  333TIP3    H122558   5.154   4.617   0.503  0.6451 -1.3602 -0.2992
  333TIP3    H222559   5.024   4.557   0.552  0.2285 -0.3025 -0.0822
  334TIP3   OH222560   2.243   5.845   1.778 -0.1907 -0.1975  0.3636
  334TIP3    H122561   2.285   5.801   1.704  0.6442  0.4174  0.4588
  334TIP3    H222562   2.184   5.779   1.815  1.5223 -1.5016  0.9214
  335TIP3   OH222563   6.551   2.088   1.047 -0.2144 -0.2368 -0.1194
  335TIP3    H122564   6.602   2.040   0.982 -0.8230  0.8278 -1.4281
  335TIP3    H222565   6.571   2.180   1.031 -1.3610  0.1133  0.3470
  336TIP3   OH222566   1.835   1.242   0.256 -0.0204  0.4026 -0.0970
  336TIP3    H122567   1.823   1.219   0.348 -0.2559  0.4222 -0.1232
  336TIP3    H222568   1.912   1.299   0.255 -0.6372  1.2590  0.2186
  337TIP3   OH222569   1.172   5.244   0.478 -0.3107 -0.0867  0.7852
  337TIP3    H122570   1.101   5.247   0.415 -0.4839  1.1381  1.0233
  337TIP3    H222571   1.216   5.160   0.460 -1.0246 -0.2694 -0.2048
  338TIP3   OH222572   5.542   3.284   1.538  0.0662  0.4118  0.1680
  338TIP3    H122573   5.635   3.271   1.522  0.0619 -0.3362  0.7176
  338TIP3    H222574   5.539   3.338   1.617  0.0360  0.2848  0.2542
  339TIP3   OH222575   4.540   3.098   7.027  0.0632 -0.4503 -0.1450
  339TIP3    H122576   4.504   3.166   6.970 -1.2597  0.5442  1.7692
  339TIP3    H222577   4.633   3.097   7.007 -0.0150  1.3594 -0.7959
  340TIP3   OH222578   1.566   6.196   7.150 -0.1796  0.0019 -0.0068
  340TIP3    H122579   1.651   6.158   7.127  0.5366  0.5146  1.6670
  340TIP3    H222580   1.507   6.121   7.154  0.6470 -0.6308  0.7701
  341TIP3   OH222581   0.891   0.877   6.360  0.7316  0.8220 -0.5010
  341TIP3    H122582   0.890   0.794   6.312  1.7314 -0.2242  1.1432
  341TIP3    H222583   0.981   0.907   6.353  1.0123  0.4151  1.0120
  342TIP3   OH222584   6.248   2.459   1.425 -0.1898 -0.5690  0.2133
  342TIP3    H122585   6.275   2.371   1.452  1.7639 -0.3134 -0.7584
  342TIP3    H222586   6.218   2.448   1.335  0.3174 -0.2181 -0.0046
  343TIP3   OH222587   2.138   0.710   7.563  0.2434  0.5220  0.1924
  343TIP3    H122588   2.154   0.657   7.641  1.3567 -0.3711 -0.6197
  343TIP3    H222589   2.085   0.654   7.506  1.3406  0.2734 -0.6282
  344TIP3   OH222590   2.109   4.922   0.687  0.0769 -0.7452  0.2271
  344TIP3    H122591   2.056   4.922   0.766 -0.3868  0.4796 -0.0631
  344TIP3    H222592   2.056   4.968   0.622  1.7722  1.2907  0.1665
  345TIP3   OH222593   1.670   3.133   2.459 -0.4357  0.4047 -0.0911
  345TIP3    H122594   1.731   3.060   2.460  1.4350  1.8849  1.3303
  345TIP3    H222595   1.723   3.208   2.431 -1.4951  1.8132  1.4860
  346TIP3   OH222596   3.162   1.318   1.528  0.0162  0.2142  0.4714
  346TIP3    H122597   3.202   1.385   1.584  2.5597 -1.3194  0.6222
  346TIP3    H222598   3.169   1.237   1.579  2.1215 -1.1879 -1.8156
  347TIP3   OH222599   4.237   1.435   7.839 -0.1519 -0.2604  0.1746
  347TIP3    H122600   4.224   1.456   7.932 -0.9433 -1.3495  0.3240
  347TIP3    H222601   4.313   1.377   7.838 -0.3696 -0.5440  0.1770
  348TIP3   OH222602   2.618   0.620   7.516  0.2117  0.5936  0.4158
  348TIP3    H122603   2.608   0.582   7.429  1.8757 -0.9150  0.8113
  348TIP3    H222604   2.573   0.558   7.574 -0.3631  1.2695  0.7019
  349TIP3   OH222605   2.814   0.888   8.616 -0.0299  0.5485 -0.3369
  349TIP3    H122606   2.880   0.954   8.637  0.3576  0.1964 -0.4382
  349TIP3    H222607   2.821   0.876   8.521 -0.6633  0.9562 -0.4390
  350TIP3   OH222608   3.012   1.708   1.175  0.3500  0.9124  0.1078
  350TIP3    H122609   3.061   1.652   1.235  3.2871  0.0464 -2.7786
  350TIP3    H222610   3.023   1.796   1.210 -1.0115  0.2058  2.5994
  351TIP3   OH222611   5.893   5.883   7.301  0.5925  0.2183 -0.2257
  351TIP3    H122612   5.882   5.856   7.210  0.2613 -2.6102  0.5631
  351TIP3    H222613   5.976   5.844   7.328 -0.3808 -0.9324  1.2773
  352TIP3   OH222614   0.034   5.387   0.998  0.5832  0.0140 -0.2853
  352TIP3    H122615   0.125   5.356   1.000  0.4567 -0.3465 -0.0474
  352TIP3    H222616   0.039   5.471   0.953  1.0097 -0.0910 -0.4419
  353TIP3   OH222617   5.867   3.929   6.640 -0.1722 -0.2712  0.5320
  353TIP3    H122618   5.795   3.888   6.687 -0.6624 -0.0142  0.0172
  353TIP3    H222619   5.946   3.896   6.683 -0.4374 -3.2436 -1.0063
  354TIP3   OH222620   5.307   5.016   7.931 -0.1477  0.2627 -0.1780
  354TIP3    H122621   5.399   5.027   7.955  0.5285 -1.1559 -1.9042
  354TIP3    H222622   5.282   5.102   7.897  0.9173  0.3647 -0.7792
  355TIP3   OH222623   5.387   3.660   0.899 -0.2173 -0.0237  0.0180
  355TIP3    H122624   5.355   3.739   0.855  0.1730  0.5988  0.8092
  355TIP3    H222625   5.312   3.601   0.899 -0.2888  0.0383 -1.2714
  356TIP3   OH222626   3.275   1.233   8.455  0.0439  0.1216  0.2212
  356TIP3    H122627   3.316   1.234   8.541  1.5145  0.0888 -0.4486
  356TIP3    H222628   3.346   1.253   8.394 -0.6656 -1.1628 -1.1045
  357TIP3   OH222629   1.971   6.529   0.511 -0.0745 -0.1264 -0.7821
  357TIP3    H122630   1.942   6.462   0.572 -0.9526  0.3443 -0.6659
  357TIP3    H222631   2.064   6.542   0.532 -0.2423 -0.3193  0.1214
  358TIP3   OH222632   4.785   0.492   1.792  0.1062 -0.3435 -0.4088
  358TIP3    H122633   4.832   0.488   1.708 -1.1101  1.1313 -1.2083
  358TIP3    H222634   4.697   0.461   1.772 -0.2526  0.1977  0.2743
  359TIP3   OH222635   2.227   4.811   6.137 -0.5085 -0.1613  0.0438
  359TIP3    H122636   2.264   4.829   6.224 -0.7058  0.3228  0.0327
  359TIP3    H222637   2.282   4.741   6.102 -2.3081 -2.6063  1.8039
  360TIP3   OH222638   4.315   2.982   2.084 -0.3489  0.4230  0.3747
  360TIP3    H122639   4.271   3.052   2.133 -2.5791 -0.5219 -0.1305
  360TIP3    H222640   4.296   2.903   2.134  0.1128 -0.1242 -0.3029
  361TIP3   OH222641   0.875   6.503   0.872 -0.7284  0.0326  0.1591
  361TIP3    H122642   0.893   6.597   0.868  0.5081 -0.1930  0.0906
  361TIP3    H222643   0.934   6.465   0.807  0.0158 -0.9575  1.3735
  362TIP3   OH222644   1.257   5.719   0.714 -0.1689  0.2752 -0.9569
  362TIP3    H122645   1.339   5.756   0.683  1.1660  0.5675  2.5657
  362TIP3    H222646   1.210   5.696   0.633  2.8063  1.1635 -3.1278
  363TIP3   OH222647   1.661   0.292   1.151 -0.0606 -0.2915  0.6308
  363TIP3    H122648   1.668   0.341   1.069 -1.5077  1.8739  1.7264
  363TIP3    H222649   1.719   0.338   1.211 -1.8831  0.5080  1.8438
  364TIP3   OH222650   5.070   4.200   1.188  0.0690  0.2015 -0.5368
  364TIP3    H122651   4.988   4.241   1.216 -0.8310 -1.7322 -0.1901
  364TIP3    H222652   5.077   4.121   1.242  2.1170  0.2481 -0.6488
  365TIP3   OH222653   2.118   2.691   1.281 -0.0744 -0.5165  0.6742
  365TIP3    H122654   2.047   2.700   1.218  1.0282  0.1367 -0.5083
  365TIP3    H222655   2.075   2.659   1.361 -1.1808 -4.0074 -1.1171
  366TIP3   OH222656   0.245   0.780   0.443  0.0085 -0.6099  0.4909
  366TIP3    H122657   0.338   0.761   0.438  0.3869  1.3554 -2.2602
  366TIP3    H222658   0.204   0.720   0.380 -0.3655 -0.3915  0.5197
  367TIP3   OH222659   2.286   6.060   0.282  0.0406 -0.2584 -0.1096
  367TIP3    H122660   2.239   6.131   0.238 -0.5591  0.1916  1.2019
  367TIP3    H222661   2.373   6.096   0.299  0.4473 -0.6123 -1.3298
  368TIP3   OH222662   4.042   0.267   1.273 -0.8064  0.2017  0.2223
  368TIP3    H122663   4.049   0.206   1.199  1.6475  1.7500 -1.0025
  368TIP3    H222664   3.993   0.220   1.339 -0.0966 -2.6202 -1.1009
  369TIP3   OH222665   6.218   1.514   7.702 -0.1029 -0.3975  0.2181
  369TIP3    H122666   6.292   1.544   7.649 -0.2135  0.2908  0.4488
  369TIP3    H222667   6.157   1.477   7.639 -0.5464  1.0465 -0.2364
  370TIP3   OH222668   6.497   1.741   0.929  0.2969  0.3023  0.3409
  370TIP3    H122669   6.567   1.781   0.877 -1.6730  1.2793 -1.7514
  370TIP3    H222670   6.418   1.753   0.876 -1.0248 -3.5280  1.0845
  371TIP3   OH222671   3.308   3.847   8.213  0.5360 -0.3656 -0.1715
  371TIP3    H122672   3.370   3.919   8.206  1.3116 -0.9269  0.6884
  371TIP3    H222673   3.312   3.803   8.129 -0.2590  0.8264 -0.8610
  372TIP3   OH222674   5.971   5.394   0.487 -0.5643  0.1632 -0.9185
  372TIP3    H122675   5.981   5.413   0.394  1.5011 -1.7047 -1.1566
  372TIP3    H222676   5.894   5.338   0.492  0.4475 -1.4044 -1.8506
  373TIP3   OH222677   5.563   2.191   6.805  0.0586 -0.6753  0.0581
  373TIP3    H122678   5.571   2.255   6.876 -0.0547  0.2378 -0.7463
  373TIP3    H222679   5.624   2.121   6.830 -0.1577 -0.4909  1.1801
  374TIP3   OH222680   4.923   0.806   8.153 -0.1514 -0.5277 -0.1400
  374TIP3    H122681   4.976   0.732   8.124  2.5417  0.6918  1.2136
  374TIP3    H222682   4.936   0.872   8.085 -1.1539 -0.6958 -0.5056
  375TIP3   OH222683   0.355   5.815   8.524 -0.2108  0.0690  0.7620
  375TIP3    H122684   0.310   5.818   8.609 -0.7391 -1.8200  0.5837
  375TIP3    H222685   0.317   5.740   8.479  1.1347  0.1354 -0.5624
  376TIP3   OH222686   0.902   6.101   7.301  0.1562 -0.0221 -0.2865
  376TIP3    H122687   0.910   6.176   7.242 -3.5981  0.8929  0.0864
  376TIP3    H222688   0.845   6.040   7.254  0.5762 -1.2112  0.7007
  377TIP3   OH222689   5.857   0.426   7.360  0.0744  0.1007 -0.3335
  377TIP3    H122690   5.821   0.366   7.295 -0.4981  1.7809 -1.6138
  377TIP3    H222691   5.950   0.429   7.341 -0.2017  1.1781 -1.6194
  378TIP3   OH222692   4.584   6.819   0.939 -0.9231 -0.1905  0.0021
  378TIP3    H122693   4.564   6.783   0.852  3.3667 -0.7718 -1.0113
  378TIP3    H222694   4.594   6.913   0.924 -0.0450 -0.3083 -0.2447
  379TIP3   OH222695   1.861   1.678   6.294  0.1186  0.9164 -0.5557
  379TIP3    H122696   1.889   1.588   6.278 -1.5853  0.4944 -1.4241
  379TIP3    H222697   1.933   1.731   6.261  0.4643 -0.1239 -1.5607
  380TIP3   OH222698   5.203   5.549   6.730 -0.0041 -0.0372  0.1483
  380TIP3    H122699   5.160   5.560   6.814 -0.7956 -2.8798  0.2337
  380TIP3    H222700   5.132   5.531   6.668  0.7215 -0.1992 -0.6614
  381TIP3   OH222701   0.524   2.051   2.245 -0.6611  0.1287 -0.0662
  381TIP3    H122702   0.449   1.993   2.233 -0.5555  0.3066 -1.7599
  381TIP3    H222703   0.510   2.092   2.331 -1.7293 -0.9354  0.2774
  382TIP3   OH222704   0.164   4.236   2.201 -0.1497 -0.0979 -0.3680
  382TIP3    H122705   0.169   4.179   2.125 -3.0656 -0.1995 -0.5643
  382TIP3    H222706   0.115   4.186   2.266  0.5421  0.7647  0.8627
  383TIP3   OH222707   2.521   6.177   6.896 -0.0337  0.2038  0.1693
  383TIP3    H122708   2.516   6.186   6.991 -0.1834  1.4929  0.0583
  383TIP3    H222709   2.558   6.090   6.882 -1.2724 -0.5443  1.3754
  384TIP3   OH222710   3.314   6.008   8.042 -0.2548  0.1141 -0.1561
  384TIP3    H122711   3.270   5.994   8.125 -1.5071  0.5943 -0.7227
  384TIP3    H222712   3.306   5.924   7.996  1.8454 -0.6808  0.8061
  385TIP3   OH222713   5.038   1.901   7.722  0.2249  0.0341 -0.5251
  385TIP3    H122714   5.022   1.828   7.781 -1.3180  0.2175 -0.6733
  385TIP3    H222715   5.080   1.968   7.777 -2.3321  0.7071  0.7566
  386TIP3   OH222716   1.152   3.556   0.626 -0.0669 -0.3177 -0.1066
  386TIP3    H122717   1.183   3.572   0.537  0.1656  1.0292  0.1899
  386TIP3    H222718   1.149   3.643   0.666 -0.2900 -0.8874  1.1643
  387TIP3   OH222719   2.852   2.227   7.425 -0.5141  0.0167 -0.5550
  387TIP3    H122720   2.759   2.228   7.447 -0.5817 -0.4753 -0.8209
  387TIP3    H222721   2.889   2.301   7.474 -1.1754  0.6657 -1.0258
  388TIP3   OH222722   6.077   3.024   6.862  0.4857 -0.7147  0.2411
  388TIP3    H122723   6.077   3.012   6.767  0.4355  0.7328  0.0287
  388TIP3    H222724   5.986   3.049   6.882  0.4527 -1.1981  0.6916
  389TIP3   OH222725   2.196   4.369   6.870  0.2732 -0.2954 -0.2569
  389TIP3    H122726   2.125   4.394   6.811 -0.8712 -0.4852  0.9851
  389TIP3    H222727   2.269   4.346   6.812 -1.4702 -2.5547 -1.6941
  390TIP3   OH222728   6.556   1.965   8.181 -0.1364 -0.2480 -0.6608
  390TIP3    H122729   6.575   2.017   8.103 -0.9501 -0.1384 -0.7981
  390TIP3    H222730   6.582   2.020   8.254  2.2159 -1.0005 -0.8652
  391TIP3   OH222731   4.599   4.705   0.185  0.0690 -0.3922  0.5639
  391TIP3    H122732   4.570   4.781   0.134 -1.0158  0.0947  1.8451
  391TIP3    H222733   4.690   4.693   0.160 -0.3405 -0.0305 -1.2967
  392TIP3   OH222734   5.462   6.084   1.312  0.1579 -0.0146 -0.2108
  392TIP3    H122735   5.494   6.125   1.232 -0.1470 -0.0123 -0.3340
  392TIP3    H222736   5.445   6.157   1.372 -0.0782  0.0179 -0.3165
  393TIP3   OH222737   3.578   0.730   0.479  0.1992  0.3230  0.0719
  393TIP3    H122738   3.631   0.719   0.558  2.0305 -0.5409 -1.2043
  393TIP3    H222739   3.509   0.665   0.487  1.1356 -0.6726  0.3858
  394TIP3   OH222740   2.376   1.287   1.448 -0.1533 -0.0073  0.0775
  394TIP3    H122741   2.439   1.265   1.517 -0.9953 -0.0770  0.8316
  394TIP3    H222742   2.303   1.327   1.493 -0.3381  0.7696 -0.8838
  395TIP3   OH222743   4.393   2.428   1.955  0.0771 -0.1374  0.1372
  395TIP3    H122744   4.452   2.503   1.958  0.4943 -0.3809 -1.4094
  395TIP3    H222745   4.404   2.386   2.040  2.0691 -0.1240 -0.0772
  396TIP3   OH222746   1.008   6.172   0.960  0.1116 -0.6686 -0.4955
  396TIP3    H122747   1.000   6.197   0.868 -0.1676 -0.6167 -0.4578
  396TIP3    H222748   1.075   6.103   0.961  0.1267 -0.6575 -0.7333
  397TIP3   OH222749   3.969   4.978   8.058 -0.9174  0.0652  0.4583
  397TIP3    H122750   4.011   4.894   8.038 -0.5706  0.1464  0.8395
  397TIP3    H222751   3.962   4.979   8.153 -0.0078  0.9016  0.5268
  398TIP3   OH222752   5.664   3.136   8.270 -0.1044  0.5128 -0.0490
  398TIP3    H122753   5.619   3.218   8.249  3.4860  3.5343  2.6718
  398TIP3    H222754   5.611   3.097   8.340 -0.5688  1.9548  0.4426
  399TIP3   OH222755   1.814   4.422   1.857  0.1984 -0.0572  0.1942
  399TIP3    H122756   1.895   4.432   1.907  0.2891 -0.5867  0.1553
  399TIP3    H222757   1.772   4.345   1.894 -0.1245  0.0147 -0.0150
  400TIP3   OH222758   6.026   1.700   1.946  0.1075 -0.2861  0.0736
  400TIP3    H122759   5.970   1.673   2.019  2.2377 -0.5290  1.7253
  400TIP3    H222760   6.115   1.690   1.980  1.1409  2.6518 -1.4752
  401TIP3   OH222761   4.119   3.570   8.648  0.4356  0.4511 -0.0665
  401TIP3    H122762   4.035   3.537   8.614 -0.2733 -0.6807  2.5247
  401TIP3    H222763   4.183   3.545   8.581 -1.1494  0.6191 -1.7325
  402TIP3   OH222764   0.169   5.523   2.351  0.0534  1.0237 -0.3061
  402TIP3    H122765   0.243   5.526   2.289  1.2613  0.9155  1.0742
  402TIP3    H222766   0.129   5.609   2.344 -0.2342  0.8044 -1.6930
  403TIP3   OH222767   3.290   2.527   2.219 -0.3534  0.4735 -0.0115
  403TIP3    H122768   3.255   2.510   2.132 -1.1642  0.7479  0.2514
  403TIP3    H222769   3.233   2.479   2.279  1.7683 -1.9425  0.2277
  404TIP3   OH222770   4.462   5.262   6.569  0.0946 -0.2894 -0.6907
  404TIP3    H122771   4.479   5.215   6.651 -1.4818  1.5364  0.7870
  404TIP3    H222772   4.515   5.342   6.576 -0.2482  0.0022 -1.3299
  405TIP3   OH222773   6.745   2.666   8.175 -0.0984  0.8195  0.1038
  405TIP3    H122774   6.730   2.583   8.129  1.2773  0.1249  0.8211
  405TIP3    H222775   6.658   2.705   8.184 -0.9839 -1.1792  0.8938
  406TIP3   OH222776   1.951   4.418   7.232  0.3049 -0.0742  0.0367
  406TIP3    H122777   1.979   4.376   7.150  1.0122  0.5781 -0.0736
  406TIP3    H222778   1.894   4.489   7.204  1.3785  0.8007  0.0330
  407TIP3   OH222779   3.634   6.083   2.048  0.3048  0.2028 -0.4177
  407TIP3    H122780   3.725   6.107   2.035  0.5003  0.6655  1.4765
  407TIP3    H222781   3.589   6.165   2.068  0.0735 -0.3274  1.4909
  408TIP3   OH222782   3.569   2.132   7.081  0.4448 -0.2474 -0.2620
  408TIP3    H122783   3.540   2.048   7.046  0.0162  0.0236 -0.5606
  408TIP3    H222784   3.631   2.165   7.016 -1.7185  1.1157 -1.7501
  409TIP3   OH222785   0.680   1.753   0.106  0.3817  0.0898 -0.7207
  409TIP3    H122786   0.650   1.825   0.051  0.2135  0.7001  0.1506
  409TIP3    H222787   0.773   1.772   0.122  0.6948 -0.6250 -1.6055
  410TIP3   OH222788   4.402   2.391   0.097 -0.1527 -0.0441 -0.2849
  410TIP3    H122789   4.450   2.397   0.180 -0.7945 -0.8255  0.1592
  410TIP3    H222790   4.414   2.300   0.069  0.7721  0.4347 -1.5024
  411TIP3   OH222791   4.510   5.914   1.021  0.1946 -0.4208  0.3762
  411TIP3    H122792   4.544   5.843   0.967  0.3003 -0.0826 -0.0105
  411TIP3    H222793   4.569   5.988   1.002  1.4895 -0.8311  2.4538
  412TIP3   OH222794   2.256   0.785   8.410 -0.0309 -0.0755 -0.2354
  412TIP3    H122795   2.239   0.694   8.385 -0.1389 -0.1305  0.0348
  412TIP3    H222796   2.295   0.779   8.498  0.2529  0.1211 -0.3452
  413TIP3   OH222797   1.199   2.665   7.744 -0.1927 -0.6796 -0.1807
  413TIP3    H122798   1.267   2.694   7.804 -0.4074  1.9163 -1.0831
  413TIP3    H222799   1.118   2.669   7.795 -0.3043  1.0264 -0.4346
  414TIP3   OH222800   0.403   6.368   7.639  0.0143  0.1033 -0.3192
  414TIP3    H122801   0.433   6.293   7.690  0.9082  1.1397  0.7336
  414TIP3    H222802   0.459   6.368   7.561  0.7760  0.3192  0.2205
  415TIP3   OH222803   5.408   1.843   7.249  0.2250 -0.2777 -0.1787
  415TIP3    H122804   5.386   1.864   7.340 -0.2303 -0.0308 -0.3459
  415TIP3    H222805   5.330   1.865   7.199  0.3378 -0.7755 -0.5849
  416TIP3   OH222806   6.220   4.333   6.517  0.1427 -0.9399 -0.0024
  416TIP3    H122807   6.196   4.364   6.430  2.3958  0.0440 -0.3508
  416TIP3    H222808   6.208   4.238   6.513  0.7748 -0.9815 -1.6057
  417TIP3   OH222809   2.271   4.025   7.355 -0.2556 -0.0779 -0.3474
  417TIP3    H122810   2.304   4.083   7.424 -1.0901  0.1394 -0.1099
  417TIP3    H222811   2.282   4.075   7.274 -0.4104  0.1792 -0.2140
  418TIP3   OH222812   4.461   4.446   0.221 -0.3560 -0.4831  1.5546
  418TIP3    H122813   4.466   4.539   0.200  0.9445 -0.6224  1.1482
  418TIP3    H222814   4.493   4.402   0.142 -0.3287 -1.2486  1.9831
  419TIP3   OH222815   0.188   3.815   2.198 -0.2442  0.3444  0.0776
  419TIP3    H122816   0.197   3.734   2.249  0.9607  1.0318  1.0195
  419TIP3    H222817   0.109   3.801   2.145  0.5892 -1.9247 -0.7060
  420TIP3   OH222818   5.314   1.999   6.847 -0.0700  0.9436  0.2492
  420TIP3    H122819   5.324   1.968   6.757 -2.6984  0.2509  0.1119
  420TIP3    H222820   5.328   2.093   6.842 -2.6417  1.3324 -1.4392
  421TIP3   OH222821   0.525   1.520   0.084 -0.3174 -0.1331  0.0789
  421TIP3    H122822   0.583   1.594   0.106  1.0215 -0.9110 -0.6802
  421TIP3    H222823   0.569   1.476   0.011 -1.7739 -0.9072 -0.3732
  422TIP3   OH222824   5.361   0.198   2.135 -1.2041 -0.3043  0.4326
  422TIP3    H122825   5.414   0.278   2.136  0.1847 -1.2016  1.0517
  422TIP3    H222826   5.357   0.170   2.227  0.4037 -2.2338 -0.0176
  423TIP3   OH222827   2.832   2.651   7.488  0.5456 -0.2447 -0.1453
  423TIP3    H122828   2.780   2.701   7.551  0.6206 -0.7238  0.3055
  423TIP3    H222829   2.881   2.717   7.440 -1.8638  0.4041 -1.9169
  424TIP3   OH222830   2.463   3.357   2.006  0.2753  0.3334  0.0043
  424TIP3    H122831   2.543   3.373   2.055 -0.9838  0.4571  2.1741
  424TIP3    H222832   2.442   3.266   2.023 -1.0556  0.8170  1.1471
  425TIP3   OH222833   4.136   1.881   7.972 -0.9150 -0.3647 -0.6828
  425TIP3    H122834   4.228   1.886   7.946 -0.6504  0.4575  0.3294
  425TIP3    H222835   4.092   1.945   7.917 -0.9140 -0.8598 -1.2681
  426TIP3   OH222836   0.185   4.147   7.952  0.3405  0.2413 -0.0429
  426TIP3    H122837   0.194   4.172   7.860  1.5798 -0.1122 -0.0448
  426TIP3    H222838   0.155   4.057   7.950  1.1775 -0.0442 -0.1281
  427TIP3   OH222839   3.455   2.086   1.049  0.4942 -0.5211 -0.3818
  427TIP3    H122840   3.450   1.990   1.054 -1.6446 -0.4333  0.1605
  427TIP3    H222841   3.387   2.110   0.985  0.9719  0.6532 -0.4800
  428TIP3   OH222842   5.355   3.032   8.128 -0.1424 -0.0231 -0.7566
  428TIP3    H122843   5.367   3.058   8.220  0.2026 -0.1511 -0.7614
  428TIP3    H222844   5.296   2.957   8.132  0.4148 -0.4620 -0.5755
  429TIP3   OH222845   2.150   1.975   7.972 -0.2113 -0.7660 -0.1780
  429TIP3    H122846   2.096   1.906   7.936 -0.0354 -0.9107 -0.1678
  429TIP3    H222847   2.101   2.056   7.956  0.4903 -0.6688 -1.9885
  430TIP3   OH222848   4.523   1.961   7.009 -0.5992  0.2486 -0.2132
  430TIP3    H122849   4.495   2.053   7.005 -0.6153  0.2965  0.8638
  430TIP3    H222850   4.595   1.956   6.946 -1.1305  0.7985 -0.8856
  431TIP3   OH222851   3.983   6.520   1.830 -0.5464  0.2438  0.1963
  431TIP3    H122852   3.910   6.501   1.889  0.2674 -1.3473  0.7482
  431TIP3    H222853   3.955   6.596   1.780 -1.9351  0.6124  1.4914
  432TIP3   OH222854   4.022   4.760   1.438  0.4533  0.8629 -0.2528
  432TIP3    H122855   4.064   4.819   1.501 -0.4940  0.1898  1.0586
  432TIP3    H222856   3.943   4.807   1.410 -0.0815  0.4135  0.4724
  433TIP3   OH222857   2.119   0.894   7.137 -0.4387 -0.7302 -0.1782
  433TIP3    H122858   2.163   0.913   7.220  1.3858  1.6138 -1.5522
  433TIP3    H222859   2.032   0.935   7.146  0.8883  2.4467 -0.4495
  434TIP3   OH222860   4.141   5.478   1.004 -0.2000  0.4513  0.1371
  434TIP3    H122861   4.150   5.384   1.022  0.4571  0.6494  0.9351
  434TIP3    H222862   4.216   5.517   1.048  1.5555  1.0238 -3.0247
  435TIP3   OH222863   3.514   4.677   7.112 -0.5332 -0.3255 -0.4084
  435TIP3    H122864   3.577   4.673   7.185 -1.1767  1.3961  0.2825
  435TIP3    H222865   3.520   4.590   7.072  2.4361 -0.1939 -0.5202
  436TIP3   OH222866   0.739   0.935   7.847  0.3936  0.1260 -0.0616
  436TIP3    H122867   0.691   1.001   7.896  0.3935 -0.9982  1.5292
  436TIP3    H222868   0.745   0.860   7.906  2.3788 -0.4887 -0.9359
  437TIP3   OH222869   2.053   2.800   2.923 -0.3528  0.1869  0.6590
  437TIP3    H122870   2.007   2.881   2.899  0.8657  0.5850 -0.4657
  437TIP3    H222871   2.005   2.731   2.878  0.4411  0.6672 -1.0171
  438TIP3   OH222872   5.958   6.853   1.974 -0.1156  0.4164 -0.4404
  438TIP3    H122873   6.044   6.868   1.933  0.0643 -1.2552 -0.7246
  438TIP3    H222874   5.896   6.897   1.915  0.3221 -0.4420 -1.5716
  439TIP3   OH222875   1.465   0.616   0.113 -0.7863  0.3619 -0.9105
  439TIP3    H122876   1.449   0.686   0.050  0.2414  0.3718 -1.1812
  439TIP3    H222877   1.431   0.650   0.196 -0.9816  0.8689 -1.1933
  440TIP3   OH222878   3.057   4.752   8.000 -0.0901  0.7088  0.3462
  440TIP3    H122879   2.978   4.729   7.952  0.1024 -0.4220  0.5579
  440TIP3    H222880   3.026   4.788   8.083 -0.3929 -1.4693  1.2248
  441TIP3   OH222881   5.272   6.554   8.583 -0.2574 -0.1499 -0.0664
  441TIP3    H122882   5.236   6.504   8.657 -1.7094 -0.1538 -0.7414
  441TIP3    H222883   5.350   6.597   8.619  0.3213 -1.8962  0.8659
  442TIP3   OH222884   1.610   1.022   6.325  0.0592 -0.2334 -0.0767
  442TIP3    H122885   1.636   0.943   6.278  1.1300 -0.0324  0.1512
  442TIP3    H222886   1.680   1.036   6.390  0.0377  1.0432 -0.2956
  443TIP3   OH222887   4.343   0.438   8.435  0.1868 -0.0897 -0.4189
  443TIP3    H122888   4.359   0.371   8.502  1.7659 -0.8936 -1.5316
  443TIP3    H222889   4.252   0.466   8.450  0.1211 -1.0707  1.2978
  444TIP3   OH222890   3.767   3.697   7.792 -0.1556 -0.2661 -0.5964
  444TIP3    H122891   3.840   3.735   7.743 -1.0288  1.1936 -0.7989
  444TIP3    H222892   3.795   3.607   7.809  1.4435  0.0863 -1.1665
  445TIP3   OH222893   3.500   0.654   0.881 -0.2332 -0.1347 -0.6946
  445TIP3    H122894   3.509   0.749   0.885  0.7312 -0.2457  0.2918
  445TIP3    H222895   3.570   0.626   0.822  0.0250 -0.2823 -0.3263
  446TIP3   OH222896   2.528   1.311   8.603  0.3084  0.3564  0.0476
  446TIP3    H122897   2.499   1.225   8.632  1.6235 -0.3913 -0.7612
  446TIP3    H222898   2.454   1.369   8.623 -0.0972 -0.6897  1.7939
  447TIP3   OH222899   2.553   0.532   7.269  0.1690  0.0049 -0.0237
  447TIP3    H122900   2.460   0.553   7.279  0.3167  1.5014 -1.3777
  447TIP3    H222901   2.568   0.534   7.174  1.6538  0.1055  0.1946
  448TIP3   OH222902   0.025   5.748   1.093 -0.1433  0.5032 -0.8979
  448TIP3    H122903   0.062   5.716   1.011  0.6522  2.6228 -1.4487
  448TIP3    H222904  -0.043   5.810   1.066 -1.7755 -0.7878  0.0987
  449TIP3   OH222905   5.608   0.200   7.340 -0.9007 -0.1265 -0.4735
  449TIP3    H122906   5.533   0.212   7.282 -1.9189 -0.7995  0.6727
  449TIP3    H222907   5.582   0.130   7.400  0.1232  0.5321  0.7963
  450TIP3   OH222908   5.142   2.786   7.683 -0.1033  0.6356  0.4348
  450TIP3    H122909   5.204   2.826   7.622  0.1154  0.0170  0.2461
  450TIP3    H222910   5.190   2.779   7.765 -0.0516  0.5103  0.3938
  451TIP3   OH222911   4.980   5.260   7.922  0.4119  0.4673  0.3045
  451TIP3    H122912   5.059   5.258   7.869  0.5116  1.3381  0.3961
  451TIP3    H222913   4.963   5.169   7.945  1.1635  0.2365 -0.0431
  452TIP3   OH222914   4.801   1.676   8.558  0.1930  0.5923 -1.0894
  452TIP3    H122915   4.763   1.609   8.614 -0.9399  1.2197 -1.0739
  452TIP3    H222916   4.892   1.684   8.589  0.7995 -1.8834 -2.0198
  453TIP3   OH222917   5.918   2.415   1.310  0.9515 -0.3609 -0.2082
  453TIP3    H122918   5.883   2.504   1.303 -0.7682 -1.0334 -0.7437
  453TIP3    H222919   5.951   2.396   1.222  0.9231 -0.4035 -0.2094
  454TIP3   OH222920   0.502   5.089   1.599 -1.0446 -0.1323  0.4527
  454TIP3    H122921   0.516   4.995   1.598 -0.7336 -0.0855  0.2020
  454TIP3    H222922   0.550   5.120   1.676 -2.3025 -0.3457  1.3500
  455TIP3   OH222923   1.368   0.092   6.983  0.3538 -0.7414 -0.2308
  455TIP3    H122924   1.386   0.158   7.050 -0.0273 -1.1810  0.3150
  455TIP3    H222925   1.303   0.132   6.926 -0.2574 -0.8259  0.3961
  456TIP3   OH222926   5.759   6.050   7.494  0.2002 -0.7366  0.0455
  456TIP3    H122927   5.814   5.990   7.445  0.8488 -2.6250  2.8006
  456TIP3    H222928   5.670   6.031   7.465  0.4257 -2.9122  0.6158
  457TIP3   OH222929   4.915   3.340   7.452  0.3406  0.1331 -0.2000
  457TIP3    H122930   4.988   3.280   7.438  0.2946  0.1731 -0.6381
  457TIP3    H222931   4.956   3.423   7.474  0.4267  0.1646 -0.4803
  458TIP3   OH222932   2.179   1.492   6.402  0.1327 -0.3761 -0.0805
  458TIP3    H122933   2.178   1.434   6.325 -0.4476 -0.9663  0.3635
  458TIP3    H222934   2.148   1.576   6.368 -0.6909 -0.7898 -0.3809
  459TIP3   OH222935   5.226   5.580   7.480  0.5449 -0.2054  0.2947
  459TIP3    H122936   5.307   5.628   7.464  1.4553 -2.1794 -1.6264
  459TIP3    H222937   5.241   5.535   7.564  0.9059  0.4273  0.5755
  460TIP3   OH222938   5.900   6.274   7.546 -0.4539  0.1688  0.1733
  460TIP3    H122939   5.987   6.241   7.523 -0.2620 -0.2063  1.3879
  460TIP3    H222940   5.842   6.199   7.532 -0.6751  0.5373 -1.0451
  461TIP3   OH222941   2.961   4.085   0.677 -0.0464  0.3076 -0.3623
  461TIP3    H122942   2.897   4.142   0.637  0.0816 -0.3166 -1.4859
  461TIP3    H222943   2.913   4.040   0.747 -1.0488 -0.6764 -1.6413
  462TIP3   OH222944   2.003   1.706   1.602 -0.5977  0.0667  0.0646
  462TIP3    H122945   1.958   1.628   1.569 -1.3401  0.0584  1.0832
  462TIP3    H222946   1.948   1.779   1.574  0.2037  0.2647 -1.0673
  463TIP3   OH222947   5.240   1.288   7.132  0.2802 -0.0660  0.2646
  463TIP3    H122948   5.333   1.268   7.127  0.4947  0.8860  0.2485
  463TIP3    H222949   5.220   1.333   7.050  0.0473  0.6568  0.7085
  464TIP3   OH222950   3.415   2.038   0.685  0.2058  0.2535  0.3030
  464TIP3    H122951   3.478   1.975   0.719  0.6165 -0.1833 -1.2178
  464TIP3    H222952   3.445   2.058   0.596 -1.1419  0.9225 -0.0331
  465TIP3   OH222953   3.312   0.109   6.517  0.3163  0.1851  0.5796
  465TIP3    H122954   3.345   0.195   6.493  0.4271 -0.2372 -0.8942
  465TIP3    H222955   3.367   0.048   6.467  0.0832 -0.7360  1.4119
  466TIP3   OH222956   4.538   5.191   8.427 -0.0351  0.0937 -0.5009
  466TIP3    H122957   4.477   5.260   8.401  1.0427  0.9723 -0.7527
  466TIP3    H222958   4.502   5.111   8.388 -1.4363  0.4404  0.0116
  467TIP3   OH222959   1.238   1.586   6.947 -0.0272 -0.1613 -0.0741
  467TIP3    H122960   1.328   1.569   6.919 -0.1905  0.6180 -1.1211
  467TIP3    H222961   1.186   1.579   6.867 -1.0280 -1.3057  0.6321
  468TIP3   OH222962   5.227   2.457   7.499 -0.6259 -0.3477 -0.1560
  468TIP3    H122963   5.260   2.536   7.458 -3.6924  2.5002  2.2532
  468TIP3    H222964   5.279   2.447   7.579 -0.4462 -0.5597 -0.3002
  469TIP3   OH222965   5.218   5.614   0.896 -0.2260  0.1889  0.1416
  469TIP3    H122966   5.215   5.551   0.824  1.6553  0.8859 -0.6211
  469TIP3    H222967   5.159   5.578   0.962  0.2456 -2.0112 -0.5532
  470TIP3   OH222968   0.181   0.188   1.269  0.2434 -0.2970 -0.3422
  470TIP3    H122969   0.116   0.235   1.217  1.8092  3.4437  0.7346
  470TIP3    H222970   0.265   0.224   1.241  1.4341 -1.1473  1.8918
  471TIP3   OH222971   5.798   4.198   6.597 -0.3961 -0.2368  0.3548
  471TIP3    H122972   5.817   4.104   6.607 -0.8443 -0.2609  1.0381
  471TIP3    H222973   5.717   4.201   6.545 -0.6269 -0.2408  0.7147
  472TIP3   OH222974   2.960   1.970   7.439  0.0685  0.2597 -0.0743
  472TIP3    H122975   2.904   1.945   7.513  0.6447  0.1738  0.3506
  472TIP3    H222976   2.946   2.064   7.429  1.0195  0.5522  1.0699
  473TIP3   OH222977   6.832   1.775   7.029  0.0341  0.2774 -0.5374
  473TIP3    H122978   6.876   1.746   6.949 -0.3574  1.0304 -1.0465
  473TIP3    H222979   6.799   1.863   7.008 -0.5705  0.2603  0.2570
  474TIP3   OH222980   4.886   4.403   8.230 -0.0151 -0.2296  0.1015
  474TIP3    H122981   4.978   4.380   8.219 -0.1126 -1.4698  1.5043
  474TIP3    H222982   4.876   4.488   8.188  1.9742  0.3437  0.7190
  475TIP3   OH222983   6.623   2.019   0.171  0.2598 -0.3545 -0.2490
  475TIP3    H122984   6.625   1.926   0.196 -2.1964  0.0210  1.6825
  475TIP3    H222985   6.602   2.065   0.252  1.1797  1.9183 -1.2221
  476TIP3   OH222986   3.566   0.177   7.031  0.5292  0.0759 -0.3785
  476TIP3    H122987   3.553   0.191   6.937  1.0102  0.0324 -0.4517
  476TIP3    H222988   3.489   0.216   7.072  0.2149 -0.0968 -0.8053
  477TIP3   OH222989   5.584   3.028   7.976 -0.2260  0.1313 -0.4769
  477TIP3    H122990   5.571   2.951   7.920  1.3592 -0.0795 -0.5850
  477TIP3    H222991   5.502   3.034   8.025 -1.8547  0.5317 -3.0120
  478TIP3   OH222992   5.623   6.524   7.838  0.2411 -0.9158  0.4487
  478TIP3    H122993   5.634   6.493   7.748 -1.3883  2.0005 -0.8766
  478TIP3    H222994   5.642   6.618   7.833 -2.1740 -0.2210  2.6284
  479TIP3   OH222995   1.519   1.405   0.364 -0.4802 -0.2529  0.1440
  479TIP3    H122996   1.425   1.422   0.366 -0.3533  0.3894  1.2876
  479TIP3    H222997   1.536   1.379   0.273 -2.0262 -2.0473  0.3134
  480TIP3   OH222998   6.373   1.432   2.816 -0.1127  0.6734  0.2208
  480TIP3    H122999   6.395   1.445   2.908 -1.3679  1.1806  0.4765
  480TIP3    H223000   6.426   1.357   2.789 -0.1107  0.1788  1.5061
  481TIP3   OH223001   6.372   1.761   0.458 -0.6077 -0.5215  0.1713
  481TIP3    H123002   6.459   1.760   0.418  0.5747 -0.4138  2.5569
  481TIP3    H223003   6.324   1.692   0.413 -0.1085  0.9573 -2.8240
  482TIP3   OH223004   3.408   1.783   8.486 -0.1511 -0.2679 -0.1926
  482TIP3    H123005   3.504   1.780   8.491 -0.1729 -2.7191  0.2820
  482TIP3    H223006   3.380   1.791   8.577 -0.3765 -0.8369 -0.2059
  483TIP3   OH223007   3.185   4.861   1.687  1.1489  0.3017  0.1577
  483TIP3    H123008   3.177   4.769   1.713 -0.7444  0.5289  0.4586
  483TIP3    H223009   3.180   4.910   1.769 -1.3909  0.8303 -0.2474
  484TIP3   OH223010   1.555   6.358   0.028 -0.4929  0.1131  0.0922
  484TIP3    H123011   1.644   6.337  -0.001 -0.5472 -0.6176  0.4321
  484TIP3    H223012   1.551   6.453   0.024  0.3950  0.1734  0.3211
  485TIP3   OH223013   0.879   0.880   0.452 -0.3052 -0.0275 -0.7035
  485TIP3    H123014   0.850   0.963   0.416  1.2020  0.1756 -1.5262
  485TIP3    H223015   0.893   0.897   0.545  0.2332  0.7129 -0.9125
  486TIP3   OH223016   4.174   2.882   8.704 -1.0104 -0.4076  0.5065
  486TIP3    H123017   4.184   2.787   8.713 -1.2369 -0.5790 -0.8043
  486TIP3    H223018   4.237   2.906   8.635 -1.4084  0.2991  0.3779
  487TIP3   OH223019   5.539   0.248   8.341 -0.4317 -0.4707 -0.1421
  487TIP3    H123020   5.498   0.243   8.426 -1.6137 -0.3326 -0.6895
  487TIP3    H223021   5.574   0.338   8.336  0.2973 -0.7140  0.4763
  488TIP3   OH223022   0.202   2.470   7.311  0.8657 -0.7099  0.1432
  488TIP3    H123023   0.274   2.410   7.296 -0.1463 -1.9106 -0.1050
  488TIP3    H223024   0.123   2.417   7.299 -0.0730  0.6343  0.0523
  489TIP3   OH223025   4.832   1.503   0.080 -0.2152 -0.1092  0.3536
  489TIP3    H123026   4.924   1.526   0.092 -0.6744  2.1475  0.1788
  489TIP3    H223027   4.808   1.456   0.160  0.6466  0.9547  1.2757
  490TIP3   OH223028   3.323   1.430   1.743  0.6244 -0.9342  0.1984
  490TIP3    H123029   3.273   1.511   1.752  1.5151 -0.1878 -1.2631
  490TIP3    H223030   3.379   1.427   1.820 -0.3044 -0.8317  0.9000
  491TIP3   OH223031   1.596   2.071   1.258 -0.2188 -0.2843 -0.0822
  491TIP3    H123032   1.636   2.011   1.322 -0.3489 -1.6309 -1.2294
  491TIP3    H223033   1.543   2.130   1.311 -0.3002 -1.3454  1.0676
  492TIP3   OH223034   1.387   4.914   7.385 -0.4322  0.0189  0.3709
  492TIP3    H123035   1.351   4.987   7.336  1.6348  0.6566 -0.3088
  492TIP3    H223036   1.481   4.930   7.387  0.4906 -3.7940 -1.9161
  493TIP3   OH223037   1.152   3.510   0.071  0.0665 -0.0812 -0.2519
  493TIP3    H123038   1.091   3.525   0.142  1.8250  1.6559  0.9814
  493TIP3    H223039   1.200   3.592   0.062  2.2993 -1.3732 -1.0581
  494TIP3   OH223040   1.429   2.450   6.431  0.4524 -0.3090 -0.3699
  494TIP3    H123041   1.507   2.396   6.440 -0.2451 -1.3456 -0.3315
  494TIP3    H223042   1.384   2.414   6.355 -1.0960 -1.2014  0.9073
  495TIP3   OH223043   3.775   3.953   0.788 -0.0722  0.2874  0.5996
  495TIP3    H123044   3.870   3.968   0.790  0.2462 -0.8742 -1.8318
  495TIP3    H223045   3.764   3.877   0.731 -2.4784  0.2276  1.0321
  496TIP3   OH223046   4.274   0.600   0.258 -0.4535 -0.0447  0.3247
  496TIP3    H123047   4.319   0.640   0.183  0.4019 -2.8497 -0.8165
  496TIP3    H223048   4.181   0.616   0.242 -0.1488  2.1892  0.4646
  497TIP3   OH223049   4.996   1.353   7.295 -0.3577  0.4358  0.4181
  497TIP3    H123050   5.023   1.306   7.216  1.0618  0.7415  0.6888
  497TIP3    H223051   4.938   1.292   7.341 -1.5419  0.4239 -1.0503
  498TIP3   OH223052   2.443   0.268   7.111 -0.1523 -0.2365 -0.4351
  498TIP3    H123053   2.491   0.190   7.083 -0.8450 -0.2675 -1.5892
  498TIP3    H223054   2.477   0.339   7.056  0.0188  0.1604  0.1640
  499TIP3   OH223055   2.821   6.583   0.795  0.1642  0.2017 -0.1334
  499TIP3    H123056   2.802   6.634   0.716 -0.7425 -0.3599 -0.2947
  499TIP3    H223057   2.760   6.618   0.860  0.5905  0.3490  0.1892
  500TIP3   OH223058   6.358   0.964   1.670  0.0391 -0.0244  0.6083
  500TIP3    H123059   6.412   1.041   1.651 -0.8029  0.4492  0.0817
  500TIP3    H223060   6.272   0.986   1.634 -0.9209 -0.1579  2.7043
  501TIP3   OH223061   5.864   2.261   7.989 -0.2283  0.2612 -0.5902
  501TIP3    H123062   5.784   2.275   7.939 -1.1867 -1.4432  0.3591
  501TIP3    H223063   5.837   2.267   8.081  0.8660  0.2957 -0.2530
  502TIP3   OH223064   6.211   0.102   7.079  0.6697 -0.0732  0.0323
  502TIP3    H123065   6.216   0.161   7.003 -0.0300  1.1375  0.8979
  502TIP3    H223066   6.285   0.129   7.134  0.8149 -0.5506  0.0725
  503TIP3   OH223067   4.505   4.142   7.296  0.1771  0.0682  0.1342
  503TIP3    H123068   4.460   4.217   7.256 -1.1608 -1.2743 -0.9908
  503TIP3    H223069   4.502   4.160   7.390  1.0505  2.0210 -0.1522
  504TIP3   OH223070   6.018   3.110   2.181  0.6732 -0.1646  0.0802
  504TIP3    H123071   6.048   3.194   2.216 -4.0846  3.1750 -2.7276
  504TIP3    H223072   5.973   3.068   2.254  1.4829  0.6238  1.0606
  505TIP3   OH223073   4.726   3.589   7.902  0.3811  0.0611 -0.1677
  505TIP3    H123074   4.816   3.599   7.872  0.0583  0.5720 -0.9973
  505TIP3    H223075   4.717   3.650   7.974  0.2943  1.0884 -1.0234
  506TIP3   OH223076   3.779   3.152   1.815  0.3646  0.8051  0.1143
  506TIP3    H123077   3.794   3.172   1.723  0.9856 -1.1040 -0.2478
  506TIP3    H223078   3.735   3.067   1.814 -1.1826  1.5393  1.5483
  507TIP3   OH223079   0.682   6.710   7.515  0.1467  0.0530  0.9162
  507TIP3    H123080   0.737   6.772   7.564  0.9954 -0.5799  0.7813
  507TIP3    H223081   0.744   6.650   7.474 -0.5183  0.8792 -1.4110
  508TIP3   OH223082   6.357   6.191   0.911 -0.5651 -0.1805 -0.1104
  508TIP3    H123083   6.340   6.111   0.861  0.4439 -0.0384 -0.7039
  508TIP3    H223084   6.452   6.198   0.915 -0.6361  0.7455  0.3370
  509TIP3   OH223085   6.464   0.152   6.790 -0.4040  0.4799  0.6236
  509TIP3    H123086   6.522   0.134   6.864 -1.0590 -0.3871  0.9557
  509TIP3    H223087   6.471   0.074   6.735  0.0141  1.0834 -0.1980
  510TIP3   OH223088   4.126   3.908   6.765  0.0700 -0.2981  0.6651
  510TIP3    H123089   4.124   3.988   6.818  1.9058 -1.6607  2.9888
  510TIP3    H223090   4.039   3.871   6.774  0.3711 -0.5986  3.0642
  511TIP3   OH223091   5.659   5.043   2.355  0.2320  0.3291  0.5908
  511TIP3    H123092   5.646   5.036   2.450  0.9466 -1.2474  0.6102
  511TIP3    H223093   5.579   5.007   2.317 -1.2498  3.3823  0.4814
  512TIP3   OH223094   0.320   3.959   8.542  0.3017 -0.3702  0.2034
  512TIP3    H123095   0.398   3.930   8.494 -0.5675  0.8273 -2.0422
  512TIP3    H223096   0.286   4.032   8.491 -2.3154 -0.8498  1.1139
  513TIP3   OH223097   2.066   3.298   1.128  0.4940 -0.0403 -0.2968
  513TIP3    H123098   2.101   3.387   1.136  1.1106 -0.3581  0.7045
  513TIP3    H223099   1.985   3.300   1.178 -0.4495  0.4212 -1.7744
  514TIP3   OH223100   1.840   1.106   1.377  0.3943  0.2187  0.2350
  514TIP3    H123101   1.815   1.187   1.421 -2.3858 -1.5706  2.2609
  514TIP3    H223102   1.864   1.047   1.448 -0.6902 -1.6586 -0.8992
  515TIP3   OH223103   4.960   0.037   8.136  0.0200 -0.3122  0.2868
  515TIP3    H123104   5.024   0.035   8.207  0.2938 -0.1520  0.0490
  515TIP3    H223105   4.906   0.114   8.154  0.1214 -0.2425  0.2889
  516TIP3   OH223106   3.944   0.645   7.978  0.0435 -0.2828  0.1153
  516TIP3    H123107   4.026   0.689   8.003  0.4185  0.1486 -1.7422
  516TIP3    H223108   3.897   0.635   8.061  0.6663  2.1174  0.8498
  517TIP3   OH223109   4.439   6.728   1.162  0.2172  0.6037  0.0559
  517TIP3    H123110   4.492   6.772   1.095  0.8911  0.2601  0.3595
  517TIP3    H223111   4.412   6.799   1.221  1.7877  0.5531  0.8741
  518TIP3   OH223112   1.935   6.485   7.421 -0.2807  0.2873  0.0324
  518TIP3    H123113   1.927   6.390   7.410 -0.1707  0.2254  0.4627
  518TIP3    H223114   2.006   6.510   7.362 -0.3456  0.1125 -0.1227
  519TIP3   OH223115   4.329   2.085   8.452  0.3686 -0.0338 -0.5803
  519TIP3    H123116   4.389   2.114   8.521 -1.1847 -0.1074  0.8724
  519TIP3    H223117   4.385   2.040   8.389  1.7444 -0.8025  1.1013
  520TIP3   OH223118   0.193   0.573   7.652 -0.2643  0.2210 -0.6163
  520TIP3    H123119   0.212   0.482   7.677 -1.7793  0.0919  0.1966
  520TIP3    H223120   0.159   0.567   7.563  0.5340  0.1158 -0.9232
  521TIP3   OH223121   4.211   5.117   2.418  0.2351  0.2651 -0.4724
  521TIP3    H123122   4.262   5.040   2.392 -1.1404 -1.0856  0.6533
  521TIP3    H223123   4.266   5.163   2.481  1.0685  0.2187 -1.1519
  522TIP3   OH223124   1.720   5.834   7.656 -0.3949  0.2346  0.4736
  522TIP3    H123125   1.641   5.832   7.601 -0.2514  0.0573  0.2713
  522TIP3    H223126   1.750   5.924   7.651 -0.1414  0.1258 -0.0914
  523TIP3   OH223127   0.405   4.400   1.541 -0.3395 -0.8290 -0.7548
  523TIP3    H123128   0.420   4.494   1.557  0.7481 -0.9643 -0.9626
  523TIP3    H223129   0.315   4.396   1.508 -1.0423 -0.0542  0.9563
  524TIP3   OH223130   5.378   0.296   8.124 -0.0994  0.9655 -0.3216
  524TIP3    H123131   5.445   0.276   8.189 -0.3129 -0.0037 -0.3777
  524TIP3    H223132   5.421   0.355   8.063  0.2252  1.5804  0.4760
  525TIP3   OH223133   5.438   3.003   0.727 -0.1142  0.2088  0.1431
  525TIP3    H123134   5.469   2.912   0.727 -0.1352  0.2019  0.2888
  525TIP3    H223135   5.513   3.054   0.698 -0.1286  0.1366 -0.0261
  526TIP3   OH223136   0.118   4.407   6.802 -0.1895 -0.1183 -0.3327
  526TIP3    H123137   0.076   4.352   6.736 -1.7423 -2.6934  2.5359
  526TIP3    H223138   0.212   4.395   6.787 -0.4963 -2.3741 -0.8013
  527TIP3   OH223139   1.673   0.142   8.252  0.0337  0.1278 -0.2328
  527TIP3    H123140   1.646   0.189   8.173  0.3398 -0.4886 -0.7203
  527TIP3    H223141   1.594   0.135   8.305 -0.5723 -0.8491 -1.2215
  528TIP3   OH223142   5.348   5.494   8.053  0.3253  0.2056 -0.7593
  528TIP3    H123143   5.316   5.407   8.078 -0.7901 -0.1177 -3.1236
  528TIP3    H223144   5.278   5.554   8.080 -0.0428  0.0719 -1.4115
  529TIP3   OH223145   2.133   5.278   8.530 -0.3557  0.1351 -0.2263
  529TIP3    H123146   2.167   5.271   8.619 -0.2552  1.9174 -0.1041
  529TIP3    H223147   2.038   5.289   8.541 -0.8329 -2.7183 -0.5019
  530TIP3   OH223148   3.412   0.521   0.523  0.1828  0.3294  0.5259
  530TIP3    H123149   3.476   0.503   0.454 -0.1575  2.3042 -0.3743
  530TIP3    H223150   3.328   0.496   0.484 -0.0523  1.7825  0.0414
  531TIP3   OH223151   5.471   2.503   0.464 -0.0235  0.0250 -0.4365
  531TIP3    H123152   5.495   2.566   0.532  1.2961 -2.9118  2.0819
  531TIP3    H223153   5.535   2.517   0.394  0.9980  0.6935  0.5987
  532TIP3   OH223154   6.819   1.523   0.151 -0.3200 -0.9327 -0.1372
  532TIP3    H123155   6.751   1.468   0.115 -0.6862 -0.3551 -0.3433
  532TIP3    H223156   6.901   1.476   0.134 -0.5847 -1.1706 -0.7496
  533TIP3   OH223157   2.052   3.813   6.639  0.3710  0.0529 -0.0887
  533TIP3    H123158   1.975   3.861   6.669 -0.2089  0.4203 -2.0155
  533TIP3    H223159   2.016   3.731   6.605  0.9358 -0.1586 -0.1809
  534TIP3   OH223160   4.745   3.301   0.451 -0.1190 -1.0690  0.0032
  534TIP3    H123161   4.686   3.376   0.448 -0.3397 -1.2468 -0.1260
  534TIP3    H223162   4.742   3.273   0.543  2.3069  0.9276  0.7904
  535TIP3   OH223163   2.919   2.695   5.836 -0.2008  0.2481 -0.3145
  535TIP3    H123164   2.973   2.649   5.901 -0.8830 -2.3699 -1.4630
  535TIP3    H223165   2.928   2.788   5.859  2.2718 -0.3020  1.4210
  536TIP3   OH223166   0.886   3.791   2.203 -0.1321 -0.0632  0.4855
  536TIP3    H123167   0.840   3.873   2.180  2.0237  1.3748  1.0194
  536TIP3    H223168   0.842   3.761   2.283 -0.6133  0.8881  0.6016
  537TIP3   OH223169   5.844   6.678   0.033  0.4162  0.2697 -0.2707
  537TIP3    H123170   5.772   6.624   0.002  0.5961  0.7174 -1.5440
  537TIP3    H223171   5.852   6.657   0.126  0.2209 -1.5829 -0.6290
  538TIP3   OH223172   0.479   4.161   1.764 -0.6844  0.4084 -0.1148
  538TIP3    H123173   0.502   4.233   1.822 -1.0351  0.1202  0.3896
  538TIP3    H223174   0.388   4.141   1.786 -0.0317 -1.4557  1.1302
  539TIP3   OH223175   2.433   3.982   0.382 -0.1850  0.1243 -0.1183
  539TIP3    H123176   2.424   4.028   0.299 -0.6859  0.3836  0.0774
  539TIP3    H223177   2.441   3.890   0.357  0.0802  0.2388 -0.4717
  540TIP3   OH223178   0.086   5.290   0.242 -0.1237  0.0403 -0.2698
  540TIP3    H123179   0.065   5.295   0.335 -0.0951  0.8257 -0.2986
  540TIP3    H223180   0.165   5.343   0.232  0.1927 -0.5001 -0.6470
  541TIP3   OH223181   5.325   4.830   7.650 -0.3556 -0.4602 -0.6317
  541TIP3    H123182   5.319   4.922   7.674 -1.4689 -0.5776 -0.3858
  541TIP3    H223183   5.393   4.794   7.707  0.7649  0.3920 -1.3889
  542TIP3   OH223184   3.381   1.641   0.859 -0.8982 -0.2420  0.1548
  542TIP3    H123185   3.397   1.610   0.770  0.3482  0.8627 -0.0341
  542TIP3    H223186   3.286   1.655   0.863 -1.0489 -0.9187 -0.7781
  543TIP3   OH223187   3.224   4.415   1.433 -0.1287  0.2816 -0.0847
  543TIP3    H123188   3.132   4.389   1.439  0.1142 -0.2155  3.2239
  543TIP3    H223189   3.257   4.410   1.523  3.2807  0.0146 -1.1835
  544TIP3   OH223190   1.865   4.301   0.419  0.9759  0.1555  0.2849
  544TIP3    H123191   1.805   4.364   0.379  0.8341  0.2754  0.6856
  544TIP3    H223192   1.808   4.246   0.474  1.0059 -0.6758 -0.4784
  545TIP3   OH223193   2.802   0.383   0.858  0.1097  0.0515  0.4436
  545TIP3    H123194   2.896   0.397   0.863  0.2198 -0.8390  1.0771
  545TIP3    H223195   2.764   0.460   0.901  0.5736  0.1025  0.7729
  546TIP3   OH223196   4.025   2.770   0.870  0.1239 -0.5827  0.3277
  546TIP3    H123197   4.020   2.769   0.775 -0.3038  0.9152  0.3011
  546TIP3    H223198   3.944   2.813   0.898  0.3498 -0.7825  1.3539
  547TIP3   OH223199   0.611   5.400   8.461 -0.5715 -0.6675 -0.4738
  547TIP3    H123200   0.536   5.381   8.404 -0.1253 -1.2155 -0.8978
  547TIP3    H223201   0.581   5.375   8.549 -0.5619 -1.8429 -0.7841
  548TIP3   OH223202   6.134   4.306   0.770 -0.0780 -0.3734  0.0167
  548TIP3    H123203   6.099   4.392   0.747 -2.4978 -1.2200  0.1909
  548TIP3    H223204   6.193   4.323   0.843 -2.9921  0.9191  2.3322
  549TIP3   OH223205   0.682   3.063   7.661 -0.1942 -0.3086 -0.2923
  549TIP3    H123206   0.733   3.097   7.588  2.5754 -0.5864  1.3616
  549TIP3    H223207   0.682   2.968   7.648  2.0513 -0.5446  1.0207
  550TIP3   OH223208   4.560   6.803   8.215 -0.2603 -0.3886  0.2009
  550TIP3    H123209   4.574   6.811   8.121  1.0209 -0.7136  0.3408
  550TIP3    H223210   4.469   6.828   8.228 -0.2648  0.3433 -1.0400
  551TIP3   OH223211   6.307   0.978   0.156 -0.0611  0.0649 -0.5190
  551TIP3    H123212   6.335   0.900   0.107 -1.8070 -1.0762  0.1724
  551TIP3    H223213   6.220   0.997   0.121 -0.6105  0.2869  0.8866
  552TIP3   OH223214   3.554   2.026   7.712  0.6237  0.1034  0.2773
  552TIP3    H123215   3.576   2.009   7.804  0.0433 -0.1258  0.3796
  552TIP3    H223216   3.571   1.942   7.669  1.5347  0.3990  0.0475
  553TIP3   OH223217   1.820   0.592   1.043 -0.0106 -0.0494  0.0723
  553TIP3    H123218   1.749   0.653   1.064 -0.2848  0.0447 -1.0209
  553TIP3    H223219   1.779   0.525   0.988  1.0095  0.8914 -1.9673
  554TIP3   OH223220   1.978   5.867   0.078 -0.4916  0.2640 -0.3446
  554TIP3    H123221   1.988   5.944   0.022 -1.8947  1.1376  0.5472
  554TIP3    H223222   2.052   5.873   0.139 -0.1337  0.4421 -0.7888
  555TIP3   OH223223   5.835   4.296   7.935  0.3616  0.6583  0.6805
  555TIP3    H123224   5.822   4.204   7.915 -1.6884  1.2981 -1.3179
  555TIP3    H223225   5.803   4.306   8.025 -0.3521 -0.3938  0.5539
  556TIP3   OH223226   5.819   1.856   8.437  0.2743 -0.4301  0.0691
  556TIP3    H123227   5.810   1.944   8.400  0.0560 -0.3650  0.2739
  556TIP3    H223228   5.908   1.829   8.415  0.1707 -0.3665 -0.4505
  557TIP3   OH223229   3.420   2.167   8.301  0.1154  0.0487  0.3885
  557TIP3    H123230   3.510   2.186   8.275  0.1833 -1.5409 -0.6905
  557TIP3    H223231   3.368   2.180   8.222 -0.3422 -0.6190  0.5650
  558TIP3   OH223232   0.642   1.764   1.912 -0.1823  0.6517 -0.6003
  558TIP3    H123233   0.660   1.791   2.002 -0.2640 -1.6575  0.1630
  558TIP3    H223234   0.566   1.816   1.886  1.1759  3.0037 -0.1914
  559TIP3   OH223235   0.002   2.222   0.865  0.0698 -0.0118  0.2410
  559TIP3    H123236   0.027   2.269   0.786 -0.0879 -0.8947 -0.3465
  559TIP3    H223237  -0.093   2.212   0.859 -0.0238  0.4792  0.8591
  560TIP3   OH223238   2.108   1.657   8.678 -0.2409 -0.5057 -0.4643
  560TIP3    H123239   2.073   1.722   8.616  1.0111  0.2774 -0.3699
  560TIP3    H223240   2.035   1.597   8.692 -1.4786  0.9382 -0.4713
  561TIP3   OH223241   5.850   4.146   0.485  0.5350 -0.0245 -0.4922
  561TIP3    H123242   5.919   4.167   0.423  1.0983 -0.1487  0.0759
  561TIP3    H223243   5.809   4.067   0.449  0.3958  0.3056 -1.0626
  562TIP3   OH223244   6.257   4.722   0.857 -0.5247  0.2521 -0.1714
  562TIP3    H123245   6.261   4.670   0.937 -2.4124  1.5977  0.8773
  562TIP3    H223246   6.201   4.796   0.879 -0.1307  1.3075 -2.4050
  563TIP3   OH223247   5.331   4.361   8.455 -0.0712  0.1577  0.2713
  563TIP3    H123248   5.256   4.314   8.493  0.0758 -1.1628 -0.9758
  563TIP3    H223249   5.305   4.453   8.457 -0.9108 -0.0733  1.6275
  564TIP3   OH223250   3.402   0.135   6.778 -0.3183  0.2615 -0.2336
  564TIP3    H123251   3.322   0.139   6.831  0.1248  2.1432  0.4004
  564TIP3    H223252   3.371   0.124   6.688 -1.2615  0.3622  0.0734
  565TIP3   OH223253   4.370   4.369   1.835 -0.1682  0.6332 -0.3673
  565TIP3    H123254   4.308   4.388   1.764 -2.9408 -2.8367  0.8563
  565TIP3    H223255   4.345   4.430   1.904 -0.1036  1.3241 -0.9305
  566TIP3   OH223256   3.723   0.817   7.530 -0.6084 -0.1726 -0.4473
  566TIP3    H123257   3.739   0.904   7.567 -0.1471 -0.6930  0.6038
  566TIP3    H223258   3.664   0.833   7.457 -2.2781  0.8218  1.0332
  567TIP3   OH223259   0.983   1.951   7.307  1.1684  0.0578 -0.0442
  567TIP3    H123260   0.928   1.901   7.368  0.8657 -0.3004 -0.5972
  567TIP3    H223261   0.940   1.940   7.222 -0.0207  2.8541  0.0828
  568TIP3   OH223262   2.581   1.369   6.753  0.7633  0.3617  0.1358
  568TIP3    H123263   2.564   1.443   6.694 -1.9403  0.5011  0.9193
  568TIP3    H223264   2.587   1.293   6.695 -0.6277  0.6644 -0.4613
  569TIP3   OH223265   2.269   0.259   7.328 -0.5498  0.2611  0.0236
  569TIP3    H123266   2.323   0.205   7.386 -0.9557 -0.0292  0.1344
  569TIP3    H223267   2.327   0.281   7.255  0.0163  0.7643  0.6154
  570TIP3   OH223268   1.566   4.949   0.206  0.1868  0.3682 -0.7088
  570TIP3    H123269   1.570   4.867   0.255  0.3455 -0.5714 -2.2167
  570TIP3    H223270   1.610   5.013   0.261 -0.0752 -0.5217  0.5700
  571TIP3   OH223271   5.568   5.146   1.246 -0.2525 -0.0890  0.4084
  571TIP3    H123272   5.648   5.095   1.229  1.4884  1.6714  2.6564
  571TIP3    H223273   5.576   5.222   1.188 -0.7254 -0.2997  0.0628
  572TIP3   OH223274   2.656   3.891   8.298  0.2633  0.1308 -1.0781
  572TIP3    H123275   2.591   3.957   8.324  1.4060  0.9740 -0.2307
  572TIP3    H223276   2.625   3.810   8.337  0.2653  0.7464  0.2761
  573TIP3   OH223277   2.303   2.135   0.744 -0.0881 -0.4937  0.7342
  573TIP3    H123278   2.391   2.098   0.739  0.5776  1.0933  0.2053
  573TIP3    H223279   2.282   2.133   0.838  0.8243 -0.1872  0.9573
  574TIP3   OH223280   3.708   0.686   7.769 -0.1055 -0.2887 -0.1381
  574TIP3    H123281   3.763   0.695   7.847 -0.5054  0.4275  0.0650
  574TIP3    H223282   3.722   0.767   7.721 -0.9876 -0.1082 -0.0909
  575TIP3   OH223283   0.678   1.804   1.508  0.7050  0.1517  0.1490
  575TIP3    H123284   0.690   1.734   1.571  0.6365  0.3546  0.3923
  575TIP3    H223285   0.619   1.866   1.552  0.0368 -0.0752 -0.4095
  576TIP3   OH223286   3.047   3.769   7.411  0.4071  0.1290 -0.4137
  576TIP3    H123287   3.026   3.688   7.458  1.6005 -1.0513 -1.8229
  576TIP3    H223288   3.116   3.809   7.464  1.2267 -0.8131 -0.7419
  577TIP3   OH223289   3.797   6.624   8.220 -0.0931 -0.6368  0.3381
  577TIP3    H123290   3.845   6.694   8.177  0.2519 -0.2787  1.2868
  577TIP3    H223291   3.717   6.614   8.168  0.2926 -0.1940 -0.3494
  578TIP3   OH223292   5.694   5.433   6.821 -0.1572 -0.0983 -0.2637
  578TIP3    H123293   5.754   5.500   6.788  0.7522 -0.6000  0.3192
  578TIP3    H223294   5.735   5.402   6.902 -0.4923 -1.4187 -0.5747
  579TIP3   OH223295   1.809   3.776   0.235 -0.1009 -0.4552  0.4389
  579TIP3    H123296   1.752   3.842   0.273  2.0854  1.9372 -0.1536
  579TIP3    H223297   1.856   3.739   0.310 -1.4645 -1.5795  0.7924
  580TIP3   OH223298   5.103   0.473   6.167 -0.0359  0.2274  0.3457
  580TIP3    H123299   5.107   0.378   6.183 -0.3526  0.0083 -0.8001
  580TIP3    H223300   5.037   0.482   6.098  0.3164  1.2521  0.1410
  581TIP3   OH223301   5.423   0.416   1.482  0.4181 -0.6256  0.1465
  581TIP3    H123302   5.492   0.447   1.542 -0.4050 -1.3302  1.4958
  581TIP3    H223303   5.465   0.415   1.397  1.3330  1.4501  0.4942
  582TIP3   OH223304   5.256   2.322   0.344  0.3988 -0.1756  0.2347
  582TIP3    H123305   5.195   2.389   0.310  1.3747  1.1145  0.9371
  582TIP3    H223306   5.329   2.372   0.379  0.5125 -1.5680  2.1032
  583TIP3   OH223307   5.132   4.289   7.939 -0.0578  0.0869  0.2359
  583TIP3    H123308   5.156   4.359   7.878 -0.5162  0.4917  0.5089
  583TIP3    H223309   5.117   4.334   8.022 -2.1128 -0.0690  0.0035
  584TIP3   OH223310   2.716   5.498   1.265 -0.1248  0.1100 -0.1312
  584TIP3    H123311   2.666   5.465   1.339 -0.2978 -0.4570 -0.4940
  584TIP3    H223312   2.758   5.420   1.228  0.3147  0.4507 -0.3602
  585TIP3   OH223313   6.585   5.749   8.453  0.2317  0.7374 -0.1928
  585TIP3    H123314   6.655   5.719   8.510 -0.8189 -1.5564  0.0024
  585TIP3    H223315   6.575   5.842   8.474  0.3008  0.1515  2.9824
  586TIP3   OH223316   1.009   1.362   1.100 -0.3621 -0.4549  0.5476
  586TIP3    H123317   0.993   1.411   1.181  2.2455  0.3259  0.6593
  586TIP3    H223318   1.046   1.426   1.040 -2.7257 -0.8922 -1.5300
  587TIP3   OH223319   5.698   0.703   7.533 -0.0456  0.0532  0.0336
  587TIP3    H123320   5.675   0.625   7.482 -2.4563  2.1931 -2.4937
  587TIP3    H223321   5.632   0.707   7.602  1.3681 -1.1914  1.5263
  588TIP3   OH223322   3.086   0.178   7.409  0.5219  0.5492 -0.5478
  588TIP3    H123323   3.178   0.158   7.429  1.1463  2.7087 -1.0150
  588TIP3    H223324   3.068   0.259   7.457 -1.6166 -0.5622  0.6731
  589TIP3   OH223325   5.443   1.358   7.489 -0.6137  0.3287 -0.3287
  589TIP3    H123326   5.454   1.412   7.411  0.0077 -1.6560 -1.6726
  589TIP3    H223327   5.530   1.325   7.509 -1.0470 -0.5648  0.1719
  590TIP3   OH223328   1.374   1.496   1.938 -0.5807 -0.4141 -0.3924
  590TIP3    H123329   1.311   1.436   1.979  0.3233 -0.2197  1.3656
  590TIP3    H223330   1.368   1.576   1.990  0.1221  0.1110 -1.0967
  591TIP3   OH223331   3.750   4.658   6.515  0.4026 -0.1734  0.7901
  591TIP3    H123332   3.681   4.640   6.451  1.6039  0.8994 -0.8964
  591TIP3    H223333   3.755   4.578   6.567 -0.1711 -1.4033 -0.9269
  592TIP3   OH223334   0.623   4.249   0.533 -0.1582  0.2912  0.2937
  592TIP3    H123335   0.647   4.337   0.506  2.0119 -0.1706  0.5349
  592TIP3    H223336   0.654   4.242   0.623  2.1726 -1.5021 -0.5319
  593TIP3   OH223337   1.091   2.313   1.952  0.3177  0.2911 -0.6392
  593TIP3    H123338   1.185   2.305   1.936  0.2528 -0.7519 -0.5519
  593TIP3    H223339   1.063   2.226   1.981 -0.3656  1.0119  1.0220
  594TIP3   OH223340   5.307   2.564   6.553 -0.7397  0.0384  0.3835
  594TIP3    H123341   5.325   2.651   6.588  0.0902 -0.1965  0.5468
  594TIP3    H223342   5.217   2.571   6.518 -1.2851  0.4921  1.8144
  595TIP3   OH223343   0.369   3.560   6.502 -0.1239  0.2571 -0.0807
  595TIP3    H123344   0.304   3.625   6.529  1.5227  2.2611 -0.6762
  595TIP3    H223345   0.452   3.594   6.535  1.0161 -0.7170 -1.7973
  596TIP3   OH223346   0.888   4.273   1.740  0.0614 -0.4299 -0.1165
  596TIP3    H123347   0.797   4.255   1.719  0.0882 -0.8469  0.1183
  596TIP3    H223348   0.937   4.244   1.662  0.0352 -0.6648 -0.0470
  597TIP3   OH223349   0.116   5.543   1.290  0.0629 -0.2979  0.2818
  597TIP3    H123350   0.053   5.479   1.256 -2.1291  1.2534  1.1640
  597TIP3    H223351   0.100   5.622   1.238 -0.2724  0.7777  1.9494
  598TIP3   OH223352   3.275   6.469   2.086 -0.2654 -0.4665  0.0492
  598TIP3    H123353   3.319   6.396   2.041 -0.0611  0.2287 -0.9222
  598TIP3    H223354   3.186   6.469   2.051 -0.1074  0.0784 -0.3647
  599TIP3   OH223355   6.292   5.687   1.624 -0.0651 -0.3092 -0.8090
  599TIP3    H123356   6.251   5.736   1.553 -0.8853  0.1069 -0.0805
  599TIP3    H223357   6.318   5.755   1.687  0.1890 -0.6962 -0.4911
  600TIP3   OH223358   2.387   0.603   1.868  0.5392 -0.2130  0.4480
  600TIP3    H123359   2.390   0.543   1.943  5.0460  1.1250  1.6561
  600TIP3    H223360   2.366   0.688   1.907  1.1866  0.1872 -0.0721
  601TIP3   OH223361   3.147   6.032   0.526 -0.0853 -0.5516  0.2830
  601TIP3    H123362   3.109   5.969   0.588 -0.7686  1.0248  1.5201
  601TIP3    H223363   3.079   6.045   0.460 -0.6989  0.2850  1.0614
  602TIP3   OH223364   3.024   3.281   1.211  0.1996  0.0787  0.1459
  602TIP3    H123365   2.957   3.344   1.188 -0.3667 -0.1540  1.0935
  602TIP3    H223366   2.976   3.207   1.250  1.0487  0.3860  1.8735
  603TIP3   OH223367   2.378   4.062   8.112 -0.4418 -0.1571  0.8531
  603TIP3    H123368   2.311   3.995   8.127  1.9300 -2.2682  2.7474
  603TIP3    H223369   2.448   4.017   8.065  0.0133  1.8350 -0.5335
  604TIP3   OH223370   3.518   3.255   1.040 -0.1072  0.8313 -0.4101
  604TIP3    H123371   3.547   3.341   1.072  3.6426 -0.4045  0.0038
  604TIP3    H223372   3.524   3.262   0.945  1.9793  0.6125 -0.3521
  605TIP3   OH223373   6.434   4.939   1.573 -0.0806 -0.0684  0.0220
  605TIP3    H123374   6.436   4.873   1.642 -0.5716 -1.1216 -0.9356
  605TIP3    H223375   6.517   4.928   1.527  1.0392  1.8101  1.4588
  606TIP3   OH223376   0.817   6.531   7.333  0.4855 -0.0960 -0.5943
  606TIP3    H123377   0.802   6.465   7.265 -1.7017  0.5466 -0.8260
  606TIP3    H223378   0.883   6.589   7.296 -0.6633  0.2483 -2.2390
  607TIP3   OH223379   4.729   2.953   8.326  0.1129 -0.1616  0.0254
  607TIP3    H123380   4.741   3.005   8.246 -0.7410 -0.4251 -0.2938
  607TIP3    H223381   4.727   3.018   8.397 -0.6589  0.2253 -0.3401
  608TIP3   OH223382   5.758   5.443   8.317 -0.3208 -0.2577 -0.3136
  608TIP3    H123383   5.678   5.471   8.274 -0.2533  0.5498  0.0631
  608TIP3    H223384   5.817   5.517   8.309 -0.0094 -0.4136  0.4011
  609TIP3   OH223385   3.085   3.045   0.056  0.8849  0.1100 -0.5076
  609TIP3    H123386   3.170   3.055   0.099  1.3307  0.5029 -1.4542
  609TIP3    H223387   3.066   3.132   0.020  0.4151 -0.1587 -0.9176
  610TIP3   OH223388   4.080   5.971   2.177  0.3425  0.1397 -0.3349
  610TIP3    H123389   4.010   6.016   2.130 -0.1826 -2.2617 -2.0530
  610TIP3    H223390   4.124   5.918   2.110  1.0185 -1.7183  1.4656
  611TIP3   OH223391   6.677   1.554   6.457 -0.6735 -0.2100 -0.0673
  611TIP3    H123392   6.644   1.613   6.389  1.3946  1.1310 -0.0132
  611TIP3    H223393   6.648   1.593   6.539 -2.3300 -1.2943 -0.0799
  612TIP3   OH223394   2.735   4.790   1.759  0.2389  0.7966  0.1871
  612TIP3    H123395   2.664   4.782   1.821  0.2316 -0.1073  0.0721
  612TIP3    H223396   2.801   4.844   1.804 -0.3417  1.3043  0.4367
  613TIP3   OH223397   6.240   4.533   2.243  0.2159  0.1812 -0.1890
  613TIP3    H123398   6.269   4.588   2.170  2.6134 -0.6747  0.0216
  613TIP3    H223399   6.196   4.459   2.201 -0.5992  0.9098 -0.6214
  614TIP3   OH223400   0.799   4.474   7.533  0.0557 -0.1208  0.1807
  614TIP3    H123401   0.823   4.485   7.441  0.2102 -0.4555  0.1793
  614TIP3    H223402   0.724   4.532   7.546 -1.0642 -1.3513 -0.6004
  615TIP3   OH223403   0.039   4.175   1.454  0.0190 -0.1120 -0.3387
  615TIP3    H123404   0.048   4.269   1.442 -1.8513 -0.1907 -2.9911
  615TIP3    H223405  -0.055   4.160   1.462  0.2878 -1.7684  0.1632
  616TIP3   OH223406   3.983   0.653   0.553  0.0319 -0.4645  0.0836
  616TIP3    H123407   4.025   0.732   0.518 -0.5251  0.3049  1.1087
  616TIP3    H223408   4.004   0.654   0.646 -1.3744 -0.6199  0.4179
  617TIP3   OH223409   6.214   6.178   8.478 -0.0061 -0.3540  0.2046
  617TIP3    H123410   6.138   6.143   8.433  0.0649 -0.3557  0.0854
  617TIP3    H223411   6.285   6.118   8.455  0.2580  0.2184 -0.5093
  618TIP3   OH223412   6.625   5.673   8.044  0.5128  0.0129  0.4072
  618TIP3    H123413   6.636   5.751   8.098 -2.3880  1.2626 -0.6117
  618TIP3    H223414   6.693   5.679   7.978  0.2823  1.7950  0.2808
  619TIP3   OH223415   6.131   0.190   6.332 -0.3100  0.0259 -0.1365
  619TIP3    H123416   6.083   0.258   6.285  0.4751  0.7541  0.0915
  619TIP3    H223417   6.223   0.208   6.314  0.1740  1.3962  2.9795
  620TIP3   OH223418   5.092   2.850   7.369  0.1258 -0.4090 -0.9114
  620TIP3    H123419   5.025   2.904   7.408 -0.3097 -0.2136 -1.8879
  620TIP3    H223420   5.165   2.909   7.352  0.2235 -0.4449 -0.6184
  621TIP3   OH223421   2.663   0.828   7.137  0.2575  0.3092 -0.1179
  621TIP3    H123422   2.746   0.861   7.101  0.4986 -0.9144 -0.7462
  621TIP3    H223423   2.686   0.795   7.224  0.7938 -1.4393 -0.8837
  622TIP3   OH223424   3.592   0.132   7.819 -0.6447 -0.3137 -0.1614
  622TIP3    H123425   3.520   0.176   7.773 -0.9832 -1.0493 -0.3486
  622TIP3    H223426   3.569   0.140   7.912 -0.1101  0.9119 -0.1159
  623TIP3   OH223427   2.161   2.552   0.660 -0.1032  0.0695  0.1488
  623TIP3    H123428   2.256   2.539   0.668 -0.4440 -1.9207  2.1126
  623TIP3    H223429   2.125   2.463   0.659 -2.0947  0.7209  2.7058
  624TIP3   OH223430   2.108   2.143   1.001 -0.4949  0.4411  0.4027
  624TIP3    H123431   2.050   2.147   1.077 -0.7140 -0.1745  0.2727
  624TIP3    H223432   2.101   2.230   0.960 -1.5375  0.2833  0.2333
  625TIP3   OH223433   0.374   1.379   1.656 -0.2516  0.0039 -0.0969
  625TIP3    H123434   0.331   1.303   1.617  0.5202 -0.3198 -0.3184
  625TIP3    H223435   0.302   1.440   1.674 -0.6939 -0.0540 -1.5325
  626TIP3   OH223436   6.435   6.644   7.538 -0.1877 -0.0413  0.6491
  626TIP3    H123437   6.452   6.606   7.624 -2.0814 -1.5214  0.4234
  626TIP3    H223438   6.372   6.585   7.497  1.0485  0.2935 -2.0013
  627TIP3   OH223439   1.058   1.076   1.375 -0.3311 -0.3080 -0.3031
  627TIP3    H123440   0.963   1.074   1.376 -0.3517  0.4218 -0.2747
  627TIP3    H223441   1.084   1.051   1.464 -0.5757  1.8927  0.4543
  628TIP3   OH223442   5.308   3.209   0.331 -0.2010 -0.3350  0.5393
  628TIP3    H123443   5.347   3.237   0.249  0.8017 -0.9687  0.7866
  628TIP3    H223444   5.218   3.242   0.327 -0.1688 -0.3516 -0.8027
  629TIP3   OH223445   0.072   6.519   7.771  0.1255 -0.4522  0.0589
  629TIP3    H123446   0.116   6.464   7.835  0.9969 -0.4247 -0.5022
  629TIP3    H223447   0.101   6.485   7.686 -0.1638  0.1868 -0.3019
  630TIP3   OH223448   4.696   5.074   8.141  0.2689 -0.2810 -0.1341
  630TIP3    H123449   4.617   5.042   8.184  0.8872 -1.9103 -0.1277
  630TIP3    H223450   4.728   5.144   8.199 -1.2249  0.5070 -0.2270
  631TIP3   OH223451   2.487   6.023   8.258  0.1860  0.2282 -0.0550
  631TIP3    H123452   2.450   6.087   8.198  0.7286  0.4167 -0.1957
  631TIP3    H223453   2.573   6.002   8.221  0.1804 -0.2755  0.2074
  632TIP3   OH223454   3.416   0.521   8.048  0.3419 -0.1675  0.4129
  632TIP3    H123455   3.462   0.555   7.971  0.3592  0.1037  0.5431
  632TIP3    H223456   3.326   0.552   8.038  0.2637 -0.4182  0.3298
  633TIP3   OH223457   1.508   2.689   8.132  0.2996 -0.9744  0.1629
  633TIP3    H123458   1.428   2.726   8.171  0.5368 -0.3012  0.0242
  633TIP3    H223459   1.504   2.596   8.154 -0.6445 -0.9931 -0.0511
  634TIP3   OH223460   4.668   5.561   7.412 -0.4554  0.7240 -0.2386
  634TIP3    H123461   4.575   5.582   7.399 -0.9420 -0.9688  0.2568
  634TIP3    H223462   4.710   5.591   7.332 -1.2667  2.3080 -0.1182
  635TIP3   OH223463   3.265   6.762   1.445  0.0976  0.2419 -0.1668
  635TIP3    H123464   3.348   6.785   1.487 -0.1252 -0.0463  0.4509
  635TIP3    H223465   3.286   6.690   1.386  0.4339  0.7111 -0.6210
  636TIP3   OH223466   2.496   2.337   0.534  0.0287  0.3009  0.0435
  636TIP3    H123467   2.554   2.262   0.527  0.3126  0.0327  3.4043
  636TIP3    H223468   2.410   2.304   0.509  0.0928 -1.3171  1.7445
  637TIP3   OH223469   1.643   5.871   0.317  0.1394  0.2076  0.3701
  637TIP3    H123470   1.733   5.838   0.315 -0.3417 -1.1620 -0.1574
  637TIP3    H223471   1.638   5.930   0.242  0.8227  0.9832  0.9097
  638TIP3   OH223472   0.495   3.396   7.144  0.1082  0.2860 -0.0185
  638TIP3    H123473   0.568   3.350   7.186 -0.4360 -0.6218 -0.0614
  638TIP3    H223474   0.417   3.352   7.175 -0.3738  0.4741 -0.9234
  639TIP3   OH223475   0.322   0.682   6.342  0.1956 -0.1359  0.0211
  639TIP3    H123476   0.327   0.589   6.322 -0.6664 -0.5739  1.7172
  639TIP3    H223477   0.414   0.709   6.350  0.4716 -0.6555 -1.1305
  640TIP3   OH223478   6.015   4.545   0.683 -0.2071  0.2048  0.1222
  640TIP3    H123479   6.007   4.593   0.766  2.9743  1.7483 -0.3122
  640TIP3    H223480   6.023   4.614   0.617 -0.7191 -1.0078 -1.2335
  641TIP3   OH223481   0.360   4.607   1.771 -0.0510 -0.3237 -0.1158
  641TIP3    H123482   0.427   4.582   1.835  0.5133  0.1983 -0.4966
  641TIP3    H223483   0.330   4.693   1.801 -0.1262 -0.2891 -0.2908
  642TIP3   OH223484   2.487   5.723   7.637  0.2148 -0.4924 -0.6824
  642TIP3    H123485   2.515   5.803   7.593  1.6508  1.0239  2.6522
  642TIP3    H223486   2.450   5.669   7.567  3.5793  1.0159 -4.0092
  643TIP3   OH223487   4.995   4.616   2.433  0.2191 -0.2478  0.1710
  643TIP3    H123488   4.945   4.615   2.515  1.1158 -0.4376  0.7368
  643TIP3    H223489   5.061   4.548   2.445  1.0386  0.4460 -0.2674
  644TIP3   OH223490   2.895   6.432   6.572 -0.0109 -0.0962  0.1472
  644TIP3    H123491   2.800   6.434   6.554  0.1618  0.5815 -0.7997
  644TIP3    H223492   2.928   6.365   6.512  0.1488 -0.0973  0.2378
  645TIP3   OH223493   6.320   2.297   8.343  0.3126  0.1676 -0.1743
  645TIP3    H123494   6.305   2.366   8.279  0.6036 -0.1858 -0.6343
  645TIP3    H223495   6.285   2.218   8.301 -0.4911  0.1179  0.5570
  646TIP3   OH223496   2.563   1.021   0.183 -0.5081 -0.7904  0.5798
  646TIP3    H123497   2.590   0.943   0.231  0.4086 -0.0083  1.3755
  646TIP3    H223498   2.562   1.090   0.248  0.5917  0.2656 -0.4616
  647TIP3   OH223499   2.433   0.208   6.607 -0.0081  0.0926 -0.0843
  647TIP3    H123500   2.361   0.265   6.634  0.0031  0.0240  0.0938
  647TIP3    H223501   2.509   0.267   6.601  0.1912 -0.0347  0.9083
  648TIP3   OH223502   6.269   1.340   7.948  0.0058 -0.0663 -0.2063
  648TIP3    H123503   6.359   1.329   7.978 -0.0552  0.3100  0.1324
  648TIP3    H223504   6.276   1.398   7.872 -0.0107  0.5650  0.2639
  649TIP3   OH223505   0.084   5.921   0.725  0.4977  0.3621 -0.2025
  649TIP3    H123506   0.164   5.971   0.714  0.5586  0.4740  0.6977
  649TIP3    H223507   0.058   5.898   0.635 -0.2764  3.1285 -0.7866
  650TIP3   OH223508   5.325   6.546   0.667 -0.4095  0.4946 -0.2198
  650TIP3    H123509   5.374   6.626   0.686 -0.6675  0.5689  0.1364
  650TIP3    H223510   5.236   6.565   0.697 -0.2612 -0.2633  0.7090
  651TIP3   OH223511   6.446   2.045   1.729  0.4245 -0.3235  0.4499
  651TIP3    H123512   6.352   2.061   1.728  0.1982 -1.2847 -2.2602
  651TIP3    H223513   6.486   2.131   1.737 -0.7363  0.4631 -1.5466
  652TIP3   OH223514   5.124   0.035   7.493  0.3966  0.5797  0.4894
  652TIP3    H123515   5.100   0.128   7.490  2.0308  1.0142 -1.6041
  652TIP3    H223516   5.061  -0.007   7.434 -0.7250  0.2108  1.9012
  653TIP3   OH223517   2.377   1.948   8.149 -0.5500  0.0150  0.5415
  653TIP3    H123518   2.329   1.967   8.069 -1.3345  0.2216  1.0410
  653TIP3    H223519   2.467   1.932   8.121 -0.6559  0.8362 -0.2869
  654TIP3   OH223520   1.507   4.879   1.016  0.8542 -0.3713 -0.0670
  654TIP3    H123521   1.588   4.843   1.052  0.2537 -0.4016  1.2942
  654TIP3    H223522   1.487   4.954   1.072  1.5141  1.5297 -2.2021
  655TIP3   OH223523   6.176   2.002   8.647  0.3124  0.4286  0.0639
  655TIP3    H123524   6.271   2.010   8.660  1.0518 -3.8065 -1.2770
  655TIP3    H223525   6.155   2.073   8.587  2.7351  1.1678 -0.0374
  656TIP3   OH223526   1.504   1.999   0.050 -0.0113  0.1032  0.0674
  656TIP3    H123527   1.577   1.938   0.065  0.9042  1.4422  1.4111
  656TIP3    H223528   1.524   2.039  -0.035  0.2252 -0.3244 -0.0839
  657TIP3   OH223529   2.395   3.723   0.362 -0.3275  0.0918  0.1311
  657TIP3    H123530   2.306   3.694   0.383 -0.6092  0.5362 -0.4132
  657TIP3    H223531   2.439   3.644   0.330 -0.6598 -0.0367 -0.0159
  658TIP3   OH223532   4.465   5.962   0.172  0.1605  0.1576  0.0056
  658TIP3    H123533   4.450   6.051   0.203  0.3128  0.5717 -1.0621
  658TIP3    H223534   4.379   5.931   0.143  0.4324  0.6884 -1.4366
  659TIP3   OH223535   4.739   1.916   6.851  0.0493  0.1441  0.1748
  659TIP3    H123536   4.705   1.908   6.762 -0.1631 -0.3129  0.2948
  659TIP3    H223537   4.833   1.930   6.839 -0.3529  3.1476 -0.2279
  660TIP3   OH223538   4.174   2.429   8.509 -0.0469  0.1251  0.3643
  660TIP3    H123539   4.207   2.430   8.598  0.0994  1.3763  0.3175
  660TIP3    H223540   4.237   2.482   8.459  0.0129 -0.7712 -0.5331
  661TIP3   OH223541   3.663   2.871   0.329  0.4049 -0.3187  0.2448
  661TIP3    H123542   3.596   2.896   0.392  0.3791  0.3627 -0.0417
  661TIP3    H223543   3.697   2.954   0.295 -0.2128 -0.6657 -1.2939
  662TIP3   OH223544   0.956   2.685   7.866 -0.3856 -0.1780 -0.0517
  662TIP3    H123545   0.874   2.697   7.819 -1.2431 -1.0574  1.1416
  662TIP3    H223546   0.938   2.718   7.954 -0.0633 -2.0094  0.7485
  663TIP3   OH223547   1.874   0.634   7.821  0.1353 -0.4383  0.1827
  663TIP3    H123548   1.824   0.710   7.794  1.1776  0.5995  1.0803
  663TIP3    H223549   1.934   0.618   7.748  0.2215 -0.1193  0.1825
  664TIP3   OH223550   4.789   1.575   7.609  0.5002 -0.0505 -0.4972
  664TIP3    H123551   4.855   1.508   7.630 -1.2472 -1.9485 -0.7399
  664TIP3    H223552   4.755   1.548   7.524 -0.3306  1.1142 -0.5486
  665TIP3   OH223553   5.162   6.081   1.874  0.1788 -0.0341  0.3748
  665TIP3    H123554   5.175   6.096   1.967 -0.3844 -1.2849  0.6781
  665TIP3    H223555   5.217   6.005   1.854 -0.2030 -0.1789 -0.1613
  666TIP3   OH223556   3.505   0.303   1.232 -0.1524  0.1126  0.3626
  666TIP3    H123557   3.410   0.297   1.238 -0.3244  2.5042  1.1006
  666TIP3    H223558   3.525   0.285   1.140 -1.2396 -0.8791  0.3009
  667TIP3   OH223559   4.991   5.103   7.647 -0.2314  0.3912 -0.6293
  667TIP3    H123560   4.964   5.195   7.655 -2.1436  0.0403 -2.2847
  667TIP3    H223561   5.042   5.100   7.567  1.6661  0.3335  0.5234
  668TIP3   OH223562   4.370   5.290   0.320 -0.2142  0.2094  0.2007
  668TIP3    H123563   4.291   5.332   0.352 -0.6278 -1.8252  2.1396
  668TIP3    H223564   4.439   5.320   0.379 -0.3352 -0.9726  0.9893
  669TIP3   OH223565   1.463   4.869   1.646  0.3031 -0.2401  0.0307
  669TIP3    H123566   1.390   4.928   1.660  0.2040 -0.3025 -0.2167
  669TIP3    H223567   1.436   4.787   1.686  0.1054 -0.3575 -0.3397
  670TIP3   OH223568   1.895   5.743   7.419 -0.2643  0.1970 -0.0384
  670TIP3    H123569   1.899   5.807   7.490 -1.5333 -0.8521  1.0259
  670TIP3    H223570   1.835   5.782   7.355 -1.4658 -0.1470  0.8547
  671TIP3   OH223571   1.116   1.091   7.420 -0.0306  0.3896 -0.2906
  671TIP3    H123572   1.035   1.087   7.471 -0.7423 -2.6384 -1.4802
  671TIP3    H223573   1.095   1.149   7.347  0.3151  2.9939  1.5326
  672TIP3   OH223574   5.372   1.693   1.751  0.0770 -0.3356  0.5604
  672TIP3    H123575   5.353   1.606   1.787 -0.9924 -0.8568 -1.1393
  672TIP3    H223576   5.297   1.746   1.778  1.0629  0.2866  2.1902
  673TIP3   OH223577   4.544   0.673   8.005  0.1400  0.0612  0.4052
  673TIP3    H123578   4.549   0.736   7.933  0.4875 -0.8178 -0.3689
  673TIP3    H223579   4.599   0.710   8.074  0.9030  0.2815 -0.3012
  674TIP3   OH223580   2.727   2.467   0.625 -0.0427  0.2750 -0.1262
  674TIP3    H123581   2.644   2.428   0.596  0.1211 -0.3054  0.1779
  674TIP3    H223582   2.738   2.435   0.715  0.6222  0.1795 -0.2425
  675TIP3   OH223583   0.385   4.026   6.859 -0.0297 -0.5154  0.4644
  675TIP3    H123584   0.453   4.071   6.809  2.0878 -3.2117  0.6834
  675TIP3    H223585   0.333   3.980   6.794 -0.1085 -0.4250  0.4626
  676TIP3   OH223586   4.367   3.462   8.205  0.3225  0.3993 -0.1528
  676TIP3    H123587   4.360   3.536   8.145 -1.4531  1.8384  1.6911
  676TIP3    H223588   4.279   3.425   8.208  0.4801  0.0890  1.1948
  677TIP3   OH223589   2.604   3.559   0.226 -0.2415  0.6178 -0.3615
  677TIP3    H123590   2.629   3.544   0.317 -0.9305  1.0187 -0.0969
  677TIP3    H223591   2.687   3.561   0.178  0.1818  1.2751  0.3888
  678TIP3   OH223592   3.369   2.469   8.324  0.1567 -0.0142 -0.3215
  678TIP3    H123593   3.458   2.441   8.348  0.9351  2.0192 -0.6501
  678TIP3    H223594   3.335   2.510   8.404 -0.2742 -0.2850 -0.3637
  679TIP3   OH223595   3.557   6.343   2.139 -0.3994 -0.0554  0.1123
  679TIP3    H123596   3.583   6.358   2.230  0.9504 -1.9989  0.0968
  679TIP3    H223597   3.461   6.342   2.142 -0.4289  1.4464  1.2057
  680TIP3   OH223598   4.882   2.080   1.588  0.6316  0.2198 -0.5112
  680TIP3    H123599   4.856   2.063   1.679  0.5271  1.3310 -0.3257
  680TIP3    H223600   4.818   2.144   1.556  1.0087  0.2644 -1.1913
  681TIP3   OH223601   3.471   0.178   2.483 -0.1930  0.3490  0.0100
  681TIP3    H123602   3.476   0.264   2.524 -0.9055 -0.2663  1.4508
  681TIP3    H223603   3.561   0.158   2.458  0.0137  1.4092 -0.1207
  682TIP3   OH223604   0.946   6.790   8.107  0.1642 -1.0478 -0.0070
  682TIP3    H123605   1.034   6.753   8.099  0.3714 -0.3903 -0.9105
  682TIP3    H223606   0.908   6.781   8.019 -0.3831 -0.6089  0.1774
  683TIP3   OH223607   5.120   1.874   8.640  0.6672  0.0049  0.3227
  683TIP3    H123608   5.034   1.890   8.676 -0.0168  0.7565 -1.4911
  683TIP3    H223609   5.169   1.955   8.657  0.7317 -0.0968  0.6137
  684TIP3   OH223610   4.105   3.494   6.212  0.0528 -0.3374 -0.0279
  684TIP3    H123611   4.069   3.517   6.298  1.4212 -0.0975  0.5124
  684TIP3    H223612   4.044   3.429   6.177 -0.5537 -0.4145  1.1213
  685TIP3   OH223613   3.665   2.908   1.733 -0.4133 -0.6322 -0.2408
  685TIP3    H123614   3.580   2.921   1.690 -1.1773 -1.3134  1.0003
  685TIP3    H223615   3.645   2.855   1.810  1.3481 -1.9804 -0.6490
  686TIP3   OH223616   4.580   0.911   1.312 -0.2082 -0.1508 -0.2217
  686TIP3    H123617   4.581   0.817   1.327 -1.0844 -0.0534  0.5273
  686TIP3    H223618   4.563   0.920   1.218  0.7117 -0.7281 -0.4600
  687TIP3   OH223619   3.888   5.623   0.294  0.0716 -0.1047 -0.0672
  687TIP3    H123620   3.838   5.555   0.248 -2.4364  1.4154  0.1836
  687TIP3    H223621   3.896   5.694   0.230  0.8164  0.1807  0.3299
  688TIP3   OH223622   0.441   2.823   7.915  0.3820  0.2770  0.0718
  688TIP3    H123623   0.371   2.787   7.969 -0.9693  1.8215 -0.5619
  688TIP3    H223624   0.444   2.767   7.838  0.4507 -0.3056  0.4949
  689TIP3   OH223625   0.364   5.114   0.715 -0.1601  0.7190 -0.7114
  689TIP3    H123626   0.415   5.186   0.753  0.8631  0.4197 -1.4800
  689TIP3    H223627   0.416   5.036   0.731 -1.0851  0.1888 -0.2282
  690TIP3   OH223628   1.460   0.116   8.441 -0.0730  0.2710  0.2730
  690TIP3    H123629   1.503   0.109   8.526 -2.2705  1.2223  1.5658
  690TIP3    H223630   1.401   0.041   8.438 -2.1001  1.7436  0.9582
  691TIP3   OH223631   2.055   6.651   2.635 -0.2653  0.0576 -0.0041
  691TIP3    H123632   2.004   6.722   2.596  0.4062  1.2257  1.1827
  691TIP3    H223633   2.124   6.633   2.571 -1.4226 -0.7230 -1.0794
  692TIP3   OH223634   4.084   0.119   6.951 -0.2082 -0.0036 -0.3797
  692TIP3    H123635   4.126   0.087   6.871  2.9943  1.1121  0.7007
  692TIP3    H223636   4.098   0.050   7.016  1.1987  0.9174  0.3332
  693TIP3   OH223637   2.812   0.777   6.775 -0.1650  0.1591 -0.3037
  693TIP3    H123638   2.863   0.769   6.856  1.3750  0.6322 -1.1995
  693TIP3    H223639   2.815   0.689   6.737 -1.7075 -0.3179  0.5862
  694TIP3   OH223640   6.569   6.784   7.790  0.4332  0.0194  0.3545
  694TIP3    H123641   6.621   6.794   7.710 -0.6095  0.1147 -0.3257
  694TIP3    H223642   6.554   6.690   7.797 -1.3201  0.1759 -0.7924
  695TIP3   OH223643   1.057   6.030   1.276  0.0085 -0.0360 -0.0189
  695TIP3    H123644   1.122   6.053   1.209  1.3136 -0.7779  0.9361
  695TIP3    H223645   0.975   6.023   1.229  0.7887  0.0177 -1.4431
  696TIP3   OH223646   5.026   1.491   8.241 -0.1047  0.0226  0.2862
  696TIP3    H123647   5.096   1.428   8.226 -0.6838 -0.5730  0.0641
  696TIP3    H223648   4.980   1.460   8.319 -0.0371  0.4930  0.5183
  697TIP3   OH223649   5.016   5.509   1.068  0.5110 -0.0651  0.4482
  697TIP3    H123650   5.019   5.421   1.104  0.5327  0.0703  0.7778
  697TIP3    H223651   4.942   5.508   1.007 -0.6641  0.2047  1.8085
  698TIP3   OH223652   2.477   1.582   0.665 -0.1763  0.1439  0.1768
  698TIP3    H123653   2.457   1.489   0.666 -2.1968  0.5339  0.7909
  698TIP3    H223654   2.394   1.624   0.643  1.0442  1.7455 -1.7636
  699TIP3   OH223655   1.044   6.837   2.288 -0.0137 -0.6267 -0.2388
  699TIP3    H123656   1.118   6.839   2.227 -0.9938  1.9505 -1.5158
  699TIP3    H223657   0.967   6.836   2.231 -0.9553  1.0530  0.9287
  700TIP3   OH223658   6.510   2.313   1.654  0.5692  0.6385  0.1053
  700TIP3    H123659   6.567   2.383   1.686 -0.4244  2.8063 -2.4812
  700TIP3    H223660   6.535   2.303   1.562 -0.0702 -1.6919  0.1459
  701TIP3   OH223661   2.575   5.278   8.623  0.2530  0.1654 -0.2922
  701TIP3    H123662   2.511   5.315   8.563 -0.3579  0.3929  0.4836
  701TIP3    H223663   2.542   5.189   8.641  0.2401  0.2228 -0.0249
  702TIP3   OH223664   5.425   2.240   0.691 -0.8992 -0.1778 -0.0036
  702TIP3    H123665   5.415   2.328   0.653 -0.1967  0.4936  1.3075
  702TIP3    H223666   5.337   2.203   0.690 -0.8017 -0.7117 -3.3688
  703TIP3   OH223667   4.391   2.943   1.612  0.0532  0.0990 -0.2199
  703TIP3    H123668   4.420   2.891   1.687 -1.6622  0.0673  0.4711
  703TIP3    H223669   4.318   2.996   1.646 -1.0585 -0.2274 -1.9490
  704TIP3   OH223670   3.951   4.156   1.417 -0.4705 -0.6099 -0.1672
  704TIP3    H123671   3.863   4.192   1.422 -0.5289 -0.8285  4.2596
  704TIP3    H223672   3.941   4.075   1.367 -2.2444  0.4773 -1.7202
  705TIP3   OH223673   2.476   4.313   1.149  0.2074 -0.3785  0.5973
  705TIP3    H123674   2.540   4.321   1.078 -0.3025  0.9527  0.2672
  705TIP3    H223675   2.453   4.403   1.171  0.3008 -0.7652  2.4291
  706TIP3   OH223676   2.048   3.506   8.370  0.4135 -0.1212  0.1171
  706TIP3    H123677   2.004   3.564   8.433 -1.6219  0.6249 -1.8350
  706TIP3    H223678   2.131   3.550   8.352 -0.9408  2.1621 -1.0830
  707TIP3   OH223679   6.650   4.890   6.467 -0.2699 -0.5584  0.3281
  707TIP3    H123680   6.715   4.908   6.399 -1.0951  1.0088 -0.1007
  707TIP3    H223681   6.582   4.957   6.453 -0.2026  0.1850  3.0588
  708TIP3   OH223682   2.616   4.218   7.124 -0.3850  0.4661 -0.0777
  708TIP3    H123683   2.668   4.260   7.056 -1.9700 -0.0473 -1.6706
  708TIP3    H223684   2.624   4.276   7.200  0.6410  1.5523 -0.9935
  709TIP3   OH223685   6.551   6.483   0.250 -0.3662 -0.0693 -0.0631
  709TIP3    H123686   6.528   6.561   0.301 -0.3010  1.1395 -1.7828
  709TIP3    H223687   6.646   6.478   0.256 -0.5057 -1.9120  2.5873
  710TIP3   OH223688   3.442   0.634   7.615  0.4826  0.2342  0.4867
  710TIP3    H123689   3.516   0.668   7.664  1.7910 -0.5326 -0.8508
  710TIP3    H223690   3.410   0.709   7.565  0.8610  0.4018  0.4879
  711TIP3   OH223691   0.264   4.514   8.641 -0.2963 -0.8941 -0.9453
  711TIP3    H123692   0.321   4.560   8.702 -0.7156  0.2779 -1.4127
  711TIP3    H223693   0.176   4.530   8.675 -0.6821  1.2180 -2.7364
  712TIP3   OH223694   0.929   0.403   8.676  0.3554 -0.1833  0.0304
  712TIP3    H123695   0.880   0.323   8.691 -0.7727  0.3721 -0.5471
  712TIP3    H223696   1.021   0.376   8.677  0.0344 -1.2961  0.8561
  713TIP3   OH223697   0.280   6.135   6.341  0.7190 -0.1315 -0.1893
  713TIP3    H123698   0.292   6.135   6.435 -2.0295  1.9935  0.2951
  713TIP3    H223699   0.229   6.056   6.323  1.9528 -0.9808 -0.0652
  714TIP3   OH223700   3.603   4.126   7.967  0.2640  0.5009 -0.3796
  714TIP3    H123701   3.570   4.100   8.054 -0.2153 -0.6666 -0.8878
  714TIP3    H223702   3.645   4.211   7.982  1.7285 -0.4430  1.3415
  715TIP3   OH223703   4.211   0.936   8.443 -0.0353 -0.0881 -0.2942
  715TIP3    H123704   4.128   0.893   8.464 -0.5656  0.7732 -0.5812
  715TIP3    H223705   4.271   0.864   8.424 -0.9760 -0.7124 -1.0151
  716TIP3   OH223706   2.094   4.416   1.973 -0.1476  0.8208 -0.5424
  716TIP3    H123707   2.135   4.344   2.020 -2.1626  0.2558  0.4570
  716TIP3    H223708   2.167   4.473   1.948  1.2585 -0.3391  0.7329
  717TIP3   OH223709   2.473   3.513   8.040 -0.1291  0.2832 -0.2104
  717TIP3    H123710   2.432   3.434   8.004 -0.0534  0.7928 -1.4533
  717TIP3    H223711   2.473   3.575   7.967  3.7410  0.0044 -0.6260
  718TIP3   OH223712   2.404   3.112   0.165 -0.0376 -0.1874  0.3787
  718TIP3    H123713   2.405   3.207   0.155 -0.0166 -0.2444 -0.1610
  718TIP3    H223714   2.473   3.094   0.229  0.4302  0.0993 -0.0467
  719TIP3   OH223715   0.362   1.151   8.431 -0.3273 -0.0115 -0.1843
  719TIP3    H123716   0.385   1.061   8.452 -0.6176 -0.6086 -2.2133
  719TIP3    H223717   0.266   1.150   8.427 -0.3953  0.6815  0.8943
  720TIP3   OH223718   1.187   6.009   7.209  0.4293 -0.4323 -0.6010
  720TIP3    H123719   1.101   6.042   7.183 -0.1450 -1.9967 -0.8113
  720TIP3    H223720   1.204   6.049   7.294 -0.2546  0.3008 -0.7921
  721TIP3   OH223721   6.620   1.467   1.917 -0.4514 -0.3810  0.4852
  721TIP3    H123722   6.527   1.446   1.919 -0.5489  0.0595  1.1059
  721TIP3    H223723   6.663   1.385   1.894 -1.0751 -0.2641 -1.2161
  722TIP3   OH223724   6.314   1.097   2.607  0.3376 -0.7675  0.0852
  722TIP3    H123725   6.231   1.065   2.570  0.6046 -0.8800 -0.4237
  722TIP3    H223726   6.380   1.070   2.544  0.5061  1.2971 -0.6960
  723TIP3   OH223727   3.067   4.784   8.601  0.4660  0.3352  0.0513
  723TIP3    H123728   3.009   4.859   8.592  0.7865  0.8557  1.8527
  723TIP3    H223729   3.122   4.787   8.522 -0.6775  0.9490 -0.7461
  724TIP3   OH223730   0.365   6.074   6.596 -0.4957  0.5884  0.4856
  724TIP3    H123731   0.386   6.048   6.685  0.4456 -2.7138 -0.5592
  724TIP3    H223732   0.406   6.161   6.586 -1.0958  1.2932  3.3484
  725TIP3   OH223733   5.872   2.593   7.847 -0.1790  0.6967  0.1283
  725TIP3    H123734   5.942   2.592   7.782 -1.0793 -0.4964 -0.8751
  725TIP3    H223735   5.840   2.683   7.847  0.7534  1.0337 -0.0602
  726TIP3   OH223736   5.590   4.154   6.171  0.4953 -0.1133 -1.0592
  726TIP3    H123737   5.561   4.167   6.261 -0.3747 -0.1526 -1.3337
  726TIP3    H223738   5.616   4.241   6.141 -1.3805  0.3228 -1.5159
  727TIP3   OH223739   1.901   5.070   7.311  0.2614 -0.1838  0.5182
  727TIP3    H123740   1.900   5.161   7.341  0.9959 -0.1012  0.3120
  727TIP3    H223741   1.847   5.071   7.232  1.9239  0.5301 -0.6905
  728TIP3   OH223742   2.675   0.192   1.068 -0.5313  0.0559 -0.1729
  728TIP3    H123743   2.619   0.257   1.110 -0.7373  0.5584 -1.2044
  728TIP3    H223744   2.707   0.235   0.989  0.7583 -0.4734  0.0349
  729TIP3   OH223745   0.947   0.488   8.098  0.4732  0.0563  0.1820
  729TIP3    H123746   0.970   0.503   8.006 -0.1201 -1.1307 -0.1740
  729TIP3    H223747   0.858   0.523   8.106 -0.8891 -2.9132 -0.6331
  730TIP3   OH223748   5.570   0.873   1.218 -0.8855 -0.3518  0.1613
  730TIP3    H123749   5.649   0.849   1.267 -0.0462  0.7771 -0.6070
  730TIP3    H223750   5.585   0.839   1.130 -0.8185  0.6681 -0.2376
  731TIP3   OH223751   0.980   6.199   0.234 -0.5713  0.0136  0.4042
  731TIP3    H123752   1.055   6.257   0.248 -1.2043  1.0177 -0.2110
  731TIP3    H223753   1.012   6.112   0.259  0.1444  0.7382  2.2284
  732TIP3   OH223754   0.232   4.149   7.098 -0.0399  0.1693 -0.2943
  732TIP3    H123755   0.252   4.082   7.033 -0.7625 -0.8033  0.4652
  732TIP3    H223756   0.314   4.198   7.107  0.4218 -0.4339 -1.0568
  733TIP3   OH223757   3.892   3.050   8.101 -0.0215  0.0357  0.0703
  733TIP3    H123758   3.875   3.143   8.110 -0.9501 -0.1201 -0.0394
  733TIP3    H223759   3.817   3.015   8.053  0.2267 -0.8013  0.2639
  734TIP3   OH223760   1.482   4.483   1.852 -0.0454  0.7756  0.3358
  734TIP3    H123761   1.569   4.523   1.842 -0.1976  1.0573  0.1322
  734TIP3    H223762   1.436   4.541   1.913 -0.0168  0.4997  0.6275
  735TIP3   OH223763   1.004   4.650   7.746 -0.4741 -0.7607  0.1339
  735TIP3    H123764   1.025   4.563   7.713 -0.9315 -0.7567 -0.1840
  735TIP3    H223765   0.908   4.653   7.746 -0.4869  0.5203 -1.9396
  736TIP3   OH223766   2.437   6.237   1.032  0.1522 -0.2375 -0.5755
  736TIP3    H123767   2.447   6.163   0.972 -2.2059  0.5759 -2.1249
  736TIP3    H223768   2.459   6.313   0.978 -0.2162  0.3865  0.1518
  737TIP3   OH223769   3.264   2.415   7.759  0.1461  0.0269 -0.5038
  737TIP3    H123770   3.344   2.367   7.740  0.3998  0.2153  0.0940
  737TIP3    H223771   3.203   2.348   7.792  1.3662  0.4646  3.0092
  738TIP3   OH223772   6.518   1.202   2.142  0.1012  0.1570  0.1718
  738TIP3    H123773   6.592   1.189   2.082 -0.9990  0.3639 -1.2788
  738TIP3    H223774   6.442   1.172   2.093 -1.1029  2.1111  0.7255
  739TIP3   OH223775   3.924   2.789   7.833  0.0154  0.4378 -0.0920
  739TIP3    H123776   4.009   2.766   7.795  1.7095  2.9831  1.8337
  739TIP3    H223777   3.860   2.750   7.774  2.5000 -0.8089 -2.1505
  740TIP3   OH223778   1.972   4.827   0.099  0.3178 -0.1265 -0.1178
  740TIP3    H123779   1.996   4.852   0.189  0.7035  1.8005 -0.7078
  740TIP3    H223780   1.957   4.910   0.054  1.2020 -0.9928 -2.1407
  741TIP3   OH223781   6.715   3.055   1.997 -0.4243 -0.3895 -0.0926
  741TIP3    H123782   6.737   2.986   2.059 -0.0263 -3.2206 -3.1214
  741TIP3    H223783   6.798   3.078   1.956 -0.5160  2.1582  0.9585
  742TIP3   OH223784   1.717   5.803   0.034  0.3606  0.8460  0.6609
  742TIP3    H123785   1.711   5.707   0.034  0.6449  0.8226  1.2050
  742TIP3    H223786   1.808   5.821   0.060  0.3213  1.2663  0.5129
  743TIP3   OH223787   0.505   5.596   7.143 -0.6937  0.4905  0.1568
  743TIP3    H123788   0.479   5.566   7.055  0.1111 -0.9677  0.3872
  743TIP3    H223789   0.424   5.627   7.182 -1.8231 -2.1250  0.1495
  744TIP3   OH223790   4.674   4.254   7.830  0.4807  0.0175 -0.1111
  744TIP3    H123791   4.727   4.334   7.836  1.4035 -0.5887  0.0540
  744TIP3    H223792   4.695   4.218   7.744  0.2214 -0.1525 -0.1044
  745TIP3   OH223793   5.880   5.198   1.331 -0.0396 -0.1390 -0.3679
  745TIP3    H123794   5.955   5.149   1.364 -1.2227 -1.9328 -0.2222
  745TIP3    H223795   5.889   5.192   1.235 -0.0079 -0.3597 -0.3517
  746TIP3   OH223796   4.293   1.203   0.225 -0.7372 -0.7166 -0.2443
  746TIP3    H123797   4.327   1.223   0.138 -0.1572 -0.1890  0.1017
  746TIP3    H223798   4.274   1.109   0.221 -1.5763 -0.5263 -1.2268
  747TIP3   OH223799   3.600   5.560   8.706 -0.2214 -0.4287 -0.0234
  747TIP3    H123800   3.642   5.487   8.751 -1.3678  0.8099  3.3875
  747TIP3    H223801   3.548   5.604   8.774 -1.8648  1.8841 -2.5483
  748TIP3   OH223802   5.688   4.084   8.211  0.4823 -0.1300  0.1185
  748TIP3    H123803   5.664   4.176   8.203 -1.5750 -0.7887 -2.4420
  748TIP3    H223804   5.762   4.073   8.151  1.5074  0.0154  1.2953
  749TIP3   OH223805   3.533   3.569   7.395  0.0438  0.0518  0.0218
  749TIP3    H123806   3.586   3.501   7.351 -0.4567 -1.7430  2.0186
  749TIP3    H223807   3.591   3.645   7.400  1.2711 -0.7982 -0.7548
  750TIP3   OH223808   3.783   5.175   8.416 -0.0064  0.1183 -0.0121
  750TIP3    H123809   3.837   5.245   8.453  0.2535 -0.4250  0.6688
  750TIP3    H223810   3.711   5.166   8.477  0.4933 -0.8786  0.4501
  751TIP3   OH223811   1.031   4.054   6.567 -0.5848 -0.4765  0.5114
  751TIP3    H123812   1.109   4.107   6.578 -1.6300  1.0384  1.0156
  751TIP3    H223813   1.015   4.054   6.473  0.3843 -1.3797  0.3313
  752TIP3   OH223814   6.026   1.453   1.790  0.3727 -0.6764 -0.5866
  752TIP3    H123815   6.087   1.426   1.859 -0.7132  0.1675  0.7535
  752TIP3    H223816   6.008   1.545   1.807 -0.2665 -0.5578 -1.7429
  753TIP3   OH223817   1.797   6.461   1.093  0.2688  0.4520 -0.3626
  753TIP3    H123818   1.845   6.476   1.174  0.9597  1.6392 -0.9619
  753TIP3    H223819   1.709   6.494   1.111 -0.4995 -1.9844  0.8313
  754TIP3   OH223820   5.735   3.007   2.177 -0.1218 -0.0579  0.3443
  754TIP3    H123821   5.793   2.940   2.139 -1.6993 -1.3514  0.1119
  754TIP3    H223822   5.675   2.957   2.232 -1.6333  1.1247 -0.1764
  755TIP3   OH223823   2.835   4.493   0.763 -0.3150 -0.0978 -0.2452
  755TIP3    H123824   2.912   4.473   0.710 -0.7756 -2.1733 -0.2276
  755TIP3    H223825   2.782   4.551   0.709 -0.5180 -1.7454 -1.9070
  756TIP3   OH223826   2.826   2.681   8.169  0.0171  0.0935  0.1440
  756TIP3    H123827   2.891   2.634   8.117 -0.8122  0.9096 -1.7338
  756TIP3    H223828   2.744   2.670   8.121 -0.4603  2.3551  0.3041
  757TIP3   OH223829   5.620   3.055   1.943 -0.4314 -0.1340 -0.0311
  757TIP3    H123830   5.663   3.063   2.028  2.0093  0.3147 -1.2200
  757TIP3    H223831   5.647   3.134   1.895 -0.2532 -1.2222 -1.8099
  758TIP3   OH223832   3.331   2.815   8.016  0.0765 -0.0005 -0.0109
  758TIP3    H123833   3.331   2.905   7.985  0.7667  0.1190  0.3085
  758TIP3    H223834   3.242   2.784   8.001 -0.2745  0.8607  0.2530
  759TIP3   OH223835   3.283   6.652   6.219 -0.1183 -0.5373  0.6403
  759TIP3    H123836   3.325   6.617   6.140 -1.1569 -0.7803  0.1790
  759TIP3    H223837   3.352   6.703   6.262  0.6681 -1.0036 -0.0425
  760TIP3   OH223838   3.963   3.102   0.415  0.6450 -0.1185 -0.5443
  760TIP3    H123839   3.963   3.198   0.407 -0.7805  0.2062  2.2026
  760TIP3    H223840   3.975   3.071   0.325  1.2106  2.6140 -1.5265
  761TIP3   OH223841   4.455   2.865   1.859 -0.5660 -0.0087 -0.0221
  761TIP3    H123842   4.415   2.907   1.935  0.4646  1.3753 -0.1878
  761TIP3    H223843   4.500   2.788   1.895  0.2272  0.8362  0.8596
  762TIP3   OH223844   4.382   2.837   7.039 -0.0460  0.5071  0.0238
  762TIP3    H123845   4.432   2.875   6.967  0.0035 -2.0161 -1.3918
  762TIP3    H223846   4.419   2.878   7.118  0.6824  2.5026 -1.2610
  763TIP3   OH223847   4.405   4.369   7.161 -0.2951 -0.2583 -0.0260
  763TIP3    H123848   4.422   4.432   7.231 -1.2686  0.0152 -0.0159
  763TIP3    H223849   4.454   4.403   7.086 -1.5206  1.0451 -0.2886
  764TIP3   OH223850   3.909   1.027   8.237 -0.0601  0.2314  0.3308
  764TIP3    H123851   3.952   1.000   8.318 -1.5176 -0.3555  0.9549
  764TIP3    H223852   3.892   1.121   8.249  0.3645  0.2979  0.4057
  765TIP3   OH223853   4.233   0.035   7.749 -0.3577 -0.1096  0.0232
  765TIP3    H123854   4.301   0.072   7.693 -1.3350  0.8238 -0.5831
  765TIP3    H223855   4.174  -0.010   7.689  0.3578 -1.9860  0.6673
  766TIP3   OH223856   5.456   1.354   6.634  0.7672  0.0690  0.1248
  766TIP3    H123857   5.527   1.291   6.646  0.6204 -0.0489  0.3915
  766TIP3    H223858   5.405   1.320   6.561 -0.7943 -1.5282  1.8396
  767TIP3   OH223859   5.474   4.237   0.030 -0.0678  0.4333 -0.8840
  767TIP3    H123860   5.455   4.269   0.119  0.6648 -0.9310 -0.2054
  767TIP3    H223861   5.408   4.170   0.014 -1.6157  2.2021 -2.3090
  768TIP3   OH223862   2.829   2.786   1.981  0.3760 -0.0943  1.0024
  768TIP3    H123863   2.744   2.754   2.011  1.2133 -2.1421  1.3649
  768TIP3    H223864   2.891   2.721   2.014  2.1974  1.8276  1.5014
  769TIP3   OH223865   0.108   3.513   8.315  0.0847 -0.1218 -0.0068
  769TIP3    H123866   0.022   3.485   8.347 -0.1403 -0.7314 -1.1267
  769TIP3    H223867   0.129   3.453   8.244  1.0884  0.5161 -0.2747
  770TIP3   OH223868   5.143   5.373   0.190  0.3416  0.3599  0.0282
  770TIP3    H123869   5.059   5.333   0.212  0.3052  0.0690 -0.6474
  770TIP3    H223870   5.121   5.443   0.129  0.6085  0.1712 -0.2827
  771TIP3   OH223871   5.989   3.714   0.257  0.4413  0.2904 -0.3971
  771TIP3    H123872   5.917   3.761   0.215 -1.3008 -0.9750  1.0303
  771TIP3    H223873   6.041   3.783   0.299  0.0995  1.2247 -1.4563
  772TIP3   OH223874   5.205   5.799   7.910 -0.1362  0.1960  0.2515
  772TIP3    H123875   5.130   5.839   7.866  0.1784  1.6409  0.9779
  772TIP3    H223876   5.248   5.747   7.842 -1.6514 -0.4936 -0.2361
  773TIP3   OH223877   0.581   1.699   8.353 -0.1049 -0.2487 -1.0828
  773TIP3    H123878   0.541   1.613   8.365  1.4154 -0.8241  0.1430
  773TIP3    H223879   0.519   1.759   8.395 -0.4498 -0.9175 -0.6085
  774TIP3   OH223880   2.567   0.022   7.014 -0.3593 -0.3962  0.5304
  774TIP3    H123881   2.577   0.035   6.919  0.3627 -0.3635  0.6097
  774TIP3    H223882   2.594  -0.069   7.029 -1.0374 -0.5927  0.6310
  775TIP3   OH223883   6.586   0.924   0.037 -0.4420  0.2520  0.3067
  775TIP3    H123884   6.526   0.880   0.097  1.7846  0.9739  3.3212
  775TIP3    H223885   6.636   0.853  -0.004 -0.3505 -0.2184  1.2088
  776TIP3   OH223886   4.465   5.477   7.881 -0.1443  0.1833 -0.1244
  776TIP3    H123887   4.558   5.489   7.866 -0.2355  0.0728 -0.8099
  776TIP3    H223888   4.434   5.562   7.911  0.3664 -0.0634  1.1637
  777TIP3   OH223889   6.378   0.679   8.219 -0.4357  0.4783 -0.4701
  777TIP3    H123890   6.458   0.729   8.235  0.5631 -1.0483 -0.5273
  777TIP3    H223891   6.391   0.641   8.132 -1.4096  0.5454 -0.6528
  778TIP3   OH223892   3.125   3.548   8.495 -0.2376 -0.6900 -0.3870
  778TIP3    H123893   3.047   3.554   8.440 -0.9418  0.9926  0.7268
  778TIP3    H223894   3.156   3.638   8.504  0.6126 -1.0759  0.8941
  779TIP3   OH223895   0.843   4.963   0.112 -0.3043  0.2961  0.2401
  779TIP3    H123896   0.747   4.971   0.106 -0.4689 -1.8580 -1.0122
  779TIP3    H223897   0.862   4.876   0.077  2.0108  0.0628  1.8873
  780TIP3   OH223898   0.271   5.890   1.836  0.3418 -0.2326 -0.4248
  780TIP3    H123899   0.246   5.805   1.873  1.1214 -0.1125  0.4141
  780TIP3    H223900   0.346   5.917   1.888 -0.3797  1.3535 -0.1680
  781TIP3   OH223901   5.493   2.796   8.370  0.0581 -0.2333  0.9698
  781TIP3    H123902   5.484   2.884   8.406 -1.6202 -0.1977  0.5554
  781TIP3    H223903   5.454   2.739   8.437 -1.9038 -0.2957 -0.1658
  782TIP3   OH223904   2.360   5.471   8.481 -0.1753 -0.0992  0.1831
  782TIP3    H123905   2.277   5.422   8.480 -0.2189 -0.0311  0.3713
  782TIP3    H223906   2.343   5.545   8.539 -0.0509  0.0371  0.0448
  783TIP3   OH223907   6.246   1.153   0.539 -0.2273  1.4266  0.4343
  783TIP3    H123908   6.312   1.223   0.539  1.9842 -0.5355  0.4092
  783TIP3    H223909   6.242   1.125   0.630  0.4179  0.2849  0.1262
  784TIP3   OH223910   3.400   5.671   1.630 -0.0338  0.0786 -0.1182
  784TIP3    H123911   3.352   5.644   1.709  1.3879 -1.2295  0.3461
  784TIP3    H223912   3.385   5.600   1.568 -0.0082  0.4396 -0.5433
  785TIP3   OH223913   6.769   5.202   7.351 -0.3975  0.1098 -0.4958
  785TIP3    H123914   6.839   5.145   7.385  0.0782  1.6347  1.2862
  785TIP3    H223915   6.696   5.143   7.333  0.6682 -1.2708 -0.4736
  786TIP3   OH223916   0.482   4.436   0.286 -0.4485 -0.0537  0.2317
  786TIP3    H123917   0.573   4.446   0.314 -0.7650  0.6526  1.0835
  786TIP3    H223918   0.433   4.495   0.344 -1.3329  0.3069 -0.8452
  787TIP3   OH223919   0.093   0.579   0.282  0.1794  0.1105 -0.6188
  787TIP3    H123920   0.005   0.542   0.278 -0.0189  0.4014  0.5669
  787TIP3    H223921   0.152   0.504   0.281 -0.1081 -0.1150 -0.6309
  788TIP3   OH223922   3.103   1.991   2.120  0.0053  0.0845 -0.2344
  788TIP3    H123923   3.049   1.912   2.114  0.7331 -0.7777  2.9944
  788TIP3    H223924   3.041   2.063   2.111 -1.6533 -0.8849  2.3005
  789TIP3   OH223925   6.659   0.323   1.011  0.1733 -0.2642  0.0884
  789TIP3    H123926   6.581   0.378   1.014  1.2057  1.3453 -0.6313
  789TIP3    H223927   6.633   0.245   0.962 -1.5074 -0.7604  1.6597
  790TIP3   OH223928   1.135   5.771   6.723 -0.4392 -0.5230  0.2529
  790TIP3    H123929   1.189   5.704   6.681 -1.5346 -1.7246  0.6899
  790TIP3    H223930   1.179   5.854   6.704  0.3666 -1.2631 -1.2168
  791TIP3   OH223931   6.241   0.554   6.631  0.3014  0.0603 -0.0051
  791TIP3    H123932   6.313   0.523   6.686  2.1498  0.8763 -1.8608
  791TIP3    H223933   6.197   0.621   6.684  2.5624  1.4609  0.2305
  792TIP3   OH223934   1.963   0.427   1.265 -0.5698 -0.0855  0.0626
  792TIP3    H123935   2.011   0.424   1.182 -0.7924 -2.1150 -0.0477
  792TIP3    H223936   2.026   0.395   1.330 -1.1247 -0.7927  0.2632
  793TIP3   OH223937   4.739   1.648   6.446  0.2453  0.5805 -0.3542
  793TIP3    H123938   4.825   1.669   6.411 -0.4155  0.6901 -1.9899
  793TIP3    H223939   4.680   1.711   6.404 -0.8605 -0.5501 -0.5483
  794TIP3   OH223940   1.777   6.856   1.504  0.2065 -0.1786  0.2107
  794TIP3    H123941   1.824   6.898   1.577 -1.3848  3.1168 -0.4602
  794TIP3    H223942   1.688   6.890   1.511 -0.3904 -1.0401 -2.3623
  795TIP3   OH223943   2.187   5.029   8.422 -0.3277 -0.2471 -0.4061
  795TIP3    H123944   2.180   5.113   8.467  0.1058  0.0653 -0.9073
  795TIP3    H223945   2.150   4.965   8.483 -1.3177  0.3991 -0.3048
  796TIP3   OH223946   4.956   1.263   6.940 -0.0615 -0.3457 -0.5422
  796TIP3    H123947   4.947   1.207   7.017 -0.6819  2.0053  1.2168
  796TIP3    H223948   5.045   1.248   6.909  0.1683 -1.4198  0.5916
  797TIP3   OH223949   0.755   3.006   1.344  0.0960 -0.5372 -0.2685
  797TIP3    H123950   0.717   2.919   1.352  1.1657 -0.8528  2.6158
  797TIP3    H223951   0.829   3.006   1.404  0.9562  1.9603 -1.1819
  798TIP3   OH223952   0.919   6.060   1.542 -0.4810 -0.0078  0.1736
  798TIP3    H123953   0.980   5.988   1.560 -1.6543 -0.8317  0.9987
  798TIP3    H223954   0.847   6.046   1.604 -0.4220  2.2648  0.8212
  799TIP3   OH223955   1.900   5.560   8.543  0.1976  0.1771 -1.0136
  799TIP3    H123956   1.902   5.464   8.548 -0.3403  0.0605 -2.5861
  799TIP3    H223957   1.865   5.588   8.628 -1.5523 -1.1274 -1.2462
  800TIP3   OH223958   3.619   1.072   8.350 -0.0963 -0.0926  0.2848
  800TIP3    H123959   3.650   0.996   8.300  0.8916  0.3888  0.1320
  800TIP3    H223960   3.691   1.091   8.411 -0.8696 -0.0497  1.2007
  801TIP3   OH223961   5.728   3.354   7.518 -0.3230 -0.0475 -0.1677
  801TIP3    H123962   5.703   3.440   7.484 -0.1039 -0.1612 -0.6252
  801TIP3    H223963   5.767   3.308   7.443  1.5132  0.2185  0.5624
  802TIP3   OH223964   2.938   4.362   0.084  0.2464 -0.2584  0.0213
  802TIP3    H123965   2.927   4.431   0.149  2.5480  0.1363  0.0759
  802TIP3    H223966   2.926   4.405  -0.000  1.2453  0.1428  0.0715
  803TIP3   OH223967   6.152   0.209   1.375 -0.2977 -0.0080  0.3654
  803TIP3    H123968   6.229   0.154   1.364  0.1119  0.0281  2.5284
  803TIP3    H223969   6.177   0.272   1.443 -2.0178  0.4149  0.6590
  804TIP3   OH223970   4.678   1.312   6.853 -0.3533 -0.1181 -0.5443
  804TIP3    H123971   4.773   1.309   6.848 -0.4367 -0.6583 -3.2182
  804TIP3    H223972   4.658   1.291   6.944  2.0465 -1.1300 -0.1782
  805TIP3   OH223973   3.106   4.220   1.799 -0.0497 -0.0368  0.0215
  805TIP3    H123974   3.050   4.281   1.847  0.9504 -0.0518  1.2630
  805TIP3    H223975   3.184   4.271   1.777  0.3895 -0.5994  0.2468
  806TIP3   OH223976   5.989   1.771   6.779  0.3529 -0.7232 -0.5909
  806TIP3    H123977   6.079   1.750   6.802  0.6985  1.5209  0.3487
  806TIP3    H223978   5.994   1.806   6.690  1.0108  2.4618  0.5730
  807TIP3   OH223979   2.670   2.060   7.809 -0.5715 -0.2095 -0.2887
  807TIP3    H123980   2.690   2.084   7.900  1.4349 -0.0281 -0.7394
  807TIP3    H223981   2.680   2.142   7.761 -0.0795 -0.6252 -0.8971
  808TIP3   OH223982   6.215   2.244   0.499  0.0971 -0.5802 -0.3102
  808TIP3    H123983   6.247   2.154   0.486 -0.9559 -1.0217 -0.0167
  808TIP3    H223984   6.140   2.251   0.440  1.3409  0.8061 -1.8115
  809TIP3   OH223985   5.367   5.224   0.677 -0.3883 -0.1821  0.2513
  809TIP3    H123986   5.411   5.139   0.674  0.7999  0.4369 -1.0699
  809TIP3    H223987   5.439   5.288   0.677 -1.2426  0.8349  1.9917
  810TIP3   OH223988   0.544   5.384   1.165 -0.0805 -0.5558  0.2864
  810TIP3    H123989   0.529   5.409   1.256  0.4734 -2.1785  0.8578
  810TIP3    H223990   0.626   5.334   1.167 -1.4698 -3.0185 -0.6313
  811TIP3   OH223991   4.057   6.495   8.300 -0.2846 -0.1672 -0.2414
  811TIP3    H123992   4.003   6.526   8.228  1.1842  0.0574 -1.3077
  811TIP3    H223993   4.130   6.557   8.304  0.6224 -1.2202  0.1992
  812TIP3   OH223994   5.950   3.287   1.758 -0.5648 -0.2791  0.0294
  812TIP3    H123995   5.923   3.350   1.691 -0.2342  0.6223  0.7140
  812TIP3    H223996   5.913   3.204   1.730 -0.3176  0.0539 -1.3352
  813TIP3   OH223997   6.440   1.165   1.534  0.4252 -0.2849  0.2521
  813TIP3    H123998   6.484   1.140   1.453  1.0822 -1.9682  1.0730
  813TIP3    H223999   6.443   1.260   1.536 -0.3992 -0.1528 -2.1155
  814TIP3   OH224000   1.387   0.095   7.770  0.0661  0.5645  0.1766
  814TIP3    H124001   1.314   0.074   7.828 -0.0831  0.8714  0.1003
  814TIP3    H224002   1.389   0.190   7.767 -0.0266  0.5495 -0.4537
  815TIP3   OH224003   0.544   1.799   0.331 -0.4283  0.2468 -0.0969
  815TIP3    H124004   0.612   1.778   0.268 -0.1583  0.3495  0.1602
  815TIP3    H224005   0.555   1.736   0.402 -1.3047 -0.4632 -0.5597
  816TIP3   OH224006   2.207   1.984   0.486 -0.2400 -0.1052  0.4445
  816TIP3    H124007   2.296   1.978   0.451 -0.2215 -1.2570  0.6387
  816TIP3    H224008   2.216   2.036   0.566  0.3012 -0.4243  0.5949
  817TIP3   OH224009   0.949   0.645   6.202  0.3011  0.0435 -0.0806
  817TIP3    H124010   0.862   0.640   6.163  0.3038  0.7713 -0.2026
  817TIP3    H224011   0.946   0.586   6.276  0.3222 -1.4645 -1.2345
  818TIP3   OH224012   1.717   2.504   7.741  0.0120 -0.0311 -0.0530
  818TIP3    H124013   1.649   2.567   7.765  0.4498 -0.2167  1.8320
  818TIP3    H224014   1.797   2.537   7.782  0.7116 -0.7280 -0.7952
  819TIP3   OH224015   2.730   6.499   0.035  0.2736  0.0052 -0.2284
  819TIP3    H124016   2.788   6.564  -0.005 -2.1981  1.8453 -1.0338
  819TIP3    H224017   2.694   6.543   0.112 -0.9771 -0.5932 -0.4483
  820TIP3   OH224018   5.353   4.575   7.281 -0.1303  1.0915 -0.2779
  820TIP3    H124019   5.265   4.612   7.274 -1.0178  0.6627  4.6494
  820TIP3    H224020   5.409   4.650   7.299 -0.9996  0.9664  4.1038
  821TIP3   OH224021   6.709   0.676   1.880  0.1022 -0.5225  0.1310
  821TIP3    H124022   6.688   0.728   1.958  2.0056 -0.6093  0.7495
  821TIP3    H224023   6.781   0.723   1.839 -2.0574  0.5739 -2.7224
  822TIP3   OH224024   3.355   0.463   1.711  0.2152 -0.1979 -0.1369
  822TIP3    H124025   3.309   0.533   1.665  0.3689 -0.7125 -1.0817
  822TIP3    H224026   3.448   0.480   1.695  0.2225 -1.4975 -1.7400
  823TIP3   OH224027   2.003   1.856   6.081 -0.2493  0.2322 -0.3137
  823TIP3    H124028   2.061   1.905   6.022  1.5105  0.0203  1.1392
  823TIP3    H224029   2.063   1.811   6.141 -1.8952 -1.5230  0.1072
  824TIP3   OH224030   1.223   2.823   0.206  0.0455  0.0095 -0.3180
  824TIP3    H124031   1.309   2.861   0.189 -0.0523 -0.6166 -2.5171
  824TIP3    H224032   1.169   2.898   0.233  0.8657  0.6991 -0.5488
  825TIP3   OH224033   0.224   0.436   0.984 -0.6381  0.9019  0.0720
  825TIP3    H124034   0.309   0.481   0.989 -0.5776  0.8370 -0.3896
  825TIP3    H224035   0.188   0.460   0.899  0.8099 -2.3660 -1.6837
  826TIP3   OH224036   2.315   4.211   8.698 -0.3894 -0.5267 -0.0901
  826TIP3    H124037   2.291   4.157   8.622  1.5240 -0.5678 -0.7304
  826TIP3    H224038   2.294   4.301   8.670  1.0292 -0.4542 -1.0286
  827TIP3   OH224039   6.093   1.213   8.338  0.3930  0.3094 -0.0880
  827TIP3    H124040   6.059   1.295   8.303  0.5809  0.0159 -0.9617
  827TIP3    H224041   6.177   1.200   8.294  0.3637 -0.3558  0.0424
  828TIP3   OH224042   2.769   3.235   7.137 -0.0354  0.3603 -0.4560
  828TIP3    H124043   2.718   3.156   7.117  0.7355 -0.3850  0.4587
  828TIP3    H224044   2.844   3.230   7.078 -0.5409  1.0123 -1.1854
  829TIP3   OH224045   0.625   6.634   1.275  0.3422 -0.1251  0.2413
  829TIP3    H124046   0.689   6.705   1.267  2.5931 -1.8520  1.7368
  829TIP3    H224047   0.652   6.570   1.209 -1.8496  0.4416 -1.3059
  830TIP3   OH224048   1.879   5.805   1.611  0.2267 -0.2431  0.4069
  830TIP3    H124049   1.950   5.853   1.567  0.0995  0.0787  0.5541
  830TIP3    H224050   1.819   5.782   1.540 -0.6049  1.3464  0.5557
  831TIP3   OH224051   3.648   0.787   8.165  0.4956  0.1695 -0.5301
  831TIP3    H124052   3.712   0.819   8.101 -0.2056  0.5758 -1.0351
  831TIP3    H224053   3.563   0.809   8.128  0.0767  1.7241  1.2153
  832TIP3   OH224054   1.596   1.357   6.617  0.0056  0.4925 -0.3237
  832TIP3    H124055   1.624   1.343   6.527  1.1132 -1.1914  0.2423
  832TIP3    H224056   1.595   1.270   6.656 -1.8211  1.0151  0.9316
  833TIP3   OH224057   2.851   5.037   1.611 -0.2451 -0.1714 -0.0137
  833TIP3    H124058   2.759   5.013   1.599 -0.4563  0.4942  0.2046
  833TIP3    H224059   2.868   5.022   1.704  0.1816 -1.3169 -0.2654
  834TIP3   OH224060   3.415   6.791   0.942 -0.0413  0.5561  0.3828
  834TIP3    H124061   3.472   6.847   0.996  1.0906 -0.2120  0.0218
  834TIP3    H224062   3.455   6.704   0.947 -1.4910 -0.1323  0.5272
  835TIP3   OH224063   6.808   0.185   7.357  0.1306  0.0331 -0.6143
  835TIP3    H124064   6.887   0.134   7.374 -0.7489 -0.7269  1.4236
  835TIP3    H224065   6.737   0.121   7.362 -0.8437  1.1488  0.1708
  836TIP3   OH224066   4.327   6.759   7.495 -0.3531 -0.4382 -0.2249
  836TIP3    H124067   4.401   6.802   7.539 -0.8315  0.1319  0.0341
  836TIP3    H224068   4.362   6.733   7.410  1.3288 -3.7297  1.3122
  837TIP3   OH224069   3.636   4.735   1.454 -0.8206  0.3085 -0.6656
  837TIP3    H124070   3.673   4.654   1.489 -0.8895  0.3420 -0.5167
  837TIP3    H224071   3.542   4.729   1.472 -1.0898 -0.3426 -2.1409
  838TIP3   OH224072   0.781   1.003   1.400  0.8752 -0.6153 -0.1261
  838TIP3    H124073   0.779   0.910   1.377 -0.6633 -0.5349 -0.4306
  838TIP3    H224074   0.722   1.010   1.476  1.4328  0.0317  0.2580
  839TIP3   OH224075   2.539   6.769   6.540  0.0424 -0.1943  0.0020
  839TIP3    H124076   2.555   6.812   6.456 -1.5109 -0.5599 -0.5147
  839TIP3    H224077   2.545   6.839   6.605 -0.3966  0.4121 -0.6030
  840TIP3   OH224078   3.085   3.205   8.273  0.2255 -0.1079  0.0822
  840TIP3    H124079   3.116   3.147   8.204 -0.2188  0.4366 -0.5890
  840TIP3    H224080   3.162   3.258   8.296  0.0628  0.6101 -0.9333
  841TIP3   OH224081   4.163   6.131   6.996  0.6671  0.2761 -0.3035
  841TIP3    H124082   4.242   6.171   6.959  0.4932  0.8797 -0.0387
  841TIP3    H224083   4.130   6.196   7.058  0.2131 -0.1626 -0.0770
  842TIP3   OH224084   1.346   5.033   0.021 -0.0611 -0.0662 -0.0426
  842TIP3    H124085   1.384   5.112   0.058 -1.2400 -0.0405  1.1787
  842TIP3    H224086   1.305   5.062  -0.061 -1.4528  0.8328  0.9406
  843TIP3   OH224087   2.659   2.654   1.025 -0.2669 -0.4603  0.1820
  843TIP3    H124088   2.653   2.729   1.084 -2.0803 -2.8319  3.3272
  843TIP3    H224089   2.573   2.650   0.982  0.4900  0.2987 -1.4904
  844TIP3   OH224090   6.552   2.220   6.925 -0.3506  0.4959  0.6676
  844TIP3    H124091   6.532   2.284   6.994 -1.0024  0.7696  0.2394
  844TIP3    H224092   6.592   2.272   6.855 -2.2239  0.7237 -0.2902
  845TIP3   OH224093   6.841   4.214   7.218 -0.0448  0.1878 -0.5223
  845TIP3    H124094   6.807   4.300   7.194  1.3353  1.4008  1.6091
  845TIP3    H224095   6.925   4.209   7.172 -0.2663 -0.1860 -0.8950
  846TIP3   OH224096   4.393   6.687   7.206 -0.9471 -0.1167  0.6402
  846TIP3    H124097   4.301   6.688   7.179 -1.1912 -1.6661  1.2940
  846TIP3    H224098   4.414   6.778   7.224 -2.2831  0.2911  0.2473
  847TIP3   OH224099   4.695   5.565   7.690  0.1040  0.1790 -0.2542
  847TIP3    H124100   4.674   5.550   7.597 -0.9128  1.3758 -0.2480
  847TIP3    H224101   4.756   5.639   7.688  0.4580 -0.1009  0.0218
  848TIP3   OH224102   3.856   4.723   1.119 -0.1367 -0.1058 -0.8098
  848TIP3    H124103   3.945   4.691   1.103  0.0909 -0.4769  0.9886
  848TIP3    H224104   3.803   4.644   1.129 -0.0681  0.0592  1.1031
  849TIP3   OH224105   0.528   0.087   1.586 -0.3880  0.0670  0.4999
  849TIP3    H124106   0.546   0.092   1.680  1.1069  1.9356  0.1822
  849TIP3    H224107   0.530   0.178   1.557 -2.5257 -0.3125 -1.0885
  850TIP3   OH224108   6.155   2.886   8.692 -0.4741 -0.5978  0.1178
  850TIP3    H124109   6.148   2.885   8.596  1.7694  1.2063 -0.1424
  850TIP3    H224110   6.065   2.900   8.722 -0.8745  1.7553 -1.8811
  851TIP3   OH224111   3.550   3.016   0.806  0.7171 -0.5910 -0.5133
  851TIP3    H124112   3.527   2.924   0.792 -1.1256 -0.2831  0.1938
  851TIP3    H224113   3.467   3.063   0.797  1.3310  0.8106  0.7224
  852TIP3   OH224114   0.691   6.187   7.697 -0.3612 -0.3249 -0.3627
  852TIP3    H124115   0.677   6.093   7.710 -0.6388 -0.1718  0.5290
  852TIP3    H224116   0.648   6.206   7.614  1.3512 -1.3366 -1.5519
  853TIP3   OH224117   5.218   3.649   8.329 -0.3295  0.4672  0.1872
  853TIP3    H124118   5.124   3.665   8.337 -0.5323 -0.3232 -0.4629
  853TIP3    H224119   5.246   3.706   8.258 -0.4732  0.1202 -0.1492
  854TIP3   OH224120   3.858   6.202   7.250  0.1722  0.5862  0.1166
  854TIP3    H124121   3.887   6.247   7.171 -0.5288 -0.8083 -0.9699
  854TIP3    H224122   3.936   6.201   7.306  0.4738  2.2378 -0.2156
  855TIP3   OH224123   3.147   2.514   6.292  0.4393 -0.2502  0.4156
  855TIP3    H124124   3.146   2.418   6.291 -2.1042 -0.3189  1.7218
  855TIP3    H224125   3.199   2.536   6.368 -0.3358 -0.6629  1.0804
  856TIP3   OH224126   3.597   6.090   1.253  0.3633  0.3637  0.3751
  856TIP3    H124127   3.644   6.107   1.334 -0.0620  2.2356  0.2803
  856TIP3    H224128   3.662   6.102   1.184  0.6279 -0.8317  0.3982
  857TIP3   OH224129   6.125   2.375   7.936 -0.1658 -0.3718 -0.4613
  857TIP3    H124130   6.146   2.402   7.846  1.5071  0.1442  0.0606
  857TIP3    H224131   6.034   2.346   7.930 -0.2773  0.1618 -2.2131
  858TIP3   OH224132   1.402   3.673   7.211 -0.3423  0.2480  0.7108
  858TIP3    H124133   1.333   3.715   7.160  2.1852  1.9098 -1.6230
  858TIP3    H224134   1.402   3.720   7.295 -0.4216  2.0093 -0.2307
  859TIP3   OH224135   1.848   5.432   1.523  0.1232 -0.6129  0.1669
  859TIP3    H124136   1.887   5.477   1.598  0.3142 -0.1904 -0.1780
  859TIP3    H224137   1.860   5.493   1.450  1.8745 -1.8567 -0.6759
  860TIP3   OH224138   1.268   2.493   6.649 -0.2272  0.3052 -0.2360
  860TIP3    H124139   1.259   2.585   6.675 -0.3785  0.2939 -0.2510
  860TIP3    H224140   1.316   2.497   6.566 -0.0035  0.3565 -0.1060
  861TIP3   OH224141   3.304   4.090   1.986  0.2361  0.2852 -0.0155
  861TIP3    H124142   3.370   4.056   1.926  0.5311  0.1267  0.3959
  861TIP3    H224143   3.352   4.113   2.065 -0.1751  0.3271  0.2268
  862TIP3   OH224144   2.408   6.413   1.954  0.1079 -0.5265  0.4023
  862TIP3    H124145   2.501   6.417   1.934 -0.2269 -0.2397 -1.1926
  862TIP3    H224146   2.398   6.332   2.004  1.2004 -0.5782  0.5473
  863TIP3   OH224147   4.164   2.378   0.644  0.2669 -0.4099  0.1761
  863TIP3    H124148   4.169   2.425   0.560  1.6562  0.1815  0.5697
  863TIP3    H224149   4.177   2.286   0.621 -2.1626 -0.6470 -0.5632
  864TIP3   OH224150   2.266   0.028   6.454 -0.3452 -0.5440 -0.5206
  864TIP3    H124151   2.245   0.120   6.442 -1.7215 -0.9822 -1.7348
  864TIP3    H224152   2.358   0.028   6.482 -0.6966  1.2369  0.8515
  865TIP3   OH224153   3.483   2.695   8.512 -0.1497  0.5878 -0.6852
  865TIP3    H124154   3.415   2.757   8.486 -0.5915  0.4132  0.0328
  865TIP3    H224155   3.541   2.745   8.570  0.7687  0.9447 -1.8747
  866TIP3   OH224156   1.496   0.789   6.529  0.8705 -0.4463 -0.2292
  866TIP3    H124157   1.453   0.873   6.541 -2.0466 -1.8947  0.2714
  866TIP3    H224158   1.516   0.785   6.436 -0.8984 -0.0224 -0.6619
  867TIP3   OH224159   1.508   4.197   1.901  0.2889 -0.7443 -0.0157
  867TIP3    H124160   1.459   4.198   1.983 -1.0577  0.4240 -0.7913
  867TIP3    H224161   1.513   4.289   1.875  0.0779 -1.1544 -1.5870
  868TIP3   OH224162   2.544   3.764   6.584  0.3723 -0.0233 -0.0129
  868TIP3    H124163   2.550   3.857   6.605  0.7085 -0.1531  0.4825
  868TIP3    H224164   2.460   3.736   6.621  0.7161 -0.1300  0.6976
  869TIP3   OH224165   2.855   5.970   7.619  0.0083 -0.0773 -0.1022
  869TIP3    H124166   2.860   6.060   7.653 -0.6615  0.2481 -0.8266
  869TIP3    H224167   2.784   5.930   7.668 -0.5229  0.1897 -0.6337
  870TIP3   OH224168   2.514   0.411   8.137 -0.1125 -0.2786  0.0909
  870TIP3    H124169   2.429   0.368   8.131 -0.9830  1.0378  1.8085
  870TIP3    H224170   2.576   0.340   8.156 -1.2289 -1.0172  1.1610
  871TIP3   OH224171   0.344   3.951   7.722  0.0555  0.1503 -0.3155
  871TIP3    H124172   0.286   3.921   7.793  1.0505 -0.9803  0.0397
  871TIP3    H224173   0.432   3.946   7.759  0.5872 -0.3952 -1.6126
  872TIP3   OH224174   1.461   2.088   7.983 -0.3187  0.1484 -0.0107
  872TIP3    H124175   1.545   2.043   7.992 -0.8090 -0.4272  2.5626
  872TIP3    H224176   1.483   2.172   7.942  1.2356 -0.6398 -0.8890
  873TIP3   OH224177   6.726   4.836   7.842 -0.2595  0.3252  0.1488
  873TIP3    H124178   6.734   4.931   7.843  1.6699  0.2866 -2.5163
  873TIP3    H224179   6.643   4.819   7.887 -0.4977  3.2127  0.9898
  874TIP3   OH224180   1.274   6.433   7.868 -0.0637  0.2334  0.7186
  874TIP3    H124181   1.242   6.432   7.958  0.6611  2.6278  1.0746
  874TIP3    H224182   1.222   6.367   7.823  0.0667 -1.5711  3.0400
  875TIP3   OH224183   3.061   4.629   0.375  0.4624  0.2664 -0.4676
  875TIP3    H124184   3.121   4.656   0.305 -0.3308  0.2248 -1.1828
  875TIP3    H224185   3.072   4.695   0.443  0.9813  0.5195 -0.7927
  876TIP3   OH224186   3.846   5.285   7.944 -0.2106  0.0884 -0.5317
  876TIP3    H124187   3.774   5.240   7.900 -0.5416 -0.9827  1.0222
  876TIP3    H224188   3.917   5.286   7.880 -0.9050 -0.7645 -1.3303
  877TIP3   OH224189   1.986   2.216   1.253  0.2948  0.4120 -0.4450
  877TIP3    H124190   1.942   2.301   1.262  1.1177  0.8301 -0.1983
  877TIP3    H224191   2.067   2.227   1.303 -0.2089 -0.9885  0.7450
  878TIP3   OH224192   3.531   1.101   0.497  0.2085  0.0179  0.3530
  878TIP3    H124193   3.461   1.045   0.530 -0.0122  0.0124 -0.1171
  878TIP3    H224194   3.490   1.153   0.429  0.7376 -0.2304 -0.1650
  879TIP3   OH224195   0.706   2.239   0.486 -0.1312  0.2260  0.6341
  879TIP3    H124196   0.768   2.171   0.509  1.4692  1.6113  0.6289
  879TIP3    H224197   0.629   2.192   0.453  1.0315 -1.5481  0.3251
  880TIP3   OH224198   4.760   6.817   0.088  0.0949 -0.6841 -0.2270
  880TIP3    H124199   4.772   6.755   0.015  1.9943  1.0765 -1.5130
  880TIP3    H224200   4.675   6.857   0.071  0.5843 -0.1630 -1.6555
  881TIP3   OH224201   0.554   4.614   7.533 -0.1613 -0.1997  0.1286
  881TIP3    H124202   0.472   4.598   7.487 -0.5538  0.3424  0.6278
  881TIP3    H224203   0.580   4.702   7.507 -1.3473  0.8925  2.3104
  882TIP3   OH224204   1.923   4.918   7.519  0.5497 -0.3200 -0.0768
  882TIP3    H124205   1.832   4.889   7.526 -0.4967  2.7115  0.4414
  882TIP3    H224206   1.931   4.948   7.428  0.1963  1.6573  0.4904
  883TIP3   OH224207   5.272   6.661   7.317  0.0361  0.4287 -0.1711
  883TIP3    H124208   5.247   6.722   7.387 -0.3080  2.0790 -1.6508
  883TIP3    H224209   5.213   6.587   7.327  1.8946 -0.8210  3.0508
  884TIP3   OH224210   2.777   6.689   0.526 -0.1717  1.2307  0.4853
  884TIP3    H124211   2.771   6.783   0.541 -0.4016  1.5633 -1.4051
  884TIP3    H224212   2.860   6.677   0.480 -1.7972  1.0954 -2.6880
  885TIP3   OH224213   1.235   1.457   0.372  0.0897 -0.3010  0.1511
  885TIP3    H124214   1.210   1.365   0.372 -0.3308 -0.1852  0.1732
  885TIP3    H224215   1.210   1.489   0.285  0.2608 -0.2135  0.1331
  886TIP3   OH224216   5.248   4.637   8.431 -0.2868  0.5302  0.3434
  886TIP3    H124217   5.272   4.642   8.524 -0.9283  2.0660  0.4540
  886TIP3    H224218   5.286   4.717   8.393  0.3547 -0.3063 -0.8188
  887TIP3   OH224219   5.153   2.332   1.107  0.1126 -0.0543 -0.2084
  887TIP3    H124220   5.203   2.255   1.082  0.2286  0.2497 -0.9392
  887TIP3    H224221   5.217   2.402   1.115 -0.2353  0.4871 -1.7769
  888TIP3   OH224222   2.721   3.390   0.755  0.2485 -0.6152  0.0434
  888TIP3    H124223   2.683   3.449   0.820 -0.4877 -0.2994 -0.6534
  888TIP3    H224224   2.816   3.400   0.766  0.1468 -0.8816  1.3266
  889TIP3   OH224225   5.804   6.363   8.009  0.4374 -0.4614  0.2044
  889TIP3    H124226   5.740   6.394   7.944  0.3405 -0.4688  0.2969
  889TIP3    H224227   5.869   6.433   8.013  0.2314 -0.2790  0.3955
  890TIP3   OH224228   5.542   4.956   8.417 -0.4639 -0.5999  0.3557
  890TIP3    H124229   5.505   5.032   8.371  0.8819 -0.1194  0.0370
  890TIP3    H224230   5.608   4.993   8.475 -0.1974 -1.4806  0.6208
  891TIP3   OH224231   6.794   1.095   0.144  0.1244 -0.3458 -0.6704
  891TIP3    H124232   6.744   1.015   0.131  0.6017 -0.4604 -1.8799
  891TIP3    H224233   6.852   1.076   0.218 -1.6477 -0.1724  0.8539
  892TIP3   OH224234   6.387   2.517   6.592 -0.2162  0.5578  0.5529
  892TIP3    H124235   6.398   2.580   6.520  1.2349 -2.3268 -1.9935
  892TIP3    H224236   6.292   2.509   6.602 -0.5228  0.3780 -1.8126
  893TIP3   OH224237   2.360   0.567   6.734  0.3354  0.2331  0.1519
  893TIP3    H124238   2.290   0.503   6.723  0.2532 -0.4160  3.3688
  893TIP3    H224239   2.440   0.519   6.710 -0.0827  0.1860 -1.1753
  894TIP3   OH224240   4.046   6.745   7.533  0.5026  0.4320  0.0850
  894TIP3    H124241   3.996   6.779   7.459  0.5964  1.1903  0.3530
  894TIP3    H224242   4.137   6.750   7.505  0.7943  3.3064  1.1722
  895TIP3   OH224243   4.659   3.451   1.668 -0.4734 -0.7175  0.4423
  895TIP3    H124244   4.592   3.398   1.625 -0.1451 -0.9312  0.1945
  895TIP3    H224245   4.637   3.446   1.761 -1.4485  0.1114  0.2775
  896TIP3   OH224246   5.641   3.375   1.114  0.3431  0.8935 -0.1327
  896TIP3    H124247   5.561   3.381   1.165  0.0024  1.9290 -0.7545
  896TIP3    H224248   5.614   3.339   1.030  0.5845  0.9389 -0.2318
  897TIP3   OH224249   0.932   5.277   1.663 -0.1942 -0.1856 -0.0181
  897TIP3    H124250   0.944   5.198   1.716 -0.1936 -1.0277 -1.2293
  897TIP3    H224251   0.848   5.263   1.618 -0.2943  0.6048 -0.0982
  898TIP3   OH224252   4.364   4.615   6.917 -0.2155 -0.6425  0.2518
  898TIP3    H124253   4.435   4.558   6.944  2.3015  0.1395 -3.8465
  898TIP3    H224254   4.404   4.702   6.909 -2.3994  0.4735  0.5455
  899TIP3   OH224255   0.734   3.433   2.268 -0.0398  0.3465  0.4821
  899TIP3    H124256   0.666   3.461   2.207 -1.0512 -1.9012  0.4774
  899TIP3    H224257   0.698   3.355   2.310  1.4064  0.7212  2.5885
  900TIP3   OH224258   0.142   1.865   1.073 -0.7696  0.3391  0.2854
  900TIP3    H124259   0.082   1.892   1.003 -0.1319 -0.8780 -0.7586
  900TIP3    H224260   0.209   1.933   1.073 -1.5762  1.1590  0.7644
  901TIP3   OH224261   4.242   0.834   7.371 -0.4021  0.5869 -0.1314
  901TIP3    H124262   4.148   0.833   7.388 -0.0345  1.9706  2.5499
  901TIP3    H224263   4.274   0.750   7.403 -0.6899  0.1489 -0.9732
  902TIP3   OH224264   5.494   3.682   7.186  0.8527 -0.4413  0.6111
  902TIP3    H124265   5.567   3.646   7.237  1.5618  0.8544  0.5331
  902TIP3    H224266   5.487   3.623   7.111  0.9650 -1.3211  1.2609
  903TIP3   OH224267   5.664   1.720   7.861 -0.2130  0.5154 -0.1702
  903TIP3    H124268   5.726   1.685   7.796  0.1174 -0.0441  0.4371
  903TIP3    H224269   5.651   1.811   7.834 -0.6889  0.0868 -1.4833
  904TIP3   OH224270   2.928   4.518   7.086 -0.8912 -0.3061 -0.0209
  904TIP3    H124271   2.938   4.610   7.064  1.2877 -0.9190 -1.9472
  904TIP3    H224272   2.872   4.483   7.017 -0.6353 -0.6991 -0.0302
  905TIP3   OH224273   3.836   6.526   0.859  0.2550  0.4447  0.0695
  905TIP3    H124274   3.827   6.439   0.819  1.9650  0.1643  0.2096
  905TIP3    H224275   3.804   6.587   0.793  0.2505 -0.2209 -0.5507
  906TIP3   OH224276   6.750   2.671   7.845 -0.0243 -0.2924 -0.3954
  906TIP3    H124277   6.690   2.606   7.882 -0.1602  0.0080 -0.0911
  906TIP3    H224278   6.765   2.734   7.915 -1.7359  1.3021 -1.3651
  907TIP3   OH224279   1.588   4.438   0.254 -0.2593  0.3302 -0.1206
  907TIP3    H124280   1.493   4.448   0.260 -0.6077 -2.6144  1.1301
  907TIP3    H224281   1.602   4.390   0.173 -0.0087 -0.4899  0.3967
  908TIP3   OH224282   6.738   0.995   7.581 -0.1282 -0.0802 -0.5475
  908TIP3    H124283   6.829   0.971   7.596 -0.3038  0.3226  1.3937
  908TIP3    H224284   6.734   1.089   7.600 -0.7148  0.1709 -1.8167
  909TIP3   OH224285   2.568   1.424   8.100 -0.5263 -0.3285 -0.4438
  909TIP3    H124286   2.529   1.463   8.179  0.5697 -1.9247  0.9585
  909TIP3    H224287   2.607   1.498   8.054 -0.1385  0.5232  1.1634
  910TIP3   OH224288   5.419   6.439   8.008  0.0553  0.3059 -0.3688
  910TIP3    H124289   5.456   6.477   8.088  1.5238  0.4607 -1.0741
  910TIP3    H224290   5.465   6.484   7.937 -0.2681 -0.7319 -1.2712
  911TIP3   OH224291   2.579   4.902   1.559 -0.1850 -0.2756 -0.3075
  911TIP3    H124292   2.643   4.859   1.616 -0.9602 -1.1161 -0.0635
  911TIP3    H224293   2.497   4.855   1.574 -0.7538  0.4711 -0.9899
  912TIP3   OH224294   1.062   0.038   1.113  0.5756  0.4633  0.1284
  912TIP3    H124295   1.138  -0.016   1.133  0.8561  0.3114 -1.2590
  912TIP3    H224296   1.025   0.060   1.199  1.6076 -0.2662  0.7834
  913TIP3   OH224297   3.984   4.092   1.693 -0.2811 -0.5122 -0.6517
  913TIP3    H124298   3.962   4.182   1.719 -0.0017 -0.4819 -0.5131
  913TIP3    H224299   3.962   4.089   1.600  0.1884 -0.1424 -0.7794
  914TIP3   OH224300   3.554   0.578   8.685  0.0191  0.2638 -1.0398
  914TIP3    H124301   3.497   0.554   8.758  0.8259  0.4103 -0.3433
  914TIP3    H224302   3.499   0.632   8.628 -0.4216  0.7356 -0.1889
  915TIP3   OH224303   4.869   6.061   0.754 -0.3066 -0.5389 -0.1510
  915TIP3    H124304   4.784   6.101   0.772 -0.4340 -0.5573 -0.6893
  915TIP3    H224305   4.879   6.067   0.659  0.8804  0.6665  0.0065
  916TIP3   OH224306   2.582   6.410   7.618 -0.9608  0.2383  0.1020
  916TIP3    H124307   2.546   6.469   7.685 -1.3624 -0.5515  0.5919
  916TIP3    H224308   2.551   6.323   7.643  2.1790 -0.7193  1.2443
  917TIP3   OH224309   2.981   3.015   0.454 -0.1585  0.0733  0.1261
  917TIP3    H124310   2.926   3.003   0.377 -1.7988 -1.0367  1.4051
  917TIP3    H224311   2.919   3.016   0.527  1.5294 -1.5599  1.6677
  918TIP3   OH224312   5.715   4.619   0.550  0.1017  0.2955 -0.1532
  918TIP3    H124313   5.636   4.637   0.602  0.1897 -0.7511  0.3657
  918TIP3    H224314   5.775   4.577   0.612  1.0328  0.9798 -0.5754
  919TIP3   OH224315   3.670   6.703   1.439  0.1146  0.2783 -0.2635
  919TIP3    H124316   3.670   6.797   1.423  1.4308  0.0583 -1.9284
  919TIP3    H224317   3.673   6.664   1.351  0.5131 -1.2866  0.4094
  920TIP3   OH224318   3.009   5.171   0.862  0.2669  0.0851 -0.1566
  920TIP3    H124319   3.018   5.113   0.938 -2.6407 -0.8269 -0.3918
  920TIP3    H224320   3.024   5.259   0.897  0.0273 -0.4136  1.2596
  921TIP3   OH224321   0.391   0.629   0.269  0.4110 -0.3827  0.2540
  921TIP3    H124322   0.358   0.559   0.325 -0.3033 -1.3383 -1.3074
  921TIP3    H224323   0.452   0.586   0.209  1.0401  0.5844  0.1797
  922TIP3   OH224324   6.055   5.031   1.770  0.3585  0.0107 -0.0687
  922TIP3    H124325   6.115   4.997   1.836  0.4631  0.2425 -0.0407
  922TIP3    H224326   6.004   5.097   1.817  2.1687  2.0659 -0.7855
  923TIP3   OH224327   0.591   2.777   1.279  0.2204 -0.0366 -0.0203
  923TIP3    H124328   0.527   2.782   1.350  0.2709 -2.1687  0.2192
  923TIP3    H224329   0.614   2.684   1.273  1.0985  0.2656 -2.0610
  924TIP3   OH224330   1.335   2.193   8.234  0.4409  0.0607  0.3482
  924TIP3    H124331   1.374   2.166   8.150 -2.6667  2.0633 -1.9332
  924TIP3    H224332   1.247   2.157   8.233  0.4993 -0.3962  3.1533
  925TIP3   OH224333   6.162   5.617   0.010 -0.4701 -0.5976 -0.0991
  925TIP3    H124334   6.141   5.690  -0.047  0.1267 -0.9558 -0.7970
  925TIP3    H224335   6.255   5.599  -0.007 -0.4178 -1.0311  0.6084
  926TIP3   OH224336   1.663   4.454   2.725 -0.6072  0.1893  0.3171
  926TIP3    H124337   1.740   4.492   2.681 -0.2099 -0.6645  0.2380
  926TIP3    H224338   1.613   4.413   2.653 -0.1026 -0.9660  0.5949
  927TIP3   OH224339   3.179   6.061   6.706  0.4849 -0.2232 -1.0495
  927TIP3    H124340   3.088   6.051   6.678  0.8450  1.0406 -2.9274
  927TIP3    H224341   3.227   5.997   6.654  0.4800 -2.5165  1.5964
  928TIP3   OH224342   1.561   0.898   1.376  0.2314 -0.7214 -0.4758
  928TIP3    H124343   1.515   0.973   1.336  0.1742 -1.2145 -1.3606
  928TIP3    H224344   1.650   0.930   1.391  0.0323 -0.2654 -0.2212
  929TIP3   OH224345   1.612   3.616   7.509 -0.3278 -0.8687  0.2562
  929TIP3    H124346   1.701   3.641   7.482 -0.1726 -1.8735 -0.2243
  929TIP3    H224347   1.616   3.610   7.604 -0.3331  0.7091  0.3899
  930TIP3   OH224348   1.417   5.041   0.585  0.8607  0.4071 -0.4516
  930TIP3    H124349   1.373   5.042   0.500  2.1508  1.5941 -1.1566
  930TIP3    H224350   1.477   5.116   0.581  0.5144  0.8613  1.7445
  931TIP3   OH224351   1.529   6.479   1.191  0.1276 -0.0666 -0.1110
  931TIP3    H124352   1.528   6.540   1.265 -2.3791 -0.8423  0.5748
  931TIP3    H224353   1.473   6.520   1.126 -1.4788 -1.5056  0.3067
  932TIP3   OH224354   5.990   0.309   0.900 -0.9696 -0.1028  0.6097
  932TIP3    H124355   5.920   0.280   0.958 -0.2112 -0.7622  1.2128
  932TIP3    H224356   6.070   0.270   0.936 -0.1587  1.2785  0.4017
  933TIP3   OH224357   3.828   1.574   0.847  0.5692  0.1748 -0.8845
  933TIP3    H124358   3.910   1.528   0.834  0.3643 -0.9115  1.2252
  933TIP3    H224359   3.762   1.520   0.803  0.5609 -0.7437  0.2067
  934TIP3   OH224360   4.737   1.790   1.017 -0.0713  0.3261 -0.1232
  934TIP3    H124361   4.666   1.844   0.982 -0.4522  0.2125  0.4697
  934TIP3    H224362   4.693   1.715   1.057  0.3635  0.4157  0.5270
  935TIP3   OH224363   6.496   0.430   6.689 -0.0916  0.3418  0.2058
  935TIP3    H124364   6.440   0.395   6.619 -3.5892  1.8165  1.9706
  935TIP3    H224365   6.497   0.361   6.755 -1.4594  0.9266  0.9008
  936TIP3   OH224366   4.857   0.685   2.841 -0.4928  0.2523 -0.3886
  936TIP3    H124367   4.869   0.637   2.923  0.6383  1.4828  0.2232
  936TIP3    H224368   4.946   0.711   2.816 -1.1062  4.4409  0.9000
  937TIP3   OH224369   1.222   5.328   8.170  0.5080 -0.4636  0.5158
  937TIP3    H124370   1.219   5.233   8.159 -0.9523 -0.3950  0.1864
  937TIP3    H224371   1.131   5.356   8.169  0.7248  0.6580  3.2651
  938TIP3   OH224372   3.860   4.719   7.058  0.0455 -0.2335  0.2044
  938TIP3    H124373   3.769   4.702   7.034 -0.0625  2.1576 -1.5369
  938TIP3    H224374   3.889   4.641   7.104 -2.2549 -1.9124 -1.0302
  939TIP3   OH224375   3.931   0.355   6.996  0.0658  0.1051 -0.2237
  939TIP3    H124376   3.894   0.372   7.082 -0.4512 -0.3592 -0.3406
  939TIP3    H224377   3.981   0.274   7.007  0.1913  0.1727 -0.3007
  940TIP3   OH224378   4.920   1.705   1.209 -0.5598 -0.1847 -0.2048
  940TIP3    H124379   5.003   1.748   1.187 -1.0873  2.1311  1.8738
  940TIP3    H224380   4.857   1.744   1.148 -0.5589 -0.0183 -0.1008
  941TIP3   OH224381   1.117   2.529   8.121 -0.0759  0.1023 -0.1785
  941TIP3    H124382   1.029   2.553   8.150 -0.4562  0.2717 -1.4096
  941TIP3    H224383   1.149   2.470   8.189  0.5857  3.3171  2.5296
  942TIP3   OH224384   2.537   0.887   8.258 -0.4089  0.4223  0.4585
  942TIP3    H124385   2.552   0.960   8.198 -4.4556 -0.0418 -1.4477
  942TIP3    H224386   2.573   0.811   8.212 -0.2909  0.5588  0.3236
  943TIP3   OH224387   4.981   4.554   8.489  0.3701 -0.4302 -0.0455
  943TIP3    H124388   4.985   4.617   8.560 -0.3025  0.8021 -1.0567
  943TIP3    H224389   5.064   4.565   8.442  0.0183  0.1274 -0.5520
  944TIP3   OH224390   6.699   5.145   2.294 -0.3832  0.2619  0.3947
  944TIP3    H124391   6.773   5.190   2.335  0.2006  0.2257 -0.5911
  944TIP3    H224392   6.684   5.194   2.213  0.9288 -1.8584 -1.2247
  945TIP3   OH224393   1.855   3.110   6.452  0.0218 -0.2831  0.0976
  945TIP3    H124394   1.929   3.054   6.475  1.5072  1.3677 -0.4240
  945TIP3    H224395   1.781   3.074   6.501  0.7135 -3.0849 -0.7150
  946TIP3   OH224396   3.532   6.524   0.929  0.2055 -0.2577 -0.0872
  946TIP3    H124397   3.523   6.449   0.986  3.7039 -0.8315 -0.0532
  946TIP3    H224398   3.488   6.499   0.848 -0.9232 -1.2501  0.8153
  947TIP3   OH224399   5.374   1.718   0.315 -0.1210 -0.5367 -0.8130
  947TIP3    H124400   5.342   1.638   0.357 -0.0578  0.4252  1.2187
  947TIP3    H224401   5.295   1.772   0.304  0.2504  0.5969  1.3783
  948TIP3   OH224402   6.557   6.429   5.954  0.7054 -0.1198  0.9097
  948TIP3    H124403   6.526   6.350   5.911  2.9869 -0.2522 -0.6561
  948TIP3    H224404   6.624   6.398   6.015  0.0500  0.4192  1.9235
  949TIP3   OH224405   5.556   4.443   7.491 -0.3275  0.1907  0.5228
  949TIP3    H124406   5.518   4.376   7.547 -1.6068  1.4146  1.1940
  949TIP3    H224407   5.480   4.487   7.452  0.5090  0.1372 -1.2746
  950TIP3   OH224408   1.245   1.947   6.977  0.3227  0.5076  0.0387
  950TIP3    H124409   1.157   1.958   6.942  0.8484 -0.2078 -1.6243
  950TIP3    H224410   1.292   2.026   6.949 -0.3640  2.1946  3.1422
  951TIP3   OH224411   4.945   3.588   8.305 -0.0202  0.1743 -0.0581
  951TIP3    H124412   4.915   3.517   8.362 -1.2199  0.5767 -0.1514
  951TIP3    H224413   4.922   3.668   8.352  0.1124  0.5040 -0.5442
  952TIP3   OH224414   0.903   0.872   0.144  0.0232 -0.0010  0.2531
  952TIP3    H124415   0.878   0.865   0.236  0.8029 -1.0409  0.4001
  952TIP3    H224416   0.985   0.921   0.145  0.6727 -1.0796  0.2222
  953TIP3   OH224417   1.204   2.058   7.585  0.1232 -0.1800  0.2072
  953TIP3    H124418   1.259   2.132   7.560 -0.2155 -0.0287 -0.1137
  953TIP3    H224419   1.136   2.097   7.641 -0.1725 -0.2075 -0.1242
  954TIP3   OH224420   1.604   5.254   7.166 -0.1802  0.0061  0.1857
  954TIP3    H124421   1.518   5.214   7.164  0.3939 -1.3019  0.7634
  954TIP3    H224422   1.593   5.331   7.222 -1.3080  0.7341 -0.9824
  955TIP3   OH224423   2.938   6.641   2.302 -0.5626  0.5793  0.0648
  955TIP3    H124424   2.882   6.569   2.331  0.6882 -0.4063  0.1598
  955TIP3    H224425   3.016   6.633   2.357  0.1160  1.2493 -0.7744
  956TIP3   OH224426   0.632   6.376   7.473 -0.0461 -0.3208  0.2723
  956TIP3    H124427   0.593   6.367   7.386 -1.0687 -2.4955  0.8799
  956TIP3    H224428   0.711   6.429   7.459  0.0957 -1.0362 -2.0604
  957TIP3   OH224429   4.363   5.620   7.378  0.0007  0.7910  0.0929
  957TIP3    H124430   4.274   5.648   7.399  0.4893  0.9856  2.0775
  957TIP3    H224431   4.391   5.571   7.455  1.3897  0.1635 -0.7773
  958TIP3   OH224432   2.455   2.828   0.950 -0.5826  0.1193  0.1963
  958TIP3    H124433   2.375   2.789   0.915  0.1284 -0.1488 -1.2094
  958TIP3    H224434   2.487   2.886   0.880  0.7942 -0.2967  0.4384
  959TIP3   OH224435   4.270   0.721   0.935 -0.1183 -0.0315  0.3122
  959TIP3    H124436   4.328   0.793   0.958 -2.8356  2.6329 -0.6386
  959TIP3    H224437   4.259   0.728   0.840  0.4724 -2.5383 -0.0158
  960TIP3   OH224438   2.932   0.404   8.108  0.0293  0.3207 -0.2921
  960TIP3    H124439   2.914   0.313   8.084 -1.8177  0.5136  0.1743
  960TIP3    H224440   2.934   0.404   8.204 -1.6367  0.9788 -0.2041
  961TIP3   OH224441   2.749   4.302   0.961 -0.2074  0.1232 -0.0310
  961TIP3    H124442   2.819   4.320   1.023 -0.5271  1.0622  0.0750
  961TIP3    H224443   2.774   4.349   0.882  0.3408 -1.3020 -0.7396
  962TIP3   OH224444   2.914   2.853   7.353  0.6811  0.2861  0.5081
  962TIP3    H124445   2.936   2.875   7.262 -1.0075  0.4920  0.1056
  962TIP3    H224446   2.941   2.930   7.403 -0.9712  1.4258 -0.2599
  963TIP3   OH224447   2.384   2.807   0.215 -0.1067 -0.1160 -0.4068
  963TIP3    H124448   2.447   2.814   0.286 -0.1518  0.5457 -0.4208
  963TIP3    H224449   2.377   2.896   0.181 -0.9770 -0.1963 -0.4611
  964TIP3   OH224450   1.103   3.437   7.687 -0.3905 -0.0544 -0.0745
  964TIP3    H124451   1.029   3.400   7.735 -0.5408  0.1245 -0.1666
  964TIP3    H224452   1.180   3.417   7.742 -0.4506 -0.6221 -0.1923
  965TIP3   OH224453   2.927   0.086   8.125  0.0279  0.5113 -0.2846
  965TIP3    H124454   2.960   0.064   8.212 -1.5621  0.0469  0.2245
  965TIP3    H224455   2.995   0.054   8.065  1.4085  1.3345  0.7747
  966TIP3   OH224456   0.028   5.641   1.572 -0.2716 -0.2430  0.0401
  966TIP3    H124457   0.033   5.735   1.553  1.1865  0.0009  1.4403
  966TIP3    H224458   0.043   5.634   1.666 -1.6934 -1.8124  0.2161
  967TIP3   OH224459   3.030   1.100   8.636 -0.2177  0.2711 -0.2125
  967TIP3    H124460   3.062   1.063   8.719  0.4279  1.9897  0.3548
  967TIP3    H224461   3.109   1.120   8.587 -0.5638  0.7209 -0.5871
  968TIP3   OH224462   3.412   2.893   1.583 -0.2300  0.2689  0.0504
  968TIP3    H124463   3.433   2.985   1.593  0.3391  0.0833  0.6624
  968TIP3    H224464   3.318   2.891   1.565 -0.6049  0.8836  1.6992
  969TIP3   OH224465   5.617   6.764   0.558  0.1112 -0.4453 -0.3748
  969TIP3    H124466   5.568   6.756   0.476 -1.2175  1.4277  0.1903
  969TIP3    H224467   5.552   6.790   0.623  1.3444 -0.8072  1.0655
  970TIP3   OH224468   0.858   1.881   1.143  0.8049  0.0138 -0.5152
  970TIP3    H124469   0.830   1.828   1.068 -1.9952  0.1385  0.3479
  970TIP3    H224470   0.836   1.828   1.219  3.3268  0.0254  0.2972
  971TIP3   OH224471   3.796   6.188   2.476  0.4328 -0.1896  0.2143
  971TIP3    H124472   3.871   6.200   2.533 -0.8392 -2.7573  2.6174
  971TIP3    H224473   3.804   6.099   2.442 -0.2325  0.3819 -1.6125
  972TIP3   OH224474   4.865   4.072   8.269  0.3141 -0.1501  0.5380
  972TIP3    H124475   4.814   4.138   8.222 -3.2300 -1.2552  2.4725
  972TIP3    H224476   4.919   4.031   8.201 -0.2818  2.0886 -1.4250
  973TIP3   OH224477   5.695   6.481   8.630 -0.2159 -0.3184 -0.1655
  973TIP3    H124478   5.763   6.438   8.578 -0.9599  0.4956 -1.8755
  973TIP3    H224479   5.642   6.409   8.665  0.4419 -0.8825 -0.3141
  974TIP3   OH224480   1.352   2.058   8.496  0.1629  0.3251  0.0752
  974TIP3    H124481   1.401   2.089   8.420  1.2471 -1.0830  0.1772
  974TIP3    H224482   1.315   2.138   8.534  2.0078  1.3971 -0.2676
  975TIP3   OH224483   4.450   4.309   8.006  0.1741 -0.0791 -0.2817
  975TIP3    H124484   4.498   4.294   7.925  0.5264 -1.2549  0.1304
  975TIP3    H224485   4.488   4.390   8.043  0.0412  0.4337 -1.2440
  976TIP3   OH224486   2.574   3.005   0.714  0.2102 -0.3565 -0.1338
  976TIP3    H124487   2.613   2.951   0.645  1.6951 -2.4169  2.1653
  976TIP3    H224488   2.647   3.052   0.752 -0.5085  0.3829  0.3560
  977TIP3   OH224489   5.832   5.036   8.060  0.3394  0.6642  0.1277
  977TIP3    H124490   5.871   5.051   8.146  1.9249 -1.6557 -0.1211
  977TIP3    H224491   5.906   5.023   8.001 -0.7561 -0.0857 -1.1366
  978TIP3   OH224492   5.737   3.183   0.675  0.0469 -0.2479 -0.4522
  978TIP3    H124493   5.770   3.204   0.762  2.5551  1.0524 -1.5941
  978TIP3    H224494   5.773   3.096   0.657  0.2888 -0.1392 -0.5065
  979TIP3   OH224495   1.328   0.521   1.190 -0.1816 -0.3355  0.4859
  979TIP3    H124496   1.293   0.432   1.188 -1.0205 -0.0082 -0.6729
  979TIP3    H224497   1.397   0.518   1.256 -0.1643 -1.8557  0.4447
  980TIP3   OH224498   2.987   0.813   0.479  0.4436  0.2975 -0.1742
  980TIP3    H124499   3.005   0.725   0.511  1.7346  1.1201  1.4734
  980TIP3    H224500   2.894   0.826   0.498  0.1000 -0.8505 -0.9061
  981TIP3   OH224501   4.112   6.404   2.048 -0.6508  0.2189 -0.2874
  981TIP3    H124502   4.092   6.483   1.998  0.1891  0.5915 -0.0542
  981TIP3    H224503   4.133   6.338   1.982 -0.6531  0.3917 -0.4618
  982TIP3   OH224504   2.165   3.454   0.287  0.8980 -0.4322  0.0368
  982TIP3    H124505   2.146   3.421   0.375 -0.1998  1.1795  0.4471
  982TIP3    H224506   2.079   3.455   0.244  0.9350  1.4099 -0.0865
  983TIP3   OH224507   1.509   5.539   8.433 -0.0140  0.5769  0.3083
  983TIP3    H124508   1.596   5.572   8.411 -0.0517 -1.4817 -3.6947
  983TIP3    H224509   1.526   5.460   8.485  0.5339  0.1693 -0.4769
  984TIP3   OH224510   2.882   5.301   6.551 -0.4131 -0.5539 -0.1394
  984TIP3    H124511   2.810   5.344   6.505 -0.3952  0.3210  0.6340
  984TIP3    H224512   2.849   5.214   6.572 -1.4698  0.0324  0.7154
  985TIP3   OH224513   3.042   2.054   1.735 -0.4839 -0.5157 -0.1371
  985TIP3    H124514   2.967   2.113   1.739 -1.4101 -1.7206  1.7829
  985TIP3    H224515   3.006   1.968   1.756  1.2967 -1.2752 -0.0340
  986TIP3   OH224516   3.699   4.039   1.817  0.2153  0.4947  0.2818
  986TIP3    H124517   3.658   4.115   1.778  0.3180  0.0299 -0.7596
  986TIP3    H224518   3.626   3.984   1.845  0.1431  0.7470  0.6001
  987TIP3   OH224519   2.391   6.051   1.418  0.2307 -0.1220  0.0295
  987TIP3    H124520   2.409   5.974   1.365  0.0712 -0.5799  0.6258
  987TIP3    H224521   2.471   6.064   1.470  1.1593  1.4827 -1.6745
  988TIP3   OH224522   3.468   3.896   1.873  0.1353  0.8426 -0.1018
  988TIP3    H124523   3.503   3.849   1.949 -4.0496  0.2272  1.7211
  988TIP3    H224524   3.476   3.835   1.800  0.8661 -0.0480  0.7112
  989TIP3   OH224525   5.360   3.014   2.016 -0.5846  0.4343 -0.1136
  989TIP3    H124526   5.354   3.006   1.921  1.3622  2.8526 -0.5309
  989TIP3    H224527   5.453   3.028   2.033 -0.7276 -0.9806  2.3020
  990TIP3   OH224528   0.350   0.895   8.543  0.3392 -0.1704 -0.9734
  990TIP3    H124529   0.297   0.837   8.488  0.5304  0.4484 -1.8175
  990TIP3    H224530   0.305   0.895   8.628 -0.6551 -0.1504 -1.4945
  991TIP3   OH224531   2.228   2.601   2.810 -0.5446  0.0310 -0.4038
  991TIP3    H124532   2.194   2.675   2.860 -0.4841 -0.3298  0.1741
  991TIP3    H224533   2.152   2.548   2.790 -0.4608 -0.2369 -0.0095
  992TIP3   OH224534   2.469   3.124   7.110  0.5693 -0.1331 -0.0113
  992TIP3    H124535   2.425   3.139   7.193  0.4871  1.0627 -0.2433
  992TIP3    H224536   2.528   3.050   7.126 -0.6909 -1.0307  0.6108
  993TIP3   OH224537   5.162   2.636   7.103 -0.2727  0.0891 -0.2137
  993TIP3    H124538   5.192   2.590   7.181  0.6115  0.4497 -0.3184
  993TIP3    H224539   5.231   2.700   7.086 -1.0647  0.8671 -0.5610
  994TIP3   OH224540   5.641   1.108   0.427  0.4814 -0.1582 -0.4417
  994TIP3    H124541   5.661   1.184   0.372 -1.3800  0.2713 -0.5832
  994TIP3    H224542   5.658   1.033   0.370 -1.8451  0.2874 -1.8467
  995TIP3   OH224543   3.538   6.714   2.118 -0.6700 -0.0894 -0.1808
  995TIP3    H124544   3.535   6.691   2.025 -1.4695 -0.3662 -0.0879
  995TIP3    H224545   3.570   6.804   2.119 -1.3186  0.1578 -0.7676
  996TIP3   OH224546   2.647   4.523   6.620 -0.0119  0.6832  0.4984
  996TIP3    H124547   2.645   4.431   6.646  0.0902  1.0947  2.0540
  996TIP3    H224548   2.740   4.541   6.605  0.0680  0.7565  1.0648
  997TIP3   OH224549   3.184   3.059   2.382  0.0975 -1.1318  0.3680
  997TIP3    H124550   3.134   3.141   2.378  2.7508  0.6540  0.5681
  997TIP3    H224551   3.187   3.028   2.291 -0.8034 -0.9233  0.2605
  998TIP3   OH224552   6.517   3.874   1.318  0.0115  0.0930  0.4549
  998TIP3    H124553   6.556   3.943   1.266  0.2934  0.4908  1.1824
  998TIP3    H224554   6.565   3.795   1.294 -1.7783 -0.3463 -2.0599
  999TIP3   OH224555   3.668   3.036   7.930  0.2404  1.2563  0.6027
  999TIP3    H124556   3.661   2.947   7.894 -0.1814  1.3562  0.4241
  999TIP3    H224557   3.578   3.057   7.956  0.4085  1.4856  0.9944
 1000TIP3   OH224558   3.029   6.612   1.346  0.2555  0.0901  0.4810
 1000TIP3    H124559   3.115   6.629   1.307  0.0147 -0.2375 -0.2122
 1000TIP3    H224560   2.975   6.580   1.273 -0.1346 -0.7981  1.1335
 1001TIP3   OH224561   4.400   3.869   2.112  0.2639 -0.7108  0.0490
 1001TIP3    H124562   4.350   3.844   2.190  0.9532  0.7122  0.9835
 1001TIP3    H224563   4.449   3.791   2.088  0.8686 -0.8579  1.7061
 1002TIP3   OH224564   3.360   3.099   8.635  0.0297 -0.5753 -0.1561
 1002TIP3    H124565   3.325   3.186   8.652  0.1401 -0.7528  1.1016
 1002TIP3    H224566   3.301   3.061   8.570 -0.0363  0.4096 -0.6934
 1003TIP3   OH224567   5.029   4.873   8.232 -0.0808  0.0390 -0.3528
 1003TIP3    H124568   5.120   4.855   8.254  0.2555 -0.4565 -2.0021
 1003TIP3    H224569   4.989   4.900   8.314  1.1646 -1.2789  0.7345
 1004TIP3   OH224570   2.493   3.872   6.886 -0.3738  0.1858  0.0705
 1004TIP3    H124571   2.537   3.917   6.814  0.0973 -1.6080 -0.8000
 1004TIP3    H224572   2.435   3.809   6.845  0.5310 -1.4789  1.1983
 1005TIP3   OH224573   0.586   4.879   7.423 -0.1293  0.3855  0.0202
 1005TIP3    H124574   0.597   4.891   7.329 -0.8034  2.0046  0.1040
 1005TIP3    H224575   0.545   4.961   7.453  0.4899  0.0957  1.7935
 1006TIP3   OH224576   3.675   3.569   7.154  0.1663 -0.8993  0.6623
 1006TIP3    H124577   3.769   3.565   7.170  0.3716  0.0718 -0.1867
 1006TIP3    H224578   3.662   3.518   7.074  0.3440  0.8390 -0.5402
 1007TIP3   OH224579   1.301   6.503   8.166  0.3196 -0.1920 -0.0698
 1007TIP3    H124580   1.393   6.527   8.167 -0.1308  1.6947  0.2325
 1007TIP3    H224581   1.298   6.416   8.205  2.0861 -0.8747 -1.3192
 1008TIP3   OH224582   5.135   4.244   1.530 -0.1964  0.0999  0.6476
 1008TIP3    H124583   5.104   4.323   1.487  1.1193  0.2434 -0.0879
 1008TIP3    H224584   5.219   4.225   1.489  0.2537 -0.8017  1.9027
 1009TIP3   OH224585   2.084   3.763   1.324 -0.3716 -0.9522  0.0367
 1009TIP3    H124586   2.118   3.852   1.333 -1.9233 -0.0011 -2.4040
 1009TIP3    H224587   2.145   3.709   1.373  0.4020  1.4816  1.9485
 1010TIP3   OH224588   1.064   2.256   0.163 -0.1036  0.2671 -0.1119
 1010TIP3    H124589   1.105   2.170   0.174 -1.8527 -0.6002 -0.0094
 1010TIP3    H224590   1.013   2.269   0.242 -2.2585 -0.0045 -1.3708
 1011TIP3   OH224591   2.207   1.602   7.975  0.0077  0.5429  0.6353
 1011TIP3    H124592   2.296   1.626   7.950  0.4860 -1.1455  0.5957
 1011TIP3    H224593   2.211   1.588   8.070 -0.3743  1.0576  0.7337
 1012TIP3   OH224594   2.298   1.593   0.445 -0.1835  0.3038 -0.5368
 1012TIP3    H124595   2.261   1.506   0.429 -0.1866 -0.9574  4.5672
 1012TIP3    H224596   2.222   1.652   0.444 -1.0937 -0.7575  1.0811
 1013TIP3   OH224597   0.765   5.951   1.201 -0.5008  0.5209 -0.6983
 1013TIP3    H124598   0.695   5.907   1.152 -0.3111 -1.7699  0.8994
 1013TIP3    H224599   0.721   6.021   1.249 -1.5237 -0.1847 -0.5711
 1014TIP3   OH224600   3.505   1.287   6.568 -0.0519 -0.1872 -0.4124
 1014TIP3    H124601   3.601   1.287   6.565 -0.0719  0.4894 -1.8486
 1014TIP3    H224602   3.482   1.198   6.596  0.9786 -0.4745 -0.4309
 1015TIP3   OH224603   2.004   2.522   6.287  0.7334  0.1418 -0.3359
 1015TIP3    H124604   1.917   2.516   6.246  1.4869 -0.4020 -1.9126
 1015TIP3    H224605   2.011   2.441   6.338  0.9532 -0.6124 -1.5365
 1016TIP3   OH224606   5.470   0.842   6.764 -0.3882 -0.2641 -0.0362
 1016TIP3    H124607   5.398   0.799   6.718  0.5242 -0.3804 -1.3879
 1016TIP3    H224608   5.529   0.872   6.695  2.1434 -2.3602  1.0392
 1017TIP3   OH224609   0.005   2.262   0.229 -0.4198  0.1447  0.2682
 1017TIP3    H124610   0.056   2.342   0.246  1.1606 -0.8433  0.3161
 1017TIP3    H224611  -0.046   2.249   0.309  0.0022  0.6000  0.6170
 1018TIP3   OH224612   5.402   6.842   8.375 -0.1066 -0.2776  0.3383
 1018TIP3    H124613   5.456   6.905   8.327  0.3023 -0.4499  0.5780
 1018TIP3    H224614   5.371   6.890   8.452 -2.0828  0.5326 -0.8720
 1019TIP3   OH224615   4.151   6.223   0.688  0.1210 -0.6301  0.5181
 1019TIP3    H124616   4.228   6.219   0.631 -0.7098  1.9153 -0.9453
 1019TIP3    H224617   4.077   6.221   0.628 -0.8708 -0.2716  1.6956
 1020TIP3   OH224618   3.897   3.143   1.068 -0.1116  0.2861 -0.0672
 1020TIP3    H124619   3.952   3.070   1.040  0.2209  0.1801  0.8271
 1020TIP3    H224620   3.842   3.162   0.992 -0.7446 -1.3902 -0.0853
 1021TIP3   OH224621   4.333   3.651   1.737 -0.5176 -0.0678 -0.4074
 1021TIP3    H124622   4.308   3.739   1.764 -0.4450 -0.7653  2.1409
 1021TIP3    H224623   4.329   3.599   1.817  0.4556 -2.1671 -1.6420
 1022TIP3   OH224624   5.858   4.451   8.622 -0.0108 -0.0909  0.1935
 1022TIP3    H124625   5.847   4.485   8.533  0.3393 -0.6803 -0.0805
 1022TIP3    H224626   5.865   4.529   8.676 -1.5675  0.2985 -0.1118
 1023TIP3   OH224627   2.836   2.629   8.483  0.0561 -0.4503  0.2133
 1023TIP3    H124628   2.798   2.700   8.535  0.0217 -1.7265  2.0295
 1023TIP3    H224629   2.830   2.660   8.393 -0.5589  1.5582  0.8799
 1024TIP3   OH224630   4.680   0.227   1.409 -0.7877 -0.4013  0.4159
 1024TIP3    H124631   4.656   0.254   1.498 -1.1837  0.7775 -0.0268
 1024TIP3    H224632   4.600   0.186   1.375 -1.5869  1.6996 -0.3546
 1025TIP3   OH224633   6.607   4.904   0.642 -0.1718 -0.3679  0.1139
 1025TIP3    H124634   6.684   4.856   0.673  0.3712 -0.1286 -0.8579
 1025TIP3    H224635   6.535   4.840   0.650  0.5622 -1.4258 -1.2887
 1026TIP3   OH224636   4.998   0.793   0.996  0.7951  0.0588 -0.5493
 1026TIP3    H124637   5.022   0.849   1.070 -2.3102  5.4214 -2.9758
 1026TIP3    H224638   5.077   0.788   0.943  1.2388  2.4832 -0.2517
 1027TIP3   OH224639   5.001   6.771   6.828  0.7265  0.3692 -0.4117
 1027TIP3    H124640   5.028   6.856   6.863 -0.3801  0.1929  0.9682
 1027TIP3    H224641   4.930   6.743   6.886 -0.2282 -0.6186 -1.9910
 1028TIP3   OH224642   0.441   2.186   0.133  0.2189  0.3030 -0.0118
 1028TIP3    H124643   0.346   2.198   0.144  0.3646  1.7056 -0.0365
 1028TIP3    H224644   0.454   2.193   0.038  0.5027  1.6670  0.1053
 1029TIP3   OH224645   1.297   6.574   8.503 -0.2266 -0.3677  0.4373
 1029TIP3    H124646   1.216   6.576   8.453 -0.7309 -0.5429  1.2253
 1029TIP3    H224647   1.346   6.501   8.467 -1.0636 -1.1877  0.9116
 1030TIP3   OH224648   3.172   3.137   7.139 -0.0521 -0.1881  0.0248
 1030TIP3    H124649   3.263   3.142   7.168  0.0411 -1.1887 -0.0730
 1030TIP3    H224650   3.156   3.221   7.096  0.4310  0.5158  1.1645
 1031TIP3   OH224651   1.198   0.467   0.408 -0.4040  0.2364 -0.0305
 1031TIP3    H124652   1.143   0.486   0.333  0.2799 -0.7415 -0.7981
 1031TIP3    H224653   1.225   0.553   0.440 -0.7646  0.6629 -0.8469
 1032TIP3   OH224654   3.270   1.442   7.446  0.1799 -0.6884 -0.1380
 1032TIP3    H124655   3.337   1.511   7.445  0.3465 -0.7880  1.3580
 1032TIP3    H224656   3.230   1.449   7.533 -0.2601 -2.0439 -0.2053
 1033TIP3   OH224657   0.027   6.167   8.214  0.0966 -0.3886  0.2690
 1033TIP3    H124658  -0.024   6.185   8.292  1.4780 -1.3351  1.4324
 1033TIP3    H224659   0.103   6.117   8.245  2.0094  1.3542 -1.2984
 1034TIP3   OH224660   3.370   6.538   1.332 -0.3828 -0.6832  0.1244
 1034TIP3    H124661   3.424   6.568   1.259 -1.8471  0.9561 -0.3473
 1034TIP3    H224662   3.433   6.508   1.398  1.3764  3.5982  0.7262
 1035TIP3   OH224663   6.225   1.531   1.179  0.1422  0.0332  0.1401
 1035TIP3    H124664   6.298   1.472   1.199 -0.2669 -0.3625  0.5145
 1035TIP3    H224665   6.161   1.513   1.248 -0.7811 -0.4354 -0.8179
 1036TIP3   OH224666   1.986   1.446   6.210  0.1288 -0.3405  0.6680
 1036TIP3    H124667   1.980   1.369   6.267  2.5924 -0.9917  0.1412
 1036TIP3    H224668   1.926   1.426   6.138 -0.8134 -0.8024  1.5385
 1037TIP3   OH224669   0.469   0.431   7.288 -0.2919 -1.1114 -0.5902
 1037TIP3    H124670   0.388   0.394   7.321  0.5266 -1.4622  1.1331
 1037TIP3    H224671   0.535   0.364   7.303  0.3516 -0.8317 -1.9546
 1038TIP3   OH224672   0.113   4.165   7.683  0.2025  0.3121  0.0088
 1038TIP3    H124673   0.162   4.141   7.604  1.8647  0.2326  1.0289
 1038TIP3    H224674   0.080   4.082   7.717  0.1245  0.2582 -0.1986
 1039TIP3   OH224675   2.085   4.795   8.514  0.1048  0.3290  0.4404
 1039TIP3    H124676   2.016   4.797   8.581  0.5177  0.5301  0.8686
 1039TIP3    H224677   2.167   4.796   8.564  0.4888 -2.9536  0.0490
 1040TIP3   OH224678   1.055   5.322   0.048 -0.2319  0.1935 -0.0877
 1040TIP3    H124679   0.990   5.349  -0.018  0.1208  1.3701  0.0238
 1040TIP3    H224680   1.138   5.357   0.015 -0.1457  1.3290  1.2809
 1041TIP3   OH224681   5.901   6.484   2.636 -0.3226  0.3808  0.0271
 1041TIP3    H124682   5.944   6.398   2.645 -0.0657  0.4452 -0.5143
 1041TIP3    H224683   5.811   6.463   2.613 -0.6839  0.2398  1.4998
 1042TIP3   OH224684   3.184   3.040   2.111  0.3065  0.0591  0.3337
 1042TIP3    H124685   3.096   3.050   2.075  0.8760 -0.5615 -1.3292
 1042TIP3    H224686   3.194   2.946   2.126  0.5087  0.1833  1.0056
 1043TIP3   OH224687   4.169   3.282   8.311  0.5506  0.0196  0.0105
 1043TIP3    H124688   4.184   3.300   8.404  1.8293  0.4771 -0.2698
 1043TIP3    H224689   4.074   3.290   8.300  0.4779  0.8390  1.0942
 1044TIP3   OH224690   5.536   0.904   0.716  0.6682 -0.2768  0.2833
 1044TIP3    H124691   5.509   0.821   0.676 -1.8104 -0.7739  2.7300
 1044TIP3    H224692   5.476   0.968   0.679  0.6011 -0.1361  0.6343
 1045TIP3   OH224693   6.768   0.266   8.441  0.1426 -0.1549 -0.3000
 1045TIP3    H124694   6.714   0.191   8.416  1.3596 -0.8088 -1.0496
 1045TIP3    H224695   6.857   0.231   8.446  0.6033  1.0434  0.2585
 1046TIP3   OH224696   0.775   5.770   6.824  0.1364  0.0405  0.0752
 1046TIP3    H124697   0.745   5.857   6.796 -0.6444 -0.5457 -0.9771
 1046TIP3    H224698   0.819   5.734   6.747  1.6287 -0.0013  0.9177
 1047TIP3   OH224699   5.906   2.316   7.419  0.0391  0.8770  0.2707
 1047TIP3    H124700   5.919   2.251   7.350  2.6050  0.3451  1.1485
 1047TIP3    H224701   5.960   2.390   7.392 -0.7523  1.5918  0.6045
 1048TIP3   OH224702   4.574   6.642   1.415  0.1075 -0.2430  0.4707
 1048TIP3    H124703   4.657   6.689   1.423 -1.3097  2.1831  2.1992
 1048TIP3    H224704   4.545   6.660   1.326  0.6293  0.2981  0.4031
 1049TIP3   OH224705   6.840   3.350   7.812  0.2153  0.3509 -0.2406
 1049TIP3    H124706   6.817   3.384   7.726 -1.1662 -1.3209 -0.5873
 1049TIP3    H224707   6.869   3.260   7.796  0.8975  0.3308  0.9469
 1050TIP3   OH224708   2.616   6.406   6.495 -0.4054  0.4359  0.2969
 1050TIP3    H124709   2.552   6.397   6.566  0.6113  0.6680  1.2760
 1050TIP3    H224710   2.567   6.446   6.423 -1.5483 -0.1380  0.7310
 1051TIP3   OH224711   4.013   2.502   7.561 -0.0794  0.0479  0.6921
 1051TIP3    H124712   4.079   2.456   7.508 -0.5104  0.6762 -0.4372
 1051TIP3    H224713   4.054   2.510   7.647 -0.3186 -3.1269  1.2100
 1052TIP3   OH224714   6.430   5.241   0.777 -1.0004 -0.3593  0.6977
 1052TIP3    H124715   6.430   5.198   0.691  1.8614  0.0279  0.4235
 1052TIP3    H224716   6.386   5.325   0.761 -0.3736 -0.2253 -0.4498
 1053TIP3   OH224717   3.085   2.449   1.750  0.2941 -0.0992 -0.3564
 1053TIP3    H124718   3.169   2.478   1.784  0.1541  1.0517 -0.9446
 1053TIP3    H224719   3.048   2.395   1.820  0.9968  0.3744  0.3898
 1054TIP3   OH224720   3.603   6.782   1.828  0.3668  0.2021  0.6868
 1054TIP3    H124721   3.685   6.757   1.785 -0.3406 -0.4461 -0.3411
 1054TIP3    H224722   3.629   6.848   1.892  1.6049  0.4924 -0.0714
 1055TIP3   OH224723   5.490   1.962   7.799  0.1448 -0.3960 -0.0304
 1055TIP3    H124724   5.523   2.051   7.790 -0.9204 -0.1580 -2.1145
 1055TIP3    H224725   5.396   1.972   7.813  0.0593 -1.1667 -0.0128
 1056TIP3   OH224726   6.007   2.347   7.659  0.2282 -0.1447  0.1210
 1056TIP3    H124727   5.965   2.292   7.725 -0.4007  0.4797  0.2586
 1056TIP3    H224728   5.959   2.328   7.578 -0.3712  0.6117  0.2901
 1057TIP3   OH224729   3.135   1.497   7.679  0.4506 -0.6279  0.1059
 1057TIP3    H124730   3.101   1.411   7.700 -0.4542 -0.1287  0.7283
 1057TIP3    H224731   3.058   1.550   7.658  1.0550 -0.2159 -1.2663
 1058TIP3   OH224732   3.231   2.528   0.346  0.7949  0.1807  0.5362
 1058TIP3    H124733   3.324   2.530   0.371  1.5542 -0.4449 -1.9099
 1058TIP3    H224734   3.223   2.451   0.290 -0.3659  2.0212 -2.0788
 1059TIP3   OH224735   6.340   0.625   7.936  0.3039  0.0840  0.1239
 1059TIP3    H124736   6.270   0.573   7.897 -1.0682  0.3209  2.1474
 1059TIP3    H224737   6.420   0.579   7.910 -0.7054 -1.4582 -0.4252
 1060TIP3   OH224738   6.254   3.396   1.415  0.7087  0.6269  0.3499
 1060TIP3    H124739   6.271   3.313   1.460 -1.1047  0.7044  1.2907
 1060TIP3    H224740   6.324   3.454   1.444  2.0387 -0.5401 -0.3584
 1061TIP3   OH224741   5.496   1.087   6.896  0.1868  0.1015  0.0371
 1061TIP3    H124742   5.470   1.005   6.853 -2.9629  1.1092 -0.2333
 1061TIP3    H224743   5.563   1.124   6.838  0.5849 -1.5625 -0.6222
 1062TIP3   OH224744   0.594   3.676   1.698 -0.1992  0.9506  0.0940
 1062TIP3    H124745   0.578   3.582   1.690  0.6435  0.9226 -1.5776
 1062TIP3    H224746   0.647   3.684   1.777 -0.8770  0.1126  0.6558
 1063TIP3   OH224747   1.964   4.232   0.045 -0.1081 -0.3881  0.2410
 1063TIP3    H124748   2.031   4.230   0.114 -0.0504 -0.7422  0.1742
 1063TIP3    H224749   1.973   4.149  -0.000  1.3067  0.7031 -1.6042
 1064TIP3   OH224750   2.302   5.320   0.455  0.2617  0.0333 -0.1712
 1064TIP3    H124751   2.247   5.251   0.493 -2.3265  1.1605 -1.5535
 1064TIP3    H224752   2.276   5.322   0.363  5.1542 -1.5591 -1.8640
 1065TIP3   OH224753   3.500   5.736   6.854  0.0058 -0.2802 -0.1697
 1065TIP3    H124754   3.566   5.699   6.913 -1.7206 -3.4790 -0.0172
 1065TIP3    H224755   3.530   5.710   6.766 -1.4353 -2.6898 -0.0341
 1066TIP3   OH224756   2.085   5.178   0.571 -0.0604 -0.3594 -0.1962
 1066TIP3    H124757   2.040   5.257   0.539 -2.7825 -1.6684  0.0685
 1066TIP3    H224758   2.085   5.119   0.496  1.5396 -0.3098 -0.2532
 1067TIP3   OH224759   5.594   3.596   0.251 -0.1152  0.3691  0.1764
 1067TIP3    H124760   5.618   3.620   0.340 -1.4373  0.3600  0.5421
 1067TIP3    H224761   5.676   3.562   0.213  0.5850  0.8636  1.1994
 1068TIP3   OH224762   5.459   2.324   7.290  0.1644  0.2430 -0.0541
 1068TIP3    H124763   5.520   2.389   7.257 -0.1794  0.6127  0.0364
 1068TIP3    H224764   5.418   2.287   7.211 -0.1819  0.6617 -0.0689
 1069TIP3   OH224765   0.045   1.975   0.034 -0.4733 -0.2829  0.4621
 1069TIP3    H124766   0.064   1.884   0.008  0.4357 -0.1109  0.5053
 1069TIP3    H224767  -0.043   1.971   0.072 -0.8226 -0.9838 -0.3701
 1070TIP3   OH224768   5.842   1.601   6.943 -0.4824 -0.4434  0.3284
 1070TIP3    H124769   5.878   1.667   6.884  2.8542 -1.3071  1.1601
 1070TIP3    H224770   5.829   1.647   7.026  0.5338 -0.4799  0.5245
 1071TIP3   OH224771   0.520   3.316   6.727  0.2206  0.5210  0.0895
 1071TIP3    H124772   0.553   3.237   6.769 -1.1614 -1.5543 -2.3734
 1071TIP3    H224773   0.598   3.365   6.703  1.2338 -1.0509  0.0351
 1072TIP3   OH224774   2.634   1.075   1.440  0.1360  0.2348 -0.2150
 1072TIP3    H124775   2.723   1.105   1.423  0.3809 -0.5105 -0.2504
 1072TIP3    H224776   2.578   1.145   1.405  0.7127  1.2394  0.8235
 1073TIP3   OH224777   6.708   6.057   8.417 -0.3290  0.2998  0.1368
 1073TIP3    H124778   6.646   6.120   8.455 -1.4930 -0.5739 -0.2491
 1073TIP3    H224779   6.783   6.060   8.476 -1.2558  0.4666  1.3560
 1074TIP3   OH224780   1.253   4.059   1.703 -0.1288 -0.1325  0.5260
 1074TIP3    H124781   1.199   4.008   1.643 -1.5297 -0.7925  2.2683
 1074TIP3    H224782   1.315   4.104   1.646 -0.6914 -1.5497 -1.3095
 1075TIP3   OH224783   2.661   0.118   0.186  0.2586 -0.4626 -0.1145
 1075TIP3    H124784   2.608   0.048   0.150 -0.8205  0.1795  0.1942
 1075TIP3    H224785   2.624   0.199   0.151  1.8648 -0.0452 -0.9648
 1076TIP3   OH224786   2.890   2.421   6.912  0.5812 -0.2935 -0.2784
 1076TIP3    H124787   2.965   2.384   6.865 -1.0254 -3.3756 -0.6627
 1076TIP3    H224788   2.901   2.391   7.002  0.9105  1.1592  0.1959
 1077TIP3   OH224789   6.015   3.637   0.556  0.1593  0.2960  0.0866
 1077TIP3    H124790   5.994   3.543   0.560  0.3205  0.2804  0.7243
 1077TIP3    H224791   5.991   3.663   0.467  0.1939 -0.3690 -0.1245
 1078TIP3   OH224792   1.560   3.917   0.345  0.5235  0.1501 -0.0312
 1078TIP3    H124793   1.527   3.836   0.382  0.1866  0.1373 -0.3500
 1078TIP3    H224794   1.526   3.986   0.403 -0.0554  0.1355 -0.3404
 1079TIP3   OH224795   2.324   3.302   1.738  0.0752 -0.0685 -0.1279
 1079TIP3    H124796   2.264   3.377   1.739 -0.1309 -0.2297  0.9466
 1079TIP3    H224797   2.395   3.328   1.797  0.5857 -0.2654 -0.6489
 1080TIP3   OH224798   6.086   5.993   0.658 -0.9776  0.0701 -0.5019
 1080TIP3    H124799   6.011   6.017   0.711  1.6089  2.0605  2.6203
 1080TIP3    H224800   6.085   6.054   0.585 -1.4553  1.3205  0.5094
 1081TIP3   OH224801   4.417   4.875   7.647 -0.2808 -0.0663 -0.6122
 1081TIP3    H124802   4.458   4.799   7.688 -1.3228 -0.5994 -0.5232
 1081TIP3    H224803   4.490   4.921   7.605  0.2158 -1.8049 -1.8001
 1082TIP3   OH224804   6.173   3.301   6.481  0.2143  0.4567 -0.0546
 1082TIP3    H124805   6.159   3.393   6.457 -0.1053  0.2423 -0.7207
 1082TIP3    H224806   6.106   3.253   6.432 -1.0965  0.0729  2.0133
 1083TIP3   OH224807   4.825   0.162   6.597 -0.0956 -0.5675  0.8176
 1083TIP3    H124808   4.781   0.238   6.559 -0.4680  0.7676  3.7087
 1083TIP3    H224809   4.797   0.088   6.542 -1.2051  1.0858 -0.9502
 1084TIP3   OH224810   0.686   4.488   7.088 -0.1329 -0.1324 -0.1714
 1084TIP3    H124811   0.633   4.411   7.064  0.9866 -0.3448 -2.1099
 1084TIP3    H224812   0.704   4.475   7.181 -0.3754 -1.9828 -0.3265
 1085TIP3   OH224813   4.718   6.538   0.985 -0.3175  0.0006  0.2733
 1085TIP3    H124814   4.805   6.536   0.945 -1.0804 -0.9202 -1.4697
 1085TIP3    H224815   4.687   6.628   0.973 -0.7232 -0.3704 -1.7536
 1086TIP3   OH224816   5.407   5.296   7.589 -0.1619 -0.6933  0.6834
 1086TIP3    H124817   5.491   5.330   7.559 -1.6537  0.2731 -2.8534
 1086TIP3    H224818   5.399   5.210   7.548 -2.0710  0.4784 -1.6860
 1087TIP3   OH224819   6.341   4.387   7.958  0.0594  0.5577  0.6056
 1087TIP3    H124820   6.249   4.368   7.939  0.3611 -0.3661  0.0252
 1087TIP3    H224821   6.382   4.395   7.872  0.8098 -0.5095  0.8480
 1088TIP3   OH224822   2.706   1.839   0.042  0.0848  0.6693 -0.2836
 1088TIP3    H124823   2.640   1.789  -0.007  1.7951  1.9738 -4.3807
 1088TIP3    H224824   2.655   1.904   0.091 -1.7858 -0.8497 -0.0895
 1089TIP3   OH224825   3.772   6.438   8.415 -0.5715 -0.1340  0.0415
 1089TIP3    H124826   3.824   6.358   8.404  1.6111  1.0244  1.3490
 1089TIP3    H224827   3.789   6.489   8.336  0.0326  0.0817  0.3025
 1090TIP3   OH224828   1.784   5.516   7.653  0.6989 -0.1750  0.8232
 1090TIP3    H124829   1.796   5.611   7.655 -2.0090  0.2681  0.4078
 1090TIP3    H224830   1.774   5.496   7.560 -1.9584 -0.2934  1.0708
 1091TIP3   OH224831   0.038   5.661   7.467 -0.6430 -0.4818  0.1060
 1091TIP3    H124832   0.087   5.604   7.408 -1.5058 -0.1411 -0.9631
 1091TIP3    H224833  -0.026   5.705   7.411 -0.4813  1.0072  1.0245
 1092TIP3   OH224834   2.361   4.778   1.649  0.4677 -0.4028 -0.2647
 1092TIP3    H124835   2.380   4.689   1.622 -0.6449 -0.4484 -0.9544
 1092TIP3    H224836   2.271   4.793   1.621  0.1895  0.4927  1.0015
 1093TIP3   OH224837   6.298   1.293   0.017 -0.0456 -0.2410  0.0789
 1093TIP3    H124838   6.296   1.281   0.112 -0.3666  3.5841  0.7070
 1093TIP3    H224839   6.272   1.208  -0.019 -1.7789 -1.2836  3.4290
 1094TIP3   OH224840   1.277   5.349   6.832 -0.1724 -0.4800  0.0086
 1094TIP3    H124841   1.287   5.258   6.860 -0.1487  0.6805  4.6001
 1094TIP3    H224842   1.367   5.383   6.828 -0.2778 -0.1569  0.3677
 1095TIP3   OH224843   3.711   3.754   8.563 -0.2333  0.1102  0.1820
 1095TIP3    H124844   3.743   3.676   8.609  0.5794  1.3982  1.9492
 1095TIP3    H224845   3.619   3.761   8.588 -0.3457 -0.3547 -0.0980
 1096TIP3   OH224846   1.906   2.193   8.509  0.3690  0.1883 -0.7719
 1096TIP3    H124847   1.899   2.159   8.599  0.5099  0.0010 -0.8317
 1096TIP3    H224848   1.978   2.144   8.471  0.4896  0.4662 -0.8997
 1097TIP3   OH224849   4.982   3.158   8.224 -0.0687 -0.4636 -0.1646
 1097TIP3    H124850   5.002   3.227   8.162 -0.4390 -0.8967 -0.7798
 1097TIP3    H224851   4.911   3.109   8.183 -0.4049 -0.6819  0.6590
 1098TIP3   OH224852   5.590   3.442   8.489  0.2105  0.1397  0.6363
 1098TIP3    H124853   5.527   3.405   8.551  0.7405 -1.1730  0.4332
 1098TIP3    H224854   5.653   3.488   8.543  0.3125 -0.4561  1.0385
 1099TIP3   OH224855   6.236   6.254   8.152 -0.5527 -0.4815 -0.1815
 1099TIP3    H124856   6.183   6.257   8.072 -0.8653  1.8657  0.0503
 1099TIP3    H224857   6.184   6.202   8.213 -2.8582  1.9644  0.1376
 1100TIP3   OH224858   3.214   4.080   7.259 -0.2516 -0.5501 -0.2600
 1100TIP3    H124859   3.208   4.077   7.355 -0.5920 -2.2463 -0.3079
 1100TIP3    H224860   3.238   4.171   7.240  1.1893 -0.4886  1.5106
 1101TIP3   OH224861   4.665   2.133   6.323 -0.4084  0.1604  0.2949
 1101TIP3    H124862   4.639   2.202   6.383  1.3868  0.8668  0.3326
 1101TIP3    H224863   4.713   2.178   6.253 -0.5935 -0.8716 -0.5366
 1102TIP3   OH224864   3.134   3.847   8.432 -0.3370  0.4840  0.0996
 1102TIP3    H124865   3.114   3.939   8.446 -0.0560  0.4278  0.9678
 1102TIP3    H224866   3.164   3.842   8.341 -0.3931  1.2422  0.0319
 1103TIP3   OH224867   0.088   5.153   0.768  0.3270 -0.4979  0.0493
 1103TIP3    H124868   0.182   5.147   0.785  0.5110 -0.9941 -1.1059
 1103TIP3    H224869   0.048   5.099   0.836  0.8906 -0.4777  0.4029
 1104TIP3   OH224870   2.200   6.353   1.125  0.1068 -0.4795  0.6920
 1104TIP3    H124871   2.282   6.316   1.091 -1.0846 -2.6584  0.0159
 1104TIP3    H224872   2.132   6.294   1.093 -2.2418  3.2546 -1.9826
 1105TIP3   OH224873   0.240   0.970   6.361  0.2223 -0.2601 -0.3067
 1105TIP3    H124874   0.220   0.879   6.337 -1.4695  0.5925 -2.4775
 1105TIP3    H224875   0.180   0.989   6.434  0.9343 -1.0059  0.4921
 1106TIP3   OH224876   0.668   2.625   0.049  0.4686 -0.5232  0.3791
 1106TIP3    H124877   0.753   2.610   0.092  1.5316 -0.0744 -1.4852
 1106TIP3    H224878   0.666   2.561  -0.022 -0.1730  0.3285 -0.3837
 1107TIP3   OH224879   3.958   5.348   8.493 -0.1616 -0.2740 -0.1055
 1107TIP3    H124880   3.944   5.429   8.542  1.4427  1.0374 -1.6861
 1107TIP3    H224881   4.039   5.312   8.529  0.5574  0.2489 -1.1441
 1108TIP3   OH224882   6.831   4.490   0.288  0.7062  0.8396 -0.1270
 1108TIP3    H124883   6.738   4.469   0.303  0.9271 -0.6478 -0.6389
 1108TIP3    H224884   6.829   4.573   0.240 -0.4104  0.5115 -0.7026
 1109TIP3   OH224885   2.644   5.718   2.520 -0.1263  0.3703  0.9286
 1109TIP3    H124886   2.658   5.794   2.577 -0.3613 -1.3036  3.3784
 1109TIP3    H224887   2.720   5.663   2.535 -0.4062 -0.3090 -0.0906
 1110TIP3   OH224888   1.863   3.549   1.411  0.0703  0.4462  0.2150
 1110TIP3    H124889   1.945   3.590   1.384 -0.4814  0.2803 -1.8998
 1110TIP3    H224890   1.801   3.622   1.421  0.8274  0.7789  3.6151
 1111TIP3   OH224891   2.111   5.908   1.503  0.4702  0.2821  0.1426
 1111TIP3    H124892   2.187   5.849   1.505  0.3558  0.1411  0.5951
 1111TIP3    H224893   2.124   5.965   1.579  0.7809  1.1084 -0.5126
 1112TIP3   OH224894   3.821   0.302   0.304 -0.3823  0.6543  0.2844
 1112TIP3    H124895   3.886   0.299   0.234 -0.6212  1.6918  0.0058
 1112TIP3    H224896   3.748   0.353   0.268 -1.8625 -1.3883  0.1776
 1113TIP3   OH224897   0.113   3.687   0.554 -0.6370 -0.7258  0.5022
 1113TIP3    H124898   0.116   3.726   0.641 -0.8313  0.2153  0.1001
 1113TIP3    H224899   0.104   3.593   0.570 -1.1112 -0.5247  1.4947
 1114TIP3   OH224900   5.331   5.188   1.003  0.2057  0.0961 -0.2341
 1114TIP3    H124901   5.426   5.183   0.995  0.0732 -0.7498 -1.8288
 1114TIP3    H224902   5.303   5.096   1.011 -0.3853  0.4249  1.9830
 1115TIP3   OH224903   2.365   4.356   0.368  0.6825  0.5163  0.3391
 1115TIP3    H124904   2.401   4.319   0.449  3.4913  0.2331 -0.9355
 1115TIP3    H224905   2.318   4.283   0.327  0.8715  0.1189  0.8169
 1116TIP3   OH224906   2.363   3.501   7.405 -0.3759  0.3470 -0.3078
 1116TIP3    H124907   2.387   3.524   7.494 -2.2703  1.1065  0.0489
 1116TIP3    H224908   2.402   3.414   7.391  0.8376  0.6755  0.8542
 1117TIP3   OH224909   4.755   0.378   7.111  0.1871  0.0828  0.2484
 1117TIP3    H124910   4.747   0.300   7.056 -0.1456  0.1299  0.2292
 1117TIP3    H224911   4.826   0.428   7.071 -0.7486  0.6368 -0.7758
 1118TIP3   OH224912   6.483   3.643   7.222 -0.1273 -0.5817 -0.2658
 1118TIP3    H124913   6.512   3.641   7.313  0.4807  2.2721 -0.3261
 1118TIP3    H224914   6.558   3.609   7.173  0.5370  0.3305  0.1033
 1119TIP3   OH224915   0.435   2.832   2.008  0.8627  0.0535 -0.4620
 1119TIP3    H124916   0.420   2.908   1.951 -0.1210  0.1519 -0.0920
 1119TIP3    H224917   0.370   2.768   1.980 -0.6846  0.6531  1.4772
 1120TIP3   OH224918   1.029   4.505   6.992  0.1178  0.2798  0.2059
 1120TIP3    H124919   1.076   4.522   6.910 -1.3577 -1.1417 -1.0125
 1120TIP3    H224920   1.052   4.414   7.014  2.0238  1.2190  2.4876
 1121TIP3   OH224921   6.126   1.174   2.214  0.3585 -0.0290  0.1355
 1121TIP3    H124922   6.133   1.196   2.307 -1.3719  1.6889 -0.0733
 1121TIP3    H224923   6.062   1.102   2.211 -1.0070  1.1329  0.1948
 1122TIP3   OH224924   3.850   4.077   0.448 -0.4257  0.0759 -0.0519
 1122TIP3    H124925   3.795   3.999   0.445 -1.0037  0.4914 -0.4013
 1122TIP3    H224926   3.940   4.043   0.442 -0.6134 -0.6242  0.8438
 1123TIP3   OH224927   0.967   1.023   0.726 -0.3030  0.0703  0.2595
 1123TIP3    H124928   1.010   1.107   0.713 -1.3520  0.9064  1.8502
 1123TIP3    H224929   0.877   1.045   0.751 -0.5554 -1.5075  0.8954
 1124TIP3   OH224930   5.128   5.709   0.447 -0.1474 -0.0638  0.0057
 1124TIP3    H124931   5.064   5.644   0.474 -1.5642  0.8984 -0.8727
 1124TIP3    H224932   5.076   5.789   0.433  1.6358  1.5623  1.9698
 1125TIP3   OH224933   4.934   3.172   7.869  0.6513  0.1670  0.8883
 1125TIP3    H124934   4.935   3.249   7.927 -0.4485 -0.6083  2.0060
 1125TIP3    H224935   4.905   3.101   7.926  1.2187 -0.9895 -0.2413
 1126TIP3   OH224936   3.748   2.634   7.660  0.5165 -0.2211 -0.3712
 1126TIP3    H124937   3.784   2.602   7.577  1.1810 -3.0885  0.8989
 1126TIP3    H224938   3.779   2.571   7.725 -0.4180  1.6352  2.0003
 1127TIP3   OH224939   3.681   1.220   7.105 -0.2993 -0.2327 -0.0732
 1127TIP3    H124940   3.765   1.267   7.108  0.1853 -1.0975  0.3990
 1127TIP3    H224941   3.625   1.268   7.166 -0.1236  0.3130 -0.3354
 1128TIP3   OH224942   1.558   2.322   7.900  0.0912  0.0775 -0.5364
 1128TIP3    H124943   1.470   2.361   7.893 -0.3712 -0.9998 -0.9296
 1128TIP3    H224944   1.610   2.371   7.837  0.0458  1.3761  0.3687
 1129TIP3   OH224945   0.647   3.694   7.671  0.5804 -0.0717 -0.3938
 1129TIP3    H124946   0.627   3.626   7.735  1.9714 -1.1121 -1.0255
 1129TIP3    H224947   0.618   3.657   7.587 -1.5246  1.4017 -0.3981
 1130TIP3   OH224948   4.435   4.370   1.254 -0.2308  0.1799  0.9082
 1130TIP3    H124949   4.471   4.281   1.248 -0.9942 -0.0470 -0.9240
 1130TIP3    H224950   4.354   4.366   1.203 -0.3798  1.8806  0.9768
 1131TIP3   OH224951   5.171   3.182   7.746 -0.5026 -0.1228 -0.1641
 1131TIP3    H124952   5.077   3.188   7.764 -0.3407  2.9997  0.1812
 1131TIP3    H224953   5.213   3.187   7.831  0.0274 -2.6041 -0.2225
 1132TIP3   OH224954   1.163   6.677   8.001 -0.1690  0.1931  0.2566
 1132TIP3    H124955   1.204   6.651   7.918 -1.9127  0.2011 -0.6732
 1132TIP3    H224956   1.187   6.607   8.062 -1.6804 -1.7525 -1.2153
 1133TIP3   OH224957   5.973   5.010   0.133 -0.2122 -0.0390 -0.0513
 1133TIP3    H124958   6.011   4.935   0.088  0.8191 -0.3283  1.2516
 1133TIP3    H224959   5.885   4.981   0.159 -0.5241 -0.1284 -1.1818
 1134TIP3   OH224960   3.987   3.311   7.035  0.1299  0.5697 -0.0739
 1134TIP3    H124961   4.003   3.268   6.951 -0.1772  2.5976 -1.2447
 1134TIP3    H224962   3.891   3.313   7.043  0.1425  0.8500  0.0307
 1135TIP3   OH224963   5.783   2.923   0.738  0.2061  0.0750  0.4374
 1135TIP3    H124964   5.872   2.906   0.768 -0.6320 -0.8444  2.6983
 1135TIP3    H224965   5.740   2.965   0.813 -1.2152  0.6776 -0.6571
 1136TIP3   OH224966   0.079   5.271   7.698  0.5934 -0.5434 -0.2024
 1136TIP3    H124967   0.143   5.342   7.696  0.3034 -0.1068  2.5170
 1136TIP3    H224968   0.130   5.192   7.680  1.6842 -0.0423  0.5916
 1137TIP3   OH224969   6.793   6.750   0.151  0.3857 -0.0941 -0.1511
 1137TIP3    H124970   6.856   6.721   0.217  0.3469 -0.7490 -0.3861
 1137TIP3    H224971   6.769   6.669   0.104  1.1695  0.4939 -1.6293
 1138TIP3   OH224972   4.938   3.034   1.240  0.4174  0.0543 -0.7511
 1138TIP3    H124973   4.880   3.088   1.293  0.9831  0.1375 -0.2043
 1138TIP3    H224974   4.908   3.048   1.150  0.4014  1.0797 -0.5928
 1139TIP3   OH224975   3.444   1.599   7.813 -0.1690 -0.0595 -0.2665
 1139TIP3    H124976   3.487   1.581   7.729 -2.1529  0.9552 -1.5985
 1139TIP3    H224977   3.444   1.515   7.859 -0.4130 -1.0559 -1.9890
 1140TIP3   OH224978   3.974   4.477   2.002 -0.4867  0.1895  0.4822
 1140TIP3    H124979   3.976   4.515   1.914 -0.9875 -1.5565 -0.3153
 1140TIP3    H224980   3.886   4.495   2.034 -0.4514  0.4169  0.4581
 1141TIP3   OH224981   5.979   4.729   7.508  0.3324 -0.7829 -0.0429
 1141TIP3    H124982   6.011   4.653   7.459  0.9758 -1.2369  1.0520
 1141TIP3    H224983   5.886   4.711   7.523  0.2089 -0.7959 -0.7894
 1142TIP3   OH224984   3.079   2.402   0.048 -0.5910 -0.4293 -0.3209
 1142TIP3    H124985   3.000   2.347   0.046  0.5701 -2.1630 -2.4749
 1142TIP3    H224986   3.107   2.406  -0.043  1.3734  0.8280  0.2918
 1143TIP3   OH224987   5.275   3.580   2.120  0.4905  0.0576 -0.0230
 1143TIP3    H124988   5.258   3.563   2.213 -2.0213  2.4582  0.0896
 1143TIP3    H224989   5.304   3.671   2.118 -0.4835  0.3660 -1.6672
 1144TIP3   OH224990   0.938   5.101   1.374 -0.1117  0.0664  0.2436
 1144TIP3    H124991   0.872   5.053   1.423  0.1445  1.3747  1.9586
 1144TIP3    H224992   0.890   5.176   1.338  0.4230  1.1701  1.7202
 1145TIP3   OH224993   3.901   2.853   7.128  0.3570  0.4257 -0.4768
 1145TIP3    H124994   3.946   2.882   7.049 -1.2845  1.8496 -0.9517
 1145TIP3    H224995   3.808   2.866   7.109 -0.0538  1.9383  2.0765
 1146TIP3   OH224996   4.653   1.234   7.151 -0.2826  0.3387  0.0921
 1146TIP3    H124997   4.597   1.228   7.228  0.6229 -1.7183  0.6567
 1146TIP3    H224998   4.736   1.195   7.177 -0.1529 -1.0531 -2.0444
 1147TIP3   OH224999   3.688   6.225   0.968  0.5394  0.4658 -0.4046
 1147TIP3    H125000   3.715   6.244   0.878  1.2633  0.1908 -0.2547
 1147TIP3    H225001   3.747   6.277   1.023  1.6184 -1.0531 -0.0400
 1148TIP3   OH225002   5.921   1.426   6.664  0.5368 -0.3794 -0.3833
 1148TIP3    H125003   5.904   1.520   6.675 -0.7626 -0.6995  0.6175
 1148TIP3    H225004   6.013   1.415   6.689  0.3793  0.4608  0.6263
 1149TIP3   OH225005   2.329   1.566   0.114  0.6334 -0.3021 -0.0779
 1149TIP3    H125006   2.251   1.572   0.059  1.3994 -0.6135 -1.2304
 1149TIP3    H225007   2.345   1.656   0.141  0.2776 -0.1346 -0.4073
 1150TIP3   OH225008   4.499   3.153   7.912 -0.7384  0.7468 -0.2081
 1150TIP3    H125009   4.569   3.106   7.957  0.2454 -0.4814 -2.8207
 1150TIP3    H225010   4.426   3.154   7.974  0.5307 -0.8204  1.3744
 1151TIP3   OH225011   2.765   4.403   8.465 -0.0565  0.3091 -0.4128
 1151TIP3    H125012   2.824   4.468   8.504  2.7262 -2.3950  0.2610
 1151TIP3    H225013   2.814   4.367   8.391 -1.5425 -0.9940 -0.8277
 1152TIP3   OH225014   5.073   5.974   0.381  0.0719 -0.1744 -0.0454
 1152TIP3    H125015   5.163   5.994   0.357 -0.6656  1.3947 -1.7882
 1152TIP3    H225016   5.035   6.058   0.407 -1.0376 -0.6842  0.0564
 1153TIP3   OH225017   0.231   4.913   0.607 -0.6057 -0.0940  0.4423
 1153TIP3    H125018   0.204   4.953   0.524 -1.3090 -0.6709  0.3876
 1153TIP3    H225019   0.270   4.985   0.657 -0.1444  0.2534 -0.3982
 1154TIP3   OH225020   0.169   5.960   0.413  0.0185  0.5845 -0.3025
 1154TIP3    H125021   0.174   6.026   0.344 -0.8422  0.7910 -0.1867
 1154TIP3    H225022   0.077   5.932   0.411  0.1455  0.1215  0.3212
 1155TIP3   OH225023   2.706   3.165   1.972  0.1732 -0.1061  0.2147
 1155TIP3    H125024   2.715   3.247   1.924  1.2727  0.1486  0.8156
 1155TIP3    H225025   2.612   3.159   1.993  0.1535  1.2481  0.5958
 1156TIP3   OH225026   3.984   6.781   8.431  0.4825  0.0090 -0.3207
 1156TIP3    H125027   3.957   6.692   8.452  0.6594 -0.1638 -0.8165
 1156TIP3    H225028   4.017   6.816   8.514  1.0448 -0.6166 -0.2685
 1157TIP3   OH225029   6.567   0.504   0.030  0.1759  0.0295 -0.0246
 1157TIP3    H125030   6.657   0.514  -0.002 -0.3184 -0.7462 -1.7717
 1157TIP3    H225031   6.541   0.417   0.001 -1.7492  0.9117 -1.1816
 1158TIP3   OH225032   0.494   0.110   8.203  0.3057 -0.2247 -0.1470
 1158TIP3    H125033   0.573   0.062   8.228  1.0675  1.1424  0.1704
 1158TIP3    H225034   0.480   0.172   8.275  1.2244  2.2148 -1.9361
 1159TIP3   OH225035   6.598   5.917   1.534 -0.1511  0.0106  0.4826
 1159TIP3    H125036   6.595   5.847   1.599  2.8715 -0.9274 -0.2105
 1159TIP3    H225037   6.572   5.875   1.452 -0.5571  0.2976  0.4619
 1160TIP3   OH225038   1.162   6.662   7.012  0.5727 -0.2587  0.2833
 1160TIP3    H125039   1.137   6.734   7.069  1.2106 -1.4694  2.1672
 1160TIP3    H225040   1.161   6.585   7.068  2.5142 -1.3091 -1.0033
 1161TIP3   OH225041   3.822   3.247   1.540  0.2301  0.0645  0.1927
 1161TIP3    H125042   3.796   3.284   1.456  2.0158  1.2647  0.1059
 1161TIP3    H225043   3.918   3.247   1.537  0.3232 -0.1045  2.1221
 1162TIP3   OH225044   3.919   0.881   1.683  0.4663  0.4240  0.6458
 1162TIP3    H125045   3.979   0.896   1.757 -2.5679  4.4390  2.7201
 1162TIP3    H225046   3.843   0.837   1.722  0.1117 -0.3696 -0.8710
 1163TIP3   OH225047   2.647   2.850   1.247 -0.0241 -0.5352 -0.1440
 1163TIP3    H125048   2.664   2.871   1.339 -0.9015  0.3566 -0.1649
 1163TIP3    H225049   2.553   2.829   1.244 -0.1836  0.2208 -0.9584
 1164TIP3   OH225050   5.266   0.580   1.168  0.2193 -0.1160 -0.5183
 1164TIP3    H125051   5.176   0.552   1.183  0.3338  0.5041  1.6415
 1164TIP3    H225052   5.260   0.676   1.159  0.6483 -0.0773 -0.4149
 1165TIP3   OH225053   6.344   6.821   6.191 -0.6560  0.0172 -0.5890
 1165TIP3    H125054   6.399   6.745   6.168 -0.2342  0.3441 -0.6647
 1165TIP3    H225055   6.406   6.893   6.201 -1.1981  0.7138 -2.0515
 1166TIP3   OH225056   1.362   1.717   0.253 -0.7657  0.2126  0.1325
 1166TIP3    H125057   1.383   1.720   0.346 -2.6285 -0.3993  0.6070
 1166TIP3    H225058   1.344   1.808   0.229  0.1897  0.4366  0.2320
 1167TIP3   OH225059   3.129   3.262   7.953 -0.3285 -0.7461  0.1929
 1167TIP3    H125060   3.055   3.304   7.996 -0.6979 -1.5545  0.3825
 1167TIP3    H225061   3.158   3.324   7.886 -0.3157  0.1541  1.0062
 1168TIP3   OH225062   1.922   4.749   7.838  0.2923 -0.2479 -0.4960
 1168TIP3    H125063   1.953   4.695   7.911  0.9963 -1.0823 -1.3793
 1168TIP3    H225064   1.941   4.697   7.760  1.4076  1.4425 -1.4174
 1169TIP3   OH225065   3.960   6.274   0.499 -0.3358 -0.7705 -0.1442
 1169TIP3    H125066   3.881   6.326   0.513 -1.2128 -2.4192  1.6544
 1169TIP3    H225067   4.020   6.332   0.453 -2.0001  1.0775 -0.1058
 1170TIP3   OH225068   2.120   2.922   6.787 -0.5247 -0.3774 -0.2989
 1170TIP3    H125069   2.047   2.940   6.846  1.2332 -0.2220  1.9460
 1170TIP3    H225070   2.136   2.828   6.797  0.5904 -0.1260  0.5240
 1171TIP3   OH225071   5.450   4.381   7.747 -0.1265  0.0012  0.1643
 1171TIP3    H125072   5.538   4.384   7.786  0.6711  1.6869 -1.5900
 1171TIP3    H225073   5.391   4.402   7.819  1.0292  0.2352  1.0809
 1172TIP3   OH225074   1.223   0.878   8.033  0.2581  0.1888 -0.3762
 1172TIP3    H125075   1.195   0.806   8.090  1.2422 -2.0946 -2.5553
 1172TIP3    H225076   1.145   0.902   7.984 -0.1243  0.8212  0.5029
 1173TIP3   OH225077   2.611   6.670   1.021  0.3201 -0.3639 -0.0094
 1173TIP3    H125078   2.584   6.636   1.106  1.6918 -0.6580  0.3347
 1173TIP3    H225079   2.552   6.743   1.004 -1.7978 -2.0217 -0.1258
 1174TIP3   OH225080   0.130   0.810   7.789 -0.5086  0.4658 -0.0355
 1174TIP3    H125081   0.116   0.732   7.735  3.4050  0.0972 -0.8668
 1174TIP3    H225082   0.127   0.882   7.727 -2.1588  0.8318  0.4133
 1175TIP3   OH225083   3.068   5.539   7.300 -0.2830 -0.1191 -0.1813
 1175TIP3    H125084   2.981   5.545   7.340 -0.6871  0.4323 -1.1124
 1175TIP3    H225085   3.059   5.584   7.216  1.0294  0.3684 -0.0872
 1176TIP3   OH225086   0.397   0.924   1.275  0.2285  0.2097  0.1367
 1176TIP3    H125087   0.416   0.849   1.331  0.9867  0.2913 -0.0024
 1176TIP3    H225088   0.369   0.992   1.336  0.8646  0.2394  0.4082
 1177TIP3   OH225089   5.133   5.137   1.700 -0.1768 -0.1667 -0.0257
 1177TIP3    H125090   5.089   5.210   1.744 -1.1677 -0.6873 -0.1368
 1177TIP3    H225091   5.089   5.059   1.733  1.4684 -0.8011  0.7943
 1178TIP3   OH225092   1.659   3.493   7.889  0.7512  0.1610  0.9916
 1178TIP3    H125093   1.718   3.535   7.951 -1.0270  0.2485  2.7274
 1178TIP3    H225094   1.635   3.563   7.828  2.5111  0.0727  0.1221
 1179TIP3   OH225095   4.887   3.267   6.722  0.0217  0.5182 -0.0608
 1179TIP3    H125096   4.852   3.212   6.652  0.2709  0.2891 -0.0088
 1179TIP3    H225097   4.851   3.354   6.705 -1.1342  0.1556  0.3751
 1180TIP3   OH225098   4.360   3.695   7.205  0.3079  0.9511  0.4465
 1180TIP3    H125099   4.448   3.721   7.176  1.1656 -0.6745  1.4361
 1180TIP3    H225100   4.338   3.621   7.148 -0.0152  0.7547  0.8277
 1181TIP3   OH225101   4.661   1.985   0.783 -0.2288  0.0461  0.2995
 1181TIP3    H125102   4.748   2.000   0.746 -0.5825  1.5879  0.0046
 1181TIP3    H225103   4.627   1.909   0.737  0.1665  0.6724 -1.0684
 1182TIP3   OH225104   1.902   4.859   2.049 -0.4736 -0.2855  0.1280
 1182TIP3    H125105   1.853   4.880   1.969  0.5098  1.0299 -0.1700
 1182TIP3    H225106   1.871   4.924   2.113 -0.7569 -0.8996  0.6228
 1183TIP3   OH225107   2.185   5.581   7.741  0.2174  0.4979  0.3433
 1183TIP3    H125108   2.225   5.581   7.654  0.1563  0.1968  0.3122
 1183TIP3    H225109   2.172   5.673   7.762  2.0258  0.6743  0.8697
 1184TIP3   OH225110   2.246   6.522   7.042  0.0139  0.2968 -0.1158
 1184TIP3    H125111   2.250   6.427   7.042  1.9276  0.2932  1.4156
 1184TIP3    H225112   2.238   6.546   6.950  1.3793 -1.3346 -0.7219
 1185TIP3   OH225113   2.525   4.795   7.449 -0.8758  0.2678  0.1368
 1185TIP3    H125114   2.545   4.763   7.362 -1.1005  0.7295 -0.0891
 1185TIP3    H225115   2.508   4.716   7.501 -0.0871 -0.0441 -0.0620
 1186TIP3   OH225116   0.239   6.718   8.344 -0.2522 -0.3106 -0.5033
 1186TIP3    H125117   0.331   6.694   8.344  0.2084  1.2936  0.2063
 1186TIP3    H225118   0.204   6.679   8.264  0.9607 -1.1829 -0.6418
 1187TIP3   OH225119   2.216   1.127   0.754  0.2389  0.4571 -0.4944
 1187TIP3    H125120   2.193   1.076   0.831 -0.5601  2.2576  0.5101
 1187TIP3    H225121   2.268   1.200   0.788  2.2897 -0.1861 -2.0161
 1188TIP3   OH225122   2.149   3.988   6.899  0.1559  0.0457  0.9180
 1188TIP3    H125123   2.119   3.928   6.831  0.0269 -1.8004  2.5002
 1188TIP3    H225124   2.244   3.972   6.905  0.1414  0.0688  1.2554
 1189TIP3   OH225125   2.084   2.837   7.424  0.0290  0.3935  0.7385
 1189TIP3    H125126   2.172   2.823   7.390  0.5930  0.7046  2.0216
 1189TIP3    H225127   2.083   2.929   7.453 -0.9315  0.5917  0.1400
 1190TIP3   OH225128   3.905   2.943   1.577  0.1250  0.0354 -0.2948
 1190TIP3    H125129   3.866   2.972   1.495 -0.1147 -1.2407 -0.6602
 1190TIP3    H225130   3.831   2.934   1.637 -0.3764 -3.0194 -1.1756
 1191TIP3   OH225131   2.742   1.440   0.114 -0.1008  0.2168 -0.0232
 1191TIP3    H125132   2.683   1.414   0.043 -0.1482 -2.0785  0.7770
 1191TIP3    H225133   2.684   1.462   0.187 -0.0266  1.9224 -0.4221
 1192TIP3   OH225134   5.503   5.579   1.815  0.2311 -0.1995 -0.6659
 1192TIP3    H125135   5.519   5.671   1.835  1.8378 -0.6847  0.4812
 1192TIP3    H225136   5.504   5.536   1.901  0.6678 -1.4392 -1.2709
 1193TIP3   OH225137   1.316   5.455   0.298  0.3152  0.1943 -0.3100
 1193TIP3    H125138   1.265   5.386   0.341  1.2732 -1.0793 -1.1252
 1193TIP3    H225139   1.253   5.501   0.243 -0.2415 -0.3811 -0.1680
 1194TIP3   OH225140   1.481   0.304   7.145  0.2316  0.2388 -0.4094
 1194TIP3    H125141   1.482   0.287   7.239 -0.2005 -0.5275 -0.5389
 1194TIP3    H225142   1.409   0.365   7.132 -0.1991 -0.2456 -0.3344
 1195TIP3   OH225143   1.414   0.814   1.711 -0.8832 -0.1697  0.2436
 1195TIP3    H125144   1.434   0.867   1.788  0.2807 -0.4059  0.1113
 1195TIP3    H225145   1.499   0.792   1.673 -1.4270  0.0373 -1.1834
 1196TIP3   OH225146   3.543   3.394   1.861  0.1267  0.4496  0.5934
 1196TIP3    H125147   3.542   3.435   1.948  3.4077  2.7270 -0.2534
 1196TIP3    H225148   3.584   3.308   1.875 -1.3257 -0.1205  1.5376
 1197TIP3   OH225149   1.251   4.742   0.500  0.2600 -0.3533 -0.1316
 1197TIP3    H125150   1.248   4.763   0.407  0.2550 -3.4001 -0.9199
 1197TIP3    H225151   1.160   4.744   0.529  0.1292 -0.7480 -0.5266
 1198TIP3   OH225152   4.013   1.543   0.225 -0.1338  0.2962  0.7616
 1198TIP3    H125153   4.094   1.562   0.178 -0.9519  0.1707 -0.7580
 1198TIP3    H225154   4.036   1.554   0.317  1.3653  1.1919  0.3218
 1199TIP3   OH225155   4.314   6.602   8.341  0.3474 -0.2431 -0.1035
 1199TIP3    H125156   4.292   6.695   8.343 -0.8016 -0.4654 -1.2476
 1199TIP3    H225157   4.370   6.593   8.263  1.8496 -0.2657  0.9203
 1200TIP3   OH225158   5.427   5.453   1.579  0.4039  0.5426  0.2078
 1200TIP3    H125159   5.504   5.477   1.527  0.9622  0.6465  1.0560
 1200TIP3    H225160   5.445   5.488   1.666 -0.8578  1.0285  0.2917
 1201TIP3   OH225161   6.573   4.745   0.931 -0.7162 -0.0770 -0.0067
 1201TIP3    H125162   6.545   4.654   0.933 -1.7405  0.2082 -0.4866
 1201TIP3    H225163   6.668   4.742   0.939 -0.8898 -1.0712  2.1926
 1202TIP3   OH225164   4.677   2.726   7.082  0.2073  0.2783  0.7168
 1202TIP3    H125165   4.619   2.761   7.015 -0.1544 -0.6953  0.5024
 1202TIP3    H225166   4.765   2.736   7.046 -0.0795 -5.0310 -2.4647
 1203TIP3   OH225167   6.215   4.991   2.010  0.3309  0.5725  0.2559
 1203TIP3    H125168   6.309   4.977   2.001  0.3846  0.6398  0.7311
 1203TIP3    H225169   6.197   4.980   2.103 -0.4189 -1.1381 -0.0628
 1204TIP3   OH225170   6.387   3.739   0.886 -0.0484 -0.5314  0.3602
 1204TIP3    H125171   6.367   3.679   0.958 -0.4900 -1.6018 -0.6328
 1204TIP3    H225172   6.306   3.745   0.836  0.6561 -0.9487 -0.8689
 1205TIP3   OH225173   4.207   4.643   6.446  0.0407 -0.0425 -0.3920
 1205TIP3    H125174   4.162   4.647   6.531  0.5778  0.7894 -0.1311
 1205TIP3    H225175   4.158   4.577   6.396 -2.0969  1.5049 -0.4841
 1206TIP3   OH225176   4.072   5.979   2.454 -0.3441 -0.5301  0.3889
 1206TIP3    H125177   4.090   6.001   2.362 -0.4274  1.6126  0.8353
 1206TIP3    H225178   3.985   5.941   2.452 -0.8896  0.6752 -0.3078
 1207TIP3   OH225179   2.749   4.917   0.477  0.0373 -0.3490  0.5048
 1207TIP3    H125180   2.679   4.933   0.413  0.6191 -0.0889 -0.0712
 1207TIP3    H225181   2.807   4.992   0.468  1.1151 -1.2229  0.0098
 1208TIP3   OH225182   2.962   1.754   8.671  0.3954  0.4453 -0.2265
 1208TIP3    H125183   2.998   1.799   8.747 -0.2292 -0.3753  0.5663
 1208TIP3    H225184   2.868   1.750   8.687  0.2946 -0.0086 -0.8904
 1209TIP3   OH225185   5.792   5.792   1.884  0.0029  0.7949 -0.4265
 1209TIP3    H125186   5.721   5.850   1.856 -0.6320 -0.2704 -1.1144
 1209TIP3    H225187   5.841   5.843   1.949 -2.8019  0.7768  1.9228
 1210TIP3   OH225188   6.612   6.453   8.018 -0.6327 -0.3285 -0.5538
 1210TIP3    H125189   6.690   6.500   8.044 -1.6897  1.4732 -0.4989
 1210TIP3    H225190   6.608   6.378   8.077  0.3865  0.2455  0.2598
 1211TIP3   OH225191   0.582   2.422   0.772 -0.3448  0.5217  0.1849
 1211TIP3    H125192   0.640   2.394   0.701  0.4817 -2.3392  1.8247
 1211TIP3    H225193   0.523   2.485   0.730  1.3003  0.4303 -2.5522
 1212TIP3   OH225194   1.052   5.005   7.203 -0.4102  0.2506  0.0067
 1212TIP3    H125195   1.059   4.934   7.140 -2.7344 -0.4926  0.5081
 1212TIP3    H225196   1.063   4.963   7.288  0.4759  0.8928  0.2277
 1213TIP3   OH225197   3.070   0.540   0.509  0.6971 -0.2640 -0.3441
 1213TIP3    H125198   2.998   0.501   0.558  1.4679 -1.3007 -0.0027
 1213TIP3    H225199   3.106   0.468   0.456  0.7754  0.5009 -1.3608
 1214TIP3   OH225200   1.315   1.221   1.528  0.6519 -0.2736  0.2000
 1214TIP3    H125201   1.269   1.273   1.595 -0.3659 -0.9403  0.0469
 1214TIP3    H225202   1.299   1.130   1.554  0.0680 -0.5410 -1.0536
 1215TIP3   OH225203   0.103   6.671   0.612 -0.0105 -0.0117  0.4578
 1215TIP3    H125204   0.058   6.737   0.559 -0.1056 -0.8766 -0.5701
 1215TIP3    H225205   0.061   6.588   0.589  0.6581 -0.5508  1.1110
 1216TIP3   OH225206   4.813   4.409   0.049 -0.8170 -0.5788 -0.4522
 1216TIP3    H125207   4.727   4.387   0.014 -1.5433 -0.6161  1.3025
 1216TIP3    H225208   4.817   4.504   0.046 -1.9640 -0.4083  1.7492
 1217TIP3   OH225209   6.798   3.079   7.708  0.7091 -0.0356 -0.3343
 1217TIP3    H125210   6.720   3.052   7.757 -0.5523  0.4240 -1.9842
 1217TIP3    H225211   6.869   3.030   7.748 -0.8015 -2.3908 -0.3099
 1218TIP3   OH225212   6.447   6.076   1.890 -0.0423  0.1665  0.1929
 1218TIP3    H125213   6.444   5.986   1.922  1.5987 -0.8568 -2.2135
 1218TIP3    H225214   6.466   6.129   1.967 -0.6629 -1.5686  1.6037
 1219TIP3   OH225215   6.257   0.768   6.219  0.9010 -0.1757 -0.1647
 1219TIP3    H125216   6.334   0.813   6.185  1.5704 -1.1504  0.0416
 1219TIP3    H225217   6.276   0.751   6.311 -0.3003  1.1311  0.3675
 1220TIP3   OH225218   0.998   4.830   0.571 -0.0535 -0.2483 -0.1629
 1220TIP3    H125219   0.963   4.781   0.646 -1.8736  1.1754 -0.0171
 1220TIP3    H225220   0.928   4.828   0.506  1.2927 -1.0045 -1.6771
 1221TIP3   OH225221   3.059   6.235   7.989  0.1525  0.4391  0.2354
 1221TIP3    H125222   3.146   6.259   8.020 -0.1076 -1.8042  3.1584
 1221TIP3    H225223   3.004   6.238   8.067 -1.6456 -1.3279 -0.8647
 1222TIP3   OH225224   3.516   4.447   8.165 -0.1139  0.1095 -0.6705
 1222TIP3    H125225   3.514   4.528   8.115 -0.9577 -1.5288 -3.5087
 1222TIP3    H225226   3.592   4.400   8.131 -0.3893 -0.8326 -0.0217
 1223TIP3   OH225227   1.038   1.598   0.196 -0.4698  0.0316 -0.2099
 1223TIP3    H125228   0.986   1.524   0.228  0.8747 -0.5094  0.8174
 1223TIP3    H225229   1.032   1.593   0.101 -1.4618 -0.6051 -0.1269
 1224TIP3   OH225230   4.235   1.482   6.665  0.5038 -0.3917 -0.1265
 1224TIP3    H125231   4.149   1.439   6.665  0.2019  0.1546 -1.5789
 1224TIP3    H225232   4.242   1.522   6.578  1.7594  0.5327  0.3692
 1225TIP3   OH225233   1.199   3.783   0.177  0.6268 -0.3716 -0.0161
 1225TIP3    H125234   1.193   3.838   0.255 -1.0993 -0.8131  0.1990
 1225TIP3    H225235   1.112   3.788   0.137  1.5680  0.2112 -2.1871
 1226TIP3   OH225236   2.923   2.946   6.077  0.7278 -0.1390  0.3226
 1226TIP3    H125237   3.011   2.949   6.114 -0.1432  0.2758  2.5191
 1226TIP3    H225238   2.900   3.039   6.065 -0.2687 -0.0999  2.1140
 1227TIP3   OH225239   6.607   5.443   0.086 -0.2030 -0.1550 -0.0106
 1227TIP3    H125240   6.681   5.386   0.106 -2.3028 -2.7185  1.0744
 1227TIP3    H225241   6.530   5.392   0.111 -2.4288  1.9185 -2.0632
 1228TIP3   OH225242   1.240   2.744   6.747 -0.1352  0.0801  0.1070
 1228TIP3    H125243   1.315   2.789   6.709  0.1271  0.6645  1.2688
 1228TIP3    H225244   1.179   2.814   6.771 -0.8364 -0.3550 -0.3463
 1229TIP3   OH225245   2.655   6.021   0.998  0.0676  0.0149 -0.3742
 1229TIP3    H125246   2.622   5.938   0.965 -0.6964  0.6936 -1.4045
 1229TIP3    H225247   2.741   6.001   1.032  0.1457 -1.0940 -1.1666
 1230TIP3   OH225248   5.054   5.265   1.196 -0.3455  0.5787  0.3681
 1230TIP3    H125249   5.081   5.216   1.274 -1.0588  0.3699  0.4879
 1230TIP3    H225250   5.093   5.216   1.123 -0.5914  0.1439  0.5254
 1231TIP3   OH225251   4.858   2.750   0.629 -0.0142  0.0956  0.2898
 1231TIP3    H125252   4.926   2.714   0.572 -3.0950 -3.4143 -1.6433
 1231TIP3    H225253   4.812   2.813   0.574 -0.8469 -0.7124  0.0263
 1232TIP3   OH225254   2.335   1.015   1.545  0.2493 -0.4339  0.2709
 1232TIP3    H125255   2.347   1.051   1.457  0.6258 -0.1853  0.4232
 1232TIP3    H225256   2.421   1.021   1.586  0.3413 -1.5959  0.2714
 1233TIP3   OH225257   1.412   2.145   6.845  0.0038  0.1293 -0.4029
 1233TIP3    H125258   1.465   2.150   6.765 -1.2064  1.9023 -1.1408
 1233TIP3    H225259   1.330   2.190   6.823 -1.1744 -1.0913  1.2224
 1234TIP3   OH225260   5.503   6.210   7.543 -0.0078  0.4675 -0.0818
 1234TIP3    H125261   5.552   6.208   7.460 -0.2512 -1.6454 -0.2349
 1234TIP3    H225262   5.457   6.294   7.541 -0.5475  0.2081 -2.4414
 1235TIP3   OH225263   5.504   5.621   7.437 -0.4602  0.0228  0.6716
 1235TIP3    H125264   5.599   5.627   7.443 -0.5090  0.9409  0.5643
 1235TIP3    H225265   5.488   5.541   7.386  0.2560  0.0349  0.4216
 1236TIP3   OH225266   0.282   1.505   7.215  0.3212 -0.3528  0.5620
 1236TIP3    H125267   0.308   1.473   7.128  1.5682  1.8806  0.0579
 1236TIP3    H225268   0.186   1.508   7.211  0.3878  0.8397 -1.1917
 1237TIP3   OH225269   3.365   5.131   0.925 -0.0603 -0.0477  0.9884
 1237TIP3    H125270   3.295   5.183   0.964 -0.0506  0.1272  0.7776
 1237TIP3    H225271   3.442   5.150   0.978  0.3895  1.6046 -0.1807
 1238TIP3   OH225272   3.850   2.236   1.646 -0.2927 -0.0800 -0.2469
 1238TIP3    H125273   3.819   2.203   1.561  0.7230  1.5333 -1.3010
 1238TIP3    H225274   3.892   2.160   1.687  1.8946 -0.2487 -2.5348
 1239TIP3   OH225275   2.095   6.573   2.234 -0.0621 -0.1184  0.3038
 1239TIP3    H125276   2.158   6.578   2.306 -0.4175 -2.2513  0.8387
 1239TIP3    H225277   2.019   6.621   2.266  0.4166  0.4375  0.6305
 1240TIP3   OH225278   2.152   0.142   1.611  0.8637  0.4711 -0.2463
 1240TIP3    H125279   2.206   0.184   1.677  0.2988 -1.7892  1.8206
 1240TIP3    H225280   2.130   0.057   1.649  2.1880 -1.9183 -4.1813
 1241TIP3   OH225281   5.772   1.168   8.341  0.4805 -0.2308 -0.0182
 1241TIP3    H125282   5.785   1.081   8.303 -2.4433 -1.4512  1.4693
 1241TIP3    H225283   5.775   1.153   8.436  2.2564  1.7876  0.3288
 1242TIP3   OH225284   2.532   2.283   2.256  0.0136  0.5170 -0.1583
 1242TIP3    H125285   2.615   2.311   2.219 -0.5613  1.6168 -0.6511
 1242TIP3    H225286   2.531   2.188   2.245  0.7552  0.6082 -1.0553
 1243TIP3   OH225287   6.023   2.661   0.441  0.2375  0.6356  0.5893
 1243TIP3    H125288   6.000   2.660   0.349  0.1985 -0.7163  0.5816
 1243TIP3    H225289   5.971   2.590   0.480  3.0951 -1.5055  0.8583
 1244TIP3   OH225290   1.367   3.836   0.579 -0.2723  0.3390 -0.2788
 1244TIP3    H125291   1.328   3.915   0.543 -0.3789  0.3853 -0.0626
 1244TIP3    H225292   1.311   3.813   0.654 -0.3861 -0.0804 -0.4909
 1245TIP3   OH225293   0.180   6.728   1.340 -0.1579 -0.1622 -0.3071
 1245TIP3    H125294   0.222   6.693   1.261 -0.0020  1.7617 -1.1543
 1245TIP3    H225295   0.165   6.820   1.319  0.5227  0.5879  2.1739
 1246TIP3   OH225296   1.917   4.869   6.769 -0.1174 -0.1732 -0.0751
 1246TIP3    H125297   1.971   4.896   6.843 -0.4120 -2.2424  0.9806
 1246TIP3    H225298   1.979   4.833   6.706  0.1520  1.7488 -0.9618
 1247TIP3   OH225299   5.714   2.543   0.272  0.0179 -0.4950 -0.1773
 1247TIP3    H125300   5.779   2.539   0.343  0.2684  0.6494 -0.3233
 1247TIP3    H225301   5.715   2.455   0.235  0.1726 -1.0048  0.9756
 1248TIP3   OH225302   4.352   3.442   0.262 -0.3808 -0.4615 -0.2114
 1248TIP3    H125303   4.396   3.470   0.342 -0.6828 -0.0190 -0.1951
 1248TIP3    H225304   4.312   3.521   0.227 -0.6036 -0.7291 -0.5804
 1249TIP3   OH225305   1.695   6.696   8.466 -0.3121  0.3169  0.2469
 1249TIP3    H125306   1.750   6.768   8.434  0.9316  0.3700  2.3361
 1249TIP3    H225307   1.609   6.713   8.428  0.4199  1.8371 -0.8426
 1250TIP3   OH225308   0.762   6.283   6.578 -0.6289  0.1206  0.1831
 1250TIP3    H125309   0.813   6.362   6.595 -0.2371 -0.2612  0.8150
 1250TIP3    H225310   0.827   6.217   6.554 -0.9090 -0.1395  0.1362
 1251TIP3   OH225311   3.754   3.802   2.369  0.0134  0.0588  0.3264
 1251TIP3    H125312   3.734   3.726   2.424 -1.8221 -0.2511 -0.6945
 1251TIP3    H225313   3.668   3.834   2.340  0.8709  0.8188 -1.5298
 1252TIP3   OH225314   1.471   3.369   1.108 -0.1294 -0.6752 -0.3939
 1252TIP3    H125315   1.437   3.374   1.018 -0.1543 -1.8373 -0.4576
 1252TIP3    H225316   1.527   3.447   1.116 -1.4580  0.3709 -0.8349
 1253TIP3   OH225317   2.951   1.747   2.175 -0.0946 -0.1381 -0.3246
 1253TIP3    H125318   2.885   1.812   2.149 -0.3199 -0.3211 -0.2145
 1253TIP3    H225319   2.959   1.689   2.099 -0.0160 -0.0812 -0.3601
 1254TIP3   OH225320   2.349   5.780   8.233 -0.0420 -0.0848  0.2979
 1254TIP3    H125321   2.441   5.755   8.238  0.0624  0.0419 -0.7571
 1254TIP3    H225322   2.350   5.875   8.228 -0.1377 -0.1355 -1.0762
 1255TIP3   OH225323   0.592   0.042   7.295  0.4308 -0.2061 -0.6533
 1255TIP3    H125324   0.641  -0.032   7.331  0.2801 -1.2820 -2.5210
 1255TIP3    H225325   0.526   0.062   7.361  1.2372 -0.9433  0.4122
 1256TIP3   OH225326   5.448   3.482   6.940 -0.1989  0.8595  0.0076
 1256TIP3    H125327   5.540   3.483   6.968  0.4235  1.4239 -1.8882
 1256TIP3    H225328   5.435   3.567   6.898 -0.6100 -0.3927 -2.6060
 1257TIP3   OH225329   5.067   0.725   0.540  0.7894  0.1009 -0.3084
 1257TIP3    H125330   5.123   0.685   0.607  1.7067 -1.6102 -1.9904
 1257TIP3    H225331   5.127   0.743   0.467 -0.6892 -1.0658 -1.8762
 1258TIP3   OH225332   0.215   4.454   0.735  0.1982 -0.2800 -0.0913
 1258TIP3    H125333   0.270   4.526   0.702  0.3164 -0.6487 -0.7094
 1258TIP3    H225334   0.267   4.375   0.718 -0.0183 -0.5325  0.4014
 1259TIP3   OH225335   1.250   3.720   1.296  0.3447 -0.1057  0.3017
 1259TIP3    H125336   1.334   3.753   1.264  0.8595 -1.9977 -0.4636
 1259TIP3    H225337   1.211   3.677   1.219 -0.7292 -0.3579  0.9722
 1260TIP3   OH225338   3.345   1.407   7.078 -0.1947 -0.3556  0.6841
 1260TIP3    H125339   3.341   1.340   7.010  0.9313  0.4921 -0.2605
 1260TIP3    H225340   3.437   1.408   7.105 -0.2655  0.5537  0.9256
 1261TIP3   OH225341   4.253   3.688   2.272 -0.1747  0.1857  0.2594
 1261TIP3    H125342   4.229   3.670   2.363 -0.5286 -1.3634 -0.1165
 1261TIP3    H225343   4.284   3.604   2.238 -0.8184  0.5395 -1.2856
 1262TIP3   OH225344   4.314   2.009   7.329 -0.1886  0.6575  0.7430
 1262TIP3    H125345   4.327   2.054   7.246 -3.4758 -0.9385 -0.8541
 1262TIP3    H225346   4.394   1.960   7.343  1.0990  2.2645 -0.5739
 1263TIP3   OH225347   3.861   4.457   7.828  0.2941 -0.1735 -0.2666
 1263TIP3    H125348   3.861   4.375   7.876 -1.0708 -0.7705 -1.2124
 1263TIP3    H225349   3.769   4.482   7.823  0.7378  1.8142  0.6181
 1264TIP3   OH225350   3.309   0.182   1.775  0.3974  0.2770  0.5215
 1264TIP3    H125351   3.321   0.153   1.866 -1.8853 -1.7272  0.2831
 1264TIP3    H225352   3.332   0.276   1.777  1.3103  0.0904  2.9199
 1265TIP3   OH225353   1.251   1.172   0.395 -0.3899  0.3581 -0.0670
 1265TIP3    H125354   1.330   1.145   0.441 -1.1626 -0.2984  0.9186
 1265TIP3    H225355   1.197   1.094   0.391 -1.1160  0.8656 -0.4424
 1266TIP3   OH225356   5.026   2.679   6.543 -0.1119  0.1414  0.5881
 1266TIP3    H125357   5.039   2.672   6.638  1.5989 -1.5908  0.2813
 1266TIP3    H225358   5.062   2.765   6.521  1.2023 -0.2161  1.2703
 1267TIP3   OH225359   1.261   1.266   8.406 -0.3796  0.1734 -0.0213
 1267TIP3    H125360   1.253   1.361   8.412  1.8861  0.3536  0.8986
 1267TIP3    H225361   1.231   1.246   8.317 -0.0063  1.8675 -0.5769
 1268TIP3   OH225362   3.309   5.100   7.315  0.4457 -0.4186  0.2633
 1268TIP3    H125363   3.378   5.129   7.375  0.3621 -0.9949  0.6471
 1268TIP3    H225364   3.351   5.035   7.259  0.1353 -1.0293  0.7267
 1269TIP3   OH225365   5.176   1.134   6.782 -0.1327 -0.0783  0.6344
 1269TIP3    H125366   5.207   1.222   6.800  0.7144 -0.5260  1.4421
 1269TIP3    H225367   5.157   1.134   6.688 -4.4820  2.2647  1.2351
 1270TIP3   OH225368   4.129   0.276   8.274  0.3082 -0.2502  0.8714
 1270TIP3    H125369   4.128   0.330   8.353  2.0472 -0.8664  1.3840
 1270TIP3    H225370   4.041   0.239   8.269 -0.8229  2.3036  0.6829
 1271TIP3   OH225371   2.081   5.097   2.245  0.1073  0.2548  0.0079
 1271TIP3    H125372   1.989   5.078   2.228 -0.2591  3.2235 -2.0906
 1271TIP3    H225373   2.084   5.191   2.263  2.7839  0.4256 -0.8283
 1272TIP3   OH225374   2.405   2.236   0.132 -0.0445  0.1286 -0.4409
 1272TIP3    H125375   2.353   2.264   0.207 -1.6062  0.0091 -1.4437
 1272TIP3    H225376   2.480   2.296   0.131 -1.1794  1.6089 -0.1190
 1273TIP3   OH225377   0.844   0.754   7.629  0.4957  0.0888 -0.0724
 1273TIP3    H125378   0.775   0.771   7.565  0.8056  2.3010  0.0940
 1273TIP3    H225379   0.816   0.674   7.675 -1.5256  0.4622 -0.5627
 1274TIP3   OH225380   4.201   6.616   0.317  0.1862  0.3725  0.1973
 1274TIP3    H125381   4.189   6.521   0.324 -0.0858  0.3848 -0.1026
 1274TIP3    H225382   4.141   6.653   0.381 -0.5259  0.3852 -0.4686
 1275TIP3   OH225383   0.685   1.129   8.032 -0.1686  0.2163  0.0775
 1275TIP3    H125384   0.678   1.057   8.095  2.5184 -0.7322 -0.5619
 1275TIP3    H225385   0.687   1.208   8.086  0.2117 -0.4389  1.0541
 1276TIP3   OH225386   1.741   6.618   1.862 -0.2766  0.0116  0.2167
 1276TIP3    H125387   1.815   6.579   1.909  1.4475 -0.1488 -2.4055
 1276TIP3    H225388   1.693   6.543   1.827 -0.8358  0.1611  0.6386
 1277TIP3   OH225389   6.449   3.700   7.675 -0.2817 -0.3407 -0.1048
 1277TIP3    H125390   6.449   3.605   7.668  0.9026 -0.3997  0.4108
 1277TIP3    H225391   6.492   3.731   7.595  1.2402 -0.3727  0.6527
 1278TIP3   OH225392   4.826   5.810   7.668  0.4544  0.0578  0.6005
 1278TIP3    H125393   4.856   5.811   7.577  1.8507 -1.2168  0.9827
 1278TIP3    H225394   4.870   5.884   7.709 -1.0761  1.3316  0.0223
 1279TIP3   OH225395   3.851   2.643   2.413  0.2320  0.1937 -0.1645
 1279TIP3    H125396   3.782   2.589   2.451  0.7764 -1.0173 -0.8565
 1279TIP3    H225397   3.901   2.673   2.489 -0.0395 -0.3151  0.2286
 1280TIP3   OH225398   0.506   2.081   0.372  0.0089  0.3265 -0.2246
 1280TIP3    H125399   0.474   2.107   0.286  0.6275 -0.6063 -0.7655
 1280TIP3    H225400   0.519   1.986   0.364  0.5914  0.3180  0.7175
 1281TIP3   OH225401   0.713   0.119   1.913  0.3035  0.3957  0.0645
 1281TIP3    H125402   0.639   0.125   1.973  1.6147  1.3009  1.6601
 1281TIP3    H225403   0.776   0.062   1.957  0.6811 -0.1802 -1.1598
 1282TIP3   OH225404   2.693   6.150   1.817  0.2552 -0.0366  0.8288
 1282TIP3    H125405   2.765   6.119   1.871 -0.4428 -1.2540  1.0999
 1282TIP3    H225406   2.675   6.238   1.849  0.5879 -0.3165  1.8106
 1283TIP3   OH225407   5.773   0.789   8.509 -0.1749  0.4896 -0.3638
 1283TIP3    H125408   5.802   0.729   8.440  0.6602  0.0685  0.3434
 1283TIP3    H225409   5.852   0.807   8.560 -0.9873 -0.0788  1.1598
 1284TIP3   OH225410   5.341   5.836   0.044 -0.3369 -0.2758  0.0120
 1284TIP3    H125411   5.417   5.792   0.082 -1.0017 -0.1943  1.5160
 1284TIP3    H225412   5.309   5.893   0.114 -0.6720  1.1371 -1.2338
 1285TIP3   OH225413   0.958   3.945   1.928 -0.0241 -0.1513  0.2586
 1285TIP3    H125414   0.891   3.975   1.990  0.1518 -0.6731  0.7136
 1285TIP3    H225415   0.987   3.861   1.963 -0.2473 -0.6778 -0.7915
 1286TIP3   OH225416   2.697   2.944   1.515 -0.5311  0.6639  0.1135
 1286TIP3    H125417   2.730   2.921   1.601  1.0633 -0.3531 -0.7163
 1286TIP3    H225418   2.632   3.013   1.531  2.5048  3.3768  1.8680
 1287TIP3   OH225419   1.966   2.538   7.850 -0.1159  0.1069  0.4002
 1287TIP3    H125420   1.942   2.458   7.896  0.3637 -0.0770  0.3385
 1287TIP3    H225421   2.029   2.582   7.907 -1.1494  0.9710  0.9167
 1288TIP3   OH225422   3.703   0.746   1.772 -0.3569  0.5309 -0.0880
 1288TIP3    H125423   3.621   0.786   1.798  0.1133  1.2081  0.3697
 1288TIP3    H225424   3.677   0.673   1.715 -1.2397  1.2365 -0.6194
 1289TIP3   OH225425   6.751   5.628   8.647 -0.0101  0.0978 -0.0664
 1289TIP3    H125426   6.721   5.567   8.714 -0.1418  1.4039  1.0840
 1289TIP3    H225427   6.761   5.712   8.692  0.6188  0.8409 -1.5106
 1290TIP3   OH225428   0.985   1.895   8.005  0.1892 -0.0082 -0.3094
 1290TIP3    H125429   0.898   1.927   7.980  0.5026  0.8361 -0.3546
 1290TIP3    H225430   1.003   1.824   7.944 -1.4023 -1.7319  1.0975
 1291TIP3   OH225431   1.844   2.907   1.030  0.0443 -0.2600 -0.4025
 1291TIP3    H125432   1.876   2.839   1.090 -0.2787 -0.9178 -0.9683
 1291TIP3    H225433   1.921   2.961   1.011 -0.1201  0.8091  1.6823
 1292TIP3   OH225434   3.165   1.234   0.450  0.1113 -0.0692  0.2106
 1292TIP3    H125435   3.219   1.301   0.407 -1.0369  0.7226 -0.0243
 1292TIP3    H225436   3.167   1.160   0.390 -1.5622  1.0611 -1.3522
 1293TIP3   OH225437   5.121   5.504   2.468 -0.1097 -0.2579  0.0144
 1293TIP3    H125438   5.151   5.520   2.378 -0.0756  3.6691  0.5767
 1293TIP3    H225439   5.029   5.529   2.467 -0.1498 -0.3260  1.0513
 1294TIP3   OH225440   2.399   0.843   1.113  0.3733 -0.0247  0.0180
 1294TIP3    H125441   2.400   0.931   1.151 -0.8873 -0.1104  0.2738
 1294TIP3    H225442   2.415   0.785   1.187 -0.3592 -0.0932  0.1277
 1295TIP3   OH225443   3.908   2.960   6.752 -0.7227 -0.1971  0.5464
 1295TIP3    H125444   3.992   2.956   6.798  0.7484  2.8854 -1.5183
 1295TIP3    H225445   3.913   2.890   6.687  0.2272 -0.1377  0.5376
 1296TIP3   OH225446   3.474   4.749   0.375  0.0919  0.3194  0.1197
 1296TIP3    H125447   3.426   4.700   0.442 -2.1359  2.1052 -0.0322
 1296TIP3    H225448   3.541   4.797   0.423 -1.3583  1.4356  1.1065
 1297TIP3   OH225449   6.041   0.685   6.061  0.3640  0.4301 -0.4510
 1297TIP3    H125450   6.025   0.765   6.010 -1.5254  1.6666  1.9213
 1297TIP3    H225451   6.118   0.706   6.113  0.6715  0.1754 -0.7974
 1298TIP3   OH225452   3.776   6.266   1.779 -0.2033 -0.0197 -0.5760
 1298TIP3    H125453   3.764   6.341   1.721  2.5404  1.7877  0.9520
 1298TIP3    H225454   3.767   6.303   1.867 -0.2237 -1.8216  0.2256
 1299TIP3   OH225455   2.390   6.526   7.782  0.0860  0.2022 -0.1998
 1299TIP3    H125456   2.303   6.506   7.818  0.9508  0.3142  2.1488
 1299TIP3    H225457   2.414   6.609   7.823  1.6399 -0.2619 -0.1125
 1300TIP3   OH225458   6.179   4.039   8.446 -0.2990  0.1520 -0.3677
 1300TIP3    H125459   6.101   4.092   8.429 -0.3666  0.5500  1.0738
 1300TIP3    H225460   6.148   3.968   8.503  0.7410  1.5243  2.0549
 1301TIP3   OH225461   4.712   6.311   8.202  0.1269 -0.2891  0.1371
 1301TIP3    H125462   4.693   6.221   8.176 -1.5175  0.0672  0.0287
 1301TIP3    H225463   4.648   6.364   8.156  0.7465  0.9006  0.6016
 1302TIP3   OH225464   2.454   4.671   6.767  0.2505  0.2864  0.5925
 1302TIP3    H125465   2.377   4.640   6.719  0.8934 -2.7762  1.2893
 1302TIP3    H225466   2.528   4.630   6.723  1.0388 -0.7854  2.7653
 1303TIP3   OH225467   3.173   1.117   1.721  0.3920 -0.9831  0.5853
 1303TIP3    H125468   3.161   1.022   1.718 -0.2101 -0.9532 -3.0298
 1303TIP3    H225469   3.084   1.152   1.722  0.3974 -0.6014 -2.4337
 1304TIP3   OH225470   3.345   0.275   7.858  0.8169 -0.3854 -0.1881
 1304TIP3    H125471   3.384   0.317   7.935  1.0594  0.6671 -0.8573
 1304TIP3    H225472   3.276   0.220   7.894  0.7888  0.2374  0.7774
 1305TIP3   OH225473   5.566   2.734   7.552 -0.1286 -0.4917 -0.6317
 1305TIP3    H125474   5.530   2.728   7.641  1.2791  0.9008  0.0777
 1305TIP3    H225475   5.658   2.757   7.565 -0.3317  1.6119 -2.4704
 1306TIP3   OH225476   3.814   2.137   8.162 -0.0975 -0.2652  0.1878
 1306TIP3    H125477   3.787   2.222   8.127  0.9272 -1.0694 -2.9659
 1306TIP3    H225478   3.901   2.152   8.197  0.9974 -0.3063 -2.2958
 1307TIP3   OH225479   3.591   6.695   7.575  0.6547 -0.0595 -0.1579
 1307TIP3    H125480   3.559   6.643   7.501 -1.4010  2.0073 -0.8380
 1307TIP3    H225481   3.639   6.767   7.535 -0.7402  1.2557  0.3968
 1308TIP3   OH225482   4.029   2.964   7.534  0.1386 -0.4703  0.2733
 1308TIP3    H125483   4.014   3.015   7.455 -0.5027  0.2784  0.8648
 1308TIP3    H225484   3.998   2.876   7.513  1.1613 -0.6141 -0.7216
 1309TIP3   OH225485   0.698   5.271   0.591  0.0113  0.4276 -0.4608
 1309TIP3    H125486   0.772   5.245   0.647 -1.3837 -1.3237  0.6937
 1309TIP3    H225487   0.674   5.359   0.622  0.1264  0.0377  0.8206
 1310TIP3   OH225488   4.954   3.951   6.973  0.4705  0.9465 -0.3329
 1310TIP3    H125489   5.028   3.960   7.033 -1.1980 -0.4371  2.1099
 1310TIP3    H225490   4.968   4.018   6.907  4.5686 -0.1097 -0.7807
 1311TIP3   OH225491   6.310   0.376   0.783  0.6277  0.3294  0.1472
 1311TIP3    H125492   6.222   0.415   0.777  0.5582  0.2515  0.5771
 1311TIP3    H225493   6.304   0.317   0.858  1.2662  0.8955  0.6541
 1312TIP3   OH225494   6.106   2.030   0.263 -0.4834  0.0071 -0.2136
 1312TIP3    H125495   6.144   2.117   0.253  0.9073 -0.4864  0.4869
 1312TIP3    H225496   6.125   1.986   0.181 -0.1823  0.0079 -0.1463
 1313TIP3   OH225497   0.264   2.637   8.003  0.3707  0.1143 -0.4151
 1313TIP3    H125498   0.227   2.592   7.927  1.2053 -1.5074  0.0868
 1313TIP3    H225499   0.306   2.567   8.054  3.1107  1.6586 -0.3741
 1314TIP3   OH225500   3.157   1.394   1.058 -0.2950  0.4007 -0.2444
 1314TIP3    H125501   3.186   1.444   1.134  1.7824 -2.5232  1.0863
 1314TIP3    H225502   3.237   1.373   1.010 -0.7696 -2.7813  0.1123
 1315TIP3   OH225503   5.275   0.444   7.105 -0.0252 -0.1931  0.2904
 1315TIP3    H125504   5.295   0.510   7.172  2.0351  0.1812 -0.6231
 1315TIP3    H225505   5.294   0.487   7.022  1.8572 -2.0305 -0.3235
 1316TIP3   OH225506   4.164   4.534   7.936  0.1305 -0.1311 -0.1678
 1316TIP3    H125507   4.127   4.446   7.943 -1.3432  0.4968  0.5400
 1316TIP3    H225508   4.239   4.524   7.877 -0.6610 -1.6459 -0.9957
 1317TIP3   OH225509   1.186   2.702   1.802  0.3930 -0.3467 -0.9121
 1317TIP3    H125510   1.263   2.691   1.858  1.0910  1.9369 -1.3228
 1317TIP3    H225511   1.112   2.693   1.862  1.1046  1.4231  0.3046
 1318TIP3   OH225512   4.926   2.492   6.171 -0.2869 -0.3524 -0.4882
 1318TIP3    H125513   4.904   2.399   6.184 -1.5052  0.1839  1.8761
 1318TIP3    H225514   4.931   2.502   6.076  0.0473 -2.8539 -0.8156
 1319TIP3   OH225515   4.530   5.340   0.538 -0.4474  0.4248  0.4840
 1319TIP3    H125516   4.625   5.349   0.541 -0.4998  1.2343 -0.0433
 1319TIP3    H225517   4.496   5.419   0.579 -0.8996 -0.2101  1.3777
 1320TIP3   OH225518   0.274   4.634   0.384  0.3942  0.6766  0.0356
 1320TIP3    H125519   0.298   4.620   0.476 -1.5761  0.7479  0.6068
 1320TIP3    H225520   0.192   4.683   0.388 -1.6256 -2.2383 -1.6416
 1321TIP3   OH225521   5.455   0.338   7.590  0.4891  0.0584  0.1408
 1321TIP3    H125522   5.524   0.294   7.640  2.4654  0.2871 -2.2020
 1321TIP3    H225523   5.413   0.268   7.541 -0.5208  0.0273  1.0048
 1322TIP3   OH225524   6.799   1.309   1.710 -0.3170 -0.4411  0.0953
 1322TIP3    H125525   6.846   1.379   1.755 -0.7443  0.0962 -0.2835
 1322TIP3    H225526   6.757   1.352   1.635 -1.3383 -0.9219  0.3757
 1323TIP3   OH225527   6.019   6.807   1.327  0.2570  0.1206  0.7535
 1323TIP3    H125528   5.925   6.815   1.310  0.6075  0.9844 -1.0290
 1323TIP3    H225529   6.045   6.893   1.360  0.9685  1.0695 -2.0095
 1324TIP3   OH225530   6.169   6.738   6.912  0.3792 -0.1293  0.2790
 1324TIP3    H125531   6.261   6.714   6.924  1.0475  2.4176  0.7535
 1324TIP3    H225532   6.161   6.823   6.954 -1.7671  0.5379 -1.3298
 1325TIP3   OH225533   5.713   0.010   1.272 -0.1029 -0.9325  0.2421
 1325TIP3    H125534   5.632   0.010   1.323  0.2231 -1.6696  0.7762
 1325TIP3    H225535   5.765   0.080   1.311  0.2004 -1.5825  1.0252
 1326TIP3   OH225536   5.023   6.623   1.591  0.3634  0.0018 -0.3237
 1326TIP3    H125537   5.098   6.598   1.536  1.5845  0.4905  1.0481
 1326TIP3    H225538   5.040   6.580   1.675 -0.6403  0.5408  0.1697
 1327TIP3   OH225539   2.646   1.835   7.042  0.0501  0.1921  0.4650
 1327TIP3    H125540   2.562   1.789   7.041  0.1642 -0.2229  2.7978
 1327TIP3    H225541   2.661   1.861   6.951 -1.5952 -1.5295 -0.3696
 1328TIP3   OH225542   0.529   5.286   2.169  0.3873 -0.1045  0.7327
 1328TIP3    H125543   0.596   5.286   2.101  0.6298  0.5214  0.9623
 1328TIP3    H225544   0.539   5.202   2.213  1.9099  0.5013  1.6150
 1329TIP3   OH225545   0.105   5.473   7.962 -0.6749  0.1279  0.1939
 1329TIP3    H125546   0.069   5.458   8.049  1.1859  1.4285  1.2607
 1329TIP3    H225547   0.122   5.386   7.927 -1.5743 -0.4144  1.0627
 1330TIP3   OH225548   2.890   1.954   1.441  0.2355 -0.2993 -0.3158
 1330TIP3    H125549   2.924   2.024   1.497  1.1006 -0.8917 -0.1009
 1330TIP3    H225550   2.808   1.928   1.484  0.4712 -0.1799  0.2176
 1331TIP3   OH225551   3.768   0.959   1.361  0.3780  0.4383 -0.2593
 1331TIP3    H125552   3.752   1.024   1.429 -2.6304 -0.0727 -0.3387
 1331TIP3    H225553   3.757   0.875   1.406 -2.5604  0.0920 -1.4200
 1332TIP3   OH225554   0.197   6.668   0.278 -0.1488 -0.1485 -0.5810
 1332TIP3    H125555   0.187   6.712   0.363  0.2365 -0.5302 -0.3341
 1332TIP3    H225556   0.255   6.725   0.228 -0.4988  0.1565 -0.6504
 1333TIP3   OH225557   5.789   3.304   1.334  0.1375  0.1450  0.0849
 1333TIP3    H125558   5.732   3.317   1.257  3.5137  0.1588 -2.6666
 1333TIP3    H225559   5.789   3.210   1.348 -1.5170  0.2458  1.0095
 1334TIP3   OH225560   1.281   3.501   0.385  0.1815  0.3668  0.1133
 1334TIP3    H125561   1.275   3.522   0.291  0.0741  1.8723  0.4353
 1334TIP3    H225562   1.374   3.504   0.404  0.3187 -1.1790 -0.1860
 1335TIP3   OH225563   4.039   3.587   7.003  0.3308  0.6548  0.6757
 1335TIP3    H125564   4.013   3.497   7.018 -1.5426  1.4252  2.6135
 1335TIP3    H225565   4.134   3.583   6.989  0.2851 -1.5869  0.7508
 1336TIP3   OH225566   2.615   6.221   0.127  0.4041  0.6725 -0.3444
 1336TIP3    H125567   2.575   6.307   0.121 -0.7328  0.0738 -2.3967
 1336TIP3    H225568   2.644   6.202   0.038  1.6503 -0.6100  0.2997
 1337TIP3   OH225569   1.741   4.613   2.103 -0.5794 -0.1728  0.0345
 1337TIP3    H125570   1.715   4.602   2.012  0.5042 -1.2930 -0.1693
 1337TIP3    H225571   1.776   4.702   2.108 -1.1065  0.0648 -0.5225
 1338TIP3   OH225572   3.278   1.718   7.085 -0.1369  0.5590 -0.1509
 1338TIP3    H125573   3.246   1.641   7.131  0.2216  0.6730  0.2973
 1338TIP3    H225574   3.350   1.686   7.030 -0.5146  0.4364 -0.5756
 1339TIP3   OH225575   0.323   5.794   0.995 -0.2130  0.3208 -0.0981
 1339TIP3    H125576   0.315   5.881   0.956 -0.1331  0.2137 -0.3583
 1339TIP3    H225577   0.335   5.810   1.089 -0.1445  0.5901 -0.1532
 1340TIP3   OH225578   1.825   0.857   8.331  0.4115 -0.4423 -0.5256
 1340TIP3    H125579   1.895   0.914   8.298 -0.1673  0.4050 -0.3169
 1340TIP3    H225580   1.855   0.832   8.419  1.2764 -1.5432 -1.0958
 1341TIP3   OH225581   1.941   5.563   1.307  0.3761 -0.6475 -0.6591
 1341TIP3    H125582   1.959   5.656   1.316 -3.2298 -0.0085  2.7047
 1341TIP3    H225583   1.868   5.558   1.246 -0.7505 -0.9424  0.6450
 1342TIP3   OH225584   0.536   3.428   8.652  0.2410  0.3296 -0.0851
 1342TIP3    H125585   0.540   3.391   8.564  1.9209  0.4088 -0.0701
 1342TIP3    H225586   0.551   3.353   8.710  1.5190  0.6485  0.0232
 1343TIP3   OH225587   5.988   5.913   1.702  0.3477  0.3468  0.1801
 1343TIP3    H125588   5.906   5.888   1.746 -0.2483  0.8818 -0.5900
 1343TIP3    H225589   6.041   5.952   1.771 -0.3394  0.6425  0.5520
 1344TIP3   OH225590   6.516   5.254   6.724  0.1801  0.3064 -0.1491
 1344TIP3    H125591   6.431   5.252   6.680  0.1453  0.4417 -0.0886
 1344TIP3    H225592   6.559   5.332   6.688  1.4159 -1.2628 -2.3292
 1345TIP3   OH225593   5.289   0.586   7.404 -0.2071  0.2244  0.0349
 1345TIP3    H125594   5.257   0.675   7.416  1.1271  0.6896  0.3477
 1345TIP3    H225595   5.383   0.597   7.387 -0.0814 -1.1019 -0.2127
 1346TIP3   OH225596   5.385   5.408   2.585  0.3323  0.2298  0.1229
 1346TIP3    H125597   5.294   5.439   2.581  0.5571  1.2238  1.8095
 1346TIP3    H225598   5.437   5.485   2.563  0.8168  0.2674  1.3583
 1347TIP3   OH225599   3.413   2.630   1.519  0.3672  0.2073 -0.0202
 1347TIP3    H125600   3.322   2.604   1.504  0.3633  0.6992 -0.9636
 1347TIP3    H225601   3.407   2.718   1.556  0.4575  1.3635 -2.5261
 1348TIP3   OH225602   4.360   1.111   7.027 -0.4581  0.5163  0.2398
 1348TIP3    H125603   4.421   1.046   7.061 -0.4995 -0.1187 -0.8860
 1348TIP3    H225604   4.313   1.141   7.105 -0.2289 -0.5718  0.8218
 1349TIP3   OH225605   6.497   6.654   8.481 -0.1480 -0.1580 -0.1245
 1349TIP3    H125606   6.534   6.652   8.393  0.6387  0.4946  0.1725
 1349TIP3    H225607   6.439   6.578   8.485  1.0945 -1.1741 -0.6473
 1350TIP3   OH225608   1.739   4.745   7.364  0.6212 -0.2574  0.2667
 1350TIP3    H125609   1.678   4.672   7.360  0.1368  0.1572 -0.0979
 1350TIP3    H225610   1.737   4.783   7.276  2.0215 -0.7153  0.0074
 1351TIP3   OH225611   3.792   3.450   8.671  0.1199 -0.2247 -0.7746
 1351TIP3    H125612   3.813   3.385   8.604  0.8330 -0.6589 -0.1445
 1351TIP3    H225613   3.846   3.425   8.746 -1.5961 -0.5197  0.4179
 1352TIP3   OH225614   5.100   4.663   7.228  0.1305  0.0161 -0.0460
 1352TIP3    H125615   5.076   4.658   7.135  0.1488 -1.5609  0.0029
 1352TIP3    H225616   5.027   4.621   7.274  0.4379  0.1588  0.5882
 1353TIP3   OH225617   3.177   6.573   7.277  0.1911  0.2386 -0.3583
 1353TIP3    H125618   3.135   6.656   7.299 -1.5766 -0.5597 -0.5088
 1353TIP3    H225619   3.254   6.569   7.333 -0.3338  1.4431  0.4849
 1354TIP3   OH225620   6.303   4.258   2.318  0.4081 -0.2675 -0.3095
 1354TIP3    H125621   6.241   4.282   2.249 -2.4994 -2.2118  1.4602
 1354TIP3    H225622   6.302   4.162   2.319  0.0132 -0.3043  2.6821
 1355TIP3   OH225623   0.439   1.037   7.868 -0.3857 -0.3644  0.3927
 1355TIP3    H125624   0.451   0.947   7.899 -0.2161 -0.5348 -0.1605
 1355TIP3    H225625   0.400   1.082   7.943  0.0309 -0.7624  0.8660
 1356TIP3   OH225626   1.263   2.715   7.084  0.0829 -0.3220 -0.4069
 1356TIP3    H125627   1.237   2.635   7.039 -0.8705  0.1802 -0.7733
 1356TIP3    H225628   1.317   2.762   7.020 -1.8837  0.7406 -1.3577
 1357TIP3   OH225629   2.387   0.540   7.883 -0.0045  0.1583  0.4556
 1357TIP3    H125630   2.444   0.589   7.824 -0.3478  0.1219  0.0891
 1357TIP3    H225631   2.426   0.553   7.970  0.4999  0.2199  0.2275
 1358TIP3   OH225632   4.699   0.189   0.525 -0.5197  0.8900  0.0796
 1358TIP3    H125633   4.699   0.281   0.552  0.1435  1.2911 -1.1911
 1358TIP3    H225634   4.630   0.184   0.459 -0.0329  0.6674 -0.4200
 1359TIP3   OH225635   6.358   5.568   7.920 -0.1530  0.0524 -0.4103
 1359TIP3    H125636   6.448   5.596   7.907  0.0653  0.6529  1.9031
 1359TIP3    H225637   6.305   5.640   7.887  0.3319  1.3294  1.4366
 1360TIP3   OH225638   1.748   2.995   1.427  0.1924 -0.2315 -0.2106
 1360TIP3    H125639   1.689   3.058   1.385  0.7999 -0.1122 -0.9021
 1360TIP3    H225640   1.720   2.910   1.393 -1.0867 -0.4353  1.2642
 1361TIP3   OH225641   1.605   2.174   0.836 -0.2086  0.3198  0.1961
 1361TIP3    H125642   1.518   2.214   0.836  0.0911  1.1421 -2.1693
 1361TIP3    H225643   1.591   2.086   0.800 -0.2909 -0.2821  1.6252
 1362TIP3   OH225644   2.211   3.860   8.135  0.4538  0.1313 -0.1073
 1362TIP3    H125645   2.149   3.886   8.203  0.6882  1.0599 -0.2295
 1362TIP3    H225646   2.245   3.775   8.163 -0.3444 -0.0523  0.3155
 1363TIP3   OH225647   2.256   5.078   2.009  0.1178  0.0746  0.3150
 1363TIP3    H125648   2.199   5.153   2.030 -3.1959 -1.1037 -3.1386
 1363TIP3    H225649   2.318   5.113   1.945 -0.3245  0.2755 -0.0137
 1364TIP3   OH225650   1.961   2.016   8.201 -0.3159  0.1820  0.3710
 1364TIP3    H125651   2.001   1.965   8.271 -0.1016 -3.9406 -2.4038
 1364TIP3    H225652   2.024   2.012   8.129 -1.7717  1.6224 -1.0642
 1365TIP3   OH225653   5.057   0.133   0.858 -0.1125  0.0182  0.3155
 1365TIP3    H125654   4.965   0.161   0.864 -0.5667 -1.0803 -0.8940
 1365TIP3    H225655   5.105   0.213   0.836 -0.9686  0.3814 -0.2883
 1366TIP3   OH225656   2.554   0.482   6.937  0.2081 -0.3414  0.0639
 1366TIP3    H125657   2.477   0.538   6.924  0.8783  0.5656 -0.0701
 1366TIP3    H225658   2.574   0.449   6.849  1.3659  1.3077 -0.3305
 1367TIP3   OH225659   6.616   1.162   1.315 -0.7079  0.2628  0.0344
 1367TIP3    H125660   6.627   1.093   1.250  0.5090  0.8568 -0.4078
 1367TIP3    H225661   6.704   1.196   1.330 -0.6024 -1.2493  3.5830
 1368TIP3   OH225662   2.664   3.523   0.513  0.3796  0.0955  0.6687
 1368TIP3    H125663   2.680   3.476   0.595 -0.7282  0.9593  1.4183
 1368TIP3    H225664   2.720   3.600   0.518 -0.7811  0.9375  1.3560
 1369TIP3   OH225665   4.397   4.508   7.736 -0.3951 -0.3358  0.4011
 1369TIP3    H125666   4.364   4.562   7.665 -0.0415  0.9064  1.1420
 1369TIP3    H225667   4.433   4.430   7.694 -1.8105 -0.4717 -0.6211
 1370TIP3   OH225668   1.262   1.192   6.990  0.1477 -0.1181 -0.5983
 1370TIP3    H125669   1.307   1.274   6.970 -0.3192 -0.0077 -1.1999
 1370TIP3    H225670   1.185   1.192   6.933 -0.4766 -0.4307  0.2267
 1371TIP3   OH225671   0.069   0.588   6.920  0.0959 -0.7802  0.5418
 1371TIP3    H125672   0.069   0.581   7.015 -0.0796 -2.4180  0.4496
 1371TIP3    H225673   0.149   0.543   6.893 -0.0273 -0.6227 -0.0967
 1372TIP3   OH225674   4.307   0.231   6.563  0.1900 -0.2603 -0.4412
 1372TIP3    H125675   4.402   0.225   6.552  0.0495 -1.1706 -1.3720
 1372TIP3    H225676   4.288   0.324   6.561  1.0723 -0.0747 -0.2250
 1373TIP3   OH225677   0.083   3.131   1.874 -0.1661  0.3001 -0.2383
 1373TIP3    H125678   0.160   3.183   1.898  0.4906  0.1307 -1.8584
 1373TIP3    H225679   0.112   3.077   1.800 -1.6364 -0.3099 -0.4073
 1374TIP3   OH225680   4.083   5.032   0.247  0.0642 -0.2470  0.1869
 1374TIP3    H125681   4.164   4.981   0.252 -0.5169 -1.3159 -0.7524
 1374TIP3    H225682   4.019   4.972   0.208 -1.5000  0.1959  1.8766
 1375TIP3   OH225683   6.651   0.821   1.588  0.2987 -0.1817  0.2167
 1375TIP3    H125684   6.614   0.904   1.618 -0.9988 -0.0910 -1.5343
 1375TIP3    H225685   6.744   0.828   1.610  0.0760  1.3866  0.8243
 1376TIP3   OH225686   2.249   4.065   6.639  0.0112  0.4923 -0.1548
 1376TIP3    H125687   2.209   3.986   6.602 -0.0263  1.0871 -1.4418
 1376TIP3    H225688   2.175   4.113   6.677 -0.0136  0.0706  0.3365
 1377TIP3   OH225689   0.638   4.951   7.154 -0.4474  0.0442  0.4094
 1377TIP3    H125690   0.589   4.952   7.071  1.7055  1.7281 -0.9677
 1377TIP3    H225691   0.722   4.911   7.131  0.1897  0.5583  1.7816
 1378TIP3   OH225692   1.696   1.806   0.487 -0.3751 -0.6305 -0.0120
 1378TIP3    H125693   1.627   1.865   0.455 -0.1868 -0.9083 -0.9732
 1378TIP3    H225694   1.777   1.848   0.459 -0.1933 -0.7851  0.2821
 1379TIP3   OH225695   6.051   1.061   0.083  0.4372 -0.7313  0.2154
 1379TIP3    H125696   6.050   1.127   0.013  1.4450 -0.5853  0.3311
 1379TIP3    H225697   6.019   0.981   0.041  4.7502 -1.7626 -1.5745
 1380TIP3   OH225698   0.867   6.521   0.578 -0.7549 -0.1564 -0.4138
 1380TIP3    H125699   0.867   6.600   0.632 -1.1043 -2.0871  2.6455
 1380TIP3    H225700   0.902   6.550   0.494  0.0429  3.0271  0.8534
 1381TIP3   OH225701   1.325   5.938   0.076 -0.0526 -0.1149 -0.5482
 1381TIP3    H125702   1.398   5.967   0.020  1.9612 -3.0937  0.2997
 1381TIP3    H225703   1.316   6.007   0.141  1.0488  0.9992 -1.5159
 1382TIP3   OH225704   3.100   4.386   7.309 -0.1810 -0.0866  0.0175
 1382TIP3    H125705   3.042   4.380   7.233  1.3841 -0.8608 -1.1904
 1382TIP3    H225706   3.179   4.429   7.275  0.2707  0.2277  1.4003
 1383TIP3   OH225707   1.184   1.132   1.136  0.0032 -0.4009 -0.0416
 1383TIP3    H125708   1.126   1.200   1.101 -1.0640 -0.6155  1.2358
 1383TIP3    H225709   1.156   1.121   1.227  1.0417 -1.6204  0.1554
 1384TIP3   OH225710   3.216   4.003   0.978 -0.3525 -0.3575  0.0768
 1384TIP3    H125711   3.186   4.088   1.009  1.2402  0.3931 -0.3631
 1384TIP3    H225712   3.208   4.008   0.882 -0.6929 -0.8889  0.0684
 1385TIP3   OH225713   5.471   1.040   7.362 -0.0527  0.0302  0.0707
 1385TIP3    H125714   5.561   1.029   7.391  0.2921  0.0045 -0.9757
 1385TIP3    H225715   5.473   1.114   7.301 -0.8181  0.3115  0.3726
 1386TIP3   OH225716   2.676   0.177   8.163 -0.0872 -0.1137  0.2775
 1386TIP3    H125717   2.632   0.128   8.094  1.1871  0.3986 -0.9331
 1386TIP3    H225718   2.769   0.162   8.148  0.2519  0.8968  1.2243
 1387TIP3   OH225719   3.740   0.236   6.668  0.3338 -0.6139 -0.5437
 1387TIP3    H125720   3.658   0.280   6.692  1.3998  1.5760 -0.7132
 1387TIP3    H225721   3.715   0.177   6.597 -1.2414 -0.6502 -0.0096
 1388TIP3   OH225722   4.100   2.977   6.938  0.1393 -0.8215 -0.0033
 1388TIP3    H125723   4.114   3.022   7.021 -1.1125  2.2711 -1.3400
 1388TIP3    H225724   4.187   2.972   6.898  0.2212  1.1641 -0.1383
 1389TIP3   OH225725   1.306   4.263   7.527  0.0976  0.7616 -0.0314
 1389TIP3    H125726   1.266   4.242   7.443  0.0430 -1.2153  0.4274
 1389TIP3    H225727   1.395   4.228   7.521 -0.8343 -2.3590  1.7262
 1390TIP3   OH225728   5.221   1.279   1.106  0.3264  0.9470 -0.6940
 1390TIP3    H125729   5.296   1.271   1.046 -0.3984  1.2340 -1.6491
 1390TIP3    H225730   5.199   1.372   1.105  1.6071  1.3674  1.6739
 1391TIP3   OH225731   3.161   2.249   6.421  1.0160  0.4948  0.0028
 1391TIP3    H125732   3.078   2.215   6.454  0.9186  1.5529  0.8759
 1391TIP3    H225733   3.227   2.214   6.481  1.1800 -0.0222 -0.4617
 1392TIP3   OH225734   2.036   3.283   1.634  0.3169  0.4501  0.2094
 1392TIP3    H125735   1.971   3.255   1.570 -0.0520  1.1551  0.2529
 1392TIP3    H225736   2.116   3.236   1.611 -0.7627 -2.2472  1.5478
 1393TIP3   OH225737   0.846   4.464   2.385  0.0778  0.4690  0.1197
 1393TIP3    H125738   0.751   4.469   2.373  0.2967  1.9189 -1.3103
 1393TIP3    H225739   0.868   4.373   2.366 -1.1144 -0.1269  1.4040
 1394TIP3   OH225740   1.035   3.800   7.414  0.5957 -0.2539  0.0131
 1394TIP3    H125741   0.952   3.788   7.369  1.1712  0.7729 -1.4175
 1394TIP3    H225742   1.085   3.858   7.356  1.0424  1.9761  2.4203
 1395TIP3   OH225743   3.460   5.980   7.358 -0.4934  0.2611  0.3386
 1395TIP3    H125744   3.465   5.921   7.433  1.4963 -0.8184 -0.5786
 1395TIP3    H225745   3.370   5.970   7.326 -0.5401 -1.3816  0.9012
 1396TIP3   OH225746   1.519   5.877   8.309  0.1252  0.0438  0.4870
 1396TIP3    H125747   1.593   5.820   8.331  0.3461  0.1037 -0.1047
 1396TIP3    H225748   1.462   5.872   8.386  0.7867  0.0765  0.9931
 1397TIP3   OH225749   3.770   1.598   0.516  0.1264  0.4828  0.2059
 1397TIP3    H125750   3.727   1.663   0.462 -1.6254  0.2319  1.2283
 1397TIP3    H225751   3.699   1.551   0.559  1.4025  0.2004  2.1607
 1398TIP3   OH225752   4.010   3.941   7.818 -0.6269  0.5677  0.0865
 1398TIP3    H125753   4.024   3.889   7.897  1.7852 -0.8515 -1.1383
 1398TIP3    H225754   4.016   3.878   7.746 -2.5875  1.8297 -1.2966
 1399TIP3   OH225755   5.241   5.267   7.845  0.3846 -0.4326 -0.3113
 1399TIP3    H125756   5.283   5.296   7.764 -2.0608  1.8510 -0.8862
 1399TIP3    H225757   5.252   5.341   7.905  0.2433 -1.2328  0.7432
 1400TIP3   OH225758   2.759   2.777   6.670  0.6308 -0.0242  0.3623
 1400TIP3    H125759   2.764   2.745   6.580 -0.3288  1.2871 -0.1942
 1400TIP3    H225760   2.847   2.765   6.705  0.4673 -2.7235  0.0410
 1401TIP3   OH225761   0.100   3.036   7.083  0.2483  0.0226  0.2975
 1401TIP3    H125762   0.070   3.107   7.026 -0.8541  0.0447  0.8554
 1401TIP3    H225763   0.174   3.073   7.130  0.8464  0.1731 -0.7420
 1402TIP3   OH225764   3.546   2.642   6.379  0.2628  0.4402  0.4166
 1402TIP3    H125765   3.469   2.605   6.422  0.2353  1.5573  1.3816
 1402TIP3    H225766   3.572   2.576   6.316 -0.1073 -0.9715  1.6874
 1403TIP3   OH225767   5.426   4.267   1.488 -0.3193  0.3759 -0.0200
 1403TIP3    H125768   5.400   4.183   1.527 -0.2753  0.5605  0.4129
 1403TIP3    H225769   5.505   4.247   1.438  0.2797  0.3598  0.9262
 1404TIP3   OH225770   5.104   3.566   1.648 -0.3726 -0.0603 -0.0246
 1404TIP3    H125771   5.169   3.607   1.704  1.7170 -1.4366 -1.3155
 1404TIP3    H225772   5.058   3.504   1.704  0.3549 -0.0458  0.5891
 1405TIP3   OH225773   1.996   5.200   1.075 -0.7052  0.4705  0.3805
 1405TIP3    H125774   1.947   5.154   1.007  0.5165 -1.8379  0.9805
 1405TIP3    H225775   1.952   5.176   1.157  1.6750 -2.2160  1.0068
 1406TIP3   OH225776   2.552   1.865   8.514 -0.9142 -0.2037 -0.1025
 1406TIP3    H125777   2.643   1.886   8.535 -1.1760 -1.1732  2.3656
 1406TIP3    H225778   2.551   1.853   8.419  1.1172  1.5775 -0.4346
 1407TIP3   OH225779   2.988   6.501   2.004  0.0708 -0.5282 -0.3533
 1407TIP3    H125780   2.935   6.496   1.924  1.2474 -0.8904 -1.1316
 1407TIP3    H225781   2.982   6.412   2.041 -0.8613 -0.2352  0.2421
 1408TIP3   OH225782   0.619   3.855   2.581  0.7226  0.6829 -0.0053
 1408TIP3    H125783   0.685   3.789   2.558  0.2680  0.5252 -0.9154
 1408TIP3    H225784   0.669   3.929   2.615  1.6638  1.7266 -3.3306
 1409TIP3   OH225785   5.593   3.836   7.511  0.2821  0.1416  0.3737
 1409TIP3    H125786   5.500   3.859   7.521  0.7680  2.0165  1.1753
 1409TIP3    H225787   5.639   3.903   7.562  1.9513 -2.5189  2.6507
 1410TIP3   OH225788   5.401   0.690   1.985 -0.2694  0.2613  0.0543
 1410TIP3    H125789   5.388   0.779   2.018 -3.5985  0.1433 -0.5242
 1410TIP3    H225790   5.447   0.702   1.902  1.1870  1.2122  0.9526
 1411TIP3   OH225791   2.066   4.579   8.025  0.0042 -0.1556  0.0668
 1411TIP3    H125792   1.994   4.521   8.049  0.8199 -0.9180  0.7365
 1411TIP3    H225793   2.076   4.637   8.101  0.3343 -0.2982  0.1331
 1412TIP3   OH225794   5.730   5.486   6.533 -0.6080 -0.1460  0.4340
 1412TIP3    H125795   5.691   5.459   6.617 -1.3342 -0.1890  0.0867
 1412TIP3    H225796   5.779   5.409   6.504 -1.3117 -0.5377  0.2609
 1413TIP3   OH225797   4.641   3.532   7.462  0.3201  0.0326 -0.2217
 1413TIP3    H125798   4.556   3.559   7.497 -0.2364 -1.4723 -0.3220
 1413TIP3    H225799   4.702   3.600   7.491 -0.9358  1.2346 -0.2970
 1414TIP3   OH225800   5.843   2.862   6.586 -0.1752 -0.2731 -0.1165
 1414TIP3    H125801   5.820   2.942   6.538  2.1905  1.0000  0.7366
 1414TIP3    H225802   5.871   2.801   6.518  1.0458  0.7458 -0.5578
 1415TIP3   OH225803   3.135   4.683   1.313 -0.2092 -0.3441 -0.0192
 1415TIP3    H125804   3.054   4.642   1.344  0.1062 -1.7095 -0.9018
 1415TIP3    H225805   3.205   4.635   1.355  0.1650  0.0374 -0.1921
 1416TIP3   OH225806   0.091   3.224   1.047 -0.1185  0.1561  0.0783
 1416TIP3    H125807   0.036   3.204   0.971 -0.5902 -0.7057  0.6272
 1416TIP3    H225808   0.105   3.139   1.089  0.6337  0.5395  0.6219
 1417TIP3   OH225809   1.286   1.897   1.474  0.8205  0.0947 -0.0441
 1417TIP3    H125810   1.294   1.884   1.568  0.5351 -0.5809 -0.1081
 1417TIP3    H225811   1.275   1.809   1.438 -0.6311  0.4450 -0.5489
 1418TIP3   OH225812   4.021   5.647   1.416  0.6604 -0.5827  0.2903
 1418TIP3    H125813   4.101   5.596   1.431  0.0861 -0.8639  2.8461
 1418TIP3    H225814   4.050   5.723   1.366  2.0322 -1.9411 -1.1166
 1419TIP3   OH225815   0.972   5.769   0.799 -0.0502  0.4096 -0.2533
 1419TIP3    H125816   0.928   5.688   0.775  0.0275 -0.6725  2.7705
 1419TIP3    H225817   1.065   5.751   0.785 -0.1397  0.5683 -1.0816
 1420TIP3   OH225818   1.098   4.230   7.118 -0.3683 -0.4897 -0.5267
 1420TIP3    H125819   1.189   4.202   7.108  0.4025  1.3708  0.7182
 1420TIP3    H225820   1.096   4.274   7.203 -1.9935  1.1315 -1.3425
 1421TIP3   OH225821   5.931   6.677   0.601 -0.0509 -0.1585 -0.3617
 1421TIP3    H125822   5.844   6.706   0.575  0.2061  0.0726 -0.9648
 1421TIP3    H225823   5.987   6.698   0.527  0.6419  0.2778  0.2755
 1422TIP3   OH225824   3.229   5.965   0.100 -0.1140 -1.0239 -0.0386
 1422TIP3    H125825   3.155   6.000   0.150 -0.7250 -1.4696 -0.6217
 1422TIP3    H225826   3.231   5.872   0.123  0.0542 -1.0825 -0.2896
 1423TIP3   OH225827   3.828   5.215   1.623  0.5438 -0.4311  0.3306
 1423TIP3    H125828   3.739   5.178   1.623  0.4058 -0.1681 -1.2016
 1423TIP3    H225829   3.829   5.273   1.548  2.2908 -1.0960 -0.1945
 1424TIP3   OH225830   1.905   2.635   0.884  0.2330  0.3145 -0.5489
 1424TIP3    H125831   1.914   2.710   0.826  3.6395 -0.1623 -0.8454
 1424TIP3    H225832   1.865   2.567   0.829  1.3891  0.5348 -1.6935
 1425TIP3   OH225833   5.697   5.966   7.973 -0.2909 -0.6700 -0.2194
 1425TIP3    H125834   5.630   6.013   8.023  0.8216  0.5272  0.2165
 1425TIP3    H225835   5.771   5.960   8.033  0.0529 -1.8376 -0.7400
 1426TIP3   OH225836   3.875   5.019   6.736 -0.3045  0.3200 -0.4284
 1426TIP3    H125837   3.891   5.113   6.732 -0.7730  0.3708 -1.4039
 1426TIP3    H225838   3.780   5.011   6.740 -0.2287 -0.0914  0.8915
 1427TIP3   OH225839   2.904   4.171   7.334 -0.0250 -0.4723  0.6426
 1427TIP3    H125840   2.991   4.207   7.318 -0.5571  0.6911  0.2666
 1427TIP3    H225841   2.852   4.246   7.362 -0.2475 -1.6082  3.6334
 1428TIP3   OH225842   3.216   0.990   7.626  0.0275  0.5045 -0.1479
 1428TIP3    H125843   3.303   1.014   7.659 -0.7929  1.4946  1.4198
 1428TIP3    H225844   3.156   1.018   7.695 -1.4201 -1.9657 -0.2855
 1429TIP3   OH225845   4.739   5.158   7.286  0.0720 -0.3111 -0.9445
 1429TIP3    H125846   4.666   5.175   7.345  1.6450 -0.4792  1.1482
 1429TIP3    H225847   4.733   5.064   7.267 -0.3672 -0.2785 -0.9937
 1430TIP3   OH225848   2.908   5.302   7.704 -0.3713 -0.0862 -0.0918
 1430TIP3    H125849   2.848   5.262   7.767 -1.2034  1.2721  0.0188
 1430TIP3    H225850   2.910   5.240   7.630 -0.1144 -1.2394  0.8419
 1431TIP3   OH225851   5.085   1.825   7.428  0.0304 -1.0230  0.5336
 1431TIP3    H125852   5.106   1.732   7.436 -1.2732 -1.3744  0.2544
 1431TIP3    H225853   5.054   1.850   7.515  0.4726 -0.8284  0.6330
 1432TIP3   OH225854   2.614   4.001   0.613 -0.2491  0.1768  0.2098
 1432TIP3    H125855   2.655   3.915   0.617  0.1762  0.3272 -0.5470
 1432TIP3    H225856   2.551   3.994   0.541 -2.3420 -0.3572  2.0066
 1433TIP3   OH225857   2.476   1.488   1.297  0.4400  0.3536  0.0122
 1433TIP3    H125858   2.424   1.424   1.346 -0.0364 -0.0750 -1.0232
 1433TIP3    H225859   2.481   1.563   1.355  0.0260 -0.1986  0.7885
 1434TIP3   OH225860   2.232   1.520   7.676  0.2471 -0.3267 -0.2205
 1434TIP3    H125861   2.177   1.556   7.746  0.4196 -0.0260 -0.2387
 1434TIP3    H225862   2.226   1.585   7.606  0.1666 -0.5725 -0.4387
 1435TIP3   OH225863   6.547   0.020   0.299 -0.1438  0.4820 -0.2752
 1435TIP3    H125864   6.452   0.033   0.307 -0.5002 -1.9042 -0.0677
 1435TIP3    H225865   6.560   0.001   0.206 -0.0052 -0.1872 -0.1159
 1436TIP3   OH225866   0.933   3.644   7.605 -0.4779 -0.4439  0.0888
 1436TIP3    H125867   0.984   3.699   7.545 -0.4873  0.2031  0.6660
 1436TIP3    H225868   0.999   3.595   7.655 -0.3483  1.2023  1.6059
 1437TIP3   OH225869   4.095   0.710   8.679 -0.2064 -0.2317 -0.5191
 1437TIP3    H125870   4.182   0.730   8.714  0.0283 -3.1478  0.8569
 1437TIP3    H225871   4.035   0.732   8.750 -0.4435  0.2916 -0.8772
 1438TIP3   OH225872   4.532   0.461   1.985  0.2918 -0.2870 -0.0419
 1438TIP3    H125873   4.533   0.556   1.972  0.8903 -0.4934 -1.6793
 1438TIP3    H225874   4.533   0.451   2.080 -1.0705  1.3447  0.1972
 1439TIP3   OH225875   1.018   5.588   0.261 -0.1256  0.2507  0.0587
 1439TIP3    H125876   0.930   5.606   0.228 -0.5989 -1.4089  0.3266
 1439TIP3    H225877   1.077   5.617   0.191 -0.9782 -0.4483 -0.9835
 1440TIP3   OH225878   5.842   0.193   1.415  0.1104 -0.3355  0.1145
 1440TIP3    H125879   5.900   0.231   1.481 -0.3514  0.2876  0.1620
 1440TIP3    H225880   5.779   0.262   1.395 -0.6045 -0.9975  0.0398
 1441TIP3   OH225881   3.244   5.216   6.351  0.1523  0.2345 -0.0133
 1441TIP3    H125882   3.179   5.254   6.292 -0.0630 -0.2628 -0.1005
 1441TIP3    H225883   3.216   5.242   6.438  0.1497  0.4893 -0.0884
 1442TIP3   OH225884   1.638   5.526   7.197  0.3455 -0.4816 -0.1333
 1442TIP3    H125885   1.643   5.561   7.108  0.1022  0.9680  0.3973
 1442TIP3    H225886   1.728   5.527   7.229  0.2216  0.8294  0.2729
 1443TIP3   OH225887   1.275   0.537   1.488  0.2287  0.1888 -0.0318
 1443TIP3    H125888   1.221   0.572   1.416 -0.7525 -2.0957 -0.5030
 1443TIP3    H225889   1.365   0.561   1.465 -0.0761 -0.3825 -2.0016
 1444TIP3   OH225890   6.704   1.144   1.942 -0.5084 -0.5565  0.6568
 1444TIP3    H125891   6.775   1.084   1.966 -0.1767 -0.9644 -1.1853
 1444TIP3    H225892   6.656   1.098   1.873 -1.0137  0.7722  0.0972
 1445TIP3   OH225893   6.765   2.980   1.500 -0.6592 -0.4775 -0.1171
 1445TIP3    H125894   6.799   3.067   1.522 -1.5461 -0.1683  0.0354
 1445TIP3    H225895   6.830   2.920   1.537  0.5892  0.1134 -1.2488
 1446TIP3   OH225896   0.069   3.642   7.638  0.3338  0.1218  0.3412
 1446TIP3    H125897   0.121   3.562   7.636 -0.0147 -0.1244  0.7889
 1446TIP3    H225898   0.130   3.712   7.613  0.9217 -0.1333  1.0210
 1447TIP3   OH225899   3.352   4.726   1.505  0.8085 -0.0601  0.0554
 1447TIP3    H125900   3.350   4.663   1.577  1.0208  1.2044  1.2079
 1447TIP3    H225901   3.294   4.797   1.534  0.5312  0.2590 -1.2343
 1448TIP3   OH225902   6.555   3.122   0.582 -0.1485  0.1375 -0.0442
 1448TIP3    H125903   6.478   3.069   0.561 -2.0410  3.0219 -1.0046
 1448TIP3    H225904   6.619   3.101   0.513 -1.2542 -0.1171 -1.0188
 1449TIP3   OH225905   5.111   4.803   8.685 -0.2576 -0.2910  0.2232
 1449TIP3    H125906   5.197   4.829   8.654 -1.0381  1.2658 -0.7311
 1449TIP3    H225907   5.111   4.826   8.778  0.8699 -1.7821  0.6404
 1450TIP3   OH225908   3.469   1.455   1.967  0.4587 -0.2001 -0.1095
 1450TIP3    H125909   3.531   1.504   2.020 -1.2706 -0.3792  2.2290
 1450TIP3    H225910   3.463   1.369   2.009  0.1652 -0.9249 -1.5430
 1451TIP3   OH225911   6.852   4.590   8.623  0.1994  0.0485 -0.1494
 1451TIP3    H125912   6.846   4.578   8.528  2.0841 -1.2534 -0.1437
 1451TIP3    H225913   6.761   4.586   8.653 -0.5648  1.6853 -1.9883
 1452TIP3   OH225914   3.993   0.929   0.662 -0.4479  0.4160 -0.0180
 1452TIP3    H125915   4.002   0.949   0.569 -1.5276  1.3960  0.0671
 1452TIP3    H225916   4.012   1.011   0.707 -2.2632  0.6175  0.4784
 1453TIP3   OH225917   6.687   3.545   6.521 -0.1963  0.4331 -0.3231
 1453TIP3    H125918   6.672   3.580   6.609 -1.2520  2.0441 -1.0996
 1453TIP3    H225919   6.680   3.621   6.464 -2.8386 -1.0131 -2.1267
 1454TIP3   OH225920   3.857   0.528   8.273 -0.3141 -0.1548 -0.0834
 1454TIP3    H125921   3.834   0.436   8.260 -0.0420 -0.2350  0.0118
 1454TIP3    H225922   3.843   0.544   8.366 -2.9147  0.5973 -0.5013
 1455TIP3   OH225923   2.921   6.027   1.042 -0.1002 -0.1959 -0.0681
 1455TIP3    H125924   2.957   6.085   0.976  1.3568 -1.0001 -0.0258
 1455TIP3    H225925   2.963   6.055   1.124 -0.7687 -0.1564  0.2690
 1456TIP3   OH225926   6.093   4.156   1.152  0.1724  0.4234  0.2571
 1456TIP3    H125927   6.013   4.118   1.116 -0.3912  1.4081  0.4544
 1456TIP3    H225928   6.140   4.081   1.188 -1.1696 -0.0418  1.1106
 1457TIP3   OH225929   5.675   4.786   6.426 -0.0403  0.3564 -0.4498
 1457TIP3    H125930   5.755   4.737   6.408 -1.3631 -2.6054  1.0492
 1457TIP3    H225931   5.681   4.807   6.519 -1.3967 -0.8214 -0.0606
 1458TIP3   OH225932   2.241   3.440   2.475  0.4086  0.1221 -0.2388
 1458TIP3    H125933   2.184   3.423   2.400 -0.4046  0.0192  0.3821
 1458TIP3    H225934   2.328   3.415   2.445 -0.2214 -2.1238 -0.4173
 1459TIP3   OH225935   6.012   5.437   1.175  0.3851 -0.1863 -0.2232
 1459TIP3    H125936   6.094   5.454   1.221  1.0014 -0.4282 -1.2023
 1459TIP3    H225937   5.947   5.492   1.220  0.9529 -0.4228  0.9201
 1460TIP3   OH225938   0.594   1.060   1.046 -0.5795 -0.0010  0.1086
 1460TIP3    H125939   0.513   1.056   1.097  0.2570  2.4157  1.7623
 1460TIP3    H225940   0.635   1.142   1.071  2.3932 -1.0942 -0.7282
 1461TIP3   OH225941   5.962   0.657   8.032 -0.1182  0.2953  0.3463
 1461TIP3    H125942   5.996   0.747   8.034  0.4852  0.0690  0.4036
 1461TIP3    H225943   6.037   0.603   8.054 -0.1342 -0.3230 -1.0454
 1462TIP3   OH225944   3.763   4.326   8.099  0.4537 -0.0072  0.1460
 1462TIP3    H125945   3.795   4.358   8.183  2.3613 -0.9371 -0.1694
 1462TIP3    H225946   3.840   4.288   8.057 -0.8212 -1.1344 -1.2823
 1463TIP3   OH225947   0.357   3.375   1.100  0.3280  0.0741 -0.4194
 1463TIP3    H125948   0.268   3.358   1.068  0.3917  1.6537 -1.5362
 1463TIP3    H225949   0.373   3.467   1.081  1.3899  0.4472  1.8267
 1464TIP3   OH225950   2.515   1.293   1.675  0.0910 -0.0609 -0.4816
 1464TIP3    H125951   2.500   1.374   1.724  1.7154  0.7669 -1.2513
 1464TIP3    H225952   2.498   1.223   1.738 -1.2891  0.8593  0.2256
 1465TIP3   OH225953   1.173   0.626   1.741  0.4631  0.0998 -0.6044
 1465TIP3    H125954   1.222   0.577   1.675 -1.7922 -1.6746 -1.0890
 1465TIP3    H225955   1.225   0.705   1.756  2.8255 -1.1160 -1.8807
 1466TIP3   OH225956   3.301   1.756   8.213 -0.5810  0.2784 -0.4854
 1466TIP3    H125957   3.335   1.751   8.303  0.9792  1.9009 -0.9254
 1466TIP3    H225958   3.276   1.666   8.192 -4.2377  0.2807  2.6786
 1467TIP3   OH225959   2.477   2.735   6.475 -0.0670  0.4958 -0.1301
 1467TIP3    H125960   2.386   2.732   6.447  0.5050 -0.0400 -2.0665
 1467TIP3    H225961   2.477   2.695   6.562 -1.7221  0.9087  0.0801
 1468TIP3   OH225962   0.421   0.589   7.085  0.2336 -0.0445 -0.4457
 1468TIP3    H125963   0.368   0.639   7.147  0.6799 -0.6827  0.4814
 1468TIP3    H225964   0.458   0.518   7.138  1.8556  0.2719 -1.1149
 1469TIP3   OH225965   5.279   0.782   8.289 -0.3342  0.7059 -0.6762
 1469TIP3    H125966   5.374   0.789   8.299 -0.2521  0.9692 -1.6084
 1469TIP3    H225967   5.266   0.746   8.202 -1.0537 -1.0872  0.1048
 1470TIP3   OH225968   5.873   0.477   0.568  0.0986 -0.4930  0.2196
 1470TIP3    H125969   5.834   0.392   0.585  0.3988 -0.0496  3.7999
 1470TIP3    H225970   5.799   0.537   0.561 -0.0307 -0.6614  0.1377
 1471TIP3   OH225971   5.219   0.087   7.747 -0.1875 -0.2053  0.1166
 1471TIP3    H125972   5.148   0.060   7.805  0.4906 -0.6874  0.7442
 1471TIP3    H225973   5.178   0.098   7.661 -0.5534 -3.2151 -0.1934
 1472TIP3   OH225974   2.642   1.204   1.100 -0.0922  0.5066  0.3653
 1472TIP3    H125975   2.622   1.289   1.061  2.8758  0.0763 -2.5238
 1472TIP3    H225976   2.737   1.206   1.115  0.1820 -2.4564 -0.4044
 1473TIP3   OH225977   5.901   3.901   2.304 -1.0303  0.1547 -0.0683
 1473TIP3    H125978   5.838   3.833   2.281 -1.9436  1.8612 -3.2994
 1473TIP3    H225979   5.847   3.974   2.333 -0.2358  0.3796  0.8868
 1474TIP3   OH225980   1.143   0.694   8.208 -0.7212  0.5315  0.3105
 1474TIP3    H125981   1.144   0.644   8.290  0.0661 -0.3211 -0.1914
 1474TIP3    H225982   1.065   0.663   8.162 -0.8868  0.6346  0.5241
 1475TIP3   OH225983   4.104   0.803   8.173 -0.1666  0.3296  0.0327
 1475TIP3    H125984   4.058   0.816   8.256 -1.0719  2.2969 -0.7093
 1475TIP3    H225985   4.163   0.878   8.166 -1.4844  1.2668 -1.9271
 1476TIP3   OH225986   3.688   3.755   7.486  0.0271 -0.6405  0.3698
 1476TIP3    H125987   3.655   3.842   7.505  0.6165 -0.2740 -0.2238
 1476TIP3    H225988   3.747   3.735   7.558  1.3518  0.2534 -0.4179
 1477TIP3   OH225989   1.140   4.792   0.953 -0.1160 -0.2497  0.0132
 1477TIP3    H125990   1.053   4.817   0.985  0.5021  0.6719  1.0429
 1477TIP3    H225991   1.172   4.870   0.908  0.0267 -0.7184 -0.7094
 1478TIP3   OH225992   0.217   1.702   6.623 -0.6212  0.2442  0.0925
 1478TIP3    H125993   0.209   1.665   6.536 -0.0056 -0.7553  0.4492
 1478TIP3    H225994   0.272   1.640   6.671 -1.6022  0.3610  1.4270
 1479TIP3   OH225995   1.376   1.185   7.897 -0.0510 -0.2387  0.6817
 1479TIP3    H125996   1.282   1.202   7.898 -0.3192 -1.5953  1.1646
 1479TIP3    H225997   1.412   1.254   7.842 -1.7626 -1.7093 -2.6386
 1480TIP3   OH225998   0.234   5.460   6.577 -0.2028 -0.5078 -0.0208
 1480TIP3    H125999   0.327   5.443   6.561 -0.3113 -0.5531 -0.6328
 1480TIP3    H226000   0.202   5.379   6.617 -0.1685 -0.8236 -0.6183
 1481TIP3   OH226001   1.466   2.985   2.581  0.3415  0.2949  0.2635
 1481TIP3    H126002   1.486   3.038   2.658  0.5135 -0.2831  0.6180
 1481TIP3    H226003   1.529   3.015   2.515  0.8281  0.1279  0.6454
 1482TIP3   OH226004   3.633   5.167   7.811 -0.2130  0.0053 -0.6311
 1482TIP3    H126005   3.547   5.144   7.845 -0.4335  1.3254 -0.2068
 1482TIP3    H226006   3.667   5.087   7.773 -0.6804 -1.1156  1.1988
 1483TIP3   OH226007   3.980   5.442   7.066  0.6955  0.1519 -0.4666
 1483TIP3    H126008   3.921   5.493   7.010  0.9645  1.5513  0.4679
 1483TIP3    H226009   4.058   5.427   7.012  1.1270  1.8442 -0.3737
 1484TIP3   OH226010   3.435   6.599   2.366 -0.4751  0.0565 -0.0433
 1484TIP3    H126011   3.445   6.623   2.274 -0.5900  1.2826  0.2418
 1484TIP3    H226012   3.514   6.549   2.387 -0.4242 -0.1925 -0.7848
 1485TIP3   OH226013   4.789   0.803   0.547  0.0855 -0.5048  0.1503
 1485TIP3    H126014   4.794   0.851   0.630  0.6261  0.3652 -0.3701
 1485TIP3    H226015   4.876   0.764   0.537  0.2494 -0.0066 -0.3606
 1486TIP3   OH226016   0.846   3.638   1.287 -0.4988  0.6251  0.2030
 1486TIP3    H126017   0.866   3.689   1.208 -0.6685  1.5022  0.7107
 1486TIP3    H226018   0.820   3.552   1.255  3.3177 -0.4315 -0.5898
 1487TIP3   OH226019   6.663   3.413   0.388  0.2610  0.0643  0.4664
 1487TIP3    H126020   6.695   3.474   0.454  1.9151  0.6068 -0.7960
 1487TIP3    H226021   6.575   3.389   0.419  0.9986  0.2458  2.8711
 1488TIP3   OH226022   1.049   5.446   6.957  0.2757 -0.3121  0.2307
 1488TIP3    H126023   1.012   5.367   6.995 -0.8533 -1.5264 -3.0893
 1488TIP3    H226024   1.134   5.419   6.922  0.0909  0.0283 -0.5148
 1489TIP3   OH226025   1.157   2.038   0.456 -0.5821 -0.3315 -0.0642
 1489TIP3    H126026   1.175   1.983   0.380 -1.4006  0.0396 -0.5414
 1489TIP3    H226027   1.204   2.119   0.439 -0.8734 -0.1996 -0.2321
 1490TIP3   OH226028   2.346   4.866   6.360  0.0284  0.2791 -0.0290
 1490TIP3    H126029   2.391   4.951   6.358  0.0594  0.2555 -0.3777
 1490TIP3    H226030   2.411   4.806   6.397  0.7314 -0.0059 -1.6455
 1491TIP3   OH226031   6.510   3.138   7.169 -0.1734  0.2192  0.0138
 1491TIP3    H126032   6.592   3.097   7.145 -0.3753 -0.9253  1.1416
 1491TIP3    H226033   6.443   3.077   7.138 -0.4358 -1.7623  3.8791
 1492TIP3   OH226034   2.102   5.603   8.372  0.4290  0.2102  0.2571
 1492TIP3    H126035   2.161   5.671   8.405 -0.0316  0.8705 -0.2438
 1492TIP3    H226036   2.041   5.588   8.444  0.2856  0.6281  0.2280
 1493TIP3   OH226037   2.777   0.288   2.325 -0.3484 -0.3603 -0.1067
 1493TIP3    H126038   2.687   0.319   2.310  0.3046  1.0641 -1.3756
 1493TIP3    H226039   2.767   0.216   2.388 -2.3306  0.0119  0.0915
 1494TIP3   OH226040   0.984   5.008   1.864  0.0060 -0.4202 -0.0165
 1494TIP3    H126041   0.919   5.010   1.934 -0.7808 -1.4594 -0.6913
 1494TIP3    H226042   1.057   4.957   1.899  0.2322  0.2679  0.5399
 1495TIP3   OH226043   1.901   1.952   0.341 -0.3066 -0.3419 -0.1079
 1495TIP3    H126044   1.898   2.047   0.353 -1.1664 -0.1404 -1.6444
 1495TIP3    H226045   1.988   1.927   0.370 -0.4304  0.7541  1.3101
 1496TIP3   OH226046   0.322   3.298   6.519 -0.0238 -0.2091 -0.3334
 1496TIP3    H126047   0.379   3.280   6.594  0.3866 -2.1425 -1.0468
 1496TIP3    H226048   0.334   3.391   6.502  0.8423  0.0020  1.2100
 1497TIP3   OH226049   5.623   0.089   0.012  0.6148 -0.7944 -0.2645
 1497TIP3    H126050   5.704   0.077  -0.038 -1.0211 -2.0228 -2.7864
 1497TIP3    H226051   5.595   0.178  -0.008  0.0778 -1.2096 -1.4694
 1498TIP3   OH226052   4.884   3.612   0.538 -0.6492  0.1364  0.8506
 1498TIP3    H126053   4.898   3.704   0.561 -2.6963  0.7894 -0.2282
 1498TIP3    H226054   4.837   3.616   0.455 -1.3567 -1.8675  1.1151
 1499TIP3   OH226055   3.151   4.759   7.580  0.6590 -0.4565  0.2531
 1499TIP3    H126056   3.162   4.666   7.598  2.7241 -0.4107 -0.6029
 1499TIP3    H226057   3.123   4.763   7.488 -1.3350 -0.2838  0.8244
 1500TIP3   OH226058   6.045   0.207   7.773  0.0917 -0.0977  0.3160
 1500TIP3    H126059   6.138   0.215   7.794  0.0973 -0.8375  0.5974
 1500TIP3    H226060   6.009   0.155   7.844  0.3922 -4.0406 -2.1245
 1501TIP3   OH226061   6.032   4.531   8.226  0.2573 -0.2935  0.1722
 1501TIP3    H126062   6.085   4.582   8.164  1.5842  0.8326  2.1171
 1501TIP3    H226063   5.952   4.511   8.178  1.5954 -0.3322 -2.2283
 1502TIP3   OH226064   0.396   4.380   7.003 -0.1535 -0.3963 -0.0652
 1502TIP3    H126065   0.398   4.388   6.908 -0.0285 -1.6754 -0.1985
 1502TIP3    H226066   0.317   4.427   7.030 -0.8200 -0.9914 -0.9339
 1503TIP3   OH226067   1.823   6.613   0.861  0.5849  0.1023  0.7507
 1503TIP3    H126068   1.912   6.629   0.828  0.2376 -1.3736 -1.0675
 1503TIP3    H226069   1.835   6.547   0.929  0.9218  0.1861  0.7779
 1504TIP3   OH226070   6.085   5.901   0.173  0.0175 -0.4296 -0.3463
 1504TIP3    H126071   6.045   5.894   0.086 -0.1598  2.4378 -0.6085
 1504TIP3    H226072   6.172   5.936   0.157 -0.3116  0.9270  0.6280
 1505TIP3   OH226073   4.140   1.392   0.725  0.6465  0.4314 -0.4778
 1505TIP3    H126074   4.093   1.325   0.776  1.6317 -0.2189 -0.3912
 1505TIP3    H226075   4.166   1.346   0.645  2.6725  0.2184  0.2459
 1506TIP3   OH226076   4.164   2.688   7.181 -0.3556  0.2539 -0.3704
 1506TIP3    H126077   4.110   2.767   7.185 -0.5705  0.0665  2.1963
 1506TIP3    H226078   4.173   2.670   7.087 -0.4117  3.2032 -1.0570
 1507TIP3   OH226079   3.991   3.505   1.791 -0.2810 -0.1269 -0.0062
 1507TIP3    H126080   4.055   3.532   1.726 -0.2472  0.9034  0.4388
 1507TIP3    H226081   3.908   3.501   1.743 -0.0369 -0.6478 -0.3950
 1508TIP3   OH226082   5.720   0.074   1.783  0.0942  0.0891 -0.2652
 1508TIP3    H126083   5.653   0.120   1.733 -0.2356  1.5748  1.4661
 1508TIP3    H226084   5.678   0.049   1.865  1.5506  0.8968  0.7920
 1509TIP3   OH226085   2.957   2.775   1.080 -0.3016  0.1123 -0.2837
 1509TIP3    H126086   2.948   2.680   1.088  2.5051 -0.3660 -1.7353
 1509TIP3    H226087   3.051   2.791   1.076 -0.6564  3.0631  0.6494
 1510TIP3   OH226088   0.037   4.096   6.192  0.1257  0.4446 -0.4413
 1510TIP3    H126089   0.105   4.059   6.136  1.2402  0.3900  0.8901
 1510TIP3    H226090   0.063   4.187   6.205  0.2442  0.2914  0.4839
 1511TIP3   OH226091   0.544   0.837   6.382 -1.0635  0.3045 -0.4529
 1511TIP3    H126092   0.486   0.912   6.370 -1.2284  0.3801  0.7164
 1511TIP3    H226093   0.617   0.852   6.322 -0.8545  1.6332  0.1221
 1512TIP3   OH226094   2.980   4.595   0.984  0.8062 -0.2790 -0.5607
 1512TIP3    H126095   2.932   4.529   0.933  0.9062 -0.0516 -0.9501
 1512TIP3    H226096   2.911   4.649   1.022  0.7387 -0.2063 -0.7822
 1513TIP3   OH226097   0.133   5.105   8.031  0.7383  0.1074 -0.1855
 1513TIP3    H126098   0.169   5.039   7.972 -0.0037 -1.2345  0.8161
 1513TIP3    H226099   0.198   5.112   8.101  0.5588  0.0471 -0.0138
 1514TIP3   OH226100   2.735   2.704   6.403 -0.9483  0.8836  0.1839
 1514TIP3    H126101   2.763   2.702   6.312 -1.6802 -2.4722 -0.0991
 1514TIP3    H226102   2.640   2.713   6.399 -0.8996  1.7305  0.6895
 1515TIP3   OH226103   2.812   0.013   2.450  0.0472  0.2823 -0.3563
 1515TIP3    H126104   2.874  -0.017   2.517 -0.9711 -0.4599  0.2841
 1515TIP3    H226105   2.735  -0.043   2.462 -0.2148  0.2503 -2.0586
 1516TIP3   OH226106   5.823   2.880   7.832  0.5178  0.0748  0.3348
 1516TIP3    H126107   5.817   2.925   7.748  2.7716  0.6749  0.4341
 1516TIP3    H226108   5.732   2.869   7.859 -0.2676  0.2017 -1.9823
 1517TIP3   OH226109   2.832   5.679   0.548  0.0037  0.0353 -0.0332
 1517TIP3    H126110   2.801   5.589   0.533 -1.7610  0.8982 -2.2164
 1517TIP3    H226111   2.752   5.731   0.546  1.0463  1.7198  0.7183
 1518TIP3   OH226112   5.974   4.227   0.257 -0.2777  0.5083  0.9020
 1518TIP3    H126113   6.049   4.279   0.227 -1.0162  2.3279  2.0840
 1518TIP3    H226114   5.900   4.261   0.207 -0.2968 -1.8329 -0.8722
 1519TIP3   OH226115   5.011   2.700   1.606 -0.3372  0.1650 -0.0466
 1519TIP3    H126116   4.924   2.683   1.642 -0.0342 -1.3476  0.0256
 1519TIP3    H226117   5.011   2.656   1.520  0.8683 -1.2801  0.6468
 1520TIP3   OH226118   6.821   1.287   7.422 -0.8572  0.1276  0.0474
 1520TIP3    H126119   6.756   1.220   7.403 -0.2927  0.0131 -1.6653
 1520TIP3    H226120   6.784   1.367   7.387  0.0550 -0.0111 -1.3034
 1521TIP3   OH226121   3.974   5.782   1.120  0.0779  0.1925 -0.5385
 1521TIP3    H126122   4.046   5.780   1.056  1.1054 -0.3328  0.6021
 1521TIP3    H226123   3.960   5.875   1.137  0.3238  0.3092 -0.9393
 1522TIP3   OH226124   0.190   5.848   6.377  0.0769 -0.3219  0.4288
 1522TIP3    H126125   0.160   5.760   6.400 -0.0347 -1.3217 -3.0078
 1522TIP3    H226126   0.119   5.885   6.325  1.2988  0.6087 -0.6623
 1523TIP3   OH226127   3.905   1.610   8.369  0.1838 -0.1320 -0.3705
 1523TIP3    H126128   3.880   1.677   8.433  2.0861 -0.3936  0.7058
 1523TIP3    H226129   3.924   1.658   8.289 -1.8655  0.2358 -0.6978
 1524TIP3   OH226130   5.203   1.823   2.059  0.1786 -0.1136 -0.0846
 1524TIP3    H126131   5.129   1.865   2.015  0.8134 -0.3010 -1.3915
 1524TIP3    H226132   5.183   1.730   2.058  1.0976 -0.3478 -1.8858
 1525TIP3   OH226133   2.979   0.853   1.932  0.1717 -0.1055 -0.3408
 1525TIP3    H126134   3.068   0.872   1.902  0.4812 -2.8094 -1.4290
 1525TIP3    H226135   2.988   0.832   2.025  0.0371  3.0512  0.4940
 1526TIP3   OH226136   3.316   0.926   0.635  0.1758 -0.2504 -0.5266
 1526TIP3    H126137   3.326   0.832   0.650 -0.3208 -0.2761 -0.3529
 1526TIP3    H226138   3.307   0.964   0.723 -1.1372 -0.2177 -0.6582
 1527TIP3   OH226139   0.737   2.682   7.117 -0.3108  0.3571 -0.1956
 1527TIP3    H126140   0.720   2.653   7.027 -1.4457  0.4916 -0.0328
 1527TIP3    H226141   0.670   2.639   7.169 -1.2989  2.3052  0.2257
 1528TIP3   OH226142   3.698   0.623   0.690 -0.1854  0.0219  0.4662
 1528TIP3    H126143   3.730   0.533   0.686 -0.6187 -0.1465  0.7034
 1528TIP3    H226144   3.777   0.677   0.690  0.0453 -0.2990 -0.9480
 1529TIP3   OH226145   4.911   3.043   1.827  0.2831  0.7872  0.2295
 1529TIP3    H126146   4.859   3.122   1.812 -2.2266 -1.0216 -1.2670
 1529TIP3    H226147   4.976   3.043   1.757 -0.2684  1.0989 -0.2885
 1530TIP3   OH226148   3.094   3.463   0.177 -0.0488 -0.2015  0.2530
 1530TIP3    H126149   3.179   3.428   0.151 -0.1638 -1.7497  1.7842
 1530TIP3    H226150   3.115   3.537   0.233  0.2276  0.6540 -0.9333
 1531TIP3   OH226151   0.176   1.620   0.433 -0.2015 -0.1222 -0.2155
 1531TIP3    H126152   0.128   1.682   0.378 -0.2509  0.1205  0.0939
 1531TIP3    H226153   0.226   1.676   0.493  1.7059 -0.3421 -1.5430
 1532TIP3   OH226154   5.033   5.775   8.432 -0.2661  0.3818 -0.3786
 1532TIP3    H126155   5.067   5.845   8.487  0.2773  0.5730 -0.9487
 1532TIP3    H226156   4.986   5.717   8.493  1.7240 -0.3106  0.5987
 1533TIP3   OH226157   3.898   0.137   1.454  0.1969  0.0111  0.1202
 1533TIP3    H126158   3.807   0.114   1.436  0.4200 -0.6016 -0.2811
 1533TIP3    H226159   3.948   0.063   1.420  0.9092  0.8220 -0.6474
 1534TIP3   OH226160   3.552   4.769   8.640 -0.4564  0.0500  0.4119
 1534TIP3    H126161   3.606   4.711   8.693  1.5352  0.3556 -1.1530
 1534TIP3    H226162   3.519   4.714   8.569 -0.5751  0.2907  0.2776
 1535TIP3   OH226163   4.165   3.421   7.540 -0.3027 -0.0978  0.0665
 1535TIP3    H126164   4.129   3.414   7.629 -0.0268 -0.2702  0.1664
 1535TIP3    H226165   4.088   3.431   7.484 -0.4715  0.1591  0.3396
 1536TIP3   OH226166   0.937   1.454   7.734 -0.0811 -0.1110  0.0200
 1536TIP3    H126167   0.907   1.364   7.747  1.8878 -0.6154  1.6731
 1536TIP3    H226168   1.032   1.445   7.723  0.1110  1.7457 -0.0272
 1537TIP3   OH226169   5.842   0.013   8.554  0.4861  0.1952  0.0628
 1537TIP3    H126170   5.847  -0.069   8.603  0.7198 -0.0088 -0.3003
 1537TIP3    H226171   5.901   0.073   8.600 -0.2668  0.4042  0.7853
 1538TIP3   OH226172   2.840   3.991   7.953 -0.1308 -0.3648 -0.0946
 1538TIP3    H126173   2.907   3.949   7.899  1.1768  0.6574  0.6818
 1538TIP3    H226174   2.809   4.064   7.900 -0.7323 -0.9077 -0.5022
 1539TIP3   OH226175   3.480   3.337   7.864 -0.1967 -0.1168 -0.2304
 1539TIP3    H126176   3.425   3.403   7.907 -1.3536 -0.1630 -1.5565
 1539TIP3    H226177   3.474   3.260   7.921 -1.7888 -0.2164 -0.4878
 1540TIP3   OH226178   1.411   5.650   1.096 -0.2262 -0.1798 -0.6901
 1540TIP3    H126179   1.459   5.604   1.027 -1.3648 -0.8097 -1.0904
 1540TIP3    H226180   1.335   5.594   1.114 -0.0265  0.0359  0.9901
 1541TIP3   OH226181   2.235   6.556   0.573 -0.1214 -0.5767  0.4043
 1541TIP3    H126182   2.255   6.465   0.552 -0.8251 -0.6117 -0.1388
 1541TIP3    H226183   2.266   6.606   0.497 -1.2212 -0.5357 -0.0275
 1542TIP3   OH226184   5.959   4.721   0.015  0.0524  0.0572 -0.3706
 1542TIP3    H126185   5.919   4.744  -0.069 -1.6258  0.1067  0.3830
 1542TIP3    H226186   6.053   4.720  -0.001 -0.2429  0.0250 -2.2484
 1543TIP3   OH226187   3.187   5.903   0.893 -0.2748  0.6639  0.8978
 1543TIP3    H126188   3.228   5.821   0.865 -0.1897  1.0421 -0.1001
 1543TIP3    H226189   3.102   5.903   0.850 -1.5455 -0.2569  3.1827
 1544TIP3   OH226190   1.465   0.593   7.064 -0.8530 -0.1818  0.0793
 1544TIP3    H126191   1.476   0.565   6.973  0.8557  1.6637 -0.3610
 1544TIP3    H226192   1.378   0.561   7.089 -0.9674 -1.5594 -1.8704
 1545TIP3   OH226193   6.154   1.988   1.821  0.2479 -0.4918 -0.2617
 1545TIP3    H126194   6.124   2.072   1.856 -0.2302  0.2339 -2.3262
 1545TIP3    H226195   6.076   1.947   1.786  0.6076 -1.5007  0.0895
 1546TIP3   OH226196   3.278   1.485   8.236  0.1048 -0.1192  0.0205
 1546TIP3    H126197   3.370   1.461   8.226 -0.3607 -1.4030 -1.6701
 1546TIP3    H226198   3.257   1.465   8.327  0.8169 -2.4274 -0.2805
 1547TIP3   OH226199   0.844   3.271   6.805 -0.5260 -0.3873 -0.1235
 1547TIP3    H126200   0.777   3.203   6.807 -1.3986  0.4210 -0.8787
 1547TIP3    H226201   0.802   3.345   6.761  1.2543 -0.2878 -1.8031
 1548TIP3   OH226202   0.762   0.410   0.958 -0.2612 -0.0839  0.4460
 1548TIP3    H126203   0.733   0.377   1.043  1.1551 -0.6502  0.7337
 1548TIP3    H226204   0.839   0.358   0.937 -0.8138 -0.2150 -1.3885
 1549TIP3   OH226205   6.554   0.895   7.412 -0.5982  0.5922 -0.6122
 1549TIP3    H126206   6.597   0.967   7.458  1.8653 -1.0717 -0.0873
 1549TIP3    H226207   6.488   0.864   7.473  2.0780 -1.0582  1.6705
 1550TIP3   OH226208   0.507   3.350   7.543 -0.3967  0.5063 -0.1124
 1550TIP3    H126209   0.545   3.279   7.491 -1.0435  0.7981 -0.9955
 1550TIP3    H226210   0.579   3.377   7.601  0.8266  1.1379 -1.8310
 1551TIP3   OH226211   0.062   6.545   1.031 -0.2433 -0.5862 -0.3610
 1551TIP3    H126212   0.036   6.494   0.954 -0.6981 -0.5555 -0.2278
 1551TIP3    H226213   0.136   6.496   1.068 -0.2734 -0.8096 -0.5948
 1552TIP3   OH226214   1.773   5.036   2.219  0.3271  0.1900 -0.0672
 1552TIP3    H126215   1.714   5.097   2.175 -1.2140  0.9347  2.7590
 1552TIP3    H226216   1.714   4.967   2.252  1.3794 -0.3246  0.7834
 1553TIP3   OH226217   0.440   2.212   0.923  0.4357  0.4822 -0.0222
 1553TIP3    H126218   0.497   2.282   0.890 -0.7398  0.3317 -2.5550
 1553TIP3    H226219   0.469   2.133   0.878 -0.2621 -0.0681  0.4615
 1554TIP3   OH226220   4.185   4.194   0.174  0.6079 -0.2182  0.7246
 1554TIP3    H126221   4.222   4.231   0.254  0.0329  0.1712  0.8172
 1554TIP3    H226222   4.103   4.242   0.161  1.0433  0.2217 -0.4923
 1555TIP3   OH226223   1.273   4.313   0.468 -0.5977 -0.0260  0.0732
 1555TIP3    H126224   1.278   4.351   0.380  0.6591  1.3005  0.6762
 1555TIP3    H226225   1.295   4.385   0.527 -0.8615 -1.0314  1.4518
 1556TIP3   OH226226   5.608   0.487   8.394 -0.1320 -0.7758  0.1493
 1556TIP3    H126227   5.673   0.550   8.360 -1.7607 -0.4020 -2.6331
 1556TIP3    H226228   5.555   0.538   8.455  2.7960 -1.4225  3.6066
 1557TIP3   OH226229   6.777   6.596   6.610  0.0430  0.1140 -0.1981
 1557TIP3    H126230   6.684   6.606   6.632  0.1110  0.6697 -0.1566
 1557TIP3    H226231   6.788   6.502   6.596 -0.2560 -0.0998  0.9678
 1558TIP3   OH226232   0.669   6.024   1.671  0.0166  0.0121 -0.2391
 1558TIP3    H126233   0.688   6.032   1.764 -0.5670 -2.0774  0.0977
 1558TIP3    H226234   0.579   6.057   1.662  0.2820  0.7771 -0.1908
 1559TIP3   OH226235   1.981   0.307   8.191 -0.2938  0.0104  0.0654
 1559TIP3    H126236   1.949   0.346   8.272  1.0920  1.1485  0.1121
 1559TIP3    H226237   1.904   0.303   8.134 -0.9286  0.7832  0.8454
 1560TIP3   OH226238   6.667   2.598   1.400 -0.2916  0.0158  0.1810
 1560TIP3    H126239   6.700   2.619   1.312  1.2056 -1.7665  0.2618
 1560TIP3    H226240   6.676   2.681   1.449 -0.5161  0.8450 -1.1353
 1561TIP3   OH226241   1.549   2.578   7.080  0.5864  0.5008  0.7048
 1561TIP3    H126242   1.553   2.511   7.012  0.4695  0.8879  0.3045
 1561TIP3    H226243   1.533   2.660   7.031 -0.5326  0.6423  1.2830
 1562TIP3   OH226244   0.333   4.593   7.398  0.3375  0.3521  0.9992
 1562TIP3    H126245   0.244   4.557   7.406 -0.4893  2.4887  2.1137
 1562TIP3    H226246   0.337   4.627   7.309  0.3978 -0.5805  0.6327
 1563TIP3   OH226247   1.747   5.690   8.350  0.2788  0.7828 -0.5267
 1563TIP3    H126248   1.826   5.655   8.391 -0.4780  1.1509  1.3656
 1563TIP3    H226249   1.739   5.642   8.267  1.2836 -0.8222  0.2558
 1564TIP3   OH226250   3.384   4.894   7.637  0.0624 -0.1389  0.2464
 1564TIP3    H126251   3.386   4.929   7.726 -0.6092 -1.5610  0.8440
 1564TIP3    H226252   3.331   4.814   7.643 -0.9936  0.3553 -1.6574
 1565TIP3   OH226253   5.635   1.740   0.183  0.1395  0.4892 -0.3762
 1565TIP3    H126254   5.560   1.703   0.228  0.0474  2.0198  0.8166
 1565TIP3    H226255   5.597   1.799   0.118  0.3004  0.4030 -0.5494
 1566TIP3   OH226256   3.467   3.603   8.374 -0.0480  0.1757 -0.1709
 1566TIP3    H126257   3.401   3.673   8.375  0.0468  0.2648  0.2160
 1566TIP3    H226258   3.489   3.592   8.282  0.5661  1.2479 -0.1687
 1567TIP3   OH226259   5.055   3.583   7.469  0.0675 -0.6338  0.1252
 1567TIP3    H126260   5.039   3.675   7.490  0.2111 -0.0888 -1.9561
 1567TIP3    H226261   5.145   3.567   7.496 -0.8724 -1.1151  3.3901
 1568TIP3   OH226262   1.372   2.042   7.250  0.0973 -0.6073  0.0994
 1568TIP3    H126263   1.431   2.117   7.241 -0.3454 -0.3991 -1.5437
 1568TIP3    H226264   1.424   1.967   7.222  0.2860 -0.7974  0.9389
 1569TIP3   OH226265   1.777   3.660   8.239 -0.1163 -1.0849  0.5383
 1569TIP3    H126266   1.764   3.755   8.237  0.9401 -0.8934  1.3504
 1569TIP3    H226267   1.695   3.624   8.207 -0.1725  0.1144 -0.7979
 1570TIP3   OH226268   6.547   5.343   0.413 -0.5092 -0.3055 -0.7974
 1570TIP3    H126269   6.569   5.356   0.505  0.5361 -0.4545 -1.0037
 1570TIP3    H226270   6.504   5.258   0.410  0.0676 -0.6144 -0.5236
 1571TIP3   OH226271   1.074   5.916   6.948 -0.5260  0.2065 -0.2744
 1571TIP3    H126272   1.131   5.882   7.017 -2.4509  0.9991  1.7968
 1571TIP3    H226273   1.089   5.857   6.874  1.3391 -0.9019  0.9027
 1572TIP3   OH226274   2.408   2.816   0.511 -0.0528  0.2688  0.0064
 1572TIP3    H126275   2.426   2.899   0.556 -0.7667  2.1413 -2.8281
 1572TIP3    H226276   2.316   2.823   0.483  0.0304 -1.2320 -0.7744
 1573TIP3   OH226277   3.358   0.301   7.144 -0.3373  0.5345  0.2607
 1573TIP3    H126278   3.380   0.373   7.204  0.2960  0.4794  0.1030
 1573TIP3    H226279   3.263   0.302   7.140 -0.3533  1.0968  0.5919
 1574TIP3   OH226280   3.300   6.425   0.086 -0.4902 -0.1834 -0.0047
 1574TIP3    H126281   3.375   6.434   0.027 -0.3572 -0.5830  0.0988
 1574TIP3    H226282   3.234   6.378   0.035 -1.8652  2.7417 -1.1623
 1575TIP3   OH226283   6.368   2.608   7.791 -0.1199  0.5636  0.2588
 1575TIP3    H126284   6.322   2.671   7.735 -0.9542  0.4737  0.8209
 1575TIP3    H226285   6.345   2.522   7.755 -1.1165  0.4758  1.0360
 1576TIP3   OH226286   2.042   4.673   0.549  0.1317 -0.0803  0.3684
 1576TIP3    H126287   1.977   4.732   0.511 -0.4977 -1.0275 -0.0556
 1576TIP3    H226288   2.103   4.731   0.594  0.4735  1.0349 -1.4301
 1577TIP3   OH226289   4.017   0.366   0.064  0.3509 -0.1364  0.3458
 1577TIP3    H126290   4.053   0.331  -0.018 -1.1593 -1.1809  0.0763
 1577TIP3    H226291   4.066   0.321   0.133  2.2718  1.4213  0.0955
 1578TIP3   OH226292   0.166   2.977   1.163 -0.1638  0.1198  0.6648
 1578TIP3    H126293   0.238   3.017   1.212  0.5654 -0.8431  0.3915
 1578TIP3    H226294   0.209   2.927   1.093 -1.1730  1.2627 -0.8312
 1579TIP3   OH226295   3.041   0.962   7.903  0.8070 -0.5849  0.4035
 1579TIP3    H126296   3.036   1.016   7.982 -0.5072 -0.1163  0.0319
 1579TIP3    H226297   2.976   1.000   7.844  1.4084 -1.2441 -0.7129
 1580TIP3   OH226298   5.709   4.922   7.729  0.3061 -0.0992 -0.0833
 1580TIP3    H126299   5.793   4.876   7.719  1.3254  1.8234 -1.0601
 1580TIP3    H226300   5.733   5.015   7.727 -1.6993  0.5101  1.3157
 1581TIP3   OH226301   2.574   5.191   8.100 -0.3749  0.0665  0.2815
 1581TIP3    H126302   2.595   5.271   8.149  0.1528  0.0847  0.0317
 1581TIP3    H226303   2.542   5.130   8.167  2.9635 -0.9044  1.2107
 1582TIP3   OH226304   3.599   6.299   7.405  0.0383 -1.0806  0.7369
 1582TIP3    H126305   3.561   6.386   7.397  0.6783 -0.7878  0.8543
 1582TIP3    H226306   3.680   6.312   7.453  0.1518 -1.7409  0.7385
 1583TIP3   OH226307   6.072   4.873   8.174 -0.2466 -0.2216  0.3560
 1583TIP3    H126308   6.149   4.924   8.150 -1.0988  0.9560  0.0276
 1583TIP3    H226309   6.093   4.783   8.146 -0.0220  0.5290 -2.1582
 1584TIP3   OH226310   1.318   4.604   1.659  0.2421 -0.0831  0.4804
 1584TIP3    H126311   1.351   4.571   1.742  0.3336 -0.0117  0.4735
 1584TIP3    H226312   1.283   4.527   1.614  0.2214 -0.1267  0.5714
 1585TIP3   OH226313   6.628   4.205   1.530 -0.1085 -0.2540  0.2472
 1585TIP3    H126314   6.574   4.284   1.538  0.0546 -0.2819  2.4248
 1585TIP3    H226315   6.565   4.133   1.526 -0.2474 -0.0827 -0.8145
 1586TIP3   OH226316   6.844   1.728   0.607 -0.5390 -0.1661  0.4498
 1586TIP3    H126317   6.797   1.803   0.571  1.5189  1.4359  0.8654
 1586TIP3    H226318   6.936   1.748   0.591  0.1511 -1.9426  1.8426
 1587TIP3   OH226319   6.078   1.308   1.582  0.2187  0.3980  0.2855
 1587TIP3    H126320   6.167   1.343   1.585  0.9612 -1.4483  1.9920
 1587TIP3    H226321   6.030   1.357   1.648 -0.1876  1.6615 -0.9011
 1588TIP3   OH226322   3.180   0.335   0.364 -0.4456 -0.6132 -0.3257
 1588TIP3    H126323   3.204   0.256   0.411 -0.3950 -1.5750 -1.8862
 1588TIP3    H226324   3.181   0.309   0.272  0.4804  1.4300 -0.9546
 1589TIP3   OH226325   0.970   2.837   1.226  0.1834 -0.2290 -0.3336
 1589TIP3    H126326   0.902   2.902   1.206 -1.9174 -2.3297 -0.4773
 1589TIP3    H226327   1.011   2.869   1.306 -0.4645  1.4885 -0.6457
 1590TIP3   OH226328   5.359   1.218   7.979 -0.0903  0.0255  0.3513
 1590TIP3    H126329   5.410   1.137   7.973  1.0566  0.8028 -1.3625
 1590TIP3    H226330   5.408   1.272   8.040  0.1960  0.1097  0.0538
 1591TIP3   OH226331   0.026   6.718   8.524  0.3295 -0.6482  0.4496
 1591TIP3    H126332   0.102   6.707   8.467  1.0017  0.2337  1.1315
 1591TIP3    H226333   0.015   6.813   8.530 -1.1017 -0.7748  0.0290
 1592TIP3   OH226334   3.358   2.851   2.438 -0.1768 -0.2678  0.0971
 1592TIP3    H126335   3.272   2.892   2.432 -0.3616 -0.6186  0.3086
 1592TIP3    H226336   3.420   2.920   2.416 -0.3948  0.4906  1.7074
 1593TIP3   OH226337   1.808   4.874   8.103  0.0330 -0.1323 -0.4556
 1593TIP3    H126338   1.856   4.951   8.134  1.0525  0.2070 -2.7438
 1593TIP3    H226339   1.758   4.906   8.028 -1.4624 -1.1976  0.0297
 1594TIP3   OH226340   1.719   5.503   1.140  0.5612  0.1813  0.0861
 1594TIP3    H126341   1.659   5.527   1.069  2.8145 -1.0739 -2.4314
 1594TIP3    H226342   1.670   5.439   1.192 -0.9532  0.6791 -0.6501
 1595TIP3   OH226343   1.522   4.170   0.458  0.2863 -0.0737 -0.1107
 1595TIP3    H126344   1.503   4.211   0.542 -0.1825 -1.2239  0.3634
 1595TIP3    H226345   1.462   4.213   0.396  2.7638  3.0789 -0.6055
 1596TIP3   OH226346   5.838   5.746   7.093 -0.1678  0.3310 -0.4593
 1596TIP3    H126347   5.743   5.739   7.100 -0.2727  1.5957 -0.4101
 1596TIP3    H226348   5.869   5.655   7.094 -1.1744 -0.0785  2.2129
 1597TIP3   OH226349   0.256   1.281   7.802 -0.0386  0.2534  0.1088
 1597TIP3    H126350   0.312   1.217   7.758 -1.3034  0.3288 -1.7442
 1597TIP3    H226351   0.190   1.229   7.846  0.5345  0.2224  0.9581
 1598TIP3   OH226352   5.801   0.323   2.713 -0.9621 -0.6226 -0.4541
 1598TIP3    H126353   5.756   0.407   2.705 -1.2990 -0.6840  0.6740
 1598TIP3    H226354   5.886   0.338   2.673 -1.1110  0.1827 -0.4911
 1599TIP3   OH226355   4.163   4.592   6.734 -0.5140  0.3328 -0.6876
 1599TIP3    H126356   4.140   4.501   6.750  0.3676 -0.1025 -1.7454
 1599TIP3    H226357   4.242   4.606   6.787 -0.5075  0.4149 -0.7192
 1600TIP3   OH226358   6.795   6.800   1.086 -0.2499 -0.0050  0.1829
 1600TIP3    H126359   6.851   6.722   1.089  0.8877  0.8170  1.7018
 1600TIP3    H226360   6.849   6.866   1.043 -1.7505 -0.3749 -2.5211
 1601TIP3   OH226361   3.058   3.900   7.059 -0.4116 -0.1119 -0.4518
 1601TIP3    H126362   3.065   3.973   6.997 -0.2960 -0.3889 -0.7726
 1601TIP3    H226363   3.130   3.912   7.120 -0.9958  0.6071  0.1122
 1602TIP3   OH226364   5.978   3.155   6.366  0.1798  0.5114 -0.3984
 1602TIP3    H126365   6.001   3.070   6.327  0.4245  0.3767  0.0361
 1602TIP3    H226366   5.888   3.144   6.396  1.2806 -0.8544  2.9452
 1603TIP3   OH226367   3.211   0.576   1.388  0.4856  0.1091 -0.3504
 1603TIP3    H126368   3.139   0.611   1.335 -0.2094  1.1693  1.2009
 1603TIP3    H226369   3.190   0.484   1.400 -1.0077  0.5195  0.5756
 1604TIP3   OH226370   0.150   1.473   6.440  0.0394 -0.7894 -0.5386
 1604TIP3    H126371   0.212   1.504   6.374 -0.8516  0.1312 -0.9709
 1604TIP3    H226372   0.198   1.404   6.487  2.6636  2.1315  1.4334
 1605TIP3   OH226373   1.403   4.651   1.405 -0.0159 -0.3217 -0.1771
 1605TIP3    H126374   1.310   4.673   1.395  0.1643  0.9164  0.5746
 1605TIP3    H226375   1.419   4.660   1.499  0.7388 -1.0890 -0.2195
 1606TIP3   OH226376   4.255   4.292   7.437  0.1511  0.1679 -0.7049
 1606TIP3    H126377   4.324   4.311   7.500  1.3923  0.1749 -2.0059
 1606TIP3    H226378   4.300   4.288   7.352 -1.4192 -0.0074 -1.5797
 1607TIP3   OH226379   3.685   2.505   8.382  0.0322  0.3718 -0.5660
 1607TIP3    H126380   3.632   2.576   8.419  0.6243 -0.5213  2.2678
 1607TIP3    H226381   3.775   2.530   8.402  0.5537  0.5599 -2.9019
 1608TIP3   OH226382   1.537   3.008   0.434  0.4996 -0.1167 -0.3317
 1608TIP3    H126383   1.506   3.052   0.355  0.8793  0.8435  0.0308
 1608TIP3    H226384   1.458   2.998   0.488  0.2504 -0.7218 -0.8026
 1609TIP3   OH226385   0.401   6.547   0.663  0.2552  0.0784 -0.3493
 1609TIP3    H126386   0.374   6.623   0.611  0.5738  1.2843  1.1608
 1609TIP3    H226387   0.491   6.567   0.688 -0.7885  1.0985  3.1684
 1610TIP3   OH226388   2.199   2.320   6.985 -0.1440 -0.4639  0.2264
 1610TIP3    H126389   2.272   2.352   6.931  0.4258  0.9777  1.7591
 1610TIP3    H226390   2.206   2.370   7.066 -3.2322  0.2078  0.2126
 1611TIP3   OH226391   2.943   3.733   1.204 -0.0532 -0.2081 -0.6591
 1611TIP3    H126392   2.881   3.726   1.277  0.7108 -1.4985 -0.0987
 1611TIP3    H226393   3.008   3.665   1.221  1.6880  1.2788 -1.1036
 1612TIP3   OH226394   2.817   6.339   7.473 -0.1292 -0.3496  0.7639
 1612TIP3    H126395   2.732   6.363   7.510  0.1696 -0.0731  1.2778
 1612TIP3    H226396   2.870   6.316   7.549  0.1073 -1.0080  0.4086
 1613TIP3   OH226397   1.606   0.119   6.824  0.3715 -0.1914 -0.3134
 1613TIP3    H126398   1.535   0.077   6.872  0.9866 -0.0377  0.7715
 1613TIP3    H226399   1.590   0.096   6.732 -0.1431 -1.5272  0.0881
 1614TIP3   OH226400   4.536   6.224   0.676  0.0263  0.4769 -0.5450
 1614TIP3    H126401   4.477   6.151   0.697 -0.5280  0.1196 -3.0072
 1614TIP3    H226402   4.484   6.303   0.694  0.0175  0.2405  0.4932
 1615TIP3   OH226403   2.992   1.900   0.193 -0.6122 -0.2741 -0.5233
 1615TIP3    H126404   3.075   1.918   0.237 -2.2191  3.0517  1.5444
 1615TIP3    H226405   2.932   1.877   0.264 -1.8926 -0.8450 -1.7491
 1616TIP3   OH226406   2.925   1.267   1.683  0.1141  0.1089 -0.3469
 1616TIP3    H126407   2.974   1.346   1.707 -0.6096  1.0277 -1.7555
 1616TIP3    H226408   2.833   1.295   1.683 -0.1913 -0.8832 -0.2994
 1617TIP3   OH226409   1.596   0.841   6.959 -0.0861 -0.0688 -0.4755
 1617TIP3    H126410   1.567   0.930   6.943 -0.1125  0.1551  0.6872
 1617TIP3    H226411   1.524   0.802   7.010  0.1870 -0.5654 -0.4656
 1618TIP3   OH226412   2.411   2.709   1.241 -0.6010  1.0018  0.0255
 1618TIP3    H126413   2.341   2.757   1.286 -1.9725 -1.3677  0.5760
 1618TIP3    H226414   2.367   2.662   1.170  1.0068  2.0079 -1.7294
 1619TIP3   OH226415   0.386   1.392   2.439 -0.3209 -0.5960  0.0216
 1619TIP3    H126416   0.434   1.357   2.514 -0.7010  0.1866  0.6350
 1619TIP3    H226417   0.354   1.314   2.393  2.6761 -1.2604 -1.2138
 1620TIP3   OH226418   4.163   1.289   1.026  0.0631  0.4028  0.1075
 1620TIP3    H126419   4.251   1.319   1.047  0.1293 -1.6972  3.7040
 1620TIP3    H226420   4.176   1.212   0.970  0.6029 -0.2727  1.1386
 1621TIP3   OH226421   5.852   3.512   8.545 -0.5306  0.1957 -0.0015
 1621TIP3    H126422   5.826   3.442   8.486  0.6775 -0.1550 -0.1577
 1621TIP3    H226423   5.944   3.529   8.523 -0.1653  0.3255  1.4853
 1622TIP3   OH226424   3.162   1.663   0.489  0.0831 -0.3074  0.5090
 1622TIP3    H126425   3.109   1.620   0.422  2.8287  0.0819 -2.1290
 1622TIP3    H226426   3.126   1.752   0.494  0.3857 -0.0542 -1.2119
 1623TIP3   OH226427   4.879   3.341   1.798  0.2851  0.0928 -0.3654
 1623TIP3    H126428   4.862   3.406   1.866 -2.1415 -1.3621  0.5507
 1623TIP3    H226429   4.808   3.353   1.735  0.4794 -0.8954 -0.7920
 1624TIP3   OH226430   0.908   5.197   2.282  0.1797 -0.0188 -0.2811
 1624TIP3    H126431   0.871   5.284   2.300  0.8324 -0.1099  1.8465
 1624TIP3    H226432   0.842   5.153   2.229 -1.1489  1.0445  0.4200
 1625TIP3   OH226433   0.765   2.119   2.369 -0.0310  0.5408  0.1334
 1625TIP3    H126434   0.802   2.032   2.358  0.4444  0.7578  0.0190
 1625TIP3    H226435   0.678   2.114   2.328 -0.8131 -0.4322  1.8068
 1626TIP3   OH226436   1.658   1.632   2.055  0.0114 -0.0454  0.4919
 1626TIP3    H126437   1.683   1.702   1.994 -0.6867  1.1080  1.4905
 1626TIP3    H226438   1.570   1.656   2.084 -0.9051 -2.1942 -0.3287
 1627TIP3   OH226439   0.999   0.491   7.838  0.4732 -0.1307  0.2379
 1627TIP3    H126440   0.921   0.463   7.789  0.9136 -1.8647  0.4518
 1627TIP3    H226441   1.053   0.537   7.773  0.7767 -1.8718 -0.8104
 1628TIP3   OH226442   1.664   5.072   6.543  0.0569 -0.4912 -0.0971
 1628TIP3    H126443   1.714   5.142   6.583  0.9826 -1.4072  0.3960
 1628TIP3    H226444   1.729   5.011   6.508 -0.7183 -0.9840 -0.7442
 1629TIP3   OH226445   2.542   3.661   8.394 -0.0066  0.4789  0.2635
 1629TIP3    H126446   2.550   3.648   8.489 -3.2249 -0.3920  0.5561
 1629TIP3    H226447   2.601   3.598   8.355 -0.3353 -0.7984  1.7445
 1630TIP3   OH226448   0.047   5.949   1.415 -0.1889  0.0288 -0.0553
 1630TIP3    H126449   0.002   6.012   1.359 -1.4441 -1.0845 -0.3701
 1630TIP3    H226450  -0.015   5.876   1.422  1.1330 -1.0804  0.4358
 1631TIP3   OH226451   1.689   0.827   0.893 -0.4692 -0.0565  0.2888
 1631TIP3    H126452   1.656   0.916   0.883  1.0628  0.5454  0.2769
 1631TIP3    H226453   1.665   0.801   0.982 -0.3904  0.6123  0.5077
 1632TIP3   OH226454   0.801   4.098   0.233  0.3099  0.5309  0.4069
 1632TIP3    H126455   0.720   4.061   0.199  1.7010 -1.0886 -1.3908
 1632TIP3    H226456   0.806   4.067   0.323 -0.6660 -0.0670  0.2674
 1633TIP3   OH226457   2.550   3.996   1.849 -0.0360  0.0787  0.1011
 1633TIP3    H126458   2.494   4.061   1.891  0.6196  0.7403 -0.0180
 1633TIP3    H226459   2.625   4.046   1.817  0.2575 -0.6672 -0.4160
 1634TIP3   OH226460   0.052   4.782   0.381 -0.0036 -0.0136 -0.2044
 1634TIP3    H126461   0.100   4.863   0.361  2.6165 -1.4209 -0.0761
 1634TIP3    H226462   0.007   4.801   0.463  0.6952  1.2772 -0.0874
 1635TIP3   OH226463   6.238   2.784   8.115  0.1449 -0.0085 -0.0494
 1635TIP3    H126464   6.253   2.689   8.125 -0.7822 -0.5378 -2.7603
 1635TIP3    H226465   6.318   2.816   8.073  0.9891  0.7268  1.9978
 1636TIP3   OH226466   5.284   4.116   8.069 -0.2424 -0.0474 -0.3616
 1636TIP3    H126467   5.244   4.089   8.152  1.3476  0.4009  0.6126
 1636TIP3    H226468   5.225   4.183   8.034 -1.5737 -1.1083 -0.2395
 1637TIP3   OH226469   0.812   0.474   8.383  0.1247  0.8278  0.0762
 1637TIP3    H126470   0.904   0.493   8.364  0.0791 -0.3811 -1.6175
 1637TIP3    H226471   0.782   0.424   8.307 -0.4135 -3.6975  2.9207
 1638TIP3   OH226472   1.756   0.175   1.742  0.2049 -0.3221 -0.4775
 1638TIP3    H126473   1.818   0.216   1.802  1.3823  0.2637 -2.0132
 1638TIP3    H226474   1.730   0.093   1.785 -0.7780  1.1051  1.8213
 1639TIP3   OH226475   5.727   0.166   8.021 -0.3634 -0.3155  0.6458
 1639TIP3    H126476   5.814   0.128   8.004  0.5723  1.2665  1.6794
 1639TIP3    H226477   5.741   0.225   8.095 -2.0358  1.0499 -0.0817
 1640TIP3   OH226478   1.178   3.788   8.521  0.3326  0.7003  0.4066
 1640TIP3    H126479   1.262   3.781   8.566 -0.1918  0.7923  1.4407
 1640TIP3    H226480   1.115   3.808   8.591 -0.5182  0.8110 -0.3705
 1641TIP3   OH226481   3.433   5.804   7.832 -0.1782  0.3816  0.0673
 1641TIP3    H126482   3.376   5.731   7.858 -0.4701  0.9158  0.9561
 1641TIP3    H226483   3.468   5.777   7.747  0.4569 -1.2305  0.7846
 1642TIP3   OH226484   2.006   6.378   2.519 -0.5840  0.2070  0.3717
 1642TIP3    H126485   1.925   6.399   2.471 -1.9148  0.9776  2.7812
 1642TIP3    H226486   2.021   6.454   2.575 -0.3740 -1.4607  2.7297
 1643TIP3   OH226487   0.903   2.757   2.186 -0.5898 -0.4389 -0.4264
 1643TIP3    H126488   0.873   2.723   2.271 -1.0017  0.6501 -0.1219
 1643TIP3    H226489   0.824   2.795   2.146  0.3664  3.1299  0.6944
 1644TIP3   OH226490   2.100   6.413   1.843  0.1171  0.0404  0.3405
 1644TIP3    H126491   2.110   6.322   1.816 -2.1551 -0.2339  0.1877
 1644TIP3    H226492   2.025   6.412   1.902 -0.7513  1.9611 -0.6221
 1645TIP3   OH226493   4.904   0.676   6.992  0.1046 -0.5570 -1.5429
 1645TIP3    H126494   4.867   0.655   6.906 -1.7980 -2.6699 -0.3413
 1645TIP3    H226495   4.952   0.597   7.017 -0.3586 -0.4367 -0.1983
 1646TIP3   OH226496   0.564   5.224   7.161 -0.1477  0.5517 -0.2499
 1646TIP3    H126497   0.599   5.276   7.088  0.1928  0.6953  0.0122
 1646TIP3    H226498   0.592   5.134   7.143  1.4886  0.8485  0.6110
 1647TIP3   OH226499   1.234   0.158   1.619  0.3153  0.0293 -0.6683
 1647TIP3    H126500   1.200   0.239   1.580  0.9423  0.1350 -1.0044
 1647TIP3    H226501   1.165   0.093   1.604 -0.0119  0.3937 -0.7737
 1648TIP3   OH226502   1.119   0.008   8.561 -0.5180 -0.5711  0.3606
 1648TIP3    H126503   1.166   0.067   8.619 -1.2142  0.2711  0.0850
 1648TIP3    H226504   1.095  -0.066   8.616  0.3706 -0.6159  0.7059
 1649TIP3   OH226505   2.027   3.048   1.481 -0.7042 -0.3455 -0.3748
 1649TIP3    H126506   2.046   2.956   1.464 -0.3727 -0.6417  1.4068
 1649TIP3    H226507   1.936   3.060   1.454 -0.5577 -1.0319 -1.1981
 1650TIP3   OH226508   0.855   2.335   8.661 -0.2636 -0.4154 -0.0247
 1650TIP3    H126509   0.788   2.294   8.715  0.9971  0.0585  1.9893
 1650TIP3    H226510   0.912   2.380   8.723  0.1456  1.8352 -1.9110
 1651TIP3   OH226511   2.558   3.328   7.544 -0.0298  0.0683  0.3060
 1651TIP3    H126512   2.564   3.402   7.605 -1.8281 -0.2365  0.9162
 1651TIP3    H226513   2.642   3.327   7.499  0.4101  1.8556  1.0078
 1652TIP3   OH226514   1.403   0.383   0.582 -0.2806 -0.7757  0.3188
 1652TIP3    H126515   1.334   0.393   0.516  0.8754 -0.7702 -0.9389
 1652TIP3    H226516   1.420   0.473   0.612 -1.4234 -0.8711  1.3043
 1653TIP3   OH226517   4.689   5.268   1.401  0.0952  0.3038 -0.2112
 1653TIP3    H126518   4.643   5.193   1.438  1.2302 -0.2303  0.1663
 1653TIP3    H226519   4.702   5.327   1.475  0.5369  0.1681 -0.1720
 1654TIP3   OH226520   6.329   4.350   0.966 -0.2840 -0.0529 -0.1610
 1654TIP3    H126521   6.407   4.395   0.934  0.3655  0.0125  1.3846
 1654TIP3    H226522   6.359   4.261   0.984 -1.3744 -0.9749 -2.4845
 1655TIP3   OH226523   1.370   1.146   6.568  0.1881 -0.1701  0.5566
 1655TIP3    H126524   1.382   1.174   6.477  0.2438 -2.5573 -0.2457
 1655TIP3    H226525   1.286   1.185   6.594  0.5911  1.2737 -0.1719
 1656TIP3   OH226526   3.362   0.626   7.080 -0.0204  0.1503 -0.1665
 1656TIP3    H126527   3.351   0.575   6.999 -1.5388 -2.5033  1.5696
 1656TIP3    H226528   3.282   0.679   7.086 -0.9613 -1.3160  0.6440
 1657TIP3   OH226529   0.720   0.153   7.657 -0.6681  0.0022  0.0658
 1657TIP3    H126530   0.636   0.136   7.615 -0.9377  0.8480  0.2461
 1657TIP3    H226531   0.782   0.162   7.584 -0.0479 -3.6844 -0.0546
 1658TIP3   OH226532   2.252   1.211   6.434 -0.4183  0.1119  0.1650
 1658TIP3    H126533   2.265   1.299   6.399 -1.7863 -0.3754 -1.7325
 1658TIP3    H226534   2.161   1.209   6.462 -0.4965 -0.8087 -0.1229
 1659TIP3   OH226535   0.946   0.135   0.566 -0.5336 -0.5361 -0.4483
 1659TIP3    H126536   0.868   0.107   0.518  0.2734 -0.2747 -1.9877
 1659TIP3    H226537   0.922   0.218   0.605 -0.9646 -0.3310 -1.1281
 1660TIP3   OH226538   1.022   5.940   1.808  0.5411 -0.3857  0.1169
 1660TIP3    H126539   1.072   5.955   1.888  1.0116  1.1319 -0.4387
 1660TIP3    H226540   0.972   5.860   1.826  1.5946 -0.7827  1.4439
 1661TIP3   OH226541   0.106   6.337   8.452  0.3210 -0.1674  0.1897
 1661TIP3    H126542   0.175   6.341   8.386  0.1694 -3.9183 -0.4650
 1661TIP3    H226543   0.028   6.370   8.407  0.7407 -0.3824 -0.7182
 1662TIP3   OH226544   1.130   0.278   8.133 -0.2368 -0.4289  0.2306
 1662TIP3    H126545   1.089   0.364   8.129  0.2170 -0.1572  1.1733
 1662TIP3    H226546   1.211   0.292   8.181 -0.1455 -1.3840  0.3746
 1663TIP3   OH226547   5.177   1.081   7.700 -0.2694 -0.5235  0.5118
 1663TIP3    H126548   5.174   1.104   7.608  2.2298 -1.5160  0.1107
 1663TIP3    H226549   5.235   1.147   7.740  0.5328 -1.4416  0.8950
 1664TIP3   OH226550   4.075   5.177   7.880  0.4553  0.0009  0.5461
 1664TIP3    H126551   4.090   5.104   7.820  1.3395 -0.6474  1.5286
 1664TIP3    H226552   4.018   5.141   7.948  0.4984  0.3685  0.7795
 1665TIP3   OH226553   4.010   2.119   6.842 -0.0765 -0.4939  0.0337
 1665TIP3    H126554   4.088   2.065   6.850 -0.1959 -0.5597  0.8699
 1665TIP3    H226555   3.969   2.115   6.928 -1.9364 -1.8748 -0.8398
 1666TIP3   OH226556   6.756   5.830   0.496 -0.4659 -0.2819  0.6154
 1666TIP3    H126557   6.696   5.765   0.532 -1.6703  0.2995 -0.2413
 1666TIP3    H226558   6.709   5.866   0.420  0.6590  0.7367  0.3721
 1667TIP3   OH226559   4.883   5.413   8.152 -0.0736  0.0240  0.0872
 1667TIP3    H126560   4.902   5.370   8.069  0.6555  2.1516 -0.9326
 1667TIP3    H226561   4.839   5.346   8.205  0.4849 -1.7309 -1.5695
 1668TIP3   OH226562   2.271   4.227   7.596  0.1328  0.2864  0.2908
 1668TIP3    H126563   2.253   4.296   7.532 -1.2607 -0.8789 -0.6177
 1668TIP3    H226564   2.220   4.253   7.673  0.3310  0.7186  0.2845
 1669TIP3   OH226565   6.566   5.565   0.718 -0.1607 -0.2520  0.1816
 1669TIP3    H126566   6.562   5.537   0.809 -1.8769 -1.0074 -0.0976
 1669TIP3    H226567   6.477   5.593   0.697  0.8037  2.7864 -0.4249
 1670TIP3   OH226568   3.786   6.663   6.995 -0.1398 -0.3521  0.1795
 1670TIP3    H126569   3.814   6.604   6.925  0.9780 -0.1289  0.4096
 1670TIP3    H226570   3.867   6.683   7.043 -0.2270  2.2590 -0.5790
 1671TIP3   OH226571   4.742   0.299   8.483  0.3691 -0.0483  0.2160
 1671TIP3    H126572   4.713   0.208   8.490  0.8551 -0.1872  0.4616
 1671TIP3    H226573   4.837   0.294   8.473  0.3088  0.4008 -0.6789
 1672TIP3   OH226574   2.275   0.825   0.209 -0.4160  0.0604 -0.0529
 1672TIP3    H126575   2.219   0.903   0.214 -0.1482  0.3493 -1.1812
 1672TIP3    H226576   2.327   0.828   0.288 -0.9359  0.6243  0.2821
 1673TIP3   OH226577   4.878   1.426   0.384  0.2952 -0.2450  0.1356
 1673TIP3    H126578   4.928   1.488   0.437  2.4536 -0.5885 -1.3644
 1673TIP3    H226579   4.917   1.341   0.404  0.0653 -0.5842 -0.8057
 1674TIP3   OH226580   5.920   3.047   1.926 -0.4489 -0.2775 -0.3182
 1674TIP3    H126581   5.966   3.072   2.005 -1.7750  1.0054  0.0849
 1674TIP3    H226582   5.877   2.964   1.949 -0.1140 -0.3630  0.0074
 1675TIP3   OH226583   4.934   1.314   6.583 -0.3711 -0.9052 -0.1971
 1675TIP3    H126584   4.986   1.382   6.626 -2.5362 -1.1383  3.1874
 1675TIP3    H226585   4.997   1.246   6.561  1.1263 -0.0935  1.3686
 1676TIP3   OH226586   1.253   0.940   1.535  0.3477  0.1566 -0.5723
 1676TIP3    H126587   1.310   0.917   1.608  1.1710  1.4872 -0.7755
 1676TIP3    H226588   1.266   0.869   1.472 -0.9901 -1.4523  0.8558
 1677TIP3   OH226589   2.057   6.769   1.734  0.1424  0.1165  0.2524
 1677TIP3    H126590   2.041   6.753   1.827 -1.1799  1.7749  0.3439
 1677TIP3    H226591   2.007   6.701   1.689  1.4094 -1.1757  0.7347
 1678TIP3   OH226592   4.495   3.778   8.176  0.1770  0.1196 -0.3767
 1678TIP3    H126593   4.572   3.733   8.143 -1.5664 -2.8195 -0.8438
 1678TIP3    H226594   4.464   3.831   8.102  0.1564 -0.9602 -1.1533
 1679TIP3   OH226595   6.487   4.655   7.096 -0.1725 -0.5020  0.0320
 1679TIP3    H126596   6.506   4.682   7.006 -0.6362 -0.7952 -0.1547
 1679TIP3    H226597   6.563   4.685   7.146 -0.1326  0.0916 -0.3722
 1680TIP3   OH226598   3.405   4.929   7.114 -0.0110 -0.1265  0.5471
 1680TIP3    H126599   3.429   4.837   7.108  0.8865  0.1151  0.2075
 1680TIP3    H226600   3.484   4.976   7.086 -0.3341  0.7523  1.0719
 1681TIP3   OH226601   1.704   4.609   1.004  0.0723 -0.2593  0.0294
 1681TIP3    H126602   1.684   4.579   1.092  0.4660  1.4401  0.7435
 1681TIP3    H226603   1.798   4.593   0.994  0.4210  1.1710  0.6532
 1682TIP3   OH226604   1.793   0.147   8.500 -0.3615  0.5441  0.1092
 1682TIP3    H126605   1.754   0.174   8.417 -1.3863 -0.3654  0.2726
 1682TIP3    H226606   1.720   0.144   8.561  0.4567  1.5948  1.1637
 1683TIP3   OH226607   3.010   3.630   6.406  0.1270 -0.4487 -0.3898
 1683TIP3    H126608   2.961   3.563   6.454 -1.7042  2.0611  1.5057
 1683TIP3    H226609   2.945   3.673   6.351  0.9381  0.6726 -0.4984
 1684TIP3   OH226610   0.361   4.673   0.658 -0.5222  0.5382  0.1633
 1684TIP3    H126611   0.449   4.710   0.658  0.1734 -0.9929 -1.2372
 1684TIP3    H226612   0.303   4.748   0.673  1.0161  1.4664  1.9236
 1685TIP3   OH226613   0.512   1.623   7.281  0.6936 -0.0560  0.5541
 1685TIP3    H126614   0.541   1.608   7.371  2.1815  0.5152  0.1967
 1685TIP3    H226615   0.421   1.592   7.280  1.0889 -1.3999  1.8825
 1686TIP3   OH226616   5.232   3.679   7.260 -0.1593  0.3235 -0.3671
 1686TIP3    H126617   5.326   3.689   7.247 -0.0162 -1.8546 -1.3594
 1686TIP3    H226618   5.212   3.591   7.227 -2.2119 -0.0547  1.6331
 1687TIP3   OH226619   2.368   3.396   0.118 -0.1057 -0.3908  0.6283
 1687TIP3    H126620   2.450   3.413   0.164  0.4136 -0.6345 -0.2042
 1687TIP3    H226621   2.300   3.422   0.181  0.6008  1.7864  0.5648
 1688TIP3   OH226622   6.754   6.133   0.616  0.2803 -0.0388 -0.0800
 1688TIP3    H126623   6.709   6.056   0.650  0.6989  0.3672  1.4714
 1688TIP3    H226624   6.737   6.131   0.522 -1.2912 -0.9830  0.1859
 1689TIP3   OH226625   3.072   5.131   7.851  0.4733 -0.3346 -0.2393
 1689TIP3    H126626   3.032   5.123   7.938 -0.2374 -0.0730 -0.5370
 1689TIP3    H226627   3.011   5.087   7.792  0.7570 -0.1635 -0.6626
 1690TIP3   OH226628   3.889   4.506   1.393  0.2634 -0.3276 -0.2903
 1690TIP3    H126629   3.866   4.481   1.303  0.0875  1.8359 -0.9131
 1690TIP3    H226630   3.938   4.588   1.383  1.5661 -0.8263  1.5214
 1691TIP3   OH226631   0.981   0.404   1.570  0.2803  0.1058  0.3005
 1691TIP3    H126632   0.946   0.443   1.490  0.2077  1.3502  0.9232
 1691TIP3    H226633   1.067   0.444   1.581  1.0610 -1.3942 -0.0979
 1692TIP3   OH226634   6.535   3.935   0.098 -0.2257  0.6766  0.0445
 1692TIP3    H126635   6.609   3.995   0.095 -0.7269  1.4020  1.2350
 1692TIP3    H226636   6.464   3.986   0.138 -1.7467  0.3956 -2.1184
 1693TIP3   OH226637   5.830   0.222   7.126 -0.0253 -0.3935 -0.2763
 1693TIP3    H126638   5.748   0.175   7.109 -1.3028  1.0503  1.4438
 1693TIP3    H226639   5.879   0.165   7.185  0.9440 -1.9241 -2.4434
 1694TIP3   OH226640   5.154   5.150   8.361  0.9699 -0.1134 -0.1724
 1694TIP3    H126641   5.078   5.174   8.415 -0.0701 -1.1756 -1.1140
 1694TIP3    H226642   5.219   5.217   8.382 -1.5287  3.3414 -2.2252
 1695TIP3   OH226643   2.866   5.349   1.602 -0.0015  0.7526  0.3476
 1695TIP3    H126644   2.811   5.413   1.557  0.6223 -0.3577 -2.1751
 1695TIP3    H226645   2.805   5.296   1.652 -0.8884  1.3094 -0.1170
 1696TIP3   OH226646   3.200   6.326   1.268 -0.1545  0.1530  0.1531
 1696TIP3    H126647   3.280   6.378   1.255 -0.0289 -0.2486 -0.8308
 1696TIP3    H226648   3.131   6.379   1.228  0.2385 -1.1114 -2.4484
 1697TIP3   OH226649   3.946   6.519   1.367 -0.0300 -0.3449 -0.7026
 1697TIP3    H126650   3.934   6.613   1.360  1.8248  0.1537  1.4668
 1697TIP3    H226651   4.034   6.503   1.332 -0.6454 -1.4200 -1.8212
 1698TIP3   OH226652   4.838   4.261   1.569  0.3844 -0.4259 -0.1012
 1698TIP3    H126653   4.748   4.272   1.599  0.5023 -0.4955  0.2850
 1698TIP3    H226654   4.891   4.284   1.645  0.7115  0.5373 -0.5994
 1699TIP3   OH226655   2.898   3.010   2.112 -0.2349 -0.0328 -0.1788
 1699TIP3    H126656   2.883   2.924   2.074  1.9749 -0.1517 -0.9045
 1699TIP3    H226657   2.819   3.060   2.090 -2.5951 -2.4257  2.2042
 1700TIP3   OH226658   4.819   5.014   0.902 -0.6055  0.3684  0.2571
 1700TIP3    H126659   4.877   5.067   0.846 -0.3903  0.5559  0.6563
 1700TIP3    H226660   4.750   5.075   0.928 -1.6791 -0.1666 -1.2182
 1701TIP3   OH226661   0.512   0.765   7.397  0.0652 -0.5124 -0.2941
 1701TIP3    H126662   0.427   0.781   7.357 -0.3801 -0.5867  0.5894
 1701TIP3    H226663   0.506   0.806   7.484  0.9556 -0.4439 -0.2522
 1702TIP3   OH226664   3.291   4.118   0.033 -0.2655  0.5123  0.0465
 1702TIP3    H126665   3.345   4.197   0.034 -0.1571  0.5502 -2.3518
 1702TIP3    H226666   3.204   4.150   0.008 -0.3950 -0.0208 -0.1944
 1703TIP3   OH226667   0.028   1.076   1.385 -0.1897  0.1590 -0.0977
 1703TIP3    H126668   0.006   1.046   1.474 -0.4661  0.4661 -0.0614
 1703TIP3    H226669  -0.008   1.008   1.327  0.1095 -0.1111  0.0296
 1704TIP3   OH226670   0.240   2.642   7.542 -0.4496  0.5125 -0.0167
 1704TIP3    H126671   0.169   2.705   7.554 -1.3564 -0.6490  0.9506
 1704TIP3    H226672   0.211   2.587   7.469 -0.1987  0.4827 -0.0950
 1705TIP3   OH226673   3.246   3.861   7.564  0.2447  0.0227 -0.0840
 1705TIP3    H126674   3.299   3.925   7.518 -0.7123  0.6080 -0.4017
 1705TIP3    H226675   3.295   3.842   7.644  0.4577  1.3019  0.1143
 1706TIP3   OH226676   6.686   6.361   8.391  0.4464 -0.4944 -0.4196
 1706TIP3    H126677   6.625   6.300   8.348  0.8338 -0.4183 -1.0896
 1706TIP3    H226678   6.660   6.360   8.483 -1.7096  0.8348 -0.9290
 1707TIP3   OH226679   1.100   1.691   0.474 -0.2078  0.7489  0.2284
 1707TIP3    H126680   1.129   1.603   0.452 -0.7248  0.2512  1.4400
 1707TIP3    H226681   1.086   1.734   0.389 -1.4998 -0.8478 -0.4149
 1708TIP3   OH226682   5.605   3.787   8.189 -0.3778  0.4300 -0.3235
 1708TIP3    H126683   5.630   3.874   8.221  1.0049 -0.0072 -0.1958
 1708TIP3    H226684   5.609   3.731   8.266  1.2552 -0.2602 -0.8748
 1709TIP3   OH226685   1.004   6.305   0.700  0.3767  0.0366 -0.1028
 1709TIP3    H126686   0.952   6.374   0.659 -1.6385 -0.5845  1.2792
 1709TIP3    H226687   0.970   6.224   0.662  0.0844 -0.3945  1.0312
 1710TIP3   OH226688   3.082   5.587   8.420 -0.0916 -0.3965 -0.4434
 1710TIP3    H126689   3.018   5.583   8.491 -0.2092  0.2273 -0.5103
 1710TIP3    H226690   3.031   5.573   8.340 -0.0682 -0.4102 -0.4560
 1711TIP3   OH226691   4.314   2.605   1.185  1.0702  0.2112  0.3198
 1711TIP3    H126692   4.294   2.694   1.155  1.7144 -0.4258 -2.1846
 1711TIP3    H226693   4.231   2.570   1.216  0.6903  1.4651  0.7725
 1712TIP3   OH226694   5.524   1.825   8.340  0.4549  0.4892 -0.5248
 1712TIP3    H126695   5.609   1.827   8.384  0.5894  0.7461 -0.7917
 1712TIP3    H226696   5.460   1.837   8.411  0.6870  1.2392 -0.4326
 1713TIP3   OH226697   5.772   5.566   0.666 -0.0408  0.3946  0.3218
 1713TIP3    H126698   5.824   5.521   0.733 -1.7332 -0.5503  1.0609
 1713TIP3    H226699   5.832   5.630   0.628  1.0367  0.8571  2.6354
 1714TIP3   OH226700   0.924   5.667   6.603  0.2821  0.2894  0.4775
 1714TIP3    H126701   1.000   5.699   6.652  0.8061 -0.3830  0.1159
 1714TIP3    H226702   0.931   5.709   6.518  1.1365 -0.9516 -0.1045
 1715TIP3   OH226703   1.669   5.154   0.366 -0.0285  0.0905  0.3668
 1715TIP3    H126704   1.617   5.200   0.432  0.1895 -1.3430  1.5746
 1715TIP3    H226705   1.756   5.147   0.403  0.2086 -0.3677 -0.2533
 1716TIP3   OH226706   1.926   4.481   0.947  0.1302  0.5170  0.6522
 1716TIP3    H126707   2.014   4.519   0.950  0.1706  0.4665  0.1996
 1716TIP3    H226708   1.928   4.423   0.870 -0.7838  1.7248 -0.3342
 1717TIP3   OH226709   6.646   2.205   7.269 -0.5631  0.5883  0.4547
 1717TIP3    H126710   6.650   2.111   7.286 -1.5016  0.6099  0.8757
 1717TIP3    H226711   6.576   2.237   7.326  1.2980  1.9664  2.1309
 1718TIP3   OH226712   3.068   6.473   7.602  0.0991  0.1165  0.0360
 1718TIP3    H126713   3.149   6.524   7.605 -0.1377  0.4739  0.4374
 1718TIP3    H226714   3.094   6.386   7.630 -0.1266  0.8641  2.9248
 1719TIP3   OH226715   6.238   0.341   8.366  0.3361  0.0118  0.6619
 1719TIP3    H126716   6.145   0.354   8.384  0.6073 -0.3271  2.5392
 1719TIP3    H226717   6.255   0.252   8.395  1.0304 -0.3198 -0.7180
 1720TIP3   OH226718   2.253   0.199   0.972  0.0094  0.2128 -0.8803
 1720TIP3    H126719   2.234   0.287   1.004  3.3145  0.3090  1.3206
 1720TIP3    H226720   2.195   0.142   1.022  0.9921  0.8637  1.1001
 1721TIP3   OH226721   0.323   1.830   8.515 -0.1659 -0.3444 -0.2052
 1721TIP3    H126722   0.249   1.840   8.455  0.1478  0.0582 -0.5273
 1721TIP3    H226723   0.294   1.763   8.577  0.2873 -2.4095 -2.0726
 1722TIP3   OH226724   1.301   3.920   2.282 -0.5257  0.8167 -0.4623
 1722TIP3    H126725   1.239   3.907   2.209 -1.6386  1.7872  0.2660
 1722TIP3    H226726   1.342   3.835   2.294 -1.1857  0.3349 -1.4610
 1723TIP3   OH226727   5.072   1.592   2.155  0.0396  0.6476 -0.0543
 1723TIP3    H126728   4.978   1.576   2.141 -0.2774  0.5769  1.8533
 1723TIP3    H226729   5.088   1.563   2.245  2.0959 -0.1261 -0.6271
 1724TIP3   OH226730   0.318   6.009   7.561 -0.5801  0.2281 -0.2532
 1724TIP3    H126731   0.239   5.968   7.597 -0.5715  0.0349 -0.4504
 1724TIP3    H226732   0.299   6.018   7.467  0.0560 -0.8253 -0.5024
 1725TIP3   OH226733   2.200   5.784   8.555  0.0980  0.0604 -0.3058
 1725TIP3    H126734   2.262   5.847   8.591 -0.7908  2.8406 -3.1665
 1725TIP3    H226735   2.162   5.741   8.632 -0.9658  4.7702  2.1468
 1726TIP3   OH226736   2.142   4.854   1.905 -0.0334  0.2641 -0.5715
 1726TIP3    H126737   2.056   4.846   1.944  0.9069 -1.0078  1.3866
 1726TIP3    H226738   2.176   4.938   1.936 -0.3276  0.5086 -0.9004
 1727TIP3   OH226739   4.282   3.133   8.086  0.9697  0.1297 -0.3352
 1727TIP3    H126740   4.272   3.038   8.094  0.1886  0.0001 -2.3813
 1727TIP3    H226741   4.265   3.166   8.174 -1.9265 -1.3905 -0.2295
 1728TIP3   OH226742   2.479   5.070   8.371  0.3496  0.2711 -0.0841
 1728TIP3    H126743   2.384   5.056   8.378  0.2758  0.4365 -0.7342
 1728TIP3    H226744   2.511   5.056   8.460 -0.5574  2.1786  0.6049
 1729TIP3   OH226745   4.504   2.065   1.620 -0.3301 -0.5516  0.3605
 1729TIP3    H126746   4.413   2.063   1.591 -0.5389 -1.4757  1.0079
 1729TIP3    H226747   4.500   2.100   1.709  0.0285  0.0524  0.1401
 1730TIP3   OH226748   0.256   2.627   1.882 -0.2711  0.2592 -0.3981
 1730TIP3    H126749   0.194   2.652   1.813 -0.4673 -0.1740 -0.3815
 1730TIP3    H226750   0.277   2.536   1.863  0.1826  0.3341 -0.2662
 1731TIP3   OH226751   4.455   0.171   1.935 -0.3101  0.1936 -0.2511
 1731TIP3    H126752   4.480   0.108   2.003 -1.3816 -0.8883 -0.8270
 1731TIP3    H226753   4.473   0.257   1.974 -1.9856 -0.3493  1.8876
 1732TIP3   OH226754   2.871   0.011   1.225  0.7468 -0.4597  0.1407
 1732TIP3    H126755   2.895  -0.059   1.165  0.7716 -1.6641  1.5081
 1732TIP3    H226756   2.800   0.058   1.181  0.7406 -1.3261 -0.8016
 1733TIP3   OH226757   4.082   0.471   7.601  0.3280 -0.1012  0.0832
 1733TIP3    H126758   4.065   0.454   7.693  1.7108 -0.5650  0.2851
 1733TIP3    H226759   4.073   0.386   7.559 -2.1794  0.4102 -0.5858
 1734TIP3   OH226760   1.136   2.757   1.033 -0.2356 -0.5825  0.2468
 1734TIP3    H126761   1.193   2.833   1.044 -0.2201 -0.6590  0.7065
 1734TIP3    H226762   1.058   2.777   1.085 -0.4874 -0.6274 -0.1039
 1735TIP3   OH226763   0.219   2.860   8.153 -0.1186  0.2630  0.2757
 1735TIP3    H126764   0.214   2.779   8.102 -0.1768  0.5189 -0.1349
 1735TIP3    H226765   0.177   2.839   8.236 -1.6408  0.3391 -0.4408
 1736TIP3   OH226766   5.416   4.609   2.005 -0.3176 -0.4494 -0.3386
 1736TIP3    H126767   5.487   4.657   1.962 -0.4393  1.2140  1.1886
 1736TIP3    H226768   5.458   4.569   2.081 -0.6954 -0.7593 -0.2938
 1737TIP3   OH226769   2.133   2.863   0.485 -0.1707  0.0705  0.1896
 1737TIP3    H126770   2.076   2.888   0.558 -1.7616  0.1045 -1.0114
 1737TIP3    H226771   2.094   2.783   0.451 -0.3535  0.8376 -1.5158
 1738TIP3   OH226772   6.849   4.725   7.133  0.6533 -0.2069  0.4111
 1738TIP3    H126773   6.818   4.635   7.145  1.3436 -0.5467 -0.2666
 1738TIP3    H226774   6.790   4.778   7.187  0.6105 -1.1311  1.3164
 1739TIP3   OH226775   4.156   0.634   2.099  0.1479 -0.1039 -0.0414
 1739TIP3    H126776   4.117   0.551   2.072  1.3165 -0.1935 -1.5345
 1739TIP3    H226777   4.082   0.683   2.137 -0.8416 -1.2752 -0.3831
 1740TIP3   OH226778   3.536   5.288   2.096 -0.0236 -0.2565  0.3165
 1740TIP3    H126779   3.571   5.309   2.010  0.8823  0.2213  0.7870
 1740TIP3    H226780   3.563   5.197   2.112  0.3135 -0.1567  0.3320
 1741TIP3   OH226781   5.167   5.478   1.473  0.7213  0.2913  0.4251
 1741TIP3    H126782   5.150   5.423   1.396  1.4794  1.4338 -0.5957
 1741TIP3    H226783   5.262   5.475   1.484  0.7696  1.2990  0.4036
 1742TIP3   OH226784   2.265   4.143   1.036  0.0040  0.2120  0.2466
 1742TIP3    H126785   2.311   4.200   1.098 -0.3343 -0.7290  1.4095
 1742TIP3    H226786   2.325   4.133   0.962  0.5743  1.0642  0.5848
 1743TIP3   OH226787   6.557   4.603   7.985  0.7567  0.7430  0.7022
 1743TIP3    H126788   6.516   4.517   7.980  0.7382  0.8114 -0.4401
 1743TIP3    H226789   6.489   4.664   7.956  0.7738  1.1591  1.4863
 1744TIP3   OH226790   2.543   5.825   1.643  0.0801 -0.2258  0.1936
 1744TIP3    H126791   2.576   5.899   1.593  1.0516 -0.2794  0.7441
 1744TIP3    H226792   2.467   5.795   1.593 -0.8419  1.6251  0.3682
 1745TIP3   OH226793   1.247   2.398   7.909 -0.0878 -0.0969 -0.5338
 1745TIP3    H126794   1.194   2.319   7.900 -0.0580 -0.0880 -0.7950
 1745TIP3    H226795   1.195   2.456   7.965 -0.9391  0.4072 -1.8041
 1746TIP3   OH226796   6.089   2.200   2.357  0.4343 -0.3538  0.4106
 1746TIP3    H126797   6.057   2.252   2.283  1.3086  1.0246  0.9586
 1746TIP3    H226798   6.023   2.214   2.426 -0.1947 -1.3501  0.0320
 1747TIP3   OH226799   2.101   0.556   0.878 -0.0797  0.0012 -0.2277
 1747TIP3    H126800   2.100   0.575   0.972 -0.1073  0.1311 -0.2531
 1747TIP3    H226801   2.047   0.625   0.840 -1.9122 -1.3042 -0.1137
 1748TIP3   OH226802   4.775   2.229   0.675  0.4198  0.8617 -0.0674
 1748TIP3    H126803   4.712   2.300   0.687 -0.2804  0.2697 -0.1667
 1748TIP3    H226804   4.797   2.201   0.763 -1.8442 -0.9831 -0.0088
 1749TIP3   OH226805   5.623   0.565   2.681 -0.0255  0.6306  0.8910
 1749TIP3    H126806   5.640   0.658   2.698 -0.7482  0.8631  0.3969
 1749TIP3    H226807   5.535   0.550   2.717  0.2478  0.0295  1.3340
 1750TIP3   OH226808   0.329   0.434   0.435 -0.6089  0.0019  0.2084
 1750TIP3    H126809   0.299   0.387   0.513  3.4741 -3.2547  0.1356
 1750TIP3    H226810   0.298   0.382   0.362  1.0460 -0.7151 -0.0160
 1751TIP3   OH226811   3.339   3.115   7.395  0.1885 -0.0356 -0.7068
 1751TIP3    H126812   3.245   3.117   7.409 -0.0686 -0.3071 -2.2262
 1751TIP3    H226813   3.374   3.178   7.458 -0.8060 -1.2123  1.1036
 1752TIP3   OH226814   6.421   2.595   0.845  0.3946  0.4400 -0.2197
 1752TIP3    H126815   6.458   2.560   0.926 -0.4104 -0.9486 -0.4217
 1752TIP3    H226816   6.454   2.537   0.776  0.6158  1.2693 -0.8227
 1753TIP3   OH226817   4.204   0.485   6.615 -0.9760 -0.6100  0.4084
 1753TIP3    H126818   4.209   0.575   6.646 -1.5203  0.8209 -3.1507
 1753TIP3    H226819   4.114   0.458   6.634 -0.2319 -1.3286  3.4257
 1754TIP3   OH226820   6.762   4.349   7.605 -0.1592 -0.7430  0.1901
 1754TIP3    H126821   6.745   4.389   7.690  2.4221  0.1796  0.3723
 1754TIP3    H226822   6.808   4.267   7.625 -0.3076 -0.9498 -0.2939
 1755TIP3   OH226823   4.384   1.045   2.228  0.4956  0.1074 -0.7014
 1755TIP3    H126824   4.342   1.100   2.162  0.2884  0.2108 -0.4851
 1755TIP3    H226825   4.378   0.956   2.192  2.2817  0.3846 -1.8211
 1756TIP3   OH226826   0.224   4.122   0.716  0.0563  0.0317 -0.2063
 1756TIP3    H126827   0.261   4.192   0.662  1.6089  1.6311  2.6466
 1756TIP3    H226828   0.271   4.043   0.689 -0.8288  0.2641 -2.6335
 1757TIP3   OH226829   5.810   3.534   7.718 -0.5856  0.2950  0.0425
 1757TIP3    H126830   5.733   3.538   7.774 -0.3020 -2.9623  0.8778
 1757TIP3    H226831   5.801   3.451   7.671  2.5366 -0.4228  0.4620
 1758TIP3   OH226832   1.259   1.004   0.688 -0.1468  0.1546  0.1000
 1758TIP3    H126833   1.286   0.984   0.778 -2.1816 -0.0570  0.7045
 1758TIP3    H226834   1.167   1.029   0.695 -0.2640  0.4575 -1.8945
 1759TIP3   OH226835   5.750   2.138   0.262 -0.4287 -0.3599 -0.3746
 1759TIP3    H126836   5.826   2.172   0.309  0.2741 -1.8060 -0.4100
 1759TIP3    H226837   5.702   2.086   0.328  0.9635 -3.0352 -1.3093
 1760TIP3   OH226838   1.702   0.339   6.971  0.0550 -0.7215  0.5014
 1760TIP3    H126839   1.631   0.340   7.036 -0.6562  0.6402 -0.2440
 1760TIP3    H226840   1.684   0.262   6.917 -0.9959 -0.2933  0.2059
 1761TIP3   OH226841   4.621   4.802   8.598 -0.4866 -0.0446  0.1272
 1761TIP3    H126842   4.627   4.709   8.574 -0.5559 -0.7353  2.5507
 1761TIP3    H226843   4.527   4.820   8.600 -0.4685  0.6016 -1.9293
 1762TIP3   OH226844   3.538   2.613   0.553  0.2253 -0.7216 -0.0646
 1762TIP3    H126845   3.562   2.648   0.468  1.4252 -0.0652  0.5230
 1762TIP3    H226846   3.619   2.576   0.588 -0.5608 -2.2795  0.2054
 1763TIP3   OH226847   5.186   0.618   6.369  0.2502  0.0974 -0.1838
 1763TIP3    H126848   5.165   0.585   6.282 -0.8232 -0.3619  0.2323
 1763TIP3    H226849   5.146   0.705   6.372 -0.6521 -0.3234  0.2181
 1764TIP3   OH226850   1.442   6.403   7.006 -0.0011  0.3314 -0.0304
 1764TIP3    H126851   1.459   6.356   6.924 -2.7454 -1.5208  0.3495
 1764TIP3    H226852   1.457   6.338   7.075  0.7801  1.4420  0.8946
 1765TIP3   OH226853   3.940   1.777   7.528 -0.3469 -0.0193  0.6316
 1765TIP3    H126854   3.943   1.726   7.609  2.3451 -2.4646 -0.8389
 1765TIP3    H226855   4.023   1.824   7.526 -0.4936  0.2178 -0.5777
 1766TIP3   OH226856   2.356   5.463   1.959 -0.5945  0.4251 -0.8366
 1766TIP3    H126857   2.293   5.410   2.008 -1.3592  2.5516  0.6278
 1766TIP3    H226858   2.410   5.504   2.026  0.7620  0.5723 -1.9823
 1767TIP3   OH226859   5.896   5.286   2.186 -0.1486 -0.6515 -0.8452
 1767TIP3    H126860   5.949   5.209   2.206  1.1745  0.0320 -1.5593
 1767TIP3    H226861   5.909   5.345   2.260 -0.0655 -0.5629 -0.9297
 1768TIP3   OH226862   6.628   6.849   8.047 -0.0057  0.0963  0.1371
 1768TIP3    H126863   6.700   6.788   8.065  0.5411  0.3307 -1.1431
 1768TIP3    H226864   6.626   6.856   7.952 -1.9341 -0.1242  0.1245
 1769TIP3   OH226865   0.465   6.235   7.021 -0.6135 -0.2323 -0.3032
 1769TIP3    H126866   0.437   6.205   6.935  0.7372 -1.8264 -0.2474
 1769TIP3    H226867   0.463   6.157   7.076  1.7608 -0.0298  0.2099
 1770TIP3   OH226868   3.654   0.379   7.394  0.2193  0.3649 -0.3836
 1770TIP3    H126869   3.574   0.331   7.374  0.2336  0.8109 -1.5694
 1770TIP3    H226870   3.650   0.457   7.338  0.9229  0.9847  0.3941
 1771TIP3   OH226871   6.780   3.821   6.446  0.2355 -0.2319 -0.8138
 1771TIP3    H126872   6.842   3.885   6.482 -0.0310  0.0173 -0.8027
 1771TIP3    H226873   6.713   3.874   6.404  0.6384 -0.5171 -1.8453
 1772TIP3   OH226874   2.522   2.632   7.465  0.2040  0.9999  0.0837
 1772TIP3    H126875   2.608   2.650   7.428 -0.5006  0.2797 -2.0554
 1772TIP3    H226876   2.491   2.717   7.497  1.7876  1.2128  1.1510
 1773TIP3   OH226877   4.181   5.716   2.562  0.0798  0.6556 -0.3035
 1773TIP3    H126878   4.209   5.740   2.650 -0.3071 -1.4458  0.4519
 1773TIP3    H226879   4.167   5.800   2.517  2.5982  1.7740  0.8382
 1774TIP3   OH226880   6.375   2.349   7.119  0.1877 -0.0128 -0.5516
 1774TIP3    H126881   6.403   2.439   7.132 -0.7376  0.1467  0.4658
 1774TIP3    H226882   6.386   2.307   7.204  0.6570 -0.8811 -1.0264
 1775TIP3   OH226883   1.336   5.052   0.331 -0.5263  0.1691 -0.0623
 1775TIP3    H126884   1.401   5.018   0.270 -0.4466  0.8635 -0.3830
 1775TIP3    H226885   1.257   5.062   0.278 -1.4745 -2.3761  0.7309
 1776TIP3   OH226886   0.134   4.568   1.105  0.0589  0.1006  0.6576
 1776TIP3    H126887   0.124   4.495   1.166  0.5360  0.4804  1.1996
 1776TIP3    H226888   0.228   4.575   1.091 -0.0698 -0.2522 -0.4671
 1777TIP3   OH226889   6.467   1.052   7.845 -0.1346 -0.4651 -0.1099
 1777TIP3    H126890   6.408   1.014   7.910  0.9340 -0.4804  0.8892
 1777TIP3    H226891   6.415   1.057   7.765 -2.2307  1.5935  1.2652
 1778TIP3   OH226892   2.487   6.785   0.125  0.3947  0.4116 -0.1433
 1778TIP3    H126893   2.451   6.829   0.047 -1.1404  1.2820  1.0051
 1778TIP3    H226894   2.424   6.804   0.194  2.9082  1.7380  1.9412
 1779TIP3   OH226895   2.933   2.761   1.455  0.1781  0.8263 -0.0946
 1779TIP3    H126896   2.853   2.712   1.438  1.2023  0.1214 -3.8896
 1779TIP3    H226897   2.908   2.853   1.443 -0.2140  0.6387 -0.8287
 1780TIP3   OH226898   5.084   4.412   0.052 -0.2021 -0.2221 -0.0883
 1780TIP3    H126899   4.994   4.382   0.064  0.2782 -1.3728  0.7695
 1780TIP3    H226900   5.113   4.438   0.139  1.1151 -2.2694  0.1358
 1781TIP3   OH226901   4.917   4.905   6.995 -0.5500 -0.2433 -1.3937
 1781TIP3    H126902   4.828   4.913   6.960  0.1508 -0.4517 -3.3083
 1781TIP3    H226903   4.920   4.968   7.067 -2.4638 -0.7775 -0.7900
 1782TIP3   OH226904   0.705   2.569   7.867 -0.3579  0.0425 -0.1140
 1782TIP3    H126905   0.630   2.605   7.819 -1.1774  0.1668  1.1975
 1782TIP3    H226906   0.666   2.524   7.942  0.8531 -0.5468  0.1881
 1783TIP3   OH226907   5.194   2.356   0.058 -0.4634  0.1862 -0.3229
 1783TIP3    H126908   5.131   2.305   0.109 -1.0997  2.2772  1.1300
 1783TIP3    H226909   5.163   2.446   0.065  0.8963  0.8727 -2.3312
 1784TIP3   OH226910   6.803   2.696   7.562 -0.0070 -0.0138 -0.0379
 1784TIP3    H126911   6.796   2.710   7.657 -1.2141 -0.8450  0.0153
 1784TIP3    H226912   6.741   2.626   7.543  2.3473 -2.0195 -1.0094
 1785TIP3   OH226913   4.835   0.650   6.689  0.1200 -0.6785  0.5153
 1785TIP3    H126914   4.906   0.640   6.625  0.1271 -0.4004  0.4785
 1785TIP3    H226915   4.774   0.579   6.669  1.3993 -2.2688  1.8947
 1786TIP3   OH226916   4.838   4.289   8.488 -0.2360  0.0587 -0.1181
 1786TIP3    H126917   4.856   4.301   8.395  0.6960 -1.7193 -0.2238
 1786TIP3    H226918   4.840   4.377   8.525  3.1715  0.5557 -1.1462
 1787TIP3   OH226919   2.156   5.583   6.566  0.3389 -0.2985 -0.0121
 1787TIP3    H126920   2.078   5.534   6.595 -0.0666  0.4563  0.2004
 1787TIP3    H226921   2.147   5.587   6.471  0.0222 -0.0699  0.0235
 1788TIP3   OH226922   5.764   4.736   1.006  0.5414  0.0678 -0.4059
 1788TIP3    H126923   5.687   4.680   1.017 -0.4569  1.3829 -0.3911
 1788TIP3    H226924   5.834   4.689   1.050 -0.1382 -1.3835 -0.8109
 1789TIP3   OH226925   5.101   3.019   2.068 -0.0191 -0.2858  0.0968
 1789TIP3    H126926   5.105   3.108   2.032 -0.5200  0.1422  1.0805
 1789TIP3    H226927   5.192   2.989   2.067 -0.0787 -0.5477 -2.1103
 1790TIP3   OH226928   5.143   2.653   8.462  0.1746  0.5540  0.0685
 1790TIP3    H126929   5.099   2.641   8.546  1.4259 -0.2691  0.6384
 1790TIP3    H226930   5.107   2.586   8.405 -1.5227  1.8386 -0.4512
 1791TIP3   OH226931   5.162   3.782   1.211  0.6256  0.8557  0.1877
 1791TIP3    H126932   5.181   3.873   1.238  0.0080  0.5554  1.7599
 1791TIP3    H226933   5.248   3.740   1.208  1.0548  1.7792 -1.8018
 1792TIP3   OH226934   5.790   6.228   8.248 -0.7514 -0.0597  0.6889
 1792TIP3    H126935   5.701   6.198   8.262 -1.0496  1.0073  1.2307
 1792TIP3    H226936   5.784   6.288   8.173 -0.5542  0.2197  0.8902
 1793TIP3   OH226937   0.159   3.687   6.603 -0.5837 -0.3087 -0.1845
 1793TIP3    H126938   0.166   3.667   6.696  0.1454  0.8188  0.0191
 1793TIP3    H226939   0.065   3.698   6.587 -0.8486 -1.9501  0.0806
 1794TIP3   OH226940   1.545   0.164   0.873 -0.2621 -0.0137 -0.0842
 1794TIP3    H126941   1.517   0.109   0.946  0.0504 -0.3953 -0.2441
 1794TIP3    H226942   1.471   0.162   0.812 -1.2021  1.6350  0.9208
 1795TIP3   OH226943   5.837   6.716   2.435  0.1258  0.4479 -0.0980
 1795TIP3    H126944   5.787   6.655   2.489 -0.9716 -0.4436 -2.0232
 1795TIP3    H226945   5.926   6.679   2.434  0.0614  0.2444  0.7002
 1796TIP3   OH226946   5.426   5.166   1.590  0.1177  0.2149  0.3333
 1796TIP3    H126947   5.417   5.159   1.685 -2.1471 -0.5670  0.1246
 1796TIP3    H226948   5.377   5.246   1.567 -1.1162 -0.7048 -0.3357
 1797TIP3   OH226949   0.196   4.084   1.257 -0.5252  0.3471  0.0027
 1797TIP3    H126950   0.125   4.113   1.315  0.2240  2.0605  0.1184
 1797TIP3    H226951   0.153   4.025   1.195 -2.2795  2.0525 -0.5050
 1798TIP3   OH226952   1.548   4.599   7.610 -0.5916  0.3721  0.3112
 1798TIP3    H126953   1.463   4.639   7.627 -1.2760 -0.3338 -1.2373
 1798TIP3    H226954   1.535   4.506   7.630  0.5231  0.6200  2.3555
 1799TIP3   OH226955   1.636   1.439   1.012 -0.2084  0.1854 -0.5844
 1799TIP3    H126956   1.654   1.345   1.012 -0.4956  0.1276 -0.5868
 1799TIP3    H226957   1.693   1.475   1.079 -1.2310 -0.2198  0.5291
 1800TIP3   OH226958   2.449   0.284   6.254 -0.4712  0.3082  0.1665
 1800TIP3    H126959   2.482   0.334   6.328 -1.3464  0.5098  0.4376
 1800TIP3    H226960   2.354   0.299   6.255 -0.9048 -1.9808  0.7645
 1801TIP3   OH226961   5.550   1.493   7.013 -0.1015  0.4875  0.0186
 1801TIP3    H126962   5.640   1.470   6.987  0.5075  2.3186  0.3735
 1801TIP3    H226963   5.518   1.547   6.941 -1.4190 -1.1748 -0.6986
 1802TIP3   OH226964   3.488   1.443   0.512 -0.5204  0.2573  0.7066
 1802TIP3    H126965   3.486   1.486   0.427  0.2149  0.0604  0.5840
 1802TIP3    H226966   3.396   1.425   0.532 -0.8453  1.6797  0.6550
 1803TIP3   OH226967   2.561   3.728   1.293 -0.7527  0.3204 -0.6027
 1803TIP3    H126968   2.556   3.774   1.377 -3.1745 -0.2683 -0.3474
 1803TIP3    H226969   2.619   3.654   1.310 -0.5351  0.6855  0.3126
 1804TIP3   OH226970   4.559   6.016   6.998  0.3409  0.2111  0.1255
 1804TIP3    H126971   4.516   6.047   7.078  0.9290  1.8856 -0.1591
 1804TIP3    H226972   4.517   5.932   6.979  0.2189 -0.2489  2.1998
 1805TIP3   OH226973   6.259   2.365   6.850 -0.0377 -0.2008  0.5194
 1805TIP3    H126974   6.305   2.335   6.928 -1.6054 -0.3264  1.4304
 1805TIP3    H226975   6.298   2.315   6.779  1.8780  0.3827  1.0795
 1806TIP3   OH226976   0.438   0.346   1.231 -0.2875  0.6837  1.2539
 1806TIP3    H126977   0.468   0.275   1.173  0.5947  1.6059  0.5335
 1806TIP3    H226978   0.465   0.426   1.186 -1.5575  1.4981  1.8914
 1807TIP3   OH226979   2.707   6.645   2.049 -0.0863  0.2732  0.2289
 1807TIP3    H126980   2.628   6.620   2.096 -0.4740  1.5032  0.2479
 1807TIP3    H226981   2.683   6.724   2.001  0.9628  0.3246 -0.2380
 1808TIP3   OH226982   3.493   1.614   0.281  0.3147  0.2435 -0.4870
 1808TIP3    H126983   3.579   1.622   0.239  0.1930 -0.8811 -0.9779
 1808TIP3    H226984   3.443   1.555   0.224 -0.0611 -0.8116  0.8697
 1809TIP3   OH226985   0.389   6.553   7.383 -0.2932 -0.6027 -0.4035
 1809TIP3    H126986   0.350   6.577   7.468 -1.1348  0.7627 -1.1468
 1809TIP3    H226987   0.483   6.566   7.395 -0.6244  2.4129 -0.5055
 1810TIP3   OH226988   6.028   5.393   1.475 -0.4945  0.3303 -0.0038
 1810TIP3    H126989   6.120   5.387   1.452 -0.3004 -1.2376  1.0830
 1810TIP3    H226990   5.985   5.331   1.416 -0.2946 -1.9375  2.1048
 1811TIP3   OH226991   2.894   3.796   8.185  0.1300 -0.0510 -0.0048
 1811TIP3    H126992   2.882   3.865   8.120  1.3262  0.1763 -0.0057
 1811TIP3    H226993   2.809   3.790   8.230  0.1812  1.8511  0.4189
 1812TIP3   OH226994   0.330   1.819   0.165  0.4634 -0.8878 -0.2332
 1812TIP3    H126995   0.366   1.870   0.092 -0.1647 -1.0115 -0.6421
 1812TIP3    H226996   0.406   1.801   0.221  0.5996  0.9916  0.2443
 1813TIP3   OH226997   6.046   4.534   7.329 -0.0974 -0.1804 -0.1508
 1813TIP3    H126998   5.958   4.504   7.355 -0.1586  1.2956  1.5537
 1813TIP3    H226999   6.099   4.454   7.331 -0.9260 -0.7381  1.0657
 1814TIP3   OH227000   1.875   2.248   7.677  0.0903 -0.0068 -0.0337
 1814TIP3    H127001   1.786   2.275   7.701  0.5645  2.3447 -0.6729
 1814TIP3    H227002   1.900   2.308   7.607  2.1937 -0.6030  0.1468
 1815TIP3   OH227003   0.250   2.861   0.802  0.1472 -0.3759 -0.2304
 1815TIP3    H127004   0.229   2.803   0.729  0.4008 -1.2448  0.3699
 1815TIP3    H227005   0.255   2.803   0.878  0.8299  0.3710  0.3093
 1816TIP3   OH227006   6.521   4.678   8.361 -0.1281 -0.5044 -0.4425
 1816TIP3    H127007   6.494   4.770   8.366  3.1226  0.5402  1.4302
 1816TIP3    H227008   6.590   4.677   8.294  0.4880 -1.3332  0.1801
 1817TIP3   OH227009   4.269   1.939   1.041  0.3885 -0.1636 -0.0795
 1817TIP3    H127010   4.180   1.943   1.076  0.9558  1.1405  1.3697
 1817TIP3    H227011   4.260   1.903   0.953 -1.5815  0.1694 -0.0429
 1818TIP3   OH227012   4.258   0.274   7.274 -0.1259  0.3870 -0.5749
 1818TIP3    H127013   4.331   0.213   7.266  0.4515  1.0675 -0.5425
 1818TIP3    H227014   4.296   0.360   7.261 -0.5072  0.9618  1.6718
 1819TIP3   OH227015   3.966   0.370   7.952 -0.0895 -0.2609 -0.5776
 1819TIP3    H127016   3.935   0.459   7.968 -1.6104 -0.5863 -1.5567
 1819TIP3    H227017   4.021   0.350   8.028 -0.3050  1.2352  0.0095
 1820TIP3   OH227018   3.161   1.506   1.341  0.1829  0.2810  0.1846
 1820TIP3    H127019   3.134   1.567   1.410  3.7966  0.0747  2.0256
 1820TIP3    H227020   3.163   1.421   1.384 -1.3187 -0.6072 -1.3735
 1821TIP3   OH227021   0.086   6.152   7.376 -0.1381  0.4597 -0.1194
 1821TIP3    H127022   0.062   6.219   7.312 -1.2214  0.3197  0.1270
 1821TIP3    H227023   0.134   6.087   7.325  1.2419  1.5713 -0.2993
 1822TIP3   OH227024   3.101   6.635   7.008 -0.5866 -0.3903 -0.1054
 1822TIP3    H127025   3.033   6.701   6.995 -0.5211 -0.3628 -0.3144
 1822TIP3    H227026   3.123   6.641   7.101 -2.1513 -1.6411  0.3943
 1823TIP3   OH227027   6.208   1.613   0.291 -0.1347 -0.1413 -0.0384
 1823TIP3    H127028   6.201   1.644   0.201  1.0060 -0.8388 -0.3772
 1823TIP3    H227029   6.118   1.586   0.313 -0.5953  0.8117 -0.6569
 1824TIP3   OH227030   4.819   3.903   1.047  0.3864  0.2114 -0.1256
 1824TIP3    H127031   4.828   3.894   1.142  0.1933  0.7126 -0.0571
 1824TIP3    H227032   4.759   3.833   1.022 -1.6742  1.6636  0.5045
 1825TIP3   OH227033   0.895   5.552   7.633  0.3734 -0.1520  0.1897
 1825TIP3    H127034   0.957   5.533   7.563  0.6297 -0.5517  0.5247
 1825TIP3    H227035   0.809   5.540   7.593  0.5158 -0.0221 -0.1561
 1826TIP3   OH227036   4.773   1.935   8.589  0.3504  0.0963 -0.2557
 1826TIP3    H127037   4.845   1.974   8.539 -0.3791 -0.4355 -1.8006
 1826TIP3    H227038   4.769   1.845   8.559  1.2021 -0.9084  2.3462
 1827TIP3   OH227039   5.830   0.399   0.226 -0.2336 -0.0579 -0.2206
 1827TIP3    H127040   5.824   0.399   0.321 -0.0806 -0.8961 -0.2075
 1827TIP3    H227041   5.742   0.377   0.196 -0.3323  0.4059 -0.2814
 1828TIP3   OH227042   2.752   0.632   0.977 -0.1051 -0.4418  0.2951
 1828TIP3    H127043   2.760   0.727   0.970  0.0670 -0.3043  1.9883
 1828TIP3    H227044   2.761   0.614   1.071 -1.6149 -1.9954  0.1867
 1829TIP3   OH227045   4.479   0.084   0.140 -0.0930 -0.0374  0.1186
 1829TIP3    H127046   4.482   0.143   0.215 -1.7523  0.9190 -0.5180
 1829TIP3    H227047   4.455  -0.001   0.177 -1.9428  0.6495  0.5974
 1830TIP3   OH227048   4.000   3.186   6.458  0.0919 -0.1436  0.0876
 1830TIP3    H127049   3.944   3.248   6.504  0.5036  0.1402  0.2125
 1830TIP3    H227050   3.978   3.197   6.365 -0.8070 -0.7825  0.2115
 1831TIP3   OH227051   4.092   0.527   1.606 -0.3230  0.2244 -0.0019
 1831TIP3    H127052   4.155   0.555   1.672  0.5337 -3.4802  0.9983
 1831TIP3    H227053   4.131   0.553   1.522 -0.2999  2.9113  0.7507
 1832TIP3   OH227054   3.518   4.445   6.967 -0.0194 -0.2979 -0.3970
 1832TIP3    H127055   3.563   4.485   6.893 -0.6562 -0.6937 -1.0173
 1832TIP3    H227056   3.490   4.359   6.935 -0.6226 -0.3287  0.1777
 1833TIP3   OH227057   3.931   2.622   0.050  0.7808 -0.1819 -0.6464
 1833TIP3    H127058   3.895   2.624   0.138 -0.2417 -0.8822 -1.0252
 1833TIP3    H227059   4.024   2.602   0.062  0.8486  0.6463  0.3014
 1834TIP3   OH227060   0.295   1.674   7.940 -0.6193 -0.1432 -0.0278
 1834TIP3    H127061   0.360   1.633   7.882 -0.8722 -3.3813  1.7679
 1834TIP3    H227062   0.215   1.676   7.888 -0.0108  0.4006 -0.9850
 1835TIP3   OH227063   4.199   5.525   2.095 -1.4155  0.3983 -0.1295
 1835TIP3    H127064   4.202   5.441   2.140  1.2663 -0.0947 -1.0841
 1835TIP3    H227065   4.143   5.579   2.151 -1.2214 -1.2733  1.8169
 1836TIP3   OH227066   2.803   3.752   0.480 -0.1395 -0.8280  0.2158
 1836TIP3    H127067   2.883   3.792   0.516  0.3356 -1.3348 -0.2596
 1836TIP3    H227068   2.789   3.797   0.397 -0.6327 -0.3999  0.5253
 1837TIP3   OH227069   1.977   4.146   6.451 -0.6371 -1.0901  0.6709
 1837TIP3    H127070   1.899   4.192   6.419 -0.2040 -1.1930 -0.6084
 1837TIP3    H227071   1.975   4.159   6.546 -1.3281  0.2976  0.5002
 1838TIP3   OH227072   1.134   0.765   1.309 -0.1895 -0.1479 -0.1785
 1838TIP3    H127073   1.100   0.854   1.319  2.2635  0.9108 -0.6931
 1838TIP3    H227074   1.161   0.760   1.217 -0.1686 -1.3905 -0.1235
 1839TIP3   OH227075   0.938   3.877   0.074  1.2016  0.0004  0.0219
 1839TIP3    H127076   0.863   3.827   0.044  0.7888 -0.0728  1.1586
 1839TIP3    H227077   0.909   3.969   0.070  0.4122 -0.1147  2.1062
 1840TIP3   OH227078   2.782   1.895   2.014 -0.0305 -0.3047  0.4617
 1840TIP3    H127079   2.814   1.985   2.013  1.1222 -0.6636  1.9994
 1840TIP3    H227080   2.820   1.855   1.936 -3.4127  1.3795 -2.3313
 1841TIP3   OH227081   4.732   5.877   7.937  0.5839  0.3759  0.2965
 1841TIP3    H127082   4.751   5.795   7.983 -0.0191 -0.1081 -0.3018
 1841TIP3    H227083   4.728   5.853   7.845 -2.4397  0.4956  0.2935
 1842TIP3   OH227084   1.950   4.229   0.803 -0.3593 -0.1561  0.2121
 1842TIP3    H127085   1.915   4.160   0.860 -1.5278 -0.4094 -0.7582
 1842TIP3    H227086   1.873   4.260   0.754 -0.2844  3.2611  2.0162
 1843TIP3   OH227087   2.221   1.197   7.205  0.0428  0.1413  0.0196
 1843TIP3    H127088   2.284   1.129   7.226 -2.0070 -1.5051  1.2206
 1843TIP3    H227089   2.194   1.232   7.289 -1.7054 -0.2498 -0.3399
 1844TIP3   OH227090   1.212   5.680   0.099  0.5581 -0.0193 -0.0294
 1844TIP3    H127091   1.233   5.647   0.011  0.8506  2.6113 -1.0364
 1844TIP3    H227092   1.265   5.760   0.108 -1.7630  1.4709  1.3005
 1845TIP3   OH227093   2.675   2.179   8.083 -0.6557  0.3743 -0.1395
 1845TIP3    H127094   2.664   2.221   8.168  0.7458  4.0239 -1.5748
 1845TIP3    H227095   2.589   2.186   8.041 -0.5030  1.7301 -0.2651
 1846TIP3   OH227096   1.625   4.135   7.153  0.4743 -0.1055 -0.8705
 1846TIP3    H127097   1.694   4.069   7.146  1.7840  1.1200 -0.0851
 1846TIP3    H227098   1.627   4.181   7.069  0.5164 -0.1773 -0.9081
 1847TIP3   OH227099   2.805   2.643   7.183  0.4964 -0.1133 -0.1166
 1847TIP3    H127100   2.874   2.661   7.246  1.2448 -2.4767 -0.1694
 1847TIP3    H227101   2.846   2.654   7.098 -0.0679  1.4281 -0.2325
 1848TIP3   OH227102   3.458   5.775   0.152  0.3779 -0.4111  0.8676
 1848TIP3    H127103   3.418   5.836   0.090  0.9316 -0.5036  0.4121
 1848TIP3    H227104   3.529   5.825   0.193  2.4154 -1.3870 -1.2156
 1849TIP3   OH227105   1.861   3.749   1.144  0.0493  0.6502  0.6507
 1849TIP3    H127106   1.928   3.764   1.076 -0.6357  3.0084  0.4055
 1849TIP3    H227107   1.907   3.766   1.226  0.6201 -1.2264  0.7589
 1850TIP3   OH227108   4.620   1.066   0.432 -0.1356 -0.6376 -0.2204
 1850TIP3    H127109   4.625   1.082   0.338 -0.1663 -0.0530 -0.1282
 1850TIP3    H227110   4.708   1.038   0.457 -0.1027 -0.6971 -0.4074
 1851TIP3   OH227111   2.183   5.891   8.014 -0.0235  0.6178 -0.0520
 1851TIP3    H127112   2.107   5.943   7.989  0.3550  0.9570 -0.5279
 1851TIP3    H227113   2.207   5.844   7.934 -0.6179 -0.6477  0.4729
 1852TIP3   OH227114   1.682   0.992   0.347  0.6320  0.4428  0.4150
 1852TIP3    H127115   1.688   1.066   0.407 -1.5669 -0.0375  1.3241
 1852TIP3    H227116   1.648   1.029   0.266  0.2730  0.5583  0.6165
 1853TIP3   OH227117   2.726   2.583   1.379 -0.0074  0.0262  0.3318
 1853TIP3    H127118   2.793   2.515   1.382 -1.1904 -1.2009 -0.3727
 1853TIP3    H227119   2.717   2.604   1.286  1.5677  2.4594  0.6172
 1854TIP3   OH227120   5.792   6.742   7.314  0.3034  0.7575  0.1611
 1854TIP3    H127121   5.866   6.804   7.309 -0.6678  2.1483  1.8128
 1854TIP3    H227122   5.740   6.761   7.236  0.8210  0.9250 -0.1535
 1855TIP3   OH227123   4.783   0.745   8.394 -0.2508 -0.0723 -0.3082
 1855TIP3    H127124   4.824   0.764   8.310  0.2554  1.3069  0.2234
 1855TIP3    H227125   4.849   0.695   8.443  0.1546  0.6694 -0.0847
 1856TIP3   OH227126   5.858   5.462   0.919 -0.5034 -0.9301  0.2100
 1856TIP3    H127127   5.886   5.448   1.009 -0.0872  3.6701  1.0455
 1856TIP3    H227128   5.767   5.489   0.926 -0.6342 -1.0690 -0.8098
 1857TIP3   OH227129   4.446   1.216   0.607 -0.0551 -0.0929 -0.2063
 1857TIP3    H127130   4.510   1.258   0.664 -0.3650 -2.5398  2.1299
 1857TIP3    H227131   4.498   1.177   0.537  0.5514  1.1640 -0.4839
 1858TIP3   OH227132   1.194   6.674   1.215  0.3382 -0.5064 -0.2271
 1858TIP3    H127133   1.098   6.679   1.216  0.3753  1.6142 -1.2213
 1858TIP3    H227134   1.214   6.601   1.156 -0.6370 -1.5557  0.6903
 1859TIP3   OH227135   6.747   6.523   8.675  0.1774 -0.1368  0.0481
 1859TIP3    H127136   6.817   6.562   8.622 -0.6276  0.7905 -0.3697
 1859TIP3    H227137   6.670   6.577   8.656 -0.4039 -0.4811  1.3173
 1860TIP3   OH227138   3.406   4.348   7.775  0.7498 -0.4084  0.0372
 1860TIP3    H127139   3.359   4.393   7.705 -1.1884 -1.8769  0.3341
 1860TIP3    H227140   3.338   4.310   7.830  2.2473 -0.4884  1.9602
 1861TIP3   OH227141   5.239   3.783   7.005  0.1557 -0.3858  0.2422
 1861TIP3    H127142   5.266   3.739   7.086 -1.6047 -0.4152  0.8619
 1861TIP3    H227143   5.167   3.730   6.972 -0.9359  1.1130  0.1310
 1862TIP3   OH227144   5.287   0.227   7.295 -0.2240 -0.0073  0.1692
 1862TIP3    H127145   5.292   0.285   7.219  0.8447 -1.5283 -0.9797
 1862TIP3    H227146   5.219   0.267   7.351 -0.8690  1.2878 -1.4425
 1863TIP3   OH227147   1.786   2.473   7.222 -0.2398  0.3449 -0.5755
 1863TIP3    H127148   1.856   2.534   7.198  0.8813 -0.6762 -0.0199
 1863TIP3    H227149   1.776   2.416   7.145  0.1139 -0.0111 -0.3633
 1864TIP3   OH227150   1.707   4.334   0.689 -0.1025 -0.3940 -0.1155
 1864TIP3    H127151   1.713   4.429   0.682  0.5059 -0.3888  0.4121
 1864TIP3    H227152   1.641   4.319   0.757 -0.2205 -0.3513 -0.2206
 1865TIP3   OH227153   6.050   5.048   0.452  0.3619 -0.0573  0.3814
 1865TIP3    H127154   5.983   5.114   0.469 -0.0712 -0.4026  0.0055
 1865TIP3    H227155   6.124   5.098   0.418 -0.4679  0.0982 -1.2926
 1866TIP3   OH227156   4.638   2.143   8.481 -0.4627 -0.0408  0.2438
 1866TIP3    H127157   4.690   2.081   8.533 -0.2614 -0.4993 -0.4768
 1866TIP3    H227158   4.653   2.115   8.391 -0.8448  0.7080 -0.0543
 1867TIP3   OH227159   3.120   6.480   1.574 -0.6580 -0.4806  0.8255
 1867TIP3    H127160   3.058   6.517   1.511 -0.1554 -0.2465  0.4610
 1867TIP3    H227161   3.206   6.508   1.542 -0.4564  0.5930  2.2531
 1868TIP3   OH227162   2.319   4.643   1.978 -0.6576  0.4517  0.4209
 1868TIP3    H127163   2.258   4.714   1.960 -0.0996  1.0636  0.8908
 1868TIP3    H227164   2.405   4.677   1.952 -0.5389 -0.5066 -0.5133
 1869TIP3   OH227165   4.900   5.482   1.578  0.2234 -0.6986 -0.1724
 1869TIP3    H127166   4.991   5.473   1.550  0.3147 -0.3832  0.0196
 1869TIP3    H227167   4.888   5.413   1.643  1.3101  1.3049  2.3059
 1870TIP3   OH227168   0.330   3.422   6.889 -0.0060 -0.4980  0.1439
 1870TIP3    H127169   0.365   3.383   6.969  1.0050 -0.5181 -0.2951
 1870TIP3    H227170   0.397   3.407   6.823 -1.1973 -1.2595 -0.9399
 1871TIP3   OH227171   5.501   1.233   7.124 -0.2494  0.0630  0.3044
 1871TIP3    H127172   5.487   1.175   7.048 -2.1425  1.1663 -0.2298
 1871TIP3    H227173   5.519   1.319   7.085  2.1671  0.0001  1.1039
 1872TIP3   OH227174   1.586   0.996   8.397 -0.5516 -0.5124  0.2066
 1872TIP3    H127175   1.613   1.051   8.470 -0.2947  0.7904 -0.8143
 1872TIP3    H227176   1.662   0.940   8.380  1.6997  2.8715 -2.4163
 1873TIP3   OH227177   2.402   3.496   1.237  0.5067  0.2694  0.2008
 1873TIP3    H127178   2.415   3.589   1.256 -0.2632  0.4419 -0.0948
 1873TIP3    H227179   2.421   3.452   1.320 -1.0885  0.8620  0.9253
 1874TIP3   OH227180   4.033   5.711   0.041  0.2137 -0.3286  0.3378
 1874TIP3    H127181   4.074   5.674  -0.038 -0.4333  0.4761 -0.4020
 1874TIP3    H227182   3.945   5.736   0.013  0.2257  0.6707  1.1095
 1875TIP3   OH227183   0.839   2.291   2.112  0.2614  0.1742 -0.5835
 1875TIP3    H127184   0.798   2.215   2.069  0.8391 -0.7109  0.3650
 1875TIP3    H227185   0.868   2.257   2.197  0.2082  1.5684  0.0243
 1876TIP3   OH227186   4.555   3.207   0.791  0.1081 -0.6847 -0.8444
 1876TIP3    H127187   4.637   3.170   0.824  1.6065  1.9793 -1.2373
 1876TIP3    H227188   4.552   3.295   0.829 -3.2680 -1.0743  0.1598
 1877TIP3   OH227189   0.831   3.515   8.177 -0.2506  0.2587  0.2051
 1877TIP3    H127190   0.911   3.478   8.214  0.3599  2.1437  0.8684
 1877TIP3    H227191   0.826   3.604   8.212 -0.6550  1.5152 -2.7221
 1878TIP3   OH227192   1.809   6.021   8.421 -0.5035  0.0308  0.2398
 1878TIP3    H127193   1.789   6.066   8.503  1.0990 -1.4370  1.5275
 1878TIP3    H227194   1.768   5.935   8.429 -0.2409 -0.1719 -0.4382
 1879TIP3   OH227195   0.793   0.371   2.050  0.8865  0.2104  0.0540
 1879TIP3    H127196   0.813   0.457   2.087 -1.5199  0.2025  1.5000
 1879TIP3    H227197   0.741   0.390   1.972 -3.4583  0.2114  2.6504
 1880TIP3   OH227198   0.603   5.689   8.306  0.5646  0.3350 -0.1465
 1880TIP3    H127199   0.530   5.688   8.367  0.1001 -0.5819 -0.6963
 1880TIP3    H227200   0.649   5.607   8.323  0.8970  0.4504 -0.4752
 1881TIP3   OH227201   0.852   4.723   7.065  0.3750 -0.1171 -0.3081
 1881TIP3    H127202   0.892   4.711   7.151  0.7529 -0.5609 -0.5365
 1881TIP3    H227203   0.794   4.647   7.054  0.2891 -0.0368 -0.4226
 1882TIP3   OH227204   2.757   4.168   1.760 -0.2014  0.3896 -0.5377
 1882TIP3    H127205   2.743   4.179   1.666 -1.2388  1.9113 -0.2515
 1882TIP3    H227206   2.813   4.242   1.785 -0.2659  0.2307  0.1033
 1883TIP3   OH227207   2.856   6.014   1.432 -0.8098  0.1392  0.4054
 1883TIP3    H127208   2.939   6.039   1.391 -0.8136 -0.2455  0.1630
 1883TIP3    H227209   2.838   5.926   1.399 -1.5502  0.3995  0.0919
 1884TIP3   OH227210   0.791   0.653   0.788 -0.5313 -0.4497 -0.0704
 1884TIP3    H127211   0.774   0.574   0.839 -4.4453 -1.1513 -2.0949
 1884TIP3    H227212   0.724   0.715   0.816 -0.5312  0.3890 -1.8059
 1885TIP3   OH227213   4.302   0.766   1.549 -0.6815 -0.7301 -0.7203
 1885TIP3    H127214   4.318   0.839   1.609 -2.7979 -1.8202  1.3512
 1885TIP3    H227215   4.372   0.704   1.568 -1.1101 -0.8967  0.4637
 1886TIP3   OH227216   5.330   4.034   1.645  0.2730 -0.3162 -0.1622
 1886TIP3    H127217   5.250   4.076   1.677 -0.8742 -1.6265 -1.1942
 1886TIP3    H227218   5.371   3.999   1.724  0.2910  1.0674  0.4833
 1887TIP3   OH227219   2.298   2.812   7.815 -0.1195 -0.3808  0.6250
 1887TIP3    H127220   2.222   2.832   7.760  0.0831 -0.4614  0.3098
 1887TIP3    H227221   2.264   2.813   7.904 -0.1197  1.3326  0.6342
 1888TIP3   OH227222   4.357   2.583   8.052 -0.4997  0.4711 -0.2170
 1888TIP3    H127223   4.323   2.499   8.021 -2.1164  1.1047 -0.2249
 1888TIP3    H227224   4.452   2.570   8.057 -0.7216 -1.3551 -0.1971
 1889TIP3   OH227225   5.496   1.349   8.177  0.0066  0.1423  0.6217
 1889TIP3    H127226   5.549   1.415   8.132  0.2751  0.6651  1.6670
 1889TIP3    H227227   5.555   1.310   8.241 -0.2082 -1.0032  0.1358
 1890TIP3   OH227228   6.395   3.915   8.569  0.0556  0.3881  0.3343
 1890TIP3    H127229   6.319   3.973   8.570  0.5268  1.0028  0.6059
 1890TIP3    H227230   6.462   3.962   8.618  0.4199 -0.4157  0.6267
 1891TIP3   OH227231   5.868   1.339   8.137  0.2672  0.5019 -0.1611
 1891TIP3    H127232   5.844   1.430   8.152 -0.9257 -0.0873  2.0423
 1891TIP3    H227233   5.844   1.295   8.219  1.5402 -1.6488 -0.8694
 1892TIP3   OH227234   1.408   6.721   0.858  0.1870  0.2255  0.0911
 1892TIP3    H127235   1.471   6.759   0.798 -0.1889 -1.4394 -1.4385
 1892TIP3    H227236   1.453   6.721   0.943  1.4212  0.9760 -0.5410
 1893TIP3   OH227237   3.920   4.784   1.798 -0.0868 -0.4195 -0.4188
 1893TIP3    H127238   3.826   4.797   1.788 -0.3055 -0.7246  1.0289
 1893TIP3    H227239   3.938   4.705   1.747 -0.9361 -1.2981  0.5786
 1894TIP3   OH227240   0.619   5.266   0.028  0.3919  0.3912 -0.5314
 1894TIP3    H127241   0.677   5.209   0.078 -2.7057 -0.1521  2.8876
 1894TIP3    H227242   0.661   5.353   0.033  1.3651 -0.1187  1.0413
 1895TIP3   OH227243   6.242   1.126   1.968  0.1789  0.4668 -0.4112
 1895TIP3    H127244   6.212   1.037   1.947 -2.0663  1.4063 -1.5276
 1895TIP3    H227245   6.214   1.140   2.058  1.6975 -0.3505  0.2361
 1896TIP3   OH227246   5.848   3.531   0.943 -0.3307  0.2054 -0.1202
 1896TIP3    H127247   5.781   3.480   0.989 -0.9759  1.7689  0.7724
 1896TIP3    H227248   5.855   3.490   0.857 -2.1726 -0.2432 -0.1034
 1897TIP3   OH227249   4.413   5.460   1.168  0.2377 -0.1187  0.0656
 1897TIP3    H127250   4.496   5.427   1.202  0.4596  2.3894  2.2522
 1897TIP3    H227251   4.360   5.476   1.246 -1.5633  0.2565 -1.1724
 1898TIP3   OH227252   1.104   2.611   1.528 -0.4948  0.3761  0.1456
 1898TIP3    H127253   1.138   2.648   1.609  0.1290  1.7538 -0.7094
 1898TIP3    H227254   1.010   2.624   1.532 -0.4208  0.8277  0.4657
 1899TIP3   OH227255   4.383   5.728   8.315  0.3100  0.7704  0.2683
 1899TIP3    H127256   4.418   5.805   8.360 -0.9234  1.2850  0.3716
 1899TIP3    H227257   4.313   5.697   8.372 -0.0383  0.3215 -0.3948
 1900TIP3   OH227258   5.838   6.220   6.272  0.3115  0.0525 -0.7385
 1900TIP3    H127259   5.776   6.274   6.321  0.6474 -0.7048  0.5792
 1900TIP3    H227260   5.791   6.139   6.253  0.6587 -0.2634 -0.3022
 1901TIP3   OH227261   6.275   4.674   7.286 -0.4275 -0.3692  0.4790
 1901TIP3    H127262   6.297   4.628   7.204  0.1064  2.7492 -1.2953
 1901TIP3    H227263   6.190   4.639   7.310 -0.1598 -2.1035 -0.8414
 1902TIP3   OH227264   1.184   2.402   8.362 -0.3827 -0.3592  0.1929
 1902TIP3    H127265   1.163   2.370   8.450  1.0447 -3.0201 -0.3492
 1902TIP3    H227266   1.262   2.353   8.336  1.0382  2.4754 -1.4547
 1903TIP3   OH227267   5.922   1.609   8.591 -0.5258 -0.1063 -0.5351
 1903TIP3    H127268   5.983   1.603   8.517  0.5585  0.7101  0.2585
 1903TIP3    H227269   5.850   1.663   8.559 -0.7926 -0.9451 -1.4336
 1904TIP3   OH227270   4.125   1.409   1.409 -0.1243 -0.4075 -0.2167
 1904TIP3    H127271   4.081   1.410   1.494  0.2633 -2.3683  0.0429
 1904TIP3    H227272   4.125   1.317   1.382  1.1808 -0.0526 -1.6002
 1905TIP3   OH227273   2.207   2.485   0.983  0.2873 -0.6928  0.2092
 1905TIP3    H127274   2.273   2.440   0.931  0.7870 -1.3491  1.3746
 1905TIP3    H227275   2.179   2.558   0.928  0.6879 -1.4362 -1.0290
 1906TIP3   OH227276   4.917   5.390   7.688  0.4133 -0.2397 -0.0381
 1906TIP3    H127277   4.828   5.426   7.687  0.7653  0.6589  0.3916
 1906TIP3    H227278   4.940   5.386   7.780  1.0916  0.2370 -0.1797
 1907TIP3   OH227279   4.375   2.895   0.561 -0.0267  0.4591  0.1972
 1907TIP3    H127280   4.368   2.989   0.544  0.8518  0.3544 -0.8197
 1907TIP3    H227281   4.373   2.888   0.657 -1.1405  1.4100  0.2783
 1908TIP3   OH227282   3.464   6.032   8.677  0.1346  0.4919  0.2297
 1908TIP3    H127283   3.385   6.031   8.731 -0.2601 -0.2034 -0.3383
 1908TIP3    H227284   3.436   5.996   8.593  0.9876  0.5414 -0.0880
 1909TIP3   OH227285   1.208   4.023   1.319  0.1548  0.8120  0.2357
 1909TIP3    H127286   1.266   3.947   1.327  0.8992  1.1205 -1.5919
 1909TIP3    H227287   1.265   4.092   1.286 -0.6506  2.0000  1.2588
 1910TIP3   OH227288   4.375   3.469   1.948  0.0822  0.8935  0.1748
 1910TIP3    H127289   4.360   3.484   2.041  1.3370  1.8802  0.2537
 1910TIP3    H227290   4.464   3.501   1.933  0.2719 -0.1848 -1.1623
 1911TIP3   OH227291   3.838   0.040   0.887  0.0256  0.5606 -0.2323
 1911TIP3    H127292   3.776   0.015   0.956  1.6325 -0.4830  0.9263
 1911TIP3    H227293   3.799   0.008   0.806 -0.5955 -0.7224  0.5514
 1912TIP3   OH227294   5.843   4.855   1.651  0.1162 -0.2015  0.0592
 1912TIP3    H127295   5.912   4.910   1.689 -2.0247  1.6835  1.5020
 1912TIP3    H227296   5.767   4.913   1.644 -1.3804 -2.1885 -1.3931
 1913TIP3   OH227297   1.294   3.222   1.780  0.0747 -0.1550 -0.5728
 1913TIP3    H127298   1.326   3.284   1.845 -0.8513  0.6626 -0.8772
 1913TIP3    H227299   1.202   3.208   1.804 -0.6384  1.1248 -2.4144
 1914TIP3   OH227300   1.689   5.061   8.691 -0.5269 -0.4705 -0.0333
 1914TIP3    H127301   1.684   4.994   8.623  0.0331 -0.5145 -0.0374
 1914TIP3    H227302   1.622   5.036   8.755 -2.0943  0.4072 -1.2846
 1915TIP3   OH227303   0.681   1.168   6.573  0.3620  0.4041  0.3008
 1915TIP3    H127304   0.661   1.132   6.486 -1.9461  0.3098  0.7967
 1915TIP3    H227305   0.741   1.106   6.612  0.2876 -0.3239 -0.7021
 1916TIP3   OH227306   2.073   3.867   7.131  0.4616 -0.2079 -0.1539
 1916TIP3    H127307   2.136   3.908   7.070  1.4758  0.0214  1.0063
 1916TIP3    H227308   2.094   3.774   7.127  2.0209  0.0195  1.4137
 1917TIP3   OH227309   1.835   0.138   2.190  0.2325  0.0812  0.3595
 1917TIP3    H127310   1.809   0.230   2.203  0.2515  0.1295  0.0571
 1917TIP3    H227311   1.756   0.095   2.161 -0.4287 -0.5212  2.8000
 1918TIP3   OH227312   3.146   5.766   6.796 -0.3344  0.3986 -0.1482
 1918TIP3    H127313   3.116   5.856   6.811 -1.1494  0.4728 -2.0234
 1918TIP3    H227314   3.190   5.769   6.711 -0.5558 -1.0214 -0.3288
 1919TIP3   OH227315   3.510   0.424   6.774 -0.1685 -0.3289 -0.0412
 1919TIP3    H127316   3.478   0.336   6.793 -1.9061 -0.1660 -1.9154
 1919TIP3    H227317   3.432   0.474   6.749  0.9591  1.3637 -0.3825
 1920TIP3   OH227318   1.766   5.041   1.893 -0.3840  0.7349  0.1101
 1920TIP3    H127319   1.701   4.973   1.879  1.6424 -1.0634 -1.1733
 1920TIP3    H227320   1.725   5.101   1.955 -1.7878 -2.3979  2.5009
 1921TIP3   OH227321   2.635   4.630   6.973 -0.0930 -0.6138 -0.1328
 1921TIP3    H127322   2.560   4.655   6.920  0.3049  0.0393 -0.3924
 1921TIP3    H227323   2.692   4.580   6.913 -0.4005 -1.2694  0.1118
 1922TIP3   OH227324   3.760   0.995   6.607 -0.1932 -0.3257 -0.1191
 1922TIP3    H127325   3.795   1.083   6.622 -1.2338  0.1924 -0.6143
 1922TIP3    H227326   3.756   0.986   6.512 -0.7870 -0.6179 -0.0721
 1923TIP3   OH227327   2.245   2.556   0.263 -0.8382  0.0826 -0.1610
 1923TIP3    H127328   2.292   2.640   0.266  0.0710 -0.3812 -0.7994
 1923TIP3    H227329   2.235   2.538   0.170 -0.7258 -0.6813 -0.0293
 1924TIP3   OH227330   0.381   4.079   0.269  0.1752  0.1947 -0.4519
 1924TIP3    H127331   0.401   4.138   0.196  0.0992  0.4546 -0.2643
 1924TIP3    H227332   0.286   4.066   0.263  0.1931  0.0875 -0.4970
 1925TIP3   OH227333   5.733   6.057   2.021  0.4166  0.3431 -0.4951
 1925TIP3    H127334   5.733   6.135   2.077  0.0084 -1.0487  1.5674
 1925TIP3    H227335   5.667   6.000   2.059  1.8684 -1.7277 -0.8774
 1926TIP3   OH227336   3.918   3.097   7.299 -0.1682  0.2273  0.1299
 1926TIP3    H127337   3.989   3.139   7.251 -0.4376  0.0314 -0.4472
 1926TIP3    H227338   3.863   3.057   7.231 -0.9488  0.5682  0.5483
 1927TIP3   OH227339   1.608   4.388   8.136 -0.2344 -0.8014  0.5066
 1927TIP3    H127340   1.529   4.349   8.097 -1.5400  1.6775  0.4104
 1927TIP3    H227341   1.656   4.424   8.061 -0.5918  0.3025  0.7845
 1928TIP3   OH227342   3.106   6.840   6.724  0.2371 -0.9486  0.5712
 1928TIP3    H127343   3.046   6.865   6.795 -1.1923 -0.5352 -0.7429
 1928TIP3    H227344   3.156   6.919   6.706 -0.4973 -0.5936  0.0683
 1929TIP3   OH227345   1.986   3.062   8.644  0.3558 -0.3059  0.1841
 1929TIP3    H127346   1.914   3.123   8.661  0.0794 -0.9642  1.5875
 1929TIP3    H227347   2.061   3.118   8.626  0.4971  0.5979  3.0165
 1930TIP3   OH227348   5.074   3.914   7.287 -0.9274 -0.3037 -0.2023
 1930TIP3    H127349   5.135   3.970   7.240 -0.3361 -1.0786 -0.3775
 1930TIP3    H227350   5.105   3.825   7.271 -0.5315 -0.5851  1.8507
 1931TIP3   OH227351   5.995   4.252   6.796  0.1820  0.0841  0.1900
 1931TIP3    H127352   5.928   4.240   6.728  0.3013 -0.0647  0.0964
 1931TIP3    H227353   6.023   4.343   6.786  0.4206 -0.0265 -0.1697
 1932TIP3   OH227354   5.610   2.013   7.133  0.3323  0.0191 -0.0381
 1932TIP3    H127355   5.588   1.965   7.054 -3.1982 -0.4314  1.0364
 1932TIP3    H227356   5.547   1.982   7.199  2.6642  0.8273  2.8017
 1933TIP3   OH227357   6.839   4.076   0.560 -0.2714 -0.5184 -0.2988
 1933TIP3    H127358   6.800   4.161   0.579 -3.4542 -2.1875  1.5257
 1933TIP3    H227359   6.915   4.071   0.618 -2.6322 -0.5185  3.1048
 1934TIP3   OH227360   4.940   0.083   6.352 -0.5199 -0.0783 -0.3188
 1934TIP3    H127361   4.926  -0.008   6.325  1.3374 -0.0708 -1.5370
 1934TIP3    H227362   4.992   0.077   6.432  0.7568 -0.1545 -1.1096
 1935TIP3   OH227363   1.668   1.689   0.843 -0.0389  0.1780 -0.0144
 1935TIP3    H127364   1.661   1.781   0.869  2.0139  0.8887 -1.7009
 1935TIP3    H227365   1.671   1.641   0.926  1.1996  1.8648  0.9950
 1936TIP3   OH227366   6.617   1.663   2.145 -0.4785 -0.7224 -0.2411
 1936TIP3    H127367   6.529   1.634   2.172 -1.2519  1.5830 -0.0505
 1936TIP3    H227368   6.635   1.612   2.067 -2.5483 -0.4408 -0.9829
 1937TIP3   OH227369   5.032   0.256   8.515  0.1488 -0.0304 -0.3894
 1937TIP3    H127370   5.096   0.203   8.467  1.4451 -0.4467  1.7061
 1937TIP3    H227371   5.068   0.345   8.513  1.7475 -0.5358  2.1735
 1938TIP3   OH227372   4.352   3.781   8.406  0.1389  0.2644  0.1853
 1938TIP3    H127373   4.371   3.696   8.444 -0.3786  0.1306  0.1539
 1938TIP3    H227374   4.398   3.782   8.322 -2.2148 -1.1777 -1.2395
 1939TIP3   OH227375   2.091   1.232   8.204  0.0429  0.3056 -0.1510
 1939TIP3    H127376   2.100   1.150   8.254 -4.6201 -1.3950 -1.5710
 1939TIP3    H227377   2.091   1.204   8.113 -0.1584  2.1029 -0.7372
 1940TIP3   OH227378   0.412   0.225   8.465  0.1854  0.4188 -0.2319
 1940TIP3    H127379   0.374   0.287   8.526  0.2565  0.0075  0.2356
 1940TIP3    H227380   0.430   0.147   8.517 -0.3652 -0.1808 -0.9166
 1941TIP3   OH227381   3.965   5.068   7.603  0.1645 -0.2257  0.0829
 1941TIP3    H127382   3.927   5.131   7.541 -2.6474  0.1066  1.9399
 1941TIP3    H227383   4.056   5.096   7.613 -0.1338  1.5421 -1.6082
 1942TIP3   OH227384   5.432   0.983   6.121 -0.1626 -0.3276  0.0036
 1942TIP3    H127385   5.411   0.899   6.080  0.5976 -1.5586  1.9929
 1942TIP3    H227386   5.393   0.977   6.208  1.0444  0.8606  0.6498
 1943TIP3   OH227387   1.758   2.103   1.977  0.3626 -0.0957 -0.4546
 1943TIP3    H127388   1.836   2.137   2.022 -1.2301  0.6907  1.8798
 1943TIP3    H227389   1.705   2.181   1.960 -0.9441 -0.8350  0.1121
 1944TIP3   OH227390   5.274   0.627   0.063  0.2959 -0.1941 -0.4081
 1944TIP3    H127391   5.191   0.578   0.061 -0.5827  1.1854  0.7077
 1944TIP3    H227392   5.265   0.687   0.136  1.8255  0.8290 -1.0065
 1945TIP3   OH227393   5.814   5.577   8.041 -0.5896 -0.3021  0.3432
 1945TIP3    H127394   5.879   5.511   8.016 -0.2552 -0.5160  1.6861
 1945TIP3    H227395   5.739   5.526   8.071 -1.5951 -0.0631 -1.5882
 1946TIP3   OH227396   2.916   3.005   0.728 -0.3144 -0.2430 -0.1862
 1946TIP3    H127397   2.837   2.958   0.756  0.1559 -1.4406 -0.7798
 1946TIP3    H227398   2.987   2.959   0.774 -0.0658  2.0454  1.9209
 1947TIP3   OH227399   3.204   2.900   0.317  0.1751 -0.5695 -0.2341
 1947TIP3    H127400   3.118   2.898   0.359 -0.6688 -0.1517 -1.8568
 1947TIP3    H227401   3.267   2.901   0.389 -1.2230  1.2861  1.0201
 1948TIP3   OH227402   6.131   5.327   0.734 -0.1956  0.2413 -0.0205
 1948TIP3    H127403   6.093   5.344   0.648 -1.2239  1.4783  0.6348
 1948TIP3    H227404   6.103   5.239   0.757  2.4457 -1.2786 -2.1085
 1949TIP3   OH227405   1.790   4.569   1.281  0.2524 -0.8547 -0.2214
 1949TIP3    H127406   1.764   4.603   1.366  1.2411  0.0409 -0.2540
 1949TIP3    H227407   1.883   4.548   1.290  0.7014  0.4018 -1.3824
 1950TIP3   OH227408   4.548   2.731   8.436 -0.0635 -0.0477 -0.1119
 1950TIP3    H127409   4.592   2.703   8.516  0.7407 -1.3373 -0.9598
 1950TIP3    H227410   4.589   2.814   8.414 -0.2147  0.2603  0.7396
 1951TIP3   OH227411   0.088   0.193   6.873  0.0293 -0.1919  0.0587
 1951TIP3    H127412   0.158   0.140   6.837  0.1977 -0.9802  1.4780
 1951TIP3    H227413   0.130   0.247   6.940 -0.4759  0.3498 -0.0509
 1952TIP3   OH227414   0.965   0.733   6.975 -0.5069 -0.7164  0.8983
 1952TIP3    H127415   1.009   0.680   7.042 -1.0135  0.5776  2.3242
 1952TIP3    H227416   1.020   0.810   6.964 -0.4061 -0.9313 -0.2452
 1953TIP3   OH227417   5.775   2.741   7.308  0.3864 -0.4964 -0.2875
 1953TIP3    H127418   5.782   2.755   7.403  0.5030  1.7475 -0.5711
 1953TIP3    H227419   5.693   2.693   7.296 -0.7421  1.0606  0.8249
 1954TIP3   OH227420   0.628   3.299   0.863 -0.1332  0.5260 -0.3302
 1954TIP3    H127421   0.568   3.264   0.797  1.7770 -0.0103 -1.8404
 1954TIP3    H227422   0.623   3.236   0.935 -0.3127 -0.2882 -1.0346
 1955TIP3   OH227423   5.407   2.676   8.594  0.9548 -0.3992 -0.4342
 1955TIP3    H127424   5.381   2.674   8.686 -0.0084  1.4953 -0.6031
 1955TIP3    H227425   5.484   2.620   8.590  0.2186 -1.6363  1.2400
 1956TIP3   OH227426   6.304   4.102   0.206  0.4114 -0.0249 -0.0555
 1956TIP3    H127427   6.277   4.164   0.274 -0.9400 -0.4189 -0.2085
 1956TIP3    H227428   6.315   4.156   0.128 -1.0002  0.0331 -0.2494
 1957TIP3   OH227429   6.190   3.465   0.148 -0.1719 -0.7792  0.0543
 1957TIP3    H127430   6.284   3.454   0.165 -0.0317  0.2162 -0.0093
 1957TIP3    H227431   6.152   3.481   0.234  0.2012  1.9547 -0.2081
 1958TIP3   OH227432   6.245   4.173   6.894  0.5362  0.1893  0.4663
 1958TIP3    H127433   6.164   4.180   6.843  0.5391  0.6504  0.5209
 1958TIP3    H227434   6.270   4.081   6.886  0.4139  0.2015 -0.1812
 1959TIP3   OH227435   0.240   1.544   0.044  0.1748 -0.3840 -0.3713
 1959TIP3    H127436   0.219   1.452   0.062 -0.0245 -0.7987 -2.4846
 1959TIP3    H227437   0.334   1.550   0.061  0.1365 -0.8903  0.0747
 1960TIP3   OH227438   5.593   5.378   8.077  0.5507 -0.1948  0.0205
 1960TIP3    H127439   5.522   5.437   8.053  3.3347  2.6217 -2.2152
 1960TIP3    H227440   5.596   5.313   8.006  0.4177 -0.0935 -0.0773
 1961TIP3   OH227441   5.976   5.704   0.548  0.3301 -0.5650 -0.6861
 1961TIP3    H127442   6.018   5.787   0.573 -0.1584  0.0252 -1.7684
 1961TIP3    H227443   5.949   5.717   0.458 -0.8643 -1.4767 -0.4852
 1962TIP3   OH227444   3.101   6.234   6.491  0.3744  0.3766  0.0014
 1962TIP3    H127445   3.186   6.190   6.494 -0.9123 -2.3373 -0.3050
 1962TIP3    H227446   3.091   6.260   6.400 -0.0569 -1.3960 -0.4925
 1963TIP3   OH227447   1.536   0.399   6.718  0.3152 -0.6636 -0.6287
 1963TIP3    H127448   1.567   0.343   6.789  0.0629 -0.1780 -0.1230
 1963TIP3    H227449   1.530   0.341   6.642  3.7192 -0.5580 -1.1467
 1964TIP3   OH227450   0.971   3.634   8.369  0.1631 -0.2181  0.4748
 1964TIP3    H127451   1.004   3.553   8.409  0.9985  0.4615  1.2319
 1964TIP3    H227452   1.034   3.700   8.397  1.0383  0.2523 -2.3246
 1965TIP3   OH227453   3.972   2.740   1.357 -0.4702  0.1448 -0.7428
 1965TIP3    H127454   4.011   2.827   1.348 -0.3859  0.0323 -1.5481
 1965TIP3    H227455   3.881   2.757   1.383 -0.8728  0.5468 -2.2965
 1966TIP3   OH227456   4.412   2.154   6.786  0.4693 -0.3353  0.3263
 1966TIP3    H127457   4.357   2.215   6.736 -0.1634 -0.6991  0.5624
 1966TIP3    H227458   4.477   2.210   6.829  1.9904 -0.1373 -2.0599
 1967TIP3   OH227459   6.621   3.121   8.036  0.2406  0.1524 -0.6736
 1967TIP3    H127460   6.543   3.155   7.992 -0.0907  0.6404  0.2574
 1967TIP3    H227461   6.670   3.199   8.062  1.1062 -0.1529 -1.3476
 1968TIP3   OH227462   4.450   4.012   0.541  0.2663  0.0453  0.4027
 1968TIP3    H127463   4.531   4.036   0.587  0.0494 -0.1467  0.8827
 1968TIP3    H227464   4.410   4.096   0.518 -0.2069  0.1593  1.5851
 1969TIP3   OH227465   3.509   4.494   6.407 -0.3079 -0.2282  0.4723
 1969TIP3    H127466   3.490   4.422   6.347 -1.0706  0.9561 -0.7624
 1969TIP3    H227467   3.498   4.456   6.495 -0.5261 -1.6404 -0.1381
 1970TIP3   OH227468   4.099   4.590   0.682  0.4379 -0.1467  0.3297
 1970TIP3    H127469   4.061   4.577   0.769  1.9981 -0.6568  0.9880
 1970TIP3    H227470   4.143   4.675   0.688 -1.5255  1.0032 -0.7993
 1971TIP3   OH227471   4.699   2.761   1.627 -0.0011 -0.2595 -0.0948
 1971TIP3    H127472   4.615   2.716   1.618 -0.0008 -0.2869  0.0343
 1971TIP3    H227473   4.727   2.779   1.537 -0.0994 -0.3352 -0.1403
 1972TIP3   OH227474   2.695   6.756   8.304 -0.1364 -0.0526 -0.2313
 1972TIP3    H127475   2.675   6.781   8.394 -0.9483  0.7468 -0.6213
 1972TIP3    H227476   2.649   6.821   8.250 -0.2773 -0.9650 -1.2357
 1973TIP3   OH227477   2.330   4.988   7.530 -0.5874 -0.0321  0.0524
 1973TIP3    H127478   2.412   4.958   7.490 -0.3547 -2.0506  1.8788
 1973TIP3    H227479   2.348   5.077   7.560  0.9484 -0.4413  0.4163
 1974TIP3   OH227480   5.727   5.885   0.842 -0.2543  0.2954  0.6367
 1974TIP3    H127481   5.666   5.829   0.793 -1.2206  1.1999  0.7725
 1974TIP3    H227482   5.744   5.959   0.785 -0.2279  0.6332  1.0728
 1975TIP3   OH227483   4.369   4.768   8.405 -0.1207 -0.6027 -0.1578
 1975TIP3    H127484   4.338   4.730   8.488  0.7343  1.2021  1.0521
 1975TIP3    H227485   4.401   4.693   8.355 -2.3744 -1.9817  0.3275
 1976TIP3   OH227486   6.500   4.271   8.184 -0.1528 -0.0738 -0.2058
 1976TIP3    H127487   6.461   4.184   8.194  0.0549 -0.3273 -1.4565
 1976TIP3    H227488   6.460   4.306   8.104  0.3982  0.6352 -0.1806
 1977TIP3   OH227489   3.040   1.898   0.547 -0.1925 -0.8431 -0.0788
 1977TIP3    H127490   2.979   1.962   0.511 -1.0297 -1.4792  0.1739
 1977TIP3    H227491   3.103   1.950   0.597  0.0625 -0.0893 -1.1366
 1978TIP3   OH227492   6.590   4.454   6.769 -0.1276  0.2438  0.0886
 1978TIP3    H127493   6.620   4.363   6.761  2.1672  0.8287  1.3417
 1978TIP3    H227494   6.618   4.495   6.687 -0.3806  0.0437 -0.1012
 1979TIP3   OH227495   4.466   2.033   2.144  0.4995 -0.2211  0.5657
 1979TIP3    H127496   4.531   2.055   2.211  0.9665  1.3033 -0.3365
 1979TIP3    H227497   4.394   2.095   2.160 -0.4876 -1.4656  1.1476
 1980TIP3   OH227498   6.147   3.227   8.677 -0.1778 -0.0687  0.0011
 1980TIP3    H127499   6.141   3.299   8.740  0.0590 -1.9181  2.2871
 1980TIP3    H227500   6.063   3.229   8.631 -0.4651  1.2104  0.5304
 1981TIP3   OH227501   0.954   2.142   7.778 -0.4613  0.1365 -0.2131
 1981TIP3    H127502   0.920   2.229   7.799 -1.4678 -0.8934  2.8654
 1981TIP3    H227503   1.040   2.139   7.821 -0.2767 -0.3146 -0.6001
 1982TIP3   OH227504   0.091   1.463   0.697 -0.7501 -0.5148 -0.0380
 1982TIP3    H127505   0.111   1.554   0.675 -0.6015 -0.9193 -1.7182
 1982TIP3    H227506  -0.003   1.454   0.684 -0.3118 -1.4858 -3.7796
 1983TIP3   OH227507   1.538   1.240   8.185 -0.0104  0.0667 -0.2506
 1983TIP3    H127508   1.495   1.326   8.180  1.9970  1.1660  0.4359
 1983TIP3    H227509   1.628   1.256   8.159  0.6108 -1.6934  0.6449
 1984TIP3   OH227510   1.322   2.370   1.739  0.5632 -0.2109 -0.4379
 1984TIP3    H127511   1.340   2.394   1.830  0.2285 -0.6360 -0.2524
 1984TIP3    H227512   1.315   2.274   1.741  3.2953 -0.5186 -1.4112
 1985TIP3   OH227513   1.386   5.218   8.450 -0.5922 -0.3606  0.3237
 1985TIP3    H127514   1.429   5.216   8.364  0.3308 -1.5100  0.7865
 1985TIP3    H227515   1.293   5.205   8.431 -0.6451  1.2109 -0.6251
 1986TIP3   OH227516   3.179   6.496   0.610 -0.5205 -0.4141  0.0817
 1986TIP3    H127517   3.145   6.416   0.568 -0.5715 -1.5753  2.1862
 1986TIP3    H227518   3.171   6.563   0.543  0.2439 -2.3159 -2.0681
 1987TIP3   OH227519   5.583   0.676   1.791  0.0847  0.1468 -0.2589
 1987TIP3    H127520   5.556   0.601   1.738 -2.9985  2.1100 -1.7550
 1987TIP3    H227521   5.603   0.745   1.728  0.7972  1.2430  1.0945
 1988TIP3   OH227522   6.023   0.304   8.115  0.4255 -0.1456  0.4106
 1988TIP3    H127523   5.980   0.296   8.201  0.7886  0.6383  0.6710
 1988TIP3    H227524   6.034   0.398   8.103 -0.6777 -0.1695 -1.0294
 1989TIP3   OH227525   6.112   6.593   0.185  0.3406 -0.4340 -0.2017
 1989TIP3    H127526   6.173   6.651   0.139 -0.7674  0.8721 -0.0939
 1989TIP3    H227527   6.080   6.533   0.118 -0.9090  1.1537 -1.1141
 1990TIP3   OH227528   2.520   0.408   1.139 -0.0442 -0.1474 -0.2430
 1990TIP3    H127529   2.440   0.361   1.115 -0.2057  1.2884 -2.8675
 1990TIP3    H227530   2.491   0.475   1.200 -0.4954 -0.7875  0.2693
 1991TIP3   OH227531   0.792   4.311   8.648 -0.2154 -0.0132  0.6483
 1991TIP3    H127532   0.849   4.235   8.631  0.3483  0.5064  0.1804
 1991TIP3    H227533   0.708   4.286   8.609 -0.2410 -0.6710  1.0963
 1992TIP3   OH227534   0.985   5.761   1.244  0.3246 -0.0357 -0.0554
 1992TIP3    H127535   1.016   5.852   1.250 -0.5166  0.3713 -1.4133
 1992TIP3    H227536   0.896   5.768   1.210 -0.4222 -1.2990  1.5271
 1993TIP3   OH227537   0.082   0.794   1.799 -0.1158 -0.2318 -0.1087
 1993TIP3    H127538   0.078   0.851   1.875 -2.7377  0.4700 -0.6748
 1993TIP3    H227539   0.161   0.742   1.812 -1.2830 -1.3498  3.9809
 1994TIP3   OH227540   5.415   3.027   1.614 -0.3814 -0.4380 -0.0378
 1994TIP3    H127541   5.500   2.983   1.613 -0.6830 -1.0985 -2.3126
 1994TIP3    H227542   5.426   3.102   1.556 -1.3606 -0.5359 -0.3615
 1995TIP3   OH227543   6.722   6.344   7.609 -0.2418 -0.1284 -0.0669
 1995TIP3    H127544   6.818   6.347   7.607 -0.2163  2.9058  1.0959
 1995TIP3    H227545   6.695   6.384   7.526 -0.4530  0.5280  0.3106
 1996TIP3   OH227546   4.806   5.128   0.621  0.2496  0.0396  0.7351
 1996TIP3    H127547   4.769   5.194   0.680 -0.6419 -1.4435  1.9353
 1996TIP3    H227548   4.896   5.117   0.651 -0.2073 -0.7326  1.9208
 1997TIP3   OH227549   6.130   5.787   1.314 -0.3848  0.0370  0.2980
 1997TIP3    H127550   6.169   5.737   1.242 -0.8575 -1.8322  1.2727
 1997TIP3    H227551   6.084   5.859   1.271  0.0433 -0.5481 -1.1949
 1998TIP3   OH227552   0.333   6.318   0.463 -0.5967  0.1594  0.5325
 1998TIP3    H127553   0.405   6.259   0.486 -0.1071  0.3657 -0.4388
 1998TIP3    H227554   0.330   6.381   0.535  1.8328  1.6450 -0.5553
 1999TIP3   OH227555   2.785   0.148   7.215  0.0362 -0.2424 -0.1208
 1999TIP3    H127556   2.749   0.077   7.269  0.4976  0.7662  1.6096
 1999TIP3    H227557   2.756   0.228   7.259 -0.1074  0.6541 -1.7751
 2000TIP3   OH227558   1.977   2.936   1.915 -0.0837  0.0154 -0.6407
 2000TIP3    H127559   2.072   2.923   1.916 -0.1168 -0.3575 -1.4408
 2000TIP3    H227560   1.942   2.855   1.954 -0.0211  1.0803  1.8265
 2001TIP3   OH227561   1.785   4.686   8.307 -0.2786  0.0332 -0.4263
 2001TIP3    H127562   1.846   4.622   8.268  2.3764  2.9099 -1.4543
 2001TIP3    H227563   1.780   4.756   8.242  0.9900  3.1580  2.5454
 2002TIP3   OH227564   5.474   6.469   0.432 -0.6051  0.4097  0.6098
 2002TIP3    H127565   5.446   6.520   0.356 -0.2775  1.0212  0.8912
 2002TIP3    H227566   5.424   6.504   0.505  0.4507  1.1349  1.0154
 2003TIP3   OH227567   6.453   6.631   8.157 -0.2031 -0.1435 -0.3173
 2003TIP3    H127568   6.479   6.566   8.092 -0.5353 -0.6688  0.0729
 2003TIP3    H227569   6.508   6.708   8.137  0.9620 -0.8946 -0.1219
 2004TIP3   OH227570   2.941   2.105   0.384  0.6051  0.0338 -0.3437
 2004TIP3    H127571   2.934   2.078   0.292  0.6259  1.6385 -0.8532
 2004TIP3    H227572   2.903   2.193   0.385 -0.2781 -0.3337  1.3876
 2005TIP3   OH227573   0.503   4.070   7.487 -0.5542 -0.7600 -0.1157
 2005TIP3    H127574   0.454   4.017   7.550 -0.0350 -1.0499  0.0551
 2005TIP3    H227575   0.440   4.091   7.418 -1.6229  1.0069  1.3198
 2006TIP3   OH227576   2.693   6.802   7.749  0.2023 -1.0095 -0.8720
 2006TIP3    H127577   2.613   6.812   7.697 -0.0300 -2.3988 -0.8159
 2006TIP3    H227578   2.762   6.839   7.694 -0.2239 -1.3284 -1.6402
 2007TIP3   OH227579   6.586   0.477   8.095 -0.1677  0.3410  0.0782
 2007TIP3    H127580   6.525   0.406   8.073 -2.0592  2.0132 -0.4084
 2007TIP3    H227581   6.576   0.488   8.190  0.6037 -0.4295  0.2584
 2008TIP3   OH227582   0.568   2.403   8.449  0.4246  0.3693  0.5263
 2008TIP3    H127583   0.500   2.467   8.430  0.7068  0.7478  0.7636
 2008TIP3    H227584   0.521   2.324   8.476 -0.0629 -0.5737 -2.6666
 2009TIP3   OH227585   4.972   2.057   8.441 -0.3226 -0.2623  0.0224
 2009TIP3    H127586   5.017   2.048   8.357 -0.7591  0.0233 -0.2491
 2009TIP3    H227587   5.013   2.134   8.481  0.6022 -1.0169  0.5364
 2010TIP3   OH227588   5.518   6.350   1.818  0.3119 -0.0479 -0.5589
 2010TIP3    H127589   5.502   6.338   1.911  1.8674 -0.8291 -0.3439
 2010TIP3    H227590   5.539   6.442   1.808 -2.2341  0.5938 -0.5759
 2011TIP3   OH227591   5.397   2.138   1.417 -0.9865 -0.3182  0.0997
 2011TIP3    H127592   5.405   2.115   1.325  1.0123  3.0974 -0.7540
 2011TIP3    H227593   5.487   2.150   1.447 -1.6490  2.0211  1.4313
 2012TIP3   OH227594   4.791   4.111   8.685 -0.3393 -0.1365  0.1673
 2012TIP3    H127595   4.785   4.195   8.730  4.0333  0.3642  0.2417
 2012TIP3    H227596   4.769   4.131   8.594 -0.0068  0.9343  0.3113
 2013TIP3   OH227597   3.707   3.252   2.526  0.3467 -0.3838  0.7207
 2013TIP3    H127598   3.625   3.295   2.549 -0.5903 -1.6930 -0.0570
 2013TIP3    H227599   3.681   3.177   2.473  2.1693  0.1416 -1.0365
 2014TIP3   OH227600   5.476   2.380   6.441 -0.9590 -0.0734  0.3413
 2014TIP3    H127601   5.505   2.294   6.472 -1.2101  0.0508  0.9385
 2014TIP3    H227602   5.389   2.391   6.479 -0.5930  0.7967  0.9568
 2015TIP3   OH227603   5.815   2.899   0.276 -0.0859 -0.4729 -0.2044
 2015TIP3    H127604   5.768   2.895   0.193 -0.5643 -0.8257  0.0809
 2015TIP3    H227605   5.867   2.819   0.277 -0.3844 -0.6666  0.0121
 2016TIP3   OH227606   2.819   5.520   7.093  0.3946 -0.2693  0.0491
 2016TIP3    H127607   2.878   5.591   7.118 -0.1235  0.1659  0.0589
 2016TIP3    H227608   2.788   5.544   7.005  0.3017 -0.5397  0.0059
 2017TIP3   OH227609   1.616   1.634   7.165 -0.5727  0.2840  0.0839
 2017TIP3    H127610   1.650   1.563   7.111  1.2391  0.8154  0.4736
 2017TIP3    H227611   1.571   1.692   7.103  1.4466  0.8736 -0.9131
 2018TIP3   OH227612   6.435   0.530   1.045  0.1144  0.0838  0.2492
 2018TIP3    H127613   6.454   0.623   1.030  0.4289  0.0579  0.4783
 2018TIP3    H227614   6.345   0.530   1.077 -0.6268  0.1274 -1.7165
 2019TIP3   OH227615   6.584   1.655   7.164 -0.1433 -1.1078  0.6807
 2019TIP3    H127616   6.615   1.566   7.182  2.0964 -0.5980 -0.3169
 2019TIP3    H227617   6.608   1.670   7.073 -1.6521  0.0904  0.4489
 2020TIP3   OH227618   4.567   4.771   0.473  0.3771 -0.1728  0.3818
 2020TIP3    H127619   4.577   4.756   0.378 -1.9346 -3.0368  0.4550
 2020TIP3    H227620   4.494   4.831   0.480  0.6807  0.2025  0.3636
 2021TIP3   OH227621   6.538   0.672   6.827  0.3267  0.5682 -0.4317
 2021TIP3    H127622   6.498   0.588   6.802 -1.2508  1.3527 -0.6732
 2021TIP3    H227623   6.541   0.723   6.746  0.5604  1.0320 -0.1369
 2022TIP3   OH227624   5.657   5.423   2.008  0.1394 -0.1900 -0.4517
 2022TIP3    H127625   5.646   5.365   2.083 -1.8333  0.8715  0.1562
 2022TIP3    H227626   5.721   5.489   2.037 -1.0765  0.5863  0.5870
 2023TIP3   OH227627   3.890   2.057   7.640  0.0580 -0.3020 -0.2922
 2023TIP3    H127628   3.963   2.001   7.612  0.0004 -0.5361  0.0139
 2023TIP3    H227629   3.839   2.073   7.561  1.4573  1.3962 -0.9118
 2024TIP3   OH227630   4.138   2.224   0.303 -0.0048  0.7124 -0.0967
 2024TIP3    H127631   4.141   2.169   0.225  1.6216  0.3680  0.1779
 2024TIP3    H227632   4.044   2.234   0.322 -0.3896  0.0085 -1.5167
 2025TIP3   OH227633   5.836   0.393   2.055  0.0272  0.5164  0.3203
 2025TIP3    H127634   5.845   0.444   2.135  0.1759  1.5372 -0.3333
 2025TIP3    H227635   5.917   0.342   2.050 -1.2922 -1.9942  2.4439
 2026TIP3   OH227636   5.834   4.062   0.024  0.3014 -0.5212 -0.0240
 2026TIP3    H127637   5.809   4.014   0.104  3.5113 -1.7582  0.4026
 2026TIP3    H227638   5.841   3.994  -0.043 -1.1573  0.3437 -1.1136
 2027TIP3   OH227639   4.647   1.422   6.560  0.0800  0.0995 -0.0278
 2027TIP3    H127640   4.680   1.507   6.532  1.3027 -0.7196 -1.1452
 2027TIP3    H227641   4.725   1.373   6.584 -0.4455 -1.2910 -1.0711
 2028TIP3   OH227642   6.281   2.882   1.019  0.0814 -0.0568 -0.2428
 2028TIP3    H127643   6.217   2.811   1.027 -0.3949  0.2605 -1.0741
 2028TIP3    H227644   6.339   2.854   0.948 -1.2378  1.1856 -1.8985
 2029TIP3   OH227645   6.733   1.896   1.843  0.2771 -0.5984  0.3506
 2029TIP3    H127646   6.763   1.923   1.930  0.0540  0.2494  0.1681
 2029TIP3    H227647   6.642   1.925   1.839 -0.0605 -1.6217  0.2454
 2030TIP3   OH227648   0.634   0.665   6.587 -0.0589 -0.0126 -0.1685
 2030TIP3    H127649   0.611   0.729   6.520 -0.4897  0.8149  0.7604
 2030TIP3    H227650   0.666   0.716   6.661  1.5223 -0.9698 -0.1375
 2031TIP3   OH227651   1.689   3.339   0.583 -0.2337 -0.4855 -0.5745
 2031TIP3    H127652   1.645   3.372   0.661 -1.0690 -0.3999 -1.0673
 2031TIP3    H227653   1.780   3.329   0.609 -0.7112 -1.5712  0.7565
 2032TIP3   OH227654   3.632   3.936   7.772  0.0234 -0.1422  0.4351
 2032TIP3    H127655   3.628   4.014   7.827 -0.0782 -0.3044  0.6565
 2032TIP3    H227656   3.672   3.869   7.828 -1.0267 -0.6009  0.6538
 2033TIP3   OH227657   0.495   4.916   0.852  0.1752 -0.2651  0.0300
 2033TIP3    H127658   0.526   4.899   0.941  1.7370  1.5805 -0.0912
 2033TIP3    H227659   0.568   4.890   0.796 -0.5320 -0.7533 -0.6832
 2034TIP3   OH227660   2.136   2.401   1.608 -0.3776 -0.2442  0.3085
 2034TIP3    H127661   2.126   2.476   1.550 -0.0301 -0.2291  0.2629
 2034TIP3    H227662   2.125   2.438   1.696  0.6209  0.0269  0.3358
 2035TIP3   OH227663   3.825   1.900   6.633 -0.0880  0.1572  0.0793
 2035TIP3    H127664   3.888   1.829   6.615 -1.4430 -1.5440  1.6881
 2035TIP3    H227665   3.869   1.955   6.698  0.6992  0.4534 -0.6720
 2036TIP3   OH227666   5.340   3.750   7.662 -0.3438 -0.2434  0.7479
 2036TIP3    H127667   5.378   3.727   7.747  1.1903 -1.2129 -0.1469
 2036TIP3    H227668   5.322   3.665   7.621  0.0720  0.1952 -0.3739
 2037TIP3   OH227669   1.498   2.563   0.152  0.2800 -0.4131 -0.0809
 2037TIP3    H127670   1.423   2.515   0.115  1.4336 -0.9877 -1.8434
 2037TIP3    H227671   1.506   2.641   0.097  1.0772 -0.4489 -0.0268
 2038TIP3   OH227672   1.980   5.831   1.211 -0.1139 -0.0253 -0.7877
 2038TIP3    H127673   1.966   5.918   1.248  0.2354 -0.4015  0.2331
 2038TIP3    H227674   1.970   5.844   1.116  2.1592  1.5768 -0.8885
 2039TIP3   OH227675   6.493   5.265   1.141 -0.2670  0.5689  0.6150
 2039TIP3    H127676   6.479   5.185   1.091 -0.1592  0.0295  1.4192
 2039TIP3    H227677   6.458   5.245   1.228 -1.0435  1.7047  0.5771
 2040TIP3   OH227678   0.859   4.385   1.077  0.2946  0.2423  0.0466
 2040TIP3    H127679   0.837   4.319   1.142  0.8430 -0.5160 -0.5246
 2040TIP3    H227680   0.944   4.357   1.042 -0.6047 -0.1114 -1.9569
 2041TIP3   OH227681   6.414   5.616   8.646  0.2381 -0.2047  0.0853
 2041TIP3    H127682   6.490   5.578   8.691  1.5481  1.6934 -0.3851
 2041TIP3    H227683   6.441   5.622   8.554 -0.4884  0.4500 -0.0981
 2042TIP3   OH227684   6.811   0.899   8.186 -0.3973 -0.5624 -0.0711
 2042TIP3    H127685   6.754   0.825   8.205  0.1585 -0.7884  0.8018
 2042TIP3    H227686   6.752   0.970   8.162 -1.0547 -0.7478  0.9695
 2043TIP3   OH227687   6.304   6.264   7.805 -0.1858  0.2541  0.1152
 2043TIP3    H127688   6.314   6.198   7.874  1.0186 -0.6320 -0.8483
 2043TIP3    H227689   6.376   6.325   7.820 -0.6567  0.7504  0.3645
 2044TIP3   OH227690   4.566   1.922   7.371  0.0170 -0.0072  0.0036
 2044TIP3    H127691   4.650   1.900   7.330  0.7112 -0.7152  1.7064
 2044TIP3    H227692   4.589   1.950   7.459 -1.4896  0.6004  0.2305
 2045TIP3   OH227693   6.425   3.563   8.580  0.0239 -0.3447 -0.2624
 2045TIP3    H127694   6.434   3.603   8.494  1.3819 -0.9838 -0.4509
 2045TIP3    H227695   6.385   3.477   8.563  0.8015 -0.7028 -0.3432
 2046TIP3   OH227696   0.420   5.525   2.221  0.5312 -0.1453 -0.5138
 2046TIP3    H127697   0.463   5.440   2.228  0.4462 -0.1385  0.1557
 2046TIP3    H227698   0.491   5.588   2.234  0.3316 -0.1341  0.6890
 2047TIP3   OH227699   4.804   0.246   0.853  0.1630  0.3543 -0.7510
 2047TIP3    H127700   4.806   0.340   0.835 -0.8281  1.0742  2.3159
 2047TIP3    H227701   4.801   0.240   0.948  1.9139 -2.8723 -0.7566
 2048TIP3   OH227702   1.349   0.040   1.306 -0.0956 -0.1078 -0.7091
 2048TIP3    H127703   1.308  -0.047   1.302  0.2794 -0.3895  0.9659
 2048TIP3    H227704   1.409   0.035   1.381  0.3862  1.4111 -0.9588
 2049TIP3   OH227705   0.600   3.575   0.382 -0.6243  0.1354 -0.0845
 2049TIP3    H127706   0.523   3.628   0.362 -0.2066  0.5627 -0.5807
 2049TIP3    H227707   0.568   3.509   0.444 -0.6194  2.4605  2.5638
 2050TIP3   OH227708   6.503   0.417   7.285 -0.6256 -0.5265  0.2601
 2050TIP3    H127709   6.503   0.508   7.314  0.8212 -0.0223 -1.1675
 2050TIP3    H227710   6.475   0.421   7.193  0.4891 -1.3814 -0.1329
 2051TIP3   OH227711   0.499   0.287   1.769 -0.4028  0.0650 -0.1668
 2051TIP3    H127712   0.567   0.335   1.723  0.2884 -0.9089 -0.1937
 2051TIP3    H227713   0.509   0.313   1.861  0.3338 -0.4616 -0.0996
 2052TIP3   OH227714   3.624   6.393   2.415 -0.5940 -0.0749 -0.1912
 2052TIP3    H127715   3.681   6.318   2.433  1.4400  0.7999 -2.3912
 2052TIP3    H227716   3.649   6.458   2.481  0.0835 -0.1730 -0.3367
 2053TIP3   OH227717   1.954   3.344   6.365 -0.3853 -0.0231  0.2047
 2053TIP3    H127718   1.897   3.272   6.394 -1.0089  0.8285  1.1781
 2053TIP3    H227719   1.961   3.333   6.270  0.6226 -2.1296  0.4684
 2054TIP3   OH227720   3.209   3.576   6.919 -0.2986  0.2168 -0.0272
 2054TIP3    H127721   3.152   3.503   6.945 -0.6559  0.6802  0.5011
 2054TIP3    H227722   3.217   3.567   6.824 -1.8989  0.5850 -0.2221
 2055TIP3   OH227723   4.214   6.745   0.992  0.1920 -0.1296 -0.1901
 2055TIP3    H127724   4.282   6.715   1.053 -1.1009  0.7340  1.7634
 2055TIP3    H227725   4.150   6.674   0.991 -1.3838  1.1516  2.0875
 2056TIP3   OH227726   4.515   2.234   7.032 -0.3536 -0.4037  0.0852
 2056TIP3    H127727   4.584   2.272   6.977 -1.1829 -0.0342 -0.7374
 2056TIP3    H227728   4.435   2.277   7.002 -0.9177 -0.6701  1.1629
 2057TIP3   OH227729   6.088   4.011   0.900 -0.2933 -0.5971  0.3579
 2057TIP3    H127730   6.032   4.069   0.848  2.1120  0.6927 -0.9408
 2057TIP3    H227731   6.167   4.062   0.916  0.5276 -2.3113  2.2227
 2058TIP3   OH227732   6.464   6.171   1.416 -0.2673 -0.1083 -0.1389
 2058TIP3    H127733   6.424   6.156   1.331 -0.5314 -1.2148  0.1672
 2058TIP3    H227734   6.521   6.247   1.402 -0.9282  0.2388 -1.0809
 2059TIP3   OH227735   0.555   3.413   8.390 -0.0774 -0.2398 -0.0675
 2059TIP3    H127736   0.563   3.374   8.303  1.7847 -1.1232  0.4445
 2059TIP3    H227737   0.478   3.469   8.384  0.9033  1.0466 -2.8012
 2060TIP3   OH227738   3.448   5.892   2.173 -0.3823  0.0632 -0.2279
 2060TIP3    H127739   3.488   5.858   2.253  0.3936 -1.3938 -1.1813
 2060TIP3    H227740   3.509   5.959   2.142  0.5472 -1.0074 -0.8031
 2061TIP3   OH227741   1.370   0.336   8.231  0.0053 -0.8119 -0.3514
 2061TIP3    H127742   1.427   0.277   8.279 -2.0767 -2.1369  0.6428
 2061TIP3    H227743   1.400   0.424   8.254  0.0026 -1.4204  2.2729
 2062TIP3   OH227744   5.429   0.172   0.297  0.2352  0.3686 -0.0855
 2062TIP3    H127745   5.493   0.103   0.282 -2.9969 -2.4015 -2.6677
 2062TIP3    H227746   5.402   0.160   0.388  0.0543 -1.5921 -0.3488
 2063TIP3   OH227747   3.332   3.522   8.003  0.8967  0.2419  0.1618
 2063TIP3    H127748   3.263   3.549   8.064  0.2172  3.0076 -1.6385
 2063TIP3    H227749   3.414   3.544   8.047  0.4687  0.7222  0.7216
 2064TIP3   OH227750   1.479   3.931   7.854 -0.3661 -0.3792 -0.0901
 2064TIP3    H127751   1.438   3.921   7.768  0.9824  3.2375 -1.3340
 2064TIP3    H227752   1.438   4.009   7.891  2.2338  0.8337  0.4748
 2065TIP3   OH227753   2.715   6.101   7.330  0.2043 -0.6520 -1.1654
 2065TIP3    H127754   2.780   6.030   7.325  0.2374 -0.6050 -1.4327
 2065TIP3    H227755   2.759   6.170   7.380  0.4559 -0.5201 -1.5674
 2066TIP3   OH227756   0.357   0.458   6.838  0.0375 -0.5349 -0.5103
 2066TIP3    H127757   0.427   0.454   6.774  0.2048 -2.7890 -0.2545
 2066TIP3    H227758   0.391   0.515   6.907  1.2924 -0.9371 -0.7698
 2067TIP3   OH227759   4.654   1.982   1.381  0.6317  0.2095  0.5653
 2067TIP3    H127760   4.697   2.067   1.382 -0.8440  0.9739  1.4545
 2067TIP3    H227761   4.600   1.981   1.460  0.9514 -1.7341  0.8033
 2068TIP3   OH227762   4.956   0.393   0.600  0.1890 -0.1610 -0.1403
 2068TIP3    H127763   4.862   0.398   0.583  0.5648  0.6454 -2.3964
 2068TIP3    H227764   4.964   0.400   0.695 -1.8799  2.8509 -0.0507
 2069TIP3   OH227765   6.216   2.591   6.147 -0.0802 -0.3184 -0.5712
 2069TIP3    H127766   6.156   2.642   6.092  0.4155  1.3398  0.3669
 2069TIP3    H227767   6.303   2.623   6.123  0.0865  1.7785  2.3656
 2070TIP3   OH227768   5.157   1.742   8.241  0.0287 -0.0377  0.4805
 2070TIP3    H127769   5.097   1.670   8.255  0.5569 -0.3494  1.2304
 2070TIP3    H227770   5.117   1.816   8.287 -0.7673  0.3050 -0.7186
 2071TIP3   OH227771   1.997   3.122   7.260 -0.3412  0.2284 -0.0249
 2071TIP3    H127772   2.020   3.127   7.353  0.8624  1.5802 -0.3746
 2071TIP3    H227773   2.079   3.137   7.214 -1.1634  0.9242 -1.3136
 2072TIP3   OH227774   6.706   1.699   8.395  0.2396 -0.0452 -0.9236
 2072TIP3    H127775   6.641   1.739   8.453  0.0495  0.3523 -1.4056
 2072TIP3    H227776   6.762   1.648   8.454 -0.7878 -0.7827 -0.5522
 2073TIP3   OH227777   5.430   1.997   2.190  0.0781 -0.2727  0.1451
 2073TIP3    H127778   5.370   1.923   2.180  2.5560 -2.4184 -0.1181
 2073TIP3    H227779   5.430   2.014   2.285  2.3027 -3.3935  0.8926
 2074TIP3   OH227780   5.395   0.006   8.055  0.0768 -0.2204 -0.1229
 2074TIP3    H127781   5.380   0.092   8.095  1.0828  0.3470 -0.9212
 2074TIP3    H227782   5.314  -0.014   8.009 -0.2418  0.1898  0.2481
 2075TIP3   OH227783   1.476   6.747   6.357  0.7142 -0.1121  1.0936
 2075TIP3    H127784   1.447   6.736   6.266  0.9268  1.2001  0.8534
 2075TIP3    H227785   1.572   6.749   6.351  0.7599 -0.8753  1.4601
 2076TIP3   OH227786   5.566   0.756   0.964  0.1792  0.1289 -0.1188
 2076TIP3    H127787   5.635   0.692   0.952  0.2789  0.1696  0.2176
 2076TIP3    H227788   5.576   0.818   0.892 -0.5968 -0.8358 -1.0921
 2077TIP3   OH227789   4.113   5.963   0.863 -0.1109  0.2932 -0.0967
 2077TIP3    H127790   4.080   5.899   0.799  1.4861 -1.0803  0.3939
 2077TIP3    H227791   4.100   6.048   0.821 -2.0309 -0.3269 -0.8895
 2078TIP3   OH227792   0.074   0.789   0.848 -0.2925 -0.1643  0.2318
 2078TIP3    H127793   0.095   0.846   0.774 -0.5898 -0.2707  0.0626
 2078TIP3    H227794   0.139   0.811   0.915  0.7883 -0.9717 -0.5227
 2079TIP3   OH227795   6.808   6.454   0.519  0.3752  0.3488 -0.8045
 2079TIP3    H127796   6.750   6.379   0.510  0.9195 -0.0642 -0.9288
 2079TIP3    H227797   6.832   6.477   0.429  0.8453  0.1648 -0.7276
 2080TIP3   OH227798   6.289   6.719   2.497  0.1490  0.3952  0.1968
 2080TIP3    H127799   6.358   6.740   2.433  1.1732 -2.4696  0.2096
 2080TIP3    H227800   6.327   6.743   2.581 -0.1187  1.6122 -0.0021
 2081TIP3   OH227801   1.483   0.987   8.059  0.2180  0.3048 -0.2611
 2081TIP3    H127802   1.398   0.945   8.046  0.8752 -1.0624 -0.2398
 2081TIP3    H227803   1.480   1.064   8.001 -0.2714 -0.8462 -1.8309
 2082TIP3   OH227804   5.773   4.267   1.637 -0.4079 -0.0738  0.5724
 2082TIP3    H127805   5.701   4.330   1.637 -1.0938 -0.6091 -3.4789
 2082TIP3    H227806   5.730   4.182   1.633  0.4990 -0.5702  1.0511
 2083TIP3   OH227807   6.615   2.119   7.931  0.2209  0.0710 -0.5569
 2083TIP3    H127808   6.705   2.149   7.920 -0.3585  1.9107 -0.6357
 2083TIP3    H227809   6.569   2.151   7.853 -0.5136 -0.8670 -0.5347
 2084TIP3   OH227810   4.758   2.552   1.183  0.5172  0.0795 -0.1938
 2084TIP3    H127811   4.694   2.481   1.188 -0.7811  1.2718  0.5301
 2084TIP3    H227812   4.790   2.549   1.093 -1.3729  0.1450 -0.9113
 2085TIP3   OH227813   4.693   4.791   7.972  0.0677  0.4055  0.4997
 2085TIP3    H127814   4.670   4.881   7.996 -1.3254  0.4244 -0.7748
 2085TIP3    H227815   4.722   4.797   7.881  0.2986 -0.3923  0.5151
 2086TIP3   OH227816   6.592   2.103   8.388 -0.4095 -0.5181  0.8387
 2086TIP3    H127817   6.531   2.152   8.443  0.1358 -0.8981  1.7885
 2086TIP3    H227818   6.678   2.126   8.421 -0.0694 -0.8088  0.1844
 2087TIP3   OH227819   6.290   3.402   8.356  0.0546  0.2046 -0.7008
 2087TIP3    H127820   6.366   3.377   8.302 -0.9924  0.1003 -2.2014
 2087TIP3    H227821   6.227   3.332   8.342  0.1116 -0.3333  1.5181
 2088TIP3   OH227822   6.421   4.088   1.039  0.4548 -0.1997  0.1251
 2088TIP3    H127823   6.487   4.081   1.108 -0.6813 -0.1208  1.2516
 2088TIP3    H227824   6.345   4.042   1.074  0.0633 -0.7631 -1.3732
 2089TIP3   OH227825   5.220   2.921   0.204  0.0136 -0.8315 -0.1876
 2089TIP3    H127826   5.218   2.993   0.140 -0.0329  0.0683  0.7907
 2089TIP3    H227827   5.311   2.917   0.234 -0.4044  0.3554  1.3961
 2090TIP3   OH227828   0.866   5.411   8.570  0.1616  0.1171 -0.0970
 2090TIP3    H127829   0.887   5.503   8.583  0.1349  0.2288 -0.8113
 2090TIP3    H227830   0.793   5.411   8.508 -1.2758 -0.3132  1.5337
 2091TIP3   OH227831   3.966   4.692   7.982  0.0574 -0.2567  0.0198
 2091TIP3    H127832   3.900   4.627   7.957 -0.2998  0.6826 -1.6168
 2091TIP3    H227833   4.048   4.657   7.949 -0.0022 -0.2821 -0.1013
 2092TIP3   OH227834   4.419   3.745   6.626  0.4590 -0.5040 -0.1089
 2092TIP3    H127835   4.349   3.681   6.618  0.0976 -0.3139  1.3591
 2092TIP3    H227836   4.395   3.815   6.565 -0.8724 -0.2222  0.7136
 2093TIP3   OH227837   4.125   0.936   1.846  0.1974  0.4089  0.3513
 2093TIP3    H127838   4.209   0.944   1.801  0.9721  0.3278  1.7092
 2093TIP3    H227839   4.148   0.938   1.939 -1.0762 -1.7077  0.7960
 2094TIP3   OH227840   0.309   5.016   8.433 -0.0596 -0.2547 -0.0462
 2094TIP3    H127841   0.395   5.028   8.472 -0.1295  0.0488  0.0170
 2094TIP3    H227842   0.326   5.007   8.339 -0.1176  1.9496 -0.3194
 2095TIP3   OH227843   2.261   0.219   0.245 -0.4834  0.2223  0.7450
 2095TIP3    H127844   2.181   0.268   0.261  0.0580  1.9549 -1.3466
 2095TIP3    H227845   2.319   0.245   0.317 -1.5259 -0.5142  1.8903
 2096TIP3   OH227846   5.971   4.667   1.199  0.1009 -0.3145 -0.6359
 2096TIP3    H127847   5.973   4.699   1.289 -0.6472  2.6925 -1.5404
 2096TIP3    H227848   6.004   4.578   1.203 -2.5382 -1.3273  2.9895
 2097TIP3   OH227849   3.837   0.395   0.573 -0.3518  0.1303  0.1798
 2097TIP3    H127850   3.906   0.461   0.572 -1.2996  1.2199 -2.2889
 2097TIP3    H227851   3.838   0.357   0.485 -0.1110 -2.9566  1.3848
 2098TIP3   OH227852   4.441   1.215   1.565  0.0034  0.3022 -0.3384
 2098TIP3    H127853   4.441   1.310   1.575  1.6639  0.3045  0.0339
 2098TIP3    H227854   4.526   1.196   1.525  0.2791 -1.1217  0.8458
 2099TIP3   OH227855   1.503   1.619   7.414  0.1977 -0.5068 -0.2256
 2099TIP3    H127856   1.574   1.618   7.477 -0.3867  1.0918  0.5081
 2099TIP3    H227857   1.546   1.609   7.329  1.2167 -0.3255  0.2562
 2100TIP3   OH227858   4.367   4.267   8.654  0.2455 -0.6089  0.1378
 2100TIP3    H127859   4.352   4.179   8.620  1.9534 -0.9897  0.2883
 2100TIP3    H227860   4.323   4.266   8.740 -1.9976 -0.4116 -0.9230
 2101TIP3   OH227861   6.543   4.647   0.349 -0.0272 -0.0832  0.1677
 2101TIP3    H127862   6.503   4.733   0.348  2.0597  0.9547 -0.4076
 2101TIP3    H227863   6.596   4.645   0.429 -0.2954 -0.9673  0.3412
 2102TIP3   OH227864   4.424   1.822   8.518  0.4529 -0.0425 -0.3154
 2102TIP3    H127865   4.335   1.849   8.497  0.0493 -1.5225 -0.6203
 2102TIP3    H227866   4.440   1.859   8.605 -1.1313 -1.2258  0.5260
 2103TIP3   OH227867   5.919   5.329   2.642  0.1947  1.2977  0.3012
 2103TIP3    H127868   5.828   5.339   2.613  0.1020  0.5513  0.3208
 2103TIP3    H227869   5.955   5.260   2.586  0.7115  1.5024  0.3796
 2104TIP3   OH227870   1.094   4.589   6.744 -0.0326  0.0658 -0.3154
 2104TIP3    H127871   1.001   4.608   6.729  0.3997  2.3688 -0.4270
 2104TIP3    H227872   1.119   4.533   6.670 -1.3546 -0.8000 -0.1482
 2105TIP3   OH227873   6.085   0.905   7.742  0.1552  0.4058 -0.5584
 2105TIP3    H127874   5.997   0.933   7.766 -0.1891 -1.0855  0.0538
 2105TIP3    H227875   6.072   0.831   7.683  0.9686 -0.1179 -0.1162
 2106TIP3   OH227876   6.476   1.060   2.379  0.4878 -0.3921 -0.0356
 2106TIP3    H127877   6.562   1.019   2.390  0.5489  0.1398  1.8142
 2106TIP3    H227878   6.492   1.138   2.327  1.2434 -0.0175  0.7335
 2107TIP3   OH227879   5.926   4.270   7.538  0.3634 -0.4797  0.6108
 2107TIP3    H127880   6.010   4.317   7.542  0.0578  0.0904  0.5167
 2107TIP3    H227881   5.892   4.290   7.451 -0.2053 -0.1129  0.9150
 2108TIP3   OH227882   0.452   1.251   1.235 -0.1047  0.1529  0.0142
 2108TIP3    H127883   0.527   1.221   1.287 -1.9378 -1.0535  2.1305
 2108TIP3    H227884   0.406   1.312   1.292 -1.5744 -0.3234 -0.6180
 2109TIP3   OH227885   3.469   3.396   0.441  0.3632 -1.1309  0.5287
 2109TIP3    H127886   3.405   3.452   0.396 -0.3859  1.4692  4.3461
 2109TIP3    H227887   3.443   3.400   0.533  4.3768 -2.3304  1.8971
 2110TIP3   OH227888   2.529   4.302   0.591 -0.1436  1.1442  0.8744
 2110TIP3    H127889   2.478   4.247   0.651 -0.1636 -0.7387 -0.7877
 2110TIP3    H227890   2.614   4.259   0.585 -0.2781  1.0614 -0.7266
 2111TIP3   OH227891   0.914   2.131   0.997  0.5156  0.2103 -0.3982
 2111TIP3    H127892   0.892   2.054   1.049 -1.6156  1.2237  0.3156
 2111TIP3    H227893   0.883   2.110   0.909 -0.7002  0.4765 -0.0528
 2112TIP3   OH227894   1.712   1.082   7.372 -0.5516 -0.1390 -0.1899
 2112TIP3    H127895   1.628   1.127   7.359 -1.2495 -1.1887  0.4426
 2112TIP3    H227896   1.735   1.049   7.286 -0.4977  0.6332 -0.4782
 2113TIP3   OH227897   6.336   4.358   1.265 -0.0621 -0.2050  0.7492
 2113TIP3    H127898   6.326   4.378   1.172  2.0046 -0.0443  0.5030
 2113TIP3    H227899   6.392   4.428   1.299 -0.2352 -0.6227  1.9595
 2114TIP3   OH227900   2.584   3.541   1.581  0.0989  0.1241 -0.0108
 2114TIP3    H127901   2.542   3.582   1.656  0.9150  1.1047 -0.0691
 2114TIP3    H227902   2.525   3.471   1.555 -0.7904  0.5709  0.7813
 2115TIP3   OH227903   6.201   4.519   8.458 -0.3326 -0.0870  0.1382
 2115TIP3    H127904   6.140   4.503   8.386 -0.3172  0.8634 -0.0898
 2115TIP3    H227905   6.270   4.454   8.445 -1.2697 -1.1870  0.3987
 2116TIP3   OH227906   2.445   2.211   7.966 -0.0240 -0.0599  0.3941
 2116TIP3    H127907   2.368   2.263   7.942 -0.2937 -0.3838  0.5447
 2116TIP3    H227908   2.437   2.132   7.912  1.6473  1.0511 -1.6721
 2117TIP3   OH227909   1.917   4.508   6.777  0.3095 -0.2034  0.6175
 2117TIP3    H127910   1.923   4.572   6.706  1.5869 -0.0411  0.8574
 2117TIP3    H227911   1.867   4.554   6.845 -1.3584 -0.5355 -0.3249
 2118TIP3   OH227912   4.332   0.318   8.086 -0.4280  0.9812 -1.0257
 2118TIP3    H127913   4.406   0.359   8.131 -0.6812 -1.0864  1.4990
 2118TIP3    H227914   4.262   0.316   8.151 -1.3753 -0.7328 -2.0321
 2119TIP3   OH227915   3.788   4.715   7.685  0.7471 -0.8228 -0.0078
 2119TIP3    H127916   3.794   4.643   7.622  0.1532 -1.6159  0.8131
 2119TIP3    H227917   3.728   4.683   7.752 -0.9119  1.1166 -0.4881
 2120TIP3   OH227918   1.300   5.202   1.453 -0.7872 -0.0957  0.1592
 2120TIP3    H127919   1.318   5.126   1.397 -0.3626 -0.0249  0.1917
 2120TIP3    H227920   1.337   5.178   1.538  0.2964  0.5507 -0.1030
 2121TIP3   OH227921   3.192   5.782   7.368 -0.1720 -0.2895 -0.8780
 2121TIP3    H127922   3.154   5.694   7.371 -1.3799  0.1637 -2.0454
 2121TIP3    H227923   3.251   5.781   7.293 -0.0754 -0.1384 -0.8057
 2122TIP3   OH227924   4.788   0.288   1.145  0.3907 -0.0446 -0.3323
 2122TIP3    H127925   4.766   0.323   1.231  0.5361  1.3873 -0.8641
 2122TIP3    H227926   4.704   0.258   1.109  0.4520 -1.5190  0.6435
 2123TIP3   OH227927   2.131   6.652   1.349  1.1726  0.6776  0.0546
 2123TIP3    H127928   2.112   6.734   1.394  0.6963 -0.2664  1.6381
 2123TIP3    H227929   2.127   6.674   1.256  0.7999  2.3790  0.4442
 2124TIP3   OH227930   4.949   0.572   2.511  0.0375 -0.9289 -0.5332
 2124TIP3    H127931   4.966   0.644   2.451 -1.4843  0.2247  0.3745
 2124TIP3    H227932   5.016   0.507   2.489  0.9688  0.4205 -1.8806
 2125TIP3   OH227933   0.457   6.066   8.439 -0.3346  0.1621  0.2828
 2125TIP3    H127934   0.373   6.074   8.393  0.3445  2.0182 -0.7408
 2125TIP3    H227935   0.463   5.974   8.462 -2.0724 -0.2580 -0.7791
 2126TIP3   OH227936   6.084   3.604   7.731  0.1762 -1.0838  0.4374
 2126TIP3    H127937   6.089   3.633   7.822  2.2292 -2.2181  0.7467
 2126TIP3    H227938   6.006   3.550   7.727  1.0004 -2.4675  2.0064
 2127TIP3   OH227939   6.418   3.140   6.427  0.0725 -0.2485 -0.1556
 2127TIP3    H127940   6.478   3.214   6.425  0.7206 -0.7705 -1.6612
 2127TIP3    H227941   6.331   3.179   6.434  0.2599  0.8085 -2.6100
 2128TIP3   OH227942   4.688   6.651   7.517 -0.0980 -0.2241 -0.5196
 2128TIP3    H127943   4.628   6.709   7.564  0.5694  0.8449 -0.9590
 2128TIP3    H227944   4.745   6.616   7.585  0.0750  0.3557 -0.3608
 2129TIP3   OH227945   1.709   3.964   0.985 -0.1946 -0.3337  0.3928
 2129TIP3    H127946   1.724   3.941   1.077 -1.6092 -1.9322  0.2754
 2129TIP3    H227947   1.623   4.008   0.986 -0.2533 -0.4311 -0.1793
 2130TIP3   OH227948   3.717   4.582   0.439  0.5380 -0.0992  0.1881
 2130TIP3    H127949   3.684   4.659   0.486  1.0289  0.1778  0.0767
 2130TIP3    H227950   3.656   4.512   0.464 -0.9335  0.6802 -1.0123
 2131TIP3   OH227951   0.702   4.977   0.535 -1.0063  0.4545 -0.2845
 2131TIP3    H127952   0.786   5.008   0.502  0.2915 -0.4548  1.9573
 2131TIP3    H227953   0.645   5.054   0.530  0.4492  1.5773 -0.2644
 2132TIP3   OH227954   6.513   2.834   7.552  0.2910  0.8096 -0.1764
 2132TIP3    H127955   6.602   2.868   7.539  0.0176  0.5298 -3.7654
 2132TIP3    H227956   6.522   2.739   7.539 -0.2658  0.4536  1.6581
 2133TIP3   OH227957   4.910   2.231   0.940 -0.4621  0.0189 -0.8377
 2133TIP3    H127958   4.963   2.310   0.951 -1.1332  0.2671  1.1416
 2133TIP3    H227959   4.955   2.166   0.994 -0.0967 -0.8880 -2.1988
 2134TIP3   OH227960   3.002   0.679   7.860 -0.5834 -0.5971  0.2441
 2134TIP3    H127961   3.026   0.772   7.871  0.1529 -0.7103 -0.3332
 2134TIP3    H227962   3.082   0.631   7.880 -0.7210 -1.0649 -0.2930
 2135TIP3   OH227963   4.913   5.909   2.171  0.1979  0.1427  0.3242
 2135TIP3    H127964   4.865   5.829   2.193 -0.1280  0.5920  1.3176
 2135TIP3    H227965   4.845   5.976   2.164  0.4847  0.3652 -0.3648
 2136TIP3   OH227966   3.995   0.707   7.320 -0.2371  0.0653 -0.0979
 2136TIP3    H127967   3.984   0.613   7.303 -0.8886  0.3956 -1.6434
 2136TIP3    H227968   3.906   0.742   7.321 -0.0915  0.5124  1.7262
 2137TIP3   OH227969   3.083   6.082   1.315 -0.1075  0.3220 -0.1784
 2137TIP3    H127970   3.114   6.173   1.313  1.1987 -0.1122 -1.6374
 2137TIP3    H227971   3.153   6.032   1.273 -0.8311 -1.3651  0.5431
 2138TIP3   OH227972   1.400   6.318   8.437  0.4700  0.5058 -0.5088
 2138TIP3    H127973   1.435   6.266   8.364 -1.9436 -1.1514 -0.6066
 2138TIP3    H227974   1.454   6.294   8.512  0.9364 -0.2671 -1.0788
 2139TIP3   OH227975   2.735   2.317   0.840  0.5608  0.4034 -0.8435
 2139TIP3    H127976   2.762   2.241   0.787 -0.5573 -0.5017 -0.1433
 2139TIP3    H227977   2.771   2.299   0.927 -1.9439 -0.7149  0.0509
 2140TIP3   OH227978   5.629   0.940   1.600 -0.2381  0.4874 -0.2779
 2140TIP3    H127979   5.542   0.968   1.629  0.1943  0.5486  1.0032
 2140TIP3    H227980   5.666   1.018   1.559 -0.1232  0.9931  0.7526
 2141TIP3   OH227981   3.237   0.602   2.437  0.2382  0.5240  0.3942
 2141TIP3    H127982   3.219   0.695   2.453  0.9468  0.6696  0.3720
 2141TIP3    H227983   3.215   0.590   2.344 -0.4947  0.5040  0.5608
 2142TIP3   OH227984   3.090   6.129   7.218 -0.0570  0.6103 -0.2145
 2142TIP3    H127985   3.121   6.123   7.308  0.3201  1.1403 -0.3022
 2142TIP3    H227986   3.013   6.073   7.215 -0.1365  0.6778  0.4616
 2143TIP3   OH227987   5.297   4.023   0.013 -0.1717 -0.2232  0.0666
 2143TIP3    H127988   5.229   4.082  -0.019 -0.2239 -1.7200 -2.8455
 2143TIP3    H227989   5.253   3.971   0.081 -1.2306  0.4345 -0.0910
 2144TIP3   OH227990   2.479   1.784   1.425  0.3566 -0.2726 -0.2009
 2144TIP3    H127991   2.427   1.861   1.398  2.1984  0.9397 -0.4612
 2144TIP3    H227992   2.510   1.806   1.512  1.6363 -0.3189 -0.6311
 2145TIP3   OH227993   4.096   2.482   1.244  0.4080  0.6349 -0.0062
 2145TIP3    H127994   4.037   2.545   1.285 -0.8419  1.0607 -2.3325
 2145TIP3    H227995   4.046   2.401   1.237  0.0624  0.9590 -1.8731
 2146TIP3   OH227996   4.305   6.734   1.804 -0.0496 -0.4590 -0.4760
 2146TIP3    H127997   4.272   6.712   1.891 -0.7018 -1.5374 -0.9682
 2146TIP3    H227998   4.400   6.734   1.813 -0.0757 -1.7099 -0.0070
 2147TIP3   OH227999   6.411   0.690   6.452  0.0887  0.0636 -0.1205
 2147TIP3    H128000   6.457   0.738   6.520  1.8757 -1.0743 -0.4783
 2147TIP3    H228001   6.354   0.629   6.500 -0.7239  1.1435  0.3216
 2148TIP3   OH228002   5.296   3.296   8.047  0.6069  0.0621  0.1618
 2148TIP3    H128003   5.274   3.353   8.120  2.7700 -0.6684  1.4713
 2148TIP3    H228004   5.281   3.207   8.080 -1.7960 -0.2743 -1.5324
 2149TIP3   OH228005   4.702   4.584   8.451  0.0376 -0.6710 -0.3872
 2149TIP3    H128006   4.783   4.562   8.406 -1.1323 -2.6211 -1.7355
 2149TIP3    H228007   4.654   4.639   8.388  0.1760  0.2010  0.2625
 2150TIP3   OH228008   3.519   4.683   8.031  0.1092 -0.2172 -0.2034
 2150TIP3    H128009   3.443   4.709   7.979  0.4484 -1.1658 -1.2179
 2150TIP3    H228010   3.584   4.752   8.016 -0.5345  0.6061  0.6833
 2151TIP3   OH228011   0.943   6.776   0.773 -0.7083 -0.2711  0.6285
 2151TIP3    H128012   1.025   6.728   0.760  0.4794  1.7306  0.3137
 2151TIP3    H228013   0.942   6.841   0.704 -2.2936  0.1392  1.0032
 2152TIP3   OH228014   2.205   2.745   0.844 -0.2874  0.0026  0.0577
 2152TIP3    H128015   2.172   2.701   0.765 -0.0930  3.6557 -2.3109
 2152TIP3    H228016   2.141   2.814   0.862  1.7111  1.8386  0.5364
 2153TIP3   OH228017   2.412   4.403   1.812  0.4046 -0.1517 -0.3789
 2153TIP3    H128018   2.418   4.484   1.863  0.2410  0.4188 -1.2534
 2153TIP3    H228019   2.399   4.334   1.878 -0.3543  0.6317  0.3036
 2154TIP3   OH228020   4.251   5.855   1.081  0.0797  0.1794 -0.6781
 2154TIP3    H128021   4.343   5.862   1.055  0.2243  0.9436 -0.0057
 2154TIP3    H228022   4.202   5.871   1.001  0.5248  0.5096 -0.8881
 2155TIP3   OH228023   0.753   5.784   7.497  0.2255  0.7941  0.0654
 2155TIP3    H128024   0.727   5.803   7.407 -0.7740  0.3636  0.2581
 2155TIP3    H228025   0.740   5.690   7.507 -0.1463  0.9132  0.8051
 2156TIP3   OH228026   3.535   0.938   7.359  0.0398  0.7739  0.2580
 2156TIP3    H128027   3.527   0.928   7.264 -1.1753  1.2071  0.3036
 2156TIP3    H228028   3.463   0.887   7.395  1.5340 -0.8621  1.0565
 2157TIP3   OH228029   1.863   0.054   0.904 -0.5234  0.1183  0.7789
 2157TIP3    H128030   1.787   0.016   0.861 -0.9984  0.9597  0.8601
 2157TIP3    H228031   1.848   0.040   0.998  1.1855 -2.9986  0.7106
 2158TIP3   OH228032   2.899   0.957   7.041 -0.4338  0.2875 -0.4989
 2158TIP3    H128033   2.913   1.036   7.093  2.1213 -1.7249  2.1728
 2158TIP3    H228034   2.928   0.981   6.953 -1.2058  2.7078 -0.1570
 2159TIP3   OH228035   3.584   3.097   8.416  0.6883 -0.1009 -0.3927
 2159TIP3    H128036   3.607   3.021   8.363 -0.8738 -0.5181 -0.5333
 2159TIP3    H228037   3.527   3.062   8.485 -0.6436  1.0242 -0.8785
 2160TIP3   OH228038   5.954   2.784   6.899 -0.9745  0.2879 -0.4489
 2160TIP3    H128039   5.967   2.851   6.831 -2.5694 -0.5970 -1.7042
 2160TIP3    H228040   6.031   2.728   6.892 -0.9718  0.3805 -1.3410
 2161TIP3   OH228041   4.553   0.563   2.258  0.1092  0.4861  0.6181
 2161TIP3    H128042   4.569   0.607   2.341 -1.1676  0.9864  0.6166
 2161TIP3    H228043   4.471   0.517   2.270  1.2267 -1.6720  0.4884
 2162TIP3   OH228044   2.233   6.256   0.099  0.2269  0.5556  0.4211
 2162TIP3    H128045   2.309   6.288   0.050  2.6440 -0.0284  3.4420
 2162TIP3    H228046   2.186   6.335   0.126  0.1595  0.9652 -0.8462
 2163TIP3   OH228047   6.250   6.577   1.824 -0.2866  0.1258 -0.0864
 2163TIP3    H128048   6.240   6.508   1.758  0.5384  0.5567 -0.6828
 2163TIP3    H228049   6.209   6.654   1.785  0.3973  0.4389 -0.2063
 2164TIP3   OH228050   1.117   6.700   0.096 -0.2634  0.6856  0.1920
 2164TIP3    H128051   1.212   6.709   0.097 -0.3027  1.2700  1.5914
 2164TIP3    H228052   1.092   6.703   0.188 -1.6227  0.3111 -0.1426
 2165TIP3   OH228053   3.920   6.632   7.758 -0.0105  0.9237 -0.2382
 2165TIP3    H128054   3.969   6.677   7.689  0.2694  1.9933  0.6308
 2165TIP3    H228055   3.985   6.582   7.807 -0.2395 -0.0025 -0.8552
 2166TIP3   OH228056   0.156   5.635   6.082  0.0812  0.2399 -0.4645
 2166TIP3    H128057   0.147   5.570   6.151 -1.2453 -1.0302 -1.7729
 2166TIP3    H228058   0.138   5.718   6.126 -0.7657 -0.5302  0.7079
 2167TIP3   OH228059   2.615   1.840   0.572  0.2557  0.5368 -0.0540
 2167TIP3    H128060   2.583   1.890   0.647  1.7970  0.3010  0.8211
 2167TIP3    H228061   2.568   1.757   0.576 -1.3202  1.3703 -0.7082
 2168TIP3   OH228062   2.542   3.792   0.923  0.3270  0.1396  0.5032
 2168TIP3    H128063   2.524   3.886   0.921  0.1431  0.0967 -0.1214
 2168TIP3    H228064   2.498   3.757   0.845  1.0908 -0.3456  0.2809
 2169TIP3   OH228065   5.846   0.750   1.536 -0.1277  0.0839  0.1718
 2169TIP3    H128066   5.756   0.777   1.557 -0.9672 -2.0012 -0.4440
 2169TIP3    H228067   5.901   0.807   1.588 -1.7202  2.6497 -0.7644
 2170TIP3   OH228068   0.748   0.385   7.401  0.4325 -0.3855  0.5508
 2170TIP3    H128069   0.792   0.469   7.386 -0.3149 -0.2277 -0.9800
 2170TIP3    H228070   0.817   0.320   7.388  0.1967 -0.1886 -2.6829
 2171TIP3   OH228071   5.431   0.956   8.027  0.1022 -0.3978 -0.9843
 2171TIP3    H128072   5.364   0.912   7.974 -0.8224  0.9554 -0.9767
 2171TIP3    H228073   5.508   0.956   7.971 -0.4654 -0.2278 -1.7932
 2172TIP3   OH228074   2.983   3.915   7.742  0.6230 -0.1029 -0.9222
 2172TIP3    H128075   3.058   3.860   7.721  0.5696 -0.1604 -0.9633
 2172TIP3    H228076   2.943   3.936   7.658 -0.0116 -0.9314 -0.8402
 2173TIP3   OH228077   1.091   4.828   7.015 -0.6847  0.1442  0.4593
 2173TIP3    H128078   1.162   4.764   7.015 -0.4481  0.4031  1.3818
 2173TIP3    H228079   1.012   4.775   7.020 -0.6107 -0.1743 -1.0591
 2174TIP3   OH228080   4.659   4.594   0.804 -0.3700 -0.0064 -0.8982
 2174TIP3    H128081   4.710   4.647   0.743  3.3038 -1.6918  0.4483
 2174TIP3    H228082   4.646   4.652   0.880  2.7650 -0.5213  0.1676
 2175TIP3   OH228083   4.775   3.854   2.713 -0.3480 -0.1166 -0.2399
 2175TIP3    H128084   4.834   3.928   2.727 -0.6176  0.0503  0.0359
 2175TIP3    H228085   4.729   3.874   2.632  0.7374 -0.7620 -1.0407
 2176TIP3   OH228086   5.623   2.937   6.766 -0.8180 -0.0971  0.6603
 2176TIP3    H128087   5.557   2.993   6.725  0.2573 -0.3020 -1.4602
 2176TIP3    H228088   5.689   2.923   6.698  0.3904 -1.5949  2.0539
 2177TIP3   OH228089   1.196   6.228   1.483 -0.3728 -0.2432  0.2303
 2177TIP3    H128090   1.120   6.222   1.425 -0.7324 -1.5696  0.7907
 2177TIP3    H228091   1.240   6.143   1.472  0.2417 -0.0206  0.9560
 2178TIP3   OH228092   5.070   4.062   7.809 -0.3105 -0.5721 -0.0815
 2178TIP3    H128093   4.977   4.061   7.790  0.2178 -1.0470 -3.1985
 2178TIP3    H228094   5.085   4.148   7.849 -2.1458 -0.8063  1.2358
 2179TIP3   OH228095   1.008   1.519   1.344 -0.3261 -0.1408 -0.0378
 2179TIP3    H128096   1.094   1.554   1.319 -0.9538  0.1603 -1.9354
 2179TIP3    H228097   0.957   1.596   1.368 -0.9301  0.0201 -1.7455
 2180TIP3   OH228098   1.150   1.287   7.244  0.8152 -0.3241  0.3505
 2180TIP3    H128099   1.101   1.360   7.204  1.0796 -0.2696  0.1247
 2180TIP3    H228100   1.202   1.251   7.172 -1.3159 -2.4666 -0.2604
 2181TIP3   OH228101   5.069   3.336   0.300 -0.1375 -0.5438 -0.0712
 2181TIP3    H128102   5.063   3.343   0.396  0.0144  1.7110 -0.1693
 2181TIP3    H228103   4.982   3.358   0.269 -0.4225 -2.0944 -0.4788
 2182TIP3   OH228104   4.040   6.727   0.491 -0.3318 -0.0787 -0.2820
 2182TIP3    H128105   4.083   6.707   0.574  1.2662 -0.2085 -1.1077
 2182TIP3    H228106   4.032   6.823   0.490 -0.0830 -0.0572 -0.1135
 2183TIP3   OH228107   2.213   3.206   7.113 -0.4380  0.4316 -0.0030
 2183TIP3    H128108   2.294   3.157   7.097 -3.2013 -4.0890 -2.2347
 2183TIP3    H228109   2.223   3.287   7.064  2.1314 -0.7055 -1.5349
 2184TIP3   OH228110   0.829   2.167   8.220  0.3242 -0.0836 -0.2796
 2184TIP3    H128111   0.787   2.200   8.140  0.6984 -0.1400 -0.5018
 2184TIP3    H228112   0.836   2.244   8.277  0.5096  0.0636 -0.4989
 2185TIP3   OH228113   3.636   0.058   1.075 -0.5207 -0.4159 -0.2314
 2185TIP3    H128114   3.698   0.130   1.065  2.7391 -2.9949 -0.1369
 2185TIP3    H228115   3.592   0.075   1.158 -1.8185  2.6678 -1.3652
 2186TIP3   OH228116   4.302   4.049   1.732 -0.3655  0.2171 -0.2334
 2186TIP3    H128117   4.345   4.131   1.757 -0.4225  0.1096  0.2143
 2186TIP3    H228118   4.293   4.055   1.637  0.3133  0.3935 -0.2871
 2187TIP3   OH228119   5.031   3.247   0.871  0.2574 -0.2454  0.1889
 2187TIP3    H128120   5.055   3.327   0.823 -1.8968  0.5091  0.2385
 2187TIP3    H228121   5.038   3.271   0.963 -1.7688  0.4486  0.2297
 2188TIP3   OH228122   2.800   4.953   0.146 -0.0066  0.3329 -0.3545
 2188TIP3    H128123   2.868   5.020   0.148  1.2212 -0.7330 -2.4825
 2188TIP3    H228124   2.844   4.873   0.173 -1.2718  0.1790  1.4237
 2189TIP3   OH228125   3.730   2.853   6.415  0.0033  0.6316  0.2695
 2189TIP3    H128126   3.800   2.812   6.465  0.2623  0.5174 -0.1825
 2189TIP3    H228127   3.675   2.780   6.385  1.9607  0.2836 -2.8442
 2190TIP3   OH228128   3.738   1.943   1.163  0.2988  0.2146  0.0583
 2190TIP3    H128129   3.665   1.969   1.107 -0.8870 -0.7527  1.1040
 2190TIP3    H228130   3.732   1.848   1.168  2.0981  0.0302 -0.4089
 2191TIP3   OH228131   6.034   0.821   6.665  0.0269 -0.0769 -0.1014
 2191TIP3    H128132   6.097   0.842   6.734 -1.3743  0.7586  0.9888
 2191TIP3    H228133   5.974   0.896   6.664 -0.9732 -0.8560 -1.0652
 2192TIP3   OH228134   0.226   5.480   0.013 -0.3058  0.1080 -0.1556
 2192TIP3    H128135   0.167   5.405   0.019  1.4761 -1.3286  0.3497
 2192TIP3    H228136   0.203   5.535   0.088 -0.5798 -0.7482  0.4037
 2193TIP3   OH228137   6.489   5.139   8.170  0.0190  0.4824  0.5112
 2193TIP3    H128138   6.567   5.087   8.149 -0.8705 -0.2961 -1.0481
 2193TIP3    H228139   6.509   5.226   8.138 -0.3686 -0.1175 -1.4491
 2194TIP3   OH228140   5.437   3.052   8.442  0.5360  0.3921  0.1599
 2194TIP3    H128141   5.439   3.127   8.502  1.4608 -0.1535  0.8546
 2194TIP3    H228142   5.353   3.009   8.460  0.5689  0.5380  0.6993
 2195TIP3   OH228143   1.932   0.187   7.007  0.6003  0.6397  0.1237
 2195TIP3    H128144   1.852   0.239   7.017  0.3641  0.4905 -0.8668
 2195TIP3    H228145   1.957   0.200   6.915  1.4817  0.3483  0.3177
 2196TIP3   OH228146   2.163   0.480   7.727  0.3976 -0.0960 -0.6129
 2196TIP3    H128147   2.141   0.388   7.741  0.8967 -0.5429 -2.5480
 2196TIP3    H228148   2.231   0.498   7.792 -0.5794 -0.6930  0.6331
 2197TIP3   OH228149   2.048   5.884   8.341 -0.2225  0.1874  0.5372
 2197TIP3    H128150   2.105   5.901   8.415 -0.9672  2.5409  0.6332
 2197TIP3    H228151   1.962   5.915   8.369 -0.7877 -0.0265 -0.8762
 2198TIP3   OH228152   2.177   3.307   0.521 -0.4344  0.9568 -0.1396
 2198TIP3    H128153   2.263   3.317   0.563  0.8148  0.6607 -2.4620
 2198TIP3    H228154   2.189   3.235   0.458 -2.0769  1.5912 -1.2503
 2199TIP3   OH228155   6.489   2.838   0.800  0.0914  0.5627 -0.5515
 2199TIP3    H128156   6.458   2.747   0.794  0.9669  0.3412 -2.5427
 2199TIP3    H228157   6.567   2.832   0.855  0.8974 -0.1602 -1.7109
 2200TIP3   OH228158   6.735   0.830   0.565  0.7156  0.2209 -0.1155
 2200TIP3    H128159   6.820   0.867   0.592 -0.0212  1.0426  1.1865
 2200TIP3    H228160   6.672   0.901   0.582 -0.3091 -0.5605 -0.5687
 2201TIP3   OH228161   2.510   4.100   0.852  0.0225 -0.4440  0.5747
 2201TIP3    H128162   2.580   4.154   0.888 -0.0515 -0.0075  0.0790
 2201TIP3    H228163   2.540   4.076   0.765  0.9294 -2.8677  1.4898
 2202TIP3   OH228164   5.850   5.692   6.832  0.4722  0.4482  0.3807
 2202TIP3    H128165   5.889   5.776   6.811 -0.1941  0.8231  0.6133
 2202TIP3    H228166   5.832   5.696   6.926 -2.8510  1.4939 -0.1466
 2203TIP3   OH228167   0.048   4.101   2.402  0.0371 -0.0748  0.0157
 2203TIP3    H128168  -0.037   4.095   2.446  0.2781  0.6611  0.6143
 2203TIP3    H228169   0.103   4.036   2.447 -0.0575 -0.1769 -0.0154
 2204TIP3   OH228170   3.342   2.186   8.007  0.1130  0.1623  0.1903
 2204TIP3    H128171   3.281   2.112   8.004  0.4743 -0.1112 -0.7359
 2204TIP3    H228172   3.424   2.151   7.972  0.2684  1.0051 -0.3195
 2205TIP3   OH228173   1.626   2.875   7.554 -0.1032 -0.1692 -0.0835
 2205TIP3    H128174   1.550   2.817   7.560 -1.3913  1.2679 -1.4489
 2205TIP3    H228175   1.692   2.823   7.510 -0.1235 -1.5816  1.4777
 2206TIP3   OH228176   3.662   1.503   8.488  0.4935  0.3173 -0.1210
 2206TIP3    H128177   3.639   1.594   8.504 -0.4294  0.0695  0.0081
 2206TIP3    H228178   3.748   1.507   8.445  0.6390  1.2199  0.2252
 2207TIP3   OH228179   1.664   3.917   2.407 -0.1734  0.1049  0.1056
 2207TIP3    H128180   1.656   3.836   2.356  0.1018  0.9377 -1.3176
 2207TIP3    H228181   1.681   3.985   2.342  0.3086  1.2121  1.3310
 2208TIP3   OH228182   3.371   1.523   0.064 -0.2629  0.6127 -0.4999
 2208TIP3    H128183   3.368   1.616   0.038 -4.0113  1.0276  0.7936
 2208TIP3    H228184   3.358   1.475  -0.018 -1.6236  1.4179 -0.7866
 2209TIP3   OH228185   1.911   2.500   0.038  0.0291  0.1478 -0.1867
 2209TIP3    H128186   1.890   2.578   0.088  0.9555  0.6283 -0.5186
 2209TIP3    H228187   1.954   2.533  -0.041  1.7345 -0.7255  0.3208
 2210TIP3   OH228188   3.666   5.695   7.407 -0.2126 -0.3498 -0.2130
 2210TIP3    H128189   3.736   5.753   7.377 -2.0913  1.2418 -1.8472
 2210TIP3    H228190   3.647   5.640   7.330  0.3705 -2.0234  0.7779
 2211TIP3   OH228191   1.025   3.296   0.670  0.2451  0.2913 -0.0648
 2211TIP3    H128192   1.099   3.264   0.618  0.9615  0.1683  0.9856
 2211TIP3    H228193   1.052   3.382   0.700 -0.1017  0.3051  0.2112
 2212TIP3   OH228194   5.895   0.321   8.364 -0.3803  0.3599 -0.2579
 2212TIP3    H128195   5.882   0.228   8.347 -0.5888  0.4927 -0.8788
 2212TIP3    H228196   5.926   0.326   8.454  2.2885 -0.5426 -1.0074
 2213TIP3   OH228197   1.025   4.824   7.427 -0.2132 -0.1779  0.4765
 2213TIP3    H128198   1.092   4.838   7.494 -0.9324 -0.6805  1.3367
 2213TIP3    H228199   0.971   4.753   7.463 -0.6062 -0.4714 -0.6551
 2214TIP3   OH228200   3.972   5.890   8.431  0.6959 -0.1253  0.1262
 2214TIP3    H128201   3.890   5.854   8.398  1.4458 -0.3271 -1.6255
 2214TIP3    H228202   4.019   5.815   8.466 -0.0290  0.0616  1.5612
 2215TIP3   OH228203   2.244   0.483   1.154 -0.5509 -0.4384  0.8685
 2215TIP3    H128204   2.268   0.567   1.114  1.2844 -1.1785  0.3373
 2215TIP3    H228205   2.170   0.505   1.212 -1.2110  1.2269 -0.5085
 2216TIP3   OH228206   4.358   6.162   6.532  0.0980  0.2968  0.0608
 2216TIP3    H128207   4.381   6.171   6.624 -2.9136  0.2488  0.9439
 2216TIP3    H228208   4.374   6.248   6.494  1.3453  0.3220  0.6013
 2217TIP3   OH228209   5.573   5.604   0.377  0.1638  0.0699 -0.0569
 2217TIP3    H128210   5.486   5.580   0.345  0.5755 -1.8027  0.0980
 2217TIP3    H228211   5.628   5.604   0.299  0.7244 -2.3839  0.2459
 2218TIP3   OH228212   3.365   2.001   2.054  0.0522  0.0896 -0.0641
 2218TIP3    H128213   3.418   1.922   2.042  1.2879  0.5641  1.7610
 2218TIP3    H228214   3.284   1.970   2.094 -0.3049 -0.4348 -1.1484
 2219TIP3   OH228215   0.267   2.039   0.521 -0.4954 -0.1494  0.1510
 2219TIP3    H128216   0.210   2.045   0.445  1.0636  0.8852 -1.0063
 2219TIP3    H228217   0.346   2.087   0.495  0.6096 -0.9118  1.9404
 2220TIP3   OH228218   3.770   2.115   1.418 -0.2257 -0.3090  0.9590
 2220TIP3    H128219   3.789   2.022   1.409  2.2775  0.2904 -1.3322
 2220TIP3    H228220   3.690   2.129   1.367  0.3268 -0.9872 -0.1355
 2221TIP3   OH228221   2.478   6.605   8.082  0.4589 -0.5994  0.3687
 2221TIP3    H128222   2.385   6.588   8.070  0.2277  0.1442  0.9737
 2221TIP3    H228223   2.481   6.674   8.148  1.4567 -0.8801  0.6342
 2222TIP3   OH228224   2.066   2.923   8.426 -0.3525  0.1418  0.0663
 2222TIP3    H128225   2.008   2.959   8.493 -1.6591  0.8963 -1.3993
 2222TIP3    H228226   2.143   2.980   8.427 -0.5955  0.4623  0.5534
 2223TIP3   OH228227   2.938   0.345   8.378  0.0852  0.2991 -0.4749
 2223TIP3    H128228   2.914   0.376   8.466  0.9798  0.2388 -0.2031
 2223TIP3    H228229   2.969   0.255   8.392 -0.6042 -0.0318 -0.9846
 2224TIP3   OH228230   3.299   2.244   6.948  0.0770  0.3602  0.0879
 2224TIP3    H128231   3.294   2.196   6.865 -1.4724 -0.6644  0.7265
 2224TIP3    H228232   3.267   2.182   7.014 -0.1004  1.6277  1.2384
 2225TIP3   OH228233   2.623   2.413   8.261 -0.4577  0.3238 -1.0099
 2225TIP3    H128234   2.623   2.456   8.176 -0.4211 -0.3621 -1.3629
 2225TIP3    H228235   2.589   2.479   8.321  2.0643  1.8164 -1.0342
 2226TIP3   OH228236   5.719   4.940   0.240  0.3883  0.1056 -0.4633
 2226TIP3    H128237   5.758   4.881   0.304  1.3412  2.5453  1.3627
 2226TIP3    H228238   5.628   4.950   0.269  0.8822  1.4027  0.7655
 2227TIP3   OH228239   6.636   1.026   0.783 -0.4030 -0.3056  0.0537
 2227TIP3    H128240   6.722   1.068   0.769 -1.0263  0.3873 -2.1298
 2227TIP3    H228241   6.581   1.063   0.714 -2.2228 -1.4385  0.8544
 2228TIP3   OH228242   6.070   4.757   1.992  0.1042 -0.1042 -0.1182
 2228TIP3    H128243   6.058   4.847   2.024 -1.5067 -0.6308  0.9010
 2228TIP3    H228244   6.165   4.748   1.981  0.2366  1.9619 -1.0237
 2229TIP3   OH228245   1.867   1.959   1.596  0.2582 -0.3954 -0.2610
 2229TIP3    H128246   1.889   2.051   1.612  0.0020 -0.7119  2.3963
 2229TIP3    H228247   1.825   1.930   1.677 -1.7008 -2.2921 -1.8396
 2230TIP3   OH228248   5.729   2.340   0.052 -0.2946 -0.1048 -0.3040
 2230TIP3    H128249   5.636   2.358   0.044 -0.2226  0.6384  0.3801
 2230TIP3    H228250   5.735   2.260   0.103 -0.5640 -0.2966 -0.5769
 2231TIP3   OH228251   0.609   4.831   8.105  0.1585 -0.6853 -0.6562
 2231TIP3    H128252   0.514   4.823   8.106  0.1380 -0.6343  0.6373
 2231TIP3    H228253   0.641   4.750   8.144  0.5791 -0.3025 -0.1734
 2232TIP3   OH228254   1.735   0.607   8.375  0.7764  0.5219  0.6981
 2232TIP3    H128255   1.806   0.554   8.411 -0.0185  0.4493  2.2741
 2232TIP3    H228256   1.777   0.686   8.341  1.8413 -0.5405 -0.5773
 2233TIP3   OH228257   2.633   2.458   7.798  0.3876  0.0777  0.4877
 2233TIP3    H128258   2.569   2.392   7.772  0.0335  1.0886 -1.4213
 2233TIP3    H228259   2.634   2.453   7.894 -0.0709 -2.2279  0.4479
 2234TIP3   OH228260   4.043   3.980   0.869 -0.0205 -0.1535 -0.2724
 2234TIP3    H128261   4.079   4.056   0.822  1.0529  0.3312  1.2602
 2234TIP3    H228262   4.093   3.906   0.836  1.1413  0.2635  0.4737
 2235TIP3   OH228263   2.019   6.736   6.414  0.2836  0.4422  0.5259
 2235TIP3    H128264   2.101   6.786   6.410  0.2383  0.4510 -0.9140
 2235TIP3    H228265   2.047   6.648   6.441  0.7858  0.4421  0.0382
 2236TIP3   OH228266   3.718   3.617   0.244 -0.0377  0.3357  0.1059
 2236TIP3    H128267   3.690   3.635   0.155  1.2492  2.0459 -0.0072
 2236TIP3    H228268   3.644   3.644   0.299  0.0049  1.3928 -0.3471
 2237TIP3   OH228269   0.640   3.339   8.130  0.9299 -0.3963  0.1437
 2237TIP3    H128270   0.682   3.273   8.075  0.5716  0.8154 -1.6842
 2237TIP3    H228271   0.704   3.410   8.137  1.2908 -0.8504  2.0327
 2238TIP3   OH228272   0.779   1.239   7.799  0.1835  0.0754 -0.3570
 2238TIP3    H128273   0.788   1.182   7.875  0.2482  0.4518 -0.0809
 2238TIP3    H228274   0.686   1.234   7.775  0.2334 -0.3208 -0.4745
 2239TIP3   OH228275   2.559   2.738   7.736  0.5517  0.2204 -0.1139
 2239TIP3    H128276   2.562   2.642   7.744  1.1191  0.3294  1.1905
 2239TIP3    H228277   2.467   2.757   7.718  0.4537 -0.5741 -0.5149
 2240TIP3   OH228278   0.303   6.682   1.119  0.1775  0.1865  0.0517
 2240TIP3    H128279   0.269   6.700   1.031 -2.9501 -3.9868  0.1231
 2240TIP3    H228280   0.380   6.628   1.103  0.8098  1.1063 -0.0797
 2241TIP3   OH228281   5.546   2.861   1.222 -0.3716  0.1933  0.2957
 2241TIP3    H128282   5.597   2.825   1.294 -0.9490 -1.1122  0.0853
 2241TIP3    H228283   5.456   2.839   1.242 -0.4970 -0.7118 -1.0781
 2242TIP3   OH228284   1.215   5.499   0.909  0.3264 -0.5122  0.2565
 2242TIP3    H128285   1.243   5.577   0.863 -0.7145  0.2587  0.8786
 2242TIP3    H228286   1.218   5.429   0.844 -1.6544  0.6458 -1.1917
 2243TIP3   OH228287   3.469   4.574   8.455 -0.0013  0.1135  0.0565
 2243TIP3    H128288   3.436   4.497   8.502  2.2691 -0.2576  1.1921
 2243TIP3    H228289   3.500   4.540   8.371 -0.1071  0.0151  0.0563
 2244TIP3   OH228290   5.393   1.792   7.996  0.1787  0.7025  1.2592
 2244TIP3    H128291   5.475   1.833   7.967 -0.2633  0.8769  0.1960
 2244TIP3    H228292   5.325   1.854   7.969 -0.2799  0.8890  2.7401
 2245TIP3   OH228293   1.913   4.858   1.746 -0.0913  0.4649  0.6646
 2245TIP3    H128294   1.883   4.941   1.709  0.0975 -0.0617 -0.7039
 2245TIP3    H228295   2.002   4.875   1.775  0.4017  0.4129 -0.7725
 2246TIP3   OH228296   3.154   0.038   7.954  0.1606 -0.1100 -0.1776
 2246TIP3    H128297   3.205  -0.043   7.954 -0.9089 -0.8293  1.2874
 2246TIP3    H228298   3.102   0.034   7.874 -0.1858 -1.0826  0.0865
 2247TIP3   OH228299   4.832   1.216   7.441  0.5483  0.0317  0.1106
 2247TIP3    H128300   4.739   1.236   7.453  0.4102 -0.4780 -0.0850
 2247TIP3    H228301   4.873   1.244   7.523  0.2205  0.2371  0.2085
 2248TIP3   OH228302   6.395   1.387   2.320  0.3145 -0.0834 -0.0627
 2248TIP3    H128303   6.369   1.459   2.263  2.7440  1.9089  1.1275
 2248TIP3    H228304   6.423   1.318   2.260 -1.4584  0.1639 -1.2411
 2249TIP3   OH228305   1.375   3.860   2.571 -0.0175  0.0795  0.2247
 2249TIP3    H128306   1.331   3.835   2.490  0.4723  0.9263 -0.3274
 2249TIP3    H228307   1.356   3.789   2.632 -0.2656 -0.6530 -0.6770
 2250TIP3   OH228308   6.080   5.945   7.003 -0.0531 -0.7131 -0.0799
 2250TIP3    H128309   6.029   5.949   6.922 -1.6869 -0.2550  0.9170
 2250TIP3    H228310   6.044   5.870   7.050 -0.5980  0.2660  1.1287
 2251TIP3   OH228311   2.128   0.752   1.542  0.1864 -0.3077 -0.2935
 2251TIP3    H128312   2.148   0.682   1.604  1.6587 -0.0757 -0.4693
 2251TIP3    H228313   2.204   0.810   1.545 -0.5891  0.7936 -0.8458
 2252TIP3   OH228314   5.058   6.600   0.315  0.0656 -0.2218 -0.1629
 2252TIP3    H128315   5.143   6.630   0.282 -0.6133  3.3393  0.8250
 2252TIP3    H228316   5.010   6.575   0.237  0.2254  3.0914 -1.5044
 2253TIP3   OH228317   1.075   4.756   1.713 -0.1276  0.0122  0.2081
 2253TIP3    H128318   1.103   4.848   1.710 -1.7707  0.5082 -1.5947
 2253TIP3    H228319   1.149   4.708   1.675  1.2456  0.3821  2.2333
 2254TIP3   OH228320   6.798   2.436   7.199  0.2421  0.1703  0.7324
 2254TIP3    H128321   6.750   2.359   7.229  1.1300 -0.2670  1.0598
 2254TIP3    H228322   6.803   2.425   7.104  0.2762 -0.1271  0.7660
 2255TIP3   OH228323   1.806   0.919   7.576 -0.4431  0.0109 -0.7059
 2255TIP3    H128324   1.788   0.966   7.495  1.1184 -0.4606 -1.3638
 2255TIP3    H228325   1.735   0.944   7.635 -0.4205  2.0856 -1.4843
 2256TIP3   OH228326   0.132   6.374   7.539 -0.7126  0.1587  0.3929
 2256TIP3    H128327   0.099   6.294   7.498 -2.8217 -0.9785  3.9237
 2256TIP3    H228328   0.226   6.361   7.546 -0.5031 -0.3791 -2.1667
 2257TIP3   OH228329   4.877   3.846   8.420 -0.2917 -0.3181  0.1146
 2257TIP3    H128330   4.864   3.930   8.377  0.6060 -1.2508 -2.1475
 2257TIP3    H228331   4.808   3.842   8.487 -0.0904  2.3443  0.5826
 2258TIP3   OH228332   4.109   0.880   0.409 -0.2863 -0.6316  0.3653
 2258TIP3    H128333   4.089   0.901   0.318  0.4008 -0.6039  0.2101
 2258TIP3    H228334   4.201   0.905   0.420 -0.2433 -1.0093  0.9519
 2259TIP3   OH228335   1.193   1.438   7.698 -0.2184 -0.0026 -0.4912
 2259TIP3    H128336   1.243   1.434   7.617 -1.4422  0.2542 -1.2797
 2259TIP3    H228337   1.213   1.524   7.735 -1.1343  0.6613 -1.5075
 2260TIP3   OH228338   3.042   4.208   7.716 -0.0335 -0.2083  0.1357
 2260TIP3    H128339   2.957   4.179   7.752  1.1280 -1.7750  1.8525
 2260TIP3    H228340   3.105   4.147   7.755  1.8274  0.5682 -1.5453
 2261TIP3   OH228341   0.154   1.533   1.695 -0.1703  0.5030  0.0966
 2261TIP3    H128342   0.168   1.608   1.753 -0.6534  0.9192 -0.3134
 2261TIP3    H228343   0.116   1.571   1.616 -1.7605 -0.3572  0.4251
 2262TIP3   OH228344   2.874   6.305   8.186  0.2273  0.2837 -0.3178
 2262TIP3    H128345   2.881   6.399   8.201  1.8822  0.3390 -1.2927
 2262TIP3    H228346   2.810   6.297   8.115  0.6341  0.7364 -0.7457
 2263TIP3   OH228347   3.285   5.639   0.791 -0.3493 -0.2350  0.2026
 2263TIP3    H128348   3.327   5.557   0.765 -2.3101 -1.4588  0.6421
 2263TIP3    H228349   3.218   5.654   0.724  0.8718  1.7958 -0.6349
 2264TIP3   OH228350   3.109   5.702   0.538 -0.0370  0.6345  0.4647
 2264TIP3    H128351   3.017   5.679   0.525 -0.5715  2.0119  1.6052
 2264TIP3    H228352   3.145   5.712   0.450 -0.9708  0.0734  0.0143
 2265TIP3   OH228353   2.575   1.845   6.561  0.3778  0.3972  0.0742
 2265TIP3    H128354   2.593   1.916   6.499  1.9140 -0.4934 -0.5623
 2265TIP3    H228355   2.486   1.816   6.538  0.3083  1.1245 -0.6421
 2266TIP3   OH228356   3.213   2.326   2.009  0.2734 -0.2066  0.3596
 2266TIP3    H128357   3.245   2.274   1.935 -0.5933 -1.3449  0.7586
 2266TIP3    H228358   3.118   2.318   2.005  0.0009  2.5072 -0.3665
 2267TIP3   OH228359   3.740   0.802   6.831 -0.3450 -0.1441 -0.1810
 2267TIP3    H128360   3.781   0.868   6.776 -0.5506  0.4585  0.3795
 2267TIP3    H228361   3.743   0.839   6.919  0.9607 -1.5523  0.4202
 2268TIP3   OH228362   3.439   1.657   7.403  0.0851 -0.1945  0.1952
 2268TIP3    H128363   3.434   1.734   7.346 -0.3146 -1.4351 -1.5111
 2268TIP3    H228364   3.491   1.687   7.478  1.9943  1.0695 -1.5157
 2269TIP3   OH228365   1.250   6.695   7.699 -0.0421 -0.4908  0.1830
 2269TIP3    H128366   1.174   6.753   7.698  0.7180  0.7151  2.8660
 2269TIP3    H228367   1.239   6.640   7.621 -0.8466  3.1822 -2.6261
 2270TIP3   OH228368   4.736   3.043   6.589 -0.3731 -0.2632  0.4033
 2270TIP3    H128369   4.825   3.037   6.556 -0.5750  1.7771 -0.6382
 2270TIP3    H228370   4.701   2.954   6.578  0.7380 -0.5305 -1.4834
 2271TIP3   OH228371   2.448   3.712   0.702 -0.1419 -0.5423  0.1092
 2271TIP3    H128372   2.513   3.694   0.634  0.1798 -0.8644  0.5031
 2271TIP3    H228373   2.368   3.731   0.653  0.1061 -0.6893 -0.3631
 2272TIP3   OH228374   6.445   0.421   2.307  0.0074 -0.2728  0.0631
 2272TIP3    H128375   6.500   0.351   2.273 -0.4093 -0.0792 -1.0527
 2272TIP3    H228376   6.358   0.402   2.272 -0.4196  0.0024  0.9443
 2273TIP3   OH228377   6.051   1.184   7.132  0.2211 -0.5116  0.5873
 2273TIP3    H128378   6.060   1.244   7.057 -0.4762 -0.4086  0.5840
 2273TIP3    H228379   5.957   1.181   7.149  0.3420 -0.8590  1.2025
 2274TIP3   OH228380   5.604   2.516   6.711  0.4324 -0.0277 -0.7528
 2274TIP3    H128381   5.559   2.476   6.637  1.7016  0.3185 -1.7446
 2274TIP3    H228382   5.555   2.596   6.728 -0.8868 -0.9333 -0.0806
 2275TIP3   OH228383   0.852   5.301   0.226  0.7468 -0.2442  0.2686
 2275TIP3    H128384   0.840   5.396   0.231 -0.5795 -0.2988 -1.1876
 2275TIP3    H228385   0.914   5.288   0.155  0.7962 -0.4713  0.3526
 2276TIP3   OH228386   3.367   0.138   2.071  0.1282  0.0559 -0.3984
 2276TIP3    H128387   3.459   0.120   2.091  0.4545  3.0361  1.3573
 2276TIP3    H228388   3.336   0.189   2.145 -2.8855 -0.5275 -1.1258
 2277TIP3   OH228389   0.763   1.491   6.848  0.7894 -0.5312 -0.7311
 2277TIP3    H128390   0.778   1.519   6.757 -0.6481  0.1068 -0.8000
 2277TIP3    H228391   0.810   1.555   6.901 -0.5885  0.7201 -0.9646
 2278TIP3   OH228392   0.027   3.832   0.144 -0.0738 -0.5232  0.2773
 2278TIP3    H128393   0.083   3.782   0.084 -1.1178 -0.4943 -0.7603
 2278TIP3    H228394   0.077   3.911   0.163 -0.0196 -0.1636 -1.2053
 2279TIP3   OH228395   2.355   6.018   7.217 -0.3819  0.2061  0.5999
 2279TIP3    H128396   2.366   5.940   7.162 -2.3052  0.2289  0.1020
 2279TIP3    H228397   2.262   6.017   7.241 -0.0883  1.4891  1.9170
 2280TIP3   OH228398   2.062   1.029   1.665  0.4492 -0.7357 -0.6496
 2280TIP3    H128399   2.150   1.018   1.630  0.9401 -0.7361  0.5456
 2280TIP3    H228400   2.064   0.984   1.750 -0.1496  0.8080  0.2167
 2281TIP3   OH228401   5.194   6.738   0.974 -0.6553 -0.0078  0.0474
 2281TIP3    H128402   5.121   6.797   0.955  0.1422  0.8760 -0.3471
 2281TIP3    H228403   5.263   6.764   0.912 -0.4732 -1.7245 -0.5146
 2282TIP3   OH228404   3.388   2.871   0.107 -0.0925 -0.4448  0.0583
 2282TIP3    H128405   3.393   2.954   0.059 -4.3952 -1.0944 -2.0212
 2282TIP3    H228406   3.326   2.888   0.178 -0.0166 -1.5680  0.4168
 2283TIP3   OH228407   0.839   6.434   0.196 -0.3759 -0.8748 -0.3444
 2283TIP3    H128408   0.870   6.346   0.218 -0.6805 -0.7673  0.5500
 2283TIP3    H228409   0.762   6.447   0.252  1.1981  0.9701  1.5309
 2284TIP3   OH228410   5.771   2.727   8.372 -0.2700  0.0741  0.3583
 2284TIP3    H128411   5.805   2.788   8.307  0.9634  0.1122  1.0060
 2284TIP3    H228412   5.682   2.758   8.390  0.1374  1.3477  0.2599
 2285TIP3   OH228413   6.048   2.050   7.761  0.3668  0.5387 -0.2914
 2285TIP3    H128414   6.140   2.068   7.780  1.1547 -1.6362 -1.6920
 2285TIP3    H228415   6.012   2.021   7.845  1.4148 -0.2304 -0.0809
 2286TIP3   OH228416   5.864   3.651   1.596  1.3162 -0.2322 -0.7221
 2286TIP3    H128417   5.913   3.580   1.553 -1.6064 -2.8852 -0.0136
 2286TIP3    H228418   5.806   3.684   1.528 -1.1173 -2.3276  0.1869
 2287TIP3   OH228419   6.552   5.054   6.918 -0.1394 -0.5428  0.7759
 2287TIP3    H128420   6.529   5.145   6.902 -0.3463 -0.7246 -0.0011
 2287TIP3    H228421   6.468   5.009   6.930 -0.4198 -1.3938 -3.0576
 2288TIP3   OH228422   3.241   4.161   7.535 -0.9126 -0.1339  0.0603
 2288TIP3    H128423   3.290   4.176   7.616 -1.0222  1.6655 -0.1779
 2288TIP3    H228424   3.153   4.194   7.555 -1.0675 -0.1200 -0.6402
 2289TIP3   OH228425   0.344   1.307   6.554 -0.1514 -0.1391  0.5265
 2289TIP3    H128426   0.339   1.256   6.473 -2.8383  1.5041 -0.4866
 2289TIP3    H228427   0.430   1.350   6.550 -0.1742 -0.1763 -1.4282
 2290TIP3   OH228428   1.404   5.591   1.455  0.5154 -0.1197 -0.0758
 2290TIP3    H128429   1.377   5.567   1.544  1.4425 -1.8277 -0.2028
 2290TIP3    H228430   1.346   5.662   1.430 -0.5495 -0.4104  1.4537
 2291TIP3   OH228431   1.996   4.859   1.032  0.0773  0.8011 -0.0961
 2291TIP3    H128432   2.053   4.920   1.079  0.8668 -0.1877  0.2427
 2291TIP3    H228433   1.915   4.860   1.083  0.8776 -0.1596  1.2577
 2292TIP3   OH228434   6.414   3.393   0.886 -0.5204 -0.4771 -0.2013
 2292TIP3    H128435   6.385   3.472   0.931 -0.4448 -0.0075 -0.9727
 2292TIP3    H228436   6.380   3.321   0.940  0.5266  0.0585  1.2338
 2293TIP3   OH228437   2.723   2.641   0.113 -0.2842  0.6130 -0.4645
 2293TIP3    H128438   2.662   2.626   0.184  0.5211 -1.2863 -0.0857
 2293TIP3    H228439   2.810   2.639   0.154  0.1108  1.9203 -1.1668
 2294TIP3   OH228440   0.178   2.723   7.114 -0.3366  0.2674  0.0405
 2294TIP3    H128441   0.252   2.731   7.054  0.2325  1.1936  0.8475
 2294TIP3    H228442   0.187   2.636   7.153  0.7877  0.6688  0.7157
 2295TIP3   OH228443   5.166   0.478   8.429 -0.0117  0.1890  0.2608
 2295TIP3    H128444   5.249   0.486   8.382  0.9801  2.0290  2.1164
 2295TIP3    H228445   5.130   0.567   8.429 -1.6943 -0.4608  0.0442
 2296TIP3   OH228446   1.257   2.768   8.239  0.0345  0.4664 -0.0932
 2296TIP3    H128447   1.232   2.858   8.259  1.5492  0.3566  2.7468
 2296TIP3    H228448   1.173   2.723   8.224 -0.9068  1.8594  0.7765
 2297TIP3   OH228449   1.369   2.550   7.307  0.3293 -0.2897 -0.3394
 2297TIP3    H128450   1.329   2.627   7.266  0.1932 -0.3224 -0.2658
 2297TIP3    H228451   1.444   2.530   7.250  0.2399 -0.2324 -0.4781
 2298TIP3   OH228452   6.123   1.725   0.057  0.2680  0.1758 -0.0869
 2298TIP3    H128453   6.051   1.698  -0.000  0.0059 -1.0997  0.7882
 2298TIP3    H228454   6.143   1.814   0.031 -0.9734  0.2051 -1.0179
 2299TIP3   OH228455   2.089   1.747   0.479 -0.4106 -0.3993  0.4527
 2299TIP3    H128456   2.030   1.723   0.550 -3.4702  1.1060 -1.3869
 2299TIP3    H228457   2.124   1.832   0.505 -2.5619  0.7891 -0.3001
 2300TIP3   OH228458   1.718   1.603   1.609 -0.3989  0.3891 -0.8175
 2300TIP3    H128459   1.691   1.665   1.541 -2.2854  0.5400  0.0076
 2300TIP3    H228460   1.636   1.575   1.650  0.4894 -1.7208 -0.3376
 2301TIP3   OH228461   1.949   0.447   8.467 -0.2974 -0.3318  0.5228
 2301TIP3    H128462   2.045   0.445   8.468 -0.1851 -3.8555 -1.1606
 2301TIP3    H228463   1.923   0.389   8.538 -1.1316 -0.0561  0.4493
 2302TIP3   OH228464   5.810   3.216   7.272  0.5195 -0.0664  0.0995
 2302TIP3    H128465   5.760   3.146   7.231 -0.1297  0.6432 -0.3256
 2302TIP3    H228466   5.894   3.216   7.225  0.9197 -1.2053  0.7689
 2303TIP3   OH228467   1.108   5.596   8.403  0.3168  0.0616 -0.1935
 2303TIP3    H128468   1.016   5.619   8.416 -0.0995 -1.8095  0.5148
 2303TIP3    H228469   1.124   5.614   8.310 -0.1483  2.3187  0.1013
 2304TIP3   OH228470   1.077   4.822   7.959 -0.4837  0.1224  0.4411
 2304TIP3    H128471   0.987   4.854   7.966 -0.6073 -0.1083 -0.0805
 2304TIP3    H228472   1.073   4.750   7.896  0.0503  0.0494  0.4805
 2305TIP3   OH228473   3.012   4.322   1.092 -0.5490  0.1076  0.1697
 2305TIP3    H128474   3.051   4.240   1.121  0.6517  0.6070  0.0633
 2305TIP3    H228475   3.081   4.363   1.039 -1.9332  0.1395 -1.7342
 2306TIP3   OH228476   4.483   0.105   7.274 -1.2619  0.8037 -0.0490
 2306TIP3    H128477   4.564   0.111   7.324 -1.5230  0.2243  0.4516
 2306TIP3    H228478   4.507   0.139   7.187  0.2162 -1.6422 -0.7188
 2307TIP3   OH228479   6.202   5.468   0.958  0.0034 -0.4613 -0.5131
 2307TIP3    H128480   6.118   5.457   1.004 -0.3538  1.2333 -0.7055
 2307TIP3    H228481   6.194   5.411   0.881 -1.3831  0.4053 -1.0426
 2308TIP3   OH228482   2.015   0.998   6.897 -0.1841 -0.0683  0.2231
 2308TIP3    H128483   2.063   1.078   6.917  1.2310 -0.6174 -0.8534
 2308TIP3    H228484   2.058   0.930   6.949  0.2540 -0.5697 -0.7672
 2309TIP3   OH228485   4.577   0.770   8.585 -0.0442  0.5011  0.5093
 2309TIP3    H128486   4.509   0.773   8.517  1.0810  2.8170 -0.6204
 2309TIP3    H228487   4.646   0.716   8.546 -0.8724 -1.2648  1.3771
 2310TIP3   OH228488   6.140   1.431   2.065  0.0592  0.1021  0.6089
 2310TIP3    H128489   6.151   1.353   2.120 -0.8222 -1.5654 -1.4464
 2310TIP3    H228490   6.072   1.482   2.110  0.0736 -0.7013  1.5963
 2311TIP3   OH228491   2.160   3.909   7.869  0.3738 -0.3054  0.3610
 2311TIP3    H128492   2.244   3.884   7.830  0.1599  0.6991 -0.7923
 2311TIP3    H228493   2.178   3.914   7.963  1.6105 -0.0776  0.1285
 2312TIP3   OH228494   0.231   0.338   7.045 -0.2670 -0.1455 -0.5348
 2312TIP3    H128495   0.274   0.359   6.963  1.8094  1.4756  0.8662
 2312TIP3    H228496   0.291   0.279   7.090 -0.7312  0.0429  0.3766
 2313TIP3   OH228497   1.056   1.685   6.759 -0.6959 -0.2479  0.5258
 2313TIP3    H128498   1.018   1.671   6.672  0.4129  2.2576 -0.4611
 2313TIP3    H228499   1.094   1.773   6.755 -0.4220 -0.1241  3.5067
 2314TIP3   OH228500   1.443   2.956   7.218  0.1213 -0.4370 -0.0153
 2314TIP3    H128501   1.423   2.932   7.127  1.1987  0.9349 -0.6499
 2314TIP3    H228502   1.526   2.912   7.237  0.6061  0.3778 -0.1902
 2315TIP3   OH228503   2.876   1.821   0.776  0.0818  0.0291  0.2169
 2315TIP3    H128504   2.826   1.743   0.798 -1.4591  1.0810  0.5568
 2315TIP3    H228505   2.962   1.787   0.749 -0.0319 -1.6645  1.8046
 2316TIP3   OH228506   6.243   3.262   7.673 -0.5601 -0.0672 -0.5467
 2316TIP3    H128507   6.315   3.323   7.658 -1.7806  1.2740 -1.2484
 2316TIP3    H228508   6.229   3.220   7.588  1.1587 -2.4227  0.2497
 2317TIP3   OH228509   0.872   5.623   7.038  0.2818  0.0401  0.7408
 2317TIP3    H128510   0.837   5.682   6.971 -0.1925 -1.3060 -0.2412
 2317TIP3    H228511   0.949   5.584   6.998  0.3846 -0.2813  1.2432
 2318TIP3   OH228512   2.819   5.712   1.678  0.2511  0.0105  0.3030
 2318TIP3    H128513   2.842   5.645   1.742 -2.1425  0.1403  1.3975
 2318TIP3    H228514   2.724   5.708   1.672  0.1551  2.2757 -0.7693
 2319TIP3   OH228515   4.624   1.772   7.705  0.5954 -0.7571 -0.4431
 2319TIP3    H128516   4.699   1.728   7.666  1.6594  0.2586  0.4113
 2319TIP3    H228517   4.624   1.860   7.668  1.1017 -0.0603  1.1137
 2320TIP3   OH228518   5.007   4.497   1.462  0.4857 -0.4155 -0.1808
 2320TIP3    H128519   4.963   4.502   1.547 -0.5863 -0.0223 -0.7321
 2320TIP3    H228520   5.072   4.567   1.464 -1.7668  1.8437 -0.8775
 2321TIP3   OH228521   5.828   3.827   8.567 -0.0796 -0.4591 -0.1181
 2321TIP3    H128522   5.915   3.845   8.532  1.2011 -0.5567  2.7541
 2321TIP3    H228523   5.811   3.736   8.545  0.4804 -0.4114 -0.7867
 2322TIP3   OH228524   4.651   0.920   1.914 -0.0135 -0.3934 -0.3674
 2322TIP3    H128525   4.705   0.947   1.840 -2.0935  0.7634 -1.5853
 2322TIP3    H228526   4.662   0.989   1.979 -0.9387  0.5105 -1.1356
 2323TIP3   OH228527   2.984   0.939   0.844  0.3089  0.0264 -0.3204
 2323TIP3    H128528   2.904   0.964   0.888  0.7140 -1.7594  1.5877
 2323TIP3    H228529   3.021   1.022   0.811 -0.3734  1.3762  2.1232
 2324TIP3   OH228530   4.792   1.212   0.635  0.1634  0.1255 -0.2719
 2324TIP3    H128531   4.714   1.186   0.684  0.5377  1.9305  1.4202
 2324TIP3    H228532   4.774   1.303   0.609  1.9827  0.8514  0.8285
 2325TIP3   OH228533   2.899   0.082   0.307 -0.0914 -0.3577  0.1459
 2325TIP3    H128534   2.815   0.088   0.262 -0.1547  0.4897  0.3567
 2325TIP3    H228535   2.960   0.130   0.250  0.0173 -0.0495  0.5198
 2326TIP3   OH228536   4.653   3.927   7.373 -0.0073 -0.1443  1.1177
 2326TIP3    H128537   4.697   3.881   7.301 -2.9527 -1.7121  0.1570
 2326TIP3    H228538   4.629   4.012   7.336 -1.7878 -1.0604  0.0322
 2327TIP3   OH228539   1.194   4.447   6.514 -0.2007  0.7100 -0.0145
 2327TIP3    H128540   1.232   4.362   6.491  0.0676  0.4233  1.3525
 2327TIP3    H228541   1.100   4.432   6.518 -0.0615 -0.0209  1.8861
 2328TIP3   OH228542   1.492   2.839   6.947 -0.2654 -0.0143  0.2908
 2328TIP3    H128543   1.456   2.866   6.863  0.0727  0.2895  0.2399
 2328TIP3    H228544   1.554   2.908   6.970 -0.4319 -0.0445  0.8395
 2329TIP3   OH228545   6.499   5.382   8.419 -0.0353  0.3308  0.3275
 2329TIP3    H128546   6.589   5.385   8.387 -0.6104  2.2663 -1.3102
 2329TIP3    H228547   6.502   5.323   8.495  2.2899 -0.8330 -0.5746
 2330TIP3   OH228548   4.772   3.723   8.140 -0.7190  0.3814  0.1643
 2330TIP3    H128549   4.831   3.799   8.135 -1.6539  1.2791  1.9961
 2330TIP3    H228550   4.825   3.655   8.182  0.1862 -0.1055 -1.6559
 2331TIP3   OH228551   3.670   1.768   8.554 -0.1446 -0.2050  0.5420
 2331TIP3    H128552   3.689   1.788   8.646 -0.4716  0.0058  0.5655
 2331TIP3    H228553   3.724   1.830   8.504  0.5253 -0.7487  0.5782
 2332TIP3   OH228554   6.775   5.424   6.889  0.5402  0.0724 -0.7062
 2332TIP3    H128555   6.852   5.368   6.901 -0.7031 -1.4169  0.7115
 2332TIP3    H228556   6.719   5.376   6.828  0.7161  1.1901 -1.8075
 2333TIP3   OH228557   1.227   6.619   1.484  0.2671 -0.2795 -0.2098
 2333TIP3    H128558   1.177   6.689   1.526  0.0727 -0.7396  0.3506
 2333TIP3    H228559   1.174   6.593   1.409 -0.0062 -0.3076 -0.0073
 2334TIP3   OH228560   3.135   4.942   1.028  0.1810  0.2110 -0.3062
 2334TIP3    H128561   3.185   4.869   0.992 -0.1795 -0.3721  0.3698
 2334TIP3    H228562   3.200   4.995   1.074  0.4362  0.2987 -0.7627
 2335TIP3   OH228563   4.069   5.638   7.470 -0.4307 -0.0219 -0.1557
 2335TIP3    H128564   4.031   5.593   7.545 -0.5016 -1.0601 -0.7927
 2335TIP3    H228565   4.066   5.731   7.493 -2.4673 -0.1371  0.2141
 2336TIP3   OH228566   2.708   2.831   0.489  0.2650  0.4780 -0.2163
 2336TIP3    H128567   2.740   2.814   0.577 -0.0062  1.8621  0.1753
 2336TIP3    H228568   2.681   2.746   0.456 -1.1427  0.1421  1.6491
 2337TIP3   OH228569   5.030   0.585   7.993  0.2980  0.5573  0.0844
 2337TIP3    H128570   5.044   0.507   8.047 -0.6275 -0.0409 -0.5023
 2337TIP3    H228571   5.002   0.551   7.908 -0.2384  1.5290 -0.1501
 2338TIP3   OH228572   4.971   5.203   8.583  0.2505  0.0188 -0.6192
 2338TIP3    H128573   4.947   5.244   8.665  2.6146  0.6072 -0.1382
 2338TIP3    H228574   4.928   5.117   8.585 -1.6521  0.9337  0.0963
 2339TIP3   OH228575   4.423   6.094   1.995 -0.0030  0.5090 -0.6362
 2339TIP3    H128576   4.389   6.091   2.085  0.1050  0.3009 -0.6019
 2339TIP3    H228577   4.489   6.164   1.997  0.8716 -0.2898 -0.2424
 2340TIP3   OH228578   6.120   4.962   7.373 -0.3042  0.4183 -0.5349
 2340TIP3    H128579   6.075   4.882   7.402 -2.4948  1.7718 -0.0033
 2340TIP3    H228580   6.172   4.988   7.449  0.4761 -0.5116 -0.7303
 2341TIP3   OH228581   3.856   3.215   6.228 -0.3112  0.2932  0.4541
 2341TIP3    H128582   3.789   3.257   6.282 -1.6647  1.8709 -2.2456
 2341TIP3    H228583   3.820   3.129   6.208 -0.5934  0.3679  0.6359
 2342TIP3   OH228584   5.339   5.904   0.324  0.0284 -0.2308  0.2353
 2342TIP3    H128585   5.425   5.935   0.350 -0.5576  0.4493  1.4449
 2342TIP3    H228586   5.333   5.816   0.361 -0.2098  0.1511  1.1451
 2343TIP3   OH228587   2.418   3.819   7.828 -0.9091 -0.3257 -0.2502
 2343TIP3    H128588   2.495   3.840   7.775 -1.9051 -0.0909 -1.6754
 2343TIP3    H228589   2.437   3.857   7.914 -0.3759  1.7497 -1.2112
 2344TIP3   OH228590   2.572   1.191   0.813 -0.2229  0.8756 -0.7469
 2344TIP3    H128591   2.571   1.257   0.883  1.4907 -0.6464  0.8645
 2344TIP3    H228592   2.665   1.178   0.795 -0.4435 -1.6377 -0.4067
 2345TIP3   OH228593   2.120   6.260   2.194  0.0258 -0.2840  0.5089
 2345TIP3    H128594   2.210   6.246   2.164  0.3178  1.0063  0.7356
 2345TIP3    H228595   2.118   6.350   2.225 -0.8701 -0.8640  2.2624
 2346TIP3   OH228596   0.431   0.704   1.450  0.8460  0.1795  0.0812
 2346TIP3    H128597   0.464   0.727   1.537 -0.9305  0.7498  0.6332
 2346TIP3    H228598   0.371   0.631   1.466 -0.1716  0.8632 -0.5357
 2347TIP3   OH228599   6.428   4.680   0.637  0.0219 -0.1253 -0.2689
 2347TIP3    H128600   6.397   4.686   0.727  0.5067  0.9716 -0.1530
 2347TIP3    H228601   6.372   4.614   0.596 -1.7826  1.0505  0.2049
 2348TIP3   OH228602   6.240   4.495   1.808  0.2724 -0.1270  0.4377
 2348TIP3    H128603   6.250   4.539   1.892 -0.6315  0.0516  0.4649
 2348TIP3    H228604   6.223   4.404   1.830 -1.4305  0.1724  0.5367
 2349TIP3   OH228605   2.473   5.834   6.988  0.5772 -0.6025 -0.5836
 2349TIP3    H128606   2.553   5.885   6.972  0.2422 -0.4438 -1.7901
 2349TIP3    H228607   2.480   5.759   6.930  1.7956 -2.8561  2.2161
 2350TIP3   OH228608   4.876   2.843   7.801  0.0480 -0.2037 -0.1986
 2350TIP3    H128609   4.873   2.763   7.852 -1.5370 -0.4775 -0.6532
 2350TIP3    H228610   4.961   2.840   7.756  1.5063  0.0757  2.3513
 2351TIP3   OH228611   3.981   0.137   0.472 -0.3972 -0.9300  0.5233
 2351TIP3    H128612   4.036   0.215   0.483 -0.5621 -0.9304  1.4411
 2351TIP3    H228613   3.906   0.168   0.421  0.0302 -0.7301  0.0037
 2352TIP3   OH228614   3.254   1.415   0.283 -0.1449 -0.0265  0.2040
 2352TIP3    H128615   3.282   1.448   0.198 -0.8911 -0.9373 -0.4125
 2352TIP3    H228616   3.172   1.462   0.301  0.7677  1.2777  1.1482
 2353TIP3   OH228617   5.851   2.444   0.486 -0.1226  0.3125 -0.4996
 2353TIP3    H128618   5.812   2.404   0.564 -0.1801  1.3503  0.0164
 2353TIP3    H228619   5.887   2.370   0.437 -1.0000 -0.4639 -0.0079
 2354TIP3   OH228620   2.393   4.845   8.036  0.4404 -0.5351 -0.4768
 2354TIP3    H128621   2.372   4.844   8.129  0.6942 -0.6173 -0.4183
 2354TIP3    H228622   2.317   4.885   7.994  0.9174  0.8135 -0.0966
 2355TIP3   OH228623   4.220   4.615   7.511 -0.6252 -0.3151  0.9265
 2355TIP3    H128624   4.154   4.675   7.547 -0.6858  0.4006 -0.2962
 2355TIP3    H228625   4.178   4.529   7.512 -1.1831 -0.0448  1.1354
 2356TIP3   OH228626   6.174   0.175   1.729 -0.0923  0.7084  0.1850
 2356TIP3    H128627   6.269   0.179   1.726 -0.0473 -0.0181  0.5772
 2356TIP3    H228628   6.149   0.228   1.804 -0.1190  2.4810 -1.0177
 2357TIP3   OH228629   5.402   0.573   0.437 -0.0687 -0.2137  0.2671
 2357TIP3    H128630   5.326   0.533   0.394 -0.7217  1.1814  0.0580
 2357TIP3    H228631   5.408   0.660   0.398 -0.5808  1.0733  2.8559
 2358TIP3   OH228632   0.782   2.994   8.562  0.4633  0.2194 -0.7683
 2358TIP3    H128633   0.762   3.018   8.652  0.2923 -1.6964 -0.2600
 2358TIP3    H228634   0.877   2.981   8.561  0.5556  0.8668 -1.0412
 2359TIP3   OH228635   3.915   6.166   2.067  0.3686  0.1818  0.1913
 2359TIP3    H128636   3.936   6.198   1.980  0.2832 -0.1288  0.0571
 2359TIP3    H228637   3.941   6.237   2.126  0.8238  0.2204 -0.0530
 2360TIP3   OH228638   1.574   0.593   7.629  0.6153  0.2504  0.2986
 2360TIP3    H128639   1.588   0.640   7.547 -1.6702  0.5394  0.0075
 2360TIP3    H228640   1.554   0.662   7.693 -0.9721 -0.1308  0.2700
 2361TIP3   OH228641   5.761   6.473   1.115  0.3817 -0.8253  0.4592
 2361TIP3    H128642   5.828   6.541   1.108  1.2708 -1.7331 -0.2170
 2361TIP3    H228643   5.804   6.403   1.165  0.6403 -2.1778 -1.5213
 2362TIP3   OH228644   1.605   6.856   6.577  0.0042  0.4639 -0.3920
 2362TIP3    H128645   1.634   6.937   6.536 -1.3394  1.6977  0.9599
 2362TIP3    H228646   1.571   6.803   6.505  2.5348  0.2689 -1.5560
 2363TIP3   OH228647   5.729   4.156   2.159  0.3976 -0.0507 -0.0027
 2363TIP3    H128648   5.760   4.204   2.082  0.1676 -0.1196 -0.1363
 2363TIP3    H228649   5.638   4.135   2.140 -0.6560  2.5675  1.5372
 2364TIP3   OH228650   3.821   6.318   7.571 -0.4806 -0.3683  0.6637
 2364TIP3    H128651   3.834   6.332   7.664 -0.8663 -0.2809  0.7079
 2364TIP3    H228652   3.906   6.289   7.538 -0.3991 -0.5953  1.0776
 2365TIP3   OH228653   3.382   5.125   7.912  0.6660  0.1197  0.2415
 2365TIP3    H128654   3.334   5.207   7.898  1.4969  0.4860 -0.5665
 2365TIP3    H228655   3.314   5.061   7.934 -0.0106  0.9973  0.8047
 2366TIP3   OH228656   1.214   3.398   7.432  0.2351  0.0102  0.1083
 2366TIP3    H128657   1.175   3.440   7.509  2.0922  2.2731 -0.0641
 2366TIP3    H228658   1.153   3.419   7.360 -0.0325  0.4074  0.4475
 2367TIP3   OH228659   1.003   2.507   2.306 -0.1290  0.0174 -0.2770
 2367TIP3    H128660   1.032   2.588   2.348 -0.1796  0.3470 -0.8746
 2367TIP3    H228661   0.973   2.452   2.379  0.4692  0.3000  0.1879
 2368TIP3   OH228662   3.997   0.583   0.244  0.3544 -0.2454  0.5975
 2368TIP3    H128663   3.985   0.515   0.177 -0.5682  0.4115  0.0644
 2368TIP3    H228664   3.944   0.553   0.318 -0.7124  0.2518  0.0657
 2369TIP3   OH228665   0.918   4.513   7.259  0.2748 -0.1982 -0.0323
 2369TIP3    H128666   0.996   4.481   7.304  0.6270  0.0571 -0.4546
 2369TIP3    H228667   0.937   4.501   7.166  0.2293  0.7958 -0.1829
 2370TIP3   OH228668   4.002   1.190   7.840  0.0854  0.0098  0.0801
 2370TIP3    H128669   4.095   1.203   7.821  0.5241 -0.5453  1.6371
 2370TIP3    H228670   3.998   1.103   7.880 -0.7102  0.9657  2.2442
 2371TIP3   OH228671   1.530   1.983   1.711  0.7223 -0.3766 -0.4547
 2371TIP3    H128672   1.478   2.022   1.781  2.0499  2.2493 -0.8284
 2371TIP3    H228673   1.604   1.943   1.756  1.3021  0.8507 -0.2860
 2372TIP3   OH228674   2.340   1.240   8.385 -0.7125  0.0266  0.1494
 2372TIP3    H128675   2.336   1.145   8.386  0.0364 -0.0759 -1.7516
 2372TIP3    H228676   2.428   1.261   8.417 -1.1386  0.1299  1.2765
 2373TIP3   OH228677   2.534   4.233   7.634  0.0749  0.0668  0.0018
 2373TIP3    H128678   2.563   4.291   7.564 -1.2510  0.0859 -0.5660
 2373TIP3    H228679   2.439   4.232   7.627  0.0384 -2.8337 -0.5897
 2374TIP3   OH228680   5.020   5.404   6.566 -0.2482  0.2260 -0.3228
 2374TIP3    H128681   4.985   5.331   6.618  1.8624  0.0814  0.9965
 2374TIP3    H228682   4.982   5.392   6.479 -1.2197 -1.4982  0.2910
 2375TIP3   OH228683   6.334   3.160   1.533  0.3862 -0.9756  0.0872
 2375TIP3    H128684   6.292   3.168   1.619 -0.2472 -1.9121 -0.1174
 2375TIP3    H228685   6.424   3.188   1.548 -0.5434  2.3797  0.2693
 2376TIP3   OH228686   5.137   2.455   1.716  0.6983  0.9267 -0.2837
 2376TIP3    H128687   5.083   2.530   1.690 -0.5067  0.6105  1.1447
 2376TIP3    H228688   5.204   2.492   1.773  1.2836  1.1621 -1.1138
 2377TIP3   OH228689   2.326   6.531   1.485 -0.0169 -0.1134 -0.1262
 2377TIP3    H128690   2.345   6.442   1.454  0.2496  0.4060 -1.5675
 2377TIP3    H228691   2.249   6.557   1.434 -1.9385 -0.5418  2.3881
 2378TIP3   OH228692   4.215   1.948   6.853 -0.2719  0.6240 -0.6063
 2378TIP3    H128693   4.284   2.003   6.890  0.9922 -1.5868  0.5173
 2378TIP3    H228694   4.227   1.863   6.895 -3.7312  0.1150 -0.2950
 2379TIP3   OH228695   1.797   3.908   6.686 -0.4327 -0.5720  0.8158
 2379TIP3    H128696   1.728   3.843   6.698 -2.4261  1.6534  2.2385
 2379TIP3    H228697   1.757   3.990   6.713  1.6178  1.4807 -1.8319
 2380TIP3   OH228698   6.148   3.920   0.343  0.4378 -0.6134 -0.6411
 2380TIP3    H128699   6.190   3.979   0.280  0.9309 -0.8025 -0.4940
 2380TIP3    H228700   6.186   3.944   0.427  0.1819 -0.7295 -0.4912
 2381TIP3   OH228701   4.207   0.647   1.835 -0.0341  0.0802  0.3326
 2381TIP3    H128702   4.272   0.710   1.804  0.0455 -0.1585  0.0103
 2381TIP3    H228703   4.212   0.653   1.930 -0.4656  1.0114  0.3032
 2382TIP3   OH228704   0.306   6.118   2.189 -0.1011  0.9546  0.1291
 2382TIP3    H128705   0.352   6.188   2.234 -0.2586  0.5088  1.0180
 2382TIP3    H228706   0.224   6.157   2.159 -0.1556  1.1720  0.5582
 2383TIP3   OH228707   6.453   2.858   7.947  0.0909 -0.3872  0.0947
 2383TIP3    H128708   6.437   2.773   7.905 -1.5542 -0.6453  1.1525
 2383TIP3    H228709   6.443   2.922   7.875  1.7220 -1.0719 -0.7867
 2384TIP3   OH228710   3.344   3.177   0.265 -0.0984  0.0575  0.9492
 2384TIP3    H128711   3.379   3.262   0.238 -0.3588 -0.7332 -2.2708
 2384TIP3    H228712   3.421   3.125   0.286  0.4715 -0.1628 -1.3451
 2385TIP3   OH228713   6.441   3.342   0.215  0.5219  0.3411  0.5174
 2385TIP3    H128714   6.490   3.278   0.163  1.5329  1.6370 -0.1977
 2385TIP3    H228715   6.480   3.426   0.191 -0.1687  1.1444  2.0982
 2386TIP3   OH228716   6.092   3.574   8.416  0.5896  0.1034  0.4815
 2386TIP3    H128717   6.044   3.568   8.333  1.8343  1.4251 -0.3894
 2386TIP3    H228718   6.173   3.524   8.400  0.0895 -1.0871  1.5174
 2387TIP3   OH228719   5.082   0.207   6.138  0.4417 -0.0881 -0.2448
 2387TIP3    H128720   5.050   0.172   6.221  1.6651 -0.7799 -0.0446
 2387TIP3    H228721   5.067   0.137   6.075  0.5553  0.0026 -0.3739
 2388TIP3   OH228722   0.370   1.393   0.704 -0.0127 -0.0425  0.3108
 2388TIP3    H128723   0.278   1.421   0.709  0.1703  0.5433  0.4293
 2388TIP3    H228724   0.388   1.356   0.791 -0.5381 -1.4482 -0.1522
 2389TIP3   OH228725   4.865   5.624   2.473  0.4399  0.2855  0.0685
 2389TIP3    H128726   4.832   5.658   2.390 -0.5004  1.5867  0.9310
 2389TIP3    H228727   4.795   5.643   2.536  1.9756  1.2326  1.5755
 2390TIP3   OH228728   0.191   1.884   8.228 -0.0011  0.0751  0.0744
 2390TIP3    H128729   0.247   1.909   8.154  0.4114 -1.0069  0.0076
 2390TIP3    H228730   0.127   1.825   8.190  1.0746 -1.6416  0.8001
 2391TIP3   OH228731   2.894   4.122   7.046  0.2990  0.0465 -0.0257
 2391TIP3    H128732   2.809   4.121   7.089  1.0845  2.5977  1.8644
 2391TIP3    H228733   2.955   4.087   7.111  0.8260 -1.0284 -1.0606
 2392TIP3   OH228734   2.627   2.236   7.600  0.1209 -0.0218 -1.0333
 2392TIP3    H128735   2.583   2.155   7.578  1.2453 -0.6679 -0.9852
 2392TIP3    H228736   2.589   2.301   7.541 -2.7366  0.0571  0.7397
 2393TIP3   OH228737   0.762   6.786   0.357  0.1393  0.4991  0.3507
 2393TIP3    H128738   0.712   6.806   0.436 -0.8370  1.6772 -0.5152
 2393TIP3    H228739   0.718   6.835   0.288  1.2159 -0.1643 -0.8615
 2394TIP3   OH228740   2.658   2.943   7.139 -0.0940  0.3467 -0.2124
 2394TIP3    H128741   2.713   2.882   7.188  0.3679  1.0868  0.1981
 2394TIP3    H228742   2.648   2.902   7.053 -0.4315 -0.6813  0.2938
 2395TIP3   OH228743   1.646   3.576   1.156  0.4908  0.0615 -0.3016
 2395TIP3    H128744   1.611   3.571   1.245 -0.5629  0.4968 -0.6867
 2395TIP3    H228745   1.696   3.658   1.156 -0.3481  0.5854 -0.3958
 2396TIP3   OH228746   1.122   2.305   0.921  0.1117 -0.1253 -0.0078
 2396TIP3    H128747   1.066   2.235   0.955  0.4198 -0.5494 -0.3734
 2396TIP3    H228748   1.080   2.386   0.952 -1.1612 -0.3954 -0.9266
 2397TIP3   OH228749   1.165   1.950   6.681  0.1333 -0.6218 -0.0721
 2397TIP3    H128750   1.098   1.975   6.745  0.6298  0.1519  0.1594
 2397TIP3    H228751   1.178   2.028   6.628 -0.3192 -1.2803 -1.1768
 2398TIP3   OH228752   1.949   4.093   2.011 -0.6356  0.1091  0.2927
 2398TIP3    H128753   2.033   4.138   2.014 -0.0446 -0.5322 -2.7485
 2398TIP3    H228754   1.940   4.052   2.097  1.1445  1.9058  1.4161
 2399TIP3   OH228755   4.837   6.183   1.314 -0.6179 -0.0643  0.4133
 2399TIP3    H128756   4.798   6.132   1.244 -1.0149  2.2414 -1.1422
 2399TIP3    H228757   4.852   6.270   1.276  1.0425  0.7003  2.5805
 2400TIP3   OH228758   5.766   6.616   0.318 -0.6169  0.2525  0.1077
 2400TIP3    H128759   5.855   6.611   0.352 -0.4425  1.4040 -0.1514
 2400TIP3    H228760   5.733   6.526   0.326  1.5962 -0.9814 -2.6240
 2401TIP3   OH228761   4.352   5.859   0.518  0.3294  0.0055 -0.0130
 2401TIP3    H128762   4.389   5.802   0.450  0.4660  0.9824 -0.7795
 2401TIP3    H228763   4.316   5.933   0.469 -3.8042 -1.4109  0.5159
 2402TIP3   OH228764   4.595   6.340   7.109  0.0180  0.3514 -0.4696
 2402TIP3    H128765   4.601   6.416   7.167 -1.9612 -0.0952  0.3896
 2402TIP3    H228766   4.609   6.265   7.167 -2.5062 -0.1323 -0.3560
 2403TIP3   OH228767   1.988   2.930   0.728  1.0315 -0.4504  0.0846
 2403TIP3    H128768   2.038   2.998   0.774 -0.3195  0.1802  0.7092
 2403TIP3    H228769   1.905   2.973   0.706  2.1233 -0.1710 -4.4744
 2404TIP3   OH228770   6.151   2.566   1.165  0.1231  0.2499 -0.4020
 2404TIP3    H128771   6.090   2.504   1.125  0.3209 -0.3835  0.2414
 2404TIP3    H228772   6.106   2.596   1.244  0.7255 -0.4050  0.2037
 2405TIP3   OH228773   2.132   1.305   7.499  0.4491  0.2866 -0.0458
 2405TIP3    H128774   2.037   1.296   7.495  0.5419 -0.3774 -1.2006
 2405TIP3    H228775   2.147   1.376   7.561 -0.7533 -0.5206  1.2220
 2406TIP3   OH228776   6.443   3.678   8.309 -0.0455  0.1148  0.6003
 2406TIP3    H128777   6.436   3.771   8.330  2.0420  0.5317 -0.2447
 2406TIP3    H228778   6.361   3.657   8.263  0.3570  2.1538 -1.2483
 2407TIP3   OH228779   6.259   0.768   6.847 -0.0575  0.1728  0.5154
 2407TIP3    H128780   6.346   0.807   6.852 -0.0586  0.1790  0.4874
 2407TIP3    H228781   6.268   0.683   6.891 -0.3326  0.6914  1.5980
 2408TIP3   OH228782   4.246   0.595   1.225 -0.6995  0.6093 -0.2159
 2408TIP3    H128783   4.268   0.624   1.137 -0.8724 -0.6164 -0.6757
 2408TIP3    H228784   4.160   0.635   1.243 -1.2982 -0.2075 -1.1456
 2409TIP3   OH228785   5.106   6.059   1.096 -0.1055  0.9488  0.1329
 2409TIP3    H128786   5.115   5.980   1.150 -0.7188  0.4435 -0.4876
 2409TIP3    H228787   5.152   6.127   1.146  2.1089 -0.2051 -0.2149
 2410TIP3   OH228788   1.708   0.162   0.613  0.4136 -0.1994 -0.3802
 2410TIP3    H128789   1.681   0.072   0.631 -0.6717  0.1737 -0.0665
 2410TIP3    H228790   1.702   0.206   0.698  3.4020 -0.3966  0.0318
 2411TIP3   OH228791   2.198   3.260   6.503  0.2453 -0.1462  0.1346
 2411TIP3    H128792   2.117   3.286   6.459  0.1106  0.3357  0.6496
 2411TIP3    H228793   2.237   3.193   6.446 -0.4763 -0.3252 -0.1495
 2412TIP3   OH228794   1.968   6.068   1.347 -0.3027 -0.2989 -0.0294
 2412TIP3    H128795   2.012   6.008   1.407  1.8590 -0.0567 -1.2655
 2412TIP3    H228796   2.009   6.153   1.363 -1.7832  0.4123  0.1673
 2413TIP3   OH228797   5.313   2.238   6.228 -0.7088  0.1074  0.0101
 2413TIP3    H128798   5.377   2.306   6.249 -0.8001  0.2392 -0.1325
 2413TIP3    H228799   5.364   2.158   6.220 -0.3393  0.4698 -1.5675
 2414TIP3   OH228800   4.042   1.884   7.258 -0.3800  0.0521 -0.0916
 2414TIP3    H128801   4.000   1.807   7.296 -2.3525  2.3601  2.7824
 2414TIP3    H228802   4.127   1.888   7.300 -0.6488 -0.0537  0.4723
 2415TIP3   OH228803   3.676   5.454   7.794 -0.0482  0.0622  0.1112
 2415TIP3    H128804   3.643   5.366   7.816 -0.1180 -0.5272 -2.1146
 2415TIP3    H228805   3.613   5.488   7.731  0.9111  0.9936 -0.3668
 2416TIP3   OH228806   4.975   0.665   7.469  0.0487  0.4613 -0.0519
 2416TIP3    H128807   4.971   0.721   7.392  1.4863  2.0747  0.9581
 2416TIP3    H228808   4.949   0.578   7.438 -2.0734  1.6061 -1.7234
 2417TIP3   OH228809   0.075   4.407   6.245  1.1395 -0.2822  0.9865
 2417TIP3    H128810   0.107   4.493   6.269 -0.4506  0.7912 -0.5316
 2417TIP3    H228811  -0.020   4.416   6.244  0.9622 -0.8045 -3.2746
 2418TIP3   OH228812   6.030   1.273   0.765 -0.1352 -0.4808 -0.6582
 2418TIP3    H128813   5.984   1.206   0.715  0.2729 -0.5602 -0.9255
 2418TIP3    H228814   6.111   1.231   0.794  0.5674  0.1808 -1.6143
 2419TIP3   OH228815   4.411   6.009   0.758  0.3193 -0.2916 -0.6314
 2419TIP3    H128816   4.357   5.995   0.836  0.2425 -0.2205 -0.6713
 2419TIP3    H228817   4.377   5.947   0.694 -2.0881  2.0537 -1.8629
 2420TIP3   OH228818   2.649   1.882   8.089 -0.0015 -0.0849  0.0641
 2420TIP3    H128819   2.696   1.882   8.172 -0.5435 -0.4114  0.3754
 2420TIP3    H228820   2.698   1.943   8.033 -0.3683  1.1388  1.0423
 2421TIP3   OH228821   1.022   4.346   0.660  0.1016  0.3818 -0.5683
 2421TIP3    H128822   1.063   4.366   0.575  0.3224  0.1062 -0.5289
 2421TIP3    H228823   1.078   4.278   0.697 -0.4768 -0.1001 -0.5708
 2422TIP3   OH228824   0.414   0.760   7.902  0.4193  0.0448 -0.2336
 2422TIP3    H128825   0.406   0.666   7.917 -1.7850  0.7037  4.0309
 2422TIP3    H228826   0.328   0.787   7.872  1.5164  0.6274 -3.2330
 2423TIP3   OH228827   2.148   1.307   7.930 -0.1458 -0.2145 -0.0060
 2423TIP3    H128828   2.230   1.278   7.971  0.8458  0.5059 -1.3942
 2423TIP3    H228829   2.163   1.400   7.912 -0.7474 -0.3930 -1.4946
 2424TIP3   OH228830   1.214   0.727   1.037 -0.0312  0.0947 -0.0569
 2424TIP3    H128831   1.165   0.672   0.975  3.2699 -1.5009 -1.4848
 2424TIP3    H228832   1.245   0.665   1.103  1.2691  0.7636 -0.0278
 2425TIP3   OH228833   3.437   0.900   8.026  0.3905  0.2347  0.0530
 2425TIP3    H128834   3.343   0.882   8.023  0.2651  0.4219  1.5906
 2425TIP3    H228835   3.448   0.983   7.980 -0.9840  2.7510  3.7941
 2426TIP3   OH228836   5.750   3.070   8.637  0.7086 -0.2883 -0.0814
 2426TIP3    H128837   5.660   3.081   8.668  0.5900  0.1379 -0.5723
 2426TIP3    H228838   5.771   3.153   8.595  0.5863 -1.1199 -1.8693
 2427TIP3   OH228839   6.237   4.174   0.541  0.2577  1.0148 -0.4172
 2427TIP3    H128840   6.252   4.083   0.564 -0.7057  0.1123 -3.0569
 2427TIP3    H228841   6.207   4.215   0.623  2.8316 -0.4059  1.4071
 2428TIP3   OH228842   2.517   4.501   0.125  0.0390  0.5044 -0.2133
 2428TIP3    H128843   2.479   4.414   0.111 -0.0587  0.5296 -0.1025
 2428TIP3    H228844   2.555   4.496   0.212  0.5241  0.3934 -0.4282
 2429TIP3   OH228845   1.884   6.456   7.067  0.3115 -0.1944 -0.1193
 2429TIP3    H128846   1.968   6.495   7.091 -0.0938  0.8300 -0.3379
 2429TIP3    H228847   1.907   6.367   7.038  1.1685 -0.3540  0.9899
 2430TIP3   OH228848   4.990   1.190   0.451 -0.0101 -0.1446  0.1088
 2430TIP3    H128849   4.939   1.161   0.526 -1.6964 -0.0078 -0.9353
 2430TIP3    H228850   5.020   1.109   0.409 -0.4372 -0.2665  0.0343
 2431TIP3   OH228851   4.528   1.271   8.446  0.0507  0.1366  0.4678
 2431TIP3    H128852   4.546   1.254   8.354 -2.6328 -0.6859 -0.0119
 2431TIP3    H228853   4.528   1.367   8.454 -0.1854  0.2265 -0.5278
 2432TIP3   OH228854   3.011   3.277   0.767  0.0241 -0.2395 -0.5472
 2432TIP3    H128855   2.972   3.214   0.707 -1.5656 -0.6223  0.7968
 2432TIP3    H228856   3.080   3.229   0.812 -0.1920 -0.5774 -0.5789
 2433TIP3   OH228857   2.895   6.333   0.660  0.4617  0.0238  0.2816
 2433TIP3    H128858   2.866   6.410   0.709  2.9894  1.4178 -0.2637
 2433TIP3    H228859   2.917   6.269   0.727  1.6006  1.0385  0.9053
 2434TIP3   OH228860   2.759   5.490   0.016 -0.1562  0.4932 -0.3096
 2434TIP3    H128861   2.667   5.512   0.003 -1.8217 -5.3627 -1.7416
 2434TIP3    H228862   2.761   5.446   0.102  0.7287 -1.2303 -1.1597
 2435TIP3   OH228863   3.118   0.086   2.443 -0.0081 -0.1968 -0.1706
 2435TIP3    H128864   3.123  -0.005   2.411 -1.5368 -0.4496  0.2551
 2435TIP3    H228865   3.089   0.078   2.533 -0.3217  0.7339 -0.1799
 2436TIP3   OH228866   1.044   3.819   7.948 -0.0165  0.3062 -0.1748
 2436TIP3    H128867   0.982   3.748   7.934  0.1950 -0.5359  2.4872
 2436TIP3    H228868   1.130   3.778   7.942  0.0996 -0.1143  2.6765
 2437TIP3   OH228869   2.256   2.322   8.601  0.1304  0.3671 -0.1084
 2437TIP3    H128870   2.311   2.288   8.530  1.7704  3.0401 -0.2341
 2437TIP3    H228871   2.294   2.285   8.681 -0.4246 -0.9629 -0.4239
 2438TIP3   OH228872   0.162   2.420   8.568 -0.5667 -0.4309  0.0450
 2438TIP3    H128873   0.070   2.449   8.573 -0.9138 -1.5608  0.6280
 2438TIP3    H228874   0.159   2.329   8.598  0.7447 -0.4984 -0.0097
 2439TIP3   OH228875   6.824   1.021   1.667  0.2815  0.2036 -0.2091
 2439TIP3    H128876   6.838   1.108   1.705 -2.1460  0.2998  0.6253
 2439TIP3    H228877   6.892   0.966   1.706  0.3558  1.2014  1.1122
 2440TIP3   OH228878   5.295   3.651   0.594  0.2149  0.1873  0.1612
 2440TIP3    H128879   5.387   3.663   0.571 -0.0714  0.3525 -0.9626
 2440TIP3    H228880   5.268   3.735   0.631  0.9553 -0.4051  2.1722
 2441TIP3   OH228881   5.576   5.732   7.051 -0.3776  0.6994 -0.1051
 2441TIP3    H128882   5.570   5.758   6.959 -0.1910  3.1259  0.5037
 2441TIP3    H228883   5.488   5.703   7.074 -1.5788  3.9956 -0.0418
 2442TIP3   OH228884   1.798   1.499   6.987  0.3032  0.0001 -0.6149
 2442TIP3    H128885   1.779   1.569   6.924 -0.2054  0.1400 -0.3061
 2442TIP3    H228886   1.836   1.429   6.934 -0.1841  0.0906 -1.0925
 2443TIP3   OH228887   5.967   3.953   6.991  0.7003  0.6360 -0.2059
 2443TIP3    H128888   5.960   3.891   6.919  1.3660 -0.7692  0.8698
 2443TIP3    H228889   6.060   3.974   6.996  0.9289 -0.4784  1.1312
 2444TIP3   OH228890   0.212   0.064   7.288  0.2082 -0.3753 -0.2541
 2444TIP3    H128891   0.193  -0.030   7.287 -0.0021 -0.3626  1.0649
 2444TIP3    H228892   0.263   0.078   7.208  0.5696 -1.6820 -0.2886
 2445TIP3   OH228893   6.806   6.254   1.519 -0.1468 -0.0495 -0.1150
 2445TIP3    H128894   6.797   6.200   1.440 -2.2990  1.4257 -0.9685
 2445TIP3    H228895   6.777   6.341   1.492  1.7627  1.2277  1.6166
 2446TIP3   OH228896   4.496   6.402   8.532 -0.1251 -0.0344 -0.3908
 2446TIP3    H128897   4.484   6.307   8.529  1.3569 -0.2713  0.2728
 2446TIP3    H228898   4.437   6.436   8.465 -1.2953 -1.3479 -0.0798
 2447TIP3   OH228899   5.384   1.789   8.587  0.0890 -0.0668 -0.0237
 2447TIP3    H128900   5.295   1.814   8.609  0.2723 -0.2918  1.0630
 2447TIP3    H228901   5.439   1.856   8.628  0.3937  0.9079 -1.9356
 2448TIP3   OH228902   2.445   1.315   0.613 -0.4340  0.5827 -0.4735
 2448TIP3    H128903   2.472   1.255   0.683 -0.2865 -0.4412 -1.3942
 2448TIP3    H228904   2.501   1.293   0.539 -0.3796  1.8683 -0.8412
 2449TIP3   OH228905   2.676   1.122   7.956  0.2049  0.3630  0.0801
 2449TIP3    H128906   2.719   1.145   8.038 -0.0730 -0.7055  0.5435
 2449TIP3    H228907   2.583   1.125   7.976  0.1446 -1.5716  0.3246
 2450TIP3   OH228908   1.000   3.271   1.114  0.3044 -0.5195 -0.6081
 2450TIP3    H128909   1.003   3.205   1.045  3.6840 -0.6645 -0.5169
 2450TIP3    H228910   1.072   3.247   1.173 -0.0566  1.7469  0.8782
 2451TIP3   OH228911   0.929   4.791   8.288 -0.1725 -0.4133  0.8360
 2451TIP3    H128912   1.008   4.743   8.313  0.1769  0.1327  0.7960
 2451TIP3    H228913   0.902   4.752   8.206  0.3586 -0.2579  0.5826
 2452TIP3   OH228914   6.710   3.489   8.416  0.5022  0.4090 -0.1223
 2452TIP3    H128915   6.630   3.435   8.424  1.9432 -1.8779 -0.1776
 2452TIP3    H228916   6.689   3.569   8.464 -2.1420  0.3075 -0.9127
 2453TIP3   OH228917   0.666   6.351   1.387 -1.1679 -0.0900 -0.4568
 2453TIP3    H128918   0.750   6.354   1.434 -2.0619 -0.2635  1.2411
 2453TIP3    H228919   0.682   6.399   1.306  1.0022 -1.4477 -0.9133
 2454TIP3   OH228920   0.801   6.178   8.375  0.1884 -0.4430 -0.3268
 2454TIP3    H128921   0.740   6.231   8.427  1.2001  1.1813 -0.7157
 2454TIP3    H228922   0.804   6.093   8.420 -0.4039  0.2981  1.1717
 2455TIP3   OH228923   1.390   2.324   0.848  0.0824  0.1172 -0.4266
 2455TIP3    H128924   1.393   2.373   0.766 -0.8688  0.4492 -0.2770
 2455TIP3    H228925   1.297   2.310   0.865  0.2965 -0.8629  0.0609
 2456TIP3   OH228926   5.415   1.103   8.474  0.2372  0.6837 -0.2776
 2456TIP3    H128927   5.455   1.031   8.426  0.9776  1.3930 -0.7449
 2456TIP3    H228928   5.373   1.060   8.549 -0.7837 -0.4104 -1.4210
 2457TIP3   OH228929   2.034   0.522   7.352 -0.1360 -0.0668  0.5093
 2457TIP3    H128930   2.031   0.438   7.306  1.4974  0.3704 -0.4243
 2457TIP3    H228931   1.982   0.581   7.297  1.4609  0.3481 -0.5970
 2458TIP3   OH228932   5.493   6.271   8.650 -0.2658 -0.3195 -0.4996
 2458TIP3    H128933   5.414   6.326   8.641  0.6579  1.1037 -0.2554
 2458TIP3    H228934   5.508   6.236   8.563 -0.2306  0.7672 -0.9491
 2459TIP3   OH228935   4.682   0.158   6.316  0.5665  0.1253 -0.2840
 2459TIP3    H128936   4.776   0.141   6.319  0.5604  0.1569  0.2694
 2459TIP3    H228937   4.649   0.106   6.243  0.7519 -1.2154  0.5588
 2460TIP3   OH228938   0.008   3.574   1.378 -0.0645  0.0547 -0.6927
 2460TIP3    H128939  -0.005   3.484   1.347  1.6846 -0.2521 -0.6495
 2460TIP3    H228940   0.101   3.592   1.361  1.0367  0.0255  3.9171
 2461TIP3   OH228941   3.650   4.616   0.155  0.0005 -0.2784  0.1234
 2461TIP3    H128942   3.572   4.667   0.176  1.4163  2.2783 -0.3772
 2461TIP3    H228943   3.697   4.608   0.238 -0.2498 -0.8424  0.2127
 2462TIP3   OH228944   3.428   3.361   7.058  0.2844 -0.1628  0.3893
 2462TIP3    H128945   3.464   3.423   6.994  1.7501 -1.3248  0.0198
 2462TIP3    H228946   3.416   3.280   7.008 -1.2174 -0.3243  0.9635
 2463TIP3   OH228947   1.078   3.492   7.215  0.5407 -0.1138 -0.0676
 2463TIP3    H128948   1.101   3.555   7.147 -1.9793 -0.7533 -1.6664
 2463TIP3    H228949   1.091   3.406   7.174 -0.1186 -0.5357  0.5728
 2464TIP3   OH228950   1.690   4.177   6.748  0.3284 -0.2845 -0.1855
 2464TIP3    H128951   1.603   4.139   6.755  0.3158 -0.3338 -0.5871
 2464TIP3    H228952   1.675   4.264   6.710  0.3321  0.2310  0.9513
 2465TIP3   OH228953   0.336   2.457   8.201  0.4188  0.1737 -0.4626
 2465TIP3    H128954   0.355   2.477   8.292 -1.0344  0.9312 -0.2957
 2465TIP3    H228955   0.399   2.389   8.178  1.4651  0.6602  0.7953
 2466TIP3   OH228956   3.503   3.149   1.575  0.5809  0.0848 -0.2249
 2466TIP3    H128957   3.594   3.128   1.554  1.7224  0.8203  3.3097
 2466TIP3    H228958   3.500   3.245   1.575  0.3980  0.1030  1.6458
 2467TIP3   OH228959   1.727   3.450   0.917 -0.9182  0.2482  0.3118
 2467TIP3    H128960   1.721   3.486   1.006 -2.1694 -0.5632  0.5820
 2467TIP3    H228961   1.646   3.477   0.874 -0.7451 -0.1410 -0.2789
 2468TIP3   OH228962   6.156   5.409   6.755 -0.6181  0.1715  0.3922
 2468TIP3    H128963   6.182   5.344   6.820  2.0928  0.3450 -0.3867
 2468TIP3    H228964   6.180   5.493   6.794 -2.4191  0.6171  0.6384
 2469TIP3   OH228965   6.630   3.318   6.400 -0.0192  0.6871 -0.0062
 2469TIP3    H128966   6.640   3.399   6.450  0.4397  0.6379 -0.0199
 2469TIP3    H228967   6.716   3.303   6.361  0.3483 -0.6392  1.2413
 2470TIP3   OH228968   0.748   4.943   7.893  0.3010  0.6056  0.0764
 2470TIP3    H128969   0.707   4.877   7.837  0.0052 -0.0325  1.0080
 2470TIP3    H228970   0.690   4.948   7.970 -0.3795  2.8906 -0.5151
 2471TIP3   OH228971   6.611   6.786   7.358  0.1950 -0.0059  0.6666
 2471TIP3    H128972   6.564   6.706   7.381 -1.0651 -0.5230 -2.9134
 2471TIP3    H228973   6.550   6.856   7.380 -0.5541 -0.3941 -0.0761
 2472TIP3   OH228974   0.455   6.492   2.352  0.1419  0.0896 -0.0993
 2472TIP3    H128975   0.394   6.554   2.391 -0.6919 -1.3717  0.9930
 2472TIP3    H228976   0.417   6.470   2.267  0.4497  1.0447 -0.5000
 2473TIP3   OH228977   5.738   4.905   0.522  0.2025 -1.1202  0.4642
 2473TIP3    H128978   5.785   4.834   0.478  0.8361 -0.6167  0.3246
 2473TIP3    H228979   5.781   4.913   0.607  3.2629  2.1064 -1.1346
 2474TIP3   OH228980   0.126   4.458   7.096 -0.0243 -0.3491 -0.3131
 2474TIP3    H128981   0.038   4.488   7.123  0.3482  1.8566 -1.3407
 2474TIP3    H228982   0.112   4.418   7.010 -0.2511 -1.6927  0.3126
 2475TIP3   OH228983   2.170   3.693   7.443 -0.5723 -0.3174  0.2031
 2475TIP3    H128984   2.202   3.684   7.533  0.6702  1.6641  0.0424
 2475TIP3    H228985   2.235   3.647   7.390 -0.0291  0.4451  0.1801
 2476TIP3   OH228986   5.857   3.730   6.861 -0.1173 -0.3976  0.5677
 2476TIP3    H128987   5.781   3.686   6.821  0.1456  0.5307 -1.0590
 2476TIP3    H228988   5.920   3.659   6.876 -0.7973 -0.9861  0.7168
 2477TIP3   OH228989   6.064   2.024   1.510 -0.3812 -0.5258  0.0867
 2477TIP3    H128990   6.120   2.085   1.557 -0.6109 -1.5499  1.7696
 2477TIP3    H228991   6.014   1.980   1.579 -1.3936 -1.4525 -1.1948
 2478TIP3   OH228992   6.641   1.244   7.765  0.4651  0.4048 -0.2899
 2478TIP3    H128993   6.684   1.290   7.837  0.9536  0.5075 -0.6404
 2478TIP3    H228994   6.577   1.187   7.808  0.4124  0.8233  0.1943
 2479TIP3   OH228995   2.920   4.013   1.231  0.3137  0.4877 -0.5199
 2479TIP3    H128996   2.840   4.022   1.283 -0.3761  1.0888 -1.6354
 2479TIP3    H228997   2.937   3.919   1.230 -1.1316  0.1989 -1.3123
 2480TIP3   OH228998   4.385   0.473   7.850 -0.3463  0.7108 -0.1570
 2480TIP3    H128999   4.350   0.421   7.922 -1.8793  2.0088  0.0984
 2480TIP3    H229000   4.442   0.538   7.893 -0.3791  0.7871 -0.2289
 2481TIP3   OH229001   2.051   2.199   7.284 -0.7029  0.4219 -0.7726
 2481TIP3    H129002   2.034   2.106   7.302 -0.2918  0.6544  1.1313
 2481TIP3    H229003   2.145   2.208   7.298 -0.9236  1.3310  0.2491
 2482TIP3   OH229004   3.804   1.687   6.463  0.5706  0.2704 -1.1760
 2482TIP3    H129005   3.816   1.616   6.526 -1.0186  0.3979 -0.6913
 2482TIP3    H229006   3.818   1.645   6.378  0.6012 -0.3989 -0.8513
 2483TIP3   OH229007   6.816   4.278   8.440  0.6742  0.9515 -0.5019
 2483TIP3    H129008   6.825   4.297   8.533 -0.2009  0.7467 -0.3676
 2483TIP3    H229009   6.813   4.364   8.398  1.0581  1.0434 -0.3472
 2484TIP3   OH229010   0.459   6.320   6.524  0.1477  0.8272  0.3406
 2484TIP3    H129011   0.548   6.344   6.549  0.6090  1.2526 -1.5830
 2484TIP3    H229012   0.407   6.398   6.544 -0.1571  0.0282  2.9912
 2485TIP3   OH229013   3.773   5.975   7.425  0.3792  0.2916 -0.5523
 2485TIP3    H129014   3.747   6.005   7.512  0.3891 -0.2987 -0.3361
 2485TIP3    H229015   3.868   5.964   7.430  0.4887  1.0503 -0.8948
 2486TIP3   OH229016   3.335   2.117   0.411 -0.2189  0.5479 -0.7929
 2486TIP3    H129017   3.306   2.150   0.496  3.3528 -0.4395  1.0466
 2486TIP3    H229018   3.331   2.192   0.353 -1.4955  1.6192  0.5944
 2487TIP3   OH229019   0.944   6.065   7.903  0.4333 -0.2974  0.3551
 2487TIP3    H129020   0.872   6.093   7.959  0.1452 -0.8566  0.2598
 2487TIP3    H229021   0.906   6.000   7.844  0.3403  1.4322 -1.5871
 2488TIP3   OH229022   4.430   6.130   2.266  0.3530 -0.3020  0.1762
 2488TIP3    H129023   4.407   6.198   2.328 -1.3102 -1.5820  1.0306
 2488TIP3    H229024   4.498   6.079   2.310 -2.4048 -2.6366  2.1688
 2489TIP3   OH229025   3.329   5.755   6.566 -0.5094  0.0905 -0.1658
 2489TIP3    H129026   3.406   5.698   6.566 -0.9378 -0.5837  1.7119
 2489TIP3    H229027   3.365   5.844   6.573  0.1238 -0.2038  0.5218
 2490TIP3   OH229028   2.728   0.427   0.140 -0.8696 -0.2687  0.1594
 2490TIP3    H129029   2.638   0.453   0.121 -0.8181 -0.2446 -0.0562
 2490TIP3    H229030   2.754   0.482   0.213 -0.8302  0.1501 -0.1619
 2491TIP3   OH229031   0.408   6.140   7.816 -0.1153  0.4472 -0.5894
 2491TIP3    H129032   0.424   6.087   7.738 -1.1598 -1.1860  0.2611
 2491TIP3    H229033   0.420   6.080   7.889 -1.1709  1.4120  0.4251
 2492TIP3   OH229034   3.023   5.514   1.217 -0.5068  0.2247  0.2624
 2492TIP3    H129035   2.984   5.579   1.158 -1.7089 -1.6477 -1.1142
 2492TIP3    H229036   3.029   5.559   1.301  1.6825  3.1791 -1.2453
 2493TIP3   OH229037   0.200   3.012   1.644 -0.0228 -0.3964 -0.2747
 2493TIP3    H129038   0.205   2.926   1.602 -1.3896 -0.4254 -0.4043
 2493TIP3    H229039   0.284   3.053   1.624 -0.3169 -0.7319 -2.3405
 2494TIP3   OH229040   0.629   6.011   8.203 -0.0502  0.2056  0.1124
 2494TIP3    H129041   0.556   5.983   8.257  0.6285 -1.2243  0.3331
 2494TIP3    H229042   0.705   6.007   8.260  0.4407  0.1567 -0.5272
 2495TIP3   OH229043   0.575   1.755   2.435  0.6565  0.1027 -0.4383
 2495TIP3    H129044   0.580   1.845   2.468  0.5743  0.3975 -1.2118
 2495TIP3    H229045   0.505   1.714   2.487 -1.5620  1.4249 -2.2038
 2496TIP3   OH229046   1.216   0.293   1.126  0.1623  0.1019 -0.2847
 2496TIP3    H129047   1.239   0.218   1.182 -0.5720  0.0699 -0.0232
 2496TIP3    H229048   1.192   0.253   1.042 -1.2329 -0.0363  0.1707
 2497TIP3   OH229049   3.668   5.043   6.980 -0.1577 -0.4638 -0.5351
 2497TIP3    H129050   3.748   5.018   7.028 -1.2372 -0.8045  1.1574
 2497TIP3    H229051   3.675   4.995   6.897  1.6178 -0.0997 -0.6460
 2498TIP3   OH229052   3.616   1.190   7.456 -0.0493 -0.3979  0.3947
 2498TIP3    H129053   3.615   1.249   7.381 -1.8849  0.9286  1.3884
 2498TIP3    H229054   3.578   1.109   7.423  2.1192 -0.9813 -0.8771
 2499TIP3   OH229055   0.072   1.421   8.236  0.0151  0.2023  0.0390
 2499TIP3    H129056   0.011   1.431   8.309 -1.5223 -0.8584 -1.0484
 2499TIP3    H229057   0.116   1.338   8.253  0.3994  0.4473  0.2641
 2500TIP3   OH229058   6.144   5.788   6.699  0.0400 -0.1095 -0.2431
 2500TIP3    H129059   6.073   5.851   6.690  1.0870  1.1463 -0.0569
 2500TIP3    H229060   6.101   5.703   6.706 -1.3827  0.4416 -1.6596
 2501TIP3   OH229061   0.401   0.839   2.468  0.1589  0.1670 -0.2252
 2501TIP3    H129062   0.453   0.856   2.547  0.2607  0.8395 -0.4313
 2501TIP3    H229063   0.466   0.819   2.401  0.1339  0.6487 -0.3950
 2502TIP3   OH229064   4.351   2.577   8.352  0.4778  0.2334 -0.3300
 2502TIP3    H129065   4.402   2.654   8.377 -1.4003  1.7278 -0.9055
 2502TIP3    H229066   4.335   2.589   8.258 -1.9832  0.5164  0.0650
 2503TIP3   OH229067   5.675   6.644   7.544 -0.0406 -0.4661  0.1213
 2503TIP3    H129068   5.730   6.658   7.468 -0.1343 -0.9250 -0.0393
 2503TIP3    H229069   5.616   6.719   7.546  0.7007  0.1242  0.4033
 2504TIP3   OH229070   4.144   3.073   1.666  0.0323  0.0963 -0.3013
 2504TIP3    H129071   4.069   3.032   1.624  1.1465  0.3117 -2.6410
 2504TIP3    H229072   4.146   3.162   1.630  1.8585 -0.1637 -0.9296
 2505TIP3   OH229073   6.239   4.320   2.574  0.3314  0.4561  0.5040
 2505TIP3    H129074   6.245   4.284   2.485  2.4974  0.1396  0.7095
 2505TIP3    H229075   6.290   4.401   2.570  0.2269  0.5759  1.3867
 2506TIP3   OH229076   2.980   6.090   0.144  0.2513 -0.1849 -0.1172
 2506TIP3    H129077   2.941   6.089   0.232 -2.5684  0.9582 -1.2217
 2506TIP3    H229078   2.927   6.029   0.094  2.2531 -1.3299 -0.9326
 2507TIP3   OH229079   2.647   0.257   7.488  0.0988  0.4977 -0.3317
 2507TIP3    H129080   2.655   0.290   7.578  0.6200  0.2847 -0.2926
 2507TIP3    H229081   2.565   0.208   7.487  0.7473 -0.6616  0.4198
 2508TIP3   OH229082   2.523   4.206   1.592 -0.7897  0.0609 -0.4049
 2508TIP3    H129083   2.453   4.250   1.640 -2.0181 -2.8422  0.6808
 2508TIP3    H229084   2.485   4.188   1.506 -0.7769 -0.0266 -0.3927
 2509TIP3   OH229085   4.799   4.492   7.851  0.3690  0.2530 -0.4920
 2509TIP3    H129086   4.794   4.528   7.940 -0.5447 -1.0614  0.0115
 2509TIP3    H229087   4.881   4.528   7.816 -0.0514  2.0880  0.2770
 2510TIP3   OH229088   5.208   4.764   0.788  0.2611 -0.3413  0.2143
 2510TIP3    H129089   5.210   4.692   0.725 -1.1626 -0.3272  0.1206
 2510TIP3    H229090   5.287   4.815   0.767  0.8656 -1.4166 -0.2374
 2511TIP3   OH229091   6.521   4.173   7.636  0.1015 -0.4322 -0.6000
 2511TIP3    H129092   6.543   4.182   7.728 -1.8270  1.1714 -0.2157
 2511TIP3    H229093   6.597   4.208   7.589 -0.3004  2.1124  0.5225
 2512TIP3   OH229094   4.674   2.028   7.922  0.1417  0.5824 -0.3312
 2512TIP3    H129095   4.686   2.085   7.998 -0.8565 -2.8275  2.6359
 2512TIP3    H229096   4.728   1.951   7.940 -0.7626 -0.7405 -2.7172
 2513TIP3   OH229097   4.955   4.016   1.401 -0.9181  0.5616  0.1917
 2513TIP3    H129098   4.980   4.105   1.423  1.2723  0.0152  0.2521
 2513TIP3    H229099   4.962   3.967   1.483  1.0217 -0.2273 -0.3748
 2514TIP3   OH229100   6.071   2.536   8.646 -0.5534  0.2005 -0.0079
 2514TIP3    H129101   6.103   2.590   8.574 -1.3778 -1.5258 -1.7473
 2514TIP3    H229102   6.149   2.516   8.697  0.3534  0.0913 -1.3880
 2515TIP3   OH229103   0.773   0.715   1.740  0.1400 -0.9804 -0.3698
 2515TIP3    H129104   0.829   0.761   1.678 -0.0755  0.0506  0.1725
 2515TIP3    H229105   0.689   0.760   1.735  0.0833 -0.9566  0.5823
 2516TIP3   OH229106   4.755   4.802   0.661  0.6697 -0.4494 -0.1707
 2516TIP3    H129107   4.689   4.783   0.595  0.1584 -2.2506  0.7872
 2516TIP3    H229108   4.712   4.861   0.723 -0.0066 -1.4434  0.3317
 2517TIP3   OH229109   0.579   3.215   1.136 -0.0687 -0.0182  0.1073
 2517TIP3    H129110   0.553   3.124   1.124  0.3088 -0.0672 -0.3502
 2517TIP3    H229111   0.496   3.263   1.141 -0.2820 -0.4475  0.9217
 2518TIP3   OH229112   2.531   2.001   7.494  0.3975  0.3746 -0.3992
 2518TIP3    H129113   2.442   2.032   7.483  0.9318  2.0020 -0.4666
 2518TIP3    H229114   2.523   1.922   7.547 -1.0447  0.7612  0.0020
 2519TIP3   OH229115   2.187   6.150   7.626  0.2560 -0.1663 -0.0068
 2519TIP3    H129116   2.150   6.207   7.694  1.6468  0.1869  0.4762
 2519TIP3    H229117   2.231   6.210   7.566  1.5721 -0.7051  0.4030
 2520TIP3   OH229118   5.572   6.723   1.063 -0.7550  0.0634 -0.1260
 2520TIP3    H129119   5.583   6.779   1.140  0.3114 -0.1543 -0.0947
 2520TIP3    H229120   5.582   6.634   1.097 -1.0531 -0.0745 -0.3987
 2521TIP3   OH229121   4.038   0.913   7.829 -0.2957 -0.3908 -0.0562
 2521TIP3    H129122   4.026   0.850   7.758 -1.0661 -0.4643  0.1359
 2521TIP3    H229123   4.133   0.912   7.845 -0.3522 -2.0519  0.4296
 2522TIP3   OH229124   0.469   6.627   7.964  0.0784 -0.1836  0.0102
 2522TIP3    H129125   0.561   6.629   7.937 -0.0267  0.7326 -0.3123
 2522TIP3    H229126   0.459   6.543   8.010  1.5882  0.5658  1.8539
 2523TIP3   OH229127   4.892   4.413   1.061  0.1000  0.0168 -0.2313
 2523TIP3    H129128   4.906   4.500   1.098 -0.0729 -0.2971  0.6045
 2523TIP3    H229129   4.947   4.411   0.983  0.0893  0.8821 -0.2673
 2524TIP3   OH229130   1.484   0.830   8.612  0.0162  0.0810 -0.9484
 2524TIP3    H129131   1.512   0.762   8.551  0.4569  0.1892 -0.8665
 2524TIP3    H229132   1.442   0.896   8.556 -0.2035 -0.1479 -1.0538
 2525TIP3   OH229133   4.923   1.852   0.794 -0.0688  0.1202  0.0260
 2525TIP3    H129134   4.870   1.804   0.858 -1.1834  0.4377 -0.6224
 2525TIP3    H229135   4.969   1.918   0.845 -1.4515  0.8000  0.4481
 2526TIP3   OH229136   3.962   6.469   8.659 -0.2156  0.0457 -0.4042
 2526TIP3    H129137   3.977   6.382   8.624  0.4785  0.7225 -1.8942
 2526TIP3    H229138   3.902   6.510   8.597 -0.0249  0.8454 -0.0825
 2527TIP3   OH229139   5.734   4.614   0.232 -0.0913  0.2632  1.1924
 2527TIP3    H129140   5.814   4.658   0.202 -0.5002  0.2651  0.0274
 2527TIP3    H229141   5.738   4.617   0.327  1.9503 -0.9245  1.1827
 2528TIP3   OH229142   3.770   6.018   0.367  0.1530 -0.2309  0.3711
 2528TIP3    H129143   3.707   6.025   0.439 -0.5272  2.0304 -0.3412
 2528TIP3    H229144   3.788   6.109   0.343  1.3251 -0.9054 -1.4945
 2529TIP3   OH229145   1.660   3.392   7.314 -0.0623 -0.7084 -0.0247
 2529TIP3    H129146   1.632   3.482   7.330  2.3780  0.2743 -0.7690
 2529TIP3    H229147   1.585   3.349   7.273 -1.1407  1.1088 -0.0124
 2530TIP3   OH229148   3.700   4.860   7.968 -0.7869  1.0395 -0.2423
 2530TIP3    H129149   3.795   4.862   7.979 -0.6523  1.2995 -1.3255
 2530TIP3    H229150   3.669   4.936   8.017 -0.2153  2.1676 -1.5414
 2531TIP3   OH229151   1.391   1.168   6.277  0.2029 -0.6116  0.9076
 2531TIP3    H129152   1.470   1.114   6.281  1.5836  1.0973 -0.7096
 2531TIP3    H229153   1.372   1.175   6.183 -0.7492  0.5249  1.1573
 2532TIP3   OH229154   4.093   3.777   7.313 -0.5089  0.3608  0.1670
 2532TIP3    H129155   4.183   3.759   7.284 -1.4760 -1.2239 -2.0462
 2532TIP3    H229156   4.065   3.851   7.259 -0.7058  0.5731  0.5538
 2533TIP3   OH229157   6.283   0.912   7.077  0.0417  0.4841 -0.3948
 2533TIP3    H129158   6.279   0.890   7.170  3.9490 -1.0260 -0.4223
 2533TIP3    H229159   6.225   0.849   7.034  0.5406 -0.8319  0.7975
 2534TIP3   OH229160   6.650   5.569   7.754  0.8345 -0.0308  0.6119
 2534TIP3    H129161   6.734   5.614   7.766  0.4278  1.1124 -0.6864
 2534TIP3    H229162   6.666   5.505   7.685  0.4709  0.6797 -0.1438
 2535TIP3   OH229163   2.856   6.659   6.801  0.1140 -0.5319 -0.3199
 2535TIP3    H129164   2.866   6.682   6.894  0.1406 -0.7906 -0.2591
 2535TIP3    H229165   2.764   6.634   6.793  0.1097 -0.5002 -0.3662
 2536TIP3   OH229166   5.856   5.725   0.236  0.3381 -0.3220 -0.2119
 2536TIP3    H129167   5.924   5.783   0.202  1.1259 -0.3827  1.1535
 2536TIP3    H229168   5.897   5.639   0.238  0.9480 -0.0761  2.2822
 2537TIP3   OH229169   2.899   4.475   2.494  0.4586  0.2271 -0.1784
 2537TIP3    H129170   2.822   4.472   2.552  0.8226 -2.1052  0.2967
 2537TIP3    H229171   2.973   4.458   2.553  1.1262  0.4020 -0.9569
 2538TIP3   OH229172   1.813   2.414   8.352  0.3722  0.1965  0.1349
 2538TIP3    H129173   1.855   2.494   8.382 -1.2027  0.2290  2.5535
 2538TIP3    H229174   1.844   2.346   8.411 -2.6385  0.1903  1.9254
 2539TIP3   OH229175   2.686   3.495   6.951 -0.0171 -0.0385 -0.2255
 2539TIP3    H129176   2.622   3.527   7.015 -1.1530  0.3356 -1.5046
 2539TIP3    H229177   2.677   3.399   6.953 -0.7361  0.0176 -0.4938
 2540TIP3   OH229178   5.989   0.345   1.205 -0.1040 -0.0516 -0.5831
 2540TIP3    H129179   6.067   0.305   1.244  0.8567  2.3257  0.1869
 2540TIP3    H229180   5.944   0.274   1.161  2.0501 -1.6890 -0.2976
 2541TIP3   OH229181   2.224   0.020   7.577 -0.0988 -0.3422  0.6560
 2541TIP3    H129182   2.276   0.087   7.620 -1.2003 -0.8017  2.8472
 2541TIP3    H229183   2.272  -0.061   7.591 -0.7744 -0.5919  1.6819
 2542TIP3   OH229184   2.220   1.082   7.629  0.2508 -0.0021 -0.1037
 2542TIP3    H129185   2.181   1.161   7.591  0.5316  1.7798  3.0403
 2542TIP3    H229186   2.313   1.088   7.605 -0.1298 -0.8116 -2.0095
 2543TIP3   OH229187   3.983   4.456   7.543  0.1199  0.0857  0.1588
 2543TIP3    H129188   3.980   4.470   7.637  3.2771 -2.0567  0.7002
 2543TIP3    H229189   3.964   4.363   7.531  1.5949 -0.0939 -1.0921
 2544TIP3   OH229190   0.976   2.544   0.924  0.1514  0.1305  0.1513
 2544TIP3    H129191   0.969   2.585   0.838 -0.5089 -1.1028 -0.4085
 2544TIP3    H229192   1.039   2.599   0.971  0.2141  1.0652 -0.9690
 2545TIP3   OH229193   5.149   4.252   2.080 -0.4732  0.3721 -0.8135
 2545TIP3    H129194   5.229   4.281   2.123 -0.7495  1.5141 -1.0255
 2545TIP3    H229195   5.094   4.219   2.152 -0.5153  1.2820 -0.4139
 2546TIP3   OH229196   6.837   4.994   0.949 -0.0317  0.1422 -0.3170
 2546TIP3    H129197   6.831   4.927   0.881  0.5304 -1.0520  0.7692
 2546TIP3    H229198   6.754   5.041   0.944  0.0306  0.1431 -1.8624
 2547TIP3   OH229199   5.714   4.111   7.644  0.3983 -0.1910 -1.1721
 2547TIP3    H129200   5.749   4.199   7.630  0.0547  0.0658 -0.4618
 2547TIP3    H229201   5.686   4.110   7.735  1.1281 -1.3040 -0.9370
 2548TIP3   OH229202   3.364   5.049   1.319 -0.2477 -0.1501 -0.0291
 2548TIP3    H129203   3.366   4.954   1.309  2.8535 -0.4295  1.8471
 2548TIP3    H229204   3.414   5.083   1.245  1.1959 -0.2724  0.8528
 2549TIP3   OH229205   6.038   0.760   7.331 -0.1445 -0.0240 -0.7585
 2549TIP3    H129206   6.079   0.845   7.344  1.9377 -0.7796 -1.9460
 2549TIP3    H229207   5.987   0.746   7.411  0.1964  1.9137 -0.1500
 2550TIP3   OH229208   5.849   2.407   8.502 -0.1053  0.0174  0.0751
 2550TIP3    H129209   5.898   2.489   8.502 -0.3512  0.1868  1.6320
 2550TIP3    H229210   5.844   2.382   8.594 -0.8196 -1.2769 -0.2960
 2551TIP3   OH229211   3.423   3.693   1.439 -0.5288  0.0848 -0.1777
 2551TIP3    H129212   3.518   3.678   1.436 -0.2158  1.3462  1.4678
 2551TIP3    H229213   3.398   3.665   1.527 -1.5841  0.2838 -0.4099
 2552TIP3   OH229214   2.097   4.111   1.342 -0.6762  0.0466  0.5334
 2552TIP3    H129215   2.007   4.139   1.359 -0.6305 -0.1780  1.1743
 2552TIP3    H229216   2.090   4.055   1.265 -1.2455 -0.7835  1.1661
 2553TIP3   OH229217   4.979   5.855   0.159  0.0246 -0.3383 -0.4573
 2553TIP3    H129218   4.884   5.851   0.167  0.1434 -0.2938  1.1689
 2553TIP3    H229219   5.008   5.905   0.235  1.4672 -1.6500 -0.0937
 2554TIP3   OH229220   5.488   4.632   1.006 -0.2723 -0.5429 -0.3291
 2554TIP3    H129221   5.473   4.680   1.087  0.1944 -1.9627  0.6373
 2554TIP3    H229222   5.504   4.542   1.034  1.4374 -0.7771 -1.8692
 2555TIP3   OH229223   4.437   1.885   1.252  0.2165  0.1651 -0.2435
 2555TIP3    H129224   4.397   1.918   1.171 -0.0752  1.0537  0.2463
 2555TIP3    H229225   4.526   1.919   1.250  0.1977  0.2176 -0.1722
 2556TIP3   OH229226   1.739   1.093   8.635  0.3593 -0.5068 -0.5097
 2556TIP3    H129227   1.730   1.182   8.599  1.3099 -0.3785 -0.4781
 2556TIP3    H229228   1.827   1.093   8.674  0.5126 -1.5773 -0.8359
 2557TIP3   OH229229   1.221   5.977   0.871 -0.1492  0.4846 -0.1724
 2557TIP3    H129230   1.263   6.011   0.792  1.5741 -0.8547  0.1096
 2557TIP3    H229231   1.215   5.883   0.857  1.2106  0.0494  1.6886
 2558TIP3   OH229232   4.406   0.752   8.360 -0.3795  0.2035 -0.7746
 2558TIP3    H129233   4.358   0.670   8.344 -0.3060  0.6132 -3.7105
 2558TIP3    H229234   4.426   0.785   8.272 -0.3631  3.3830  0.3153
 2559TIP3   OH229235   2.275   4.489   8.624 -0.0933 -0.3086 -0.0072
 2559TIP3    H129236   2.186   4.503   8.658 -0.6066 -1.0534 -0.9894
 2559TIP3    H229237   2.317   4.575   8.631 -1.1774  0.2660 -0.2856
 2560TIP3   OH229238   4.631   3.882   2.454 -0.4419  0.8516  0.2676
 2560TIP3    H129239   4.658   3.973   2.439 -1.5474  0.9869 -1.0956
 2560TIP3    H229240   4.602   3.851   2.368  2.1243 -1.6038  0.1415
 2561TIP3   OH229241   4.148   6.196   1.877 -0.2918 -0.4840  0.1413
 2561TIP3    H129242   4.199   6.226   1.802 -0.4843  0.0551  0.2257
 2561TIP3    H229243   4.097   6.123   1.843 -2.1634  1.2086 -0.8944
 2562TIP3   OH229244   3.795   4.333   1.725  0.1184 -0.8247 -0.4209
 2562TIP3    H129245   3.700   4.349   1.730  0.0731 -1.4289  1.4649
 2562TIP3    H229246   3.833   4.421   1.722 -0.4910 -0.5703 -1.1259
 2563TIP3   OH229247   6.624   3.244   7.563 -0.1530  0.2164  0.0924
 2563TIP3    H129248   6.693   3.178   7.572 -1.6377 -1.2433  1.4072
 2563TIP3    H229249   6.633   3.276   7.474  1.6201 -0.6054 -0.0683
 2564TIP3   OH229250   1.182   3.203   7.041 -0.9332 -0.2150  0.8924
 2564TIP3    H129251   1.109   3.261   7.022 -1.3574 -0.2098  2.3783
 2564TIP3    H229252   1.257   3.260   7.051 -1.1030 -0.0375  1.1597
 2565TIP3   OH229253   6.772   2.703   7.260  0.5337  0.6306  0.7871
 2565TIP3    H129254   6.770   2.608   7.266 -0.0964  0.7035  2.1210
 2565TIP3    H229255   6.799   2.732   7.347  1.3053  1.6662  0.2323
 2566TIP3   OH229256   2.285   4.821   8.677  0.9857 -0.9359 -0.1173
 2566TIP3    H129257   2.362   4.768   8.658  0.7219 -1.2466 -0.3358
 2566TIP3    H229258   2.276   4.817   8.772  2.2504  0.5391  0.0871
 2567TIP3   OH229259   6.416   2.850   1.311  0.1562 -0.0407  0.1875
 2567TIP3    H129260   6.332   2.896   1.320 -0.6083 -1.5622  1.2372
 2567TIP3    H229261   6.472   2.913   1.265 -1.7082  0.8131 -1.0716
 2568TIP3   OH229262   0.773   3.804   0.343 -0.0395 -0.5884  0.5121
 2568TIP3    H129263   0.714   3.736   0.377 -1.5791  0.6618  0.4283
 2568TIP3    H229264   0.728   3.839   0.266  0.3590  1.0591  0.9894
 2569TIP3   OH229265   1.100   6.195   8.511 -0.2376 -0.1505  0.4273
 2569TIP3    H129266   1.011   6.229   8.523  0.1380  0.5137  1.5255
 2569TIP3    H229267   1.143   6.259   8.455  0.2651  0.9071  1.9387
 2570TIP3   OH229268   5.265   4.001   1.353 -0.8623 -0.5729  0.6235
 2570TIP3    H129269   5.338   4.055   1.322 -2.0381 -0.1766 -1.7431
 2570TIP3    H229270   5.262   4.015   1.447  0.8691  0.9569  0.5005
 2571TIP3   OH229271   1.807   6.436   2.343 -0.0128  0.3983 -0.2348
 2571TIP3    H129272   1.814   6.522   2.302 -1.4078 -0.1256 -1.6865
 2571TIP3    H229273   1.796   6.375   2.270  1.6429 -1.1406  0.7134
 2572TIP3   OH229274   0.687   5.799   7.223  0.2988  0.0004 -0.0734
 2572TIP3    H129275   0.737   5.855   7.163  1.6547 -0.3079  0.7068
 2572TIP3    H229276   0.647   5.733   7.167 -0.6843  1.2815 -0.9157
 2573TIP3   OH229277   3.082   4.756   7.299 -0.0937 -0.6800 -0.0241
 2573TIP3    H129278   2.986   4.755   7.295 -0.3609  2.9395  1.3890
 2573TIP3    H229279   3.106   4.831   7.244  1.7204 -0.1769  1.3641
 2574TIP3   OH229280   3.542   6.799   0.272 -0.4421 -0.3347  0.2055
 2574TIP3    H129281   3.635   6.789   0.294  0.2395  2.0666 -1.1738
 2574TIP3    H229282   3.500   6.722   0.310  1.9083 -0.8857  1.9530
 2575TIP3   OH229283   6.468   2.613   0.375  0.1667  0.1237 -0.1905
 2575TIP3    H129284   6.385   2.588   0.415 -0.5512  1.7451 -0.5726
 2575TIP3    H229285   6.480   2.552   0.303 -0.2108 -0.7189  0.4458
 2576TIP3   OH229286   1.011   1.723   7.801 -0.1883 -0.0724 -0.7148
 2576TIP3    H129287   1.072   1.752   7.733 -1.2181 -0.4417 -1.8426
 2576TIP3    H229288   0.981   1.637   7.770 -0.4014 -0.4138  0.4066
 2577TIP3   OH229289   1.854   3.930   0.784  0.0408  0.1412 -0.0059
 2577TIP3    H129290   1.839   3.986   0.708 -1.6002  0.1695  0.3018
 2577TIP3    H229291   1.800   3.968   0.853  2.0966  0.5611  1.4258
 2578TIP3   OH229292   4.640   6.417   6.853 -0.6067 -0.1861 -0.0109
 2578TIP3    H129293   4.656   6.389   6.943 -1.1460  1.2149  0.5375
 2578TIP3    H229294   4.556   6.463   6.856  0.3341  1.7138 -0.7861
 2579TIP3   OH229295   6.422   1.352   1.269 -0.6862 -0.4381 -0.0171
 2579TIP3    H129296   6.502   1.351   1.322 -0.5540  1.3890 -0.1242
 2579TIP3    H229297   6.406   1.260   1.250 -0.4471 -1.1540  2.7324
 2580TIP3   OH229298   4.655   1.496   7.888  0.0316 -0.0232 -0.0519
 2580TIP3    H129299   4.676   1.561   7.821  0.3325 -0.3466 -0.2727
 2580TIP3    H229300   4.739   1.468   7.922 -0.1387  0.5239  0.8401
 2581TIP3   OH229301   5.697   3.992   0.924 -0.7535  0.4319 -0.3980
 2581TIP3    H129302   5.627   4.055   0.943  0.8447  2.0025  0.5921
 2581TIP3    H229303   5.753   4.036   0.860 -0.7646 -0.9070 -1.3876
 2582TIP3   OH229304   0.890   2.499   6.831  0.1763 -0.0935  1.0167
 2582TIP3    H129305   0.929   2.441   6.765 -0.9081  0.7977 -0.4579
 2582TIP3    H229306   0.964   2.552   6.862  0.3433  1.2286 -1.3731
 2583TIP3   OH229307   5.595   6.124   6.223 -0.1556 -0.2594 -0.7551
 2583TIP3    H129308   5.580   6.046   6.276 -0.9094 -0.0568 -0.6517
 2583TIP3    H229309   5.515   6.176   6.234 -0.2900 -0.1658 -2.0134
 2584TIP3   OH229310   0.099   6.140   7.705 -0.4501  0.6214  0.1953
 2584TIP3    H129311   0.182   6.153   7.659 -0.7102 -0.1115 -0.4940
 2584TIP3    H229312   0.071   6.052   7.681 -0.5226  0.1488  1.8924
 2585TIP3   OH229313   5.408   0.609   8.543 -0.4604 -0.0704  0.0574
 2585TIP3    H129314   5.341   0.642   8.482  0.2044 -0.1491 -0.7397
 2585TIP3    H229315   5.366   0.613   8.629 -0.8699  1.6057 -0.1696
 2586TIP3   OH229316   1.291   4.656   7.417  0.5698 -0.0670  0.2914
 2586TIP3    H129317   1.335   4.733   7.381 -1.3255  1.0391  0.2091
 2586TIP3    H229318   1.284   4.674   7.511 -0.1101  0.0071  0.2340
 2587TIP3   OH229319   5.939   1.135   0.481  0.2189  0.0902 -0.2600
 2587TIP3    H129320   5.898   1.096   0.403 -3.1215  2.5618  0.0135
 2587TIP3    H229321   6.017   1.180   0.448 -2.1448  2.7608 -2.7765
 2588TIP3   OH229322   6.733   2.177   7.540  0.4711 -0.2073  0.5354
 2588TIP3    H129323   6.751   2.084   7.551 -2.4885 -0.7814  1.4827
 2588TIP3    H229324   6.774   2.200   7.457  1.0850 -2.4137  0.1609
 2589TIP3   OH229325   3.134   0.624   0.253 -0.2247 -0.1799 -0.3559
 2589TIP3    H129326   3.062   0.630   0.190 -0.4890 -1.7335 -0.2354
 2589TIP3    H229327   3.097   0.655   0.335 -0.0111  1.4200 -0.8310
 2590TIP3   OH229328   0.345   4.795   8.180 -0.1236 -0.0404 -0.2918
 2590TIP3    H129329   0.310   4.736   8.246 -0.8177 -0.7506 -1.2698
 2590TIP3    H229330   0.288   4.783   8.104  0.9401  0.4023 -1.1918
 2591TIP3   OH229331   3.937   5.848   1.815  0.3557  0.5441 -0.2875
 2591TIP3    H129332   3.916   5.779   1.751  1.7662 -0.0251 -0.1866
 2591TIP3    H229333   4.031   5.837   1.831  0.1189  0.9861  1.5366
 2592TIP3   OH229334   1.410   0.832   0.338 -0.1756  0.1112  0.6013
 2592TIP3    H129335   1.482   0.891   0.361 -0.0360 -0.1961  0.9685
 2592TIP3    H229336   1.408   0.768   0.410  0.6812 -1.2726 -0.5422
 2593TIP3   OH229337   6.766   2.747   0.889 -0.0381  0.4265  0.1310
 2593TIP3    H129338   6.858   2.736   0.868  0.0634 -0.1580  0.8278
 2593TIP3    H229339   6.729   2.659   0.882 -0.5964  0.6918 -0.3623
 2594TIP3   OH229340   3.440   5.035   6.306 -0.3847  0.2624 -0.2101
 2594TIP3    H129341   3.482   5.073   6.229  2.1012 -1.1876  0.3275
 2594TIP3    H229342   3.375   5.100   6.332  1.2061  2.4596 -1.3909
 2595TIP3   OH229343   6.240   0.916   0.418 -0.2515 -0.4036 -0.1520
 2595TIP3    H129344   6.260   1.000   0.459 -2.7799  0.6066 -0.7918
 2595TIP3    H229345   6.240   0.934   0.324 -2.4684 -0.6389 -0.2474
 2596TIP3   OH229346   6.246   2.535   0.504 -0.1266  0.0209 -0.0882
 2596TIP3    H129347   6.168   2.582   0.474  1.0996  0.5513 -2.7257
 2596TIP3    H229348   6.217   2.444   0.514 -1.2062  0.2982 -0.5310
 2597TIP3   OH229349   0.729   0.514   7.102  0.1835 -0.1857 -0.9172
 2597TIP3    H129350   0.665   0.559   7.048 -0.0724 -0.4054 -0.8013
 2597TIP3    H229351   0.696   0.424   7.109  0.9186 -0.5224 -1.5276
 2598TIP3   OH229352   1.912   4.167   1.597 -0.1216 -0.3172  0.1349
 2598TIP3    H129353   1.861   4.117   1.661  0.6327 -1.6361 -0.2309
 2598TIP3    H229354   2.003   4.145   1.618  0.3328  1.9034  0.7181
 2599TIP3   OH229355   0.372   6.536   1.440  0.3611  0.5899  0.2602
 2599TIP3    H129356   0.347   6.615   1.392  2.0366 -0.0232 -1.7539
 2599TIP3    H229357   0.461   6.517   1.410  2.1843  0.9450  4.6809
 2600TIP3   OH229358   2.302   0.753   0.709  0.4193  0.0449  0.3139
 2600TIP3    H129359   2.263   0.821   0.764  0.4454 -1.2561  2.0436
 2600TIP3    H229360   2.324   0.683   0.770  1.6125 -0.9863 -1.2186
 2601TIP3   OH229361   4.712   5.399   1.143 -0.6674  0.4823  0.1971
 2601TIP3    H129362   4.710   5.494   1.154 -2.8746  0.5538 -0.4214
 2601TIP3    H229363   4.746   5.366   1.226  0.0511  1.7785  0.4549
 2602TIP3   OH229364   1.179   6.388   0.308 -0.3469 -0.1132 -0.3920
 2602TIP3    H129365   1.170   6.483   0.313  2.5567  0.2716 -0.5790
 2602TIP3    H229366   1.230   6.373   0.228  0.1011 -1.7211  0.1540
 2603TIP3   OH229367   2.099   6.354   1.456  0.4875 -0.5895  0.0355
 2603TIP3    H129368   2.050   6.428   1.492  0.9562 -0.7744  1.0784
 2603TIP3    H229369   2.152   6.393   1.386  0.6098  0.0333  0.4650
 2604TIP3   OH229370   2.199   3.683   0.127  0.6888 -0.0284  0.4865
 2604TIP3    H129371   2.178   3.596   0.162  2.1686 -0.4065  0.5159
 2604TIP3    H229372   2.226   3.734   0.203  2.9061 -0.5431  0.1223
 2605TIP3   OH229373   2.563   2.598   0.363  0.1770  0.1914 -0.1507
 2605TIP3    H129374   2.519   2.613   0.446 -2.7902  0.5408 -1.6768
 2605TIP3    H229375   2.550   2.505   0.345  1.3684 -0.0317  0.0029
 2606TIP3   OH229376   6.567   1.196   2.729  0.1319 -0.2781  0.0288
 2606TIP3    H129377   6.481   1.176   2.693  0.4163 -1.6995  0.0527
 2606TIP3    H229378   6.616   1.235   2.656 -0.8447  1.6062  0.3232
 2607TIP3   OH229379   6.049   1.817   8.295  0.2910 -0.5110 -0.2055
 2607TIP3    H129380   6.116   1.866   8.343 -2.4951  2.7320  0.7849
 2607TIP3    H229381   6.053   1.853   8.206 -1.3141  1.2726  0.3598
 2608TIP3   OH229382   5.493   0.694   7.699 -0.3085  0.3818 -0.3002
 2608TIP3    H129383   5.416   0.638   7.691 -0.0840  0.2629 -2.0524
 2608TIP3    H229384   5.474   0.752   7.773 -2.0600  0.3280 -0.6738
 2609TIP3   OH229385   6.704   4.947   0.135 -0.1604 -0.2778 -0.3882
 2609TIP3    H129386   6.611   4.927   0.137 -0.3128  0.4839  0.9442
 2609TIP3    H229387   6.740   4.903   0.212  0.4700 -0.0533 -0.5481
 2610TIP3   OH229388   5.305   0.631   8.041 -0.4768  0.3569 -0.6687
 2610TIP3    H129389   5.217   0.599   8.023  0.0618 -1.7716  0.0825
 2610TIP3    H229390   5.360   0.588   7.975  0.3336 -0.6402  0.5966
 2611TIP3   OH229391   3.703   0.442   6.180 -0.1859  0.2515 -0.7079
 2611TIP3    H129392   3.727   0.356   6.144 -1.4731 -0.2455 -0.4077
 2611TIP3    H229393   3.694   0.498   6.103 -0.2707 -0.1179 -0.9710
 2612TIP3   OH229394   0.540   4.972   8.546 -0.0817 -0.5073 -0.0529
 2612TIP3    H129395   0.530   4.884   8.510 -0.9778  0.2025 -1.6476
 2612TIP3    H229396   0.617   5.008   8.503 -0.1631 -0.2407  0.0176
 2613TIP3   OH229397   4.295   3.036   7.708 -0.3828 -0.1807  0.4660
 2613TIP3    H129398   4.246   3.044   7.626  1.4855  0.7256 -0.6270
 2613TIP3    H229399   4.229   3.049   7.776 -2.1304 -1.6506 -0.8325
 2614TIP3   OH229400   2.803   0.396   0.572 -0.5494  0.3111 -0.6420
 2614TIP3    H129401   2.711   0.399   0.544 -0.5684  0.8353 -0.5317
 2614TIP3    H229402   2.798   0.370   0.664 -0.4562 -2.0659 -1.2259
 2615TIP3   OH229403   5.454   1.781   0.704  0.0289 -0.5199  0.4485
 2615TIP3    H129404   5.549   1.787   0.715  0.0284 -0.0700  0.2682
 2615TIP3    H229405   5.439   1.695   0.665  0.3144 -0.7981  0.9577
 2616TIP3   OH229406   2.580   3.686   8.670  0.2053  0.6831 -0.1275
 2616TIP3    H129407   2.499   3.662   8.714 -0.4747 -1.2365 -2.2499
 2616TIP3    H229408   2.648   3.640   8.719 -0.3233  0.0068 -0.0142
 2617TIP3   OH229409   5.025   1.367   1.383 -0.1648 -0.3700  0.2940
 2617TIP3    H129410   4.949   1.377   1.326 -0.9498  0.8020  1.4825
 2617TIP3    H229411   5.083   1.440   1.359  0.9213 -1.6043 -1.0299
 2618TIP3   OH229412   5.919   4.094   8.417  0.2247 -0.2080  0.2809
 2618TIP3    H129413   5.844   4.072   8.362  0.9477 -0.7121 -0.5390
 2618TIP3    H229414   5.967   4.159   8.366  1.2439 -1.1453 -0.0085
 2619TIP3   OH229415   4.031   6.012   0.394  0.1453 -0.1404  0.1310
 2619TIP3    H129416   3.952   5.976   0.354 -0.1722  0.5777  0.1038
 2619TIP3    H229417   4.001   6.089   0.443  1.0829  1.3622 -1.5326
 2620TIP3   OH229418   2.028   1.068   8.703 -0.5669 -0.2949  0.0451
 2620TIP3    H129419   2.054   1.047   8.793 -0.8442 -2.5823 -0.3454
 2620TIP3    H229420   2.086   1.140   8.678  2.0872 -1.9967  0.8655
 2621TIP3   OH229421   4.488   2.636   6.077  0.0111 -0.0215 -0.3585
 2621TIP3    H129422   4.505   2.725   6.046  0.5085 -0.5334 -1.6645
 2621TIP3    H229423   4.546   2.625   6.152 -0.3966  0.8981  0.1091
 2622TIP3   OH229424   6.393   5.156   8.639  0.1842  0.0660  0.0317
 2622TIP3    H129425   6.381   5.233   8.695  1.0648  0.7272 -0.6679
 2622TIP3    H229426   6.311   5.108   8.647  0.1697  0.2913  1.6612
 2623TIP3   OH229427   3.716   5.717   8.331 -0.6008  0.4629  0.7413
 2623TIP3    H129428   3.658   5.714   8.406  0.7136  0.1124  1.7788
 2623TIP3    H229429   3.767   5.636   8.336 -0.3385  0.5326 -0.4074
 2624TIP3   OH229430   5.626   5.674   1.572 -0.5401 -0.2679 -0.5144
 2624TIP3    H129431   5.568   5.700   1.644  0.0255 -2.5054  0.8432
 2624TIP3    H229432   5.637   5.754   1.521 -1.9058  1.1296  1.2148
 2625TIP3   OH229433   2.322   5.009   0.866 -0.1912 -0.2402  0.3483
 2625TIP3    H129434   2.256   5.033   0.799 -0.7951 -0.9322  0.6841
 2625TIP3    H229435   2.374   5.089   0.876  1.0029 -0.5975 -2.1651
 2626TIP3   OH229436   4.672   3.723   6.737  0.3975 -0.2417  0.0282
 2626TIP3    H129437   4.721   3.796   6.699  0.1852 -0.3102 -0.3865
 2626TIP3    H229438   4.584   3.733   6.701  0.3178 -0.5844  0.1299
 2627TIP3   OH229439   4.906   0.739   1.381 -0.2635  0.5444  0.3607
 2627TIP3    H129440   4.846   0.735   1.306 -1.3991  0.1556  1.2507
 2627TIP3    H229441   4.894   0.655   1.425  1.1842  0.3390  0.4015
 2628TIP3   OH229442   2.931   0.447   1.597 -0.1789  0.2264 -0.4960
 2628TIP3    H129443   3.018   0.412   1.575  0.5137  2.0295 -0.8128
 2628TIP3    H229444   2.912   0.510   1.527 -1.1009  0.8953  0.3244
 2629TIP3   OH229445   1.601   5.354   8.644 -0.3588 -0.3738  0.0656
 2629TIP3    H129446   1.561   5.318   8.723 -1.3964 -0.3174 -0.4195
 2629TIP3    H229447   1.580   5.291   8.575  1.1350 -0.7842 -0.0687
 2630TIP3   OH229448   4.774   6.338   1.989 -0.2510 -0.1815 -0.6509
 2630TIP3    H129449   4.851   6.375   2.032  0.8517 -0.9267 -1.9135
 2630TIP3    H229450   4.715   6.413   1.978  0.0023  0.2809  0.8916
 2631TIP3   OH229451   2.876   4.600   8.648  0.4537  0.0982  0.2017
 2631TIP3    H129452   2.847   4.643   8.729 -2.5720  1.4737 -1.4392
 2631TIP3    H229453   2.951   4.653   8.619  1.9083 -0.7143  2.2620
 2632TIP3   OH229454   3.570   3.425   0.758 -0.1940 -0.1733  0.2854
 2632TIP3    H129455   3.523   3.507   0.774 -0.3589  0.1964 -1.7827
 2632TIP3    H229456   3.502   3.364   0.729  0.4322  0.1690 -2.0700
 2633TIP3   OH229457   0.149   0.126   8.513  0.4723 -0.3467  0.1297
 2633TIP3    H129458   0.193   0.191   8.567  0.8325 -1.5710  1.3705
 2633TIP3    H229459   0.219   0.082   8.465  0.5098 -1.4222  1.1256
 2634TIP3   OH229460   3.955   4.304   8.569  0.5885  0.1730  0.1222
 2634TIP3    H129461   4.020   4.293   8.500 -0.0748 -2.2616 -0.1992
 2634TIP3    H229462   3.938   4.216   8.601 -1.0990  0.9524  1.5803
 2635TIP3   OH229463   0.595   5.020   1.091 -0.4540  0.7380  0.0685
 2635TIP3    H129464   0.635   4.976   1.166  1.0246  2.5354  0.4233
 2635TIP3    H229465   0.669   5.056   1.042 -1.3426 -0.8703 -2.6513
 2636TIP3   OH229466   6.620   1.083   8.086  0.0431 -0.2156  0.3166
 2636TIP3    H129467   6.564   1.160   8.084  1.2918  0.7674 -2.5452
 2636TIP3    H229468   6.617   1.049   7.996 -0.3603 -3.4815  1.4398
 2637TIP3   OH229469   6.110   3.734   0.807  0.2108 -0.0826  0.6906
 2637TIP3    H129470   6.045   3.708   0.741 -0.3766  1.2383  0.7337
 2637TIP3    H229471   6.114   3.829   0.801  4.0568 -0.1465 -1.1428
 2638TIP3   OH229472   4.031   5.378   0.086  0.0100  0.0926 -0.1447
 2638TIP3    H129473   4.080   5.296   0.083 -0.6147 -0.2677 -0.7843
 2638TIP3    H229474   4.097   5.444   0.105  0.6071 -0.4905 -0.1472
 2639TIP3   OH229475   2.840   1.021   7.716 -0.5285 -0.5112  0.3466
 2639TIP3    H129476   2.791   0.956   7.666 -2.1876  0.9622 -0.0305
 2639TIP3    H229477   2.783   1.042   7.791 -0.0350  0.4972  0.4594
 2640TIP3   OH229478   0.166   5.201   8.657 -0.0279  0.2781 -0.8062
 2640TIP3    H129479   0.239   5.144   8.633 -0.9566 -0.9368 -0.8552
 2640TIP3    H229480   0.122   5.156   8.729 -1.5890  0.2353 -1.7456
 2641TIP3   OH229481   5.536   1.342   8.476 -0.5002 -0.1419 -0.1343
 2641TIP3    H129482   5.622   1.300   8.479 -0.7905 -0.9577 -1.7279
 2641TIP3    H229483   5.476   1.271   8.454 -1.4621  0.5668  0.1540
 2642TIP3   OH229484   6.070   1.434   6.998 -0.1801 -0.3242 -0.1359
 2642TIP3    H129485   5.992   1.490   6.994  0.4804  0.5828 -0.5476
 2642TIP3    H229486   6.118   1.453   6.918  0.0820 -1.4628 -0.2579
 2643TIP3   OH229487   5.222   6.363   0.082  0.3069  0.2621 -0.2586
 2643TIP3    H129488   5.222   6.297   0.152  3.7507 -1.4175 -1.5857
 2643TIP3    H229489   5.154   6.335   0.022 -2.0975  1.2283  1.8111
 2644TIP3   OH229490   4.522   1.608   0.097 -0.2534 -0.0033 -0.0493
 2644TIP3    H129491   4.611   1.579   0.117  0.6949  3.3498  1.2301
 2644TIP3    H229492   4.466   1.561   0.159  0.9150 -0.4307  0.6981
 2645TIP3   OH229493   2.999   4.522   2.176 -0.3271  0.1515 -0.6239
 2645TIP3    H129494   2.932   4.504   2.111 -1.3639 -1.1687  0.7318
 2645TIP3    H229495   2.970   4.476   2.254 -1.2365  4.6958  2.1018
 2646TIP3   OH229496   5.495   6.188   0.190  0.2121  0.0640 -0.3219
 2646TIP3    H129497   5.434   6.208   0.261 -1.3215 -0.7345 -1.3764
 2646TIP3    H229498   5.468   6.245   0.118  0.3789 -0.6599 -0.9752
 2647TIP3   OH229499   2.999   0.797   2.210  0.1973 -0.1509  0.2634
 2647TIP3    H129500   2.937   0.757   2.271 -0.2104 -0.1450 -0.1439
 2647TIP3    H229501   3.001   0.890   2.236 -1.1742  0.1745 -0.7189
 2648TIP3   OH229502   0.575   5.286   0.892 -0.2900 -0.0074 -0.0045
 2648TIP3    H129503   0.561   5.319   0.981  1.2562  0.7485 -0.0148
 2648TIP3    H229504   0.647   5.223   0.900 -2.3240 -2.5499 -0.2111
 2649TIP3   OH229505   6.345   1.631   2.155 -0.5606  0.7112 -0.2705
 2649TIP3    H129506   6.287   1.671   2.219 -1.4971  0.2557 -0.8182
 2649TIP3    H229507   6.323   1.674   2.072  0.9295  1.5949 -0.2506
 2650TIP3   OH229508   3.718   2.971   1.364  0.2633 -0.0028 -0.1926
 2650TIP3    H129509   3.682   2.888   1.394  0.4996 -0.1505 -0.3218
 2650TIP3    H229510   3.761   2.950   1.281  2.2754 -0.1825  0.8608
 2651TIP3   OH229511   3.481   2.291   6.368  0.4428 -0.4970 -0.3374
 2651TIP3    H129512   3.475   2.196   6.356  0.5017 -0.3540 -1.5288
 2651TIP3    H229513   3.543   2.320   6.302  1.2455  0.2527  0.7156
 2652TIP3   OH229514   1.761   6.682   0.361 -0.0341  1.0574  0.2990
 2652TIP3    H129515   1.823   6.628   0.410  0.2748  0.9218 -0.2273
 2652TIP3    H229516   1.814   6.726   0.295 -0.5192  0.7760 -0.2984
 2653TIP3   OH229517   4.258   5.512   1.396  0.2751 -0.1076 -0.4523
 2653TIP3    H129518   4.298   5.513   1.483 -0.7385 -0.3353  0.0349
 2653TIP3    H229519   4.244   5.419   1.377  0.3883 -0.0527 -0.8147
 2654TIP3   OH229520   5.214   2.770   0.984  0.2909  0.3217  0.1725
 2654TIP3    H129521   5.196   2.834   0.915 -1.8055  0.0060  0.3700
 2654TIP3    H229522   5.179   2.810   1.064  1.6132  0.1610  0.8791
 2655TIP3   OH229523   1.405   0.990   7.095  0.0399  0.5137  0.3739
 2655TIP3    H129524   1.339   0.947   7.149 -0.0672 -2.4348 -1.8287
 2655TIP3    H229525   1.356   1.055   7.045 -0.7071  0.1515  0.6175
 2656TIP3   OH229526   4.119   5.189   1.013 -0.4656 -0.6127 -1.1089
 2656TIP3    H129527   4.034   5.177   0.970 -0.7078 -1.4174 -0.4241
 2656TIP3    H229528   4.127   5.114   1.072  0.1126  0.1755 -0.1613
 2657TIP3   OH229529   4.480   3.329   7.283 -0.2966 -0.5327  0.1033
 2657TIP3    H129530   4.516   3.414   7.307 -1.8842  0.1046  0.3213
 2657TIP3    H229531   4.554   3.268   7.292  0.5169  0.5833  1.2665
 2658TIP3   OH229532   5.698   1.765   0.809 -0.4380  0.0386  0.4204
 2658TIP3    H129533   5.676   1.701   0.876 -0.8373 -0.3161 -0.0387
 2658TIP3    H229534   5.786   1.740   0.779 -0.4781 -0.1203  0.4398
 2659TIP3   OH229535   6.797   6.493   1.281  0.2278  0.2622  0.5931
 2659TIP3    H129536   6.866   6.544   1.324  1.3555 -0.8221  0.1321
 2659TIP3    H229537   6.809   6.511   1.187  0.7871 -0.9784  0.4055
 2660TIP3   OH229538   2.081   2.605   7.605  0.2350 -0.2479  0.0653
 2660TIP3    H129539   2.056   2.593   7.697  0.1524 -1.5259 -0.1082
 2660TIP3    H229540   2.044   2.690   7.582 -2.2000 -1.0924  0.4515
 2661TIP3   OH229541   5.431   0.502   6.685  0.5440  0.7942 -0.1193
 2661TIP3    H129542   5.440   0.520   6.778 -2.0250  0.3145  0.3191
 2661TIP3    H229543   5.348   0.544   6.660 -1.2218 -2.7537 -1.0240
 2662TIP3   OH229544   0.034   1.189   0.750 -0.3692 -0.4309  0.0432
 2662TIP3    H129545   0.127   1.168   0.757 -0.0906  0.1231 -1.6038
 2662TIP3    H229546   0.030   1.283   0.767 -0.7510 -0.5993  0.9266
 2663TIP3   OH229547   0.247   1.194   1.510 -0.1256  0.0935 -0.3889
 2663TIP3    H129548   0.285   1.116   1.550 -1.0567 -0.1458  0.0585
 2663TIP3    H229549   0.167   1.163   1.468 -0.9520  0.9354  0.5016
 2664TIP3   OH229550   6.636   3.363   1.963 -0.4664  0.4802 -0.5704
 2664TIP3    H129551   6.609   3.272   1.970 -3.1136  1.1613 -0.8510
 2664TIP3    H229552   6.719   3.360   1.916 -0.0402 -1.8041  0.1953
 2665TIP3   OH229553   0.980   6.677   7.585 -0.2747  0.2194  0.1398
 2665TIP3    H129554   0.982   6.696   7.491  1.1412 -0.3832  0.0263
 2665TIP3    H229555   0.998   6.584   7.591 -0.6470  0.1905  1.0124
 2666TIP3   OH229556   1.182   5.511   1.217 -0.0957 -0.6055 -0.6613
 2666TIP3    H129557   1.162   5.491   1.309 -0.0546 -0.1961 -0.5638
 2666TIP3    H229558   1.121   5.581   1.194 -0.9690 -1.5430 -1.3187
 2667TIP3   OH229559   3.092   0.634   8.533 -0.5001 -0.1132  0.0711
 2667TIP3    H129560   3.039   0.700   8.489  0.1515  0.0255 -0.5320
 2667TIP3    H229561   3.029   0.571   8.568 -1.0685  0.1602 -0.4453
 2668TIP3   OH229562   4.604   4.698   1.954 -0.2185 -0.0059 -0.1993
 2668TIP3    H129563   4.646   4.735   2.031 -1.6222  1.3808 -0.0518
 2668TIP3    H229564   4.646   4.612   1.943  0.9437  0.3194  1.2904
 2669TIP3   OH229565   5.730   3.716   1.273 -0.5858  0.4603  0.4121
 2669TIP3    H129566   5.674   3.664   1.214  1.8098 -1.9403  0.0061
 2669TIP3    H229567   5.810   3.731   1.222  0.3272  1.1036  1.9617
 2670TIP3   OH229568   2.443   0.028   7.386 -0.5933  0.2682  0.0379
 2670TIP3    H129569   2.536   0.021   7.365 -0.1480  1.1434  1.5834
 2670TIP3    H229570   2.426  -0.045   7.445 -0.4263  1.1413  1.2007
 2671TIP3   OH229571   2.493   1.439   1.913 -0.0259 -0.3193  0.4427
 2671TIP3    H129572   2.548   1.419   1.988  0.5700 -3.0755 -0.6186
 2671TIP3    H229573   2.417   1.382   1.923 -1.2242  1.1904  0.2670
 2672TIP3   OH229574   0.325   0.492   1.631 -0.4433 -0.7896  0.7027
 2672TIP3    H129575   0.374   0.567   1.666  0.2816 -0.0555 -1.6696
 2672TIP3    H229576   0.293   0.446   1.708  1.5961  0.3136  2.3054
 2673TIP3   OH229577   5.812   6.060   0.654 -0.2788 -0.4002  0.3656
 2673TIP3    H129578   5.828   6.022   0.568  1.5668  0.7691  0.1400
 2673TIP3    H229579   5.773   6.146   0.636 -0.3436 -0.3533  0.7171
 2674TIP3   OH229580   1.344   5.735   7.734  0.3265 -0.5607 -0.2257
 2674TIP3    H129581   1.274   5.799   7.724  1.0959  0.4260  0.5149
 2674TIP3    H229582   1.339   5.707   7.825  3.0556  2.2114  0.9387
 2675TIP3   OH229583   0.127   5.865   7.650 -0.9192  0.3512  0.4121
 2675TIP3    H129584   0.082   5.813   7.583 -2.6472  1.5461  0.5743
 2675TIP3    H229585   0.113   5.817   7.731  1.3123 -1.1838 -0.0057
 2676TIP3   OH229586   6.719   1.711   1.146  0.3863 -0.0563 -0.1018
 2676TIP3    H129587   6.696   1.620   1.129 -0.2582 -0.1994  1.3972
 2676TIP3    H229588   6.635   1.753   1.166  0.4662  1.2136 -2.1311
 2677TIP3   OH229589   2.769   6.300   0.957 -0.1566  0.2096 -0.9532
 2677TIP3    H129590   2.694   6.342   0.914 -1.1097  0.7971  1.1321
 2677TIP3    H229591   2.740   6.210   0.972 -0.9200  0.7003  0.7673
 2678TIP3   OH229592   6.690   1.673   7.639 -0.4644 -0.7382 -0.1597
 2678TIP3    H129593   6.744   1.700   7.564 -2.2128  0.8092 -0.9308
 2678TIP3    H229594   6.699   1.745   7.702 -1.8015 -0.3477 -0.4040
 2679TIP3   OH229595   5.938   5.472   7.369 -0.3898 -0.5022 -0.6958
 2679TIP3    H129596   6.023   5.495   7.405 -0.7845 -0.9154  0.5467
 2679TIP3    H229597   5.888   5.554   7.369 -1.9143 -1.1198  4.0457
 2680TIP3   OH229598   2.988   1.679   8.039  0.6576  0.3545  0.2074
 2680TIP3    H129599   3.016   1.758   7.993  1.5620  0.1868  0.4488
 2680TIP3    H229600   2.950   1.711   8.120  1.1372  0.5477  0.3622
 2681TIP3   OH229601   0.219   5.799   0.066 -0.0012 -0.2594  0.0030
 2681TIP3    H129602   0.230   5.888   0.100 -5.9659  0.5162  1.1103
 2681TIP3    H229603   0.229   5.743   0.143  0.7762 -0.2079 -0.0562
 2682TIP3   OH229604   3.830   1.595   1.945  0.1668  0.3814 -0.3401
 2682TIP3    H129605   3.805   1.678   1.905  1.5927  0.5801 -0.8635
 2682TIP3    H229606   3.923   1.604   1.964  0.0293 -0.5816  0.9257
 2683TIP3   OH229607   1.364   1.797   0.881  0.0542 -0.2943  0.6480
 2683TIP3    H129608   1.306   1.858   0.835  0.3180  1.2969  2.2978
 2683TIP3    H229609   1.407   1.850   0.948  1.3980 -2.0112  1.2331
 2684TIP3   OH229610   5.224   0.349   6.482  0.3486 -0.1476  0.3811
 2684TIP3    H129611   5.303   0.301   6.458 -0.6969 -0.5741 -2.5754
 2684TIP3    H229612   5.231   0.432   6.435 -0.6971  0.0624  0.5613
 2685TIP3   OH229613   4.305   2.155   0.546  0.0431 -0.4299  0.1461
 2685TIP3    H129614   4.242   2.135   0.477 -0.6792  1.2479  0.2789
 2685TIP3    H229615   4.391   2.135   0.508 -0.3743  0.0768 -1.0866
 2686TIP3   OH229616   1.989   4.124   7.327  0.0939 -0.0206  0.4255
 2686TIP3    H129617   1.991   4.130   7.231 -0.4425  0.3521  0.4342
 2686TIP3    H229618   1.958   4.209   7.356  1.3571  0.2603  0.9943
 2687TIP3   OH229619   6.808   3.159   8.503  0.2818  0.0761 -0.4441
 2687TIP3    H129620   6.805   3.246   8.465 -1.1198  0.5460  0.6274
 2687TIP3    H229621   6.896   3.126   8.484  0.8522  1.7518 -0.7999
 2688TIP3   OH229622   3.405   6.604   1.673 -0.1295  0.4956  0.4338
 2688TIP3    H129623   3.318   6.641   1.662 -0.2517  0.2448  0.5695
 2688TIP3    H229624   3.449   6.665   1.733 -1.7439 -1.7872  4.3136
 2689TIP3   OH229625   4.320   3.234   0.976  0.1442 -0.5714 -0.1058
 2689TIP3    H129626   4.359   3.254   0.891 -0.0503 -2.4340 -0.6826
 2689TIP3    H229627   4.393   3.236   1.038  0.3279  0.5479 -0.3341
 2690TIP3   OH229628   4.183   4.799   8.164  0.2209 -0.2252 -0.2377
 2690TIP3    H129629   4.106   4.742   8.162  1.2118 -1.7165  1.3240
 2690TIP3    H229630   4.218   4.789   8.253  2.9319 -0.5948 -1.2467
 2691TIP3   OH229631   5.089   0.882   1.233  0.0543  0.4779 -0.6038
 2691TIP3    H129632   5.181   0.871   1.256  0.1049 -0.6403 -1.2982
 2691TIP3    H229633   5.041   0.842   1.306  0.0802  1.5920  0.0526
 2692TIP3   OH229634   3.463   4.512   1.247 -0.3132 -0.3093 -0.1067
 2692TIP3    H129635   3.375   4.476   1.236 -0.5039 -0.4022  1.4988
 2692TIP3    H229636   3.490   4.483   1.334 -0.6373  3.7259  1.5667
 2693TIP3   OH229637   1.446   1.605   1.688  0.1161 -0.2358 -0.0831
 2693TIP3    H129638   1.416   1.694   1.702  2.1820  0.5776 -0.4354
 2693TIP3    H229639   1.420   1.558   1.767 -0.1294  0.9316  0.5519
 2694TIP3   OH229640   5.983   5.563   8.368 -0.1282  0.5852  0.2926
 2694TIP3    H129641   6.057   5.509   8.343 -1.0194 -1.1324  1.1764
 2694TIP3    H229642   6.015   5.653   8.360  1.5666 -0.0612 -0.7250
 2695TIP3   OH229643   6.634   4.060   8.369 -0.1533  0.4397  0.6617
 2695TIP3    H129644   6.681   4.143   8.375  0.1748  0.5248 -1.8271
 2695TIP3    H229645   6.687   3.998   8.419  3.2985  0.3010 -2.7105
 2696TIP3   OH229646   6.317   5.661   0.799 -0.1359  0.1218  0.1382
 2696TIP3    H129647   6.275   5.609   0.867 -0.3755 -0.7094 -0.6232
 2696TIP3    H229648   6.257   5.655   0.724 -0.1450  1.4705  0.0248
 2697TIP3   OH229649   6.610   2.876   7.010  0.4252 -0.2199  0.1195
 2697TIP3    H129650   6.522   2.841   7.000  0.7794 -0.9686 -0.4827
 2697TIP3    H229651   6.616   2.947   6.946 -0.3967  1.2203  1.5509
 2698TIP3   OH229652   5.608   4.764   1.897  0.7797  0.0689  0.6099
 2698TIP3    H129653   5.692   4.730   1.867 -0.3538 -1.7683 -0.7213
 2698TIP3    H229654   5.628   4.812   1.978  3.1265  0.0675  0.0812
 2699TIP3   OH229655   5.084   3.268   1.971  0.4447 -0.3549 -0.1057
 2699TIP3    H129656   5.022   3.235   1.907 -1.1451  1.2845  0.4995
 2699TIP3    H229657   5.066   3.362   1.976  2.0170 -0.0645  1.1544
 2700TIP3   OH229658   3.288   6.671   7.911  0.1981  0.3554  0.0022
 2700TIP3    H129659   3.282   6.654   7.817 -0.2790  2.6387 -0.4227
 2700TIP3    H229660   3.221   6.615   7.950  0.6905 -0.9410 -0.9345
 2701TIP3   OH229661   6.270   5.357   1.363 -0.3168  0.1226  0.2450
 2701TIP3    H129662   6.334   5.428   1.365 -0.1075 -0.0486 -0.0260
 2701TIP3    H229663   6.321   5.279   1.389 -0.3100 -0.0836 -0.3478
 2702TIP3   OH229664   2.644   4.507   0.385  0.1015 -0.0445 -0.1594
 2702TIP3    H129665   2.597   4.425   0.403  0.6403 -0.0859  1.1386
 2702TIP3    H229666   2.670   4.539   0.471  0.3663  1.2249 -0.6965
 2703TIP3   OH229667   1.490   4.595   8.281  0.1009 -0.3063 -0.5916
 2703TIP3    H129668   1.450   4.656   8.219  0.4314  0.6167  0.0650
 2703TIP3    H229669   1.562   4.555   8.233  0.4286  0.4871 -0.7733
 2704TIP3   OH229670   4.093   0.518   8.496 -0.5535 -0.4029 -0.4205
 2704TIP3    H129671   4.018   0.460   8.511 -1.4845  0.7101 -0.6556
 2704TIP3    H229672   4.089   0.582   8.567  0.5706 -0.7128 -0.0579
 2705TIP3   OH229673   0.421   1.166   7.294  0.0877  0.7963 -0.6080
 2705TIP3    H129674   0.410   1.117   7.213 -1.4144  2.0424 -1.1920
 2705TIP3    H229675   0.338   1.156   7.341  0.9076  0.1343  0.7871
 2706TIP3   OH229676   0.530   3.737   2.166  0.5605 -0.2487  0.4016
 2706TIP3    H129677   0.587   3.757   2.092 -0.1162 -1.1848 -0.4031
 2706TIP3    H229678   0.508   3.644   2.156 -0.0900 -0.2265  1.3992
 2707TIP3   OH229679   1.956   5.674   6.791  0.0072  0.7969 -0.0030
 2707TIP3    H129680   1.957   5.583   6.761  0.5005  1.6628 -2.9220
 2707TIP3    H229681   1.895   5.718   6.731 -0.8579  2.2816  1.8623
 2708TIP3   OH229682   1.634   6.172   0.766 -0.4334 -0.1167  0.2764
 2708TIP3    H129683   1.693   6.245   0.787  1.1637 -0.8957 -1.1885
 2708TIP3    H229684   1.651   6.107   0.834  0.7143 -0.4702 -0.3165
 2709TIP3   OH229685   3.317   2.228   8.591  0.0904  0.0133  0.7202
 2709TIP3    H129686   3.348   2.308   8.632  0.2304  0.3405 -0.0051
 2709TIP3    H229687   3.364   2.223   8.507  0.0505 -0.8017  0.7319
 2710TIP3   OH229688   2.744   1.410   1.344 -0.1171  0.1108  0.4060
 2710TIP3    H129689   2.653   1.421   1.317 -0.4395 -0.1986  1.2998
 2710TIP3    H229690   2.796   1.441   1.270 -0.9500  0.2999 -0.1096
 2711TIP3   OH229691   4.478   2.600   1.596 -0.1161  0.2542 -0.1439
 2711TIP3    H129692   4.489   2.636   1.508 -0.5930  0.5267 -0.0912
 2711TIP3    H229693   4.384   2.604   1.613 -0.0315  0.1693  0.3646
 2712TIP3   OH229694   2.031   1.259   1.049 -0.1949 -0.3778  0.5002
 2712TIP3    H129695   2.002   1.295   1.133  0.3825  0.9017  0.1782
 2712TIP3    H229696   1.955   1.264   0.992  0.2204  1.6527  0.0662
 2713TIP3   OH229697   6.383   5.961   7.093 -0.0468  0.2854 -0.4646
 2713TIP3    H129698   6.444   6.033   7.111  0.4282 -0.4620  1.1355
 2713TIP3    H229699   6.362   5.926   7.179 -0.4568 -1.3419 -1.1980
 2714TIP3   OH229700   6.811   2.828   1.288  0.2217 -0.3675 -0.2367
 2714TIP3    H129701   6.888   2.870   1.249 -0.4768  1.7279  0.5060
 2714TIP3    H229702   6.784   2.888   1.358 -0.3776 -2.4926  1.4439
 2715TIP3   OH229703   1.009   4.502   0.214 -0.1234  0.0621  0.3017
 2715TIP3    H129704   1.031   4.595   0.206 -3.3940  0.8773 -0.8982
 2715TIP3    H229705   1.023   4.467   0.126  1.5857 -0.7967  0.8626
 2716TIP3   OH229706   2.689   6.370   1.996  0.1646 -0.2183 -0.6122
 2716TIP3    H129707   2.745   6.423   2.053  1.6748 -0.9131 -1.3783
 2716TIP3    H229708   2.657   6.300   2.052  0.9220 -0.3955 -0.3906
 2717TIP3   OH229709   4.666   3.667   1.120 -0.2757  0.6548 -0.2512
 2717TIP3    H129710   4.641   3.580   1.152  0.5039 -0.0110 -1.3668
 2717TIP3    H229711   4.719   3.705   1.190  1.6118 -0.8596 -0.7647
 2718TIP3   OH229712   2.912   1.017   7.444 -0.1491 -0.6050  0.0712
 2718TIP3    H129713   2.873   1.021   7.531  0.6772 -2.3683  0.5772
 2718TIP3    H229714   2.982   1.081   7.445  0.1255 -0.9062  0.8703
 2719TIP3   OH229715   1.482   5.304   1.762 -0.2910  0.3662  0.2760
 2719TIP3    H129716   1.450   5.276   1.848  0.3710  0.5508  0.5922
 2719TIP3    H229717   1.507   5.396   1.774  0.4874  0.1871  0.0867
 2720TIP3   OH229718   3.095   6.309   0.262  0.4959 -0.3444  0.2480
 2720TIP3    H129719   3.088   6.225   0.215  1.6120  1.2147 -3.0112
 2720TIP3    H229720   3.169   6.354   0.220 -0.8992  2.8151  0.8791
 2721TIP3   OH229721   1.227   3.212   0.484 -0.1430  0.1005 -0.4604
 2721TIP3    H129722   1.253   3.121   0.468  1.0078  0.4365 -0.5933
 2721TIP3    H229723   1.251   3.258   0.404 -1.2179  0.4399 -0.6046
 2722TIP3   OH229724   4.780   5.052   1.670 -0.3400  0.3729  0.6358
 2722TIP3    H129725   4.713   4.997   1.630  0.6465 -0.7904  0.5193
 2722TIP3    H229726   4.852   4.992   1.690  1.4111  1.8594 -0.8646
 2723TIP3   OH229727   0.290   1.077   0.913  0.1031 -0.2470  0.3184
 2723TIP3    H129728   0.351   1.026   0.860 -0.3272  0.9614 -1.4255
 2723TIP3    H229729   0.336   1.159   0.931  0.1126 -0.5088  1.5540
 2724TIP3   OH229730   1.414   0.433   8.582 -0.1753 -0.1327 -0.0820
 2724TIP3    H129731   1.426   0.468   8.670 -1.5374  0.1857  0.0063
 2724TIP3    H229732   1.466   0.353   8.580  1.1669  0.6912  0.4654
 2725TIP3   OH229733   4.535   6.715   0.689  0.0743  0.3614  0.3834
 2725TIP3    H129734   4.516   6.772   0.614 -0.2112  1.6154  1.3758
 2725TIP3    H229735   4.588   6.644   0.652 -0.3405  0.7688 -1.0628
 2726TIP3   OH229736   4.998   2.923   6.762 -0.2352 -0.4045  0.6014
 2726TIP3    H129737   5.048   2.922   6.680 -0.7721 -1.2898  0.2627
 2726TIP3    H229738   5.034   2.996   6.812 -1.3158  1.5498 -1.3015
 2727TIP3   OH229739   6.212   0.493   7.703  0.1650  0.1979 -0.5560
 2727TIP3    H129740   6.262   0.413   7.688 -0.6224  0.0534 -2.6697
 2727TIP3    H229741   6.120   0.464   7.705  0.0029  0.7098  1.3985
 2728TIP3   OH229742   5.511   3.941   1.138 -0.9683  0.6164 -0.6166
 2728TIP3    H129743   5.599   3.941   1.100  1.1569 -2.2809  3.4405
 2728TIP3    H229744   5.479   3.852   1.123 -1.7970  0.6817  0.6123
 2729TIP3   OH229745   2.837   3.081   6.910  0.7636  0.0270 -0.0372
 2729TIP3    H129746   2.878   3.140   6.847  0.1755 -0.7994 -1.2336
 2729TIP3    H229747   2.906   3.020   6.936  1.3107  1.0480  1.0269
 2730TIP3   OH229748   6.588   0.110   8.278  0.3178 -0.2423 -0.0642
 2730TIP3    H129749   6.594   0.076   8.189  0.8068  0.5949 -0.3583
 2730TIP3    H229750   6.583   0.205   8.267  0.5719 -0.1250  0.8125
 2731TIP3   OH229751   5.053   0.778   2.378 -0.0058  0.6126 -0.2140
 2731TIP3    H129752   5.042   0.792   2.284  0.6022  0.7040 -0.2756
 2731TIP3    H229753   5.076   0.864   2.413 -0.9334  0.7340  0.1381
 2732TIP3   OH229754   3.503   1.345   8.294 -0.5968 -0.4318 -0.4620
 2732TIP3    H129755   3.545   1.398   8.362 -0.5798 -0.1341 -0.7015
 2732TIP3    H229756   3.552   1.263   8.293 -0.1157 -0.1423 -0.6404
 2733TIP3   OH229757   4.450   2.314   1.443 -0.4159 -0.1117  0.9237
 2733TIP3    H129758   4.420   2.380   1.506 -1.4000 -0.8507  1.2442
 2733TIP3    H229759   4.373   2.261   1.425  0.4807 -1.5239  1.0838
 2734TIP3   OH229760   5.403   1.267   2.426  0.1117  0.2282  0.5613
 2734TIP3    H129761   5.334   1.232   2.482  0.4037 -0.2595  0.6205
 2734TIP3    H229762   5.434   1.192   2.376 -0.2091  0.6719 -0.3306
 2735TIP3   OH229763   3.897   2.276   0.651  0.4906  0.4012 -0.2538
 2735TIP3    H129764   3.846   2.356   0.653 -0.6173 -0.2882  1.6169
 2735TIP3    H229765   3.981   2.299   0.691  0.8679  1.0101 -1.3486
 2736TIP3   OH229766   4.659   0.255   2.434  0.3590 -0.1983  0.0715
 2736TIP3    H129767   4.715   0.220   2.503 -1.1712 -0.4114  1.2439
 2736TIP3    H229768   4.624   0.337   2.470  0.7313  0.4864 -1.0669
 2737TIP3   OH229769   5.832   5.993   0.391 -0.4027  0.1836 -0.1982
 2737TIP3    H129770   5.918   6.025   0.365  1.3145 -2.5445  1.5619
 2737TIP3    H229771   5.778   6.003   0.312  1.5641  1.7162 -1.4468
 2738TIP3   OH229772   3.123   3.027   6.715  0.1643  0.4655 -0.2830
 2738TIP3    H129773   3.074   3.106   6.693  0.9337  0.0780 -4.1476
 2738TIP3    H229774   3.057   2.958   6.719 -0.2478  0.9010  0.8619
 2739TIP3   OH229775   0.380   1.479   6.291 -0.3254 -0.4110  0.3025
 2739TIP3    H129776   0.471   1.501   6.313 -0.4840 -1.8240  2.8495
 2739TIP3    H229777   0.383   1.387   6.264 -1.0964 -0.8608  1.6298
 2740TIP3   OH229778   1.579   2.250   2.209 -0.3300 -0.2913  0.0672
 2740TIP3    H129779   1.523   2.260   2.131  0.7208  0.4717 -0.6260
 2740TIP3    H229780   1.561   2.329   2.260 -0.4203 -0.4044  0.2119
 2741TIP3   OH229781   3.171   6.585   2.427 -0.4460 -0.0387  0.1077
 2741TIP3    H129782   3.265   6.598   2.415 -0.4355  0.1920  0.4374
 2741TIP3    H229783   3.162   6.490   2.439 -0.3233 -0.1312 -0.4964
 2742TIP3   OH229784   2.831   4.698   7.868 -0.2171  0.4951 -0.1303
 2742TIP3    H129785   2.846   4.672   7.777 -1.2621  0.2699 -0.2495
 2742TIP3    H229786   2.773   4.774   7.863 -1.9450 -0.7297  0.3685
 2743TIP3   OH229787   5.424   5.435   0.962 -0.0405 -0.0622  0.4187
 2743TIP3    H129788   5.369   5.357   0.964 -1.2509  0.6827 -1.7021
 2743TIP3    H229789   5.364   5.507   0.948  0.8019  1.6316  4.1246
 2744TIP3   OH229790   2.126   5.343   1.378 -0.0245  0.1151  0.4868
 2744TIP3    H129791   2.067   5.410   1.342 -2.7105 -2.9328 -1.3136
 2744TIP3    H229792   2.072   5.294   1.440  0.5841 -2.5609 -0.9293
 2745TIP3   OH229793   5.114   2.332   1.379 -0.4086  0.5614 -0.0712
 2745TIP3    H129794   5.041   2.389   1.402 -0.1545  1.1140 -0.6295
 2745TIP3    H229795   5.130   2.347   1.286 -1.4650 -1.7089 -0.6995
 2746TIP3   OH229796   5.296   1.159   1.356 -0.0015  0.0966  0.3121
 2746TIP3    H129797   5.361   1.230   1.358 -2.3808  2.4044  1.6781
 2746TIP3    H229798   5.245   1.176   1.277 -1.0024  0.3253  0.9949
 2747TIP3   OH229799   3.853   5.006   2.651  0.0264  0.0291  0.5026
 2747TIP3    H129800   3.875   4.913   2.658 -0.6632 -0.2013 -0.2353
 2747TIP3    H229801   3.762   5.007   2.620  0.2395  0.9408 -0.1331
 2748TIP3   OH229802   1.891   3.035   6.170  0.1789  0.1006  0.2895
 2748TIP3    H129803   1.893   3.050   6.264  0.7905  1.2819  0.1015
 2748TIP3    H229804   1.935   2.951   6.158 -1.3988 -0.9060  1.1836
 2749TIP3   OH229805   1.222   4.029   0.468  0.2508 -0.2349 -0.0874
 2749TIP3    H129806   1.248   4.120   0.478  0.9158 -0.5659  1.5252
 2749TIP3    H229807   1.128   4.032   0.450  0.3254  0.7679 -0.3619
 2750TIP3   OH229808   3.532   0.854   7.086 -0.1232 -0.0004 -0.5433
 2750TIP3    H129809   3.627   0.850   7.078 -0.0592 -1.4174  0.5969
 2750TIP3    H229810   3.503   0.764   7.072 -1.1342  0.0735  0.8530
 2751TIP3   OH229811   3.527   6.056   1.748 -0.5054 -0.3232 -0.3347
 2751TIP3    H129812   3.465   6.118   1.708 -1.1251  0.1138  1.2025
 2751TIP3    H229813   3.546   6.095   1.834  0.1245 -1.6105  0.1239
 2752TIP3   OH229814   6.419   3.999   1.569  1.3177 -0.3613 -0.7310
 2752TIP3    H129815   6.430   3.928   1.506 -0.6753 -1.0313 -0.3834
 2752TIP3    H229816   6.375   3.958   1.644  2.0845  0.7886  0.3818
 2753TIP3   OH229817   5.295   2.770   1.562  0.3778  0.2408  0.4554
 2753TIP3    H129818   5.264   2.759   1.652  0.3130  1.4383  0.5964
 2753TIP3    H229819   5.373   2.824   1.570  0.5723  0.0569 -0.1826
 2754TIP3   OH229820   2.964   2.492   7.987  0.0954 -0.7179 -0.5625
 2754TIP3    H129821   2.935   2.403   8.006 -0.9251 -0.0407  1.3375
 2754TIP3    H229822   3.051   2.497   8.025 -0.6698 -0.3444  1.2884
 2755TIP3   OH229823   5.755   0.457   1.315 -0.2635 -0.3146  0.0583
 2755TIP3    H129824   5.833   0.454   1.259 -0.5852  1.8418 -0.5994
 2755TIP3    H229825   5.683   0.431   1.258 -0.3143 -0.1759  0.0588
 2756TIP3   OH229826   3.114   1.140   0.725  0.3036 -0.6753  0.0679
 2756TIP3    H129827   3.191   1.127   0.781  0.5738  0.3323 -0.0424
 2756TIP3    H229828   3.150   1.167   0.641 -0.1593  1.6012  0.5085
 2757TIP3   OH229829   5.607   1.317   1.543  0.0009 -0.4447 -0.0384
 2757TIP3    H129830   5.680   1.256   1.528  0.7492  0.3760  0.2365
 2757TIP3    H229831   5.590   1.356   1.457  0.9074  0.4857  0.1902
 2758TIP3   OH229832   2.547   2.010   0.783 -0.1619 -0.0070 -0.5443
 2758TIP3    H129833   2.536   2.007   0.879 -0.5329  0.0575 -0.5831
 2758TIP3    H229834   2.636   2.040   0.771 -0.2494  0.4016 -0.2152
 2759TIP3   OH229835   4.225   5.065   7.670 -0.0131 -0.2232 -0.4674
 2759TIP3    H129836   4.277   5.125   7.724 -1.4534  0.8126 -0.1496
 2759TIP3    H229837   4.282   4.989   7.656  0.0152 -1.2196  3.6727
 2760TIP3   OH229838   3.482   3.026   2.073 -0.2248 -0.1019  0.0403
 2760TIP3    H129839   3.388   3.036   2.089 -0.0490 -0.5655  1.5020
 2760TIP3    H229840   3.497   2.931   2.077  0.5520  0.0497  1.5179
 2761TIP3   OH229841   2.199   0.916   7.393 -0.2370 -0.1467  0.1373
 2761TIP3    H129842   2.177   0.986   7.455 -0.8465 -0.3906  0.1994
 2761TIP3    H229843   2.184   0.835   7.442  1.1867 -0.3283  0.3162
 2762TIP3   OH229844   2.307   0.005   2.102  0.3419  0.3064  0.2363
 2762TIP3    H129845   2.257   0.043   2.174 -0.6512 -0.2393 -0.1453
 2762TIP3    H229846   2.384   0.061   2.094  0.3211  0.5541  1.5179
 2763TIP3   OH229847   3.645   3.547   6.523  0.1382  0.0569 -0.2647
 2763TIP3    H129848   3.693   3.618   6.479 -0.9497  1.4588  0.7433
 2763TIP3    H229849   3.640   3.574   6.614 -0.4453 -1.2607  0.1136
 2764TIP3   OH229850   6.782   3.673   0.337 -0.0613 -0.5785 -0.4454
 2764TIP3    H129851   6.798   3.715   0.422 -0.4965 -1.7792  0.2639
 2764TIP3    H229852   6.833   3.723   0.275  2.4457 -1.2623  0.9253
 2765TIP3   OH229853   2.314   6.064   0.806 -0.1945 -0.0110 -0.3568
 2765TIP3    H129854   2.245   6.040   0.744 -0.3127 -1.0915  0.1833
 2765TIP3    H229855   2.343   5.982   0.844  1.8970  0.3421 -1.0639
 2766TIP3   OH229856   1.652   1.386   0.119 -0.0957  0.1930  0.5120
 2766TIP3    H129857   1.624   1.338   0.041  3.1366  2.0687 -2.1145
 2766TIP3    H229858   1.714   1.327   0.162  1.5035  0.6698 -0.9785
 2767TIP3   OH229859   3.019   5.603   6.398  0.9265  0.2758 -0.1137
 2767TIP3    H129860   2.964   5.625   6.473  0.8424 -0.6114  0.0869
 2767TIP3    H229861   3.047   5.513   6.413  1.0368  0.1376 -1.0657
 2768TIP3   OH229862   6.236   3.033   7.090 -0.2054 -0.0208  0.2749
 2768TIP3    H129863   6.210   3.020   6.998 -0.5619  1.8334  0.0562
 2768TIP3    H229864   6.170   3.094   7.124  1.9869  2.3180  0.6501
 2769TIP3   OH229865   0.491   1.553   0.497 -0.5482 -0.2672  0.1600
 2769TIP3    H129866   0.488   1.502   0.416 -0.8777 -1.2228  0.7675
 2769TIP3    H229867   0.426   1.513   0.554 -0.3721  0.4401  0.8812
 2770TIP3   OH229868   4.583   4.128   1.249  0.6907  0.0630  0.4739
 2770TIP3    H129869   4.678   4.138   1.255  0.8545 -0.7860 -0.4143
 2770TIP3    H229870   4.564   4.047   1.296  0.4490  0.0457  0.3474
 2771TIP3   OH229871   3.730   6.471   1.579 -0.3407 -0.0351 -0.1376
 2771TIP3    H129872   3.667   6.543   1.579 -0.0515  0.3153  2.4575
 2771TIP3    H229873   3.800   6.500   1.521 -0.6432  1.3849  0.1753
 2772TIP3   OH229874   2.877   6.443   2.589  0.2256 -0.3565 -0.3539
 2772TIP3    H129875   2.846   6.412   2.504 -0.5653 -3.6235  0.9999
 2772TIP3    H229876   2.966   6.408   2.597 -1.0061 -3.4819  1.5811
 2773TIP3   OH229877   4.917   2.518   2.164 -0.2305  0.3185 -0.0267
 2773TIP3    H129878   4.878   2.511   2.077  0.6039 -0.7284 -0.3398
 2773TIP3    H229879   4.978   2.591   2.157  0.3375 -0.1948 -0.5343
 2774TIP3   OH229880   3.042   0.450   5.959 -0.3076  0.1528  0.0509
 2774TIP3    H129881   3.105   0.388   5.995 -2.5851 -3.0506 -1.0200
 2774TIP3    H229882   2.980   0.465   6.030 -1.2685 -1.0733 -0.4929
 2775TIP3   OH229883   1.716   1.973   8.094 -0.2932 -0.0410  0.4596
 2775TIP3    H129884   1.732   1.898   8.038  1.0800  1.7092 -1.6844
 2775TIP3    H229885   1.800   1.988   8.139 -0.3111  0.6173  0.2887
 2776TIP3   OH229886   2.394   4.292   6.711 -0.8859  0.5735 -0.6554
 2776TIP3    H129887   2.489   4.284   6.717 -0.7239  1.0090 -2.1996
 2776TIP3    H229888   2.365   4.207   6.677 -0.8352  1.0677 -1.9692
 2777TIP3   OH229889   4.494   2.944   0.237  0.1289  0.5397 -0.4107
 2777TIP3    H129890   4.536   2.986   0.161 -1.6590 -1.4430 -2.6520
 2777TIP3    H229891   4.427   3.007   0.265 -1.2834  0.0860 -2.5430
 2778TIP3   OH229892   0.404   3.875   0.711 -0.1433  0.1563  0.5640
 2778TIP3    H129893   0.445   3.793   0.739 -0.4695 -0.5835 -1.0443
 2778TIP3    H229894   0.452   3.902   0.633 -1.2325  0.4748 -0.0225
 2779TIP3   OH229895   1.052   5.085   8.116  0.1572 -0.0631 -0.4567
 2779TIP3    H129896   1.043   4.991   8.099  0.2113 -0.3173  0.8244
 2779TIP3    H229897   0.964   5.120   8.101 -0.1255 -0.5097  0.1064
 2780TIP3   OH229898   0.764   5.309   1.997 -0.0126 -0.2920  0.5036
 2780TIP3    H129899   0.853   5.344   1.998  0.0092 -0.2497 -1.1373
 2780TIP3    H229900   0.774   5.216   2.017  0.2742 -0.0739  1.4161
 2781TIP3   OH229901   0.735   0.024   8.276 -0.4559 -0.5466 -0.7075
 2781TIP3    H129902   0.746  -0.058   8.323  0.0666  0.7115  1.5400
 2781TIP3    H229903   0.811   0.031   8.219  1.3155 -0.1112  1.5927
 2782TIP3   OH229904   0.296   5.544   1.503 -0.1208  0.3828  0.3585
 2782TIP3    H129905   0.244   5.472   1.538 -0.9890 -0.0306 -1.6555
 2782TIP3    H229906   0.254   5.566   1.420  3.0979 -0.2718 -1.6172
 2783TIP3   OH229907   4.346   6.667   8.043 -0.0490  0.2447 -0.3370
 2783TIP3    H129908   4.256   6.697   8.053 -0.1789 -0.4549  0.7650
 2783TIP3    H229909   4.361   6.666   7.948 -1.7786 -1.2921 -0.6334
 2784TIP3   OH229910   3.527   6.168   8.031  0.2777  0.2988  0.0856
 2784TIP3    H129911   3.566   6.161   8.118 -1.0094  1.7245  0.8399
 2784TIP3    H229912   3.456   6.103   8.032 -0.1892  0.8063  0.3778
 2785TIP3   OH229913   2.284   0.643   2.134 -0.1942 -0.2957  0.1188
 2785TIP3    H129914   2.305   0.552   2.111  0.5947 -0.8699  2.7730
 2785TIP3    H229915   2.211   0.636   2.196  1.2692  0.6278  2.0661
 2786TIP3   OH229916   6.698   6.647   0.737  0.1241 -0.6007  0.6443
 2786TIP3    H129917   6.781   6.599   0.728  0.7093  0.2469  1.3096
 2786TIP3    H229918   6.660   6.647   0.649  0.8331 -1.0084  0.3340
 2787TIP3   OH229919   1.210   0.941   0.201 -0.7575  0.0291  0.0104
 2787TIP3    H129920   1.273   0.903   0.262 -1.1816  2.5565  2.2499
 2787TIP3    H229921   1.257   1.011   0.157 -1.0222 -0.4811 -1.1297
 2788TIP3   OH229922   2.898   0.624   7.072  0.2258 -0.2410  0.3597
 2788TIP3    H129923   2.869   0.534   7.060 -0.2444 -0.0900  0.3259
 2788TIP3    H229924   2.847   0.656   7.147  0.0325  0.1491  0.0636
 2789TIP3   OH229925   4.267   0.975   2.479  0.6175  0.0664  0.3456
 2789TIP3    H129926   4.293   0.999   2.390  0.8724 -0.4928  0.2648
 2789TIP3    H229927   4.171   0.973   2.477  0.6349 -0.8791 -0.1778
 2790TIP3   OH229928   4.522   4.841   6.862 -0.2304  0.1079  0.4186
 2790TIP3    H129929   4.602   4.887   6.884 -0.0678 -0.3940  0.8848
 2790TIP3    H229930   4.461   4.910   6.834  1.0273  0.3159 -2.0706
 2791TIP3   OH229931   3.883   3.814   8.329  0.1062  0.3653  0.5623
 2791TIP3    H129932   3.791   3.799   8.351  0.3628 -3.4656 -0.1972
 2791TIP3    H229933   3.924   3.841   8.411 -1.6091  2.1744  0.9075
 2792TIP3   OH229934   0.842   4.002   7.256 -0.3174  0.3999 -0.3609
 2792TIP3    H129935   0.861   4.038   7.342 -1.3521  0.5769 -0.1878
 2792TIP3    H229936   0.787   3.925   7.273  1.6294 -1.1627 -0.7386
 2793TIP3   OH229937   0.539   2.056   1.599  0.0427 -0.0846 -0.5613
 2793TIP3    H129938   0.551   2.081   1.691 -1.0610 -2.7880  0.4067
 2793TIP3    H229939   0.490   2.129   1.561 -2.1112 -0.1606  1.7849
 2794TIP3   OH229940   2.203   0.585   0.489 -0.4715  0.1385  0.2254
 2794TIP3    H129941   2.204   0.623   0.577 -0.7051 -0.3382  0.4334
 2794TIP3    H229942   2.111   0.570   0.470 -0.6828  2.7158 -1.1896
 2795TIP3   OH229943   4.141   5.020   0.672  0.4544 -0.0879  0.3918
 2795TIP3    H129944   4.137   5.011   0.767  2.9560  1.4447  0.7172
 2795TIP3    H229945   4.063   5.070   0.649  0.0988 -0.0097  1.7064
 2796TIP3   OH229946   3.953   2.689   0.565 -0.0434  0.6209 -0.4167
 2796TIP3    H129947   4.016   2.650   0.504 -0.3728 -0.1453 -0.2808
 2796TIP3    H229948   3.990   2.774   0.586  0.8973  0.2288 -0.4312
 2797TIP3   OH229949   5.620   6.810   7.057 -0.4911  0.9325  0.1840
 2797TIP3    H129950   5.564   6.888   7.054  0.9826  1.9950 -1.5022
 2797TIP3    H229951   5.633   6.787   6.966  2.7108  1.4439  0.4014
 2798TIP3   OH229952   4.367   4.711   0.822 -0.5985  0.1227 -0.3450
 2798TIP3    H129953   4.348   4.650   0.894 -3.3172  2.0251  0.7184
 2798TIP3    H229954   4.430   4.773   0.858  0.5567 -0.7837 -0.7428
 2799TIP3   OH229955   4.475   1.693   1.430 -0.5082  0.1938 -0.0644
 2799TIP3    H129956   4.465   1.756   1.359 -1.5798 -0.3105 -0.3769
 2799TIP3    H229957   4.569   1.673   1.431 -0.1513  1.7097 -0.0031
 2800TIP3   OH229958   3.397   3.318   8.341 -0.1897 -0.3619 -0.2214
 2800TIP3    H129959   3.422   3.268   8.419 -1.6871  0.3097  0.7095
 2800TIP3    H229960   3.404   3.409   8.367 -1.4265 -0.1348 -0.6189
 2801TIP3   OH229961   6.701   4.157   0.024 -0.3259 -0.1688  0.5475
 2801TIP3    H129962   6.781   4.133   0.070 -0.6392  0.5980  1.5308
 2801TIP3    H229963   6.654   4.213   0.086 -0.7701  0.8987 -0.7026
 2802TIP3   OH229964   6.134   2.079   7.371  0.0252  0.0473 -0.3880
 2802TIP3    H129965   6.106   2.043   7.455 -0.5632  0.0498 -0.5732
 2802TIP3    H229966   6.199   2.145   7.393 -0.5195  0.4305  0.1100
 2803TIP3   OH229967   3.549   0.926   0.959  0.3538 -0.1285 -0.2944
 2803TIP3    H129968   3.549   0.878   1.042  0.9026  1.2409  0.5297
 2803TIP3    H229969   3.637   0.913   0.924  0.5367  0.3585 -0.0181
 2804TIP3   OH229970   0.889   3.408   1.840 -0.2790  0.3313 -0.7240
 2804TIP3    H129971   0.943   3.487   1.845  1.1820 -0.5507 -1.7152
 2804TIP3    H229972   0.938   3.343   1.890 -1.2030 -0.1164 -0.3681
 2805TIP3   OH229973   6.665   3.873   0.568 -0.6595  0.1922 -1.0433
 2805TIP3    H129974   6.661   3.856   0.662  0.6224 -1.3914 -1.2211
 2805TIP3    H229975   6.725   3.947   0.559 -1.0656  0.5762 -0.5926
 2806TIP3   OH229976   4.464   3.717   7.780  0.2496 -0.2377 -0.3373
 2806TIP3    H129977   4.523   3.648   7.809 -1.7067 -2.0860 -0.4909
 2806TIP3    H229978   4.422   3.681   7.701 -2.0826  0.3510  0.5626
 2807TIP3   OH229979   1.704   5.613   6.618 -0.0224  0.1760 -0.1155
 2807TIP3    H129980   1.630   5.673   6.631  0.0041  0.2133 -0.1343
 2807TIP3    H229981   1.664   5.531   6.588 -0.2206 -0.4056  1.6490
 2808TIP3   OH229982   2.406   1.224   8.012  0.3339  0.7009 -0.2567
 2808TIP3    H129983   2.403   1.183   8.098  1.7649  0.6044 -0.2330
 2808TIP3    H229984   2.455   1.306   8.026  2.9321 -0.5310 -1.3998
 2809TIP3   OH229985   2.242   5.785   7.455  0.1932  0.0226  0.0760
 2809TIP3    H129986   2.293   5.742   7.386  0.3831  0.9300 -0.3580
 2809TIP3    H229987   2.185   5.845   7.408  0.6121  0.9519  0.7290
 2810TIP3   OH229988   0.965   0.995   8.018  0.0082  0.0553  0.0935
 2810TIP3    H129989   0.898   0.962   7.957  0.4198 -1.0522  0.2224
 2810TIP3    H229990   0.926   0.986   8.104 -0.9739  2.5579  0.0002
 2811TIP3   OH229991   3.329   4.327   8.430 -0.2321  0.3191  0.3032
 2811TIP3    H129992   3.335   4.354   8.338  0.4100 -2.7142 -0.6450
 2811TIP3    H229993   3.243   4.286   8.438  0.0476 -0.1808  0.8157
 2812TIP3   OH229994   6.561   1.055   7.025  0.1853 -0.3410 -0.5035
 2812TIP3    H129995   6.495   0.993   7.055  1.9966 -1.9573  0.3664
 2812TIP3    H229996   6.574   1.033   6.933 -1.4212  0.9200 -1.0731
 2813TIP3   OH229997   5.322   6.052   8.255  0.2847  0.3262  0.1794
 2813TIP3    H129998   5.337   5.978   8.314 -0.6676  0.8309  1.0931
 2813TIP3    H229999   5.301   6.011   8.171  0.1010 -0.4396  0.5843
 2814TIP3   OH230000   5.258   0.646   0.747  0.2817  0.4882  0.1789
 2814TIP3    H130001   5.264   0.731   0.789  0.6239  0.3655  0.3787
 2814TIP3    H230002   5.347   0.625   0.720 -0.0075  0.8296 -1.1568
 2815TIP3   OH230003   3.294   4.928   8.222  0.0882  0.0511 -0.2817
 2815TIP3    H130004   3.386   4.954   8.226 -0.2028  1.1260 -0.1076
 2815TIP3    H230005   3.247   4.999   8.266 -0.9477  0.1945 -1.5209
 2816TIP3   OH230006   6.182   4.363   0.141 -0.5553 -0.7653 -0.1260
 2816TIP3    H130007   6.238   4.440   0.148 -0.8934 -0.5167 -0.0748
 2816TIP3    H230008   6.177   4.345   0.048 -1.1817 -0.1815 -0.2182
 2817TIP3   OH230009   5.952   2.927   1.465  0.7388  0.5871  0.6455
 2817TIP3    H130010   5.877   2.936   1.406  1.5731 -2.0456 -1.0045
 2817TIP3    H230011   5.925   2.970   1.546 -3.0003 -1.1633  0.5208
 2818TIP3   OH230012   4.436   6.284   2.485  0.2282  0.4058 -0.2099
 2818TIP3    H130013   4.412   6.375   2.500 -2.0909  0.0523 -1.3547
 2818TIP3    H230014   4.369   6.233   2.531  1.0336 -0.7156 -0.2428
 2819TIP3   OH230015   1.390   5.578   8.180 -0.1234  0.3750  0.4081
 2819TIP3    H130016   1.438   5.604   8.258 -0.5368 -0.0965  0.8246
 2819TIP3    H230017   1.340   5.501   8.207  0.4034 -0.3315 -0.5565
 2820TIP3   OH230018   3.265   1.564   6.703  0.9421 -0.0166  0.1208
 2820TIP3    H130019   3.315   1.550   6.622  0.7075 -0.0152 -0.0266
 2820TIP3    H230020   3.194   1.500   6.699  0.1765  0.8365 -0.3047
 2821TIP3   OH230021   1.690   2.899   8.394 -0.5360 -0.3875 -0.8922
 2821TIP3    H130022   1.684   2.993   8.376 -0.0440 -0.3232 -0.7245
 2821TIP3    H230023   1.750   2.866   8.327 -1.3536 -0.7333 -1.4778
 2822TIP3   OH230024   6.247   1.280   6.092  0.1881 -0.1384  0.5209
 2822TIP3    H130025   6.311   1.218   6.126  1.2294  0.1621 -0.8468
 2822TIP3    H230026   6.298   1.351   6.055 -0.9790  1.7632  2.3172
 2823TIP3   OH230027   5.084   2.052   1.389 -0.0160 -0.2491  0.4302
 2823TIP3    H130028   5.012   2.071   1.449  0.2724  1.8940  0.1519
 2823TIP3    H230029   5.114   2.137   1.357  2.5937 -1.0446  0.4555
 2824TIP3   OH230030   3.423   3.621   1.749  0.0711  0.1645  0.4603
 2824TIP3    H130031   3.464   3.535   1.763  0.6496  0.4875  0.7622
 2824TIP3    H230032   3.400   3.651   1.836 -0.6336  0.0812  0.3106
 2825TIP3   OH230033   5.362   5.121   1.858 -0.0805 -1.1487 -0.3075
 2825TIP3    H130034   5.344   5.103   1.950 -1.5496 -1.4718 -0.6357
 2825TIP3    H230035   5.276   5.127   1.817  0.5344 -0.5559 -1.5848
 2826TIP3   OH230036   1.469   3.616   8.459 -0.3881  0.4174  0.3456
 2826TIP3    H130037   1.442   3.669   8.534 -0.8595  0.5252  0.1053
 2826TIP3    H230038   1.458   3.674   8.384  0.5764  0.4829  0.2416
 2827TIP3   OH230039   0.746   3.717   0.636 -0.1422 -0.3834 -0.3206
 2827TIP3    H130040   0.805   3.791   0.623  0.4386 -0.9894 -1.2822
 2827TIP3    H230041   0.716   3.695   0.547 -1.9215 -0.0108  0.1470
 2828TIP3   OH230042   6.346   4.689   7.557  0.5938  0.2728 -0.4460
 2828TIP3    H130043   6.338   4.649   7.471  1.6188  0.3847 -0.6066
 2828TIP3    H230044   6.345   4.783   7.541 -1.0587  0.3457 -0.1383
 2829TIP3   OH230045   3.567   2.228   1.254 -0.1845  0.0551 -0.3204
 2829TIP3    H130046   3.545   2.168   1.183 -0.9436 -0.6025  0.4520
 2829TIP3    H230047   3.484   2.245   1.298 -0.3540  3.2313 -1.6525
 2830TIP3   OH230048   3.810   5.214   6.454 -0.1381 -0.3901  0.0672
 2830TIP3    H130049   3.903   5.229   6.470  0.5712  0.4386 -3.7993
 2830TIP3    H230050   3.772   5.302   6.450 -0.9910 -0.6988  0.9933
 2831TIP3   OH230051   6.819   1.316   7.984  0.1041  0.4860 -0.0074
 2831TIP3    H130052   6.860   1.231   8.002 -1.8534 -0.1678  1.8232
 2831TIP3    H230053   6.856   1.375   8.050  0.0017  0.5490 -0.0049
 2832TIP3   OH230054   0.686   6.636   7.051 -0.1003 -0.5231  0.4153
 2832TIP3    H130055   0.622   6.700   7.020  0.9115 -0.2917 -1.3559
 2832TIP3    H230056   0.679   6.563   6.988  0.6049 -0.9736  0.8418
 2833TIP3   OH230057   0.652   5.913   7.721  0.3248 -0.7486  0.1799
 2833TIP3    H130058   0.680   5.836   7.771  2.1297  0.1708  0.7038
 2833TIP3    H230059   0.674   5.892   7.630  1.3389 -0.6714  0.3907
 2834TIP3   OH230060   4.483   1.648   7.109  0.1530  0.2924 -0.2512
 2834TIP3    H130061   4.561   1.638   7.054  0.5440  0.2773  0.2902
 2834TIP3    H230062   4.492   1.736   7.146  0.3712 -0.0295  0.4904
 2835TIP3   OH230063   2.295   4.688   0.749 -0.4710 -0.5525  0.3917
 2835TIP3    H130064   2.258   4.774   0.731  0.0283 -0.3936  0.1071
 2835TIP3    H230065   2.296   4.644   0.664 -0.8062 -0.8771  0.5513
 2836TIP3   OH230066   0.691   3.162   2.331  0.6952  0.0318 -0.0476
 2836TIP3    H130067   0.669   3.182   2.240  0.2200 -0.8859 -0.1504
 2836TIP3    H230068   0.612   3.122   2.366  0.9782  0.1053  0.6879
 2837TIP3   OH230069   2.599   6.588   6.749  0.1830 -0.2647  0.0549
 2837TIP3    H130070   2.531   6.522   6.754 -0.9144  0.7546 -0.8767
 2837TIP3    H230071   2.591   6.624   6.661  1.1072  0.7319  0.3593
 2838TIP3   OH230072   3.713   3.869   8.050 -0.4860  0.1116 -0.1135
 2838TIP3    H130073   3.739   3.960   8.062 -0.5402  0.3696 -1.7486
 2838TIP3    H230074   3.795   3.821   8.039 -0.3962 -0.2387  1.7597
 2839TIP3   OH230075   1.531   3.643   8.113 -0.1587 -0.2553 -0.3469
 2839TIP3    H130076   1.496   3.728   8.138  0.9328  0.5107 -1.3242
 2839TIP3    H230077   1.456   3.584   8.113 -1.4503  1.2866 -2.2508
 2840TIP3   OH230078   5.496   0.216   7.008 -0.0547 -0.2813 -0.4416
 2840TIP3    H130079   5.401   0.223   6.998 -0.1716  0.2317  0.7961
 2840TIP3    H230080   5.532   0.266   6.935 -0.7237 -0.5139 -0.9438
 2841TIP3   OH230081   4.855   2.462   6.844  0.0965 -0.2339 -0.1602
 2841TIP3    H130082   4.851   2.496   6.934 -1.9462  0.9255 -0.6201
 2841TIP3    H230083   4.893   2.534   6.793 -1.5580  0.3140 -0.6756
 2842TIP3   OH230084   6.083   5.534   2.528  0.0887  0.1946  0.2929
 2842TIP3    H130085   6.030   5.465   2.567  0.6194 -1.2707 -1.4715
 2842TIP3    H230086   6.137   5.490   2.463  0.5246  2.2540 -0.8300
 2843TIP3   OH230087   2.577   4.205   8.439  0.1624 -0.5266  0.3034
 2843TIP3    H130088   2.629   4.282   8.463  0.1934 -0.1336 -0.9348
 2843TIP3    H230089   2.590   4.144   8.511 -0.7520  1.0342  1.8631
 2844TIP3   OH230090   5.664   0.409   6.888 -0.0429  0.0745 -0.0077
 2844TIP3    H130091   5.653   0.452   6.973 -2.4668 -0.3118 -0.0351
 2844TIP3    H230092   5.752   0.431   6.861  0.0074  2.1221  1.5680
 2845TIP3   OH230093   2.871   6.044   0.397 -0.0622  0.3702  0.0419
 2845TIP3    H130094   2.837   6.133   0.405 -0.4208  0.3644 -1.1062
 2845TIP3    H230095   2.835   5.997   0.473  1.5916  1.6041  1.6617
 2846TIP3   OH230096   1.391   0.763   7.443  0.3714  0.1979  0.1476
 2846TIP3    H130097   1.342   0.817   7.381 -0.6431 -0.5252  0.2920
 2846TIP3    H230098   1.442   0.826   7.494 -2.2972  1.2848  1.6801
 2847TIP3   OH230099   3.160   2.984   1.597  0.1025  0.0941 -0.1149
 2847TIP3    H130100   3.179   3.063   1.647 -3.1961  0.0660  1.4573
 2847TIP3    H230101   3.111   2.929   1.657  0.3233 -2.1923 -1.8933
 2848TIP3   OH230102   5.351   3.976   0.559 -0.2192 -0.3651  0.4307
 2848TIP3    H130103   5.295   3.947   0.631 -0.3035 -2.3842 -0.3758
 2848TIP3    H230104   5.295   3.971   0.482  0.3312  0.1877 -0.0178
 2849TIP3   OH230105   2.369   2.994   6.752 -0.2825  0.2517 -0.5127
 2849TIP3    H130106   2.414   2.936   6.813  1.1314  2.5251  0.7446
 2849TIP3    H230107   2.277   2.987   6.776  0.1518  0.4419  1.3807
 2850TIP3   OH230108   3.971   3.542   8.392 -0.2711  0.4433  0.1933
 2850TIP3    H130109   3.953   3.635   8.395  1.4795  0.8007  1.3432
 2850TIP3    H230110   3.886   3.500   8.407 -0.7934  1.8966  1.6047
 2851TIP3   OH230111   3.307   0.427   8.596 -0.0348 -0.1361  0.1332
 2851TIP3    H130112   3.310   0.392   8.507  1.9730 -0.2845  0.1994
 2851TIP3    H230113   3.321   0.521   8.586 -1.7181  0.1416  0.1946
 2852TIP3   OH230114   1.364   5.246   7.409 -0.3343  0.3466  0.0060
 2852TIP3    H130115   1.408   5.211   7.487 -1.3403  1.8178  1.3045
 2852TIP3    H230116   1.271   5.247   7.432 -0.6316  1.0317 -1.1343
 2853TIP3   OH230117   2.895   1.726   7.148  0.1049  0.6265 -1.0055
 2853TIP3    H130118   2.861   1.661   7.210  0.1131  1.6503  0.1075
 2853TIP3    H230119   2.816   1.762   7.107 -0.0327  1.3366 -0.1388
 2854TIP3   OH230120   6.270   0.505   6.929  0.2069  0.7681 -0.0161
 2854TIP3    H130121   6.341   0.474   6.986  1.1661  0.6485 -1.2440
 2854TIP3    H230122   6.217   0.428   6.912  1.3608  0.2210 -1.3059
 2855TIP3   OH230123   1.049   4.210   8.520  0.4497 -0.1016  0.1496
 2855TIP3    H130124   0.979   4.168   8.469 -0.0462  1.4254 -0.4948
 2855TIP3    H230125   1.130   4.173   8.485  0.0550 -0.0737 -0.8238
 2856TIP3   OH230126   2.431   0.635   0.921 -0.0456 -0.5645  0.3490
 2856TIP3    H130127   2.434   0.709   0.982 -1.7306  0.5775 -0.8715
 2856TIP3    H230128   2.489   0.570   0.960  0.3801  0.8346  2.2017
 2857TIP3   OH230129   3.364   3.775   1.094  1.0965 -0.1890  0.4269
 2857TIP3    H130130   3.448   3.819   1.101  0.3251  1.2843  0.7211
 2857TIP3    H230131   3.307   3.837   1.050  0.5212 -1.7240 -1.1267
 2858TIP3   OH230132   1.981   2.656   8.499  0.4722 -0.5585  0.4574
 2858TIP3    H130133   1.930   2.695   8.429  1.1801 -1.3874 -0.5424
 2858TIP3    H230134   1.979   2.721   8.570 -1.4274 -0.3099  0.2220
 2859TIP3   OH230135   5.914   0.219   6.564  0.6350  0.1758 -0.1305
 2859TIP3    H130136   5.894   0.288   6.628  0.2007 -1.7244  1.9292
 2859TIP3    H230137   5.830   0.198   6.525  1.0112  1.8495 -1.9855
 2860TIP3   OH230138   4.255   1.271   8.463  0.0229 -0.0878 -0.0201
 2860TIP3    H130139   4.350   1.263   8.470  0.0081 -0.7405 -0.4599
 2860TIP3    H230140   4.232   1.221   8.385 -0.8154 -1.0664  0.8096
 2861TIP3   OH230141   3.692   3.515   1.087  0.0900  0.1169 -0.4917
 2861TIP3    H130142   3.605   3.525   1.049 -1.3637 -0.8741  2.2980
 2861TIP3    H230143   3.741   3.591   1.055 -2.0216  1.1166 -1.5401
 2862TIP3   OH230144   3.687   4.969   0.080 -0.3626 -0.6789  0.4682
 2862TIP3    H130145   3.668   4.905   0.012 -0.0224 -0.0552 -0.2345
 2862TIP3    H230146   3.626   5.041   0.063  0.3457 -0.1175  0.2469
 2863TIP3   OH230147   2.300   4.797   8.296  0.7877 -0.5096  0.8763
 2863TIP3    H130148   2.256   4.873   8.334  0.8815 -0.6373  1.2421
 2863TIP3    H230149   2.237   4.726   8.302  0.0362 -0.0598 -1.0735
 2864TIP3   OH230150   6.596   2.509   7.521 -0.2540  0.0589 -0.2611
 2864TIP3    H130151   6.634   2.442   7.578 -0.4967 -0.5146 -0.7546
 2864TIP3    H230152   6.544   2.459   7.457 -0.5993  0.7324 -0.5188
 2865TIP3   OH230153   1.857   1.481   7.840 -0.0633 -0.1906  0.4901
 2865TIP3    H130154   1.863   1.386   7.825 -0.9375 -0.1072 -0.5049
 2865TIP3    H230155   1.855   1.489   7.935  0.6815 -1.1213  0.6074
 2866TIP3   OH230156   6.800   4.664   8.083 -0.1932 -0.2134  0.1257
 2866TIP3    H130157   6.714   4.663   8.042  0.2645  1.3806 -0.9836
 2866TIP3    H230158   6.854   4.719   8.025  1.1156  0.2108  1.6543
 2867TIP3   OH230159   1.195   2.123   7.886  0.4750 -0.0592  0.1081
 2867TIP3    H130160   1.291   2.117   7.886  0.5742  0.5260  2.2563
 2867TIP3    H230161   1.166   2.042   7.927  0.1078  0.1058  0.1751
 2868TIP3   OH230162   0.331   4.704   0.121  0.1247  1.2145 -0.3077
 2868TIP3    H130163   0.278   4.759   0.064  1.9743  1.7589 -1.5858
 2868TIP3    H230164   0.277   4.690   0.199 -2.2969  0.8575 -1.9474
 2869TIP3   OH230165   4.421   0.112   1.307 -0.3582 -0.6279 -0.4786
 2869TIP3    H130166   4.348   0.162   1.270  0.1692  1.8680  1.5810
 2869TIP3    H230167   4.392   0.088   1.395  1.0498 -0.0905  0.1645
 2870TIP3   OH230168   3.479   2.122   2.509  0.4669 -0.2722 -0.3551
 2870TIP3    H130169   3.561   2.166   2.489  0.2945 -0.7050 -2.2147
 2870TIP3    H230170   3.425   2.135   2.430 -1.5875  0.7009  1.0976
 2871TIP3   OH230171   4.679   0.476   0.555  0.0100  0.8257  0.3456
 2871TIP3    H130172   4.625   0.526   0.494 -0.3430  0.9651  0.7671
 2871TIP3    H230173   4.708   0.539   0.621  0.7682  0.7702  0.0789
 2872TIP3   OH230174   1.280   2.510   0.001 -0.0914  0.4903 -0.0619
 2872TIP3    H130175   1.186   2.496  -0.010 -0.4783  1.0032  2.1070
 2872TIP3    H230176   1.304   2.569  -0.070 -1.6775  1.3413  0.0561
 2873TIP3   OH230177   2.397   1.964   7.844  0.5265  0.2399 -0.2627
 2873TIP3    H130178   2.304   1.941   7.843  0.7057 -0.5958  0.7480
 2873TIP3    H230179   2.442   1.880   7.834  1.1737  0.4859  0.5003
 2874TIP3   OH230180   6.513   3.483   1.482  0.0911 -0.2847  0.0879
 2874TIP3    H130181   6.521   3.387   1.480 -2.5041 -0.5702 -1.0399
 2874TIP3    H230182   6.568   3.513   1.410 -0.5237 -1.1170 -0.7570
 2875TIP3   OH230183   0.707   0.148   2.201  0.0071  0.5187  0.8617
 2875TIP3    H130184   0.723   0.226   2.147  1.0253 -1.9246 -2.6780
 2875TIP3    H230185   0.624   0.114   2.169  0.7602 -1.1317  0.5595
 2876TIP3   OH230186   5.153   0.369   1.468 -0.4949 -0.2323 -0.1612
 2876TIP3    H130187   5.247   0.380   1.453 -0.4018 -1.9195 -1.0896
 2876TIP3    H230188   5.145   0.283   1.508 -1.6032  0.2424  0.6794
 2877TIP3   OH230189   0.423   3.090   0.064  0.2249  0.4184  0.2552
 2877TIP3    H130190   0.517   3.108   0.057  0.0980  2.1580  2.0096
 2877TIP3    H230191   0.417   2.996   0.078  1.8280  0.4461  1.3595
 2878TIP3   OH230192   2.347   1.814   0.771  0.2196 -0.6419  0.3913
 2878TIP3    H130193   2.422   1.870   0.792  0.3833 -0.4860 -0.5807
 2878TIP3    H230194   2.342   1.753   0.845  0.5322  0.1363  1.0741
 2879TIP3   OH230195   3.990   1.444   1.174 -0.5696 -0.3498  0.3592
 2879TIP3    H130196   4.047   1.397   1.112 -0.0689  0.3630  0.2617
 2879TIP3    H230197   4.025   1.422   1.260 -0.7562 -0.6884  0.3503
 2880TIP3   OH230198   2.516   4.669   6.421 -0.2662 -0.2387  0.4129
 2880TIP3    H130199   2.491   4.586   6.382 -0.4143  0.4673 -1.0754
 2880TIP3    H230200   2.553   4.646   6.506  0.6759 -1.9173 -0.4049
 2881TIP3   OH230201   4.181   5.233   1.404 -0.1464 -0.2352 -0.3691
 2881TIP3    H130202   4.211   5.225   1.495 -1.6239 -3.2866 -0.0192
 2881TIP3    H230203   4.244   5.181   1.354 -0.4373 -0.1576 -0.8199
 2882TIP3   OH230204   6.053   2.784   6.038 -0.2355 -0.0781  0.3941
 2882TIP3    H130205   5.960   2.763   6.036  0.1021 -1.7577 -0.4229
 2882TIP3    H230206   6.060   2.870   5.997 -1.4548  0.2578  0.8629
 2883TIP3   OH230207   3.593   5.845   1.573  0.4676 -0.0094  0.0598
 2883TIP3    H130208   3.514   5.795   1.595  0.8203 -0.3236  0.6350
 2883TIP3    H230209   3.586   5.925   1.626  0.9120 -0.3883  0.6897
 2884TIP3   OH230210   4.017   1.917   8.251 -0.2573  0.1019 -0.3141
 2884TIP3    H130211   4.069   1.975   8.194 -2.0791  0.7816 -1.3645
 2884TIP3    H230212   4.014   1.834   8.204  0.1991 -0.0551 -0.0662
 2885TIP3   OH230213   3.700   6.177   0.006  0.3075  0.1211  0.2610
 2885TIP3    H130214   3.732   6.209  -0.078 -0.6319  0.5794  0.0660
 2885TIP3    H230215   3.630   6.115  -0.017  0.6497 -0.4297  0.6844
 2886TIP3   OH230216   3.306   3.026   8.210 -0.3457 -0.0565  0.0128
 2886TIP3    H130217   3.258   2.998   8.288 -0.2570 -0.2847 -0.0138
 2886TIP3    H230218   3.390   2.982   8.216  0.2322  1.0689  0.5362
 2887TIP3   OH230219   0.855   1.103   7.174 -0.1535  0.1217 -0.2441
 2887TIP3    H130220   0.845   1.155   7.254 -1.8974  0.4060 -0.6208
 2887TIP3    H230221   0.845   1.166   7.103  0.7537 -0.2434 -0.7195
 2888TIP3   OH230222   1.810   1.362   1.493  0.4139  0.1559 -0.1236
 2888TIP3    H130223   1.863   1.327   1.565 -1.4966 -0.6507  0.9738
 2888TIP3    H230224   1.767   1.439   1.531 -1.7555 -1.1089  0.1646
 2889TIP3   OH230225   1.931   5.296   1.854  0.1423 -0.6056  0.2152
 2889TIP3    H130226   1.887   5.378   1.873  1.0082  0.1353 -0.8244
 2889TIP3    H230227   1.861   5.231   1.851 -0.8931  0.5140 -1.2654
 2890TIP3   OH230228   3.187   6.177   8.461 -0.3640  0.2914 -0.2700
 2890TIP3    H130229   3.172   6.232   8.384 -1.3623  1.3316  0.6170
 2890TIP3    H230230   3.259   6.119   8.436 -0.1192  1.1568 -1.6892
 2891TIP3   OH230231   2.544   5.975   7.504  0.1524 -0.0170  0.2270
 2891TIP3    H130232   2.639   5.976   7.506  0.1502  0.9145  0.4101
 2891TIP3    H230233   2.521   6.033   7.431 -0.2726 -0.2261  0.1905
 2892TIP3   OH230234   6.648   4.891   1.445 -0.0258  0.3593 -0.4627
 2892TIP3    H130235   6.696   4.962   1.404  1.0554 -0.2931 -0.3731
 2892TIP3    H230236   6.686   4.811   1.407  0.9723 -0.2690  1.7034
 2893TIP3   OH230237   5.970   0.814   0.021  0.0794 -0.6506  0.0348
 2893TIP3    H130238   5.951   0.754   0.093  0.4710 -0.0197  0.6852
 2893TIP3    H230239   6.039   0.771  -0.029  1.4927 -0.0859  1.4003
 2894TIP3   OH230240   0.100   4.459   7.425  0.6875 -0.1119  0.3511
 2894TIP3    H130241   0.131   4.378   7.384 -0.5603 -0.6624  0.4423
 2894TIP3    H230242   0.017   4.435   7.466  0.5291  1.1070  0.7951
 2895TIP3   OH230243   1.289   2.924   0.516 -0.0588  0.2842  0.5850
 2895TIP3    H130244   1.200   2.918   0.552 -0.6768  0.9183 -0.7894
 2895TIP3    H230245   1.321   2.833   0.516 -0.5840  0.0895  1.3644
 2896TIP3   OH230246   2.104   5.265   1.652  0.1259 -0.0403 -0.0122
 2896TIP3    H130247   2.155   5.344   1.636  0.9896 -0.5234  0.2617
 2896TIP3    H230248   2.041   5.290   1.720 -0.7856  0.8701 -1.1589
 2897TIP3   OH230249   6.664   0.691   1.334 -0.2789  0.5013  0.1309
 2897TIP3    H130250   6.720   0.649   1.268 -0.1598  1.1890 -0.2166
 2897TIP3    H230251   6.696   0.657   1.417 -0.3589 -0.2972 -0.1558
 2898TIP3   OH230252   1.750   1.986   0.990 -0.5542  0.2997 -0.3181
 2898TIP3    H130253   1.785   2.075   0.995 -0.9849  0.5625 -1.5216
 2898TIP3    H230254   1.655   1.997   0.991 -0.6311 -0.0249 -1.6593
 2899TIP3   OH230255   5.772   4.906   1.329  0.2811  0.3408 -0.0856
 2899TIP3    H130256   5.827   4.830   1.347  1.4649  1.1002 -0.4294
 2899TIP3    H230257   5.746   4.939   1.415  0.7854  0.2789  0.0911
 2900TIP3   OH230258   3.272   4.585   7.279 -0.2306  0.2986 -0.8672
 2900TIP3    H130259   3.340   4.632   7.327 -1.3179 -0.9405  2.2062
 2900TIP3    H230260   3.200   4.648   7.270 -1.0753 -0.1420  1.8136
 2901TIP3   OH230261   1.755   2.825   8.102 -0.1599 -0.0075 -0.2708
 2901TIP3    H130262   1.711   2.904   8.071  0.5631  0.3831 -0.3273
 2901TIP3    H230263   1.685   2.762   8.115 -0.6277  0.2679 -1.3628
 2902TIP3   OH230264   5.428   2.500   7.797  0.1522  0.1145 -0.6072
 2902TIP3    H130265   5.514   2.475   7.831  0.0508  0.3512 -0.1661
 2902TIP3    H230266   5.398   2.423   7.750 -0.0659 -0.5352  0.5655
 2903TIP3   OH230267   6.726   2.525   0.500  0.2886  0.3930  0.6756
 2903TIP3    H130268   6.720   2.585   0.426  0.1942  1.6853  1.6962
 2903TIP3    H230269   6.654   2.463   0.486  1.0608 -0.1842 -0.9619
 2904TIP3   OH230270   5.753   4.501   1.122 -0.0106 -0.0268 -0.0913
 2904TIP3    H130271   5.798   4.435   1.069  1.7371  0.2540  0.9787
 2904TIP3    H230272   5.814   4.521   1.193 -1.2972  1.3642  0.6831
 2905TIP3   OH230273   5.982   4.009   1.383 -0.7524 -0.1144  0.5102
 2905TIP3    H130274   6.072   3.987   1.358 -0.3225  1.3841  0.6814
 2905TIP3    H230275   5.974   3.978   1.473 -0.8192 -1.3445  0.1024
 2906TIP3   OH230276   6.349   4.578   0.138 -0.3045  0.1521 -0.6647
 2906TIP3    H130277   6.361   4.635   0.063 -0.3196  1.1432  0.0642
 2906TIP3    H230278   6.420   4.601   0.198  0.0701 -1.0449 -0.6128
 2907TIP3   OH230279   4.777   2.191   6.644  0.0781  0.1906  0.2934
 2907TIP3    H130280   4.721   2.227   6.713 -0.6388 -0.2069 -0.0711
 2907TIP3    H230281   4.730   2.114   6.613  2.0600 -1.7319  1.7814
 2908TIP3   OH230282   5.855   1.623   1.625  0.1551  0.5488  0.2646
 2908TIP3    H130283   5.939   1.608   1.582  1.0278  0.5234  1.8872
 2908TIP3    H230284   5.814   1.694   1.575  1.3988  0.9657 -0.2021
 2909TIP3   OH230285   4.673   0.528   7.674 -0.5947  0.5299 -0.1237
 2909TIP3    H130286   4.633   0.535   7.587  1.2358  2.4354 -0.8838
 2909TIP3    H230287   4.735   0.601   7.679  0.3172 -0.2925  2.2924
 2910TIP3   OH230288   4.523   0.500   7.447  0.2167 -0.1578 -0.2879
 2910TIP3    H130289   4.534   0.541   7.361  0.9727 -0.6955 -0.4632
 2910TIP3    H230290   4.454   0.550   7.489 -1.5545 -1.0993 -1.9402
 2911TIP3   OH230291   0.518   1.730   1.294 -0.6772  0.7063  0.2976
 2911TIP3    H130292   0.467   1.668   1.346 -1.4190 -1.6722 -2.9749
 2911TIP3    H230293   0.582   1.766   1.357 -0.7796 -2.7023  2.6557
 2912TIP3   OH230294   0.298   4.971   7.257 -0.3985  0.0865  0.8453
 2912TIP3    H130295   0.227   4.987   7.319 -0.8892  1.2719  0.0259
 2912TIP3    H230296   0.307   4.876   7.254  0.1126  0.0014  3.2221
 2913TIP3   OH230297   5.547   2.015   0.544  0.5047  0.0970  0.3124
 2913TIP3    H130298   5.547   2.061   0.628  1.5886  0.7199 -0.0073
 2913TIP3    H230299   5.500   1.934   0.561 -1.5294  1.3133  0.8824
 2914TIP3   OH230300   4.085   5.863   0.611  0.1035  0.7717  0.1122
 2914TIP3    H130301   4.049   5.866   0.523 -0.2140 -2.0358  0.0322
 2914TIP3    H230302   4.177   5.841   0.598  0.7169  2.9690  0.4563
 2915TIP3   OH230303   6.848   3.424   0.757  0.2283 -0.5731  0.1709
 2915TIP3    H130304   6.792   3.479   0.702  0.5765  0.4440  0.8174
 2915TIP3    H230305   6.795   3.345   0.773 -0.5189 -0.1710 -0.2616
 2916TIP3   OH230306   0.052   6.430   0.782  0.1323 -0.8811  0.5194
 2916TIP3    H130307   0.062   6.414   0.689  1.4903 -1.1985  0.6895
 2916TIP3    H230308   0.130   6.389   0.822 -0.1546 -0.3090  1.7266
 2917TIP3   OH230309   0.242   2.061   1.356  0.3536 -0.0862 -0.1582
 2917TIP3    H130310   0.295   1.989   1.322  1.3545 -0.4933  2.0908
 2917TIP3    H230311   0.152   2.029   1.350  0.8776 -2.6446  2.8933
 2918TIP3   OH230312   4.994   1.971   6.806  0.6651 -0.5340  0.3413
 2918TIP3    H130313   5.047   1.974   6.726 -1.1938 -0.1301 -0.9243
 2918TIP3    H230314   4.966   2.061   6.820 -1.9177 -1.1235 -0.6000
 2919TIP3   OH230315   1.360   2.178   1.460  0.0375 -0.3519  0.1484
 2919TIP3    H130316   1.327   2.093   1.429  0.7548 -0.6600  0.2174
 2919TIP3    H230317   1.346   2.237   1.386  1.7868 -1.0921 -0.8176
 2920TIP3   OH230318   4.693   1.499   0.681 -0.3203 -0.9863 -0.4048
 2920TIP3    H130319   4.680   1.510   0.775 -1.1352 -2.9603 -0.2289
 2920TIP3    H230320   4.783   1.525   0.666 -0.8242  1.5965  0.4825
 2921TIP3   OH230321   3.228   5.453   6.535 -0.3752  1.1301 -0.0807
 2921TIP3    H130322   3.249   5.542   6.509  1.6140  0.3253 -1.4842
 2921TIP3    H230323   3.309   5.418   6.572 -0.3676 -0.7787 -1.6971
 2922TIP3   OH230324   1.060   2.689   0.026  0.0981  0.6025 -0.0903
 2922TIP3    H130325   1.007   2.638   0.087  1.5589 -1.8672 -0.7571
 2922TIP3    H230326   1.138   2.714   0.076  0.1937  0.6520 -0.2618
 2923TIP3   OH230327   6.241   5.552   7.586  0.0839  0.5585  0.3327
 2923TIP3    H130328   6.326   5.522   7.554 -0.3915  0.5151 -0.9324
 2923TIP3    H230329   6.194   5.471   7.607  0.2103  0.5683  0.6578
 2924TIP3   OH230330   4.206   4.628   0.405 -0.0588  0.5973  0.1557
 2924TIP3    H130331   4.218   4.550   0.459  0.1045  0.4649 -0.0720
 2924TIP3    H230332   4.255   4.696   0.451  0.9273  0.2478 -0.3512
 2925TIP3   OH230333   4.687   1.152   2.062  0.1654 -0.2425 -0.0013
 2925TIP3    H130334   4.750   1.221   2.039  0.0922 -0.7229 -1.7721
 2925TIP3    H230335   4.602   1.189   2.039 -0.1680  0.0804  1.6094
 2926TIP3   OH230336   3.248   0.268   8.128  0.4382  0.0924  0.6083
 2926TIP3    H130337   3.291   0.303   8.206 -1.4338  2.6641  0.6163
 2926TIP3    H230338   3.156   0.293   8.138 -0.6972 -3.1823 -0.4747
 2927TIP3   OH230339   5.506   0.419   7.916  0.2357  1.0112  0.0352
 2927TIP3    H130340   5.532   0.331   7.888 -2.2940 -0.3654  1.6059
 2927TIP3    H230341   5.584   0.473   7.900  1.8656 -1.4593 -1.0696
 2928TIP3   OH230342   1.913   0.367   7.797  0.2085 -0.1975 -0.8749
 2928TIP3    H130343   1.883   0.458   7.796 -1.9361 -0.8039  1.0820
 2928TIP3    H230344   1.859   0.323   7.732  0.6548 -0.2600 -1.2096
 2929TIP3   OH230345   4.732   6.631   0.278 -0.2058 -0.7346  0.2909
 2929TIP3    H130346   4.718   6.562   0.213 -1.3246  0.1399 -0.4398
 2929TIP3    H230347   4.761   6.707   0.226  0.0811 -0.3720  0.9650
 2930TIP3   OH230348   6.239   4.236   1.501  0.2989 -0.1546 -0.2631
 2930TIP3    H130349   6.314   4.202   1.550  1.2187  0.7428 -0.9685
 2930TIP3    H230350   6.279   4.276   1.423 -0.6959  2.1983  0.3381
 2931TIP3   OH230351   0.852   5.028   7.554 -0.4868  0.3087  0.2703
 2931TIP3    H130352   0.890   4.948   7.517  0.2836  0.1346  1.3845
 2931TIP3    H230353   0.846   5.088   7.479 -1.7387 -1.0052 -0.7301
 2932TIP3   OH230354   2.333   3.695   1.478 -0.6974 -0.2196  0.6429
 2932TIP3    H130355   2.327   3.652   1.564  1.0902 -0.3106  0.7602
 2932TIP3    H230356   2.360   3.784   1.498 -0.3608 -0.2189  0.1874
 2933TIP3   OH230357   1.900   2.802   0.018  0.1620  0.3489  0.1628
 2933TIP3    H130358   1.809   2.812  -0.009 -0.1586 -1.2285  0.5242
 2933TIP3    H230359   1.930   2.891   0.038 -1.4512  0.8393  0.5348
 2934TIP3   OH230360   3.027   2.746   6.777 -0.1910 -0.1895 -0.3439
 2934TIP3    H130361   3.114   2.740   6.736  0.5438 -0.9953  1.2247
 2934TIP3    H230362   3.039   2.707   6.864 -1.9949  0.2328  0.1385
 2935TIP3   OH230363   6.079   1.277   1.129  0.4274 -0.2664 -0.3836
 2935TIP3    H130364   5.994   1.287   1.085 -0.7173 -2.7293  1.0641
 2935TIP3    H230365   6.102   1.365   1.158 -1.8739  0.4075 -0.4387
 2936TIP3   OH230366   1.953   5.915   6.534  0.1366  0.4596 -0.6590
 2936TIP3    H130367   2.028   5.940   6.481 -0.5878  1.8273 -1.1012
 2936TIP3    H230368   1.888   5.883   6.471 -0.0587  0.3422 -0.4008
 2937TIP3   OH230369   6.166   5.649   7.350 -0.2512 -0.3639  0.2598
 2937TIP3    H130370   6.207   5.730   7.321  0.3552 -0.9697 -0.6041
 2937TIP3    H230371   6.194   5.639   7.441  0.6243 -0.1960  0.0143
 2938TIP3   OH230372   6.171   2.352   6.262 -0.6299  0.5018 -0.5150
 2938TIP3    H130373   6.178   2.440   6.226  1.1069  1.2930  1.5519
 2938TIP3    H230374   6.084   2.349   6.303 -0.5980  1.3427 -0.3758
 2939TIP3   OH230375   3.352   1.083   0.878 -0.8245 -0.4220 -1.0045
 2939TIP3    H130376   3.379   1.172   0.901 -1.6865 -0.2899 -0.4678
 2939TIP3    H230377   3.430   1.030   0.892  0.1019  0.4256 -2.5814
 2940TIP3   OH230378   4.149   4.611   1.028  0.2967  0.5580  0.0384
 2940TIP3    H130379   4.240   4.581   1.029  0.4226  0.9475  0.8768
 2940TIP3    H230380   4.122   4.609   1.120 -1.0257 -0.9573 -0.3506
 2941TIP3   OH230381   5.531   6.728   2.250  0.3867  0.3796  0.5618
 2941TIP3    H130382   5.441   6.716   2.282  0.2020  0.6920  0.1702
 2941TIP3    H230383   5.549   6.650   2.197  0.8509 -0.3510  1.7604
 2942TIP3   OH230384   1.284   4.213   0.022  0.1884  0.2543 -0.2431
 2942TIP3    H130385   1.208   4.213   0.081 -0.3582  0.1687 -0.9331
 2942TIP3    H230386   1.351   4.163   0.069 -0.0056  0.7617  0.5911
 2943TIP3   OH230387   1.136   2.230   6.853  0.3800 -0.1730 -0.0404
 2943TIP3    H130388   1.106   2.261   6.768 -1.0212  0.5968  0.7088
 2943TIP3    H230389   1.070   2.167   6.881  3.3934 -4.6709 -1.7822
 2944TIP3   OH230390   0.100   1.988   0.790  0.5537  0.4979  1.0021
 2944TIP3    H130391   0.101   2.078   0.822  2.6339  0.2422  1.8282
 2944TIP3    H230392   0.178   1.981   0.733 -0.1178 -0.5148  0.1574
 2945TIP3   OH230393   3.513   3.987   7.510  0.1835  0.2536  0.0970
 2945TIP3    H130394   3.522   4.079   7.487  1.7472 -0.0078 -0.4691
 2945TIP3    H230395   3.539   3.982   7.602  1.3082  0.2288 -0.2030
 2946TIP3   OH230396   6.837   1.347   1.360  0.5222 -0.6475 -0.6686
 2946TIP3    H130397   6.899   1.275   1.372  2.6501  0.9269 -1.6615
 2946TIP3    H230398   6.855   1.380   1.272 -0.6763  0.8528 -0.4022
 2947TIP3   OH230399   5.501   4.987   0.628  0.4313 -0.0161  0.0224
 2947TIP3    H130400   5.558   4.953   0.558  1.2975  1.0884  0.1613
 2947TIP3    H230401   5.543   4.958   0.709  0.6737  0.5701  0.1172
 2948TIP3   OH230402   2.060   3.924   1.816 -0.1138  0.2464 -0.3704
 2948TIP3    H130403   2.130   3.957   1.759 -0.3061  0.1575 -0.6597
 2948TIP3    H230404   2.014   4.003   1.846 -1.5637  0.2032 -2.3187
 2949TIP3   OH230405   0.832   4.824   1.012 -0.4946  0.2223  0.4450
 2949TIP3    H130406   0.796   4.815   1.101  0.3171  0.3755  0.7999
 2949TIP3    H230407   0.822   4.736   0.974 -0.0691 -0.0692  0.9905
 2950TIP3   OH230408   3.843   3.750   1.028 -0.0970 -0.2460 -0.1607
 2950TIP3    H130409   3.925   3.709   1.003  0.4334  0.6193  0.1048
 2950TIP3    H230410   3.839   3.830   0.976 -0.9564 -0.4571 -0.4427
 2951TIP3   OH230411   5.839   0.077   8.288 -0.4449 -0.4572 -0.2146
 2951TIP3    H130412   5.850  -0.005   8.239 -1.1813 -0.8296  0.2254
 2951TIP3    H230413   5.801   0.049   8.372 -0.0077  0.2583  0.2291
 2952TIP3   OH230414   2.850   5.705   7.956 -0.4901 -0.1642 -0.5600
 2952TIP3    H130415   2.919   5.771   7.944 -0.6343  0.5897  2.1122
 2952TIP3    H230416   2.847   5.659   7.873  1.9623  0.9934 -1.3999
 2953TIP3   OH230417   3.366   0.439   7.398  0.3090  0.1942 -0.0144
 2953TIP3    H130418   3.272   0.455   7.407  0.5325  1.9433 -0.3499
 2953TIP3    H230419   3.404   0.471   7.479  0.5115 -1.9358  0.7885
 2954TIP3   OH230420   4.679   2.400   8.543  0.1462  0.1867  0.0106
 2954TIP3    H130421   4.636   2.317   8.521  0.0884  0.7994 -2.4828
 2954TIP3    H230422   4.609   2.465   8.537  0.5275  0.6310  0.3388
 2955TIP3   OH230423   1.121   1.736   8.197 -0.0575  0.3428  0.0212
 2955TIP3    H130424   1.067   1.767   8.125  0.5355  0.3686 -0.4204
 2955TIP3    H230425   1.111   1.803   8.265 -2.3832 -0.7610  0.8728
 2956TIP3   OH230426   4.733   3.169   7.671  0.0586 -0.4691  0.2258
 2956TIP3    H130427   4.798   3.158   7.740  0.3121 -0.5144 -0.0162
 2956TIP3    H230428   4.772   3.234   7.612  0.3309 -1.2084 -0.4412
 2957TIP3   OH230429   2.851   6.594   8.134 -0.2731  0.0544  0.2240
 2957TIP3    H130430   2.822   6.675   8.176 -0.9481 -0.2429  0.3427
 2957TIP3    H230431   2.795   6.586   8.057  0.9021  0.5567 -0.7177
 2958TIP3   OH230432   5.183   5.276   8.119 -0.6333 -0.3363 -0.1726
 2958TIP3    H130433   5.123   5.258   8.047 -1.3057  0.5337  0.1599
 2958TIP3    H230434   5.142   5.236   8.196 -0.9729  0.5738  0.1244
 2959TIP3   OH230435   1.746   4.700   6.638  0.0101 -0.4405  0.3050
 2959TIP3    H130436   1.795   4.759   6.694  2.5188 -3.3342  1.4887
 2959TIP3    H230437   1.745   4.742   6.552 -0.3482  2.2273  1.5316
 2960TIP3   OH230438   6.042   6.210   7.965  0.7817 -0.0510  0.7188
 2960TIP3    H130439   5.949   6.229   7.954  0.5034 -1.2032  0.9807
 2960TIP3    H230440   6.065   6.156   7.889  1.3109  0.4555  0.5101
 2961TIP3   OH230441   4.560   0.795   7.437  0.3973  0.2366  0.8453
 2961TIP3    H130442   4.630   0.854   7.466  1.1305 -0.4178  0.4485
 2961TIP3    H230443   4.503   0.787   7.514  0.3566  1.3342  0.9516
 2962TIP3   OH230444   0.092   5.401   7.351  0.2499  0.1485  0.3727
 2962TIP3    H130445   0.164   5.378   7.293  1.1202 -1.3905  1.9550
 2962TIP3    H230446   0.020   5.344   7.324  0.0764  0.6561 -0.2678
 2963TIP3   OH230447   6.203   2.625   6.864  0.3071  0.2166  0.4516
 2963TIP3    H130448   6.283   2.667   6.834  0.7206 -2.1791 -2.3124
 2963TIP3    H230449   6.227   2.533   6.879 -1.5104 -0.1493  1.5328
 2964TIP3   OH230450   4.883   4.846   0.377  0.0019 -0.5239  0.5063
 2964TIP3    H130451   4.905   4.753   0.381 -2.9181 -1.4267 -1.0312
 2964TIP3    H230452   4.857   4.868   0.466  1.5214 -0.9018  1.0768
 2965TIP3   OH230453   0.923   0.419   0.639  0.2005  0.3025 -0.2199
 2965TIP3    H130454   0.870   0.494   0.610  0.7141  1.2121  1.1021
 2965TIP3    H230455   1.011   0.439   0.607  0.2059 -0.1077 -0.4749
 2966TIP3   OH230456   4.271   4.067   1.461 -0.3469  0.6146  0.3749
 2966TIP3    H130457   4.209   4.083   1.389 -1.7179  0.5348  1.5006
 2966TIP3    H230458   4.354   4.099   1.428 -1.2159  1.7861 -0.7743
 2967TIP3   OH230459   4.381   5.735   8.012  0.5215  0.2812  0.1495
 2967TIP3    H130460   4.424   5.736   8.097 -0.4329  2.2821  0.6555
 2967TIP3    H230461   4.288   5.727   8.033  0.3014  0.4668 -0.7200
 2968TIP3   OH230462   2.322   5.309   8.007 -0.5404  0.1634  0.3695
 2968TIP3    H130463   2.413   5.319   8.034 -0.0581  2.2867 -1.6324
 2968TIP3    H230464   2.322   5.235   7.947  0.2886  1.2091 -0.9811
 2969TIP3   OH230465   0.923   0.784   1.515 -0.1175 -0.6804  0.1454
 2969TIP3    H130466   1.009   0.788   1.556  0.5304  0.3683 -1.2416
 2969TIP3    H230467   0.939   0.749   1.428 -1.0059  0.0898 -0.3494
 2970TIP3   OH230468   1.201   1.549   8.388 -0.1179  0.5529 -0.5730
 2970TIP3    H130469   1.150   1.591   8.319 -1.2171  0.8925  0.4326
 2970TIP3    H230470   1.253   1.619   8.426 -0.0372  0.4955 -0.5748
 2971TIP3   OH230471   0.216   0.615   7.288  0.3370  0.0725 -0.1264
 2971TIP3    H130472   0.287   0.561   7.321  0.5306  0.7164  0.5325
 2971TIP3    H230473   0.142   0.555   7.278  0.7318 -0.4327 -0.0196
 2972TIP3   OH230474   0.810   3.500   7.272  0.2070  0.6795  0.3674
 2972TIP3    H130475   0.903   3.502   7.295  0.1869  1.0930  0.4118
 2972TIP3    H230476   0.778   3.419   7.310  0.2233  1.2324  1.5929
 2973TIP3   OH230477   6.372   4.979   1.155 -0.2201  0.4552  0.0543
 2973TIP3    H130478   6.318   4.901   1.149  0.5100 -0.2340  1.7009
 2973TIP3    H230479   6.454   4.955   1.111 -0.4271  0.7036 -0.4655
 2974TIP3   OH230480   6.296   2.133   7.869  0.5142 -0.0661  0.0670
 2974TIP3    H130481   6.326   2.129   7.960 -1.5199 -1.3328  0.7354
 2974TIP3    H230482   6.286   2.227   7.852  1.1467  0.2007  1.0597
 2975TIP3   OH230483   5.283   6.723   1.891 -0.2523 -0.2196  0.5112
 2975TIP3    H130484   5.196   6.753   1.917 -1.3659 -1.6845 -1.2683
 2975TIP3    H230485   5.290   6.634   1.927  0.2721 -0.3267  0.1570
 2976TIP3   OH230486   3.917   0.130   7.682 -0.1511  0.3711  0.3607
 2976TIP3    H130487   3.923   0.189   7.607 -0.8403 -0.1478 -0.1207
 2976TIP3    H230488   3.931   0.043   7.645  1.6922  0.2793  1.1954
 2977TIP3   OH230489   3.123   5.869   8.217  0.3095  0.5903 -0.4349
 2977TIP3    H130490   3.071   5.826   8.285  0.5924 -2.1903 -1.8239
 2977TIP3    H230491   3.112   5.813   8.140  0.8687  3.0147 -2.3914
 2978TIP3   OH230492   3.631   6.594   1.177 -0.3385 -0.1053 -0.0504
 2978TIP3    H130493   3.650   6.667   1.118  0.4810 -1.1155 -1.0906
 2978TIP3    H230494   3.590   6.529   1.122  1.6921 -1.6380  0.1130
 2979TIP3   OH230495   1.535   6.117   1.548  0.1421 -0.2847  0.0808
 2979TIP3    H130496   1.549   6.120   1.454 -0.1862  2.4567  0.0127
 2979TIP3    H230497   1.542   6.209   1.576 -2.4708 -0.5929  2.2651
 2980TIP3   OH230498   0.991   2.743   0.383 -0.6624 -0.3226  0.4290
 2980TIP3    H130499   1.083   2.771   0.385 -0.1666 -1.8733  0.2775
 2980TIP3    H230500   0.943   2.822   0.358  0.7873  0.1475 -1.0764
 2981TIP3   OH230501   1.383   3.152   0.224  0.0522  0.2066 -0.1971
 2981TIP3    H130502   1.409   3.239   0.193  2.2818 -0.3152  0.0325
 2981TIP3    H230503   1.398   3.095   0.149 -0.7485 -0.0927 -0.1326
 2982TIP3   OH230504   2.041   4.005   8.637 -0.2560 -0.3733  0.3229
 2982TIP3    H130505   2.038   4.003   8.541 -0.5366  4.1638  0.0169
 2982TIP3    H230506   2.131   3.979   8.658 -0.1154 -1.2370 -1.1716
 2983TIP3   OH230507   1.101   2.917   7.201 -0.2323 -0.2548  0.5871
 2983TIP3    H130508   1.163   2.985   7.226 -0.1729 -0.3898  0.8109
 2983TIP3    H230509   1.152   2.856   7.147 -0.8702  1.1860 -1.7891
 2984TIP3   OH230510   4.306   3.538   6.964  0.4315  0.0340  0.1224
 2984TIP3    H130511   4.386   3.577   6.930  0.4551 -0.8090 -0.8153
 2984TIP3    H230512   4.310   3.446   6.938 -1.5201  0.2677 -1.2751
 2985TIP3   OH230513   3.037   2.614   2.006 -0.1473  0.1838 -0.6016
 2985TIP3    H130514   2.991   2.543   1.961  3.6308 -2.2184 -1.1389
 2985TIP3    H230515   3.077   2.665   1.934 -0.3977  1.0743 -0.1232
 2986TIP3   OH230516   0.901   1.039   7.591  0.5711  0.0870 -0.5631
 2986TIP3    H130517   0.838   1.073   7.654  1.2816 -0.0806  0.2552
 2986TIP3    H230518   0.917   0.949   7.619  0.7083 -0.0718 -1.1344
 2987TIP3   OH230519   2.713   4.669   0.581  0.0471 -0.0548  0.3338
 2987TIP3    H130520   2.693   4.715   0.663  2.0582  1.2898  0.1308
 2987TIP3    H230521   2.756   4.735   0.526 -3.3538 -0.1434 -2.8515
 2988TIP3   OH230522   0.505   0.376   2.012 -0.3666 -0.2435 -0.6255
 2988TIP3    H130523   0.444   0.414   2.075 -1.6537 -1.4504 -1.0695
 2988TIP3    H230524   0.528   0.291   2.049 -0.5451 -0.6426 -1.3902
 2989TIP3   OH230525   0.751   0.498   7.686  0.0802  0.0547  0.2767
 2989TIP3    H130526   0.748   0.450   7.603  0.9411 -0.3708  0.4869
 2989TIP3    H230527   0.660   0.526   7.700  0.2995  2.3636 -2.1062
 2990TIP3   OH230528   0.719   6.435   1.110 -0.3996 -0.0983  0.4855
 2990TIP3    H130529   0.718   6.340   1.099  0.1106 -0.0863  0.3396
 2990TIP3    H230530   0.804   6.463   1.076  0.3412  0.1733  2.3936
 2991TIP3   OH230531   6.507   0.264   8.633  0.2675 -0.5208 -0.6397
 2991TIP3    H130532   6.583   0.216   8.665 -1.0144 -2.5531 -0.4951
 2991TIP3    H230533   6.461   0.202   8.576 -2.4040 -0.1440  0.9248
 2992TIP3   OH230534   0.383   1.892   7.304 -0.6936 -0.2315  0.2756
 2992TIP3    H130535   0.461   1.948   7.308 -1.1532  0.3594  1.5961
 2992TIP3    H230536   0.417   1.803   7.307 -0.0618  0.0227  1.0596
 2993TIP3   OH230537   3.991   6.358   7.044 -0.4330 -0.1026  0.2683
 2993TIP3    H130538   4.028   6.441   7.073  3.2856 -1.0239 -1.1902
 2993TIP3    H230539   3.933   6.382   6.971 -1.0095  1.3065  1.1486
 2994TIP3   OH230540   5.307   1.074   0.849 -0.7035  0.2059  0.7591
 2994TIP3    H130541   5.373   1.121   0.900 -0.1810 -0.4468  0.7024
 2994TIP3    H230542   5.255   1.143   0.808  0.7087  0.7632 -0.1743
 2995TIP3   OH230543   6.009   2.431   1.621 -0.1501  0.2597 -0.0287
 2995TIP3    H130544   6.027   2.445   1.714 -1.8914  0.8411  0.2697
 2995TIP3    H230545   6.095   2.426   1.580  0.6621 -0.3658  1.6557
 2996TIP3   OH230546   1.117   3.297   8.251  0.4724  0.7890 -0.0624
 2996TIP3    H130547   1.082   3.359   8.316 -0.6101  0.4009 -0.2604
 2996TIP3    H230548   1.085   3.212   8.279  1.6179  0.3529 -0.0290
 2997TIP3   OH230549   6.333   1.757   1.916 -0.5867  0.2138 -0.0563
 2997TIP3    H130550   6.319   1.838   1.867 -0.9098  0.7336  0.8727
 2997TIP3    H230551   6.415   1.722   1.881  0.7967  2.1253  1.0729
 2998TIP3   OH230552   6.037   0.828   0.725  0.2571  0.0074 -0.3642
 2998TIP3    H130553   5.954   0.839   0.679 -0.1216  1.0778  0.5461
 2998TIP3    H230554   6.049   0.733   0.731 -1.4366 -0.1941  0.4181
 2999TIP3   OH230555   4.856   3.535   6.680 -0.0191  0.2454  0.5240
 2999TIP3    H130556   4.911   3.579   6.615 -1.5686 -0.7156 -1.5481
 2999TIP3    H230557   4.779   3.591   6.688  1.3164  1.9052  3.8570
 3000TIP3   OH230558   0.832   3.897   8.131  0.9339  0.4616 -0.2996
 3000TIP3    H130559   0.747   3.862   8.105  0.9916  0.8208 -1.0063
 3000TIP3    H230560   0.892   3.866   8.062  1.0913  1.4621 -0.6292
 3001TIP3   OH230561   1.441   0.245   7.435 -0.0724 -0.4218  0.6863
 3001TIP3    H130562   1.374   0.295   7.482  0.5024 -0.2438  1.3443
 3001TIP3    H230563   1.520   0.299   7.443 -0.0438 -0.1757 -0.8601
 3002TIP3   OH230564   2.221   4.225   0.666  0.5046 -0.0372  0.2795
 3002TIP3    H130565   2.149   4.221   0.729  1.8344 -0.0139  1.8710
 3002TIP3    H230566   2.201   4.302   0.612 -0.9969 -0.4339  0.2239
 3003TIP3   OH230567   2.172   5.119   7.273  0.2877 -0.1462 -0.2229
 3003TIP3    H130568   2.146   5.195   7.326 -0.8039 -0.8870  0.3491
 3003TIP3    H230569   2.095   5.062   7.274  1.0333 -1.1924 -0.7656
 3004TIP3   OH230570   1.699   0.331   1.524 -0.3969 -0.1798  0.1552
 3004TIP3    H130571   1.726   0.317   1.615  0.9155 -2.5784 -0.4952
 3004TIP3    H230572   1.624   0.273   1.511 -0.0486 -0.5047 -0.4940
 3005TIP3   OH230573   2.450   1.664   8.223 -0.6459  0.0090  0.1309
 3005TIP3    H130574   2.462   1.753   8.189 -0.1622  0.6107  1.7573
 3005TIP3    H230575   2.374   1.671   8.281  0.2405 -0.2831  1.3577
 3006TIP3   OH230576   5.011   2.114   7.183 -0.7592  0.0703  0.2348
 3006TIP3    H130577   5.022   2.171   7.106 -1.5441  0.3539  0.3178
 3006TIP3    H230578   5.041   2.167   7.257  2.1699 -0.9839 -0.0708
 3007TIP3   OH230579   2.534   6.182   0.671  0.0945  0.0863 -0.1369
 3007TIP3    H130580   2.467   6.139   0.725  1.6313 -2.0767  0.1948
 3007TIP3    H230581   2.503   6.272   0.661 -3.1022 -0.9236 -0.4656
 3008TIP3   OH230582   2.008   5.401   0.442  0.1319  0.2636  0.1591
 3008TIP3    H130583   1.931   5.454   0.425 -0.2399 -0.2687  0.1766
 3008TIP3    H230584   2.050   5.390   0.357 -0.2133 -0.0672  0.0326
 3009TIP3   OH230585   1.672   3.746   7.809 -0.6928  0.4636 -0.1973
 3009TIP3    H130586   1.752   3.799   7.809  0.3796 -1.0689  1.1699
 3009TIP3    H230587   1.602   3.808   7.832  0.4001  1.4601  0.5526
 3010TIP3   OH230588   1.236   0.525   7.434 -0.0506  0.2381 -0.1561
 3010TIP3    H130589   1.168   0.544   7.498 -1.5027  0.0051 -1.5770
 3010TIP3    H230590   1.296   0.601   7.440  0.5657 -0.3375  2.2752
 3011TIP3   OH230591   5.997   1.876   7.548 -0.3576 -0.3763 -0.0618
 3011TIP3    H130592   6.000   1.934   7.624 -0.5627  0.0500 -0.3763
 3011TIP3    H230593   5.936   1.918   7.488 -1.1369 -1.3242  0.0396
 3012TIP3   OH230594   3.425   1.743   0.515  0.3013 -0.0111 -0.3086
 3012TIP3    H130595   3.443   1.694   0.434  0.0573 -1.3120  0.3967
 3012TIP3    H230596   3.329   1.745   0.521  0.3204 -1.2124  0.6858
 3013TIP3   OH230597   1.672   6.215   7.463  0.9464 -0.6161  0.0634
 3013TIP3    H130598   1.730   6.237   7.391  0.4363  1.9788  0.3649
 3013TIP3    H230599   1.730   6.185   7.533  1.7835  0.2758 -0.2308
 3014TIP3   OH230600   6.451   1.568   7.552  0.2234 -0.1244 -0.1413
 3014TIP3    H130601   6.535   1.599   7.586  0.5383 -0.1099 -0.9021
 3014TIP3    H230602   6.416   1.644   7.504 -1.4225  0.7199  2.2300
 3015TIP3   OH230603   2.652   0.869   7.588  0.4965 -0.0840 -0.2686
 3015TIP3    H130604   2.645   0.782   7.549  2.2925 -0.5919  0.4010
 3015TIP3    H230605   2.576   0.917   7.556 -0.5115 -1.8800 -0.6934
 3016TIP3   OH230606   3.331   0.031   8.230  0.3176 -0.0245  0.3012
 3016TIP3    H130607   3.279   0.029   8.310 -1.3073 -0.2680 -0.7206
 3016TIP3    H230608   3.291   0.100   8.177 -0.6159 -1.9243 -1.5610
 3017TIP3   OH230609   1.047   2.718   8.464 -0.3653  0.1563 -0.0527
 3017TIP3    H130610   1.075   2.641   8.415 -2.1058  0.3078 -1.3723
 3017TIP3    H230611   1.027   2.685   8.552 -0.0020 -0.6641 -0.2693
 3018TIP3   OH230612   1.899   3.885   7.907 -0.2482 -0.0863 -0.5999
 3018TIP3    H130613   1.890   3.892   8.002  0.1906 -1.2030 -0.4552
 3018TIP3    H230614   1.993   3.875   7.892 -0.2715  0.4657 -1.1937
 3019TIP3   OH230615   3.494   1.421   8.007  0.4620  0.1395 -0.2408
 3019TIP3    H130616   3.511   1.333   7.975 -0.3703 -0.3531  0.6127
 3019TIP3    H230617   3.494   1.412   8.103 -2.3642  0.4810 -0.1224
 3020TIP3   OH230618   1.493   5.581   0.462 -0.2298 -0.4035  0.2476
 3020TIP3    H130619   1.425   5.563   0.398  0.2555 -0.3084 -0.3060
 3020TIP3    H230620   1.505   5.676   0.460  0.6642 -0.5117 -0.4595
 3021TIP3   OH230621   5.950   2.506   7.013  0.2700  0.3342 -0.1671
 3021TIP3    H130622   5.974   2.581   6.958  3.4426 -0.5798 -0.2104
 3021TIP3    H230623   5.971   2.534   7.102  1.8114 -0.5608 -0.2174
 3022TIP3   OH230624   3.967   4.214   7.975  0.1328  0.1975  0.4821
 3022TIP3    H130625   3.955   4.131   7.929  0.4324 -0.2802  1.2387
 3022TIP3    H230626   4.050   4.203   8.021  0.5858  1.2366 -0.0615
 3023TIP3   OH230627   3.547   6.573   7.344 -0.2878 -0.0487  0.1772
 3023TIP3    H130628   3.546   6.642   7.278 -2.4488  1.3977  1.5741
 3023TIP3    H230629   3.637   6.541   7.345  0.4359  1.7770 -1.5230
 3024TIP3   OH230630   3.127   2.779   1.798  0.7806 -0.3280  0.5125
 3024TIP3    H130631   3.110   2.715   1.729 -1.5133 -0.8797  1.4986
 3024TIP3    H230632   3.222   2.774   1.813  0.9181 -2.1535 -0.6983
 3025TIP3   OH230633   3.483   0.961   6.676  0.5073  0.0552  0.6949
 3025TIP3    H130634   3.486   0.993   6.766  1.5198 -1.8964  1.4056
 3025TIP3    H230635   3.575   0.948   6.651  0.2383  0.4575 -0.5793
 3026TIP3   OH230636   4.025   2.207   0.877  0.6678 -0.9310  0.3344
 3026TIP3    H130637   4.007   2.113   0.875 -1.2708 -0.5959  0.3932
 3026TIP3    H230638   3.966   2.241   0.944  1.7562  0.2590  0.7065
 3027TIP3   OH230639   3.872   6.180   8.477  0.2750 -0.4461 -0.3052
 3027TIP3    H130640   3.866   6.086   8.490  0.2162 -0.8178 -2.6456
 3027TIP3    H230641   3.965   6.199   8.473  0.2813 -0.4888 -0.3587
 3028TIP3   OH230642   3.224   0.243   1.196 -0.7053 -0.3712 -0.7455
 3028TIP3    H130643   3.177   0.326   1.189  0.1761  0.0433 -2.0836
 3028TIP3    H230644   3.175   0.193   1.261 -0.9397  1.3997  0.5072
 3029TIP3   OH230645   3.126   2.538   1.493  0.3592 -0.4006  0.2102
 3029TIP3    H130646   3.065   2.597   1.449  0.3389 -0.0078  0.7595
 3029TIP3    H230647   3.078   2.506   1.569  0.1485 -1.6093 -0.4045
 3030TIP3   OH230648   1.235   3.056   8.108 -0.0894 -0.4826  0.1064
 3030TIP3    H130649   1.145   3.085   8.123 -0.1246 -0.6524  0.2192
 3030TIP3    H230650   1.288   3.127   8.143 -0.1609  0.8203 -2.2103
 3031TIP3   OH230651   3.058   5.372   6.898 -0.6120 -0.0831 -0.4299
 3031TIP3    H130652   3.061   5.308   6.969 -0.3830  0.0578 -0.3097
 3031TIP3    H230653   3.034   5.455   6.940  0.3171  0.1777 -0.3782
 3032TIP3   OH230654   5.664   4.354   0.433  0.5853 -0.2434  0.7113
 3032TIP3    H130655   5.683   4.439   0.472  0.6002  0.2479 -0.3261
 3032TIP3    H230656   5.743   4.302   0.447  1.7823  0.9113 -1.2529
 3033TIP3   OH230657   0.948   3.947   1.667  0.2377  0.0282  0.1300
 3033TIP3    H130658   0.946   3.856   1.638 -0.2222 -0.2156  0.9084
 3033TIP3    H230659   0.971   3.942   1.759  0.0880  0.7010  0.2068
 3034TIP3   OH230660   5.374   6.600   6.934  0.3394  0.2226 -0.0131
 3034TIP3    H130661   5.359   6.675   6.876  0.2425  0.1099 -0.1355
 3034TIP3    H230662   5.417   6.637   7.010  0.3449  0.3946 -0.0984
 3035TIP3   OH230663   2.584   4.636   8.401  0.1111  0.1648 -0.2345
 3035TIP3    H130664   2.549   4.691   8.331  0.2637 -0.7010 -1.0126
 3035TIP3    H230665   2.677   4.627   8.379 -0.1595 -1.4193 -0.8331
 3036TIP3   OH230666   5.452   5.897   1.037  0.4887 -0.2923  0.6721
 3036TIP3    H130667   5.499   5.900   1.121 -0.3415  0.6177  1.1316
 3036TIP3    H230668   5.481   5.975   0.991  0.1569 -0.2399  0.5532
 3037TIP3   OH230669   1.592   3.178   1.292 -0.2091  0.0537 -0.4276
 3037TIP3    H130670   1.564   3.232   1.218 -0.7267 -0.7767 -0.8574
 3037TIP3    H230671   1.525   3.192   1.359 -0.5394 -0.2985 -0.6708
 3038TIP3   OH230672   2.200   2.784   2.005  0.7716  0.1688  0.4939
 3038TIP3    H130673   2.131   2.755   2.065  0.6157 -0.8453 -0.1539
 3038TIP3    H230674   2.279   2.783   2.059  0.5493 -0.2432  0.8294
 3039TIP3   OH230675   5.115   2.065   8.194 -0.3065 -0.1397  0.3188
 3039TIP3    H130676   5.186   2.127   8.209 -0.8280  0.4259  0.4852
 3039TIP3    H230677   5.125   2.039   8.102 -1.9587  2.6469 -0.7698
 3040TIP3   OH230678   4.529   5.081   1.518  0.5003 -0.4008  0.2687
 3040TIP3    H130679   4.454   5.103   1.573  1.7377  2.1393  1.1257
 3040TIP3    H230680   4.508   4.995   1.481 -3.1833  0.5804 -0.2827
 3041TIP3   OH230681   4.034   2.235   8.355 -0.2039  0.4771  0.1811
 3041TIP3    H130682   4.085   2.303   8.400 -1.1944  0.2436  1.7381
 3041TIP3    H230683   4.101   2.180   8.313  0.7595  0.9737  1.0023
 3042TIP3   OH230684   3.204   4.447   0.040  0.3996  0.3248  0.4309
 3042TIP3    H130685   3.151   4.387  -0.012  3.2862 -1.7865 -0.3435
 3042TIP3    H230686   3.197   4.531  -0.007 -0.5991 -0.4053 -0.7918
 3043TIP3   OH230687   3.332   3.739   0.561 -0.6813 -0.3479 -0.1174
 3043TIP3    H130688   3.368   3.760   0.647 -1.9266  1.0994  0.0934
 3043TIP3    H230689   3.283   3.658   0.576 -0.6924 -0.2389  0.4879
 3044TIP3   OH230690   3.706   1.532   1.529 -0.0788  0.1737  0.4515
 3044TIP3    H130691   3.786   1.524   1.580 -0.4915 -1.7442  0.8733
 3044TIP3    H230692   3.701   1.451   1.478 -1.6849  0.2889  0.3620
 3045TIP3   OH230693   6.447   1.597   2.573  0.5293 -0.0707 -0.3036
 3045TIP3    H130694   6.406   1.577   2.656 -0.0743  0.5798 -0.4332
 3045TIP3    H230695   6.438   1.517   2.521  0.2884 -0.2480  0.0105
 3046TIP3   OH230696   0.148   3.950   1.581  0.1618 -0.4271  0.0203
 3046TIP3    H130697   0.111   4.036   1.559  0.1987 -0.7307 -1.3132
 3046TIP3    H230698   0.242   3.959   1.567  0.0735 -0.9129 -0.9529
 3047TIP3   OH230699   3.164   5.140   8.397 -1.0590  0.8344 -0.1500
 3047TIP3    H130700   3.228   5.144   8.469  1.0915  0.3351 -1.9273
 3047TIP3    H230701   3.165   5.228   8.360 -2.6706  1.2785  0.7889
 3048TIP3   OH230702   1.676   2.326   7.493 -0.1762 -0.1984  0.5288
 3048TIP3    H130703   1.662   2.374   7.575  1.0212 -0.0022  0.6397
 3048TIP3    H230704   1.765   2.349   7.467  0.5329 -2.4844  0.6740
 3049TIP3   OH230705   5.536   2.424   8.521 -0.0372  0.2461 -0.1217
 3049TIP3    H130706   5.628   2.404   8.507 -0.0940 -1.0230  1.1492
 3049TIP3    H230707   5.511   2.372   8.598 -0.9217  3.1476  1.7176
 3050TIP3   OH230708   3.145   4.512   6.797  0.7102  0.0982 -0.1297
 3050TIP3    H130709   3.109   4.423   6.796  1.4738 -0.2155 -0.4107
 3050TIP3    H230710   3.080   4.563   6.845 -0.3600 -0.3436 -1.0483
 3051TIP3   OH230711   2.896   5.568   7.728 -0.0849  0.7224  0.5932
 3051TIP3    H130712   2.896   5.473   7.728 -0.8335  0.7180  0.7217
 3051TIP3    H230713   2.988   5.592   7.717 -0.0152 -0.0051 -0.6236
 3052TIP3   OH230714   4.435   3.001   8.322 -0.3760  0.1129 -0.2320
 3052TIP3    H130715   4.349   2.970   8.291 -0.6775 -1.2551  1.8433
 3052TIP3    H230716   4.494   2.984   8.248 -1.2814 -1.9092 -0.5497
 3053TIP3   OH230717   0.242   3.699   8.650 -0.0852  0.1192  0.1086
 3053TIP3    H130718   0.245   3.638   8.577  0.6119  0.4944 -0.1898
 3053TIP3    H230719   0.308   3.766   8.628  1.6677 -0.8400  2.0385
 3054TIP3   OH230720   0.833   4.586   6.631  0.3567 -0.5768  0.0708
 3054TIP3    H130721   0.738   4.589   6.641  0.3307 -1.5988  0.1939
 3054TIP3    H230722   0.851   4.500   6.595  1.3133 -0.7557  0.9249
 3055TIP3   OH230723   6.319   0.043   7.862 -0.2573  0.0442 -0.1298
 3055TIP3    H130724   6.408   0.010   7.865 -0.6280 -0.9685  0.1670
 3055TIP3    H230725   6.274  -0.015   7.799  0.0575  2.5097 -2.8415
 3056TIP3   OH230726   6.840   5.354   8.180 -0.1975  0.1314 -0.1549
 3056TIP3    H130727   6.862   5.371   8.272 -1.0331 -1.2894  0.3385
 3056TIP3    H230728   6.842   5.259   8.173  0.8662  0.2600 -1.8848
 3057TIP3   OH230729   4.791   6.162   6.891 -0.1881 -0.1346  0.6193
 3057TIP3    H130730   4.828   6.127   6.810  0.5918 -0.3225  1.0459
 3057TIP3    H230731   4.732   6.094   6.922  0.2284 -0.4618  0.6970
 3058TIP3   OH230732   0.209   4.148   8.402 -0.4382  0.3945 -0.3839
 3058TIP3    H130733   0.209   4.169   8.309 -0.4337  1.5134 -0.1378
 3058TIP3    H230734   0.119   4.164   8.430 -0.3353  0.4802 -0.1019
 3059TIP3   OH230735   2.141   4.995   1.594 -0.2501 -0.0137 -0.3560
 3059TIP3    H130736   2.190   4.996   1.676 -1.4733 -0.3136  0.4042
 3059TIP3    H230737   2.097   5.081   1.591 -1.0976 -0.4248 -0.1184
 3060TIP3   OH230738   2.842   0.344   7.022 -0.0342 -0.6547  0.0462
 3060TIP3    H130739   2.787   0.282   7.072 -2.0578  0.3806 -0.7625
 3060TIP3    H230740   2.821   0.325   6.930 -3.3402  3.1788 -0.2995
 3061TIP3   OH230741   1.695   3.407   2.164  0.2085  0.1030 -0.5656
 3061TIP3    H130742   1.766   3.367   2.215  1.5315  2.4182 -0.4441
 3061TIP3    H230743   1.649   3.462   2.226 -1.4024 -0.9499 -0.7824
 3062TIP3   OH230744   0.697   6.354   7.928  0.1752  0.3370  0.2420
 3062TIP3    H130745   0.719   6.440   7.894 -0.8450  0.8370  0.7753
 3062TIP3    H230746   0.702   6.296   7.852  0.4335  0.9523 -0.2210
 3063TIP3   OH230747   0.777   6.154   0.045  0.3335 -0.2675 -0.1806
 3063TIP3    H130748   0.750   6.237   0.006  0.7905  0.1249  0.3128
 3063TIP3    H230749   0.863   6.173   0.085 -0.4740 -0.3897  1.7389
 3064TIP3   OH230750   2.453   0.652   1.299  0.1165 -0.0930 -0.0335
 3064TIP3    H130751   2.378   0.664   1.358  0.8191  0.3150  0.8129
 3064TIP3    H230752   2.528   0.642   1.358  0.5717 -1.7028 -0.8415
 3065TIP3   OH230753   1.997   1.567   8.264  0.0031  0.0645 -0.6907
 3065TIP3    H130754   2.018   1.652   8.226  1.2631  1.1301  2.0982
 3065TIP3    H230755   2.078   1.517   8.257 -0.3024 -0.3827 -1.0462
 3066TIP3   OH230756   4.194   5.128   8.330 -0.4815  0.5295 -0.0289
 3066TIP3    H130757   4.209   5.091   8.243  1.2850 -0.1856  0.5459
 3066TIP3    H230758   4.102   5.108   8.349 -0.8638  0.5904 -1.6520
 3067TIP3   OH230759   3.548   2.643   0.182  0.0290 -0.1207  0.2965
 3067TIP3    H130760   3.503   2.717   0.141  0.6889  0.7955  1.1733
 3067TIP3    H230761   3.628   2.681   0.217  0.7603 -1.4263  0.0865
 3068TIP3   OH230762   0.339   6.431   6.789 -0.0091 -0.5670 -0.3354
 3068TIP3    H130763   0.255   6.387   6.801 -0.5736  0.4609 -0.3919
 3068TIP3    H230764   0.326   6.485   6.711  0.2698  0.5831  0.3930
 3069TIP3   OH230765   6.768   1.816   8.153 -0.4043  0.4852  0.1465
 3069TIP3    H130766   6.699   1.883   8.148  0.3030  1.1680 -1.4294
 3069TIP3    H230767   6.752   1.771   8.235 -3.0620  0.2693 -0.3840
 3070TIP3   OH230768   0.684   1.036   0.057 -0.7272 -0.5190 -0.2740
 3070TIP3    H130769   0.636   0.968   0.106 -1.6315  0.0710 -0.3115
 3070TIP3    H230770   0.774   1.005   0.055 -0.7733 -0.8587  1.2631
 3071TIP3   OH230771   4.205   1.253   0.474 -0.4166 -0.5502 -0.1378
 3071TIP3    H130772   4.218   1.216   0.386  0.0334  0.7312 -0.6311
 3071TIP3    H230773   4.284   1.228   0.522 -0.0064 -0.0705 -0.5406
 3072TIP3   OH230774   2.168   4.315   7.979 -0.0372 -0.3908  0.0432
 3072TIP3    H130775   2.126   4.271   7.905  0.6548  1.0457 -1.2814
 3072TIP3    H230776   2.132   4.403   7.978 -0.2105 -0.4181  1.6273
 3073TIP3   OH230777   1.659   3.053   7.022 -0.4336  0.5621  0.3546
 3073TIP3    H130778   1.673   3.015   7.109  1.0962  0.2256 -0.0018
 3073TIP3    H230779   1.634   3.144   7.039 -0.8112  0.3161  1.1516
 3074TIP3   OH230780   0.402   5.451   7.788  0.0769  0.0811  0.0634
 3074TIP3    H130781   0.369   5.430   7.700 -0.1477 -1.1662  0.4265
 3074TIP3    H230782   0.352   5.529   7.814 -1.1685 -0.5896 -0.2063
 3075TIP3   OH230783   2.235   2.595   8.685 -0.1471 -0.0290 -0.7472
 3075TIP3    H130784   2.299   2.625   8.619 -0.5154  0.9345 -0.6829
 3075TIP3    H230785   2.210   2.507   8.656  0.2113  0.1152 -1.5140
 3076TIP3   OH230786   5.035   4.079   6.724 -0.4384  0.1785 -0.0395
 3076TIP3    H130787   5.098   4.030   6.672 -0.5307  0.3271 -0.2938
 3076TIP3    H230788   5.088   4.140   6.776 -0.2574 -0.7160  0.8697
 3077TIP3   OH230789   2.574   5.113   7.615 -0.3013 -0.6108 -0.6835
 3077TIP3    H130790   2.536   5.164   7.687  0.7225 -1.2650  0.3485
 3077TIP3    H230791   2.639   5.172   7.576  0.3902 -0.8560  0.0685
 3078TIP3   OH230792   6.508   5.636   0.430 -0.0795 -0.1641  0.3675
 3078TIP3    H130793   6.438   5.603   0.487 -2.6490  0.6797 -2.0807
 3078TIP3    H230794   6.535   5.559   0.379 -0.3815 -0.1748  0.2180
 3079TIP3   OH230795   3.431   5.285   0.727 -0.0544 -0.5108 -0.2997
 3079TIP3    H130796   3.432   5.199   0.770  3.0895 -1.4334 -1.8791
 3079TIP3    H230797   3.479   5.342   0.787 -0.6822 -0.2755 -0.0143
 3080TIP3   OH230798   4.115   4.865   0.919 -0.1329  0.1373  0.0278
 3080TIP3    H130799   4.126   4.770   0.926 -1.4770  0.0050  0.6264
 3080TIP3    H230800   4.093   4.893   1.008 -2.1979  0.6316 -0.5762
 3081TIP3   OH230801   2.870   2.212   0.078 -0.6040  0.1906  0.3452
 3081TIP3    H130802   2.784   2.249   0.059  0.2043  1.3627 -1.3038
 3081TIP3    H230803   2.858   2.117   0.067 -1.3538  0.4477 -1.4509
 3082TIP3   OH230804   3.761   5.395   0.130  0.4016 -0.0007 -0.3598
 3082TIP3    H130805   3.734   5.325   0.189  1.9198  0.3614  0.8427
 3082TIP3    H230806   3.853   5.375   0.111  0.8648  1.6321  0.0162
 3083TIP3   OH230807   0.808   6.825   0.991 -0.0353  0.0000  0.2317
 3083TIP3    H130808   0.840   6.829   0.900 -0.2738  0.0451  0.1487
 3083TIP3    H230809   0.887   6.831   1.044  0.0794  0.3073  0.0306
 3084TIP3   OH230810   2.226   3.894   0.546 -0.3662 -0.0571 -0.2687
 3084TIP3    H130811   2.216   3.945   0.626  0.7144 -0.7915  0.3645
 3084TIP3    H230812   2.280   3.949   0.489  0.4462 -0.2855  0.2518
 3085TIP3   OH230813   2.598   1.099   6.948 -0.2625  0.3581 -0.5113
 3085TIP3    H130814   2.596   1.142   6.862  0.5679 -2.1947 -1.9035
 3085TIP3    H230815   2.688   1.070   6.958 -0.9131 -1.6708 -0.0356
 3086TIP3   OH230816   3.018   1.922   7.820  0.3688 -0.1671 -0.6097
 3086TIP3    H130817   3.113   1.913   7.809  0.4072  0.4632 -0.8140
 3086TIP3    H230818   3.002   2.016   7.818 -0.2859 -0.2773 -0.7741
 3087TIP3   OH230819   1.703   1.606   7.654 -0.1017 -0.0424  0.2622
 3087TIP3    H130820   1.704   1.672   7.723  0.8646  1.0618 -0.7726
 3087TIP3    H230821   1.770   1.543   7.681 -1.6532 -1.1785  1.7248
 3088TIP3   OH230822   2.064   4.970   1.307 -0.1446 -0.0086 -1.1871
 3088TIP3    H130823   1.979   5.015   1.310 -0.0997  0.0016  0.8310
 3088TIP3    H230824   2.086   4.953   1.398  0.6237 -2.6886 -1.7677
 3089TIP3   OH230825   5.181   0.485   1.933 -0.0539  0.0721 -0.2393
 3089TIP3    H130826   5.092   0.509   1.961  0.2868 -1.9269  3.0820
 3089TIP3    H230827   5.239   0.530   1.994  1.1895 -0.0263 -1.2870
 3090TIP3   OH230828   4.644   6.258   7.407 -0.2699 -0.9281 -0.2058
 3090TIP3    H130829   4.716   6.320   7.419 -1.2910  0.1373  0.6803
 3090TIP3    H230830   4.658   6.192   7.475  0.2282 -1.0833 -0.4557
 3091TIP3   OH230831   4.754   5.465   0.678  0.3261 -0.0716  0.8101
 3091TIP3    H130832   4.790   5.544   0.718  1.1834 -1.2529  2.5011
 3091TIP3    H230833   4.742   5.404   0.751 -1.5752 -1.0647 -0.2416
 3092TIP3   OH230834   4.956   1.377   8.479 -0.7459 -0.2574  0.3140
 3092TIP3    H130835   4.914   1.394   8.563 -0.1440  1.9567  0.2290
 3092TIP3    H230836   4.950   1.282   8.468 -5.0075 -0.2251  0.6339
 3093TIP3   OH230837   6.200   4.223   7.165 -0.3315  0.0858 -0.1028
 3093TIP3    H130838   6.226   4.186   7.081  0.1676 -2.5732  1.1280
 3093TIP3    H230839   6.108   4.198   7.176 -0.4560  0.5991  0.0806
 3094TIP3   OH230840   5.556   5.297   0.302  0.7857  0.2395 -0.3255
 3094TIP3    H130841   5.604   5.335   0.228 -0.4907  0.5776 -1.0088
 3094TIP3    H230842   5.539   5.371   0.360 -0.0351  0.3737 -0.7258
 3095TIP3   OH230843   5.319   2.988   7.336 -0.0462 -0.0439 -0.4376
 3095TIP3    H130844   5.309   3.076   7.298 -0.7285  0.2675  0.4295
 3095TIP3    H230845   5.349   3.003   7.425  0.0064 -0.7052 -0.3371
 3096TIP3   OH230846   2.064   1.359   8.486 -0.4436 -0.7266 -0.2181
 3096TIP3    H130847   2.079   1.301   8.411 -0.5357 -0.4230 -0.4735
 3096TIP3    H230848   2.038   1.442   8.447  2.2125  0.2970  0.0619
 3097TIP3   OH230849   4.035   1.262   0.079  0.6106 -0.2762  0.7774
 3097TIP3    H130850   3.955   1.303   0.045 -0.1745 -1.5996  0.9773
 3097TIP3    H230851   4.102   1.330   0.071  0.1548 -0.0560 -2.0837
 3098TIP3   OH230852   0.443   5.400   6.871  0.3334  0.0892 -0.0096
 3098TIP3    H130853   0.534   5.414   6.898  0.3195  0.7000 -0.2507
 3098TIP3    H230854   0.447   5.404   6.775  0.3015 -1.5089 -0.0986
 3099TIP3   OH230855   3.904   2.708   7.402  0.2917  0.1101  0.6730
 3099TIP3    H130856   3.934   2.707   7.311 -0.6299  1.1065  0.3362
 3099TIP3    H230857   3.949   2.634   7.443  1.2210  0.0351 -0.4260
 3100TIP3   OH230858   0.537   0.202   6.480  0.2411 -0.5238  0.0033
 3100TIP3    H130859   0.490   0.196   6.397  1.0984 -1.6657 -0.4287
 3100TIP3    H230860   0.629   0.186   6.457  0.6576  0.2748  1.0197
 3101TIP3   OH230861   2.704   4.492   1.726 -0.6597 -0.2015 -0.1486
 3101TIP3    H130862   2.644   4.504   1.799 -3.4450 -0.9864 -2.1474
 3101TIP3    H230863   2.740   4.579   1.710 -0.8739  0.1968  1.3959
 3102TIP3   OH230864   5.741   1.653   7.437 -0.4863 -0.2438 -0.2670
 3102TIP3    H130865   5.657   1.616   7.410 -0.5319  0.4794 -1.1920
 3102TIP3    H230866   5.749   1.734   7.386  1.4541 -1.0458 -1.3869
 3103TIP3   OH230867   6.087   2.978   7.430  0.8966 -0.0627 -0.5029
 3103TIP3    H130868   6.090   2.948   7.339  1.4916 -0.9390 -0.2042
 3103TIP3    H230869   6.138   3.060   7.430  1.1163 -0.1960 -0.9004
 3104TIP3   OH230870   5.955   5.740   0.982  0.0150  0.2443 -0.0768
 3104TIP3    H130871   5.885   5.790   0.941  1.5646  1.6521 -1.1511
 3104TIP3    H230872   5.953   5.655   0.937 -0.1490  0.7510 -1.0707
 3105TIP3   OH230873   5.301   4.584   8.691 -0.7493  0.4170 -0.2610
 3105TIP3    H130874   5.220   4.536   8.712 -0.2080 -0.2014  0.4690
 3105TIP3    H230875   5.346   4.592   8.775 -0.9126  2.4246 -0.3153
 3106TIP3   OH230876   2.773   1.318   8.429 -0.0066  0.5783  0.3056
 3106TIP3    H130877   2.839   1.367   8.478 -0.2725  0.4280  0.8258
 3106TIP3    H230878   2.711   1.288   8.496 -1.5338  2.1342 -0.3577
 3107TIP3   OH230879   5.346   0.282   1.867 -0.1035  0.3583  0.0662
 3107TIP3    H130880   5.328   0.232   1.946 -0.6040 -0.6034 -0.6407
 3107TIP3    H230881   5.285   0.356   1.869  0.8210  1.1246  1.2475
 3108TIP3   OH230882   4.813   6.724   6.595  0.5866 -0.3257  0.1514
 3108TIP3    H130883   4.886   6.739   6.656  0.3995 -0.2351  0.3560
 3108TIP3    H230884   4.855   6.707   6.511  0.8252  2.9013 -0.5009
 3109TIP3   OH230885   5.217   2.779   7.937 -0.9573  0.3985 -0.5141
 3109TIP3    H130886   5.296   2.733   7.965 -1.0166 -0.3349 -1.5153
 3109TIP3    H230887   5.186   2.822   8.017  0.2163  0.3684 -0.0128
 3110TIP3   OH230888   0.574   3.984   1.960 -0.6024  0.6952  0.0236
 3110TIP3    H130889   0.652   3.984   2.014 -1.8263 -0.2082  1.8715
 3110TIP3    H230890   0.591   4.050   1.893  0.4535  2.8743  2.3002
 3111TIP3   OH230891   4.904   4.342   0.579  0.0355 -0.0829  0.4213
 3111TIP3    H130892   4.820   4.337   0.625 -0.0830 -0.8528  0.1360
 3111TIP3    H230893   4.964   4.381   0.642 -0.9923  2.4561 -0.0443
 3112TIP3   OH230894   1.438   1.494   6.820 -0.3581 -0.1645 -0.4087
 3112TIP3    H130895   1.462   1.420   6.764  0.7363 -1.0762  1.1978
 3112TIP3    H230896   1.513   1.553   6.813 -1.0237  0.6150 -1.3089
 3113TIP3   OH230897   1.070   6.783   1.638  0.5703 -0.9506 -0.0095
 3113TIP3    H130898   1.094   6.735   1.718  1.4441 -1.4836 -0.5770
 3113TIP3    H230899   0.993   6.834   1.663  2.6258  1.4005  2.1382
 3114TIP3   OH230900   2.818   0.415   7.350 -0.3157  0.0244 -0.3716
 3114TIP3    H130901   2.737   0.453   7.315 -0.7041  0.2410  0.7199
 3114TIP3    H230902   2.792   0.379   7.435  0.6815 -0.1329 -0.1272
 3115TIP3   OH230903   6.141   6.755   8.452 -0.1556 -0.2716  0.6972
 3115TIP3    H130904   6.047   6.759   8.432  0.1237 -0.7668 -0.7538
 3115TIP3    H230905   6.166   6.665   8.435  0.8956  0.2082 -0.3894
 3116TIP3   OH230906   5.647   0.472   1.614  0.1293 -0.1421  0.1691
 3116TIP3    H130907   5.700   0.504   1.541  0.7615  1.8148  1.4247
 3116TIP3    H230908   5.707   0.467   1.688 -0.9746  0.0880  1.1189
 3117TIP3   OH230909   3.838   2.668   0.302 -0.6236  0.3783 -0.4105
 3117TIP3    H130910   3.856   2.646   0.393 -1.0938  1.1848 -0.1159
 3117TIP3    H230911   3.815   2.761   0.303  1.0389  0.8630 -1.5823
 3118TIP3   OH230912   4.066   5.708   2.248 -0.5323 -0.0577 -0.3982
 3118TIP3    H130913   3.986   5.675   2.289  0.3817  0.0341  1.6003
 3118TIP3    H230914   4.064   5.802   2.263 -0.6240  0.1172 -1.4438
 3119TIP3   OH230915   1.431   5.084   6.407 -0.2125 -0.0178 -0.0746
 3119TIP3    H130916   1.412   5.178   6.417  0.4379  0.2674 -1.2177
 3119TIP3    H230917   1.512   5.071   6.456  0.1668  0.2309 -0.6115
 3120TIP3   OH230918   6.022   3.773   7.984  0.5885 -0.0960  0.4757
 3120TIP3    H130919   6.053   3.827   8.058 -2.3726  0.3648  1.5211
 3120TIP3    H230920   5.954   3.827   7.943 -1.5826 -2.4173  0.7634
 3121TIP3   OH230921   4.485   2.280   7.303 -0.0895 -0.6491 -0.1944
 3121TIP3    H130922   4.472   2.375   7.301 -0.7834 -0.7445 -0.6250
 3121TIP3    H230923   4.492   2.255   7.211 -0.1117 -1.0435 -0.0892
 3122TIP3   OH230924   3.718   6.294   6.912  0.2452  0.3896  0.0203
 3122TIP3    H130925   3.778   6.353   6.867 -1.0352  0.5639 -1.5553
 3122TIP3    H230926   3.677   6.243   6.842 -0.2125 -0.9136  1.1786
 3123TIP3   OH230927   1.751   2.939   7.243 -0.0298  0.1832 -0.5155
 3123TIP3    H130928   1.783   2.878   7.310 -0.0601  2.0123  1.2352
 3123TIP3    H230929   1.811   3.014   7.248 -1.3469  1.3040 -1.0091
 3124TIP3   OH230930   3.507   0.321   0.970 -0.3001  0.3412 -0.5316
 3124TIP3    H130931   3.452   0.302   0.894  0.2331 -1.7224 -0.4555
 3124TIP3    H230932   3.595   0.334   0.935 -0.3491  1.1255 -0.4022
 3125TIP3   OH230933   0.620   3.197   1.466  0.1764 -0.5231 -0.6614
 3125TIP3    H130934   0.663   3.281   1.455 -3.6009  1.8587  0.8448
 3125TIP3    H230935   0.674   3.135   1.417  2.7766  2.8651 -2.4181
 3126TIP3   OH230936   4.718   6.799   7.981 -0.0962 -0.0638 -0.1268
 3126TIP3    H130937   4.802   6.800   8.028  0.7814  0.9126 -1.6534
 3126TIP3    H230938   4.703   6.890   7.958 -0.1519 -0.5806 -2.3188
 3127TIP3   OH230939   4.178   5.957   6.712 -0.7727 -0.0756 -0.0516
 3127TIP3    H130940   4.262   5.999   6.731 -0.8682  0.0295  0.1416
 3127TIP3    H230941   4.182   5.874   6.760 -1.8580  1.0921  2.2485
 3128TIP3   OH230942   5.670   3.371   0.497 -0.3566  0.2940  0.2747
 3128TIP3    H130943   5.680   3.313   0.573 -1.5150 -0.3480 -0.0384
 3128TIP3    H230944   5.673   3.313   0.422  2.2607  1.0733 -0.3324
 3129TIP3   OH230945   0.216   1.195   7.482 -0.0470  0.2589 -0.2258
 3129TIP3    H130946   0.260   1.275   7.511 -1.9426  1.3184 -0.1347
 3129TIP3    H230947   0.128   1.223   7.456 -1.4811 -2.0429  1.6536
 3130TIP3   OH230948   1.734   3.404   0.320  0.0011  0.6608  0.1575
 3130TIP3    H130949   1.730   3.372   0.410 -2.1035  0.9493  0.2167
 3130TIP3    H230950   1.648   3.445   0.305  0.4739  1.0394 -1.8241
 3131TIP3   OH230951   2.158   4.167   1.721 -0.6077 -0.1055  0.6964
 3131TIP3    H130952   2.166   4.244   1.776 -0.7623 -0.5733  1.3856
 3131TIP3    H230953   2.179   4.198   1.633  0.9258  0.3732  1.2033
 3132TIP3   OH230954   1.446   1.492   1.419  0.1753 -0.0927  0.1972
 3132TIP3    H130955   1.438   1.403   1.452  0.3713  0.1310  0.8642
 3132TIP3    H230956   1.417   1.547   1.491  1.6163  0.4562  0.3971
 3133TIP3   OH230957   4.382   4.864   0.016  0.1362 -0.4380  0.0484
 3133TIP3    H130958   4.400   4.941   0.069 -0.8087 -0.5631  0.5736
 3133TIP3    H230959   4.297   4.881  -0.024  0.2379 -0.9102 -0.3773
 3134TIP3   OH230960   5.293   0.249   6.734  0.0745 -0.9603 -0.8845
 3134TIP3    H130961   5.361   0.301   6.777 -0.4904 -1.0584  0.1592
 3134TIP3    H230962   5.296   0.277   6.643 -0.2708  0.9945 -0.3456
 3135TIP3   OH230963   5.074   5.090   0.786 -0.0293  0.3565  0.6027
 3135TIP3    H130964   5.137   5.161   0.774  0.2426 -0.1580 -1.4610
 3135TIP3    H230965   5.112   5.035   0.855  0.9730  0.9160  0.5169
 3136TIP3   OH230966   4.501   3.888   1.347 -0.4360  0.1285  0.0040
 3136TIP3    H130967   4.522   3.878   1.440 -1.7382 -1.2362  0.1853
 3136TIP3    H230968   4.532   3.808   1.306 -2.5360 -0.6484 -0.1973
 3137TIP3   OH230969   1.521   6.446   7.508 -0.7291 -0.0203  0.5388
 3137TIP3    H130970   1.565   6.366   7.480  1.9835  1.3872  0.3540
 3137TIP3    H230971   1.428   6.430   7.492 -0.0581 -2.1948 -1.8477
 3138TIP3   OH230972   0.397   0.491   2.254 -0.3340 -0.1895 -0.8366
 3138TIP3    H130973   0.465   0.511   2.318  0.5167 -1.2003 -1.4109
 3138TIP3    H230974   0.319   0.473   2.307  0.2266 -0.5008 -0.1129
 3139TIP3   OH230975   3.515   2.475   7.454  0.3087  0.6213  0.4581
 3139TIP3    H130976   3.475   2.416   7.517  0.4064  0.3446  0.2640
 3139TIP3    H230977   3.463   2.555   7.460  0.9434  0.9634  1.6115
 3140TIP3   OH230978   5.600   2.038   0.880  0.6602 -0.1991  0.1880
 3140TIP3    H130979   5.628   1.950   0.906  0.2686  0.0619  1.5901
 3140TIP3    H230980   5.652   2.096   0.936  1.8490  0.5501 -1.5958
 3141TIP3   OH230981   6.142   1.658   1.556  0.3841 -0.1295  0.2507
 3141TIP3    H130982   6.189   1.582   1.591  0.7397  0.0320  0.1260
 3141TIP3    H230983   6.209   1.711   1.513 -0.0306 -0.2929 -0.6293
 3142TIP3   OH230984   6.764   5.902   0.039 -0.1124 -0.0137  0.1452
 3142TIP3    H130985   6.692   5.959   0.066  0.6264  0.3524  1.4241
 3142TIP3    H230986   6.824   5.959  -0.008  0.3252  0.1418  0.8803
 3143TIP3   OH230987   0.495   1.859   7.918 -0.4859  0.2572  0.9999
 3143TIP3    H130988   0.479   1.839   8.010 -0.8783 -0.4843  0.7876
 3143TIP3    H230989   0.437   1.799   7.871  1.4538 -1.0985  0.2109
 3144TIP3   OH230990   4.329   4.244   0.489  0.2548 -0.4258  0.2713
 3144TIP3    H130991   4.238   4.274   0.479  0.4212 -0.4684 -1.8736
 3144TIP3    H230992   4.376   4.320   0.522  0.1012  0.8317 -2.2180
 3145TIP3   OH230993   2.077   2.963   6.515 -0.2733  0.2579  0.0502
 3145TIP3    H130994   2.104   2.962   6.607 -0.3364  0.2288  0.0683
 3145TIP3    H230995   2.128   2.893   6.474 -0.2776  0.2415  0.0726
 3146TIP3   OH230996   3.229   3.451   7.677  0.7610 -0.2306  0.1103
 3146TIP3    H130997   3.304   3.416   7.629  1.5237  0.0764  1.0556
 3146TIP3    H230998   3.267   3.502   7.748 -0.3442 -1.0082  1.2995
 3147TIP3   OH230999   1.550   4.289   7.383 -0.2906 -0.5166  0.3027
 3147TIP3    H131000   1.557   4.376   7.342  0.6503 -0.4246  0.6370
 3147TIP3    H231001   1.573   4.228   7.313  1.9917 -0.3296  0.7957
 3148TIP3   OH231002   6.568   6.078   0.118 -0.0119  0.1103  0.2311
 3148TIP3    H131003   6.501   6.142   0.143  1.1814  0.7593  1.9632
 3148TIP3    H231004   6.544   5.998   0.166 -0.2919 -0.0889 -0.2316
 3149TIP3   OH231005   0.803   5.876   0.054 -0.2006  0.2178  0.9759
 3149TIP3    H131006   0.720   5.829   0.044  0.4166 -0.6483 -0.5056
 3149TIP3    H231007   0.777   5.968   0.061 -1.2755  0.1525 -1.1005
 3150TIP3   OH231008   4.604   1.445   0.439  0.0793 -1.1644  0.1735
 3150TIP3    H131009   4.695   1.438   0.409 -0.2460 -1.2719 -0.7893
 3150TIP3    H231010   4.612   1.470   0.532  1.1131 -2.8472  0.5769
 3151TIP3   OH231011   0.897   3.598   7.869  0.1627 -0.2168 -0.4128
 3151TIP3    H131012   0.902   3.518   7.922 -1.8748  0.4559  0.9324
 3151TIP3    H231013   0.866   3.569   7.784  0.5565 -0.9903 -0.2998
 3152TIP3   OH231014   4.411   0.039   0.516  0.2111  0.3624  0.0491
 3152TIP3    H131015   4.466   0.073   0.445  1.4864  0.9807  1.2976
 3152TIP3    H231016   4.369  -0.039   0.479  1.2014  0.4126 -1.2268
 3153TIP3   OH231017   2.919   3.050   1.309 -0.4393  0.3503 -0.1359
 3153TIP3    H131018   2.994   2.991   1.315  0.1152  1.1458  3.0594
 3153TIP3    H231019   2.849   2.997   1.271  0.7924 -1.5040  0.0582
 3154TIP3   OH231020   3.576   3.012   2.327  0.3356 -0.2737  0.5523
 3154TIP3    H131021   3.654   2.964   2.297  1.6650  1.8634  0.3528
 3154TIP3    H231022   3.544   3.057   2.248 -0.1577  0.1193  0.9721
 3155TIP3   OH231023   5.502   2.138   6.547  0.2065 -0.1977 -0.3245
 3155TIP3    H131024   5.454   2.058   6.526 -1.1999  0.3058  0.7853
 3155TIP3    H231025   5.486   2.151   6.641  1.0753  0.9603 -0.3195
 3156TIP3   OH231026   1.365   2.993   7.636 -0.3632 -0.2218  0.8711
 3156TIP3    H131027   1.377   2.917   7.579 -0.6150 -0.0121  0.5348
 3156TIP3    H231028   1.453   3.014   7.667 -0.0718  0.2825 -0.2480
 3157TIP3   OH231029   3.137   5.704   0.200  0.2674 -0.0301  0.2440
 3157TIP3    H131030   3.101   5.693   0.112  0.9736 -1.5468  0.1085
 3157TIP3    H231031   3.136   5.616   0.238  1.1738  0.3721  1.2621
 3158TIP3   OH231032   2.144   1.718   7.044  0.7251 -0.1269  0.3144
 3158TIP3    H131033   2.130   1.685   6.956 -1.9584 -1.3747  1.1024
 3158TIP3    H231034   2.060   1.756   7.069  0.9286 -1.1101  2.8069
 3159TIP3   OH231035   5.138   5.589   1.814  0.0513 -0.4059  0.5886
 3159TIP3    H131036   5.208   5.575   1.751  0.4317 -0.8045  1.0887
 3159TIP3    H231037   5.169   5.661   1.869  0.1686 -0.7341  0.9527
 3160TIP3   OH231038   0.322   1.108   2.365  0.6338  0.0198  0.2122
 3160TIP3    H131039   0.240   1.079   2.326  0.5913  1.8790 -1.2312
 3160TIP3    H231040   0.338   1.047   2.436 -1.4723 -0.9906 -0.1147
 3161TIP3   OH231041   2.886   3.840   0.035  0.5941  0.3707 -0.2787
 3161TIP3    H131042   2.864   3.755  -0.004  0.8877  0.1196  0.0999
 3161TIP3    H231043   2.844   3.839   0.121 -0.3465  1.0625 -0.7091
 3162TIP3   OH231044   5.582   5.104   7.969 -0.8499 -0.2331 -1.1292
 3162TIP3    H131045   5.635   5.131   7.895 -0.7724 -0.9459 -1.3439
 3162TIP3    H231046   5.643   5.061   8.029 -0.7643  1.0465 -0.2647
 3163TIP3   OH231047   3.078   0.874   7.272 -0.3255 -0.2480 -0.5185
 3163TIP3    H131048   3.058   0.952   7.323 -0.7446  0.0048 -1.0551
 3163TIP3    H231049   2.994   0.850   7.231 -0.3866 -1.4318  0.2500
 3164TIP3   OH231050   3.243   4.912   0.770  0.0582 -0.0090  0.3007
 3164TIP3    H131051   3.304   4.972   0.814 -0.7316  1.7058 -0.8066
 3164TIP3    H231052   3.156   4.943   0.797 -0.3796 -1.8666  1.1698
 3165TIP3   OH231053   4.374   0.375   0.586 -0.6691  0.2692 -0.0725
 3165TIP3    H131054   4.451   0.401   0.637 -1.0980  0.3731  0.5384
 3165TIP3    H231055   4.336   0.301   0.636 -1.2217  0.5173 -0.1149
 3166TIP3   OH231056   3.233   1.782   7.725  0.0451 -0.3653  0.4987
 3166TIP3    H131057   3.322   1.769   7.757  0.3199 -0.6962 -0.3556
 3166TIP3    H231058   3.189   1.698   7.740  0.4231 -0.8044 -0.7121
 3167TIP3   OH231059   2.361   2.173   8.388 -0.0584  0.6700  0.1862
 3167TIP3    H131060   2.362   2.148   8.295 -0.0746  0.4111  0.2547
 3167TIP3    H231061   2.447   2.150   8.421  0.5355  2.2722 -0.1473
 3168TIP3   OH231062   1.789   3.258   8.672  0.0223  0.0010 -0.1279
 3168TIP3    H131063   1.703   3.290   8.699 -0.6744 -0.8944 -1.2552
 3168TIP3    H231064   1.797   3.283   8.580  0.7932 -0.3139 -0.1590
 3169TIP3   OH231065   0.137   4.275   0.935 -0.1555  0.2243  0.7004
 3169TIP3    H131066   0.164   4.350   0.882  0.0220  0.2464  0.8231
 3169TIP3    H231067   0.144   4.200   0.876  0.6504  0.1566  0.8712
 3170TIP3   OH231068   3.718   6.301   0.699  0.2921  0.2937  0.2380
 3170TIP3    H131069   3.700   6.373   0.638  3.8702  1.3581  0.1876
 3170TIP3    H231070   3.699   6.222   0.649 -0.0871  1.1672 -1.0610
 3171TIP3   OH231071   3.317   0.513   1.003 -0.1646  0.2223 -0.1032
 3171TIP3    H131072   3.375   0.437   1.009 -1.1048 -0.4797  0.3989
 3171TIP3    H231073   3.370   0.581   0.962  0.6200 -0.7819 -0.7964
 3172TIP3   OH231074   3.819   0.960   7.996  0.0188  0.2884  0.6494
 3172TIP3    H131075   3.893   0.904   7.972  0.2534  1.4304 -1.5903
 3172TIP3    H231076   3.841   0.993   8.083  0.9705 -1.2421  1.0321
 3173TIP3   OH231077   0.859   4.710   0.012 -0.1417  0.1983 -0.4326
 3173TIP3    H131078   0.928   4.676  -0.045 -1.3011 -0.6507 -1.3930
 3173TIP3    H231079   0.798   4.636   0.022 -0.4594  0.6359  1.1494
 3174TIP3   OH231080   6.654   3.564   0.640  0.1954 -0.0574  0.5463
 3174TIP3    H131081   6.657   3.648   0.596  1.2544 -0.3440  0.0361
 3174TIP3    H231082   6.562   3.537   0.636  0.1968  0.1132 -1.1400
 3175TIP3   OH231083   3.955   2.244   1.221  0.0506 -0.3739  0.3557
 3175TIP3    H131084   3.971   2.159   1.179 -2.9170 -0.4027 -0.9553
 3175TIP3    H231085   3.941   2.222   1.313 -2.0281 -1.5630 -0.1867
 3176TIP3   OH231086   1.498   4.110   0.159 -0.1653  0.1852 -0.1379
 3176TIP3    H131087   1.535   4.030   0.198 -1.0416 -0.2576 -0.1881
 3176TIP3    H231088   1.571   4.148   0.110  0.4075 -0.3081  0.3034
 3177TIP3   OH231089   2.270   6.157   7.968  0.2459 -0.5456  0.3712
 3177TIP3    H131090   2.283   6.063   7.952 -2.2593 -0.7232 -1.2042
 3177TIP3    H231091   2.336   6.200   7.914  1.3313 -1.3760  1.0010
 3178TIP3   OH231092   0.929   6.817   2.022 -0.0894 -0.1150 -1.3121
 3178TIP3    H131093   0.901   6.732   2.056 -0.3039 -0.7248 -2.9313
 3178TIP3    H231094   1.006   6.797   1.969 -0.3612  0.6453 -2.0112
 3179TIP3   OH231095   0.743   3.847   1.445  0.0347 -0.2512 -0.0470
 3179TIP3    H131096   0.760   3.768   1.393 -0.2031 -0.2007 -0.2046
 3179TIP3    H231097   0.653   3.836   1.476  0.3646 -0.5509  0.8356
 3180TIP3   OH231098   1.079   3.337   7.980 -0.1752  0.1407  0.1646
 3180TIP3    H131099   0.985   3.337   7.965 -0.0153  0.6098 -0.9558
 3180TIP3    H231100   1.089   3.322   8.074 -1.4452  2.8327  0.8068
 3181TIP3   OH231101   2.481   6.412   0.278  0.1045 -0.4432  0.1126
 3181TIP3    H131102   2.555   6.472   0.281  0.6043 -1.0294 -0.2698
 3181TIP3    H231103   2.406   6.464   0.307  0.4814  0.4374 -0.4541
 3182TIP3   OH231104   4.791   3.806   1.336  0.1406  0.1682  0.1112
 3182TIP3    H131105   4.799   3.746   1.411  1.0040  0.5884  0.3725
 3182TIP3    H231106   4.854   3.876   1.355 -0.9005  1.2051 -0.1504
 3183TIP3   OH231107   5.908   5.185   1.924 -0.6575  0.3989 -0.5062
 3183TIP3    H131108   5.893   5.227   2.009  1.7011  0.1064  0.1396
 3183TIP3    H231109   5.822   5.153   1.897 -1.5852  1.0990  1.4528
 3184TIP3   OH231110   1.877   5.164   7.681  0.2226  0.2954  0.1489
 3184TIP3    H131111   1.935   5.187   7.755  0.7715 -2.4909  0.6961
 3184TIP3    H231112   1.937   5.139   7.611 -0.2930 -0.9947  0.1482
 3185TIP3   OH231113   2.550   4.622   0.796  0.1439 -0.6483  0.2114
 3185TIP3    H131114   2.465   4.665   0.798  0.8891  1.0878 -1.6731
 3185TIP3    H231115   2.538   4.548   0.736 -0.2882 -1.0534  0.7912
 3186TIP3   OH231116   4.538   5.886   8.470 -0.2127 -0.1957 -0.7371
 3186TIP3    H131117   4.495   5.845   8.545 -0.1444  0.5864 -0.2552
 3186TIP3    H231118   4.622   5.842   8.464  0.5512  0.9384  0.7980
 3187TIP3   OH231119   2.957   0.020   8.390 -0.7594 -0.7653  0.4364
 3187TIP3    H131120   2.885  -0.043   8.385 -1.1994 -0.2571  0.3254
 3187TIP3    H231121   3.028  -0.028   8.433 -1.7209 -0.7469  2.0985
 3188TIP3   OH231122   4.945   1.115   8.182  0.8325 -0.8175  0.3354
 3188TIP3    H131123   5.040   1.111   8.194  0.7070 -0.7431  1.4625
 3188TIP3    H231124   4.910   1.058   8.250  0.0621 -0.7613 -0.0070
 3189TIP3   OH231125   3.834   1.144   8.527  0.5195  0.4528  0.5236
 3189TIP3    H131126   3.847   1.052   8.551  0.6282 -0.1632 -1.6677
 3189TIP3    H231127   3.845   1.192   8.609 -0.3765 -1.5441  1.8872
 3190TIP3   OH231128   5.469   2.947   0.354 -0.1527 -0.0112  0.7409
 3190TIP3    H131129   5.524   2.919   0.428 -0.7266 -0.5906  0.9581
 3190TIP3    H231130   5.457   3.041   0.367  1.9994  0.4528 -0.1128
 3191TIP3   OH231131   4.344   0.107   1.563 -0.6234  0.0650 -0.4250
 3191TIP3    H131132   4.324   0.182   1.619  0.0557  0.7922 -1.1355
 3191TIP3    H231133   4.387   0.045   1.620  0.8008  1.1306 -0.2890
 3192TIP3   OH231134   1.936   3.027   7.951 -0.0674  0.3285 -0.2209
 3192TIP3    H131135   1.890   2.999   8.030  0.4465 -0.2413 -0.1156
 3192TIP3    H231136   1.894   3.110   7.927  0.3099  0.9401  1.1223
 3193TIP3   OH231137   4.790   1.044   0.179  0.5614  0.3080 -0.0191
 3193TIP3    H131138   4.880   1.073   0.190  0.7960  0.1524 -1.2867
 3193TIP3    H231139   4.768   1.070   0.089 -1.2915  2.0063  0.8633
 3194TIP3   OH231140   0.686   3.203   0.076 -0.2367 -0.3269 -0.0084
 3194TIP3    H131141   0.697   3.289   0.117  0.6625 -0.7374  0.6215
 3194TIP3    H231142   0.755   3.199   0.010 -0.1115 -0.6699  0.1419
 3195TIP3   OH231143   5.379   4.287   2.226 -0.8729  0.5071 -0.3345
 3195TIP3    H131144   5.451   4.350   2.226  0.0348 -0.4896  1.1027
 3195TIP3    H231145   5.411   4.213   2.176  0.2042 -1.0702  2.5227
 3196TIP3   OH231146   0.717   4.182   7.089  0.3312  1.1869 -0.1946
 3196TIP3    H131147   0.768   4.147   7.162 -0.5485 -0.4442 -0.2874
 3196TIP3    H231148   0.776   4.177   7.013  0.4362  0.4755 -0.0717
 3197TIP3   OH231149   5.437   1.474   0.096 -0.1081 -0.1888 -0.5111
 3197TIP3    H131150   5.475   1.561   0.083  1.1845 -0.5371  0.6946
 3197TIP3    H231151   5.396   1.454   0.012  1.8628  0.5051 -1.7223
 3198TIP3   OH231152   4.811   2.465   7.117 -0.5193  0.0550 -0.0237
 3198TIP3    H131153   4.733   2.514   7.142  0.5177  1.4707  0.6201
 3198TIP3    H231154   4.826   2.406   7.190 -0.2952  0.6934  0.4641
 3199TIP3   OH231155   5.513   5.023   7.540 -0.1913  0.2703  0.3492
 3199TIP3    H131156   5.479   4.936   7.520  0.3799 -0.2425  1.5153
 3199TIP3    H231157   5.552   5.014   7.627 -0.4703  1.7980  0.6572
 3200TIP3   OH231158   3.501   6.021   2.553  0.1567 -0.3581 -0.4073
 3200TIP3    H131159   3.580   6.014   2.605  1.1988  0.9967 -1.7385
 3200TIP3    H231160   3.506   5.948   2.491 -0.5901 -1.3639  0.6560
 3201TIP3   OH231161   0.748   0.556   1.339  0.0535 -0.0133  0.7076
 3201TIP3    H131162   0.675   0.498   1.360  0.2619  0.3319  2.6565
 3201TIP3    H231163   0.709   0.632   1.296 -0.6954 -0.0335  1.3358
 3202TIP3   OH231164   4.604   1.765   0.628 -0.1602  0.2856  0.2500
 3202TIP3    H131165   4.514   1.768   0.597  0.5670 -1.6388 -2.4158
 3202TIP3    H231166   4.613   1.679   0.669  0.4601  0.4627  0.5111
 3203TIP3   OH231167   6.047   0.745   6.385  0.3341  0.3471  0.1711
 3203TIP3    H131168   6.008   0.813   6.330 -2.9643 -1.1424  0.4396
 3203TIP3    H231169   6.042   0.780   6.474  1.1790  0.7923  0.0580
 3204TIP3   OH231170   3.696   2.804   8.616  0.1714 -0.0286  0.1873
 3204TIP3    H131171   3.732   2.883   8.657  1.6538 -0.9474  0.7665
 3204TIP3    H231172   3.744   2.733   8.658 -0.8890 -1.2232 -0.5733
 3205TIP3   OH231173   3.044   0.094   0.088 -0.4173 -0.5192  0.4201
 3205TIP3    H131174   3.111   0.044   0.134 -1.5136 -1.0019  1.5487
 3205TIP3    H231175   3.071   0.185   0.099 -1.5662 -0.4188  3.7635
 3206TIP3   OH231176   2.177   1.228   6.924  0.0047  0.0991 -0.8366
 3206TIP3    H131177   2.246   1.290   6.899 -1.4793  1.5539 -1.5514
 3206TIP3    H231178   2.200   1.201   7.013  0.5173  1.9974 -0.3510
 3207TIP3   OH231179   3.471   1.741   2.126 -0.6120  0.1747 -0.2938
 3207TIP3    H131180   3.526   1.663   2.138 -1.4110 -0.5464 -1.1162
 3207TIP3    H231181   3.411   1.741   2.201 -0.4823  0.1051 -0.1906
 3208TIP3   OH231182   0.848   0.660   8.660  0.0864  0.3516  0.0373
 3208TIP3    H131183   0.918   0.596   8.654  1.4172  1.8255 -0.7295
 3208TIP3    H231184   0.885   0.734   8.708 -0.6492  1.4948 -1.0714
 3209TIP3   OH231185   2.947   4.980   8.468  0.4797  0.2715 -0.7587
 3209TIP3    H131186   3.008   5.048   8.441  0.2207  0.6606 -0.3794
 3209TIP3    H231187   2.877   5.027   8.514  0.7754 -0.3422  0.3565
 3210TIP3   OH231188   2.435   3.319   1.457 -0.1829 -0.0427  0.3662
 3210TIP3    H131189   2.344   3.291   1.445 -0.0265 -0.5292  0.3149
 3210TIP3    H231190   2.478   3.245   1.500 -0.1984  0.8168  1.9445
 3211TIP3   OH231191   3.519   3.406   1.445 -0.5639  0.1611  0.3016
 3211TIP3    H131192   3.565   3.354   1.379 -0.1814  1.0878 -0.1743
 3211TIP3    H231193   3.431   3.416   1.410 -0.9029 -0.8984  0.8136
 3212TIP3   OH231194   2.480   0.073   0.439  0.2025  0.5519  0.0476
 3212TIP3    H131195   2.525   0.102   0.359 -0.9675 -0.1384 -0.8902
 3212TIP3    H231196   2.491   0.146   0.500  2.8730  0.2828  0.0071
 3213TIP3   OH231197   2.704   5.139   1.918  0.1006  0.4501 -0.0466
 3213TIP3    H131198   2.746   5.225   1.908  0.7023  0.0118 -1.7064
 3213TIP3    H231199   2.776   5.076   1.905 -0.6579 -0.3026 -0.6757
 3214TIP3   OH231200   3.395   3.210   0.678 -0.2989  0.4831 -0.3148
 3214TIP3    H131201   3.447   3.173   0.606 -0.2986 -2.9826  1.2390
 3214TIP3    H231202   3.304   3.200   0.650 -0.4651 -3.5286  1.0345
 3215TIP3   OH231203   6.222   5.774   7.797  0.7305  0.2224 -0.2233
 3215TIP3    H131204   6.240   5.718   7.721 -0.1438 -0.6934  0.2082
 3215TIP3    H231205   6.142   5.821   7.773 -0.1713 -0.8734  0.5152
 3216TIP3   OH231206   5.885   1.656   7.657 -0.4908  0.2755 -0.3844
 3216TIP3    H131207   5.818   1.650   7.590 -1.9087  2.3116  0.7378
 3216TIP3    H231208   5.939   1.731   7.631  0.3009 -0.2632 -0.3513
 3217TIP3   OH231209   5.354   4.292   7.255 -0.2917  0.1697  0.4704
 3217TIP3    H131210   5.347   4.387   7.242 -0.5550  0.5520  2.9146
 3217TIP3    H231211   5.357   4.281   7.350 -0.2833 -2.2958  0.2477
 3218TIP3   OH231212   0.836   1.670   2.446 -0.7172 -0.2857  0.1578
 3218TIP3    H131213   0.742   1.679   2.426 -0.7153 -1.4939 -0.4693
 3218TIP3    H231214   0.846   1.579   2.473  0.1405  0.0612  1.0888
 3219TIP3   OH231215   4.557   0.200   7.923 -0.0939 -0.3460  0.4451
 3219TIP3    H131216   4.586   0.285   7.891 -2.0954 -0.5549 -2.3260
 3219TIP3    H231217   4.480   0.219   7.977  0.7227 -0.3083  1.6391
 3220TIP3   OH231218   5.449   3.403   0.117  0.5330 -0.0441  0.2843
 3220TIP3    H131219   5.366   3.451   0.109 -0.3615 -1.7027 -1.1236
 3220TIP3    H231220   5.506   3.462   0.166 -1.7319  0.8280  2.0721
 3221TIP3   OH231221   3.217   6.500   0.936  0.4661  0.7510 -0.3237
 3221TIP3    H131222   3.249   6.453   0.860  1.2304  0.7062  0.0145
 3221TIP3    H231223   3.193   6.587   0.902 -1.2121  0.0713 -0.9983
 3222TIP3   OH231224   0.612   4.265   1.283 -0.1980  0.0115 -0.0247
 3222TIP3    H131225   0.586   4.357   1.293 -0.3660 -0.1797  1.6086
 3222TIP3    H231226   0.706   4.265   1.305 -0.3944 -0.3152  0.8796
 3223TIP3   OH231227   2.856   1.134   0.178 -0.4140  0.2515  0.0137
 3223TIP3    H131228   2.772   1.141   0.133 -0.6771  0.2885  0.5047
 3223TIP3    H231229   2.918   1.114   0.108 -0.9291 -0.4337 -0.2665
 3224TIP3   OH231230   4.195   5.860   1.951  0.5153  0.4716 -0.0810
 3224TIP3    H131231   4.278   5.907   1.948  1.1221 -0.4433  1.5299
 3224TIP3    H231232   4.219   5.768   1.960 -0.6856  0.1420 -0.0210
 3225TIP3   OH231233   3.891   3.672   1.317  0.0716 -0.3298  0.2613
 3225TIP3    H131234   3.835   3.749   1.304  0.0824 -0.4839 -0.8145
 3225TIP3    H231235   3.849   3.623   1.388 -0.8729 -0.1639 -0.1648
 3226TIP3   OH231236   2.874   3.172   1.554  0.4487 -0.1598 -0.5271
 3226TIP3    H131237   2.897   3.148   1.464 -2.1884 -0.0091 -1.3422
 3226TIP3    H231238   2.838   3.091   1.592 -0.2608  0.2570 -0.2884
 3227TIP3   OH231239   5.383   1.404   0.905 -0.0948  0.1650 -0.5062
 3227TIP3    H131240   5.452   1.460   0.941 -1.7541  0.2213  2.9212
 3227TIP3    H231241   5.327   1.464   0.856 -0.5884  1.1903  1.2134
 3228TIP3   OH231242   6.172   1.008   7.300 -0.5846 -0.2148 -0.1037
 3228TIP3    H131243   6.119   1.075   7.256 -0.1419  0.1946 -0.0158
 3228TIP3    H231244   6.253   1.053   7.325 -0.9551 -0.3230  1.4452
 3229TIP3   OH231245   1.514   0.768   6.254  0.2461 -0.2550  0.2200
 3229TIP3    H131246   1.432   0.722   6.271  0.0177  0.8449  2.5026
 3229TIP3    H231247   1.498   0.818   6.174 -0.8757 -1.0316 -0.0555
 3230TIP3   OH231248   1.171   2.506   6.942  0.2628 -0.6114  0.2050
 3230TIP3    H131249   1.177   2.412   6.926 -1.7736 -0.5721 -1.1720
 3230TIP3    H231250   1.223   2.546   6.872 -0.8026 -0.6858 -0.6520
 3231TIP3   OH231251   1.790   2.697   7.418  0.0420 -0.2353  0.2445
 3231TIP3    H131252   1.885   2.708   7.415  0.2073 -1.5204 -0.2127
 3231TIP3    H231253   1.772   2.634   7.348 -1.0369 -0.6945  0.9165
 3232TIP3   OH231254   5.815   4.482   2.039 -0.4676  0.4741  0.0628
 3232TIP3    H131255   5.814   4.535   1.959  1.2191  0.5470  0.0690
 3232TIP3    H231256   5.812   4.546   2.110  1.4022  0.6082  0.0678
 3233TIP3   OH231257   4.123   5.616   1.722 -0.1373  0.3731  0.1347
 3233TIP3    H131258   4.038   5.629   1.680 -0.0510  0.9805  0.1349
 3233TIP3    H231259   4.118   5.529   1.760 -0.7523  0.3951  0.1163
 3234TIP3   OH231260   0.245   3.087   8.511 -0.0248 -0.0227 -0.5345
 3234TIP3    H131261   0.254   3.128   8.597 -1.5219  0.7174 -0.6925
 3234TIP3    H231262   0.239   2.993   8.529  0.4289  0.0664  0.0946
 3235TIP3   OH231263   5.048   5.199   2.304  0.1444 -0.0805  0.3779
 3235TIP3    H131264   5.093   5.117   2.325 -0.2759  0.0921  2.1955
 3235TIP3    H231265   5.107   5.267   2.337 -0.6654  0.2147  1.2706
 3236TIP3   OH231266   6.263   3.420   2.379 -0.3164 -0.3215  0.1032
 3236TIP3    H131267   6.179   3.398   2.338 -0.0477  0.8327 -1.1275
 3236TIP3    H231268   6.238   3.471   2.457 -0.7813 -1.0664  0.4542
 3237TIP3   OH231269   1.528   1.022   0.103  0.4510  0.6700  0.0927
 3237TIP3    H131270   1.511   0.931   0.080 -1.8734  0.7193  1.2721
 3237TIP3    H231271   1.594   1.051   0.041  0.8437 -1.6508 -0.6576
 3238TIP3   OH231272   0.419   1.134   0.018 -0.0970  0.5310  0.0893
 3238TIP3    H131273   0.399   1.149  -0.075 -2.7038 -1.3823  0.2247
 3238TIP3    H231274   0.509   1.101   0.019 -0.0728  0.4326 -1.7675
 3239TIP3   OH231275   3.506   1.121   1.237  0.0219  0.2866 -0.3011
 3239TIP3    H131276   3.552   1.136   1.155 -1.0766  0.5999 -0.8788
 3239TIP3    H231277   3.571   1.082   1.295  0.6501 -0.4992 -1.5132
 3240TIP3   OH231278   5.196   3.610   0.296 -0.0756  0.1487 -0.1292
 3240TIP3    H131279   5.218   3.602   0.389  0.6295  0.2871 -0.2751
 3240TIP3    H231280   5.174   3.521   0.269  1.2741 -0.1912 -0.1923
 3241TIP3   OH231281   3.355   5.469   8.366  0.1860 -0.3580  0.2331
 3241TIP3    H131282   3.388   5.527   8.297  0.3624 -1.5954 -0.7463
 3241TIP3    H231283   3.280   5.516   8.402 -0.4707 -0.0673 -1.4238
 3242TIP3   OH231284   0.850   4.858   1.511  0.4562 -0.1684  0.0335
 3242TIP3    H131285   0.920   4.830   1.570  1.3242  1.2277 -0.2900
 3242TIP3    H231286   0.770   4.845   1.562  1.1513  0.6361  1.4131
 3243TIP3   OH231287   4.454   0.125   2.262 -0.4493 -0.1271  0.6071
 3243TIP3    H131288   4.365   0.141   2.232 -0.1228  1.7937  0.5180
 3243TIP3    H231289   4.459   0.168   2.347  0.2926 -0.4954  0.7599
 3244TIP3   OH231290   1.750   2.446   0.744 -0.3847 -0.2721 -0.1262
 3244TIP3    H131291   1.669   2.492   0.725 -0.1381  0.6458  0.8884
 3244TIP3    H231292   1.728   2.386   0.816 -0.7858 -2.0601 -1.6611
 3245TIP3   OH231293   6.576   5.028   7.508 -0.5229  0.5140 -0.3963
 3245TIP3    H131294   6.490   5.071   7.509 -1.0673 -0.5392 -0.5561
 3245TIP3    H231295   6.623   5.068   7.581 -2.0482 -0.6401  1.3060
 3246TIP3   OH231296   2.535   0.849   8.529 -0.0907  0.1307 -0.5851
 3246TIP3    H131297   2.623   0.812   8.542 -0.5779 -0.8321  0.1135
 3246TIP3    H231298   2.529   0.861   8.434  0.5371 -0.4600 -0.7147
 3247TIP3   OH231299   5.062   0.956   7.447 -0.1170  0.3681 -0.1882
 3247TIP3    H131300   5.095   1.042   7.421  1.2360 -0.5346 -1.6522
 3247TIP3    H231301   5.140   0.908   7.475 -0.8310 -0.4492  0.4577
 3248TIP3   OH231302   2.091   3.521   0.827 -0.2235 -0.0202 -0.5172
 3248TIP3    H131303   2.139   3.439   0.816  0.4802 -0.1920  2.8739
 3248TIP3    H231304   2.009   3.507   0.779  0.7653 -1.8311 -1.8049
 3249TIP3   OH231305   1.603   1.381   5.999 -0.3692 -0.1366  0.0108
 3249TIP3    H131306   1.669   1.438   6.039 -0.0214 -1.8613  2.0680
 3249TIP3    H231307   1.529   1.382   6.060 -1.2524 -0.1971 -1.0206
 3250TIP3   OH231308   2.492   2.984   8.660 -0.4941  0.2204 -0.1606
 3250TIP3    H131309   2.429   2.917   8.686 -0.9026  1.1583  1.3747
 3250TIP3    H231310   2.467   3.062   8.710  1.0418  1.0265 -0.5763
 3251TIP3   OH231311   1.930   3.474   7.232  0.3417  0.3000  0.0672
 3251TIP3    H131312   1.990   3.427   7.290 -1.0590  0.8712  2.0902
 3251TIP3    H231313   1.843   3.439   7.255 -0.4371  1.9110 -0.3042
 3252TIP3   OH231314   2.152   2.405   2.480 -0.3252  0.0521 -0.0753
 3252TIP3    H131315   2.203   2.406   2.399  0.6816  1.0303  0.5385
 3252TIP3    H231316   2.207   2.358   2.543 -0.8255 -0.1706  0.1964
 3253TIP3   OH231317   1.131   5.016   8.517  0.5208  0.5374  0.1227
 3253TIP3    H131318   1.080   5.070   8.457 -0.1520  0.3026  0.4845
 3253TIP3    H231319   1.078   4.938   8.531 -0.3737  1.5027  2.7295
 3254TIP3   OH231320   1.614   3.076   7.763  0.0747 -0.3202 -0.4400
 3254TIP3    H131321   1.633   3.000   7.708 -0.3238 -0.2101 -0.7388
 3254TIP3    H231322   1.663   3.148   7.722 -0.4683 -0.1723 -0.8357
 3255TIP3   OH231323   3.749   1.756   7.853 -0.2390  0.4359 -0.3657
 3255TIP3    H131324   3.687   1.762   7.926  1.1032  0.6108  0.8052
 3255TIP3    H231325   3.835   1.765   7.894  0.5247  1.4268 -2.1023
 3256TIP3   OH231326   1.250   5.921   2.002 -0.1382  0.0319  0.4906
 3256TIP3    H131327   1.236   5.827   1.986  0.0646 -0.0540  0.8177
 3256TIP3    H231328   1.253   5.929   2.097 -0.3748  0.4049  0.4644
 3257TIP3   OH231329   6.313   1.459   1.640 -0.0326 -0.0379 -0.4898
 3257TIP3    H131330   6.326   1.444   1.733 -0.3529  2.2874 -0.0194
 3257TIP3    H231331   6.396   1.493   1.608 -0.4976  1.0252 -0.6116
 3258TIP3   OH231332   6.783   5.793   7.239 -0.2917  0.0618 -0.0069
 3258TIP3    H131333   6.796   5.885   7.219  0.3472  0.1285  0.6781
 3258TIP3    H231334   6.809   5.747   7.159  0.2600  0.4278 -0.0395
 3259TIP3   OH231335   1.717   2.524   6.301  0.1375  0.3708 -0.6470
 3259TIP3    H131336   1.693   2.442   6.344  2.3054  0.4240  0.8278
 3259TIP3    H231337   1.634   2.571   6.291 -0.7771 -0.6958  1.3305
 3260TIP3   OH231338   1.936   6.026   7.523  0.1814  0.2831 -0.4052
 3260TIP3    H131339   1.945   6.066   7.610 -1.2056 -0.0571 -0.0686
 3260TIP3    H231340   1.908   6.098   7.467  1.9314  0.6983 -0.7968
 3261TIP3   OH231341   2.055   0.986   1.214  0.1338 -0.8196  0.0753
 3261TIP3    H131342   1.966   0.994   1.247  0.2818 -2.6110  1.0498
 3261TIP3    H231343   2.082   1.075   1.195 -2.3393 -0.3293 -1.5657
 3262TIP3   OH231344   4.228   5.126   6.527  0.3382  0.1030 -0.3043
 3262TIP3    H131345   4.173   5.203   6.508  1.1371  0.6929 -0.2615
 3262TIP3    H231346   4.317   5.160   6.530  0.4833 -0.3178  2.3586
 3263TIP3   OH231347   1.211   1.401   1.735  0.5911 -0.0928  0.2674
 3263TIP3    H131348   1.246   1.374   1.820 -2.9510 -1.7446  1.3811
 3263TIP3    H231349   1.180   1.491   1.750 -1.7300 -1.0010  1.4433
 3264TIP3   OH231350   5.496   1.700   1.445 -0.0215 -0.7320 -0.6520
 3264TIP3    H131351   5.505   1.617   1.492  1.0145 -1.0739 -1.4055
 3264TIP3    H231352   5.409   1.732   1.469 -0.9126 -2.5663 -1.1826
 3265TIP3   OH231353   0.555   6.319   8.494  0.5225 -0.0292 -0.2176
 3265TIP3    H131354   0.550   6.232   8.454 -1.2905 -0.5016  0.8778
 3265TIP3    H231355   0.478   6.323   8.551  2.7027  0.7113  2.9465
 3266TIP3   OH231356   4.886   2.457   1.900  0.3360 -0.0150 -0.2207
 3266TIP3    H131357   4.792   2.461   1.881  0.2030  1.5626  0.5504
 3266TIP3    H231358   4.923   2.408   1.827 -1.3349 -2.6144  0.5453
 3267TIP3   OH231359   5.606   6.243   0.545  0.5351 -0.0949  0.6669
 3267TIP3    H131360   5.533   6.200   0.590 -0.0216 -1.3478 -1.2855
 3267TIP3    H231361   5.570   6.326   0.515 -0.5370 -1.1898 -1.2827
 3268TIP3   OH231362   3.747   4.090   2.188  0.1849 -0.6021 -0.1646
 3268TIP3    H131363   3.705   4.022   2.241  2.0531 -0.3441  1.8090
 3268TIP3    H231364   3.681   4.158   2.179 -0.0725 -0.4189  2.3708
 3269TIP3   OH231365   5.242   6.503   2.067 -0.6231 -0.0211  0.4105
 3269TIP3    H131366   5.216   6.520   2.157  0.8194  0.1135  0.8271
 3269TIP3    H231367   5.306   6.432   2.074  0.2963  0.7189 -0.3993
 3270TIP3   OH231368   4.815   0.901   0.811  0.0999  0.4393  0.3833
 3270TIP3    H131369   4.734   0.912   0.861 -0.1446  3.5634 -0.4834
 3270TIP3    H231370   4.879   0.870   0.876 -1.2691 -0.0244  1.5643
 3271TIP3   OH231371   5.336   5.782   8.345  0.7012  0.1027  0.0508
 3271TIP3    H131372   5.360   5.768   8.253 -0.3565 -0.3862 -0.1646
 3271TIP3    H231373   5.339   5.695   8.384 -1.3303 -0.1129 -0.1587
 3272TIP3   OH231374   4.476   0.224   8.618  0.3088  0.7597  0.5944
 3272TIP3    H131375   4.538   0.177   8.562  0.2259  0.8540  0.4215
 3272TIP3    H231376   4.474   0.173   8.699  0.1749  0.4262  0.3863
 3273TIP3   OH231377   5.549   2.750   7.843  0.8121 -0.4719  0.0141
 3273TIP3    H131378   5.479   2.691   7.816 -0.0160  0.2058  0.6281
 3273TIP3    H231379   5.558   2.737   7.937 -0.9022  1.8800  0.5949
 3274TIP3   OH231380   6.069   0.520   0.763  0.0219  0.1580  0.2519
 3274TIP3    H131381   6.036   0.462   0.832 -1.6178 -0.3580 -0.8997
 3274TIP3    H231382   6.007   0.509   0.691  0.9979  1.6004 -0.8666
 3275TIP3   OH231383   0.361   1.448   7.479  0.0134  0.0140  0.5896
 3275TIP3    H131384   0.454   1.427   7.471  0.4912  1.3664  2.0734
 3275TIP3    H231385   0.331   1.461   7.389  1.1941 -0.6424  0.0756
 3276TIP3   OH231386   4.584   6.130   7.652 -0.0921 -0.3692 -0.4557
 3276TIP3    H131387   4.552   6.071   7.721  0.7460  1.2051  1.3845
 3276TIP3    H231388   4.595   6.215   7.696  0.1507  0.8088 -2.6382
 3277TIP3   OH231389   0.674   2.064   0.855  0.0377 -0.5763  0.6207
 3277TIP3    H131390   0.747   2.092   0.799 -0.0691 -0.4847  0.5268
 3277TIP3    H231391   0.659   1.973   0.830 -0.6086 -0.2758 -0.1615
 3278TIP3   OH231392   6.238   0.195   6.609 -0.6800 -0.3701  0.3306
 3278TIP3    H131393   6.315   0.153   6.648 -0.9672 -1.2389 -0.0040
 3278TIP3    H231394   6.273   0.269   6.561 -0.1620 -0.1599  1.0106
 3279TIP3   OH231395   5.017   1.484   1.649 -0.1458  0.2170  0.1725
 3279TIP3    H131396   5.000   1.438   1.566 -0.1930  3.1619 -1.5819
 3279TIP3    H231397   5.098   1.444   1.682  0.1143 -0.7456 -1.5235
 3280TIP3   OH231398   5.425   5.909   1.839 -0.9016  0.6570  0.2259
 3280TIP3    H131399   5.458   5.920   1.928  0.8464 -2.0082  0.0173
 3280TIP3    H231400   5.473   5.974   1.787  0.7681 -0.1551  0.6936
 3281TIP3   OH231401   2.615   2.437   7.080  0.3385  0.5864 -0.3271
 3281TIP3    H131402   2.657   2.353   7.061 -0.8224  0.0012 -0.3762
 3281TIP3    H231403   2.688   2.499   7.086  1.1891 -0.3537 -0.6245
 3282TIP3   OH231404   0.848   4.758   2.368 -0.0111  0.1374  0.5668
 3282TIP3    H131405   0.845   4.663   2.373 -1.0567  0.0160 -1.4624
 3282TIP3    H231406   0.912   4.784   2.435 -0.4324 -1.8939  1.8413
 3283TIP3   OH231407   6.674   0.706   8.365  0.2254  0.8324  0.1660
 3283TIP3    H131408   6.645   0.704   8.456 -2.1356  0.6405 -0.5235
 3283TIP3    H231409   6.759   0.663   8.366 -0.0410  0.2574  2.1991
 3284TIP3   OH231410   6.592   1.766   8.652  0.4497  0.3546  0.1083
 3284TIP3    H131411   6.542   1.848   8.650  0.5913  0.5055  1.6842
 3284TIP3    H231412   6.579   1.733   8.740 -0.1935 -1.7169 -0.7093
 3285TIP3   OH231413   4.186   2.051   1.623  0.6529 -0.4862  0.3908
 3285TIP3    H131414   4.190   2.109   1.700  0.4777 -1.5649  1.2409
 3285TIP3    H231415   4.109   1.997   1.638  1.6844 -2.0099  0.4078
 3286TIP3   OH231416   0.111   1.939   7.274 -0.5337  0.6177 -0.5720
 3286TIP3    H131417   0.138   1.991   7.198 -0.1449  1.2771  0.0096
 3286TIP3    H231418   0.193   1.905   7.310 -0.6273  1.0585  0.0809
 3287TIP3   OH231419   0.580   2.701   8.215 -0.1374 -0.0236 -0.6574
 3287TIP3    H131420   0.534   2.709   8.131 -0.0168  1.9892 -0.5685
 3287TIP3    H231421   0.510   2.703   8.280 -0.1358 -0.2142 -0.6490
 3288TIP3   OH231422   1.111   0.500   0.874 -0.7306 -0.1384 -0.1082
 3288TIP3    H131423   1.041   0.549   0.831 -0.2949  0.5594 -0.0398
 3288TIP3    H231424   1.066   0.427   0.917 -1.5411  0.7933  0.6817
 3289TIP3   OH231425   5.322   5.533   0.347  0.2449 -0.6218 -0.1978
 3289TIP3    H131426   5.280   5.455   0.312  2.6185 -1.1548 -2.0720
 3289TIP3    H231427   5.253   5.600   0.348 -1.1201 -1.9742 -1.2056
 3290TIP3   OH231428   4.793   0.246   8.139 -0.0712 -0.0671 -0.6975
 3290TIP3    H131429   4.709   0.265   8.179  0.1223  0.6216 -0.6089
 3290TIP3    H231430   4.802   0.311   8.069  0.0464 -0.6117 -1.1961
 3291TIP3   OH231431   5.166   1.484   1.898 -0.4817  0.2769 -0.3496
 3291TIP3    H131432   5.120   1.525   1.971 -1.0244 -1.0914  0.1055
 3291TIP3    H231433   5.240   1.439   1.939  1.1943  2.2350 -1.0394
 3292TIP3   OH231434   0.122   4.754   1.582  0.1049 -0.5426 -0.1367
 3292TIP3    H131435   0.151   4.818   1.647  1.5503 -2.1652  0.9053
 3292TIP3    H231436   0.184   4.764   1.510  1.4093 -1.8298  0.7389
 3293TIP3   OH231437   0.836   1.799   8.258  0.1547 -0.1214  0.0612
 3293TIP3    H131438   0.831   1.862   8.186  0.3036  0.7800  0.8334
 3293TIP3    H231439   0.745   1.779   8.279  0.0744  1.0106  0.8283
 3294TIP3   OH231440   1.317   2.451   1.454  0.1538  0.2306  0.0408
 3294TIP3    H131441   1.240   2.506   1.468 -0.3297 -0.8579  1.9707
 3294TIP3    H231442   1.332   2.408   1.538  2.9024  0.4079 -0.2729
 3295TIP3   OH231443   1.346   5.780   8.016 -0.1953 -0.0892  0.3730
 3295TIP3    H131444   1.312   5.858   8.061 -1.1992 -0.2931 -0.0071
 3295TIP3    H231445   1.375   5.723   8.087  0.4936  0.5909  0.6613
 3296TIP3   OH231446   6.510   1.649   7.978  0.2704 -0.7147 -0.7666
 3296TIP3    H131447   6.599   1.684   7.981 -0.4754  1.2084  1.3159
 3296TIP3    H231448   6.458   1.718   7.939 -0.4677 -1.4995 -1.2145
 3297TIP3   OH231449   3.802   3.745   0.586 -0.2644 -0.3817 -0.5146
 3297TIP3    H131450   3.759   3.720   0.504  0.8865 -1.2718 -0.8720
 3297TIP3    H231451   3.895   3.723   0.572  0.2081  0.8712  0.4655
 3298TIP3   OH231452   3.392   6.456   7.122  0.5446  0.2492 -0.4065
 3298TIP3    H131453   3.444   6.535   7.134 -0.0404  0.4531  0.9890
 3298TIP3    H231454   3.308   6.476   7.164  0.9178 -1.6292  1.3795
 3299TIP3   OH231455   2.045   5.068   8.204  0.2691 -0.1926 -0.0565
 3299TIP3    H131456   2.087   5.039   8.285 -0.5413 -0.2713  0.3417
 3299TIP3    H231457   2.045   5.163   8.210  0.6767 -0.1816 -0.2067
 3300TIP3   OH231458   5.365   6.839   6.746 -0.4999  0.2499  0.1148
 3300TIP3    H131459   5.322   6.916   6.783 -1.3192  0.0462 -0.3816
 3300TIP3    H231460   5.459   6.858   6.754 -0.6850  1.2173  0.1607
 3301TIP3   OH231461   3.582   4.561   7.792 -0.0458  0.5603 -0.7069
 3301TIP3    H131462   3.562   4.588   7.882 -0.2934  0.3835 -0.7076
 3301TIP3    H231463   3.513   4.499   7.770  0.0724  0.5270 -0.9852
 3302TIP3   OH231464   0.935   1.237   6.923  0.1481 -0.7005 -0.4116
 3302TIP3    H131465   0.983   1.312   6.958  0.2999 -1.7285  1.7439
 3302TIP3    H231466   0.871   1.276   6.862  0.6801  1.0982  0.1227
 3303TIP3   OH231467   4.410   4.536   1.023 -0.1311 -0.5804 -0.2787
 3303TIP3    H131468   4.487   4.482   1.006  0.9984  0.5082  1.1629
 3303TIP3    H231469   4.397   4.530   1.117 -2.2708 -1.2875 -0.5686
 3304TIP3   OH231470   3.704   5.794   1.329 -0.6592  0.9067  0.1542
 3304TIP3    H131471   3.789   5.833   1.309 -0.1933 -0.1547  0.0319
 3304TIP3    H231472   3.683   5.827   1.417 -0.1507  1.2207  0.1603
 3305TIP3   OH231473   1.667   4.885   7.123 -0.2895 -0.4157  0.1247
 3305TIP3    H131474   1.611   4.950   7.166  1.4151  1.5334 -0.4376
 3305TIP3    H231475   1.640   4.887   7.031  0.8381  0.7531 -0.2062
 3306TIP3   OH231476   1.399   5.076   7.078 -0.3662  0.3432  0.5785
 3306TIP3    H131477   1.408   5.020   7.001 -1.5218  1.2412 -0.2531
 3306TIP3    H231478   1.305   5.076   7.096 -0.0719 -0.2487  2.3190
 3307TIP3   OH231479   6.493   2.592   8.574  0.1512 -0.0807  0.1629
 3307TIP3    H131480   6.433   2.605   8.501  0.8204 -1.2412 -0.6248
 3307TIP3    H231481   6.469   2.660   8.637 -1.3683  0.0615 -0.5216
 3308TIP3   OH231482   6.679   0.774   2.136 -0.0833  0.0658 -0.0048
 3308TIP3    H131483   6.724   0.809   2.214  0.1889  0.1321 -0.1909
 3308TIP3    H231484   6.595   0.742   2.170 -0.1472  0.4864  0.2446
 3309TIP3   OH231485   3.275   5.952   7.121  0.1760 -0.2531  0.1077
 3309TIP3    H131486   3.204   6.015   7.106 -0.9266 -1.5361 -0.2671
 3309TIP3    H231487   3.341   5.975   7.056 -0.2630  0.4455 -0.1075
 3310TIP3   OH231488   6.165   1.338   2.463  0.2020  0.3868  0.6940
 3310TIP3    H131489   6.244   1.349   2.411 -0.2498 -0.5145 -0.2051
 3310TIP3    H231490   6.194   1.290   2.541  0.7060  0.9014  0.8273
 3311TIP3   OH231491   0.916   1.850   0.281 -0.4724 -0.1436 -0.9086
 3311TIP3    H131492   0.959   1.921   0.233  0.6770 -0.8938 -1.0134
 3311TIP3    H231493   0.956   1.770   0.246 -0.3264 -0.7564  0.6117
 3312TIP3   OH231494   6.118   6.672   0.804  0.3250  0.3678 -1.0373
 3312TIP3    H131495   6.047   6.660   0.741  0.0272 -0.3876 -0.5699
 3312TIP3    H231496   6.120   6.767   0.820  1.4235  0.7902 -3.3108
 3313TIP3   OH231497   2.417   0.415   7.565 -0.5342  0.4208 -0.1815
 3313TIP3    H131498   2.410   0.397   7.472  1.8823  0.0895 -0.3606
 3313TIP3    H231499   2.326   0.428   7.594 -1.2896  1.4944 -2.7340
 3314TIP3   OH231500   5.602   5.275   2.216 -0.1364  0.2841 -0.6224
 3314TIP3    H131501   5.535   5.214   2.186  0.2824 -0.9109  0.7864
 3314TIP3    H231502   5.642   5.233   2.292  0.7935  1.9082 -0.1462
 3315TIP3   OH231503   6.856   3.881   8.512  0.1900 -0.1130  0.1561
 3315TIP3    H131504   6.911   3.873   8.434  0.5326  0.5552  0.3195
 3315TIP3    H231505   6.918   3.884   8.585 -0.0931  0.0526  0.3908
 3316TIP3   OH231506   5.826   1.022   0.683  0.5238 -0.0130  0.0764
 3316TIP3    H131507   5.870   1.059   0.607 -0.4942 -0.0294 -0.5346
 3316TIP3    H231508   5.740   0.993   0.650  0.7297 -1.6108  0.8280
 3317TIP3   OH231509   6.504   6.235   8.207 -0.0354 -0.1308  0.5570
 3317TIP3    H131510   6.480   6.160   8.262 -0.8773 -0.4079 -0.1641
 3317TIP3    H231511   6.422   6.263   8.167  0.4772  0.3842 -0.1601
 3318TIP3   OH231512   0.829   2.726   1.583  0.2516 -0.7853 -0.1432
 3318TIP3    H131513   0.766   2.659   1.611 -0.5381 -0.2469 -0.5907
 3318TIP3    H231514   0.832   2.788   1.655 -1.5660  0.4505 -1.0561
 3319TIP3   OH231515   3.415   5.654   1.348  0.2949 -0.1406 -0.4964
 3319TIP3    H131516   3.392   5.690   1.263 -1.0160 -0.3863 -0.2712
 3319TIP3    H231517   3.447   5.730   1.398 -0.8916  0.4316 -0.5533
 3320TIP3   OH231518   0.517   2.239   1.383 -0.5039  0.5248 -0.0376
 3320TIP3    H131519   0.432   2.238   1.337  0.0559 -0.2326 -1.0891
 3320TIP3    H231520   0.580   2.211   1.317  0.5180  0.6684  0.8573
 3321TIP3   OH231521   0.621   4.547   0.028 -0.1313  0.2367  0.4471
 3321TIP3    H131522   0.605   4.544   0.122 -1.5905 -1.0317  0.1994
 3321TIP3    H231523   0.682   4.475   0.011  1.6215  1.6142  0.6313
 3322TIP3   OH231524   4.729   6.118   2.116  0.2190 -0.2941 -0.3299
 3322TIP3    H131525   4.731   6.133   2.210  0.4469 -0.4523 -0.3062
 3322TIP3    H231526   4.760   6.200   2.077  1.5711 -0.7203 -0.1999
 3323TIP3   OH231527   5.241   4.916   1.046  0.0364  0.1918  0.2319
 3323TIP3    H131528   5.251   4.952   1.134  1.6036 -0.1831  0.2450
 3323TIP3    H231529   5.199   4.831   1.059 -0.2785  0.3975  0.5600
 3324TIP3   OH231530   3.906   3.508   6.734 -0.5549 -0.0807 -0.1130
 3324TIP3    H131531   3.901   3.418   6.766 -3.7168 -0.7395 -1.9940
 3324TIP3    H231532   3.819   3.545   6.751  0.1855  2.1257 -0.7539
 3325TIP3   OH231533   4.147   6.231   7.673 -0.5055  0.2011  0.1503
 3325TIP3    H131534   4.163   6.309   7.726  0.7897 -0.4381  0.7331
 3325TIP3    H231535   4.147   6.159   7.736 -1.3577 -0.3180 -0.4265
 3326TIP3   OH231536   1.666   3.493   1.884 -0.0416 -0.2771  0.6736
 3326TIP3    H131537   1.745   3.508   1.831 -0.0140 -1.5366  0.3281
 3326TIP3    H231538   1.699   3.466   1.969 -0.0799 -1.5018  0.3166
 3327TIP3   OH231539   1.984   4.225   6.721 -0.1292  0.1523  0.3562
 3327TIP3    H131540   1.912   4.164   6.737  0.8445 -0.9891  0.5452
 3327TIP3    H231541   1.945   4.312   6.732 -0.9518 -0.4419  2.7776
 3328TIP3   OH231542   1.820   3.281   7.966 -0.2256 -0.3175  0.2099
 3328TIP3    H131543   1.733   3.317   7.951 -0.0567 -0.5671 -1.5838
 3328TIP3    H231544   1.863   3.344   8.025 -1.0421  0.6861 -0.2471
 3329TIP3   OH231545   2.141   2.015   8.457 -0.0058  0.0469 -0.3431
 3329TIP3    H131546   2.204   2.087   8.458  1.4267 -1.1564 -0.2041
 3329TIP3    H231547   2.124   1.997   8.549  0.9086 -0.8291 -0.3294
 3330TIP3   OH231548   2.501   4.088   0.134  0.0876  1.2903 -0.2831
 3330TIP3    H131549   2.432   4.143   0.097 -1.3610 -0.6299 -0.5378
 3330TIP3    H231550   2.540   4.043   0.060 -1.5499 -1.1239  0.2174
 3331TIP3   OH231551   5.692   0.971   7.064 -0.3383  0.2513  0.5886
 3331TIP3    H131552   5.619   1.005   7.012  0.2605  2.0298  0.8477
 3331TIP3    H231553   5.767   0.972   7.005  0.1989  1.6448  1.2610
 3332TIP3   OH231554   0.132   5.533   6.336 -0.1245 -0.1458 -0.8184
 3332TIP3    H131555   0.175   5.505   6.416  0.9053 -1.2370 -1.7112
 3332TIP3    H231556   0.039   5.535   6.357  0.0272 -1.6103  0.0499
 3333TIP3   OH231557   2.279   4.817   0.251 -0.3721 -0.1502 -0.1751
 3333TIP3    H131558   2.370   4.849   0.249 -0.0428 -1.0460 -2.0498
 3333TIP3    H231559   2.270   4.775   0.336  1.5462 -1.4811 -0.5516
 3334TIP3   OH231560   4.528   6.783   6.692  1.2121  0.3917 -0.3452
 3334TIP3    H131561   4.495   6.739   6.613  0.5000 -2.2532  1.3094
 3334TIP3    H231562   4.623   6.778   6.684  1.1498  0.1956 -1.0471
 3335TIP3   OH231563   0.264   1.915   7.552 -0.1564  0.5991 -0.0097
 3335TIP3    H131564   0.308   1.957   7.478  1.3193  0.5754  0.8264
 3335TIP3    H231565   0.238   1.829   7.520 -1.0611  1.2213 -1.0038
 3336TIP3   OH231566   3.096   3.279   8.584  0.2308  0.3917  0.5431
 3336TIP3    H131567   3.050   3.243   8.507 -0.1528  0.3378  0.7972
 3336TIP3    H231568   3.118   3.369   8.559 -0.4809  0.5879  0.6212
 3337TIP3   OH231569   2.912   0.709   0.097  0.0692 -0.2448 -0.1612
 3337TIP3    H131570   2.883   0.776   0.035  1.3716  1.0574  0.5834
 3337TIP3    H231571   2.832   0.685   0.145 -0.6484 -0.1509 -1.2748
 3338TIP3   OH231572   3.463   6.313   1.085 -0.8345 -0.1900 -0.1722
 3338TIP3    H131573   3.551   6.289   1.053 -0.0681  2.8811 -0.6972
 3338TIP3    H231574   3.415   6.231   1.085  1.1653 -1.5243 -2.7601
 3339TIP3   OH231575   1.280   4.376   7.787 -0.6037  0.3062  0.3046
 3339TIP3    H131576   1.186   4.388   7.778 -0.4397  1.0726 -0.4970
 3339TIP3    H231577   1.310   4.349   7.701 -0.3851 -2.3519  1.1146
 3340TIP3   OH231578   0.457   6.580   0.361  0.2768 -0.1632  0.0493
 3340TIP3    H131579   0.371   6.565   0.323  0.2889 -2.1002  0.6897
 3340TIP3    H231580   0.483   6.496   0.398  2.1258  0.5564  0.5482
 3341TIP3   OH231581   3.688   3.052   0.584 -0.6931  0.1235 -0.4355
 3341TIP3    H131582   3.780   3.028   0.595 -1.2205 -2.4328 -1.0013
 3341TIP3    H231583   3.651   3.046   0.673 -0.1062  2.4006  0.0138
 3342TIP3   OH231584   3.380   2.584   2.471  0.0677 -0.3393  0.1557
 3342TIP3    H131585   3.366   2.555   2.380 -2.1360 -0.6883  0.5587
 3342TIP3    H231586   3.381   2.679   2.465  0.3362 -0.3635 -0.2869
 3343TIP3   OH231587   5.932   4.215   7.205  0.3602  0.1725 -0.0299
 3343TIP3    H131588   5.931   4.223   7.109 -1.9112 -0.6680 -0.1348
 3343TIP3    H231589   5.877   4.287   7.236 -0.9223 -0.9710  0.4530
 3344TIP3   OH231590   1.076   2.063   8.204  0.0576  0.3856 -0.5199
 3344TIP3    H131591   0.989   2.086   8.236 -0.4506 -1.6407 -0.3422
 3344TIP3    H231592   1.061   1.991   8.143  1.7216 -1.1475  0.7766
 3345TIP3   OH231593   5.396   2.355   2.279  0.3910  0.2962  0.2795
 3345TIP3    H131594   5.467   2.419   2.281  0.3583  0.3373  2.4082
 3345TIP3    H231595   5.326   2.395   2.330 -0.4831 -0.5252 -0.2447
 3346TIP3   OH231596   5.448   4.791   6.225 -0.0897  0.6644 -0.1823
 3346TIP3    H131597   5.389   4.783   6.301 -0.6970  2.8493 -0.3349
 3346TIP3    H231598   5.535   4.804   6.263  0.2525 -1.8726  0.0529
 3347TIP3   OH231599   4.607   2.376   6.443 -0.2880 -0.9397  0.1129
 3347TIP3    H131600   4.568   2.460   6.419  1.5549 -0.8153 -3.0428
 3347TIP3    H231601   4.699   2.396   6.461 -0.0577 -2.1497  0.3941
 3348TIP3   OH231602   3.311   1.006   7.031 -0.0592 -0.3073  0.3577
 3348TIP3    H131603   3.248   1.005   7.103 -1.0813 -0.4630 -0.5112
 3348TIP3    H231604   3.375   0.938   7.055  0.1835  0.3128  1.5713
 3349TIP3   OH231605   5.635   5.598   1.036 -0.4381  0.2845  0.5567
 3349TIP3    H131606   5.634   5.686   1.074 -2.0306 -0.8692  3.4413
 3349TIP3    H231607   5.544   5.579   1.015 -0.1648 -0.8537  0.3303
 3350TIP3   OH231608   2.521   5.427   8.249  0.2831 -0.1323  0.0650
 3350TIP3    H131609   2.507   5.503   8.194  2.2000  0.4241  0.3058
 3350TIP3    H231610   2.499   5.457   8.337  1.2300  0.2126  0.1887
 3351TIP3   OH231611   0.489   5.998   7.159 -0.1024 -0.1367 -0.1484
 3351TIP3    H131612   0.497   5.959   7.071 -2.1325 -0.3728 -0.2796
 3351TIP3    H231613   0.564   5.964   7.207  0.6385 -0.6101 -1.5826
 3352TIP3   OH231614   1.841   3.510   1.693  0.5235  0.4149 -0.2600
 3352TIP3    H131615   1.830   3.563   1.613 -0.5097  1.3965  0.5013
 3352TIP3    H231616   1.925   3.465   1.680  0.9663  1.4865 -1.3758
 3353TIP3   OH231617   3.547   2.683   8.083  0.0691  0.0230 -0.2952
 3353TIP3    H131618   3.467   2.735   8.080  0.1841  0.1681 -1.2806
 3353TIP3    H231619   3.524   2.600   8.043  0.5717  0.3149 -1.2206
 3354TIP3   OH231620   2.632   4.946   0.847 -0.0199  0.0743 -0.7093
 3354TIP3    H131621   2.631   5.039   0.869 -1.4861  0.4018 -2.0160
 3354TIP3    H231622   2.556   4.934   0.790  0.8894 -1.6694 -1.6210
 3355TIP3   OH231623   0.399   5.114   0.127  0.5590 -0.4781 -0.3995
 3355TIP3    H131624   0.448   5.176   0.073  0.3552 -1.5113 -1.8130
 3355TIP3    H231625   0.442   5.030   0.114 -0.0204 -0.9156  0.3798
 3356TIP3   OH231626   0.458   2.968   1.102  0.2942  0.1268 -0.4427
 3356TIP3    H131627   0.434   2.906   1.032 -1.7319 -1.0587  1.1940
 3356TIP3    H231628   0.530   2.926   1.148  0.6982  0.2664 -0.9293
 3357TIP3   OH231629   5.405   2.709   7.348 -0.8430 -0.1072 -0.1422
 3357TIP3    H131630   5.449   2.716   7.433 -0.1653 -0.4884 -0.4509
 3357TIP3    H231631   5.381   2.799   7.327 -0.7994  0.0232  0.3371
 3358TIP3   OH231632   6.203   3.144   0.743 -0.1962 -0.3730 -0.0557
 3358TIP3    H131633   6.277   3.098   0.704  0.7487  0.0571  1.1671
 3358TIP3    H231634   6.174   3.205   0.675  1.3094  0.2613 -0.1753
 3359TIP3   OH231635   6.515   4.300   7.286 -0.6245 -0.1867 -0.7790
 3359TIP3    H131636   6.545   4.270   7.372 -0.0539  2.7584  0.1493
 3359TIP3    H231637   6.422   4.278   7.284 -0.2391 -2.0348 -0.2739
 3360TIP3   OH231638   1.823   2.381   8.030  0.2149  0.2471 -0.1531
 3360TIP3    H131639   1.803   2.384   8.123 -1.1443 -0.8521 -0.3766
 3360TIP3    H231640   1.740   2.360   7.988  1.3299 -2.2218 -1.3528
 3361TIP3   OH231641   2.792   3.163   0.106  0.0520 -0.5784 -0.2777
 3361TIP3    H131642   2.879   3.125   0.113  0.1770 -0.3246 -0.4641
 3361TIP3    H231643   2.738   3.110   0.166  0.4558 -0.3730  0.2743
 3362TIP3   OH231644   0.839   1.541   8.165 -1.1400  0.1202  0.3049
 3362TIP3    H131645   0.861   1.630   8.194  0.4010 -0.3928  0.8279
 3362TIP3    H231646   0.869   1.537   8.074  2.2211 -0.8748  1.2868
 3363TIP3   OH231647   0.467   3.739   1.269 -0.5061  0.4228  0.2721
 3363TIP3    H131648   0.489   3.829   1.245 -0.1772  0.2362 -0.1439
 3363TIP3    H231649   0.505   3.686   1.199 -0.7564 -0.0344  0.4806
 3364TIP3   OH231650   5.322   5.378   8.389  0.9065 -0.3260  0.7637
 3364TIP3    H131651   5.345   5.419   8.472 -1.0545  1.2136  0.6192
 3364TIP3    H231652   5.275   5.446   8.340 -1.7830 -2.4037  0.1576
 3365TIP3   OH231653   1.837   4.006   8.152  0.1583  0.0352  0.1332
 3365TIP3    H131654   1.836   4.080   8.092 -1.0945 -0.3340 -0.3245
 3365TIP3    H231655   1.753   4.010   8.197  0.7466 -0.1649  1.2919
 3366TIP3   OH231656   5.085   6.468   7.226 -0.0131  0.2942  0.0833
 3366TIP3    H131657   5.159   6.481   7.167 -1.4180  0.8769 -1.6489
 3366TIP3    H231658   5.019   6.425   7.172 -0.1238 -2.4956  2.2330
 3367TIP3   OH231659   2.156   4.836   7.654 -0.2668  0.1548 -0.0449
 3367TIP3    H131660   2.064   4.853   7.632 -0.3941 -3.5261 -3.5631
 3367TIP3    H231661   2.206   4.893   7.596 -0.4497 -0.7231 -1.0909
 3368TIP3   OH231662   1.705   4.225   8.698 -0.6841 -0.1209 -0.0869
 3368TIP3    H131663   1.694   4.314   8.663 -0.5816  1.0524  2.5951
 3368TIP3    H231664   1.791   4.226   8.740 -0.5371 -1.6079 -0.3165
 3369TIP3   OH231665   0.039   0.173   0.952  0.4746 -0.0760 -0.1873
 3369TIP3    H131666  -0.009   0.248   0.987 -2.1613 -1.7190 -0.0191
 3369TIP3    H231667   0.025   0.178   0.857 -0.2651 -0.6426 -0.1241
 3370TIP3   OH231668   2.570   0.878   6.681  0.1955 -0.2275  0.7587
 3370TIP3    H131669   2.593   0.966   6.651  0.4860 -0.4505  0.3185
 3370TIP3    H231670   2.647   0.847   6.727  0.2583 -0.4246  0.5218
 3371TIP3   OH231671   4.179   0.148   2.151  0.3001  0.5538 -0.7105
 3371TIP3    H131672   4.085   0.158   2.133  0.1929  1.5867  0.2960
 3371TIP3    H231673   4.208   0.079   2.091 -1.0828  0.2706 -1.0874
 3372TIP3   OH231674   0.272   4.722   7.163 -0.2210 -0.0200  0.1393
 3372TIP3    H131675   0.176   4.726   7.163 -0.2991 -1.4640 -0.0634
 3372TIP3    H231676   0.294   4.689   7.076  0.5304  1.2649 -0.1804
 3373TIP3   OH231677   5.357   5.593   7.796 -0.1843  0.1433  0.2857
 3373TIP3    H131678   5.451   5.602   7.786 -0.5166  2.2229 -1.6669
 3373TIP3    H231679   5.343   5.589   7.891  1.7251  1.7098  0.6885
 3374TIP3   OH231680   2.735   0.928   0.934  0.5809 -0.1276  0.0586
 3374TIP3    H131681   2.670   0.991   0.965  0.7670 -0.0488  0.2950
 3374TIP3    H231682   2.702   0.900   0.849  0.9322  0.9489 -0.4583
 3375TIP3   OH231683   5.995   5.370   7.997 -0.5165 -0.5923 -0.0490
 3375TIP3    H131684   6.064   5.382   7.932  0.3511  1.0452  1.0915
 3375TIP3    H231685   5.988   5.276   8.009  0.2320 -0.8600 -1.5193
 3376TIP3   OH231686   1.248   3.224   7.818 -0.3374  0.3709 -0.2013
 3376TIP3    H131687   1.276   3.137   7.847 -0.5337 -0.0450 -1.2221
 3376TIP3    H231688   1.183   3.251   7.882 -1.6529 -1.0472 -0.8628
 3377TIP3   OH231689   3.009   0.740   1.164 -0.1338 -0.0251  0.3619
 3377TIP3    H131690   3.062   0.773   1.091 -1.5400  1.3335 -0.0997
 3377TIP3    H231691   3.030   0.798   1.237  1.8006 -1.8072  1.3269
 3378TIP3   OH231692   1.111   4.480   8.640  0.1768  0.1659  0.6452
 3378TIP3    H131693   1.087   4.390   8.620 -2.7665  1.0310 -0.2918
 3378TIP3    H231694   1.175   4.503   8.573 -3.3287  0.4049 -3.0149
 3379TIP3   OH231695   2.291   0.963   0.527 -0.3746  0.1211 -0.6905
 3379TIP3    H131696   2.297   1.022   0.602 -0.4914  0.2666 -0.7935
 3379TIP3    H231697   2.311   0.877   0.562 -1.2340  0.0580 -0.3210
 3380TIP3   OH231698   2.933   6.712   0.027 -0.2677  0.0123  0.4922
 3380TIP3    H131699   2.940   6.661   0.108 -0.8636 -0.5634  0.1916
 3380TIP3    H231700   2.970   6.797   0.049  0.7538 -0.5472  1.0078
 3381TIP3   OH231701   6.305   4.932   6.955 -0.0466  0.7253  0.3416
 3381TIP3    H131702   6.212   4.907   6.950 -0.3172  1.7565  0.0316
 3381TIP3    H231703   6.330   4.913   7.045 -0.5147  0.2758  0.3802
 3382TIP3   OH231704   5.124   3.031   0.491 -0.2911 -0.0993 -0.0507
 3382TIP3    H131705   5.085   3.007   0.407 -2.4417 -0.9042  1.1197
 3382TIP3    H231706   5.211   3.064   0.468 -1.4504  1.4068 -2.7701
 3383TIP3   OH231707   2.381   3.391   0.676 -0.6583 -0.0210  1.1429
 3383TIP3    H131708   2.422   3.473   0.703  0.3794 -0.3659  0.7087
 3383TIP3    H231709   2.383   3.336   0.754  2.1654 -0.9526  0.5727
 3384TIP3   OH231710   3.717   4.506   1.149 -0.1565 -0.1638 -0.0603
 3384TIP3    H131711   3.708   4.458   1.067  1.4877 -0.6219 -0.0038
 3384TIP3    H231712   3.628   4.512   1.183 -0.7239 -0.8883 -1.3510
 3385TIP3   OH231713   3.047   3.008   8.070 -0.1135  0.4186  0.6062
 3385TIP3    H131714   3.030   2.993   7.977  0.7398  1.4337  0.2656
 3385TIP3    H231715   3.139   2.983   8.082  0.1224  1.3794  0.9133
 3386TIP3   OH231716   3.043   2.025   0.942 -0.4820  0.1207  0.0550
 3386TIP3    H131717   3.059   1.937   0.978 -2.4516 -1.0666 -1.6954
 3386TIP3    H231718   3.123   2.047   0.895 -0.3838 -1.3253 -0.5065
 3387TIP3   OH231719   2.101   4.141   0.415 -0.0982 -0.0309  0.6665
 3387TIP3    H131720   2.033   4.206   0.434  0.2900 -0.1197  2.5208
 3387TIP3    H231721   2.167   4.155   0.483  1.0381 -0.9302 -0.2183
 3388TIP3   OH231722   6.546   6.832   1.509 -0.1983  0.3679  0.6712
 3388TIP3    H131723   6.510   6.746   1.489 -2.2888  0.7003  2.6108
 3388TIP3    H231724   6.500   6.893   1.451  0.7405  0.2900 -0.1770
 3389TIP3   OH231725   1.069   2.980   8.590  0.0446  0.2267  0.5349
 3389TIP3    H131726   1.146   3.036   8.580  0.2759 -0.4502 -2.3963
 3389TIP3    H231727   1.094   2.897   8.550 -1.9086 -0.3328  0.3560
 3390TIP3   OH231728   6.097   2.984   6.612  0.0164  0.0693 -0.5769
 3390TIP3    H131729   6.034   2.972   6.541 -0.2034 -0.9838 -0.2255
 3390TIP3    H231730   6.176   3.016   6.569 -0.8551  1.7878 -0.9831
 3391TIP3   OH231731   2.009   2.195   7.925 -0.3372 -0.0886  0.1847
 3391TIP3    H131732   1.961   2.255   7.982 -0.7953 -0.9576  0.7309
 3391TIP3    H231733   1.967   2.205   7.839  1.8640  3.0063 -0.7210
 3392TIP3   OH231734   6.780   0.228   0.274 -0.6027 -0.1554  0.2918
 3392TIP3    H131735   6.750   0.192   0.357 -1.5225  0.1455  0.1039
 3392TIP3    H231736   6.708   0.211   0.213 -0.2688  0.3188 -0.2489
 3393TIP3   OH231737   2.754   1.979   1.203 -0.1108 -0.0014  0.4296
 3393TIP3    H131738   2.709   2.043   1.258  0.2012  0.6118 -0.0267
 3393TIP3    H231739   2.844   1.978   1.235  0.0544  0.3055 -0.0195
 3394TIP3   OH231740   3.371   3.501   1.085 -0.0523 -0.9416  0.4151
 3394TIP3    H131741   3.360   3.595   1.099 -1.4711 -0.7788 -1.3443
 3394TIP3    H231742   3.289   3.462   1.115 -1.5140 -0.9926 -3.1609
 3395TIP3   OH231743   6.040   3.810   2.543 -0.1664 -0.0709 -0.1804
 3395TIP3    H131744   5.982   3.816   2.468  0.4085  0.6909 -0.5811
 3395TIP3    H231745   6.054   3.901   2.570  2.0373 -0.0973 -1.0468
 3396TIP3   OH231746   5.964   3.496   2.130 -0.2319 -0.2126  0.4233
 3396TIP3    H131747   6.028   3.567   2.137 -2.0274  1.6258 -0.4778
 3396TIP3    H231748   5.974   3.447   2.211  2.1456  0.0939  0.3928
 3397TIP3   OH231749   5.793   0.176   1.057 -0.1331 -0.2656 -0.7456
 3397TIP3    H131750   5.699   0.179   1.041 -1.1038  0.5138  3.7565
 3397TIP3    H231751   5.806   0.101   1.115  1.6822  0.6897  0.1841
 3398TIP3   OH231752   5.260   4.870   6.948  0.2833  0.0025 -0.2728
 3398TIP3    H131753   5.273   4.847   7.040 -0.2290  0.2529 -0.1329
 3398TIP3    H231754   5.315   4.947   6.934  2.4405 -1.5604 -0.8887
 3399TIP3   OH231755   1.080   0.971   7.032 -0.7775  0.2748 -0.4322
 3399TIP3    H131756   1.021   1.046   7.037 -0.6149  0.3630  0.3185
 3399TIP3    H231757   1.072   0.929   7.118  1.4251  1.1787  0.2783
 3400TIP3   OH231758   1.790   0.570   1.447 -0.2966 -0.0014  0.0551
 3400TIP3    H131759   1.737   0.493   1.466 -0.4234 -0.1271 -0.7661
 3400TIP3    H231760   1.870   0.535   1.407 -0.7740  0.3334 -1.2312
 3401TIP3   OH231761   1.763   1.847   0.090  0.6596 -0.3154  0.0455
 3401TIP3    H131762   1.749   1.754   0.105 -0.2643 -0.0449  0.9920
 3401TIP3    H231763   1.801   1.879   0.172  1.3770  0.0740 -0.4240
 3402TIP3   OH231764   3.200   4.158   0.736  0.3107 -0.1175  0.0785
 3402TIP3    H131765   3.108   4.155   0.710  0.1109 -1.8601  0.9043
 3402TIP3    H231766   3.206   4.232   0.796 -0.4026  0.3792 -0.4420
 3403TIP3   OH231767   5.255   2.428   8.071 -0.5141  0.2981  0.2130
 3403TIP3    H131768   5.296   2.367   8.010 -2.1247 -0.8273  0.1761
 3403TIP3    H231769   5.319   2.442   8.140  0.6818  0.2362 -0.8611
 3404TIP3   OH231770   5.098   6.308   0.955  0.0515 -0.0808  0.0491
 3404TIP3    H131771   5.153   6.323   1.032 -0.7327  0.7875  0.4643
 3404TIP3    H231772   5.065   6.219   0.967 -0.7216  0.3292  1.1693
 3405TIP3   OH231773   2.198   5.893   7.705 -0.6282 -0.1895  0.6087
 3405TIP3    H131774   2.236   5.851   7.627 -3.1711 -0.4387 -0.6064
 3405TIP3    H231775   2.196   5.986   7.682  0.0431 -0.0567  1.0580
 3406TIP3   OH231776   2.848   1.480   1.096  0.7350 -0.4869  0.3294
 3406TIP3    H131777   2.919   1.539   1.122  2.7384 -2.0052 -1.3842
 3406TIP3    H231778   2.854   1.475   1.001 -2.7751  0.5418 -0.0964
 3407TIP3   OH231779   6.602   1.337   6.654  0.1205 -0.0458  0.5943
 3407TIP3    H131780   6.566   1.255   6.685  0.4193  0.7797  3.3616
 3407TIP3    H231781   6.535   1.402   6.672  1.4502  0.9245  2.4338
 3408TIP3   OH231782   1.408   2.717   7.523  0.4823 -0.1600 -0.4732
 3408TIP3    H131783   1.323   2.706   7.566  0.0882  1.0161 -0.9210
 3408TIP3    H231784   1.415   2.642   7.464 -0.1221 -0.3969 -0.2491
 3409TIP3   OH231785   2.994   2.615   0.200  0.8286  0.5064 -0.5696
 3409TIP3    H131786   3.031   2.566   0.126  2.2888  3.5664 -2.0161
 3409TIP3    H231787   3.055   2.599   0.272  0.4197 -0.9864 -0.5158
 3410TIP3   OH231788   3.208   0.802   0.929 -0.3737 -0.1503  0.1744
 3410TIP3    H131789   3.148   0.867   0.892 -0.9236  0.0599  1.3826
 3410TIP3    H231790   3.223   0.740   0.857  0.1348  1.2501 -0.9963
 3411TIP3   OH231791   4.827   3.427   0.184  0.1749  0.4493 -0.5188
 3411TIP3    H131792   4.758   3.493   0.196  1.1559  1.2831  0.7638
 3411TIP3    H231793   4.793   3.349   0.229 -0.2491  0.6126 -0.5483
 3412TIP3   OH231794   6.541   1.198   0.222 -0.5575  0.0707 -0.0484
 3412TIP3    H131795   6.495   1.146   0.156 -0.0449 -1.2804  0.6280
 3412TIP3    H231796   6.633   1.190   0.199 -0.4301  0.1597  0.4169
 3413TIP3   OH231797   5.719   3.048   1.346 -0.4026  0.8694 -0.2400
 3413TIP3    H131798   5.674   3.015   1.268  1.3116 -0.3312 -0.7788
 3413TIP3    H231799   5.684   2.995   1.417 -0.0699  0.1376 -0.6082
 3414TIP3   OH231800   1.586   3.936   2.044  0.7203 -0.6178  0.2541
 3414TIP3    H131801   1.525   3.918   1.973  0.6002  0.6655 -0.0019
 3414TIP3    H231802   1.615   4.027   2.028  2.8699 -1.2390  0.2274
 3415TIP3   OH231803   1.894   6.827   8.225  0.3148 -0.2053  0.2507
 3415TIP3    H131804   1.841   6.750   8.205  1.6058 -0.7147 -1.4790
 3415TIP3    H231805   1.832   6.900   8.219 -0.1507 -0.7060 -2.3480
 3416TIP3   OH231806   1.669   2.381   6.930 -0.2845  0.9343  0.3302
 3416TIP3    H131807   1.732   2.324   6.975 -1.1143 -0.9060 -0.7414
 3416TIP3    H231808   1.685   2.365   6.837 -1.3284  1.6056  0.0256
 3417TIP3   OH231809   2.364   6.301   1.660  0.0752 -0.3682 -0.4268
 3417TIP3    H131810   2.316   6.221   1.637  0.6694 -0.3697 -1.6953
 3417TIP3    H231811   2.452   6.287   1.627  0.1081  0.9398 -0.9434
 3418TIP3   OH231812   4.468   6.366   1.028  0.1161  0.1038  0.4652
 3418TIP3    H131813   4.452   6.395   1.117 -2.9252  1.3885 -0.3655
 3418TIP3    H231814   4.545   6.415   1.000  0.4877  0.4535  2.0534
 3419TIP3   OH231815   2.546   5.010   6.536  0.0014  0.0072  0.2212
 3419TIP3    H131816   2.637   5.009   6.567  0.1726  0.9559 -0.2326
 3419TIP3    H231817   2.549   5.055   6.452 -1.0164  0.8568  0.6157
 3420TIP3   OH231818   2.052   3.988   1.105  0.4787 -0.4658  0.3778
 3420TIP3    H131819   2.037   3.916   1.044 -0.1956  0.2449 -0.3435
 3420TIP3    H231820   2.116   4.044   1.061 -0.6437  0.4957 -0.1263
 3421TIP3   OH231821   4.785   3.767   0.348  0.0421 -0.3620  0.2651
 3421TIP3    H131822   4.818   3.797   0.263 -1.6306 -0.5003 -0.4881
 3421TIP3    H231823   4.832   3.819   0.412  1.3715 -0.2716 -0.7425
 3422TIP3   OH231824   0.634   4.546   8.277  0.1567  0.0308 -0.3244
 3422TIP3    H131825   0.600   4.459   8.257 -1.3186  1.0232 -2.5617
 3422TIP3    H231826   0.708   4.530   8.335  0.6436 -2.8018 -1.5564
 3423TIP3   OH231827   5.851   6.634   8.308 -0.0363  0.6294 -0.1510
 3423TIP3    H131828   5.821   6.550   8.343  0.7952  0.3790 -0.0278
 3423TIP3    H231829   5.884   6.613   8.220 -0.0951  0.8801 -0.2342
 3424TIP3   OH231830   2.048   2.508   1.850 -0.0850  0.1171 -0.3963
 3424TIP3    H131831   2.018   2.583   1.902  0.0030 -1.5828  2.3599
 3424TIP3    H231832   2.050   2.436   1.913  2.8511 -1.5111 -2.1505
 3425TIP3   OH231833   6.240   1.518   8.612  0.5010  0.2370 -0.5591
 3425TIP3    H131834   6.220   1.581   8.681 -0.1149  0.3916 -0.8664
 3425TIP3    H231835   6.276   1.442   8.658 -0.5719  0.0559  0.0119
 3426TIP3   OH231836   6.234   2.808   7.601 -0.0821  0.0901 -0.4718
 3426TIP3    H131837   6.175   2.861   7.547 -1.6635 -0.1673  0.9178
 3426TIP3    H231838   6.320   2.849   7.590 -0.1282 -0.3742 -3.7040
 3427TIP3   OH231839   5.040   5.591   0.051  0.2545 -0.5368 -0.6335
 3427TIP3    H131840   5.031   5.679   0.086  0.7400  0.5626 -3.0906
 3427TIP3    H231841   4.958   5.576   0.004  0.6399 -0.9330 -1.1883
 3428TIP3   OH231842   2.388   3.875   8.419 -0.4583 -0.1039  0.1829
 3428TIP3    H131843   2.450   3.803   8.406  1.2834  0.6342  3.2787
 3428TIP3    H231844   2.354   3.861   8.508 -2.2033  1.4051 -0.1958
 3429TIP3   OH231845   5.194   4.825   1.515  0.0447 -0.1770 -0.4080
 3429TIP3    H131846   5.268   4.810   1.456  0.4819 -0.3408  0.1717
 3429TIP3    H231847   5.234   4.853   1.597 -0.6325  1.5698 -0.6485
 3430TIP3   OH231848   0.576   5.109   7.646  0.5015  0.0244  0.2093
 3430TIP3    H131849   0.659   5.074   7.614  0.8144  1.2814 -0.4365
 3430TIP3    H231850   0.554   5.179   7.584  0.4178  1.6186  1.9467
 3431TIP3   OH231851   4.083   2.700   8.230  0.1458 -0.1449  0.0469
 3431TIP3    H131852   4.111   2.665   8.315 -1.7746 -0.6160  0.5544
 3431TIP3    H231853   3.988   2.685   8.229 -0.0325  0.8527 -1.7319
 3432TIP3   OH231854   0.087   1.052   7.947 -0.5712 -0.2149 -0.0361
 3432TIP3    H131855   0.077   0.975   7.890  0.8192 -0.2729 -0.2571
 3432TIP3    H231856   0.149   1.023   8.014  0.4488  0.8840 -0.4694
 3433TIP3   OH231857   5.009   3.905   8.074  0.3822 -0.4321 -0.3389
 3433TIP3    H131858   5.075   3.836   8.076 -0.5673 -1.4000 -1.2056
 3433TIP3    H231859   5.036   3.962   8.002  0.2016 -0.9105 -0.7900
 3434TIP3   OH231860   2.067   0.100   7.375 -0.5248 -0.3502 -0.2510
 3434TIP3    H131861   2.111   0.051   7.445 -2.6861 -0.4905  1.0825
 3434TIP3    H231862   2.129   0.170   7.354  0.4991 -0.7302  1.2802
 3435TIP3   OH231863   4.510   5.517   8.177  0.3289  0.0053 -0.0970
 3435TIP3    H131864   4.434   5.461   8.191 -0.7058  1.0628 -1.3202
 3435TIP3    H231865   4.497   5.591   8.235  0.7978 -0.1474  0.2111
 3436TIP3   OH231866   6.390   3.919   0.619 -0.2485  1.0545 -0.1470
 3436TIP3    H131867   6.473   3.920   0.571  0.1916  0.3165  0.5682
 3436TIP3    H231868   6.414   3.937   0.709 -0.3484 -2.4917  0.7452
 3437TIP3   OH231869   3.673   6.851   8.292 -0.4239 -0.4652 -0.2319
 3437TIP3    H131870   3.715   6.769   8.320  3.7405  0.9607 -1.5086
 3437TIP3    H231871   3.691   6.912   8.363  0.3781  0.3976 -1.1633
 3438TIP3   OH231872   2.417   1.691   7.037 -0.2666 -0.8113  0.0230
 3438TIP3    H131873   2.380   1.715   7.123 -0.0799 -0.8072  0.1022
 3438TIP3    H231874   2.417   1.595   7.037 -1.4065 -0.8297 -0.4601
 3439TIP3   OH231875   0.016   5.028   8.382 -1.1680 -0.0233  0.2441
 3439TIP3    H131876   0.098   5.029   8.431 -0.8720 -1.9771 -0.1181
 3439TIP3    H231877  -0.052   5.028   8.449 -0.8631  1.0157  0.5608
 3440TIP3   OH231878   5.291   0.852   7.478 -0.0191  0.0593  0.3795
 3440TIP3    H131879   5.352   0.917   7.444 -0.8935  1.1535  0.8520
 3440TIP3    H231880   5.322   0.834   7.567  0.1481 -0.0825  0.2934
 3441TIP3   OH231881   5.164   3.007   0.855 -0.2532 -0.5941 -0.0339
 3441TIP3    H131882   5.091   3.066   0.839 -0.8116 -1.3935 -0.4968
 3441TIP3    H231883   5.236   3.042   0.802 -0.6776 -0.5150 -0.5623
 3442TIP3   OH231884   5.327   4.271   7.549  0.1923  0.4566 -0.6443
 3442TIP3    H131885   5.354   4.325   7.624 -1.5327  1.7486 -0.9066
 3442TIP3    H231886   5.308   4.186   7.587 -3.4491  1.8230  1.0120
 3443TIP3   OH231887   1.062   2.045   6.420  0.0129 -0.0663 -1.0681
 3443TIP3    H131888   1.141   2.092   6.447 -0.2005 -0.1294 -0.3055
 3443TIP3    H231889   0.992   2.085   6.471 -0.2676 -0.7901 -0.8692
 3444TIP3   OH231890   5.109   6.768   7.932  0.5152 -0.2311 -0.5210
 3444TIP3    H131891   5.060   6.816   7.999  1.6249  0.0263  0.1348
 3444TIP3    H231892   5.048   6.701   7.902 -0.7351  0.9702 -0.7712
 3445TIP3   OH231893   4.705   0.976   2.290  0.0883 -0.3169  0.2224
 3445TIP3    H131894   4.695   1.041   2.219 -0.0260  1.7249  2.0108
 3445TIP3    H231895   4.616   0.967   2.326  0.6392  1.0612  2.0539
 3446TIP3   OH231896   1.640   1.677   8.241  0.1251  0.4930 -0.3754
 3446TIP3    H131897   1.664   1.727   8.318  0.3679 -0.2051  0.0044
 3446TIP3    H231898   1.660   1.586   8.263 -0.2584  0.2277 -1.0754
 3447TIP3   OH231899   6.833   6.480   0.253  0.5138  0.1495 -0.2909
 3447TIP3    H131900   6.838   6.433   0.170  1.1288 -0.1559 -0.0841
 3447TIP3    H231901   6.916   6.526   0.260  0.4842  0.1399  0.1808
 3448TIP3   OH231902   2.382   2.190   2.679 -0.1558 -0.0810  0.2681
 3448TIP3    H131903   2.442   2.265   2.673 -0.8301  0.4175 -0.4371
 3448TIP3    H231904   2.407   2.134   2.605 -0.9183  0.4107 -0.3779
 3449TIP3   OH231905   2.569   0.736   7.822  0.0065 -0.1029  0.7609
 3449TIP3    H131906   2.585   0.772   7.734 -0.1767 -0.4259  0.5956
 3449TIP3    H231907   2.508   0.797   7.862 -0.9844 -0.6777  0.1674
 3450TIP3   OH231908   2.035   6.725   8.002  0.3364  0.1216 -0.2108
 3450TIP3    H131909   1.961   6.723   7.941 -0.1931 -0.8729  0.4166
 3450TIP3    H231910   2.001   6.770   8.079  0.5405  0.0968 -0.1049
 3451TIP3   OH231911   4.982   0.243   7.811  0.9150  0.7888  0.0143
 3451TIP3    H131912   5.058   0.275   7.859  1.1595  1.7429 -0.9790
 3451TIP3    H231913   4.912   0.304   7.834 -0.0722 -1.0518  2.2781
 3452TIP3   OH231914   4.816   1.445   6.215 -0.1953  0.4914 -0.0320
 3452TIP3    H131915   4.811   1.484   6.303  1.7570 -0.5627  0.5946
 3452TIP3    H231916   4.725   1.447   6.184 -0.6726  2.4281  1.3052
 3453TIP3   OH231917   2.190   4.588   7.259  0.2899 -0.5673  0.2954
 3453TIP3    H131918   2.224   4.509   7.301 -1.7351  0.5552  4.5380
 3453TIP3    H231919   2.098   4.568   7.241  0.6469 -0.3482 -2.2391
 3454TIP3   OH231920   5.599   4.733   2.417  0.4717 -0.4003  0.1111
 3454TIP3    H131921   5.569   4.795   2.351  2.1783 -0.9752 -1.2694
 3454TIP3    H231922   5.577   4.647   2.382 -0.4894 -0.6761  1.2977
 3455TIP3   OH231923   3.019   4.247   6.811 -0.0789 -0.6173  0.1412
 3455TIP3    H131924   2.958   4.209   6.748  0.8796 -0.4093 -0.9549
 3455TIP3    H231925   3.083   4.178   6.827  0.9717  0.0813 -0.9011
 3456TIP3   OH231926   1.756   5.039   0.938  0.8518 -0.2976 -0.1818
 3456TIP3    H131927   1.814   4.968   0.965  1.2987 -0.0027 -0.3541
 3456TIP3    H231928   1.699   5.053   1.014  2.4068  0.8484  0.8508
 3457TIP3   OH231929   0.331   2.187   7.293 -0.6648  0.1248  0.2544
 3457TIP3    H131930   0.255   2.160   7.241 -0.4641  0.2764 -0.1232
 3457TIP3    H231931   0.379   2.246   7.236  0.7082 -1.3663 -0.2141
 3458TIP3   OH231932   1.014   6.499   8.325  0.3712  0.6181 -0.3808
 3458TIP3    H131933   0.962   6.424   8.298  2.0653 -1.0782  0.8012
 3458TIP3    H231934   1.072   6.517   8.251  0.1810  0.5624 -0.5419
 3459TIP3   OH231935   1.504   2.686   0.947  0.1504 -0.3131  0.7462
 3459TIP3    H131936   1.570   2.756   0.954  1.7321 -1.7924  1.5260
 3459TIP3    H231937   1.496   2.671   0.853  1.6931 -0.7216  0.6407
 3460TIP3   OH231938   2.439   1.684   7.847  0.3699 -0.4704  0.2804
 3460TIP3    H131939   2.444   1.698   7.752  0.0780 -0.1636  0.3103
 3460TIP3    H231940   2.523   1.644   7.869  0.4755 -0.4628 -0.0945
 3461TIP3   OH231941   0.293   6.161   1.328 -0.6320  0.1148 -0.0864
 3461TIP3    H131942   0.298   6.217   1.405  1.1897 -1.6318  1.1620
 3461TIP3    H231943   0.234   6.090   1.354 -0.3326 -0.2680 -0.4387
 3462TIP3   OH231944   6.574   6.406   1.388 -0.1176  0.2292 -0.3385
 3462TIP3    H131945   6.624   6.457   1.324  0.3390  0.8719  0.5109
 3462TIP3    H231946   6.498   6.461   1.409 -0.2839  0.0068 -0.3585
 3463TIP3   OH231947   2.433   6.138   8.517 -0.2773 -0.9577  1.2058
 3463TIP3    H131948   2.452   6.084   8.440 -0.5311 -0.3634  0.7145
 3463TIP3    H231949   2.510   6.194   8.526 -1.4188  1.0346 -0.4234
 3464TIP3   OH231950   4.426   6.583   6.875  0.2155  0.2722 -0.7179
 3464TIP3    H131951   4.474   6.640   6.815  0.5813 -0.7182 -1.3891
 3464TIP3    H231952   4.415   6.635   6.954  1.9312  0.7228 -0.7427
 3465TIP3   OH231953   0.898   2.517   0.191 -0.0583 -0.1649  0.8309
 3465TIP3    H131954   0.889   2.424   0.213 -0.4421 -0.6265 -1.1039
 3465TIP3    H231955   0.914   2.560   0.276 -1.1315 -1.8112  1.9338
 3466TIP3   OH231956   0.116   0.950   0.619  0.3506  0.1368  0.0856
 3466TIP3    H131957   0.175   0.893   0.569  1.1864  1.9973 -1.1801
 3466TIP3    H231958   0.172   1.021   0.649 -0.8851  0.9465  0.5414
 3467TIP3   OH231959   4.319   5.319   1.636 -0.3209  0.1488  0.1036
 3467TIP3    H131960   4.412   5.331   1.655 -0.2316  1.0759 -0.8750
 3467TIP3    H231961   4.277   5.329   1.722  0.5796 -1.7930  0.8310
 3468TIP3   OH231962   5.489   6.314   7.238 -0.6065  0.3665  0.2504
 3468TIP3    H131963   5.439   6.374   7.293  0.5598 -0.2158  2.0472
 3468TIP3    H231964   5.576   6.354   7.233 -0.3010 -0.3120  0.0604
 3469TIP3   OH231965   1.929   3.420   0.149  0.0964 -0.0985  0.3497
 3469TIP3    H131966   1.899   3.371   0.072 -0.9434 -1.1290  1.3571
 3469TIP3    H231967   1.848   3.441   0.196  0.5908  1.8974  0.3764
 3470TIP3   OH231968   1.676   5.964   0.965  0.7331 -0.2625 -0.2282
 3470TIP3    H131969   1.633   5.994   1.045  0.1944 -1.5937  0.0129
 3470TIP3    H231970   1.607   5.917   0.917  1.3774 -0.5943 -0.8540
 3471TIP3   OH231971   5.725   4.353   8.184  0.0412  0.0457 -0.1760
 3471TIP3    H131972   5.762   4.399   8.260 -0.4907  1.3837 -0.6828
 3471TIP3    H231973   5.632   4.346   8.204  0.3607 -2.7110  0.7992
 3472TIP3   OH231974   0.867   3.686   1.011 -0.4888 -0.5578 -0.1680
 3472TIP3    H131975   0.833   3.619   0.952 -0.1343 -0.6851 -0.2333
 3472TIP3    H231976   0.898   3.756   0.953 -1.0128 -0.2586 -0.0939
 3473TIP3   OH231977   2.216   2.560   7.185 -0.0764 -0.1872  0.3686
 3473TIP3    H131978   2.199   2.526   7.272 -2.4248  1.7524  0.7728
 3473TIP3    H231979   2.291   2.619   7.196 -0.1632 -0.1937  1.0083
 3474TIP3   OH231980   3.753   5.267   1.905 -0.3479 -0.5382  0.0461
 3474TIP3    H131981   3.785   5.192   1.956  2.5829  0.4441 -0.1676
 3474TIP3    H231982   3.802   5.263   1.823  0.4905  1.9982  0.3448
 3475TIP3   OH231983   4.460   3.291   7.581 -0.2033 -0.2401 -0.6288
 3475TIP3    H131984   4.374   3.333   7.581 -0.4498 -0.7267 -1.3527
 3475TIP3    H231985   4.515   3.347   7.526  1.0206  2.1114  2.6704
 3476TIP3   OH231986   4.363   3.170   0.304  0.8008 -0.0040  0.1299
 3476TIP3    H131987   4.374   3.264   0.287  0.1986 -0.1767 -1.3800
 3476TIP3    H231988   4.387   3.159   0.396  0.7723  1.6433  0.3586
 3477TIP3   OH231989   3.661   2.508   1.208  0.0410  0.3296  0.2379
 3477TIP3    H131990   3.677   2.414   1.215 -1.8985 -0.0344  0.0706
 3477TIP3    H231991   3.667   2.540   1.298 -0.6123 -0.1796  0.4640
 3478TIP3   OH231992   4.118   0.415   0.472  0.1252  0.0171 -0.1142
 3478TIP3    H131993   4.116   0.507   0.445 -1.6930  0.0344 -0.0407
 3478TIP3    H231994   4.193   0.409   0.531  0.4647  1.3748 -0.3706
 3479TIP3   OH231995   1.056   5.932   8.306  0.5065  0.7756  0.2910
 3479TIP3    H131996   1.019   6.020   8.295  1.2659  1.0472 -0.1988
 3479TIP3    H231997   1.084   5.929   8.398 -0.8164  0.5167  0.7077
 3480TIP3   OH231998   3.249   3.351   1.360  0.6880  0.1807  0.0722
 3480TIP3    H131999   3.160   3.342   1.327 -0.5926 -2.0694  3.5659
 3480TIP3    H232000   3.302   3.296   1.303 -0.8225 -1.1912 -0.0760
 3481TIP3   OH232001   3.010   4.095   2.532 -0.3485  0.7967  0.3514
 3481TIP3    H132002   3.035   4.173   2.582  1.7761  1.3637 -1.4628
 3481TIP3    H232003   3.089   4.040   2.533 -1.2017 -0.4806  0.0075
 3482TIP3   OH232004   6.036   2.936   0.847  0.5091  0.0349  0.1665
 3482TIP3    H132005   5.995   3.009   0.894  1.8945  0.2309  1.1451
 3482TIP3    H232006   6.109   2.976   0.799  1.7846 -0.7795  1.3530
 3483TIP3   OH232007   0.016   6.626   7.053 -0.0933 -0.2719  0.4066
 3483TIP3    H132008   0.092   6.592   7.100 -0.0875 -0.0429  0.5646
 3483TIP3    H232009   0.048   6.639   6.964 -0.0856 -0.6419  0.3520
 3484TIP3   OH232010   4.269   2.866   6.701 -0.7297 -0.0840 -0.1119
 3484TIP3    H132011   4.359   2.838   6.721 -0.1847  1.1069 -0.8253
 3484TIP3    H232012   4.219   2.784   6.702  0.3329 -0.7630  0.3912
 3485TIP3   OH232013   2.747   2.774   0.770 -0.7090 -0.0047 -0.4164
 3485TIP3    H132014   2.784   2.687   0.757  4.4734  1.5812  1.4063
 3485TIP3    H232015   2.739   2.783   0.865 -0.3920  1.7261 -0.5157
 3486TIP3   OH232016   2.453   0.866   6.958 -0.0576  0.3325 -0.6162
 3486TIP3    H132017   2.516   0.817   7.011 -2.8713 -1.4131  1.3257
 3486TIP3    H232018   2.497   0.950   6.941  2.4110 -0.4397  1.3267
 3487TIP3   OH232019   2.291   0.520   8.340  0.1862 -0.1779  0.2041
 3487TIP3    H132020   2.356   0.531   8.271  0.5946  0.6125  0.6957
 3487TIP3    H232021   2.341   0.492   8.417 -0.3881 -1.9848 -0.0424
 3488TIP3   OH232022   5.389   6.455   1.015  0.2834  0.0647 -0.0873
 3488TIP3    H132023   5.378   6.543   0.979 -0.7144  0.0080  0.0530
 3488TIP3    H232024   5.466   6.420   0.971  0.0933  0.6340 -0.8846
 3489TIP3   OH232025   1.707   1.324   6.349  0.7030  0.1372  0.4675
 3489TIP3    H132026   1.704   1.332   6.253  1.8310 -0.2853  0.3847
 3489TIP3    H232027   1.715   1.230   6.365  2.3905  0.3329  0.9037
 3490TIP3   OH232028   0.615   5.432   0.358 -0.0407  0.1071  0.1951
 3490TIP3    H132029   0.539   5.384   0.324 -2.1137  1.6837  2.3179
 3490TIP3    H232030   0.653   5.373   0.423  0.1214 -0.3695 -0.3178
 3491TIP3   OH232031   0.417   5.735   7.588  0.4740  0.1432  0.1949
 3491TIP3    H132032   0.353   5.712   7.656  2.2234 -1.5158  1.3702
 3491TIP3    H232033   0.412   5.830   7.582 -1.7633  0.1028  0.5568
 3492TIP3   OH232034   4.605   4.886   7.309  0.0625 -0.3562 -0.2667
 3492TIP3    H132035   4.633   4.800   7.280  0.4612 -0.9111  1.6598
 3492TIP3    H232036   4.509   4.884   7.300  0.1550 -0.5957 -1.2525
 3493TIP3   OH232037   2.415   3.180   0.872  0.5184 -0.2364  0.4764
 3493TIP3    H132038   2.442   3.210   0.958  0.5613  1.7505 -0.1729
 3493TIP3    H232039   2.481   3.116   0.847  0.8577 -0.3628  1.6455
 3494TIP3   OH232040   2.092   4.418   0.521  0.4846 -0.6750 -0.5536
 3494TIP3    H132041   2.077   4.510   0.544  0.6630 -0.9619  0.7975
 3494TIP3    H232042   2.022   4.397   0.459 -0.1804  0.0893 -0.0896
 3495TIP3   OH232043   3.239   4.225   1.223  0.2161  0.2353  0.4620
 3495TIP3    H132044   3.220   4.283   1.296 -0.0150  0.0832  0.5237
 3495TIP3    H232045   3.285   4.151   1.262  2.7559  1.4980  0.0596
 3496TIP3   OH232046   5.279   2.816   1.283 -0.4661 -0.0416 -0.9821
 3496TIP3    H132047   5.248   2.906   1.273 -2.1810 -0.6125 -1.1001
 3496TIP3    H232048   5.281   2.802   1.377  1.5201  0.6441 -0.8720
 3497TIP3   OH232049   1.379   1.523   0.048  0.2361 -0.4333  0.3217
 3497TIP3    H132050   1.376   1.588   0.118  1.6914  1.2415 -1.0817
 3497TIP3    H232051   1.423   1.567  -0.024  1.3433 -2.9828 -0.7059
 3498TIP3   OH232052   5.412   5.472   7.013 -0.4721  0.0346 -0.4581
 3498TIP3    H132053   5.425   5.554   6.966  2.1402  1.1988  2.0428
 3498TIP3    H232054   5.323   5.478   7.048  0.2865  2.7670  1.2797
 3499TIP3   OH232055   4.675   2.256   1.825  0.1497 -0.5817 -0.0889
 3499TIP3    H132056   4.591   2.225   1.858  0.7991 -0.0831  2.2775
 3499TIP3    H232057   4.734   2.181   1.836  0.6795 -0.0048  1.3026
 3500TIP3   OH232058   0.801   1.961   7.630 -0.0780  1.1444 -0.1918
 3500TIP3    H132059   0.771   1.949   7.720 -0.4930 -0.5232 -0.5313
 3500TIP3    H232060   0.876   2.020   7.638  0.1514  0.6885  1.2851
 3501TIP3   OH232061   1.554   5.509   0.912 -0.0235  0.7070 -0.0241
 3501TIP3    H132062   1.526   5.420   0.888 -1.1737  0.3534  2.3428
 3501TIP3    H232063   1.633   5.523   0.860  0.1993 -1.7154 -0.4897
 3502TIP3   OH232064   1.687   5.715   1.436 -0.1456 -0.1174 -0.0196
 3502TIP3    H132065   1.623   5.644   1.440 -1.0989  0.5869 -1.8790
 3502TIP3    H232066   1.674   5.755   1.350  2.4958  0.3569 -0.2907
 3503TIP3   OH232067   1.995   4.597   1.626 -0.1435 -0.1653  0.0565
 3503TIP3    H132068   1.919   4.542   1.648 -0.4130 -0.8332 -2.2593
 3503TIP3    H232069   1.973   4.683   1.662 -3.0875  0.2472 -2.3008
 3504TIP3   OH232070   5.121   0.486   0.358 -0.4167 -0.1346 -0.1296
 3504TIP3    H132071   5.061   0.515   0.428  0.3118  1.5511 -0.1710
 3504TIP3    H232072   5.070   0.495   0.278 -1.5415 -2.8624  0.1899
 3505TIP3   OH232073   4.014   2.098   6.535  0.4938 -0.2717 -0.3807
 3505TIP3    H132074   4.010   2.081   6.629 -0.3315 -0.4831 -0.4435
 3505TIP3    H232075   4.103   2.131   6.520 -0.0818  2.0139  0.8420
 3506TIP3   OH232076   2.198   0.344   6.295 -0.5958  0.1525 -0.0176
 3506TIP3    H132077   2.108   0.348   6.327 -0.1565 -0.2078  1.3604
 3506TIP3    H232078   2.232   0.432   6.307 -0.7106  0.2441 -0.3662
 3507TIP3   OH232079   4.341   6.141   0.359  0.1715  0.4402 -0.0999
 3507TIP3    H132080   4.392   6.219   0.338  1.3721 -0.0539  0.8452
 3507TIP3    H232081   4.253   6.160   0.327  0.8911  1.3991 -1.6179
 3508TIP3   OH232082   0.313   0.047   0.623 -0.9498  0.3682 -0.5787
 3508TIP3    H132083   0.246   0.001   0.672 -2.4845  0.5724 -2.3999
 3508TIP3    H232084   0.340   0.119   0.680 -0.3489 -1.2195  1.2317
 3509TIP3   OH232085   5.687   5.349   1.434 -0.1644 -0.5214 -0.8247
 3509TIP3    H132086   5.761   5.294   1.408 -0.1854 -1.0819  0.2137
 3509TIP3    H232087   5.609   5.297   1.413 -0.1601 -1.6143  1.5221
 3510TIP3   OH232088   5.861   1.588   8.240 -0.1148  0.0546 -0.2750
 3510TIP3    H132089   5.935   1.546   8.284 -0.6425  1.1367  1.7835
 3510TIP3    H232090   5.889   1.679   8.227 -1.0515  0.4925  0.5844
 3511TIP3   OH232091   6.451   0.220   1.718  0.4013  0.1126 -0.6899
 3511TIP3    H132092   6.517   0.206   1.649  2.2358 -0.5816  1.1140
 3511TIP3    H232093   6.495   0.196   1.799 -1.0868  2.6575  1.0118
 3512TIP3   OH232094   6.558   1.396   8.043  0.0168 -0.6127 -0.4165
 3512TIP3    H132095   6.648   1.396   8.012 -0.9137  1.1958 -3.6751
 3512TIP3    H232096   6.534   1.489   8.045 -1.1679 -0.8834  2.6049
 3513TIP3   OH232097   3.182   0.950   0.384  0.0030  0.5963  0.9068
 3513TIP3    H132098   3.240   0.950   0.461  1.3070  1.4529 -0.0469
 3513TIP3    H232099   3.114   0.886   0.407  2.0945 -1.6032  1.4907
 3514TIP3   OH232100   4.169   6.556   1.217  0.3689  0.1714 -0.1940
 3514TIP3    H132101   4.265   6.555   1.216  0.4069  1.4088  0.2588
 3514TIP3    H232102   4.144   6.533   1.127  1.0660 -0.7831 -0.1588
 3515TIP3   OH232103   6.776   5.996   0.929 -0.4866 -0.2539 -0.3966
 3515TIP3    H132104   6.826   5.963   0.855  0.2711  1.4096 -0.6699
 3515TIP3    H232105   6.843   6.026   0.991 -1.1047  1.6881 -0.6178
 3516TIP3   OH232106   1.352   1.435   8.208  0.6602 -0.1898  0.5166
 3516TIP3    H132107   1.326   1.468   8.294 -0.0334 -0.5421  0.4477
 3516TIP3    H232108   1.283   1.464   8.149  2.8843  3.3028 -0.7070
 3517TIP3   OH232109   0.285   1.408   8.074  0.8295 -0.3439  0.1902
 3517TIP3    H132110   0.224   1.438   8.142  0.0471 -1.3456 -0.0405
 3517TIP3    H232111   0.267   1.464   7.999 -1.1396 -1.7649 -0.4866
 3518TIP3   OH232112   6.103   5.059   1.363 -0.3034  0.3244  0.5530
 3518TIP3    H132113   6.170   5.062   1.294 -1.2188  0.8835 -0.3242
 3518TIP3    H232114   6.154   5.046   1.444  0.8645  0.6618 -0.0960
 3519TIP3   OH232115   4.243   5.205   8.639  0.9563  0.1553  0.8399
 3519TIP3    H132116   4.264   5.214   8.546 -1.5426  0.2090  0.2257
 3519TIP3    H232117   4.224   5.111   8.650  4.2687 -0.5050  2.0730
 3520TIP3   OH232118   2.761   0.181   1.582  0.1408 -0.0748 -0.3835
 3520TIP3    H132119   2.785   0.141   1.498 -0.4680 -0.0637 -0.5690
 3520TIP3    H232120   2.809   0.264   1.583  0.7818 -0.4399 -0.3557
 3521TIP3   OH232121   0.585   1.422   6.591 -0.1639  0.1871 -0.8560
 3521TIP3    H132122   0.630   1.338   6.601  1.0885  0.8310 -0.8871
 3521TIP3    H232123   0.652   1.488   6.610 -0.6122  1.2293 -2.6054
 3522TIP3   OH232124   4.916   2.506   1.421 -0.1753 -0.4881 -0.5307
 3522TIP3    H132125   4.876   2.521   1.335  0.7155 -0.6816 -1.0003
 3522TIP3    H232126   4.842   2.498   1.481 -0.7917  0.5982 -1.1166
 3523TIP3   OH232127   1.203   5.292   0.737  0.1991 -0.2481 -0.1443
 3523TIP3    H132128   1.211   5.292   0.642 -2.7631 -1.3767 -0.5108
 3523TIP3    H232129   1.163   5.207   0.758  1.3390 -0.2942  2.2029
 3524TIP3   OH232130   1.993   6.125   8.690  0.0712 -0.1140  0.7626
 3524TIP3    H132131   2.042   6.153   8.613 -0.4241  0.9507  0.8058
 3524TIP3    H232132   2.035   6.169   8.763 -0.3342  0.0264  0.9177
 3525TIP3   OH232133   1.153   4.422   7.370  0.1194 -0.2433  0.1379
 3525TIP3    H132134   1.157   4.387   7.458  2.2535 -0.1989  0.1208
 3525TIP3    H232135   1.201   4.505   7.375 -1.4021  0.7332 -0.6678
 3526TIP3   OH232136   3.521   3.523   8.629 -0.7080 -0.1191 -0.0268
 3526TIP3    H132137   3.599   3.470   8.610 -0.1992  0.8108 -0.6557
 3526TIP3    H232138   3.508   3.575   8.550 -1.8337 -0.0813  0.1719
 3527TIP3   OH232139   6.005   0.794   0.441 -0.2840 -0.0687 -0.1425
 3527TIP3    H132140   5.973   0.850   0.370 -2.1458 -1.2625 -0.3385
 3527TIP3    H232141   6.077   0.843   0.481 -0.1710  1.2956 -1.8958
 3528TIP3   OH232142   2.704   2.169   1.389 -0.5144 -0.0576 -0.5482
 3528TIP3    H132143   2.623   2.214   1.415 -1.2481 -0.3575 -2.2032
 3528TIP3    H232144   2.727   2.115   1.465 -2.4412 -0.7649 -0.4188
 3529TIP3   OH232145   5.101   0.130   6.977 -0.0610  0.2503 -0.0245
 3529TIP3    H132146   5.160   0.085   7.037 -0.6606 -3.6826 -2.1105
 3529TIP3    H232147   5.016   0.130   7.023 -0.7239 -3.4874 -0.9228
 3530TIP3   OH232148   3.806   1.372   0.003  0.6346 -0.6784 -0.2472
 3530TIP3    H132149   3.735   1.410  -0.049 -0.3633 -1.6352  0.3736
 3530TIP3    H232150   3.839   1.445   0.055 -0.3536 -0.3593 -0.0442
 3531TIP3   OH232151   2.179   3.593   1.771 -0.3847  0.0893 -0.6265
 3531TIP3    H132152   2.143   3.593   1.860  0.9333  2.4142 -0.0122
 3531TIP3    H232153   2.122   3.653   1.723 -1.1016 -1.1704 -1.4136
 3532TIP3   OH232154   5.343   2.262   7.697  0.2161 -0.2020 -0.0306
 3532TIP3    H132155   5.280   2.219   7.755  0.0585  1.3158  0.9724
 3532TIP3    H232156   5.345   2.207   7.618 -0.4701 -1.6421  0.9200
 3533TIP3   OH232157   6.789   2.580   1.137  0.4020  0.6155 -0.2742
 3533TIP3    H132158   6.839   2.660   1.154 -0.2227  0.8243  0.6907
 3533TIP3    H232159   6.856   2.513   1.124  0.9553  0.9794  0.5466
 3534TIP3   OH232160   3.968   2.105   7.905 -0.0839  0.5953  0.4226
 3534TIP3    H132161   3.891   2.122   7.960  0.2251  1.3230  0.6509
 3534TIP3    H232162   3.934   2.102   7.816 -0.3245  1.3848  0.4753
 3535TIP3   OH232163   3.441   4.627   0.899 -0.6355 -0.3816 -0.2069
 3535TIP3    H132164   3.502   4.667   0.960  0.4455  0.6105 -1.8755
 3535TIP3    H232165   3.359   4.619   0.949  0.4062 -0.3115  1.5758
 3536TIP3   OH232166   5.688   4.963   7.243 -0.0899  0.7173 -0.2964
 3536TIP3    H132167   5.765   5.018   7.257  1.4673 -0.9431 -1.7623
 3536TIP3    H232168   5.657   4.985   7.155  1.3293 -1.4661 -1.4510
 3537TIP3   OH232169   5.513   5.891   7.529  0.1082 -0.0502  0.1295
 3537TIP3    H132170   5.502   5.922   7.440  3.1105 -0.3432 -0.4490
 3537TIP3    H232171   5.508   5.795   7.523 -0.3761 -0.0483  0.4152
 3538TIP3   OH232172   5.566   5.967   7.263  0.8006  0.0432 -0.1339
 3538TIP3    H132173   5.587   5.876   7.242  2.1130 -0.5706  3.2224
 3538TIP3    H232174   5.574   6.013   7.179  2.4219 -2.5294 -1.5296
 3539TIP3   OH232175   0.407   2.659   0.401 -0.1108  0.0603  0.4877
 3539TIP3    H132176   0.465   2.584   0.392 -1.6318 -1.0718 -0.3382
 3539TIP3    H232177   0.362   2.665   0.317 -1.5605  0.5483  1.2596
 3540TIP3   OH232178   2.169   5.621   0.070 -0.2353 -0.3185 -0.3777
 3540TIP3    H132179   2.183   5.529   0.091  2.5004 -0.1123 -0.9352
 3540TIP3    H232180   2.165   5.665   0.155 -0.5098 -0.8228 -0.1269
 3541TIP3   OH232181   6.258   0.126   0.947 -0.2919 -0.0986  0.3183
 3541TIP3    H132182   6.234   0.076   1.025  0.0779 -0.8679 -0.0544
 3541TIP3    H232183   6.305   0.064   0.892 -0.1663  0.5572 -0.3290
 3542TIP3   OH232184   3.808   5.260   7.172  0.0669  0.0088 -0.2348
 3542TIP3    H132185   3.838   5.175   7.140 -2.0288 -0.5687 -0.8709
 3542TIP3    H232186   3.858   5.324   7.121  1.0878 -0.8600 -0.3370
 3543TIP3   OH232187   2.169   0.301   2.022  0.1508  0.2724 -0.2783
 3543TIP3    H132188   2.196   0.268   1.936 -0.9472  2.8097 -1.7026
 3543TIP3    H232189   2.245   0.350   2.053  0.1764  0.2478 -0.3020
 3544TIP3   OH232190   0.357   1.348   0.332 -0.4652 -0.3532 -0.4959
 3544TIP3    H132191   0.261   1.352   0.325 -0.4618 -1.5052 -1.8038
 3544TIP3    H232192   0.389   1.389   0.252  0.2181  1.3163  0.5784
 3545TIP3   OH232193   0.270   2.587   0.181 -0.0310  0.2773  0.2107
 3545TIP3    H132194   0.210   2.546   0.242  0.5078 -0.6250  0.1526
 3545TIP3    H232195   0.238   2.561   0.094  0.5663 -0.4161  0.1850
 3546TIP3   OH232196   0.949   2.328   0.403 -0.4178  0.1806 -0.1040
 3546TIP3    H132197   1.007   2.341   0.479  0.7555 -2.9267 -0.2946
 3546TIP3    H232198   0.864   2.307   0.441 -0.3785  0.7368  0.2998
 3547TIP3   OH232199   1.702   0.376   7.430 -0.3351  0.4319  0.0364
 3547TIP3    H132200   1.703   0.472   7.426  2.3604  0.5065  0.3471
 3547TIP3    H232201   1.745   0.348   7.349  1.9054 -0.3094  1.3905
 3548TIP3   OH232202   3.660   5.823   6.393 -0.2782  0.3635 -0.1559
 3548TIP3    H132203   3.647   5.910   6.430  2.3777  0.7971 -0.0449
 3548TIP3    H232204   3.639   5.764   6.465  1.1156  1.0812  0.9040
 3549TIP3   OH232205   6.337   5.869   0.051 -0.2026  0.0630  0.0293
 3549TIP3    H132206   6.347   5.786   0.005 -1.5040 -0.2474  0.2591
 3549TIP3    H232207   6.401   5.865   0.123 -0.2903 -0.7574  0.0642
 3550TIP3   OH232208   6.253   2.941   1.935  0.1548 -0.1480 -0.2627
 3550TIP3    H132209   6.309   2.869   1.906  1.7616  0.6276  0.7513
 3550TIP3    H232210   6.174   2.898   1.969 -0.4314 -1.2064 -2.7556
 3551TIP3   OH232211   4.318   0.404   2.210  0.2817 -0.3457  0.3062
 3551TIP3    H132212   4.265   0.329   2.183 -0.1669  0.1114 -0.1090
 3551TIP3    H232213   4.262   0.480   2.192  1.6788  0.2923 -1.7952
 3552TIP3   OH232214   3.976   0.807   8.434  0.1671  0.4931 -0.0348
 3552TIP3    H132215   4.016   0.720   8.430 -1.5133 -0.2928 -0.5767
 3552TIP3    H232216   3.883   0.791   8.446 -0.1454  2.2380  0.2289
 3553TIP3   OH232217   5.687   3.150   0.327 -0.2051  0.1895 -0.4867
 3553TIP3    H132218   5.757   3.104   0.373  1.1902  2.7953  0.1947
 3553TIP3    H232219   5.693   3.120   0.237 -0.5729 -2.2359  0.2211
 3554TIP3   OH232220   2.832   1.476   7.267  0.2600 -0.2055 -0.8218
 3554TIP3    H132221   2.738   1.484   7.250  0.1591 -2.0608 -1.3566
 3554TIP3    H232222   2.837   1.443   7.357  0.4792  1.3076 -0.2555
 3555TIP3   OH232223   1.533   6.464   7.797 -0.1776 -0.5197  0.3539
 3555TIP3    H132224   1.538   6.463   7.701 -0.5737  2.9121  0.1777
 3555TIP3    H232225   1.439   6.470   7.816 -0.0211  0.4054  0.8708
 3556TIP3   OH232226   6.633   4.952   7.169 -0.3404 -0.0880 -0.2990
 3556TIP3    H132227   6.540   4.954   7.190 -0.3362 -0.9811 -0.1530
 3556TIP3    H232228   6.636   4.967   7.074 -0.6676 -0.5335 -0.3836
 3557TIP3   OH232229   5.873   3.853   7.763  0.5434 -0.1267 -0.4532
 3557TIP3    H132230   5.846   3.773   7.719 -0.8860  0.2804 -0.3597
 3557TIP3    H232231   5.945   3.887   7.710  1.3418 -1.5730 -0.3511
 3558TIP3   OH232232   6.230   2.273   1.670  0.7147 -0.2429 -0.2827
 3558TIP3    H132233   6.200   2.318   1.749 -0.0341 -0.7306 -0.2825
 3558TIP3    H232234   6.311   2.318   1.646  1.2133 -0.3920  1.0295
 3559TIP3   OH232235   0.163   6.636   2.236  0.2075  0.9933  0.0644
 3559TIP3    H132236   0.214   6.563   2.202 -0.0068  0.7201  0.3263
 3559TIP3    H232237   0.204   6.714   2.197  0.3388  0.7276 -0.3391
 3560TIP3   OH232238   5.861   2.958   8.238 -0.2314 -0.0651 -0.4907
 3560TIP3    H132239   5.902   2.968   8.152 -2.8004  0.0042 -1.8152
 3560TIP3    H232240   5.788   3.020   8.237 -0.0683  0.2704  1.9605
 3561TIP3   OH232241   4.203   6.392   1.675 -0.2445  0.2318  0.1741
 3561TIP3    H132242   4.130   6.353   1.629 -0.5161  1.7202 -0.7295
 3561TIP3    H232243   4.163   6.456   1.734  0.2503  0.1423  0.6147
 3562TIP3   OH232244   5.117   3.441   0.616 -0.2399  0.2938 -0.3214
 3562TIP3    H132245   5.164   3.501   0.673  2.1928  1.7456 -3.5450
 3562TIP3    H232246   5.034   3.486   0.598 -0.4443  0.4454  0.9017
 3563TIP3   OH232247   0.392   5.100   8.140 -0.0937  0.1829  0.5703
 3563TIP3    H132248   0.446   5.149   8.078 -1.4341 -0.6016 -1.3360
 3563TIP3    H232249   0.425   5.010   8.135 -1.3722 -0.2685 -0.4848
 3564TIP3   OH232250   4.064   5.116   1.932  0.2736 -0.5244  0.2646
 3564TIP3    H132251   3.982   5.096   1.977 -0.0011  0.4344  0.2210
 3564TIP3    H232252   4.131   5.069   1.981 -0.2394 -0.9293  0.5912
 3565TIP3   OH232253   4.068   0.103   1.061  0.4052 -0.2470  0.7528
 3565TIP3    H132254   4.127   0.032   1.036 -0.4376 -0.8087  0.3445
 3565TIP3    H232255   4.005   0.109   0.989 -0.8115 -0.5089  1.7640
 3566TIP3   OH232256   4.562   2.905   8.066 -0.3639  0.0725  0.3168
 3566TIP3    H132257   4.598   2.818   8.085 -0.0044 -0.2613 -1.6725
 3566TIP3    H232258   4.528   2.898   7.976  0.9408  2.3705 -0.4461
 3567TIP3   OH232259   3.438   2.466   8.689  0.3393 -0.2993 -0.1488
 3567TIP3    H132260   3.474   2.500   8.607 -1.2169  2.1414  0.0647
 3567TIP3    H232261   3.480   2.519   8.757 -2.4403  1.7205  0.1807
 3568TIP3   OH232262   4.690   2.693   7.413 -0.2883  0.0613 -0.5316
 3568TIP3    H132263   4.652   2.630   7.353  0.8960  0.4439 -1.7497
 3568TIP3    H232264   4.784   2.673   7.413 -0.2468  0.1443  1.1251
 3569TIP3   OH232265   0.567   6.383   7.202 -0.5770 -0.7803 -0.3451
 3569TIP3    H132266   0.517   6.336   7.136 -1.1372 -1.0914  0.2909
 3569TIP3    H232267   0.561   6.475   7.176 -3.7013 -0.4460  1.0869
 3570TIP3   OH232268   3.551   1.756   6.304  0.1903  0.2650  0.4851
 3570TIP3    H132269   3.498   1.678   6.288  0.2196  0.2524  0.4468
 3570TIP3    H232270   3.591   1.775   6.219  1.1270 -0.3846  0.7635
 3571TIP3   OH232271   4.586   2.603   7.685 -0.5791  0.2902 -0.2280
 3571TIP3    H132272   4.596   2.665   7.613 -1.7645 -1.4985 -2.0538
 3571TIP3    H232273   4.658   2.541   7.674 -0.3740  0.3722  0.5601
 3572TIP3   OH232274   6.809   2.650   6.942 -0.4330  0.1004 -0.1432
 3572TIP3    H132275   6.763   2.636   6.859 -0.7351 -0.5002  0.1215
 3572TIP3    H232276   6.847   2.565   6.962  0.6930  0.5498 -0.2919
 3573TIP3   OH232277   0.371   1.329   6.942 -0.0080 -0.5011  0.2266
 3573TIP3    H132278   0.451   1.281   6.964 -0.4308 -1.2091  0.2647
 3573TIP3    H232279   0.300   1.269   6.966 -0.5544  0.1722  0.3225
 3574TIP3   OH232280   5.716   4.585   1.441 -0.2388  0.4284 -0.1577
 3574TIP3    H132281   5.671   4.561   1.523 -2.1809  0.2481 -1.2069
 3574TIP3    H232282   5.801   4.543   1.447 -0.5377 -0.0126  1.5527
 3575TIP3   OH232283   0.844   4.176   7.832  0.1931  0.5974 -0.2444
 3575TIP3    H132284   0.775   4.198   7.895 -0.4373 -0.2677 -0.5986
 3575TIP3    H232285   0.836   4.081   7.821 -0.2531  0.8077 -2.2061
 3576TIP3   OH232286   0.130   5.245   6.696 -0.4502  0.7823  0.1318
 3576TIP3    H132287   0.036   5.227   6.702 -0.6160  2.0209  1.9551
 3576TIP3    H232288   0.155   5.270   6.785  1.2839  2.0294 -0.6602
 3577TIP3   OH232289   4.923   2.468   8.642  0.2586  0.2187 -0.0847
 3577TIP3    H132290   4.908   2.397   8.705 -0.8986 -0.3747 -0.9620
 3577TIP3    H232291   4.837   2.481   8.601  0.6419  1.6084 -0.4871
 3578TIP3   OH232292   6.047   3.652   1.798  0.0411  0.0259  0.0650
 3578TIP3    H132293   6.096   3.583   1.843 -0.3897 -0.1251  0.3069
 3578TIP3    H232294   5.984   3.606   1.743  0.1090  0.2204 -0.1783
 3579TIP3   OH232295   1.436   0.351   7.709 -0.1918  0.0727 -0.1969
 3579TIP3    H132296   1.379   0.388   7.776  0.3421  0.8631 -0.1758
 3579TIP3    H232297   1.480   0.426   7.670  0.9274 -0.5360 -0.1287
 3580TIP3   OH232298   0.883   4.253   1.323 -0.4956  0.0033  0.0315
 3580TIP3    H132299   0.941   4.271   1.397 -1.5503  0.3381  0.7966
 3580TIP3    H232300   0.878   4.157   1.319 -0.1256 -0.0218  0.1376
 3581TIP3   OH232301   3.561   4.926   8.283  0.4004  0.3041  0.4436
 3581TIP3    H132302   3.643   4.880   8.301  0.5876  0.5267  0.1645
 3581TIP3    H232303   3.587   5.001   8.230 -0.3349 -1.2428 -2.2505
 3582TIP3   OH232304   5.337   6.576   0.214 -0.0788 -0.0052  0.2239
 3582TIP3    H132305   5.281   6.514   0.167  1.6734 -1.8132  0.4416
 3582TIP3    H232306   5.387   6.619   0.145 -1.0278  0.9556  0.1040
 3583TIP3   OH232307   2.996   3.026   7.558 -0.0750 -0.2087  0.5118
 3583TIP3    H132308   3.031   3.114   7.545  1.6794 -0.9736 -0.2168
 3583TIP3    H232309   2.992   3.016   7.653 -0.6558  0.7774  0.6060
 3584TIP3   OH232310   3.744   3.454   1.701  0.2690  0.6192 -0.9352
 3584TIP3    H132311   3.784   3.382   1.653 -1.3660  0.3755 -2.0500
 3584TIP3    H232312   3.662   3.418   1.734  0.7554  1.1747  0.9796
 3585TIP3   OH232313   5.889   1.417   7.310 -0.4846  0.1044 -0.2110
 3585TIP3    H132314   5.870   1.346   7.249  0.4144  1.1344 -1.7858
 3585TIP3    H232315   5.849   1.494   7.269  1.0781  1.0211 -0.0882
 3586TIP3   OH232316   0.650   5.459   7.342  0.3206  0.5765 -0.0417
 3586TIP3    H132317   0.596   5.510   7.282  0.3098  2.0536  1.1717
 3586TIP3    H232318   0.734   5.505   7.345  0.7317 -0.1706  0.1345
 3587TIP3   OH232319   4.540   1.597   6.763  0.2572  0.4141 -0.3264
 3587TIP3    H132320   4.577   1.661   6.701  1.1844 -0.9137 -1.2038
 3587TIP3    H232321   4.592   1.609   6.842 -1.6739  2.9071  0.6789
 3588TIP3   OH232322   5.752   6.325   0.295 -0.4948 -0.2912 -0.0554
 3588TIP3    H132323   5.687   6.289   0.235  0.9236 -3.7073  0.2852
 3588TIP3    H232324   5.730   6.288   0.380  1.6087 -1.1860  0.1414
 3589TIP3   OH232325   1.542   3.417   1.641 -0.2292 -0.2704 -0.0160
 3589TIP3    H132326   1.484   3.363   1.694 -1.5885  2.4144  1.4232
 3589TIP3    H232327   1.610   3.446   1.702  1.6387 -1.8148 -1.2395
 3590TIP3   OH232328   2.138   5.532   2.452 -0.1411  0.8618 -0.1221
 3590TIP3    H132329   2.226   5.560   2.476 -0.2348  0.2169  1.0091
 3590TIP3    H232330   2.080   5.589   2.503 -0.3419 -1.9995  3.1566
 3591TIP3   OH232331   0.272   6.550   7.108 -0.3367 -0.2496  0.0958
 3591TIP3    H132332   0.308   6.565   7.196 -0.4268 -0.5677  0.1893
 3591TIP3    H232333   0.339   6.585   7.049 -1.6458  2.9772  0.3097
 3592TIP3   OH232334   1.131   6.232   7.773 -0.4705 -0.0456  0.4226
 3592TIP3    H132335   1.206   6.179   7.800 -0.7490 -1.7413 -1.8310
 3592TIP3    H232336   1.055   6.179   7.797 -0.9447  1.2160  1.7965
 3593TIP3   OH232337   4.929   1.078   7.217 -0.9008 -0.0238  0.2098
 3593TIP3    H132338   4.972   1.000   7.180  1.6051  1.4745 -0.2574
 3593TIP3    H232339   4.920   1.057   7.310  2.7441  0.2031  0.7924
 3594TIP3   OH232340   0.861   2.564   8.174  0.1827 -0.3819  0.5728
 3594TIP3    H132341   0.852   2.502   8.246 -0.4801 -1.4282 -0.3745
 3594TIP3    H232342   0.774   2.605   8.167  0.4189  0.1580  0.7420
 3595TIP3   OH232343   4.571   0.323   6.511  0.6780  0.3887 -0.2849
 3595TIP3    H132344   4.600   0.260   6.445 -0.8911 -0.0834 -0.5646
 3595TIP3    H232345   4.579   0.408   6.467  1.7384  0.2930 -0.2963
 3596TIP3   OH232346   3.318   3.748   7.822  0.3489  0.1001  0.3348
 3596TIP3    H132347   3.281   3.690   7.890 -3.3195 -0.2046 -1.6528
 3596TIP3    H232348   3.392   3.699   7.786 -1.5657 -2.6988 -0.0964
 3597TIP3   OH232349   2.311   4.512   6.588  0.0197 -0.5151 -0.4840
 3597TIP3    H132350   2.319   4.427   6.631  1.4203 -0.6120 -0.8628
 3597TIP3    H232351   2.347   4.498   6.500  3.7114  1.1897  0.5309
 3598TIP3   OH232352   1.825   4.175   7.891  0.5940 -0.1594 -0.3629
 3598TIP3    H132353   1.813   4.082   7.909  0.2774  0.1744  1.2762
 3598TIP3    H232354   1.822   4.182   7.796  0.9948 -1.8722 -0.5209
 3599TIP3   OH232355   0.122   3.345   7.331  0.7755  0.2061 -0.1935
 3599TIP3    H132356   0.184   3.272   7.338  1.0892  0.3798 -0.9564
 3599TIP3    H232357   0.036   3.304   7.328  0.9425 -0.1293 -0.4394
 3600TIP3   OH232358   4.107   5.915   7.516  0.3046 -0.3652 -0.3403
 3600TIP3    H132359   4.103   6.009   7.497 -0.9630 -0.3650 -0.1870
 3600TIP3    H232360   4.189   5.903   7.563  0.4296  0.6837 -0.2715
 3601TIP3   OH232361   2.635   3.592   7.631  0.2187 -0.3219  0.3416
 3601TIP3    H132362   2.638   3.641   7.714 -1.0838 -2.1836  1.5714
 3601TIP3    H232363   2.601   3.656   7.568 -1.0244  0.5284  1.7793
 3602TIP3   OH232364   1.885   1.938   1.275  0.0394 -0.1317  0.5631
 3602TIP3    H132365   1.835   1.924   1.195  0.1644 -0.1841  0.4938
 3602TIP3    H232366   1.912   2.029   1.271 -1.2379  0.3139  1.2768
 3603TIP3   OH232367   5.954   2.689   0.168 -0.3885  0.2537 -0.2516
 3603TIP3    H132368   5.863   2.665   0.151 -0.7563  2.2453 -1.4358
 3603TIP3    H232369   6.000   2.671   0.086 -0.5456  2.6991 -0.9504
 3604TIP3   OH232370   0.208   3.691   1.045 -0.5934  0.2788  0.3918
 3604TIP3    H132371   0.247   3.775   1.024 -0.3066  0.7191  2.4910
 3604TIP3    H232372   0.225   3.678   1.138  2.3416 -3.6407 -0.4136
 3605TIP3   OH232373   3.974   0.920   1.145  0.5410 -0.7551 -0.1059
 3605TIP3    H132374   4.038   0.874   1.200 -0.3517 -0.2480  1.3952
 3605TIP3    H232375   3.897   0.930   1.200  0.1945  1.2855 -0.8701
 3606TIP3   OH232376   3.767   6.715   0.370  0.0513 -0.1578 -0.7874
 3606TIP3    H132377   3.842   6.731   0.428 -0.4021 -0.7082 -0.0278
 3606TIP3    H232378   3.806   6.679   0.290  0.7144  0.9115 -0.9774
 3607TIP3   OH232379   1.027   4.220   6.830 -0.1130  0.6001 -0.0692
 3607TIP3    H132380   1.060   4.225   6.920 -0.9786  3.4172  0.1802
 3607TIP3    H232381   1.105   4.201   6.778  0.8115  1.0659  1.0819
 3608TIP3   OH232382   0.764   3.237   0.565 -0.3240  0.0140 -0.7260
 3608TIP3    H132383   0.849   3.268   0.532 -1.4922  1.3946 -2.5939
 3608TIP3    H232384   0.765   3.262   0.658  1.4116 -0.2611 -0.6272
 3609TIP3   OH232385   2.474   2.313   1.385  0.1666 -0.2322  0.1468
 3609TIP3    H132386   2.499   2.405   1.397 -0.1169 -0.3222  1.5118
 3609TIP3    H232387   2.391   2.317   1.337 -0.3288  0.2756  1.0099
 3610TIP3   OH232388   0.876   0.138   7.443 -0.2290  0.1254  0.0800
 3610TIP3    H132389   0.889   0.067   7.380  0.0890 -0.6047  0.9310
 3610TIP3    H232390   0.959   0.143   7.491 -0.7879 -0.0255  1.1035
 3611TIP3   OH232391   2.523   5.164   1.531  0.4313  0.2462  0.1382
 3611TIP3    H132392   2.443   5.171   1.478 -0.3218 -2.2832  0.7838
 3611TIP3    H232393   2.541   5.070   1.534  0.9561  0.3340  3.5229
 3612TIP3   OH232394   1.017   1.932   0.031 -0.2274  0.3830  1.1937
 3612TIP3    H132395   0.969   2.000  -0.016 -0.7730  0.3960  1.7416
 3612TIP3    H232396   1.017   1.857  -0.029  0.3994  0.8635  0.5793
 3613TIP3   OH232397   2.802   5.137   6.345 -0.7250 -0.6126  0.2845
 3613TIP3    H132398   2.854   5.216   6.331 -1.4990  0.2733  2.0917
 3613TIP3    H232399   2.812   5.088   6.263 -0.4814  1.4796 -1.0307
 3614TIP3   OH232400   2.584   1.209   7.269  0.3023  0.7466 -0.0311
 3614TIP3    H132401   2.530   1.143   7.225  0.1357  2.8948 -3.4993
 3614TIP3    H232402   2.671   1.197   7.231  0.5635  1.6866  0.2401
 3615TIP3   OH232403   1.766   1.730   8.488  0.1921 -0.2030  0.2290
 3615TIP3    H132404   1.801   1.669   8.552  1.3342 -0.5383 -0.6747
 3615TIP3    H232405   1.803   1.815   8.513  1.9870 -0.5943 -0.8701
 3616TIP3   OH232406   0.695   6.563   7.750 -0.1792 -0.4632 -0.0062
 3616TIP3    H132407   0.666   6.546   7.661 -0.6642 -0.8574  0.2209
 3616TIP3    H232408   0.761   6.631   7.741 -1.2768  0.5721 -0.5174
 3617TIP3   OH232409   4.322   4.687   1.579  0.0241  0.6134  0.4890
 3617TIP3    H132410   4.312   4.686   1.674 -0.0619 -0.6846  0.4848
 3617TIP3    H232411   4.374   4.610   1.559 -1.6928 -0.3254 -0.6713
 3618TIP3   OH232412   0.855   2.971   0.343  0.6496  0.3746 -0.4059
 3618TIP3    H132413   0.888   3.041   0.287 -0.5817  1.7293  0.4613
 3618TIP3    H232414   0.759   2.979   0.335  0.4224  0.8283  2.0565
 3619TIP3   OH232415   0.275   3.823   8.197  0.6232  0.0188 -0.2354
 3619TIP3    H132416   0.307   3.912   8.186 -0.7936  0.6186  0.1613
 3619TIP3    H232417   0.309   3.775   8.121 -0.5424  1.5072 -1.7875
 3620TIP3   OH232418   5.117   5.563   8.275  0.2553 -0.0260 -0.2236
 3620TIP3    H132419   5.042   5.512   8.246  1.6908 -2.1212 -0.4366
 3620TIP3    H232420   5.079   5.636   8.324 -1.8862 -1.7320  0.8284
 3621TIP3   OH232421   6.077   6.731   6.652  0.0601  0.1596  0.1932
 3621TIP3    H132422   6.110   6.742   6.741  1.0794  1.1621 -0.2775
 3621TIP3    H232423   6.119   6.651   6.621  0.1239  0.1014  0.4228
 3622TIP3   OH232424   6.786   4.587   0.567  0.4883  0.2565 -0.1954
 3622TIP3    H132425   6.790   4.494   0.591 -1.4888  0.4526  1.0581
 3622TIP3    H232426   6.842   4.593   0.490 -1.5771 -2.5916 -2.1440
 3623TIP3   OH232427   6.011   4.405   1.215  0.0647  0.1395 -0.8293
 3623TIP3    H132428   5.994   4.388   1.308  1.9538  1.6373 -0.1290
 3623TIP3    H232429   6.068   4.333   1.187  2.1606  1.3301  0.1344
 3624TIP3   OH232430   0.739   3.189   1.728 -0.3291  0.0354  0.4090
 3624TIP3    H132431   0.721   3.202   1.635 -2.8014  1.4662  1.0216
 3624TIP3    H232432   0.821   3.235   1.744 -0.6182  0.9810 -0.7775
 3625TIP3   OH232433   4.145   6.508   7.862 -0.3339  0.0562 -0.0786
 3625TIP3    H132434   4.173   6.430   7.910 -1.2476  0.0530  0.4818
 3625TIP3    H232435   4.225   6.544   7.825 -0.1322 -2.3200 -2.2052
 3626TIP3   OH232436   2.616   5.782   0.760 -0.3728  0.1257  0.0036
 3626TIP3    H132437   2.647   5.694   0.781 -0.4921 -0.1955 -1.0535
 3626TIP3    H232438   2.521   5.771   0.750 -0.5300  0.6070  0.9361
 3627TIP3   OH232439   2.575   3.759   7.151  0.3671  0.0806 -0.4824
 3627TIP3    H132440   2.669   3.763   7.170  0.5835  0.1504 -1.5315
 3627TIP3    H232441   2.565   3.805   7.068 -0.8147  1.4262  0.3563
 3628TIP3   OH232442   4.986   0.068   1.196 -0.1629  0.0344  0.0589
 3628TIP3    H132443   5.027   0.100   1.116 -1.0164 -1.3140 -0.9679
 3628TIP3    H232444   4.909   0.124   1.208  0.4925  0.8657  0.5164
 3629TIP3   OH232445   1.486   0.076   1.551 -0.1998  0.1141  0.0896
 3629TIP3    H132446   1.489  -0.005   1.603 -4.3253  0.5884  1.4654
 3629TIP3    H232447   1.438   0.138   1.607  0.0585  2.4857 -2.1711
 3630TIP3   OH232448   2.713   0.897   1.885  0.3332  0.1884  0.0711
 3630TIP3    H132449   2.696   0.807   1.910  0.7520  0.3696  1.0652
 3630TIP3    H232450   2.808   0.901   1.874  0.2778  0.4172 -0.3545
 3631TIP3   OH232451   6.255   6.516   8.325  0.4704 -0.0089 -0.3608
 3631TIP3    H132452   6.309   6.571   8.267 -1.8646  1.9777 -0.7937
 3631TIP3    H232453   6.253   6.430   8.282  2.6778  0.0284 -0.6569
 3632TIP3   OH232454   3.571   2.245   0.133 -0.5391 -0.1124 -0.9569
 3632TIP3    H132455   3.507   2.218   0.068 -0.7449  1.9265 -1.6677
 3632TIP3    H232456   3.653   2.207   0.104 -0.5960  0.8716 -2.5427
 3633TIP3   OH232457   1.766   5.407   7.908  0.4958 -0.0893  0.8672
 3633TIP3    H132458   1.845   5.352   7.906  0.3705 -0.2778  1.0687
 3633TIP3    H232459   1.765   5.449   7.822 -0.4098 -1.8315 -0.0221
 3634TIP3   OH232460   0.396   6.074   1.670 -0.1679  0.0096 -1.1360
 3634TIP3    H132461   0.335   6.013   1.711 -0.0221  1.3019  1.1411
 3634TIP3    H232462   0.341   6.149   1.645  0.3378  0.8800  0.2898
 3635TIP3   OH232463   5.640   3.987   1.682 -0.1957  0.5087 -1.0350
 3635TIP3    H132464   5.616   3.929   1.610 -2.0170 -2.3382  1.5935
 3635TIP3    H232465   5.557   4.005   1.726  1.0805 -0.2512  1.9315
 3636TIP3   OH232466   6.290   1.861   1.415  0.3258  0.0195  0.5441
 3636TIP3    H132467   6.221   1.921   1.444 -1.7546 -2.3450  0.8223
 3636TIP3    H232468   6.312   1.892   1.327 -2.3836 -0.1107 -0.2798
 3637TIP3   OH232469   6.299   2.481   0.097  0.0523  0.2973  0.1468
 3637TIP3    H132470   6.376   2.531   0.126 -0.2495  0.1387  1.2570
 3637TIP3    H232471   6.336   2.401   0.060  0.4374  0.2614  0.5914
 3638TIP3   OH232472   0.477   2.747   1.530 -0.4089  0.1884 -0.8386
 3638TIP3    H132473   0.513   2.672   1.578 -0.4225 -0.5172 -1.8986
 3638TIP3    H232474   0.383   2.740   1.543 -0.5073 -0.6626 -1.8626
 3639TIP3   OH232475   0.693   6.840   0.020  0.1193  0.5629 -0.2076
 3639TIP3    H132476   0.723   6.750   0.014  0.3051  0.6897 -1.5707
 3639TIP3    H232477   0.753   6.889  -0.036 -0.9854  1.2473 -0.8426
 3640TIP3   OH232478   5.585   4.737   7.333 -0.3427 -0.4174  0.0755
 3640TIP3    H132479   5.613   4.826   7.311 -1.8026 -0.2772 -1.4000
 3640TIP3    H232480   5.646   4.709   7.401  0.2347  1.6547  0.4797
 3641TIP3   OH232481   2.616   4.304   8.115 -0.1963  0.3686 -0.3147
 3641TIP3    H132482   2.589   4.259   8.195 -1.2451  0.6247 -0.5137
 3641TIP3    H232483   2.674   4.374   8.144  1.3012 -0.9418  0.0225
 3642TIP3   OH232484   0.971   0.420   7.051 -0.5714 -0.1345 -0.0419
 3642TIP3    H132485   0.893   0.474   7.062  0.0765  1.0275 -0.9811
 3642TIP3    H232486   0.936   0.335   7.021 -1.5471 -0.0681  0.8265
 3643TIP3   OH232487   0.268   3.358   0.739  0.6063  0.6574 -0.3350
 3643TIP3    H132488   0.178   3.380   0.761  1.1270  1.9476  0.6769
 3643TIP3    H232489   0.268   3.344   0.645 -0.9492 -1.0048 -0.1217
 3644TIP3   OH232490   2.210   6.550   7.307 -0.0361 -0.2550  0.1530
 3644TIP3    H132491   2.236   6.521   7.220  1.6354 -3.4741  1.5580
 3644TIP3    H232492   2.263   6.628   7.323  0.3003 -0.1461 -1.3462
 3645TIP3   OH232493   5.396   3.314   7.367 -0.4219  0.2738 -0.2228
 3645TIP3    H132494   5.369   3.338   7.278 -0.0957 -0.1692 -0.4460
 3645TIP3    H232495   5.488   3.342   7.372  0.6132 -2.6049 -1.1730
 3646TIP3   OH232496   2.286   0.584   7.338 -0.3138  0.3537  0.5011
 3646TIP3    H132497   2.278   0.651   7.405 -1.2180  2.1307 -1.2473
 3646TIP3    H232498   2.200   0.542   7.336 -0.6504  1.0524 -0.2406
 3647TIP3   OH232499   5.734   2.787   0.001 -0.8037 -0.4760  0.1348
 3647TIP3    H132500   5.746   2.873  -0.038 -0.7262 -1.3808 -2.0074
 3647TIP3    H232501   5.646   2.789   0.038  0.3318  1.5204  3.0628
 3648TIP3   OH232502   1.515   4.423   1.335  0.0658  0.0555 -0.3107
 3648TIP3    H132503   1.483   4.512   1.351 -1.2373 -0.5472  0.6470
 3648TIP3    H232504   1.562   4.401   1.416 -0.4397 -0.4523 -0.1491
 3649TIP3   OH232505   1.243   0.919   8.351 -0.6693 -0.3287 -0.0105
 3649TIP3    H132506   1.253   0.829   8.321 -1.0061 -1.0759  1.9818
 3649TIP3    H232507   1.159   0.920   8.398  0.5423  0.3048  2.3020
 3650TIP3   OH232508   0.839   6.850   7.104  0.5890 -0.1280  0.3877
 3650TIP3    H132509   0.921   6.830   7.149  1.3897  0.2663 -0.8605
 3650TIP3    H232510   0.786   6.771   7.113  1.1143 -0.3995  1.1605
 3651TIP3   OH232511   2.464   3.510   7.145  0.2997  0.4754 -0.1230
 3651TIP3    H132512   2.430   3.487   7.231 -1.4625  0.0466 -0.8966
 3651TIP3    H232513   2.490   3.602   7.154 -0.5812  0.6652  0.6526
 3652TIP3   OH232514   4.589   0.726   0.736 -0.0651 -0.0953  0.1540
 3652TIP3    H132515   4.640   0.758   0.662 -1.0490 -1.5188 -1.1877
 3652TIP3    H232516   4.586   0.800   0.797  1.0974  0.9751 -1.0340
 3653TIP3   OH232517   1.239   1.955   0.194 -0.3559  0.2919  0.0151
 3653TIP3    H132518   1.166   1.942   0.134 -0.1543 -2.2510  0.2158
 3653TIP3    H232519   1.308   1.994   0.140 -0.8385 -0.1244 -0.9268
 3654TIP3   OH232520   0.667   5.508   0.708  0.0375 -0.5215  0.4181
 3654TIP3    H132521   0.621   5.531   0.789  0.4341  2.0080 -0.0070
 3654TIP3    H232522   0.760   5.513   0.731  0.1644  0.9480 -0.3459
 3655TIP3   OH232523   4.469   1.300   7.846  0.0553  0.6100 -0.1121
 3655TIP3    H132524   4.541   1.361   7.868  0.4336  0.2985 -0.4649
 3655TIP3    H232525   4.503   1.249   7.773  1.1196 -2.4285  2.2857
 3656TIP3   OH232526   5.651   5.823   1.255  0.0240  0.1031 -0.3576
 3656TIP3    H132527   5.697   5.902   1.284 -0.2641  0.2013 -0.1564
 3656TIP3    H232528   5.575   5.818   1.313  2.2336 -2.7308  2.6810
 3657TIP3   OH232529   6.254   2.170   0.991  0.2067  0.1396  0.0695
 3657TIP3    H132530   6.269   2.103   0.926  2.2433  1.0092 -0.4143
 3657TIP3    H232531   6.319   2.154   1.059  0.0744  1.0297  0.4298
 3658TIP3   OH232532   3.971   1.678   8.094  0.2815 -0.0428 -0.0419
 3658TIP3    H132533   4.040   1.718   8.042  3.8563 -2.7997  2.1394
 3658TIP3    H232534   3.964   1.589   8.060 -2.2770  0.1271 -0.1526
 3659TIP3   OH232535   5.284   3.389   8.336 -0.5165 -0.1728 -0.4778
 3659TIP3    H132536   5.268   3.482   8.352  1.0093  0.1174 -0.4936
 3659TIP3    H232537   5.272   3.348   8.421  1.3097  0.4414  0.1227
 3660TIP3   OH232538   1.916   1.290   1.761 -0.1132 -0.1292  0.0653
 3660TIP3    H132539   1.971   1.330   1.829  1.4545 -0.5581 -0.8897
 3660TIP3    H232540   1.894   1.203   1.795  0.2267 -0.1429  0.2515
 3661TIP3   OH232541   2.220   6.521   8.023 -0.3468  0.2171  0.0267
 3661TIP3    H132542   2.138   6.570   8.019 -0.9672 -0.7692 -4.5246
 3661TIP3    H232543   2.196   6.437   8.063 -1.6044 -0.0158 -1.1523
 3662TIP3   OH232544   1.727   3.732   2.171  0.3980 -0.9471  0.4759
 3662TIP3    H132545   1.757   3.683   2.094  0.1659 -1.3069  0.6090
 3662TIP3    H232546   1.675   3.804   2.136  1.1379 -0.5102  0.2573
 3663TIP3   OH232547   1.795   4.597   7.036  0.0631  0.3193  0.5456
 3663TIP3    H132548   1.718   4.546   7.011 -0.2227  0.9171  0.1682
 3663TIP3    H232549   1.760   4.671   7.086  0.3932  0.5646  0.4243
 3664TIP3   OH232550   2.402   4.033   7.069  0.1342  0.1447 -0.0926
 3664TIP3    H132551   2.482   4.083   7.083 -0.4527  1.5497 -1.4886
 3664TIP3    H232552   2.431   3.955   7.022  0.6406  0.8824 -1.0321
 3665TIP3   OH232553   1.104   5.251   2.103 -0.1585 -0.0637 -0.2416
 3665TIP3    H132554   1.059   5.239   2.187  1.9275 -1.6766  0.7382
 3665TIP3    H232555   1.056   5.321   2.060 -2.7348 -0.7695  1.2844
 3666TIP3   OH232556   6.598   2.421   0.178  0.0867 -0.7228  0.2275
 3666TIP3    H132557   6.550   2.355   0.228  1.7565  0.5558  3.9181
 3666TIP3    H232558   6.662   2.372   0.128 -1.8955 -2.1222 -1.0909
 3667TIP3   OH232559   6.758   0.109   1.298  0.3794  0.0908  0.3395
 3667TIP3    H132560   6.774   0.059   1.218 -0.5016 -0.4622  0.4854
 3667TIP3    H232561   6.765   0.201   1.272  0.1852 -0.0880 -0.3580
 3668TIP3   OH232562   1.743   1.610   6.531 -0.3542  0.4766  0.5900
 3668TIP3    H132563   1.746   1.514   6.531  1.1864  0.4995  0.0622
 3668TIP3    H232564   1.797   1.636   6.456 -0.9998  1.7587  0.5411
 3669TIP3   OH232565   6.288   5.012   8.070  0.2995 -0.9156 -0.2538
 3669TIP3    H132566   6.358   4.968   8.022 -0.4134 -0.6526 -1.6203
 3669TIP3    H232567   6.332   5.078   8.122  1.0682 -0.6876 -1.1603
 3670TIP3   OH232568   0.904   2.631   1.908 -0.4523  0.2346 -0.2108
 3670TIP3    H132569   0.839   2.596   1.846  1.0048 -3.0257 -0.0880
 3670TIP3    H232570   0.867   2.714   1.937 -3.2433 -0.1793 -2.1900
 3671TIP3   OH232571   4.925   6.518   2.141 -0.1467  0.5267  0.1157
 3671TIP3    H132572   5.003   6.550   2.186  0.1641  1.4619 -1.0350
 3671TIP3    H232573   4.897   6.592   2.087 -0.3998 -0.5819 -1.3269
 3672TIP3   OH232574   1.842   6.695   2.239  0.8535  0.6169 -0.6409
 3672TIP3    H132575   1.848   6.709   2.144 -3.3340 -1.1497 -1.3644
 3672TIP3    H232576   1.827   6.782   2.276 -0.4895  1.0063 -2.0213
 3673TIP3   OH232577   1.130   5.986   0.472 -0.4857 -0.0517 -0.4803
 3673TIP3    H132578   1.081   5.949   0.399 -0.9370 -0.8366  0.2035
 3673TIP3    H232579   1.064   6.000   0.540  0.2315 -1.1102  0.4515
 3674TIP3   OH232580   6.030   0.551   0.083  0.1015  0.6533 -0.0462
 3674TIP3    H132581   6.095   0.551   0.154 -0.6701  2.1188  0.6904
 3674TIP3    H232582   5.958   0.497   0.116  0.8345 -0.8660 -0.8131
 3675TIP3   OH232583   6.730   2.466   8.601 -0.2135 -0.0489  0.4338
 3675TIP3    H132584   6.710   2.490   8.692 -0.2573 -1.6049  0.8775
 3675TIP3    H232585   6.668   2.516   8.548 -0.7436  0.2640  1.3309
 3676TIP3   OH232586   5.207   6.624   1.231  0.4817 -0.4475 -0.3548
 3676TIP3    H132587   5.117   6.597   1.248  1.0912 -1.6566  1.1934
 3676TIP3    H232588   5.208   6.648   1.138 -1.4090 -0.4323 -0.3989
 3677TIP3   OH232589   1.948   4.599   7.593  0.1833  0.9318 -0.1252
 3677TIP3    H132590   1.925   4.676   7.541 -0.6640  1.0457  0.3975
 3677TIP3    H232591   1.900   4.527   7.553  1.6666  0.4762 -1.1627
 3678TIP3   OH232592   2.785   0.474   1.217  0.0147 -0.4753 -0.2290
 3678TIP3    H132593   2.776   0.502   1.309 -2.2152 -0.2583 -0.4549
 3678TIP3    H232594   2.703   0.430   1.198  0.7685 -1.2032 -1.9237
 3679TIP3   OH232595   1.425   4.869   6.677 -0.1041  0.2189 -0.2929
 3679TIP3    H132596   1.406   4.848   6.586  1.0813  1.2266 -0.8090
 3679TIP3    H232597   1.514   4.905   6.675 -0.2975  0.8645  1.1630
 3680TIP3   OH232598   3.473   3.711   0.289 -0.0236 -0.0536  0.1542
 3680TIP3    H132599   3.484   3.803   0.267 -1.8494 -0.1540 -1.3794
 3680TIP3    H232600   3.409   3.711   0.361 -0.7380 -0.1558 -0.4741
 3681TIP3   OH232601   4.515   2.393   0.358  0.6052 -0.3942 -0.3933
 3681TIP3    H132602   4.546   2.303   0.366  0.7941 -0.1928  1.7461
 3681TIP3    H232603   4.486   2.416   0.446 -1.4627  0.9479 -1.3502
 3682TIP3   OH232604   6.782   5.406   2.439  0.1494  0.8217 -0.4075
 3682TIP3    H132605   6.868   5.446   2.423  0.9994 -0.9792 -0.5893
 3682TIP3    H232606   6.722   5.480   2.446  1.8925  2.1963  0.8700
 3683TIP3   OH232607   2.064   1.389   1.274 -0.0080  0.0420 -0.1619
 3683TIP3    H132608   2.074   1.484   1.286 -2.1334  0.1246  1.6401
 3683TIP3    H232609   2.085   1.352   1.360 -0.6349 -0.9642 -0.4286
 3684TIP3   OH232610   1.493   2.896   0.137 -0.6594  0.6692 -0.2440
 3684TIP3    H132611   1.553   2.841   0.087  0.7591  0.8333  1.2056
 3684TIP3    H232612   1.512   2.876   0.228 -1.0205  2.5790  0.2948
 3685TIP3   OH232613   3.892   1.935   0.303 -0.2977 -0.4019 -0.1674
 3685TIP3    H132614   3.831   1.910   0.372 -1.0870 -0.6711 -0.9483
 3685TIP3    H232615   3.898   2.031   0.310 -1.5370 -0.2781 -0.6762
 3686TIP3   OH232616   6.161   5.581   6.983 -0.3263 -0.0809  0.2332
 3686TIP3    H132617   6.229   5.527   7.025  0.7977  1.1057 -0.0018
 3686TIP3    H232618   6.083   5.567   7.037  0.8752  0.7824  2.3152
 3687TIP3   OH232619   5.143   3.844   0.154 -0.0744  0.4317  0.2416
 3687TIP3    H132620   5.050   3.836   0.134 -0.7799  2.2562  2.3700
 3687TIP3    H232621   5.158   3.778   0.222  0.1072  0.3651  0.1362
 3688TIP3   OH232622   3.497   3.891   8.666  0.2189 -0.0174 -0.5455
 3688TIP3    H132623   3.404   3.867   8.665  0.7821 -2.4459  0.4833
 3688TIP3    H232624   3.516   3.910   8.758  0.9921 -0.6087 -0.5784
 3689TIP3   OH232625   3.016   5.613   8.155  0.2110 -0.0105  0.1957
 3689TIP3    H132626   3.076   5.541   8.134  0.3287  0.0392  0.3574
 3689TIP3    H232627   2.943   5.602   8.094 -0.2029 -0.8006  0.8174
 3690TIP3   OH232628   1.447   6.740   8.199 -0.3729  0.4387  0.6057
 3690TIP3    H132629   1.353   6.751   8.212 -0.4067  0.6101  0.2572
 3690TIP3    H232630   1.458   6.739   8.104 -0.1063 -0.3592  0.6350
 3691TIP3   OH232631   5.644   0.757   0.060  0.0138  0.4748  0.3459
 3691TIP3    H132632   5.676   0.758  -0.030 -0.3792 -1.1134  0.1629
 3691TIP3    H232633   5.575   0.691   0.060  1.1829 -0.8334  2.1889
 3692TIP3   OH232634   0.218   2.873   6.397  0.2665 -0.2538 -0.7763
 3692TIP3    H132635   0.298   2.821   6.397  0.6679  0.3445 -0.7026
 3692TIP3    H232636   0.148   2.811   6.419  0.8971 -0.5065  0.6366
 3693TIP3   OH232637   6.825   3.330   0.189  0.3249 -0.5012 -0.2885
 3693TIP3    H132638   6.779   3.378   0.257  0.3632 -0.9869  0.0813
 3693TIP3    H232639   6.756   3.304   0.127 -0.0610 -2.0433  0.7454
 3694TIP3   OH232640   4.101   6.521   0.955 -0.5621  0.2550 -1.1569
 3694TIP3    H132641   4.008   6.518   0.931 -0.3914 -0.9424 -1.7517
 3694TIP3    H232642   4.129   6.430   0.951  0.3266  0.4468  0.3217
 3695TIP3   OH232643   0.697   0.849   6.157  0.3013  0.0239 -0.7123
 3695TIP3    H132644   0.776   0.893   6.127  1.1962 -0.6709  0.5204
 3695TIP3    H232645   0.694   0.768   6.106 -0.2235  0.5355 -1.5189
 3696TIP3   OH232646   5.887   6.618   8.025  0.0239 -0.0691 -0.0207
 3696TIP3    H132647   5.943   6.682   7.981 -1.9013 -0.3625 -3.2396
 3696TIP3    H232648   5.801   6.660   8.027 -1.3439 -2.4590 -2.4011
 3697TIP3   OH232649   5.599   5.605   2.454 -0.1697 -0.8036  0.1708
 3697TIP3    H132650   5.628   5.691   2.484  0.3706 -1.5892  2.0355
 3697TIP3    H232651   5.556   5.622   2.370 -0.1916  1.2841  0.5614
 3698TIP3   OH232652   1.423   5.156   7.664 -0.6546 -0.4263 -0.1963
 3698TIP3    H132653   1.376   5.095   7.722  0.6673 -1.8244 -0.5082
 3698TIP3    H232654   1.503   5.177   7.713 -0.9756  0.8894 -0.2124
 3699TIP3   OH232655   6.164   0.789   8.513  0.0380  0.0750 -0.1222
 3699TIP3    H132656   6.164   0.812   8.420  0.3971  0.7318  0.0359
 3699TIP3    H232657   6.246   0.742   8.526  0.2806  0.5176 -0.0164
 3700TIP3   OH232658   0.885   0.113   1.684  0.2857  0.0799  0.0055
 3700TIP3    H132659   0.867   0.198   1.644  0.5930 -0.4365 -1.3130
 3700TIP3    H232660   0.821   0.104   1.754 -1.2604  0.4418 -1.2939
 3701TIP3   OH232661   1.453   2.228   0.140  0.5400  0.2380  0.1120
 3701TIP3    H132662   1.447   2.145   0.093 -1.3090  0.6998 -0.5115
 3701TIP3    H232663   1.527   2.215   0.200  0.1065 -1.9773  0.2658
 3702TIP3   OH232664   2.098   1.902   7.294 -0.2846 -0.4740 -0.0900
 3702TIP3    H132665   2.055   1.854   7.223 -0.5341 -1.0937  0.4722
 3702TIP3    H232666   2.175   1.942   7.253 -0.0139 -1.4501 -0.5465
 3703TIP3   OH232667   6.601   4.485   0.011  0.5464  0.5547  0.4776
 3703TIP3    H132668   6.573   4.414   0.070  2.5277  0.0549  0.8962
 3703TIP3    H232669   6.546   4.476  -0.066 -1.3676  0.5282  1.7802
 3704TIP3   OH232670   4.359   3.101   7.368  0.2455  0.8735 -0.1296
 3704TIP3    H132671   4.425   3.042   7.333 -0.4296 -0.9713  1.5402
 3704TIP3    H232672   4.401   3.187   7.367  1.4522  0.3364 -2.1137
 3705TIP3   OH232673   6.442   2.023   0.584 -0.5595  0.3209  0.2569
 3705TIP3    H132674   6.408   1.969   0.513  0.4339  0.0732 -0.0430
 3705TIP3    H232675   6.480   2.099   0.540  0.0139  0.1932  0.5218
 3706TIP3   OH232676   0.121   0.198   1.551  0.0537 -1.1325 -0.9388
 3706TIP3    H132677   0.171   0.176   1.629  1.2650  0.5785 -1.1822
 3706TIP3    H232678   0.174   0.167   1.478  0.2447 -0.3166 -1.1583
 3707TIP3   OH232679   1.294   3.693   7.906 -0.1146  0.1798 -0.4071
 3707TIP3    H132680   1.384   3.697   7.938 -0.3284 -1.5759  0.5171
 3707TIP3    H232681   1.300   3.725   7.815  0.7980  3.4375  0.6548
 3708TIP3   OH232682   2.193   2.648   6.862 -0.2934 -0.2522 -0.4232
 3708TIP3    H132683   2.272   2.594   6.852 -0.1744 -0.0629 -0.5124
 3708TIP3    H232684   2.140   2.601   6.926 -2.5446 -3.2648 -4.0198
 3709TIP3   OH232685   1.708   3.189   8.363 -0.1646  0.3014 -0.3544
 3709TIP3    H132686   1.697   3.280   8.389 -0.7702  0.6021 -1.5826
 3709TIP3    H232687   1.781   3.190   8.301  0.4543 -0.2085  0.3447
 3710TIP3   OH232688   5.805   1.511   0.113  0.5337  0.1465  0.0939
 3710TIP3    H132689   5.747   1.582   0.140  0.2400  0.0965 -0.3908
 3710TIP3    H232690   5.851   1.545   0.037  1.3406  0.2806  0.6276
 3711TIP3   OH232691   0.473   0.395   8.136 -0.0381 -0.1427  0.1113
 3711TIP3    H132692   0.383   0.396   8.104  0.6031  0.3777 -1.8363
 3711TIP3    H232693   0.506   0.308   8.111  0.7123  0.5562 -1.5257
 3712TIP3   OH232694   4.469   3.313   1.514 -0.6314  0.6865  0.8544
 3712TIP3    H132695   4.410   3.365   1.460  0.2383  0.0400 -0.7834
 3712TIP3    H232696   4.412   3.255   1.563 -1.4073  0.7175  0.0040
 3713TIP3   OH232697   6.751   3.127   0.394  0.0071 -0.5571  0.4845
 3713TIP3    H132698   6.818   3.135   0.462 -2.4503  2.0409  2.8461
 3713TIP3    H232699   6.735   3.218   0.366 -1.0786 -1.3144 -1.5498
 3714TIP3   OH232700   3.048   0.311   7.652 -0.6548 -0.5678 -0.0298
 3714TIP3    H132701   3.123   0.368   7.640  0.5978 -2.3629 -1.2625
 3714TIP3    H232702   2.986   0.363   7.703  0.5631  1.6951 -0.7243
 3715TIP3   OH232703   1.531   1.205   7.176  0.4874 -0.0065 -0.0409
 3715TIP3    H132704   1.493   1.121   7.147  0.9806  0.2138 -1.4031
 3715TIP3    H232705   1.599   1.224   7.111  1.2181  0.8524  0.9484
 3716TIP3   OH232706   0.471   0.092   7.533 -0.3588  0.0243 -0.2342
 3716TIP3    H132707   0.446   0.003   7.557 -0.6394  0.7944  2.8311
 3716TIP3    H232708   0.389   0.142   7.537 -0.0328  0.6166 -0.8308
 3717TIP3   OH232709   5.840   5.135   6.759 -0.5679  0.1500 -0.5147
 3717TIP3    H132710   5.806   5.053   6.722  0.2595 -0.7261  0.5736
 3717TIP3    H232711   5.782   5.154   6.833 -1.4498  1.1982 -1.4468
 3718TIP3   OH232712   1.633   6.124   0.192  0.2981  0.5910  0.2325
 3718TIP3    H132713   1.676   6.172   0.263 -0.1664  0.0933  0.8574
 3718TIP3    H232714   1.540   6.143   0.203  0.2900  1.3289 -0.8677
 3719TIP3   OH232715   2.366   0.369   0.445  0.0035 -0.6457 -0.0156
 3719TIP3    H132716   2.313   0.447   0.457 -1.4007 -1.7376  1.4291
 3719TIP3    H232717   2.367   0.327   0.532  1.7070 -1.6209 -0.4500
 3720TIP3   OH232718   5.518   5.209   8.330 -0.1782  0.1647  0.1056
 3720TIP3    H132719   5.444   5.270   8.325  0.6444  1.2453  0.8584
 3720TIP3    H232720   5.566   5.223   8.249 -1.1915 -1.0862 -0.7407
 3721TIP3   OH232721   6.518   5.168   1.999 -0.0962  0.3498 -0.7089
 3721TIP3    H132722   6.490   5.078   2.016  0.4023  0.3647  0.3002
 3721TIP3    H232723   6.474   5.219   2.067 -2.6241  1.3372 -2.9044
 3722TIP3   OH232724   0.183   5.563   0.547  0.2732 -0.6421 -0.6139
 3722TIP3    H132725   0.226   5.570   0.632  2.2600 -0.8850 -1.5442
 3722TIP3    H232726   0.175   5.468   0.533  1.1086 -0.6338 -1.2215
 3723TIP3   OH232727   2.445   6.593   2.171  0.0980 -0.2056 -0.1015
 3723TIP3    H132728   2.406   6.523   2.120 -0.2447 -0.4657  0.5136
 3723TIP3    H232729   2.385   6.667   2.162  1.5231  0.7719 -2.5573
 3724TIP3   OH232730   3.033   3.461   7.327  0.0916  0.6289 -0.1436
 3724TIP3    H132731   3.001   3.501   7.246 -0.9957 -2.2545 -1.3078
 3724TIP3    H232732   3.123   3.436   7.308 -0.2820 -0.3884 -0.6638
 3725TIP3   OH232733   3.352   5.968   1.261 -0.3453  0.2160 -0.7317
 3725TIP3    H132734   3.347   5.959   1.166  0.1996  0.8548 -0.8273
 3725TIP3    H232735   3.433   6.015   1.277 -0.3889  0.0428  0.0618
 3726TIP3   OH232736   5.632   2.401   6.954  0.0450 -0.1505 -0.8141
 3726TIP3    H132737   5.631   2.458   6.877  0.6601 -0.7288 -1.2701
 3726TIP3    H232738   5.601   2.456   7.026 -1.3590  0.1655 -1.6240
 3727TIP3   OH232739   2.690   0.853   1.600  0.2739  0.0048 -0.2601
 3727TIP3    H132740   2.653   0.860   1.688 -0.9337 -0.1464 -0.7371
 3727TIP3    H232741   2.652   0.927   1.551  0.1948 -0.4423 -0.8937
 3728TIP3   OH232742   5.339   0.220   8.555  0.0984 -0.2350  0.1850
 3728TIP3    H132743   5.264   0.277   8.573  0.3381  0.3842 -0.7000
 3728TIP3    H232744   5.411   0.257   8.606  0.1670  0.0650 -0.1242
 3729TIP3   OH232745   4.331   3.885   7.991 -0.4326 -0.3982 -0.2258
 3729TIP3    H132746   4.371   3.909   7.907 -0.5052 -0.0386 -0.1582
 3729TIP3    H232747   4.316   3.791   7.984  0.8093 -0.6288 -0.0968
 3730TIP3   OH232748   4.057   0.115   6.508  0.3835  0.3066  0.3915
 3730TIP3    H132749   3.988   0.173   6.477  0.5265  0.5644  0.5472
 3730TIP3    H232750   4.137   0.167   6.500  0.4760  0.2374  0.8047
 3731TIP3   OH232751   3.115   6.720   0.448  0.1992  0.2837  0.2020
 3731TIP3    H132752   3.119   6.803   0.400 -2.7790 -0.9076 -2.4780
 3731TIP3    H232753   3.085   6.657   0.383  0.7674 -2.6024  2.5451
 3732TIP3   OH232754   6.014   0.331   8.598  0.3056  0.3238  0.2273
 3732TIP3    H132755   6.010   0.253   8.653 -2.8754  0.0349 -0.2115
 3732TIP3    H232756   6.027   0.404   8.659 -1.6034 -0.1320  1.2355
 3733TIP3   OH232757   4.774   2.807   1.875  0.4256  0.4046  0.3790
 3733TIP3    H132758   4.741   2.791   1.787 -0.2080 -0.2101  0.7149
 3733TIP3    H232759   4.822   2.889   1.869 -0.7094  1.0450 -0.2566
 3734TIP3   OH232760   4.699   0.267   6.877 -0.3285  0.2076  0.0103
 3734TIP3    H132761   4.663   0.350   6.847 -0.0419  0.2559 -0.2097
 3734TIP3    H232762   4.726   0.222   6.797  0.8378  0.5165  0.2092
 3735TIP3   OH232763   0.151   2.922   7.843  0.0484 -0.6352 -0.3980
 3735TIP3    H132764   0.066   2.894   7.877  0.4816 -1.6387 -0.1248
 3735TIP3    H232765   0.187   2.978   7.912 -0.3463 -0.2633 -0.4851
 3736TIP3   OH232766   5.508   3.124   0.078 -0.1064 -0.3097 -0.5252
 3736TIP3    H132767   5.486   3.216   0.094 -1.1466 -0.6227 -0.0857
 3736TIP3    H232768   5.505   3.084   0.165 -1.6809 -1.1768 -0.9436
 3737TIP3   OH232769   1.364   2.970   1.867 -0.2587 -0.2871 -0.3158
 3737TIP3    H132770   1.383   3.063   1.879 -0.1314 -0.4270  0.7454
 3737TIP3    H232771   1.309   2.948   1.942 -0.3981 -1.0386 -0.6345
 3738TIP3   OH232772   6.305   4.463   0.521  0.1655 -0.3232 -0.2522
 3738TIP3    H132773   6.275   4.372   0.516  0.6644 -0.5908  1.2395
 3738TIP3    H232774   6.248   4.510   0.460  0.3213 -1.7281 -1.5541
 3739TIP3   OH232775   4.104   0.987   0.148  0.1614 -0.2227 -1.1419
 3739TIP3    H132776   4.077   1.071   0.110 -0.0285 -0.2232 -1.0107
 3739TIP3    H232777   4.115   0.929   0.073  1.1078  0.1503 -1.3010
 3740TIP3   OH232778   6.667   0.356   0.510  0.2044 -0.6321  0.1989
 3740TIP3    H132779   6.652   0.424   0.576  0.8520 -1.1836  0.9325
 3740TIP3    H232780   6.653   0.400   0.427 -0.7488  0.0570  0.7008
 3741TIP3   OH232781   2.261   2.715   8.429 -0.1803  0.0830  0.6193
 3741TIP3    H132782   2.253   2.810   8.420 -0.2313  0.1052  0.8963
 3741TIP3    H232783   2.171   2.684   8.442  0.0746  0.3079  3.4588
 3742TIP3   OH232784   6.225   1.082   1.268  0.5539  0.2151 -0.0039
 3742TIP3    H132785   6.247   1.027   1.193 -0.5076  0.1863 -0.3176
 3742TIP3    H232786   6.180   1.157   1.230  0.8438  0.6619  0.5289
 3743TIP3   OH232787   1.618   3.890   6.943 -0.0091 -0.1925  0.6316
 3743TIP3    H132788   1.633   3.821   6.877  1.2263  1.5564 -1.0250
 3743TIP3    H232789   1.553   3.947   6.903  0.9317  1.0234  0.7834
 3744TIP3   OH232790   5.518   4.361   1.128 -0.3845 -0.1577 -0.4167
 3744TIP3    H132791   5.604   4.401   1.139 -0.6549  0.0908  0.9367
 3744TIP3    H232792   5.534   4.286   1.071  0.8187 -0.4144  0.2288
 3745TIP3   OH232793   1.032   3.456   2.165 -0.5304 -0.1042 -0.0246
 3745TIP3    H132794   1.065   3.378   2.209  0.1208 -0.9701 -1.9365
 3745TIP3    H232795   0.936   3.447   2.168 -0.4966 -0.2750  0.9163
 3746TIP3   OH232796   2.347   5.472   7.488 -0.3580  0.0041 -0.3340
 3746TIP3    H132797   2.330   5.539   7.422  0.3523  0.1266 -0.3988
 3746TIP3    H232798   2.418   5.419   7.451  0.8916  0.8020  0.8393
 3747TIP3   OH232799   1.300   2.951   1.386  0.2172  0.8114  0.4997
 3747TIP3    H132800   1.355   3.029   1.397  0.7804  0.3904  0.7553
 3747TIP3    H232801   1.256   2.941   1.470  1.5492 -0.1800  1.1183
 3748TIP3   OH232802   4.954   5.473   0.498  0.8612 -0.3387 -0.2505
 3748TIP3    H132803   4.894   5.479   0.572  0.1445  1.9413 -0.9315
 3748TIP3    H232804   4.908   5.420   0.433  1.0833 -1.5149  0.5195
 3749TIP3   OH232805   0.780   0.649   7.333  1.2112 -0.2550 -0.2446
 3749TIP3    H132806   0.744   0.582   7.275  1.1121 -1.9047  1.6145
 3749TIP3    H232807   0.703   0.694   7.368  1.0341 -1.4471  1.0293
 3750TIP3   OH232808   0.408   0.002   0.283 -0.4361 -0.3551 -0.1280
 3750TIP3    H132809   0.450  -0.076   0.320  0.3551 -0.0802 -0.4280
 3750TIP3    H232810   0.412   0.066   0.354 -0.6487 -0.4329 -0.0452
 3751TIP3   OH232811   0.614   5.560   7.625 -0.0227  0.2676  0.3814
 3751TIP3    H132812   0.571   5.511   7.695 -0.4028 -0.2089 -0.1752
 3751TIP3    H232813   0.558   5.637   7.612  0.3592  0.6643  0.9795
 3752TIP3   OH232814   3.764   5.613   8.025  0.1848  0.3374 -0.0656
 3752TIP3    H132815   3.855   5.608   8.057  0.6698  0.0932 -1.4140
 3752TIP3    H232816   3.757   5.541   7.962 -0.3257  1.5299 -1.4246
 3753TIP3   OH232817   3.483   1.393   1.331 -0.6381 -0.4639  0.1644
 3753TIP3    H132818   3.485   1.303   1.298 -0.3710 -0.5322  0.3663
 3753TIP3    H232819   3.401   1.428   1.298  0.8343  0.3809 -3.0228
 3754TIP3   OH232820   2.163   4.829   2.268 -0.6806 -0.2020  0.2075
 3754TIP3    H132821   2.172   4.838   2.173  1.0088 -0.2536  0.3171
 3754TIP3    H232822   2.157   4.919   2.300  1.4490  0.0093  0.2029
 3755TIP3   OH232823   6.765   0.449   7.540 -0.0952 -0.3136  0.1327
 3755TIP3    H132824   6.760   0.418   7.449  1.5646  0.6575 -0.3264
 3755TIP3    H232825   6.767   0.544   7.532 -3.5299 -0.0017  1.4316
 3756TIP3   OH232826   2.878   6.558   1.736 -0.4420  0.5153  0.1816
 3756TIP3    H132827   2.937   6.505   1.683 -1.8434 -0.0585 -0.8919
 3756TIP3    H232828   2.888   6.647   1.702 -1.1459  0.1943 -0.9250
 3757TIP3   OH232829   2.864   5.633   7.438  0.2499  0.7043  0.4930
 3757TIP3    H132830   2.831   5.590   7.517  0.2066  0.3231  0.2723
 3757TIP3    H232831   2.785   5.657   7.389  0.2802  0.7274  0.4552
 3758TIP3   OH232832   6.225   5.277   7.463  0.4093  0.0314 -0.1851
 3758TIP3    H132833   6.239   5.196   7.511 -1.5494 -0.1659  0.1107
 3758TIP3    H232834   6.311   5.320   7.464  0.6711 -0.3670  2.7165
 3759TIP3   OH232835   1.946   1.040   0.705  0.0607 -0.3537 -0.0571
 3759TIP3    H132836   1.972   0.949   0.719 -1.2091 -0.6283  0.6596
 3759TIP3    H232837   2.022   1.091   0.731  0.4752 -1.1800  0.3927
 3760TIP3   OH232838   5.357   0.967   0.023  0.1064 -0.1202  0.0296
 3760TIP3    H132839   5.438   0.920  -0.001  0.5773  0.3824  0.6015
 3760TIP3    H232840   5.333   0.931   0.109  1.5370  1.9671  1.3914
 3761TIP3   OH232841   0.619   5.805   1.449 -0.0407  0.4169 -0.1578
 3761TIP3    H132842   0.654   5.849   1.527  0.6027  0.5715 -0.5344
 3761TIP3    H232843   0.653   5.856   1.376 -0.6396  0.2643 -0.5437
 3762TIP3   OH232844   1.632   2.768   8.638 -0.3408  0.1186  0.1059
 3762TIP3    H132845   1.611   2.691   8.585 -1.8378  0.2197  0.4844
 3762TIP3    H232846   1.619   2.842   8.579 -2.5401  0.2652  0.6811
 3763TIP3   OH232847   3.640   6.020   0.611  0.1402 -0.2155 -0.5540
 3763TIP3    H132848   3.701   5.990   0.677  0.3579  1.2497 -0.0470
 3763TIP3    H232849   3.559   6.037   0.659  0.7206  2.2458 -0.3360
 3764TIP3   OH232850   6.549   4.353   2.267  0.4940  0.0554 -0.0963
 3764TIP3    H132851   6.519   4.432   2.222 -0.2185 -0.1073  0.0703
 3764TIP3    H232852   6.468   4.308   2.291  0.8955 -0.7804 -0.2885
 3765TIP3   OH232853   4.016   3.238   6.754 -0.4376 -0.5974 -0.2942
 3765TIP3    H132854   4.097   3.246   6.703 -0.9600  0.6905 -0.9593
 3765TIP3    H232855   3.969   3.166   6.713 -1.3448  1.0971 -2.4096
 3766TIP3   OH232856   3.276   1.889   0.279 -0.5706  0.4945  0.2011
 3766TIP3    H132857   3.309   1.829   0.346  1.2820 -0.2835 -1.3127
 3766TIP3    H232858   3.311   1.975   0.305  0.5664  0.1125  0.0142
 3767TIP3   OH232859   2.128   0.717   6.842  0.3177 -0.3895  0.4392
 3767TIP3    H132860   2.178   0.666   6.906 -0.4336  0.1783  1.5032
 3767TIP3    H232861   2.088   0.651   6.785  0.1224 -0.9589  1.2215
 3768TIP3   OH232862   3.190   0.252   6.078 -0.2262  0.3670  0.1047
 3768TIP3    H132863   3.271   0.263   6.128 -0.5263 -0.0468  0.6848
 3768TIP3    H232864   3.195   0.162   6.045 -0.6829  0.1818  0.5472
 3769TIP3   OH232865   3.488   2.474   7.938 -0.5036  0.7008 -0.6122
 3769TIP3    H132866   3.394   2.479   7.956 -0.6521 -1.4079 -0.5541
 3769TIP3    H232867   3.496   2.413   7.865  0.9211 -0.5948  0.5634
 3770TIP3   OH232868   6.225   5.447   8.288 -0.2956  0.0640  0.4571
 3770TIP3    H132869   6.286   5.495   8.232  0.0658 -1.1559 -0.2243
 3770TIP3    H232870   6.271   5.366   8.310 -1.4557 -0.6471  0.3742
 3771TIP3   OH232871   2.900   2.356   8.469 -0.4977 -0.0996  0.2651
 3771TIP3    H132872   2.996   2.362   8.462 -0.5406 -0.2566 -0.5602
 3771TIP3    H232873   2.868   2.443   8.447 -0.6310 -0.5834 -1.6680
 3772TIP3   OH232874   3.793   1.454   7.778  0.4530 -0.3344 -0.2973
 3772TIP3    H132875   3.735   1.440   7.703  1.0411  1.2903 -1.1019
 3772TIP3    H232876   3.796   1.550   7.789  2.2688 -0.4153  0.2881
 3773TIP3   OH232877   0.310   4.580   8.379  0.1685 -0.7189 -0.2171
 3773TIP3    H132878   0.286   4.564   8.470  0.2077  0.4414  0.0001
 3773TIP3    H232879   0.384   4.640   8.383  0.1317 -0.6087 -1.0181
 3774TIP3   OH232880   1.342   2.668   8.514 -0.2219  0.0447 -0.0520
 3774TIP3    H132881   1.285   2.702   8.445  1.0782  0.0909 -1.1282
 3774TIP3    H232882   1.410   2.620   8.468  0.4491 -0.2701  1.2236
 3775TIP3   OH232883   3.161   3.203   0.498 -0.4158  0.2678  0.9348
 3775TIP3    H132884   3.087   3.144   0.489  0.6340 -1.1499  1.1894
 3775TIP3    H232885   3.205   3.199   0.413 -0.4503  0.8429  0.8889
 3776TIP3   OH232886   0.501   0.782   6.894 -0.7195 -0.0222  0.0810
 3776TIP3    H132887   0.439   0.783   6.821  0.0819 -2.9927 -0.7894
 3776TIP3    H232888   0.459   0.727   6.961 -1.0795  1.9734  1.5877
 3777TIP3   OH232889   1.761   2.789   0.315  0.0154 -0.0051 -0.0819
 3777TIP3    H132890   1.784   2.880   0.335  0.5429 -0.2366  0.4051
 3777TIP3    H232891   1.844   2.742   0.323 -0.5456 -0.8192  1.4091
 3778TIP3   OH232892   4.050   1.361   7.574 -0.1912 -0.7400 -0.7828
 3778TIP3    H132893   4.052   1.388   7.665  2.2188  0.4839 -1.1053
 3778TIP3    H232894   3.959   1.372   7.547 -0.7358 -0.0833  1.1674
 3779TIP3   OH232895   5.361   4.948   1.298  0.4037  0.2291  0.3472
 3779TIP3    H132896   5.428   4.879   1.298  1.3596  0.9959 -2.7194
 3779TIP3    H232897   5.411   5.029   1.311 -0.5079  0.5328  2.2367
 3780TIP3   OH232898   6.835   0.078   7.818  0.2599  0.0242 -0.3840
 3780TIP3    H132899   6.786   0.016   7.765  0.7178  1.1334 -2.1844
 3780TIP3    H232900   6.922   0.082   7.778  0.2614  1.7695 -0.3075
 3781TIP3   OH232901   2.927   4.296   8.261 -0.0845  0.3521  0.2328
 3781TIP3    H132902   2.938   4.369   8.201  1.7181 -0.6139 -0.7048
 3781TIP3    H232903   2.882   4.229   8.209 -1.6728  0.7041  1.0671
 3782TIP3   OH232904   4.592   5.910   7.463  0.1964  0.2150 -0.2216
 3782TIP3    H132905   4.611   5.951   7.548 -1.7211  1.8736 -0.5364
 3782TIP3    H232906   4.677   5.880   7.432  0.8941 -1.0201  2.5494
 3783TIP3   OH232907   6.609   1.332   6.997 -0.2207  0.7584 -0.6135
 3783TIP3    H132908   6.578   1.245   6.974  1.0426  0.0403  0.3285
 3783TIP3    H232909   6.561   1.354   7.077  1.2274 -0.1291  0.5404
 3784TIP3   OH232910   5.944   5.914   2.087 -0.7751 -0.5788  0.0188
 3784TIP3    H132911   5.884   5.988   2.077 -2.9244 -2.2837 -0.5816
 3784TIP3    H232912   6.021   5.951   2.130 -1.1430  2.2659 -1.5297
 3785TIP3   OH232913   6.281   0.659   7.328  0.3100  0.0731  0.4997
 3785TIP3    H132914   6.201   0.710   7.339 -0.6220 -1.5366  1.6030
 3785TIP3    H232915   6.308   0.638   7.417  0.8202 -1.0889  0.0911
 3786TIP3   OH232916   0.540   6.592   8.399  0.3725 -0.0604  0.2131
 3786TIP3    H132917   0.546   6.512   8.450 -1.3194  1.5359  3.1586
 3786TIP3    H232918   0.628   6.630   8.403  0.3695 -0.1581  1.7241
 3787TIP3   OH232919   5.765   5.197   7.754 -0.1557 -0.0640 -0.9942
 3787TIP3    H132920   5.858   5.174   7.760 -0.5525 -1.5054  0.2669
 3787TIP3    H232921   5.753   5.222   7.663  0.7820 -3.1983 -2.1260
 3788TIP3   OH232922   1.640   0.408   0.882 -0.1271 -0.6529  0.1889
 3788TIP3    H132923   1.604   0.320   0.872 -0.3141 -0.3848 -1.8884
 3788TIP3    H232924   1.563   0.465   0.887  0.0019 -0.4672  0.0634
 3789TIP3   OH232925   6.472   5.288   1.621  0.9719 -0.4620  0.3981
 3789TIP3    H132926   6.382   5.255   1.623 -0.0487  2.0742  0.0734
 3789TIP3    H232927   6.500   5.274   1.530 -0.8055  2.6571 -0.7791
 3790TIP3   OH232928   3.178   6.782   2.041 -0.5199 -0.1432 -0.2549
 3790TIP3    H132929   3.249   6.844   2.058 -1.7946  0.9346  1.6174
 3790TIP3    H232930   3.207   6.701   2.082 -0.0880  0.1112 -0.0436
 3791TIP3   OH232931   3.985   3.805   8.066  0.0593  0.1107  0.0720
 3791TIP3    H132932   3.957   3.837   8.152  1.7407  0.8891  0.3704
 3791TIP3    H232933   4.013   3.715   8.082 -1.6860 -0.5108 -0.1379
 3792TIP3   OH232934   1.396   1.192   6.007 -0.3904 -0.7222 -0.2053
 3792TIP3    H132935   1.323   1.214   5.948 -0.9209  0.8500  0.9577
 3792TIP3    H232936   1.473   1.227   5.963 -1.0642  2.7309  1.0110
 3793TIP3   OH232937   4.850   0.048   7.652  0.1761 -0.4401  0.2925
 3793TIP3    H132938   4.840  -0.039   7.691 -0.5009 -0.8412 -0.7465
 3793TIP3    H232939   4.921   0.088   7.703 -1.0513 -0.6961  2.3476
 3794TIP3   OH232940   5.403   6.069   7.747  0.1001 -0.0225 -0.3066
 3794TIP3    H132941   5.405   6.136   7.679  0.4548  1.5889  1.2264
 3794TIP3    H232942   5.465   6.003   7.717  1.4821  1.4418 -0.7800
 3795TIP3   OH232943   0.728   2.677   1.012  0.6180  0.7918 -0.2581
 3795TIP3    H132944   0.795   2.626   0.967 -0.7305 -0.4787 -0.9376
 3795TIP3    H232945   0.773   2.718   1.086  2.3736  0.9788 -1.3808
 3796TIP3   OH232946   6.263   2.566   7.358 -0.1932 -0.3467  0.2542
 3796TIP3    H132947   6.300   2.484   7.389 -1.4708 -2.1116 -2.4659
 3796TIP3    H232948   6.330   2.603   7.300 -0.5042 -0.6660 -0.3134
 3797TIP3   OH232949   0.555   0.355   1.477  0.1506  0.4389 -0.6939
 3797TIP3    H132950   0.500   0.412   1.531 -0.8967 -0.5568 -0.6669
 3797TIP3    H232951   0.503   0.340   1.398  1.3822  1.3353 -1.7148
 3798TIP3   OH232952   6.080   3.163   1.193  0.4347  0.1991  0.3288
 3798TIP3    H132953   6.167   3.184   1.226 -0.0473 -0.6236  2.2770
 3798TIP3    H232954   6.055   3.083   1.240 -0.4002 -0.9831 -1.9915
 3799TIP3   OH232955   0.064   1.559   7.786 -0.6411 -0.0457 -0.0387
 3799TIP3    H132956  -0.008   1.603   7.830 -1.1519 -0.8256 -0.0818
 3799TIP3    H232957   0.050   1.466   7.804 -0.1153 -0.2695 -0.7507
 3800TIP3   OH232958   3.753   2.853   0.909 -0.4299 -0.7089  0.2819
 3800TIP3    H132959   3.671   2.824   0.949 -1.8139 -0.5132 -2.1773
 3800TIP3    H232960   3.733   2.938   0.872  1.1010 -0.3711  0.1607
 3801TIP3   OH232961   3.230   4.386   0.928 -0.6013 -0.1598 -0.0993
 3801TIP3    H132962   3.274   4.381   1.012 -1.1879  0.8507  0.2792
 3801TIP3    H232963   3.300   4.402   0.865 -0.2713  0.0373  0.3174
 3802TIP3   OH232964   6.659   5.920   6.878  0.4902 -0.2323 -0.0896
 3802TIP3    H132965   6.676   5.844   6.934 -0.8275 -1.9942 -1.9177
 3802TIP3    H232966   6.744   5.964   6.871  1.3177 -1.5679  0.9757
 3803TIP3   OH232967   3.691   6.000   7.707  0.4849  0.3960  0.4818
 3803TIP3    H132968   3.693   5.906   7.721  0.4590  0.3931  0.4663
 3803TIP3    H232969   3.608   6.029   7.745 -0.8385  0.0234 -1.8972
 3804TIP3   OH232970   6.066   4.086   2.635  0.1477  0.5590  0.6143
 3804TIP3    H132971   6.105   4.173   2.638 -2.1465  1.6261  2.5656
 3804TIP3    H232972   5.977   4.100   2.604  0.1596 -1.3133 -0.4244
 3805TIP3   OH232973   6.369   4.916   7.218 -0.5126  0.2821  0.1863
 3805TIP3    H132974   6.308   4.983   7.247 -2.5603 -1.4940  0.3085
 3805TIP3    H232975   6.331   4.834   7.251  0.6551 -1.1377 -1.7777
 3806TIP3   OH232976   6.080   4.815   0.641 -0.2486  0.3029  0.0870
 3806TIP3    H132977   6.157   4.817   0.697  0.2296 -0.7397 -0.5221
 3806TIP3    H232978   6.024   4.884   0.676  0.0196 -0.3340  1.8797
 3807TIP3   OH232979   6.729   0.929   1.199 -0.4924  0.1778 -0.6584
 3807TIP3    H132980   6.731   0.897   1.109  0.1842  0.5043 -0.7733
 3807TIP3    H232981   6.720   0.850   1.252 -0.1835 -0.0904 -0.9891
 3808TIP3   OH232982   1.076   5.656   0.521 -0.2082  0.7886  0.2483
 3808TIP3    H132983   1.080   5.602   0.442 -0.2474  2.2216 -0.7853
 3808TIP3    H232984   1.030   5.735   0.493 -2.3483  0.3832  2.3134
 3809TIP3   OH232985   2.542   5.746   1.892  0.2163 -0.0167 -0.3129
 3809TIP3    H132986   2.530   5.782   1.804 -1.6512  0.7788  0.2304
 3809TIP3    H232987   2.499   5.661   1.889  0.2300 -0.0276 -0.1954
 3810TIP3   OH232988   5.051   0.860   6.757  0.3317 -0.0860 -0.6681
 3810TIP3    H132989   5.050   0.810   6.839 -0.7547  1.0713  0.0701
 3810TIP3    H232990   5.072   0.950   6.784 -2.1287  0.7803 -1.2995
 3811TIP3   OH232991   5.182   4.672   6.690  0.5152  0.1402 -0.3485
 3811TIP3    H132992   5.218   4.680   6.602 -0.0822 -1.6099 -0.7915
 3811TIP3    H232993   5.164   4.579   6.700 -0.1553  0.4186  1.3439
 3812TIP3   OH232994   2.438   0.162   7.685 -0.1879  0.3655 -0.5080
 3812TIP3    H132995   2.424   0.250   7.649 -1.0783  1.1404  1.5617
 3812TIP3    H232996   2.515   0.171   7.741 -0.1198 -0.2436 -0.4956
 3813TIP3   OH232997   0.254   5.075   1.469 -0.1470  0.3364  0.2172
 3813TIP3    H132998   0.339   5.082   1.513 -0.1546 -1.0819  0.4930
 3813TIP3    H232999   0.276   5.051   1.379 -0.2167  1.0355  0.0127
 3814TIP3   OH233000   2.143   3.302   8.641 -0.3876  0.0160 -0.0504
 3814TIP3    H133001   2.099   3.386   8.637 -0.5414 -0.0818 -0.4599
 3814TIP3    H233002   2.227   3.321   8.683 -0.3675  0.3992 -0.2557
 3815TIP3   OH233003   5.353   6.757   0.455 -0.5288  0.1411  0.0264
 3815TIP3    H133004   5.284   6.803   0.504  0.3845  1.3817  0.2187
 3815TIP3    H233005   5.307   6.712   0.384 -1.5782  0.5697  0.4107
 3816TIP3   OH233006   0.744   5.564   0.148 -0.9093 -0.0178  0.5303
 3816TIP3    H133007   0.683   5.615   0.093 -1.3985  0.7227  1.7164
 3816TIP3    H233008   0.687   5.518   0.210 -0.5306 -2.5256 -0.8320
 3817TIP3   OH233009   1.979   0.009   2.465  0.0669  0.5173  0.4421
 3817TIP3    H133010   1.917   0.082   2.462  0.4613  0.8971  1.4521
 3817TIP3    H233011   2.056   0.042   2.418 -0.5620 -0.0608 -1.0859
 3818TIP3   OH233012   0.286   1.654   2.389 -0.3871  0.4285  0.4818
 3818TIP3    H133013   0.318   1.564   2.384  0.4683  0.7870 -1.2498
 3818TIP3    H233014   0.192   1.646   2.406 -0.1179 -0.7362  1.5901
 3819TIP3   OH233015   5.844   1.358   0.961 -0.4315 -0.0321 -0.2038
 3819TIP3    H133016   5.892   1.366   0.879 -0.8379  0.1165 -0.4286
 3819TIP3    H233017   5.811   1.268   0.961  1.1905 -0.6750  0.7024
 3820TIP3   OH233018   2.583   1.678   1.097 -0.6273  0.1434 -0.1611
 3820TIP3    H133019   2.552   1.606   1.152  0.2221 -1.5936 -1.8296
 3820TIP3    H233020   2.672   1.695   1.127 -1.6884  2.4794  2.0457
 3821TIP3   OH233021   3.182   2.972   1.305 -0.4191 -0.3421  0.2415
 3821TIP3    H133022   3.258   3.028   1.290 -0.1503 -0.7350  0.1282
 3821TIP3    H233023   3.172   2.969   1.400  0.3625 -1.1590  0.3047
 3822TIP3   OH233024   1.136   1.248   6.674  0.1400 -0.7629  0.3291
 3822TIP3    H133025   1.054   1.252   6.723  0.1946  0.0605  0.3726
 3822TIP3    H233026   1.123   1.308   6.601  1.0873  0.2298  0.9442
 3823TIP3   OH233027   1.615   5.026   7.407 -0.1510 -0.7139 -1.0242
 3823TIP3    H133028   1.603   5.121   7.403  0.6530 -0.5359  0.1750
 3823TIP3    H233029   1.694   5.014   7.459 -0.6264 -2.0623 -0.5658
 3824TIP3   OH233030   4.927   6.759   7.383  1.2126  0.1326  0.1004
 3824TIP3    H133031   4.857   6.763   7.448  0.8922 -0.8850 -0.1639
 3824TIP3    H233032   4.894   6.700   7.316  1.7135  0.8328 -0.7870
 3825TIP3   OH233033   1.620   2.443   1.037 -1.1953  0.2502  0.1070
 3825TIP3    H133034   1.553   2.380   1.010  0.8436 -1.4928 -1.2125
 3825TIP3    H233035   1.585   2.528   1.011 -2.5826 -0.6855 -1.2755
 3826TIP3   OH233036   4.852   0.260   0.083 -0.2320 -0.2322 -0.8632
 3826TIP3    H133037   4.845   0.167   0.063 -0.9532 -0.5477  0.6578
 3826TIP3    H233038   4.867   0.263   0.178  1.6149  1.1530 -1.1360
 3827TIP3   OH233039   4.181   2.753   7.741 -0.0022 -0.1760  0.0566
 3827TIP3    H133040   4.237   2.821   7.778  0.6037  0.2058 -1.4889
 3827TIP3    H233041   4.224   2.729   7.659 -1.2592 -1.0135 -0.3795
 3828TIP3   OH233042   2.505   6.456   0.861  0.3880  0.2070  0.0125
 3828TIP3    H133043   2.545   6.536   0.895  1.3621  0.9132 -2.5578
 3828TIP3    H233044   2.495   6.472   0.767 -1.0587 -2.0318 -0.2861
 3829TIP3   OH233045   3.384   2.171   1.532 -0.4506  0.7680  0.5922
 3829TIP3    H133046   3.353   2.208   1.449 -1.5051  1.9531  1.4701
 3829TIP3    H233047   3.443   2.238   1.567  1.8271 -0.7086 -0.2283
 3830TIP3   OH233048   3.754   1.328   1.349 -0.4680  0.3875 -0.4259
 3830TIP3    H133049   3.824   1.305   1.288 -0.9896 -1.9818 -0.2002
 3830TIP3    H233050   3.682   1.355   1.292 -0.5053 -0.4966 -0.8082
 3831TIP3   OH233051   6.151   2.920   0.484 -0.1101  0.5203  0.2109
 3831TIP3    H133052   6.246   2.908   0.481 -0.1372 -0.0592  1.2294
 3831TIP3    H233053   6.115   2.833   0.468 -0.4575  0.6483  0.2872
 3832TIP3   OH233054   5.235   4.655   1.223  0.2487 -0.0973  0.0553
 3832TIP3    H133055   5.143   4.679   1.209  0.5823  0.5655 -1.1238
 3832TIP3    H233056   5.247   4.575   1.172  0.3063 -0.2477  0.3015
 3833TIP3   OH233057   6.531   1.315   7.490  0.3971  0.3983 -0.1488
 3833TIP3    H133058   6.571   1.304   7.576  0.3731 -0.3810 -0.2360
 3833TIP3    H233059   6.500   1.406   7.490 -0.6196  0.0910  1.0951
 3834TIP3   OH233060   3.816   0.887   0.872 -0.4426 -0.3492  0.1763
 3834TIP3    H133061   3.874   0.881   0.796  0.0892  0.4506  0.5079
 3834TIP3    H233062   3.873   0.874   0.947 -0.7188  0.2924  0.4988
 3835TIP3   OH233063   2.072   3.963   6.258  0.3993  0.2859 -0.2824
 3835TIP3    H133064   2.015   3.952   6.182 -1.7194 -0.0846  1.2541
 3835TIP3    H233065   2.016   4.005   6.324  1.5482 -1.1718  1.7352
 3836TIP3   OH233066   3.010   0.712   7.569  0.0095  0.1414 -0.1643
 3836TIP3    H133067   2.974   0.673   7.649  0.1504  0.5597  0.1054
 3836TIP3    H233068   3.047   0.795   7.597 -0.0657  0.3593 -0.6935
 3837TIP3   OH233069   1.426   2.131   0.569  0.2998 -0.8447 -0.4545
 3837TIP3    H133070   1.393   2.217   0.594  0.2224 -0.9377 -0.2319
 3837TIP3    H233071   1.420   2.129   0.474  1.3672 -0.1681 -0.5548
 3838TIP3   OH233072   5.781   2.198   1.036  0.1665 -0.5053 -0.1055
 3838TIP3    H133073   5.847   2.265   1.023 -1.0507  1.0530  1.2246
 3838TIP3    H233074   5.828   2.115   1.030  2.6293  0.5473  2.5980
 3839TIP3   OH233075   1.182   3.573   1.993  0.1758 -0.0369 -0.3746
 3839TIP3    H133076   1.257   3.513   1.997  0.4748  0.3947  1.3166
 3839TIP3    H233077   1.122   3.541   2.060 -0.9224 -0.0398 -1.3297
 3840TIP3   OH233078   5.918   2.155   0.473  0.1346  0.1473 -0.1029
 3840TIP3    H133079   5.907   2.133   0.565  2.6579 -0.7633  0.0783
 3840TIP3    H233080   5.947   2.073   0.432  2.6749  1.3311 -0.9024
 3841TIP3   OH233081   1.379   2.443   7.676  0.2090  0.1446 -0.3936
 3841TIP3    H133082   1.385   2.535   7.700  0.0601  0.3005 -0.9407
 3841TIP3    H233083   1.319   2.405   7.741 -1.7983  0.9847 -1.6706
 3842TIP3   OH233084   2.314   3.267   7.951  0.8189 -0.3464 -0.1086
 3842TIP3    H133085   2.367   3.205   7.902  0.8909 -2.0109  1.9540
 3842TIP3    H233086   2.237   3.283   7.895  0.6950 -2.4579 -0.6033
 3843TIP3   OH233087   2.728   2.075   1.647  0.5015 -0.3465 -0.9180
 3843TIP3    H133088   2.657   2.024   1.687 -0.1408 -0.5842 -2.3057
 3843TIP3    H233089   2.736   2.152   1.703  0.4787 -1.2329  0.3663
 3844TIP3   OH233090   4.806   1.121   1.769  0.3260 -0.5114  0.0524
 3844TIP3    H133091   4.859   1.166   1.703  0.3113 -0.1096  0.3105
 3844TIP3    H233092   4.787   1.188   1.834 -0.4840 -0.6580 -0.0200
 3845TIP3   OH233093   4.936   3.578   7.208 -0.1052  0.1767  0.6878
 3845TIP3    H133094   4.867   3.535   7.259  0.1629  0.5675  1.3979
 3845TIP3    H233095   5.010   3.584   7.269  0.2087  0.6796  0.2588
 3846TIP3   OH233096   1.096   6.369   7.142  0.3889 -0.0097 -0.1912
 3846TIP3    H133097   1.003   6.350   7.149 -0.2539  2.5623 -0.9830
 3846TIP3    H233098   1.121   6.335   7.056  0.5576 -1.8972  0.5542
 3847TIP3   OH233099   4.392   1.848   0.087  0.3703 -0.1295  0.1481
 3847TIP3    H133100   4.461   1.784   0.103  0.3007 -0.2795 -0.1638
 3847TIP3    H233101   4.321   1.822   0.146  0.1840 -0.5802 -0.2741
 3848TIP3   OH233102   3.880   5.216   0.882 -0.1035  0.1759  0.0660
 3848TIP3    H133103   3.897   5.285   0.818  0.1938  0.8544  0.8600
 3848TIP3    H233104   3.805   5.168   0.847 -1.0755  1.6260  0.0723
 3849TIP3   OH233105   4.545   0.349   8.289  0.4198  0.3458  0.3128
 3849TIP3    H133106   4.475   0.399   8.331  1.0767  0.3594  1.4278
 3849TIP3    H233107   4.606   0.329   8.360  1.0944 -0.4478 -0.4686
 3850TIP3   OH233108   0.694   4.841   1.270  0.3861 -0.0209 -0.2040
 3850TIP3    H133109   0.771   4.829   1.325 -0.1383  0.7047  0.7309
 3850TIP3    H233110   0.648   4.757   1.274  1.5086 -0.7331 -1.4329
 3851TIP3   OH233111   1.496   1.867   7.035  0.3110 -0.4445 -0.2006
 3851TIP3    H133112   1.539   1.916   6.965 -0.4611 -1.3238 -1.3292
 3851TIP3    H233113   1.403   1.869   7.012 -0.0098 -0.4544  1.0045
 3852TIP3   OH233114   4.215   4.230   1.092  0.0156  0.3187 -0.8159
 3852TIP3    H133115   4.254   4.183   1.018 -0.4048 -0.4132 -0.5908
 3852TIP3    H233116   4.122   4.232   1.072 -0.3794 -1.5128  0.5173
 3853TIP3   OH233117   6.661   6.755   2.003 -0.3794 -0.3443  0.0633
 3853TIP3    H133118   6.706   6.807   1.937 -0.3800  0.0607  0.3805
 3853TIP3    H233119   6.581   6.725   1.960 -0.4472  0.0333 -0.0704
 3854TIP3   OH233120   4.253   0.225   0.829  0.2967 -0.1437 -0.2403
 3854TIP3    H133121   4.259   0.316   0.857  0.7928 -0.7840  1.9609
 3854TIP3    H233122   4.159   0.208   0.826  0.0939  0.9851 -2.8558
 3855TIP3   OH233123   2.507   2.541   8.051 -0.2218 -0.0258 -0.1352
 3855TIP3    H133124   2.440   2.608   8.066  0.1356  0.1080  0.9954
 3855TIP3    H233125   2.460   2.458   8.064 -0.5884  0.0053 -1.2102
 3856TIP3   OH233126   3.075   6.503   7.905  0.6211 -0.3344 -0.4829
 3856TIP3    H133127   3.030   6.494   7.821  0.1826 -0.1086 -0.2736
 3856TIP3    H233128   3.068   6.416   7.945  0.9905 -0.4940 -0.7531
 3857TIP3   OH233129   3.873   5.508   1.180 -0.4691  0.3110 -0.5311
 3857TIP3    H133130   3.916   5.582   1.223  0.4351 -0.1215 -0.6648
 3857TIP3    H233131   3.916   5.502   1.094  1.1783 -1.7965  0.3446
 3858TIP3   OH233132   1.559   4.533   6.942  0.3608  0.4386 -0.0478
 3858TIP3    H133133   1.584   4.493   6.859  0.1750 -2.5354  1.1999
 3858TIP3    H233134   1.469   4.565   6.928 -0.4369 -1.8316 -0.4865
 3859TIP3   OH233135   6.183   4.636   8.022  0.1020  0.2417  0.1196
 3859TIP3    H133136   6.197   4.691   7.945 -0.3492 -0.2493 -0.3223
 3859TIP3    H233137   6.221   4.551   7.999 -1.5839 -0.4516 -0.2693
 3860TIP3   OH233138   1.552   4.350   7.842  0.2066  0.4004 -0.2834
 3860TIP3    H133139   1.552   4.258   7.869 -0.2134 -0.3934 -2.7258
 3860TIP3    H233140   1.461   4.378   7.848  0.6224  1.4439  2.6326
 3861TIP3   OH233141   3.753   4.979   6.322  0.0979 -0.1043  0.6343
 3861TIP3    H133142   3.690   4.951   6.389  1.1947 -0.4168  1.5715
 3861TIP3    H233143   3.770   5.071   6.343 -1.5047  0.5811 -0.8317
 3862TIP3   OH233144   5.850   2.127   1.328 -0.5201  0.1696 -0.3931
 3862TIP3    H133145   5.937   2.103   1.362 -0.6293  0.4296  0.0923
 3862TIP3    H233146   5.865   2.211   1.285 -1.0084  1.6718  2.1181
 3863TIP3   OH233147   1.067   2.343   0.659  0.0825 -0.7352 -0.0956
 3863TIP3    H133148   1.154   2.384   0.656 -0.1270 -0.3403 -1.6011
 3863TIP3    H233149   1.046   2.338   0.752  0.3047  2.2759  0.2132
 3864TIP3   OH233150   4.722   1.667   6.967 -0.7295 -0.1181  0.5727
 3864TIP3    H133151   4.740   1.752   6.927 -2.3174 -0.7986 -1.8451
 3864TIP3    H233152   4.805   1.620   6.963 -0.1408  0.8900  0.8131
 3865TIP3   OH233153   2.547   0.014   7.973  0.1448  0.0172  0.3926
 3865TIP3    H133154   2.590   0.001   7.888 -0.6460 -1.6416  0.1984
 3865TIP3    H233155   2.457  -0.015   7.958 -0.4682  1.3113  1.3787
 3866TIP3   OH233156   3.629   5.058   1.619 -0.3292 -0.0184 -0.2190
 3866TIP3    H133157   3.644   4.963   1.611  0.2168  0.0726 -0.3707
 3866TIP3    H233158   3.557   5.076   1.559 -0.7951 -0.4199  0.2073
 3867TIP3   OH233159   4.567   6.479   8.004  0.4661 -0.1726  0.1041
 3867TIP3    H133160   4.492   6.420   7.994  1.1087 -0.8249 -1.2314
 3867TIP3    H233161   4.528   6.565   8.018 -0.5886 -0.2795 -1.8120
 3868TIP3   OH233162   6.565   2.232   0.777  0.2771  0.5393 -0.4138
 3868TIP3    H133163   6.527   2.292   0.715  0.8502  1.0647 -0.2691
 3868TIP3    H233164   6.528   2.146   0.755 -1.4591  1.1191  0.1297
 3869TIP3   OH233165   4.424   3.533   8.509 -0.4025 -0.3710  0.1219
 3869TIP3    H133166   4.396   3.487   8.431  0.3203  1.3059 -1.1900
 3869TIP3    H233167   4.423   3.467   8.578  2.0291 -2.7723 -1.9258
 3870TIP3   OH233168   2.323   0.218   1.806  0.3358  0.0169  0.3086
 3870TIP3    H133169   2.381   0.214   1.730 -0.2216 -2.0048 -0.0655
 3870TIP3    H233170   2.381   0.205   1.881  0.8322  1.6301  0.2456
 3871TIP3   OH233171   5.275   0.866   7.816 -0.0605  0.1300  0.4300
 3871TIP3    H133172   5.237   0.785   7.783  1.2845  0.1709 -1.4292
 3871TIP3    H233173   5.243   0.934   7.756  0.1276  0.6900  0.9562
 3872TIP3   OH233174   3.556   2.794   7.771  0.7745 -0.1450 -0.2461
 3872TIP3    H133175   3.515   2.742   7.841  1.6840  0.2644  0.6135
 3872TIP3    H233176   3.606   2.730   7.720  0.5376 -0.3662 -0.2052
 3873TIP3   OH233177   4.821   3.142   0.233  0.3010 -0.1829 -0.2642
 3873TIP3    H133178   4.862   3.057   0.224 -0.2132 -0.5849  0.9317
 3873TIP3    H233179   4.805   3.151   0.327  1.0811  1.5876 -0.2559
 3874TIP3   OH233180   0.058   0.525   8.273  0.2311  0.3019 -0.2186
 3874TIP3    H133181   0.066   0.576   8.193  2.8103  2.1284  1.0370
 3874TIP3    H233182   0.036   0.437   8.244 -1.3083  1.4094 -2.7148
 3875TIP3   OH233183   5.489   1.077   2.271  0.7465 -0.6625 -0.4099
 3875TIP3    H133184   5.579   1.048   2.254  1.0440 -1.1968  1.7481
 3875TIP3    H233185   5.435   1.011   2.228  1.3868 -0.5703 -1.3843
 3876TIP3   OH233186   5.708   3.489   7.034  0.1283  0.4583  0.1009
 3876TIP3    H133187   5.761   3.466   6.958  1.3314  2.1392  0.3625
 3876TIP3    H233188   5.770   3.526   7.097 -1.2371  1.9479  0.6606
 3877TIP3   OH233189   4.334   4.835   7.324  0.3535 -0.1370 -0.0499
 3877TIP3    H133190   4.275   4.810   7.395  0.8871 -3.6837 -0.6662
 3877TIP3    H233191   4.279   4.833   7.246  0.1988  1.8323 -0.0290
 3878TIP3   OH233192   2.762   3.620   0.946 -0.0514 -0.5701 -0.0458
 3878TIP3    H133193   2.677   3.664   0.934  0.1796 -0.2620 -0.5555
 3878TIP3    H233194   2.825   3.691   0.951  0.4994 -0.8578 -2.2093
 3879TIP3   OH233195   3.614   1.645   6.681  0.0132 -0.3574  0.2140
 3879TIP3    H133196   3.689   1.587   6.688 -0.4316 -0.7360  2.6872
 3879TIP3    H233197   3.581   1.654   6.770 -0.7849  2.5975 -0.2413
 3880TIP3   OH233198   0.158   2.135   7.088 -0.0967  0.1728 -0.1306
 3880TIP3    H133199   0.194   2.180   7.011  0.2976 -0.7296 -0.4909
 3880TIP3    H233200   0.065   2.124   7.068 -0.4341  1.7698  0.4378
 3881TIP3   OH233201   3.945   0.426   6.731 -0.0737 -0.0237 -0.0643
 3881TIP3    H133202   3.954   0.414   6.825  1.9059  1.0028 -0.0743
 3881TIP3    H233203   3.890   0.353   6.702 -1.6682  0.2614  2.0097
 3882TIP3   OH233204   2.845   1.542   7.645  0.0525  0.0752 -0.4502
 3882TIP3    H133205   2.790   1.585   7.579 -0.9534 -0.0605  0.2786
 3882TIP3    H233206   2.787   1.530   7.721  1.2063  0.2851  0.4853
 3883TIP3   OH233207   1.378   6.341   6.397 -0.6149  0.4220  0.1222
 3883TIP3    H133208   1.394   6.402   6.325 -0.1608  1.5177  1.1164
 3883TIP3    H233209   1.465   6.321   6.432 -0.8128 -0.2643  0.2373
 3884TIP3   OH233210   1.934   3.481   7.594 -0.2548 -0.4860  0.1322
 3884TIP3    H133211   1.998   3.457   7.526 -0.2497  1.8382 -0.7669
 3884TIP3    H233212   1.984   3.478   7.676  0.5899 -0.2323 -0.3592
 3885TIP3   OH233213   2.487   1.665   1.755  0.1191 -0.5465 -0.1996
 3885TIP3    H133214   2.577   1.666   1.723  1.0998  1.1633  2.3337
 3885TIP3    H233215   2.491   1.611   1.834 -0.5827  1.1649  1.0574
 3886TIP3   OH233216   3.265   4.105   7.867 -0.1098 -0.1890  0.2393
 3886TIP3    H133217   3.273   4.136   7.957  2.5468 -2.5780  0.9600
 3886TIP3    H233218   3.342   4.050   7.854 -0.9679 -0.7662 -3.1749
 3887TIP3   OH233219   1.871   3.692   7.423 -0.1396  0.4317 -0.3543
 3887TIP3    H133220   1.917   3.637   7.487 -1.6774 -0.7451 -0.1983
 3887TIP3    H233221   1.859   3.635   7.347 -0.3972  1.0628 -0.7954
 3888TIP3   OH233222   2.712   3.997   1.403 -0.1284 -1.1401  0.0175
 3888TIP3    H133223   2.617   4.007   1.396  0.0326 -0.7360 -2.0572
 3888TIP3    H233224   2.725   3.953   1.487 -2.2464 -2.4723 -0.2853
 3889TIP3   OH233225   2.403   3.233   7.348  0.3860 -0.8057 -0.8740
 3889TIP3    H133226   2.460   3.239   7.424 -0.7927 -0.4778  0.0146
 3889TIP3    H233227   2.320   3.200   7.382 -0.4415  0.1783 -1.8522
 3890TIP3   OH233228   0.029   0.438   7.187  0.7475  0.5139  0.0129
 3890TIP3    H133229  -0.026   0.362   7.206  0.3261  1.4071  2.6830
 3890TIP3    H233230   0.104   0.402   7.140 -1.7898 -0.8036 -3.5214
 3891TIP3   OH233231   4.811   6.812   1.496 -0.5455  0.1287 -0.1724
 3891TIP3    H133232   4.796   6.901   1.466 -0.6162  0.1988  0.0700
 3891TIP3    H233233   4.900   6.813   1.532 -0.7456  0.2336  0.3188
 3892TIP3   OH233234   5.961   1.766   0.719 -0.4211  0.0833  0.5302
 3892TIP3    H133235   5.977   1.672   0.731  0.4410  0.0680 -0.5837
 3892TIP3    H233236   6.024   1.793   0.652 -0.9027  1.3882  0.5690
 3893TIP3   OH233237   3.228   0.497   6.842  0.2485  0.2562  0.0491
 3893TIP3    H133238   3.178   0.572   6.873  0.4673  0.5943 -0.4144
 3893TIP3    H233239   3.217   0.498   6.747  0.4843 -0.1338  0.0161
 3894TIP3   OH233240   2.745   5.286   0.918 -0.0828 -0.6380  0.1617
 3894TIP3    H133241   2.784   5.308   1.002 -0.2393  0.1404  0.0373
 3894TIP3    H233242   2.818   5.252   0.866  1.2515  3.6649 -1.1300
 3895TIP3   OH233243   5.035   6.514   6.704 -0.4914 -0.3135 -0.0565
 3895TIP3    H133244   5.033   6.596   6.753 -1.1601  0.1307 -0.8137
 3895TIP3    H233245   5.107   6.525   6.642 -1.4416  0.2439 -1.0733
 3896TIP3   OH233246   5.796   5.592   1.306 -0.4217  0.1436 -0.1427
 3896TIP3    H133247   5.734   5.564   1.239  2.8123 -0.8480 -3.0162
 3896TIP3    H233248   5.797   5.687   1.299  1.2468  0.0539 -3.1865
 3897TIP3   OH233249   3.154   4.509   8.171 -0.2886  0.0668 -0.0325
 3897TIP3    H133250   3.143   4.591   8.122  0.2306  0.6095  0.7274
 3897TIP3    H233251   3.182   4.537   8.258  0.4741 -0.9480  0.0664
 3898TIP3   OH233252   0.745   4.620   7.811  0.1596 -0.0933 -0.4745
 3898TIP3    H133253   0.689   4.689   7.776  0.3214  0.2793 -0.0160
 3898TIP3    H233254   0.694   4.540   7.800 -1.6263  0.5195  2.2156
 3899TIP3   OH233255   2.387   5.934   8.682  0.1402  0.3423 -0.5102
 3899TIP3    H133256   2.344   5.975   8.757 -0.8712  1.3252 -1.5866
 3899TIP3    H233257   2.421   6.007   8.631  2.3944 -0.3820 -0.1287
 3900TIP3   OH233258   5.225   1.525   7.993  0.8840 -0.0998 -0.4427
 3900TIP3    H133259   5.227   1.435   8.025  0.6370  0.3604  0.9037
 3900TIP3    H233260   5.270   1.521   7.908  0.5236 -1.5524 -0.5856
 3901TIP3   OH233261   5.979   4.941   7.679  0.5583 -0.3105  0.1016
 3901TIP3    H133262   6.059   4.991   7.693 -0.3196  1.0692  0.3225
 3901TIP3    H233263   6.008   4.863   7.631  1.8944  0.6384 -0.6978
 3902TIP3   OH233264   6.327   1.072   7.625 -0.4916  0.2889 -0.1200
 3902TIP3    H133265   6.304   1.132   7.553 -0.5555  0.8861  0.3923
 3902TIP3    H233266   6.244   1.032   7.650 -0.6383  0.8730  0.3276
 3903TIP3   OH233267   1.164   6.624   0.747 -0.1136  0.8938 -0.1689
 3903TIP3    H133268   1.189   6.634   0.655  2.8567 -1.0538  0.3072
 3903TIP3    H233269   1.237   6.659   0.797 -0.3939 -0.6239  1.4231
 3904TIP3   OH233270   5.746   4.016   7.942  0.0031  0.0091  0.0178
 3904TIP3    H133271   5.767   3.952   7.873  0.0830  1.1519 -1.0586
 3904TIP3    H233272   5.650   4.017   7.944  0.0046 -0.4786  0.3594
 3905TIP3   OH233273   5.410   2.187   8.363  0.7592 -0.4744 -0.4305
 3905TIP3    H133274   5.366   2.112   8.401  0.4693  0.0128  0.2173
 3905TIP3    H233275   5.353   2.261   8.383  1.0826 -0.0673 -0.9845
 3906TIP3   OH233276   1.988   2.236   0.082 -0.2776 -0.4724  0.2977
 3906TIP3    H133277   2.069   2.245   0.132 -1.7150  0.3801  2.6341
 3906TIP3    H233278   1.960   2.327   0.066 -0.5129 -0.7511 -0.9810
 3907TIP3   OH233279   1.361   3.754   1.008 -0.0935 -0.0594  0.5915
 3907TIP3    H133280   1.411   3.696   0.950 -2.6610 -0.8476 -1.0406
 3907TIP3    H233281   1.404   3.839   1.000  1.2173 -0.7781 -0.3939
 3908TIP3   OH233282   0.631   5.445   8.142  0.6516 -0.3749  0.2230
 3908TIP3    H133283   0.696   5.385   8.179  0.7515 -0.5135 -0.1664
 3908TIP3    H233284   0.658   5.455   8.050 -2.3768 -4.1195 -1.3996
 3909TIP3   OH233285   4.266   6.296   6.153  0.1010 -0.3456  0.1373
 3909TIP3    H133286   4.265   6.379   6.201  0.1177 -0.4897  0.3850
 3909TIP3    H233287   4.359   6.279   6.137  0.2537 -1.3960  1.9497
 3910TIP3   OH233288   0.035   6.734   1.559 -0.1338  0.3689  0.3519
 3910TIP3    H133289   0.095   6.705   1.490 -2.2910  1.2087 -2.0666
 3910TIP3    H233290   0.016   6.655   1.609  0.5004 -0.5878 -0.8466
 3911TIP3   OH233291   5.285   1.251   6.437  0.1296 -0.0525  0.0892
 3911TIP3    H133292   5.268   1.310   6.364  1.0559  0.7432  0.4880
 3911TIP3    H233293   5.198   1.222   6.466 -0.2212 -1.9857 -2.5605
 3912TIP3   OH233294   1.641   1.966   6.792 -0.4341 -0.2313  0.1268
 3912TIP3    H133295   1.647   2.017   6.873 -1.4772 -0.5775  0.4246
 3912TIP3    H233296   1.606   2.028   6.728 -3.5879 -0.9938  0.9429
 3913TIP3   OH233297   4.626   0.481   8.677 -0.3197 -0.0953 -0.3289
 3913TIP3    H133298   4.552   0.429   8.647 -0.9955 -0.2769  1.5032
 3913TIP3    H233299   4.702   0.425   8.661 -0.6737 -0.3169 -1.3061
 3914TIP3   OH233300   5.099   4.905   0.243  0.0825  0.1973 -0.3486
 3914TIP3    H133301   5.010   4.888   0.274 -0.2404  1.9404 -0.1908
 3914TIP3    H233302   5.130   4.977   0.298  0.4823  1.5785 -2.2876
 3915TIP3   OH233303   0.236   2.700   1.027  0.5800 -0.5561  0.1008
 3915TIP3    H133304   0.235   2.629   1.091  2.2767 -0.1037  0.7011
 3915TIP3    H233305   0.326   2.700   0.993  0.6476  1.2870  0.1520
 3916TIP3   OH233306   1.224   4.376   1.560 -0.1744  0.2615 -0.7600
 3916TIP3    H133307   1.146   4.321   1.553 -0.4583  0.3941  0.9579
 3916TIP3    H233308   1.296   4.315   1.575 -0.4789  0.3148  1.0761
 3917TIP3   OH233309   5.254   4.022   6.438 -0.4651  0.1114 -0.7684
 3917TIP3    H133310   5.229   4.086   6.371  1.4107 -0.0051 -1.6417
 3917TIP3    H233311   5.255   3.938   6.393  0.7083  0.0159 -0.6143
 3918TIP3   OH233312   4.816   5.655   8.567  0.2971  0.6142 -0.4545
 3918TIP3    H133313   4.762   5.588   8.526 -0.7481  1.9239 -1.2927
 3918TIP3    H233314   4.762   5.689   8.639  0.0128  1.8408 -1.2165
 3919TIP3   OH233315   2.300   6.795   7.894  0.2585 -0.2660 -0.2091
 3919TIP3    H133316   2.217   6.757   7.925 -0.3403  0.4801 -0.8442
 3919TIP3    H233317   2.279   6.887   7.877  0.9817 -0.2890 -1.2732
 3920TIP3   OH233318   1.489   5.370   1.300  0.1642 -1.0014  0.0285
 3920TIP3    H133319   1.425   5.332   1.361  1.4545 -0.4797  1.7854
 3920TIP3    H233320   1.475   5.465   1.309 -0.1952 -0.9288 -1.1562
 3921TIP3   OH233321   5.110   5.773   2.037 -0.0555 -0.6169  0.1972
 3921TIP3    H133322   5.042   5.824   2.082 -0.9356 -1.6295  0.0355
 3921TIP3    H233323   5.118   5.693   2.089 -0.5671 -1.4845 -1.0089
 3922TIP3   OH233324   1.750   4.881   8.510  0.3256  0.6003  0.0821
 3922TIP3    H133325   1.811   4.845   8.446  1.2477  1.6124  0.3496
 3922TIP3    H233326   1.671   4.828   8.501  0.3249  0.8727 -2.0616
 3923TIP3   OH233327   5.315   5.520   8.647  0.2091  0.1803  0.4670
 3923TIP3    H133328   5.228   5.556   8.665  0.4174  0.4399  1.0022
 3923TIP3    H233329   5.350   5.498   8.734 -0.1552 -1.9388  0.1240
 3924TIP3   OH233330   2.466   1.408   7.039 -0.7263  0.4833  0.5318
 3924TIP3    H133331   2.520   1.410   6.961  1.4285  1.5867  1.9599
 3924TIP3    H233332   2.447   1.316   7.054  0.9357  0.0543  0.0972
 3925TIP3   OH233333   0.551   3.869   8.388  0.4083 -0.6492 -0.4400
 3925TIP3    H133334   0.557   3.862   8.293 -1.6819 -1.3690 -0.5820
 3925TIP3    H233335   0.613   3.806   8.422  0.5807 -0.9769 -1.3497
 3926TIP3   OH233336   1.407   4.387   1.084  0.5904  0.1847  0.0995
 3926TIP3    H133337   1.380   4.479   1.078  0.0800  0.2472  2.5360
 3926TIP3    H233338   1.452   4.381   1.168 -1.2051 -2.2146  0.9919
 3927TIP3   OH233339   1.844   4.373   2.133  0.1798  0.1164 -0.7131
 3927TIP3    H133340   1.936   4.393   2.112  0.3378  0.1960 -0.0033
 3927TIP3    H233341   1.801   4.459   2.134  0.2038  0.1279 -0.5907
 3928TIP3   OH233342   6.227   6.442   0.417  1.0750  0.0068 -0.1706
 3928TIP3    H133343   6.188   6.446   0.330  0.5496  2.7253  0.0948
 3928TIP3    H233344   6.156   6.412   0.474  1.8135 -3.2660 -0.7479
 3929TIP3   OH233345   3.626   5.805   1.066  0.6711 -0.2119  0.4999
 3929TIP3    H133346   3.578   5.885   1.086 -0.7701 -0.8112 -0.4025
 3929TIP3    H233347   3.665   5.780   1.150 -0.5771  0.3365  1.2890
 3930TIP3   OH233348   2.045   5.746   0.688 -0.6235  0.3898  0.0108
 3930TIP3    H133349   1.985   5.747   0.613 -1.8592 -0.1575  0.9406
 3930TIP3    H233350   2.069   5.654   0.698 -0.4822  0.4591  0.3050
 3931TIP3   OH233351   3.311   1.791   2.338 -0.6643  0.5963  0.2125
 3931TIP3    H133352   3.377   1.795   2.407 -0.7134  2.6087  0.1878
 3931TIP3    H233353   3.247   1.858   2.362 -1.4141  0.3627 -1.0632
 3932TIP3   OH233354   3.669   2.763   6.746 -0.6133 -0.2138 -0.4379
 3932TIP3    H133355   3.610   2.828   6.707  0.2631  1.6888  1.1812
 3932TIP3    H233356   3.757   2.798   6.730 -0.0918 -1.2092  0.1491
 3933TIP3   OH233357   0.118   6.655   1.915 -0.4370 -0.0276 -0.1760
 3933TIP3    H133358   0.091   6.573   1.957 -1.4371  0.4103  0.0741
 3933TIP3    H233359   0.182   6.693   1.976 -0.9932  0.0307  0.3857
 3934TIP3   OH233360   3.238   5.471   2.094  0.5153  0.2918 -0.2717
 3934TIP3    H133361   3.252   5.520   2.175  0.4254 -1.4372  0.8363
 3934TIP3    H233362   3.152   5.431   2.104  1.0819 -1.0506 -0.6095
 3935TIP3   OH233363   2.791   4.233   0.512  0.0991 -0.6154 -0.6899
 3935TIP3    H133364   2.832   4.213   0.427 -0.3623  0.0875 -1.0857
 3935TIP3    H233365   2.820   4.322   0.532 -1.2806 -0.0717 -1.0148
 3936TIP3   OH233366   4.581   0.506   0.239  0.3605 -0.3006 -0.0197
 3936TIP3    H133367   4.609   0.597   0.254 -2.2153  0.6784 -0.5690
 3936TIP3    H233368   4.592   0.494   0.145  0.5627 -0.5241  0.0322
 3937TIP3   OH233369   4.825   4.712   2.671  0.1057 -0.1198 -0.4130
 3937TIP3    H133370   4.890   4.661   2.719 -1.3378 -0.3788  1.4304
 3937TIP3    H233371   4.859   4.802   2.673 -0.4953  0.1641  2.4691
 3938TIP3   OH233372   0.406   2.368   7.127 -0.1607  0.2980 -0.1302
 3938TIP3    H133373   0.478   2.422   7.160  1.6676 -1.5568 -0.9267
 3938TIP3    H233374   0.394   2.398   7.037  0.1272  0.1030 -0.2345
 3939TIP3   OH233375   4.930   0.239   0.365 -0.4748  0.6742 -0.2963
 3939TIP3    H133376   4.969   0.297   0.431  0.4293 -1.2632  0.9881
 3939TIP3    H233377   4.861   0.192   0.412 -0.2521 -0.2678 -0.8708
 3940TIP3   OH233378   2.899   3.570   7.574 -0.6951  0.0594 -0.1219
 3940TIP3    H133379   2.901   3.476   7.558  1.1488  0.1500 -0.7203
 3940TIP3    H233380   2.808   3.589   7.594 -1.4265 -1.5906 -1.6072
 3941TIP3   OH233381   3.588   1.666   1.292 -0.4729  0.4010 -0.7084
 3941TIP3    H133382   3.611   1.613   1.368 -1.2891  1.7242  0.5044
 3941TIP3    H233383   3.668   1.667   1.238  0.2631 -0.1815  0.3460
 3942TIP3   OH233384   6.614   4.363   1.177  0.0698  0.4826  0.1440
 3942TIP3    H133385   6.626   4.406   1.093 -1.4031 -0.9895 -0.8910
 3942TIP3    H233386   6.608   4.435   1.240  3.0695  1.5708 -0.6621
 3943TIP3   OH233387   3.105   1.656   0.892  0.6046 -0.1006  0.1641
 3943TIP3    H133388   3.083   1.698   0.975  0.6051  3.7107 -1.5933
 3943TIP3    H233389   3.029   1.600   0.873 -0.2564  0.4545  1.7742
 3944TIP3   OH233390   0.967   3.217   2.322  0.2236  0.0935  0.4535
 3944TIP3    H133391   0.875   3.195   2.333  0.0671  0.8949  0.7689
 3944TIP3    H233392   0.999   3.231   2.411  0.3381  1.0589  0.2686
 3945TIP3   OH233393   5.758   0.740   0.517 -0.4889  0.4110  0.3029
 3945TIP3    H133394   5.721   0.789   0.443  1.6690 -0.3972 -1.4040
 3945TIP3    H233395   5.849   0.725   0.493 -0.1136 -1.2281  2.4625
 3946TIP3   OH233396   6.163   6.462   6.939  0.7612 -0.3121 -0.6264
 3946TIP3    H133397   6.159   6.554   6.964  0.2388 -0.6767  0.7292
 3946TIP3    H233398   6.234   6.425   6.991  1.6649 -0.4751 -1.9315
 3947TIP3   OH233399   2.249   6.245   7.050 -0.3118  0.1199 -0.8010
 3947TIP3    H133400   2.285   6.165   7.088 -1.1643 -0.8422 -1.9352
 3947TIP3    H233401   2.158   6.222   7.029 -1.2805  2.0935  0.9020
 3948TIP3   OH233402   3.718   5.482   0.468  0.6907 -0.1308  0.9538
 3948TIP3    H133403   3.631   5.486   0.429  0.1548 -2.1206  1.8028
 3948TIP3    H233404   3.771   5.543   0.416 -1.1535  1.0445  0.3600
 3949TIP3   OH233405   4.986   3.693   7.793 -0.2962  0.0709  0.4249
 3949TIP3    H133406   5.062   3.662   7.842 -0.6168 -4.2822 -1.3431
 3949TIP3    H233407   5.022   3.745   7.722  0.9110 -0.4377  0.6452
 3950TIP3   OH233408   2.897   6.523   7.244 -0.0412 -0.1883  0.6292
 3950TIP3    H133409   2.983   6.520   7.287  0.0462  1.3440  0.5972
 3950TIP3    H233410   2.835   6.502   7.314  0.0059  3.2841  1.8789
 3951TIP3   OH233411   1.898   5.869   2.061 -0.0559 -0.0641  0.5285
 3951TIP3    H133412   1.831   5.814   2.022  0.4965 -1.7900  1.9035
 3951TIP3    H233413   1.886   5.954   2.019 -2.3096 -0.6337 -0.1315
 3952TIP3   OH233414   5.827   3.519   0.117 -0.2208  0.6450  0.9154
 3952TIP3    H133415   5.852   3.513   0.024 -0.5404  0.5551  0.8321
 3952TIP3    H233416   5.894   3.575   0.156  1.7342 -1.8139  1.3221
 3953TIP3   OH233417   0.977   5.018   6.843  0.1943  0.0781 -0.2047
 3953TIP3    H133418   1.002   4.952   6.907  0.6689 -0.0789 -0.5501
 3953TIP3    H233419   0.899   4.982   6.801 -1.9177  1.4245  2.2176
 3954TIP3   OH233420   5.035   6.257   1.711  0.1261  0.5091 -0.3079
 3954TIP3    H133421   5.031   6.343   1.753 -2.5014  0.0763  0.5664
 3954TIP3    H233422   5.075   6.200   1.777 -0.5134  0.5820  0.1567
 3955TIP3   OH233423   0.122   0.360   6.035 -0.3437  0.3397 -0.3935
 3955TIP3    H133424   0.069   0.288   6.001 -0.2330  0.1818 -0.2288
 3955TIP3    H233425   0.064   0.437   6.029 -0.9234  0.0082  0.6270
 3956TIP3   OH233426   0.775   3.396   1.198 -0.3301  0.4138 -0.2236
 3956TIP3    H133427   0.708   3.336   1.167  0.1081 -0.5839  0.6780
 3956TIP3    H233428   0.858   3.355   1.172 -0.0356  1.0119 -0.2574
 3957TIP3   OH233429   1.248   1.489   7.421 -0.8531  0.4743  0.0708
 3957TIP3    H133430   1.335   1.527   7.408 -1.8937  2.2444 -2.4936
 3957TIP3    H233431   1.250   1.409   7.369 -1.2103  1.3542 -1.3501
 3958TIP3   OH233432   6.366   4.623   1.417 -0.3195  0.0727  0.1538
 3958TIP3    H133433   6.302   4.564   1.458  0.4071 -1.2103 -0.4891
 3958TIP3    H233434   6.393   4.682   1.487 -1.0420 -0.3822  0.8315
 3959TIP3   OH233435   2.242   5.717   1.149 -0.0508 -0.4898  0.2852
 3959TIP3    H133436   2.290   5.692   1.228  0.7018 -0.4194 -0.1331
 3959TIP3    H233437   2.157   5.746   1.181 -0.1011 -1.3548  0.9797
 3960TIP3   OH233438   0.934   3.976   1.288  0.1051 -0.1679 -0.1632
 3960TIP3    H133439   0.905   3.924   1.363  0.0898  0.7025  0.4524
 3960TIP3    H233440   1.029   3.970   1.289  0.0476 -1.8915 -1.3594
 3961TIP3   OH233441   0.584   6.285   6.061 -0.2318 -0.5877  0.3504
 3961TIP3    H133442   0.679   6.281   6.057 -0.0515  2.5605 -0.4442
 3961TIP3    H233443   0.555   6.275   5.971 -0.4588  0.8537  0.2390
 3962TIP3   OH233444   3.820   5.082   2.085  0.3213  0.2966 -0.5415
 3962TIP3    H133445   3.735   5.042   2.104  0.6760 -0.1449  0.1489
 3962TIP3    H233446   3.841   5.132   2.164  0.9781 -0.0885 -0.4619
 3963TIP3   OH233447   3.167   2.791   8.672 -0.1880 -0.0779 -0.1231
 3963TIP3    H133448   3.142   2.882   8.686 -1.1764 -0.3775  0.1739
 3963TIP3    H233449   3.237   2.775   8.734 -0.1688  0.4167 -0.0129
 3964TIP3   OH233450   4.141   1.258   8.151  0.3391 -0.0701  0.2865
 3964TIP3    H133451   4.179   1.346   8.157 -0.6531  0.3927  0.0020
 3964TIP3    H233452   4.048   1.271   8.169 -0.2146 -0.7320 -1.8224
 3965TIP3   OH233453   6.783   6.624   8.175  0.6266  0.4209  0.6031
 3965TIP3    H133454   6.875   6.641   8.191  0.1826  0.9739  2.8774
 3965TIP3    H233455   6.762   6.550   8.232 -0.7803  1.6499  1.7638
 3966TIP3   OH233456   2.058   3.999   8.362  0.3852  0.1150  0.5966
 3966TIP3    H133457   2.124   4.068   8.358  1.3649 -0.7772 -3.8040
 3966TIP3    H233458   1.990   4.026   8.300 -1.1682 -1.1261  1.6558
 3967TIP3   OH233459   1.815   3.943   7.144  0.1468 -0.9214 -0.1692
 3967TIP3    H133460   1.770   3.922   7.063  0.2767 -0.4397 -0.3711
 3967TIP3    H233461   1.903   3.905   7.133  0.2803 -0.5500 -0.4036
 3968TIP3   OH233462   6.836   4.770   0.782 -0.4129 -0.1690  0.2356
 3968TIP3    H133463   6.931   4.762   0.792 -0.3507  0.6835  0.4747
 3968TIP3    H233464   6.812   4.702   0.720  0.4095 -0.1478 -0.1171
 3969TIP3   OH233465   1.435   1.937   1.077  0.1103  0.1904 -0.3498
 3969TIP3    H133466   1.490   2.004   1.119  0.9405 -1.0041  0.5569
 3969TIP3    H233467   1.351   1.945   1.122  0.5560 -0.1148  0.5737
 3970TIP3   OH233468   6.219   6.420   1.031 -0.3036 -0.2050  0.3162
 3970TIP3    H133469   6.266   6.340   1.009  2.2610  0.9281  1.2513
 3970TIP3    H233470   6.166   6.439   0.954  1.6761 -1.0126 -1.3398
 3971TIP3   OH233471   6.384   3.802   7.914  0.3471  0.2388 -0.5156
 3971TIP3    H133472   6.399   3.753   7.833 -1.3091 -1.0544 -0.0839
 3971TIP3    H233473   6.462   3.784   7.967  0.5363 -0.5647 -1.0436
 3972TIP3   OH233474   3.189   6.129   7.468 -0.1649 -0.2863  1.0776
 3972TIP3    H133475   3.266   6.179   7.493 -0.0630  0.8313 -1.2746
 3972TIP3    H233476   3.218   6.038   7.465  0.8008  0.0194  1.1261
 3973TIP3   OH233477   0.493   0.586   7.676 -0.3443 -0.0864  0.2956
 3973TIP3    H133478   0.433   0.545   7.614  1.4262 -0.2836 -1.3998
 3973TIP3    H233479   0.446   0.662   7.709 -1.4127 -0.0470 -1.2052
 3974TIP3   OH233480   1.533   2.262   7.256 -0.4286 -0.3522 -0.3981
 3974TIP3    H133481   1.549   2.309   7.337  0.7012 -0.2915 -0.6298
 3974TIP3    H233482   1.591   2.305   7.192 -0.8505 -0.7821 -1.0793
 3975TIP3   OH233483   5.115   5.960   8.635  0.0855  0.5251  0.1351
 3975TIP3    H133484   5.054   5.940   8.706 -0.9906  0.5497 -0.7575
 3975TIP3    H233485   5.187   5.897   8.647 -0.4148  0.0721  0.8333
 3976TIP3   OH233486   2.718   6.297   7.952 -0.5041  0.2083 -0.4456
 3976TIP3    H133487   2.713   6.390   7.934 -2.5103  0.5618  1.4610
 3976TIP3    H233488   2.658   6.283   8.026 -1.2663 -2.7873 -1.4694
 3977TIP3   OH233489   4.555   2.637   0.058  0.5436  0.1751 -0.7170
 3977TIP3    H133490   4.615   2.667   0.127  1.1412 -2.4023  0.0004
 3977TIP3    H233491   4.491   2.582   0.104  0.5343 -1.0171 -2.0844
 3978TIP3   OH233492   3.675   1.883   0.504 -0.4887  0.1728 -0.0042
 3978TIP3    H133493   3.586   1.849   0.512 -0.1807 -0.7390 -0.3329
 3978TIP3    H233494   3.690   1.931   0.586 -1.0297 -0.2730  0.3597
 3979TIP3   OH233495   2.762   3.395   6.238  0.1546 -0.6393  0.2089
 3979TIP3    H133496   2.709   3.468   6.270 -1.3626 -1.3275 -0.6489
 3979TIP3    H233497   2.768   3.335   6.311 -2.1626 -1.5831 -0.3097
 3980TIP3   OH233498   0.004   5.597   0.806 -0.0307  0.4269  0.6180
 3980TIP3    H133499   0.053   5.625   0.729  0.1065  2.2206  1.3203
 3980TIP3    H233500  -0.087   5.621   0.787  0.2195  2.3341  1.6007
 3981TIP3   OH233501   5.081   1.544   6.633 -1.0062  0.0166  0.6810
 3981TIP3    H133502   5.164   1.585   6.610 -1.3575 -0.3481 -1.4840
 3981TIP3    H233503   5.057   1.583   6.717 -0.4645  2.9860 -0.4224
 3982TIP3   OH233504   0.573   3.781   8.084  0.0879 -0.4624 -0.0821
 3982TIP3    H133505   0.578   3.830   8.002  0.1889  0.6543  0.5680
 3982TIP3    H233506   0.540   3.695   8.059 -0.5922  0.1022 -1.2053
 3983TIP3   OH233507   2.175   4.552   2.229  0.0326 -0.2016 -0.0477
 3983TIP3    H133508   2.154   4.643   2.246  0.0123 -0.2645  0.2556
 3983TIP3    H233509   2.251   4.555   2.171  0.0453  0.0053 -0.0184
 3984TIP3   OH233510   5.721   1.590   1.024 -0.2123  0.4096 -0.2704
 3984TIP3    H133511   5.771   1.510   1.007  1.7335  1.5120 -0.0790
 3984TIP3    H233512   5.777   1.640   1.084 -1.5562  1.7505 -0.0882
 3985TIP3   OH233513   1.587   2.224   8.435 -0.3503  0.2180  0.5201
 3985TIP3    H133514   1.580   2.258   8.525  1.1604 -1.0233  1.1527
 3985TIP3    H233515   1.681   2.217   8.419 -0.5899  0.6313 -1.2801
 3986TIP3   OH233516   4.033   3.623   0.848  0.5300 -0.0086 -0.2317
 3986TIP3    H133517   3.977   3.598   0.774  1.5694  1.0809 -1.4308
 3986TIP3    H233518   4.034   3.545   0.904 -3.1093  0.2682  0.5050
 3987TIP3   OH233519   2.144   3.148   0.828  0.2895  0.0656 -0.3849
 3987TIP3    H133520   2.233   3.156   0.792  0.3742  0.6874 -0.0557
 3987TIP3    H233521   2.157   3.116   0.917  0.0754 -1.5334 -0.9022
 3988TIP3   OH233522   5.430   4.317   0.347  0.2652 -0.5055  0.1551
 3988TIP3    H133523   5.518   4.337   0.381  0.0110  1.9580 -0.4605
 3988TIP3    H233524   5.377   4.303   0.426  0.6830  0.5630  0.6543
 3989TIP3   OH233525   5.476   4.317   8.243  0.7214  0.2052  0.0340
 3989TIP3    H133526   5.451   4.329   8.335  0.7742 -2.1853  0.4298
 3989TIP3    H233527   5.408   4.262   8.207  1.0250  0.6249 -1.2265
 3990TIP3   OH233528   1.369   4.166   8.466  0.2431  0.3298  0.3463
 3990TIP3    H133529   1.334   4.212   8.542  0.1752 -0.1043  0.5796
 3990TIP3    H233530   1.423   4.097   8.502  0.2233  0.1289  0.0003
 3991TIP3   OH233531   0.551   5.528   1.405  0.3535 -1.0599  0.1413
 3991TIP3    H133532   0.559   5.615   1.368 -1.4354 -1.1483 -0.5488
 3991TIP3    H233533   0.486   5.537   1.474 -0.0216 -1.8694 -0.0897
 3992TIP3   OH233534   0.674   1.106   1.654  0.0598 -0.2546 -0.0584
 3992TIP3    H133535   0.716   1.102   1.740  1.1349 -1.8900 -0.5917
 3992TIP3    H233536   0.661   1.199   1.637  1.9754  0.2264  0.8775
 3993TIP3   OH233537   2.922   2.908   8.288  0.6137  0.0904 -0.0311
 3993TIP3    H133538   2.980   2.940   8.219  2.9274 -2.2871  0.6174
 3993TIP3    H233539   2.894   2.822   8.258 -0.7741  0.2538  0.7140
 3994TIP3   OH233540   2.473   5.590   7.914 -0.5822 -0.0900  0.3736
 3994TIP3    H133541   2.499   5.499   7.927 -1.6211 -0.4488 -0.0034
 3994TIP3    H233542   2.512   5.615   7.830 -0.6188 -0.3006  0.2943
 3995TIP3   OH233543   6.553   4.748   6.845 -0.6987  0.3746  0.2235
 3995TIP3    H133544   6.521   4.825   6.799  1.7340  1.3571  0.0445
 3995TIP3    H233545   6.601   4.698   6.778  0.3100  0.2747  0.9995
 3996TIP3   OH233546   0.075   6.035   6.588  0.5010  0.4202  1.1533
 3996TIP3    H133547   0.131   5.985   6.530 -2.2399 -1.4886 -0.0569
 3996TIP3    H233548  -0.014   6.011   6.563 -0.9329  3.2134  2.9718
 3997TIP3   OH233549   6.309   4.784   7.840  0.4997  0.4967 -0.0878
 3997TIP3    H133550   6.309   4.749   7.750 -0.0860  0.8305 -0.2185
 3997TIP3    H233551   6.311   4.879   7.829 -0.9145  0.5899  0.2189
 3998TIP3   OH233552   5.900   0.524   6.695 -0.4721  0.3464 -0.1077
 3998TIP3    H133553   5.931   0.497   6.782  0.0358  0.6863 -0.1736
 3998TIP3    H233554   5.945   0.607   6.679 -0.2381  0.0831 -0.8723
 3999TIP3   OH233555   4.745   5.650   8.086  0.4335  0.0005  0.4731
 3999TIP3    H133556   4.659   5.613   8.106  0.6596  0.1659  1.8721
 3999TIP3    H233557   4.804   5.574   8.084  0.3652 -0.0466  0.1091
 4000TIP3   OH233558   1.223   3.175   2.202 -0.2858 -0.5674 -0.1261
 4000TIP3    H133559   1.259   3.263   2.217  1.4561 -0.7160 -2.8607
 4000TIP3    H233560   1.143   3.173   2.254 -0.1524  2.4795  0.3671
 4001TIP3   OH233561   0.697   6.003   6.689 -0.0908 -0.0806 -0.5789
 4001TIP3    H133562   0.700   6.092   6.722  0.0059  0.1745 -1.2677
 4001TIP3    H233563   0.762   6.001   6.618 -1.5216 -0.1293 -1.9322
 4002TIP3   OH233564   2.650   0.657   2.009  0.1518 -0.4198  0.3263
 4002TIP3    H133565   2.669   0.567   2.035  0.6577 -0.6006 -0.6327
 4002TIP3    H233566   2.562   0.652   1.970 -0.3348 -0.2626  1.3529
 4003TIP3   OH233567   2.286   0.995   8.168  0.2247 -0.0936  0.0325
 4003TIP3    H133568   2.192   0.985   8.152 -0.5744  1.4091  3.0565
 4003TIP3    H233569   2.310   0.916   8.217  0.8170 -0.9131 -1.5108
 4004TIP3   OH233570   5.304   3.264   8.592  0.0192 -0.0608 -0.3873
 4004TIP3    H133571   5.317   3.349   8.635 -0.7457  0.4682 -1.1557
 4004TIP3    H233572   5.222   3.231   8.629  0.9454 -1.0701  0.8319
 4005TIP3   OH233573   0.406   1.021   1.638 -0.0525 -0.2711 -0.4429
 4005TIP3    H133574   0.393   0.930   1.663  0.8376 -0.3416 -0.2161
 4005TIP3    H233575   0.499   1.037   1.652 -0.2925  0.8168 -0.0096
 4006TIP3   OH233576   1.291   3.882   7.663  0.3041 -0.2525 -0.6253
 4006TIP3    H133577   1.223   3.948   7.677 -0.0211 -1.0812  2.2714
 4006TIP3    H233578   1.263   3.837   7.582 -2.3398 -0.1811  0.1367
 4007TIP3   OH233579   1.747   1.491   0.452 -0.1057  0.5128 -0.1299
 4007TIP3    H133580   1.794   1.515   0.373 -0.6128  1.2557 -0.2149
 4007TIP3    H233581   1.661   1.463   0.422  0.2259 -0.7522  0.0339
 4008TIP3   OH233582   6.404   0.707   0.109  0.0020 -0.0575 -0.2271
 4008TIP3    H133583   6.456   0.628   0.097 -1.7955 -1.4555  0.6807
 4008TIP3    H233584   6.321   0.689   0.064  0.0034  1.8385 -1.0825
 4009TIP3   OH233585   4.092   3.976   0.366 -0.0205 -0.1578 -0.0016
 4009TIP3    H133586   4.107   3.980   0.272  1.0391  3.1008  0.2104
 4009TIP3    H233587   4.175   3.947   0.403  0.5880  1.5570  0.0655
 4010TIP3   OH233588   6.068   5.097   7.942 -0.3193  0.3958  0.3077
 4010TIP3    H133589   6.113   5.160   7.887  0.2943  0.3724  0.7704
 4010TIP3    H233590   6.138   5.049   7.987 -0.7349 -1.4934 -0.9713
 4011TIP3   OH233591   3.355   2.541   1.810  0.2976 -0.2883  0.1952
 4011TIP3    H133592   3.433   2.527   1.865 -0.2777  0.2484  1.1770
 4011TIP3    H233593   3.385   2.520   1.721  1.4858 -0.3561  0.5835
 4012TIP3   OH233594   2.084   5.579   7.304  0.0075  0.6985  0.5245
 4012TIP3    H133595   2.096   5.633   7.225  2.4062  1.4325  1.2889
 4012TIP3    H233596   2.037   5.636   7.365  2.0995  1.8948  1.1498
 4013TIP3   OH233597   4.281   2.091   6.485  0.1631 -0.7647 -0.3268
 4013TIP3    H133598   4.253   2.115   6.397 -0.1428 -0.9557 -0.2826
 4013TIP3    H233599   4.294   2.175   6.529 -1.3455 -0.6467 -0.0326
 4014TIP3   OH233600   1.912   5.756   8.095  0.5299 -0.1052 -0.3371
 4014TIP3    H133601   1.907   5.777   8.001 -0.5227  0.8805 -0.0873
 4014TIP3    H233602   1.835   5.702   8.111  0.5849 -0.0795  0.0054
 4015TIP3   OH233603   4.823   1.028   8.437 -0.8357 -0.1722 -0.4441
 4015TIP3    H133604   4.774   0.946   8.439 -1.8233  0.3938  2.2341
 4015TIP3    H233605   4.905   1.008   8.482 -0.2565 -0.0976 -1.4160
 4016TIP3   OH233606   3.062   3.827   0.542  0.6396 -0.1617 -0.2878
 4016TIP3    H133607   3.042   3.890   0.611  0.8791  2.3693 -2.4036
 4016TIP3    H233608   3.157   3.829   0.535  0.5979 -0.2121 -0.8789
 4017TIP3   OH233609   2.306   2.447   2.244 -0.4924  0.4715  0.0551
 4017TIP3    H133610   2.377   2.392   2.275  0.3591  1.3051 -0.3709
 4017TIP3    H233611   2.239   2.384   2.215  0.2544 -0.3374  0.0191
 4018TIP3   OH233612   2.569   6.530   7.286 -0.2184 -0.4023  0.0377
 4018TIP3    H133613   2.558   6.565   7.198  1.5875 -0.3268 -0.2023
 4018TIP3    H233614   2.558   6.436   7.277 -1.1888 -0.2806 -0.0497
 4019TIP3   OH233615   5.918   1.894   1.704  0.1988 -0.1919 -0.1623
 4019TIP3    H133616   5.852   1.886   1.635  0.0698 -1.0292  0.0480
 4019TIP3    H233617   5.936   1.804   1.731 -0.0577  0.1393  1.1889
 4020TIP3   OH233618   2.592   5.721   8.127 -0.0691 -0.7891  0.3319
 4020TIP3    H133619   2.570   5.682   8.043  1.1430 -0.1081 -0.3200
 4020TIP3    H233620   2.667   5.778   8.109  2.1650 -2.8388  2.3741
 4021TIP3   OH233621   0.150   4.858   8.670 -0.6751  0.2203  0.7506
 4021TIP3    H133622   0.065   4.818   8.652 -0.2075 -0.2578 -0.5449
 4021TIP3    H233623   0.187   4.874   8.583  1.5819 -1.7865  1.2492
 4022TIP3   OH233624   3.741   5.905   0.830  0.1422  0.1932 -0.1265
 4022TIP3    H133625   3.709   5.881   0.917 -2.6811 -0.1187 -1.1443
 4022TIP3    H233626   3.737   5.824   0.779 -1.1963  0.9327 -1.2938
 4023TIP3   OH233627   1.919   6.487   2.033  0.1212  0.1507  0.3808
 4023TIP3    H133628   1.991   6.460   2.090 -0.8914 -0.1845  1.5471
 4023TIP3    H233629   1.843   6.438   2.065 -0.3090 -0.8433 -1.9022
 4024TIP3   OH233630   2.009   1.442   6.598  0.5120  0.0772  0.1996
 4024TIP3    H133631   1.995   1.348   6.582 -0.4958  0.5657 -2.2639
 4024TIP3    H233632   2.073   1.468   6.532 -0.3262  1.3904 -0.1350
 4025TIP3   OH233633   3.729   2.009   0.733  0.3777 -0.4281 -0.5884
 4025TIP3    H133634   3.702   1.929   0.779  0.4317 -0.5961 -0.8486
 4025TIP3    H233635   3.744   2.073   0.803 -2.4224  0.2372 -0.4676
 4026TIP3   OH233636   0.445   2.182   8.564 -0.4773  0.2528  0.4837
 4026TIP3    H133637   0.506   2.137   8.505 -0.8655  1.2209 -0.7249
 4026TIP3    H233638   0.361   2.138   8.551 -0.7590  0.9923 -0.3787
 4027TIP3   OH233639   3.542   6.748   7.105 -0.3156 -0.0030  0.2160
 4027TIP3    H133640   3.510   6.836   7.085  3.1632  1.5755  0.8335
 4027TIP3    H233641   3.626   6.742   7.059 -0.5092 -3.0992  0.0743
 4028TIP3   OH233642   4.210   4.127   8.086  0.4277  0.2252 -0.0094
 4028TIP3    H133643   4.281   4.181   8.051  0.2443 -0.8660 -2.2479
 4028TIP3    H233644   4.243   4.037   8.082 -1.0946 -0.3354 -1.3111
 4029TIP3   OH233645   6.129   3.190   0.378  0.3167 -0.1650 -0.0351
 4029TIP3    H133646   6.129   3.098   0.406 -0.0556  0.3103  1.6412
 4029TIP3    H233647   6.118   3.186   0.283  1.1241 -1.8727 -0.1050
 4030TIP3   OH233648   4.352   1.715   7.633 -0.0767  0.3325 -0.1222
 4030TIP3    H133649   4.445   1.725   7.652  0.6463  1.3221 -3.5104
 4030TIP3    H233650   4.340   1.622   7.617  0.0536  0.0511  1.2857
 4031TIP3   OH233651   6.236   5.014   2.526  0.3693 -0.1645 -0.0822
 4031TIP3    H133652   6.306   4.979   2.581  1.1341  1.5625  0.1068
 4031TIP3    H233653   6.182   4.938   2.504  1.0689 -1.1823  1.5574
 4032TIP3   OH233654   3.884   3.787   6.840  0.2317  0.1050  0.0504
 4032TIP3    H133655   3.808   3.753   6.794 -0.7712  0.1084  1.6361
 4032TIP3    H233656   3.915   3.713   6.892  1.6668 -0.0526 -0.9622
 4033TIP3   OH233657   0.210   2.751   1.543 -0.3108  0.0489  0.0565
 4033TIP3    H133658   0.149   2.716   1.608 -3.6566  0.2830 -2.6383
 4033TIP3    H233659   0.221   2.679   1.481 -1.2104  1.2893 -1.6120
 4034TIP3   OH233660   5.711   1.300   7.501  0.0259 -0.1084  0.4660
 4034TIP3    H133661   5.774   1.330   7.436 -0.3026 -0.1886  0.1110
 4034TIP3    H233662   5.766   1.268   7.573  0.3845  1.1239  0.7694
 4035TIP3   OH233663   3.116   3.291   6.921  0.8802  0.2846 -0.0274
 4035TIP3    H133664   3.187   3.232   6.894  1.4988  0.6645  0.7363
 4035TIP3    H233665   3.059   3.295   6.844  0.7134 -1.4382 -0.0447
 4036TIP3   OH233666   3.337   3.063   7.909 -0.0135  0.0059 -0.2014
 4036TIP3    H133667   3.345   3.047   7.815 -2.2330  0.5881 -0.5334
 4036TIP3    H233668   3.260   3.119   7.918 -0.5662 -0.9861  2.0654
 4037TIP3   OH233669   3.357   3.171   6.843 -0.0555 -0.3826 -0.5853
 4037TIP3    H133670   3.317   3.112   6.779 -0.7048 -0.5216 -0.0655
 4037TIP3    H233671   3.394   3.242   6.791  0.0017 -0.8275 -1.1608
 4038TIP3   OH233672   6.855   5.415   8.460 -0.4635 -0.3461 -0.1800
 4038TIP3    H133673   6.832   5.474   8.532  2.2522 -0.6320  1.0633
 4038TIP3    H233674   6.901   5.343   8.502  1.7769 -0.2333 -2.1941
 4039TIP3   OH233675   4.914   3.591   8.656 -0.1369 -0.0028  0.3735
 4039TIP3    H133676   4.881   3.540   8.730 -0.2646 -0.3753  0.0642
 4039TIP3    H233677   4.843   3.589   8.592  1.8485 -4.5555 -2.1799
 4040TIP3   OH233678   1.159   0.980   6.258 -0.5166 -0.1431  0.8543
 4040TIP3    H133679   1.227   1.021   6.205  0.9418 -1.1424  1.8977
 4040TIP3    H233680   1.132   1.047   6.320  0.6960 -0.2102  1.4861
 4041TIP3   OH233681   0.908   5.122   0.416 -0.0079  0.8268  0.2467
 4041TIP3    H133682   0.943   5.087   0.334 -0.2171  1.4300 -0.1087
 4041TIP3    H233683   0.856   5.198   0.389 -0.9806  0.3878  0.8330
 4042TIP3   OH233684   3.708   4.964   7.634 -0.6026 -0.4576 -0.9871
 4042TIP3    H133685   3.798   4.998   7.629 -0.9361  0.8715  0.9818
 4042TIP3    H233686   3.718   4.875   7.668 -0.0231 -0.3504 -0.8655
 4043TIP3   OH233687   5.354   0.981   6.371 -0.2950  0.1352  0.1459
 4043TIP3    H133688   5.271   0.936   6.382  0.0517 -0.1099  1.9707
 4043TIP3    H233689   5.339   1.069   6.405  0.8159 -0.6484  2.9181
 4044TIP3   OH233690   6.535   3.256   8.295 -0.0752 -0.0775 -0.4497
 4044TIP3    H133691   6.532   3.163   8.316  1.2050 -0.0445 -0.0121
 4044TIP3    H233692   6.615   3.267   8.244  1.0599  1.0949  1.4122
 4045TIP3   OH233693   6.052   3.559   7.180 -0.4250 -0.1559  0.3121
 4045TIP3    H133694   6.090   3.544   7.266  2.3493  2.0150 -0.4039
 4045TIP3    H233695   6.011   3.645   7.187  0.9593  0.6259 -0.8366
 4046TIP3   OH233696   0.258   0.008   6.677  0.4933  0.0853 -0.2191
 4046TIP3    H133697   0.344   0.013   6.718 -0.1709 -0.8577  1.4061
 4046TIP3    H233698   0.275  -0.024   6.589  1.8053 -0.0396  0.0564
 4047TIP3   OH233699   3.367   6.379   8.055 -0.1541  0.0882  0.1623
 4047TIP3    H133700   3.420   6.305   8.026 -0.7185  0.1318 -1.0065
 4047TIP3    H233701   3.429   6.452   8.063 -0.0281  0.1522 -1.2491
 4048TIP3   OH233702   6.462   4.940   8.371 -0.2592 -0.0532  0.1632
 4048TIP3    H133703   6.520   4.988   8.431 -1.0417 -0.7401  1.5074
 4048TIP3    H233704   6.453   4.998   8.296 -1.0198  1.8655  1.6345
 4049TIP3   OH233705   2.226   2.965   8.070 -0.1248 -0.0808 -0.4145
 4049TIP3    H133706   2.292   3.034   8.070  0.9765 -1.0931 -0.3521
 4049TIP3    H233707   2.144   3.009   8.047  0.4144  1.3498  0.2938
 4050TIP3   OH233708   2.140   3.549   1.144 -0.2301 -0.3716 -0.1594
 4050TIP3    H133709   2.235   3.545   1.157  0.2932 -0.0582 -3.1779
 4050TIP3    H233710   2.113   3.630   1.186  0.8767 -0.3483  0.5477
 4051TIP3   OH233711   6.510   6.634   6.112 -0.8896  0.6514  0.4750
 4051TIP3    H133712   6.504   6.564   6.046 -3.6985 -0.4866  1.7474
 4051TIP3    H233713   6.579   6.604   6.172 -0.6701 -0.0182 -0.0907
 4052TIP3   OH233714   6.241   2.607   8.401 -0.2417 -0.3639 -0.7879
 4052TIP3    H133715   6.245   2.557   8.320  0.6295  0.9780 -1.6094
 4052TIP3    H233716   6.165   2.664   8.392  0.1928  0.2027 -0.9266
 4053TIP3   OH233717   5.443   1.616   1.064 -0.0341  0.1261 -0.0545
 4053TIP3    H133718   5.536   1.597   1.054 -0.4379 -1.9642 -0.3759
 4053TIP3    H233719   5.439   1.689   1.125  1.8056  0.2022  0.0077
 4054TIP3   OH233720   6.640   0.260   1.534  0.1069  0.3174  0.1998
 4054TIP3    H133721   6.648   0.330   1.599  3.5331  1.5189 -1.2960
 4054TIP3    H233722   6.622   0.304   1.452  0.0375 -0.7819 -0.3949
 4055TIP3   OH233723   4.400   5.459   7.585 -0.0404  0.3272  0.1039
 4055TIP3    H133724   4.309   5.430   7.585  0.3622 -1.0559 -0.6744
 4055TIP3    H233725   4.430   5.446   7.675 -0.1879 -0.6880  0.0197
 4056TIP3   OH233726   4.941   0.567   1.994 -0.0640  0.6927  0.3492
 4056TIP3    H133727   4.899   0.568   1.908  0.4380 -1.6665  0.0098
 4056TIP3    H233728   4.883   0.618   2.050 -1.1291  1.0909 -1.0597
 4057TIP3   OH233729   1.702   1.676   6.796 -0.0141 -0.0889 -0.7130
 4057TIP3    H133730   1.691   1.771   6.805 -0.8582 -0.2454 -0.0061
 4057TIP3    H233731   1.717   1.663   6.702 -0.9943  0.6477 -0.9896
 4058TIP3   OH233732   6.822   3.550   7.989  0.2275 -0.0908  0.4597
 4058TIP3    H133733   6.834   3.464   7.950  2.7251  0.3774 -0.0009
 4058TIP3    H233734   6.777   3.601   7.922  0.3129 -0.5684  0.0356
 4059TIP3   OH233735   1.678   4.322   1.556  0.3720 -0.6022  0.4602
 4059TIP3    H133736   1.695   4.413   1.531  1.4118 -0.7751  0.4719
 4059TIP3    H233737   1.763   4.290   1.587  0.0373 -1.6055  0.3724
 4060TIP3   OH233738   2.485   4.593   7.229  0.1439  0.6182  0.1672
 4060TIP3    H133739   2.402   4.641   7.232  0.7763  1.9527 -1.7103
 4060TIP3    H233740   2.515   4.603   7.139  2.0919 -0.2878  0.6667
 4061TIP3   OH233741   5.887   5.220   8.265 -0.0293  0.6993 -0.0127
 4061TIP3    H133742   5.968   5.239   8.218 -0.9199 -0.2154 -2.0898
 4061TIP3    H233743   5.859   5.304   8.300  0.6575  1.4811 -1.2499
 4062TIP3   OH233744   1.542   2.410   8.187 -0.2692 -0.3620  0.4350
 4062TIP3    H133745   1.470   2.360   8.149 -1.1728  1.0544  0.2005
 4062TIP3    H233746   1.546   2.381   8.278 -0.8170 -0.7984  0.3244
 4063TIP3   OH233747   5.081   0.326   8.096 -0.1947  0.1356 -0.0727
 4063TIP3    H133748   5.167   0.286   8.108 -0.5555 -0.5174  0.3953
 4063TIP3    H233749   5.020   0.267   8.142 -0.8884  0.5892 -0.3899
 4064TIP3   OH233750   1.134   4.631   8.355 -0.0203  0.0016 -0.1103
 4064TIP3    H133751   1.189   4.558   8.384 -0.9566  0.1353  2.2085
 4064TIP3    H233752   1.195   4.693   8.315  1.2959 -0.5488  0.9865
 4065TIP3   OH233753   4.354   0.972   1.717 -0.0728 -0.1478 -0.2608
 4065TIP3    H133754   4.392   0.996   1.801  0.6195 -0.5638 -0.4465
 4065TIP3    H233755   4.389   1.036   1.655 -0.9680  0.4594 -0.1587
 4066TIP3   OH233756   4.630   2.345   6.819 -0.3999 -0.2845 -0.1361
 4066TIP3    H133757   4.709   2.389   6.851 -1.0742  0.4145  0.6038
 4066TIP3    H233758   4.583   2.413   6.770 -1.7556  0.0331  1.5346
 4067TIP3   OH233759   4.761   0.775   7.199 -0.0356 -0.1592  0.1286
 4067TIP3    H133760   4.695   0.706   7.210 -1.3296  0.8446 -0.9362
 4067TIP3    H233761   4.814   0.746   7.125  0.4580 -0.7703  0.7145
 4068TIP3   OH233762   3.904   0.617   1.938  0.0135 -0.2978  0.2118
 4068TIP3    H133763   3.832   0.659   1.892 -0.5854 -1.2218  0.2730
 4068TIP3    H233764   3.982   0.667   1.912 -0.6956  1.0067  0.5201
 4069TIP3   OH233765   4.381   3.216   1.844 -0.1640 -0.1622  0.1806
 4069TIP3    H133766   4.354   3.306   1.861  0.5355  0.5601 -2.1533
 4069TIP3    H233767   4.330   3.163   1.905 -2.2419  1.6403  0.1080
 4070TIP3   OH233768   5.310   0.576   1.694  0.1319 -0.3155  0.1948
 4070TIP3    H133769   5.290   0.538   1.779 -0.5511 -1.2842 -0.3842
 4070TIP3    H233770   5.331   0.501   1.638 -2.9563 -0.0885 -1.4505
 4071TIP3   OH233771   2.756   5.949   0.038 -0.4069  0.0132  0.3145
 4071TIP3    H133772   2.763   5.879   0.103  0.6682  0.2903  0.5157
 4071TIP3    H233773   2.688   6.008   0.072 -0.3450 -0.2140  0.8267
 4072TIP3   OH233774   1.529   2.673   7.831 -0.4408 -0.1334 -0.5393
 4072TIP3    H133775   1.544   2.767   7.823 -0.9538 -0.1803 -2.5031
 4072TIP3    H233776   1.501   2.661   7.922  0.5369  1.4556  0.0093
 4073TIP3   OH233777   0.825   6.809   7.819  0.2514  0.0522  0.3745
 4073TIP3    H133778   0.798   6.887   7.771  0.9302 -0.7694 -1.4430
 4073TIP3    H233779   0.915   6.793   7.791  0.8935 -0.1989  2.3662
 4074TIP3   OH233780   5.360   2.847   6.585  0.0373  0.1899  0.0597
 4074TIP3    H133781   5.276   2.890   6.570  0.0652  0.0883 -0.3832
 4074TIP3    H233782   5.425   2.915   6.568  0.0402  0.3850  0.7946
 4075TIP3   OH233783   4.899   0.506   1.550  0.5097 -0.6961  0.2752
 4075TIP3    H133784   4.987   0.469   1.539  0.7814 -0.7406  2.2397
 4075TIP3    H233785   4.840   0.441   1.512  1.2630 -1.0604 -0.2921
 4076TIP3   OH233786   6.429   2.611   1.131  0.0457  0.1420  0.4316
 4076TIP3    H133787   6.440   2.695   1.177 -0.0095 -0.9052  2.4743
 4076TIP3    H233788   6.335   2.604   1.115 -0.0708  0.0717  1.1068
 4077TIP3   OH233789   2.192   5.075   0.335 -0.1511  0.1959  0.3781
 4077TIP3    H133790   2.211   5.152   0.282  1.3892 -0.3095  0.1564
 4077TIP3    H233791   2.207   5.001   0.276 -0.8645 -0.3107  0.8122
 4078TIP3   OH233792   0.991   1.062   1.638 -0.3205 -0.2237 -0.5228
 4078TIP3    H133793   0.979   1.155   1.618 -1.1715 -0.4699 -1.2133
 4078TIP3    H233794   0.925   1.017   1.586  0.2486 -1.2468 -0.4006
 4079TIP3   OH233795   4.498   5.235   7.409  0.5068 -0.0419  0.3432
 4079TIP3    H133796   4.413   5.194   7.395  1.0798 -0.6913 -1.5151
 4079TIP3    H233797   4.478   5.317   7.455 -0.9486 -0.8991  1.3258
 4080TIP3   OH233798   2.025   2.888   7.719 -0.1618  0.0786 -0.0473
 4080TIP3    H133799   1.970   2.928   7.786  0.8815  1.5139 -0.0076
 4080TIP3    H233800   2.057   2.962   7.666  0.0026 -0.9097 -1.3920
 4081TIP3   OH233801   5.575   5.398   7.261  0.1916 -0.4739 -0.1089
 4081TIP3    H133802   5.482   5.374   7.255  0.6270 -2.5430  0.4562
 4081TIP3    H233803   5.599   5.425   7.173 -1.2510  1.4464  0.0334
 4082TIP3   OH233804   2.737   5.186   7.897  0.4443 -0.3466  0.5724
 4082TIP3    H133805   2.734   5.091   7.891 -0.3615 -0.2846 -0.3215
 4082TIP3    H233806   2.682   5.208   7.972 -1.0618 -0.5081 -0.4442
 4083TIP3   OH233807   4.161   4.521   7.112  0.5537 -0.9715  0.0699
 4083TIP3    H133808   4.248   4.507   7.148  0.3216  0.1283  1.1280
 4083TIP3    H233809   4.159   4.468   7.032  2.3885 -0.5722 -0.2863
 4084TIP3   OH233810   4.231   1.456   8.649  0.0439 -0.2589 -0.2930
 4084TIP3    H133811   4.215   1.412   8.566  1.9388 -0.7319 -0.4562
 4084TIP3    H233812   4.314   1.503   8.636 -0.0445  0.3233  1.0619
 4085TIP3   OH233813   2.794   4.542   8.124  0.6617  0.0108  0.1733
 4085TIP3    H133814   2.772   4.569   8.035 -1.4231 -0.4156  0.5142
 4085TIP3    H233815   2.839   4.618   8.161  0.8315  0.5001 -0.9668
 4086TIP3   OH233816   4.883   6.080   1.559 -0.0770  0.7988 -0.1657
 4086TIP3    H133817   4.875   6.112   1.469  1.0368 -0.6456 -0.8230
 4086TIP3    H233818   4.947   6.138   1.600 -1.3408  2.0991  0.0390
 4087TIP3   OH233819   4.722   2.012   8.226 -0.8319  0.0123  0.1130
 4087TIP3    H133820   4.764   2.089   8.189 -0.7597 -0.1564 -0.1570
 4087TIP3    H233821   4.774   1.939   8.194  0.0219 -0.0629  1.5707
 4088TIP3   OH233822   0.610   2.972   0.628 -0.5495 -0.0182  0.0845
 4088TIP3    H133823   0.669   3.045   0.612  0.0990 -0.6856 -0.6198
 4088TIP3    H233824   0.528   3.013   0.658  0.7258  0.8681  2.6928
 4089TIP3   OH233825   6.221   2.499   8.154  0.2358 -0.3536  0.8193
 4089TIP3    H133826   6.214   2.465   8.065 -1.0533  2.0401 -0.0749
 4089TIP3    H233827   6.134   2.485   8.191  0.4199 -0.2418  1.2979
 4090TIP3   OH233828   5.174   0.620   2.703 -0.3468 -0.0144  0.0002
 4090TIP3    H133829   5.104   0.641   2.641  0.2471 -1.6555 -1.2991
 4090TIP3    H233830   5.225   0.552   2.659  2.7422  1.8382  0.3970
 4091TIP3   OH233831   4.531   4.820   1.432  0.3744 -0.3159  0.3221
 4091TIP3    H133832   4.448   4.776   1.450  0.9298 -1.2373  0.7307
 4091TIP3    H233833   4.577   4.820   1.516  0.4699  0.9020  0.2876
 4092TIP3   OH233834   1.592   1.680   1.266  0.3993  0.0789 -0.3480
 4092TIP3    H133835   1.536   1.611   1.300  1.0647 -1.2923 -1.8495
 4092TIP3    H233836   1.590   1.748   1.332 -3.4183  0.3487 -0.5301
 4093TIP3   OH233837   1.494   3.401   0.079 -0.0513 -0.1310 -0.2669
 4093TIP3    H133838   1.539   3.486   0.081  1.1283 -0.7411  0.2152
 4093TIP3    H233839   1.466   3.391  -0.012 -1.6343  1.4768 -0.0053
 4094TIP3   OH233840   4.487   2.994   1.344  0.4239 -0.4179  0.1584
 4094TIP3    H133841   4.502   2.901   1.326  0.2602 -0.3527 -0.3521
 4094TIP3    H233842   4.471   2.999   1.438  0.5651 -0.8889  0.2091
 4095TIP3   OH233843   3.652   0.369   8.036  0.3546 -0.1569 -0.2338
 4095TIP3    H133844   3.617   0.286   8.068  0.6061  0.3737  1.5593
 4095TIP3    H233845   3.598   0.436   8.079  0.0162  0.6288 -1.8135
 4096TIP3   OH233846   2.602   1.981   2.244  0.2293 -0.4013 -0.5785
 4096TIP3    H133847   2.653   1.946   2.171  0.8366  1.5779 -1.1561
 4096TIP3    H233848   2.512   1.979   2.213  0.2783 -1.1066 -0.7144
 4097TIP3   OH233849   0.101   1.065   7.109  0.1567  0.7267 -0.3558
 4097TIP3    H133850   0.032   1.038   7.170  0.8541  0.3452  0.2670
 4097TIP3    H233851   0.061   1.055   7.022 -0.7438  0.9987  0.0169
 4098TIP3   OH233852   6.353   3.887   7.142 -0.7307  0.4830 -0.5710
 4098TIP3    H133853   6.385   3.796   7.148  0.4641  0.8914 -0.4167
 4098TIP3    H233854   6.350   3.904   7.048 -1.5855  0.0777 -0.6217
 4099TIP3   OH233855   0.819   4.386   0.365 -0.3592  0.8080 -0.0358
 4099TIP3    H133856   0.885   4.440   0.323 -0.9701  1.5034 -0.1076
 4099TIP3    H233857   0.809   4.310   0.307 -1.7226  2.0898 -1.5630
 4100TIP3   OH233858   3.197   3.854   1.993 -0.3883  0.0821 -0.1292
 4100TIP3    H133859   3.279   3.805   2.002 -0.5361 -0.1181  0.1369
 4100TIP3    H233860   3.223   3.946   1.997 -0.0350  0.0436 -1.2492
 4101TIP3   OH233861   6.508   3.633   0.227 -0.3206  0.2314 -0.3043
 4101TIP3    H133862   6.449   3.631   0.302 -1.0193 -0.8487 -0.8536
 4101TIP3    H233863   6.595   3.618   0.264 -0.4190  1.3969  0.4599
 4102TIP3   OH233864   1.020   1.498   2.036  0.4166  0.5932  0.3314
 4102TIP3    H133865   1.069   1.557   1.978  1.5899 -0.0325  0.6488
 4102TIP3    H233866   0.964   1.448   1.978  1.3209  0.2220 -0.2434
 4103TIP3   OH233867   2.416   5.201   7.350 -0.2657  0.0127 -0.2068
 4103TIP3    H133868   2.338   5.147   7.337 -1.6815  1.9505 -0.0831
 4103TIP3    H233869   2.489   5.142   7.328 -1.7249 -1.8418 -0.3625
 4104TIP3   OH233870   3.201   3.183   0.974 -0.8038 -0.9030  0.0325
 4104TIP3    H133871   3.163   3.167   1.060  0.3602 -1.4082  0.4776
 4104TIP3    H233872   3.216   3.278   0.971 -2.1175 -0.6777 -0.1887
 4105TIP3   OH233873   2.637   3.984   8.615 -0.4993 -0.9395 -0.3743
 4105TIP3    H133874   2.732   3.996   8.622 -0.4902 -0.4080 -1.3194
 4105TIP3    H233875   2.623   3.892   8.638 -0.0817 -0.3875  2.5206
 4106TIP3   OH233876   6.594   0.355   1.284  0.2717 -0.1907 -0.1188
 4106TIP3    H133877   6.627   0.408   1.212 -0.0350  1.2580  0.7381
 4106TIP3    H233878   6.519   0.405   1.317  0.8279 -0.4268  1.6371
 4107TIP3   OH233879   1.214   0.957   6.749 -0.0169  0.2088  0.0505
 4107TIP3    H133880   1.191   0.957   6.842  1.9294 -0.3846  0.5754
 4107TIP3    H233881   1.187   1.043   6.717 -1.0663  0.2702  1.0540
 4108TIP3   OH233882   0.107   2.367   1.103  0.0398 -0.5144  0.2869
 4108TIP3    H133883   0.063   2.304   1.160 -0.5213 -0.7151 -0.3508
 4108TIP3    H233884   0.101   2.328   1.015 -0.1534  0.3377 -0.0911
 4109TIP3   OH233885   6.586   6.228   8.599 -0.2946  0.1956  0.0411
 4109TIP3    H133886   6.605   6.160   8.663 -0.4840 -0.6993 -0.8320
 4109TIP3    H233887   6.520   6.283   8.641 -0.3080 -0.2889  0.6642
 4110TIP3   OH233888   4.369   1.074   0.005 -0.1195  0.3180  0.0322
 4110TIP3    H133889   4.309   1.064  -0.069  0.1268  0.3708 -0.1730
 4110TIP3    H233890   4.456   1.058  -0.032  0.1133  1.4543  0.0781
 4111TIP3   OH233891   6.741   6.747   0.462 -0.3636 -0.0997 -0.5064
 4111TIP3    H133892   6.647   6.764   0.466 -0.8841 -2.2776 -1.7302
 4111TIP3    H233893   6.769   6.785   0.379 -0.4844 -0.6741 -0.8187
 4112TIP3   OH233894   1.931   2.266   7.047 -0.3682  0.0386 -0.0310
 4112TIP3    H133895   2.008   2.298   7.001 -1.0086  1.6057 -0.0806
 4112TIP3    H233896   1.964   2.232   7.129  0.2951  1.6985  0.4240
 4113TIP3   OH233897   4.203   5.206   7.451  0.2721 -0.0828  0.0069
 4113TIP3    H133898   4.197   5.279   7.512  1.5481  0.7290 -0.7854
 4113TIP3    H233899   4.226   5.131   7.506 -3.3637 -0.5253  1.1806
 4114TIP3   OH233900   1.509   3.962   8.612  0.5054  0.0669 -0.2108
 4114TIP3    H133901   1.461   3.888   8.649  1.2494 -1.2749 -1.7536
 4114TIP3    H233902   1.601   3.941   8.629  0.8255 -0.2574 -2.0937
 4115TIP3   OH233903   6.635   2.257   1.423 -0.1366  0.0144 -0.1845
 4115TIP3    H133904   6.590   2.320   1.367 -0.8146 -1.2371 -1.0916
 4115TIP3    H233905   6.728   2.273   1.407 -0.2741  1.2041  0.0983
 4116TIP3   OH233906   6.255   3.622   8.085 -0.2150 -0.0560  0.7903
 4116TIP3    H133907   6.329   3.588   8.035  1.5061  1.0252  2.4503
 4116TIP3    H233908   6.215   3.687   8.027  1.1743  0.5312  0.4432
 4117TIP3   OH233909   6.590   3.641   6.782  0.0873 -0.2946  0.4486
 4117TIP3    H133910   6.501   3.676   6.785  0.2259  0.2005 -0.6606
 4117TIP3    H233911   6.618   3.636   6.874  0.2558  3.0251  0.6901
 4118TIP3   OH233912   4.962   0.471   6.510  0.0629  0.1501  0.1822
 4118TIP3    H133913   5.021   0.441   6.442 -0.9113  0.5270 -0.8593
 4118TIP3    H233914   4.993   0.427   6.590 -0.2117 -2.1971 -0.9244
 4119TIP3   OH233915   3.881   4.082   1.084  0.0790 -0.3004 -0.0736
 4119TIP3    H133916   3.918   4.064   1.170 -0.8438 -2.5766 -0.0820
 4119TIP3    H233917   3.945   4.048   1.022  0.3055  0.4686 -0.2725
 4120TIP3   OH233918   4.953   1.590   7.155  0.6059 -0.4789 -0.7098
 4120TIP3    H133919   5.041   1.585   7.119  0.9028  0.2568 -0.1129
 4120TIP3    H233920   4.940   1.507   7.200  1.1280 -0.4606 -0.5214
 4121TIP3   OH233921   5.044   1.016   0.206 -0.4100 -0.3567  0.8321
 4121TIP3    H133922   5.100   0.944   0.234 -1.2633 -0.5073  2.2930
 4121TIP3    H233923   5.104   1.084   0.176  0.4212 -1.5559 -0.3127
 4122TIP3   OH233924   5.558   4.459   8.596 -0.1729  0.3607  0.4144
 4122TIP3    H133925   5.528   4.550   8.604 -2.5558 -0.3023 -0.2732
 4122TIP3    H233926   5.479   4.407   8.604  0.9818 -1.6149 -0.3848
 4123TIP3   OH233927   1.274   5.494   8.587  0.4992  0.0136 -0.1550
 4123TIP3    H133928   1.351   5.505   8.531 -0.0977  3.4906 -0.5505
 4123TIP3    H233929   1.200   5.513   8.529 -0.4585 -0.5714  0.8470
 4124TIP3   OH233930   1.085   1.615   0.933 -0.5664  0.0590  0.2377
 4124TIP3    H133931   1.066   1.649   0.845 -1.5470  4.3198  1.8661
 4124TIP3    H233932   1.179   1.631   0.945 -0.6172  0.3127  0.2932
 4125TIP3   OH233933   0.742   4.763   1.893  0.4867 -0.1155 -0.0050
 4125TIP3    H133934   0.808   4.775   1.961  0.2649  1.2756  0.0007
 4125TIP3    H233935   0.667   4.724   1.939  0.3746  0.7193  0.5524
 4126TIP3   OH233936   3.330   2.512   6.517 -0.0369 -0.7152 -0.5034
 4126TIP3    H133937   3.318   2.549   6.604 -0.9142 -1.1231 -0.4463
 4126TIP3    H233938   3.319   2.418   6.528 -1.5520 -0.6570 -1.2683
 4127TIP3   OH233939   2.675   6.245   8.565 -0.2233  0.3320 -0.4094
 4127TIP3    H133940   2.734   6.192   8.511  1.0127 -0.2979  1.4605
 4127TIP3    H233941   2.723   6.327   8.578 -0.4440  0.4191 -0.1440
 4128TIP3   OH233942   4.926   6.354   7.008  0.2996 -0.1897  0.2536
 4128TIP3    H133943   4.875   6.279   6.977 -0.4606  0.3772  0.1036
 4128TIP3    H233944   5.011   6.344   6.966  0.5996 -1.5729  1.0998
 4129TIP3   OH233945   3.189   4.232   0.395 -0.1431  0.0714  0.0857
 4129TIP3    H133946   3.235   4.300   0.345  2.0767 -2.1469 -1.0881
 4129TIP3    H233947   3.202   4.258   0.487  0.5673  1.2818 -0.3306
 4130TIP3   OH233948   5.676   3.479   7.989 -0.6717  0.5023 -0.3549
 4130TIP3    H133949   5.718   3.395   7.974 -1.3353  0.0678  0.2047
 4130TIP3    H233950   5.601   3.460   8.045 -1.1501  1.3823 -0.6668
 4131TIP3   OH233951   6.134   6.155   7.501 -0.2196  0.3811 -0.7025
 4131TIP3    H133952   6.203   6.098   7.535 -0.8397  0.1564  0.2265
 4131TIP3    H233953   6.146   6.154   7.406  0.7083 -0.0905 -0.5886
 4132TIP3   OH233954   1.497   2.036   2.026  0.2042  0.4477  0.0776
 4132TIP3    H133955   1.504   2.023   2.121 -0.6140 -1.5831 -0.1054
 4132TIP3    H233956   1.588   2.037   1.996  0.4501  0.1361  0.7697
 4133TIP3   OH233957   1.228   6.716   0.498  0.1307 -0.3711 -0.2810
 4133TIP3    H133958   1.304   6.737   0.444  0.0359  0.0968 -0.2399
 4133TIP3    H233959   1.153   6.730   0.440  0.0552 -0.3722 -0.1848
 4134TIP3   OH233960   0.201   0.826   8.129 -0.3790  0.7300  0.3580
 4134TIP3    H133961   0.198   0.744   8.080 -2.1021  1.1936 -0.3789
 4134TIP3    H233962   0.115   0.832   8.171 -0.5064  2.4320 -0.0829
 4135TIP3   OH233963   1.579   1.870   7.783  0.4954 -0.8279 -0.3084
 4135TIP3    H133964   1.617   1.909   7.705  0.7296  0.4769  0.4259
 4135TIP3    H233965   1.504   1.925   7.803  0.4731 -1.1140  0.4217
 4136TIP3   OH233966   0.738   5.686   0.481 -0.0788  0.3883 -0.2478
 4136TIP3    H133967   0.716   5.618   0.545  1.7360  0.0320  0.0598
 4136TIP3    H233968   0.737   5.641   0.397 -1.6285  0.6609 -0.4014
 4137TIP3   OH233969   2.243   2.833   1.685  0.2847 -0.4000  0.9802
 4137TIP3    H133970   2.228   2.903   1.748 -0.4147  0.8590 -0.5102
 4137TIP3    H233971   2.276   2.760   1.737 -0.7280  0.4131  2.8579
 4138TIP3   OH233972   6.770   1.973   0.521  0.4862 -0.0703  0.0545
 4138TIP3    H133973   6.833   2.003   0.456  1.6521  0.2236  1.2821
 4138TIP3    H233974   6.699   2.036   0.517  0.6384  0.0503 -0.7928
 4139TIP3   OH233975   6.102   6.574   2.336  0.1144 -1.0032 -0.2809
 4139TIP3    H133976   6.133   6.597   2.423 -1.2541 -0.8992  0.1910
 4139TIP3    H233977   6.160   6.622   2.277  0.0648  0.1610  0.5968
 4140TIP3   OH233978   2.780   3.359   7.385  0.2079  0.8880 -0.3515
 4140TIP3    H133979   2.856   3.414   7.364  0.3751  0.9277  0.3423
 4140TIP3    H233980   2.758   3.316   7.302 -0.3621  2.5351 -1.0988
 4141TIP3   OH233981   2.087   6.672   0.789  0.2481 -0.2925 -0.3486
 4141TIP3    H133982   2.094   6.764   0.764  0.0942 -0.7191 -2.0722
 4141TIP3    H233983   2.135   6.625   0.722 -0.8267 -1.5737 -0.2614
 4142TIP3   OH233984   0.493   4.239   7.234  0.0195  0.2306  0.4011
 4142TIP3    H133985   0.464   4.289   7.158  0.6943 -1.7026 -1.2197
 4142TIP3    H233986   0.581   4.210   7.211  0.3287 -0.2039  2.0369
 4143TIP3   OH233987   0.442   6.360   8.037 -0.1338  0.2255  0.0609
 4143TIP3    H133988   0.387   6.350   7.960 -1.3127  2.7732  0.4541
 4143TIP3    H233989   0.531   6.340   8.006 -0.5396  1.3415 -2.0418
 4144TIP3   OH233990   5.099   3.120   6.918  0.0453  0.8446  0.3389
 4144TIP3    H133991   5.164   3.107   6.987  0.4705  2.4890  0.2796
 4144TIP3    H233992   5.050   3.198   6.945 -2.2882 -0.6217  0.6523
 4145TIP3   OH233993   4.768   1.146   7.993 -0.3100  0.0400  0.3681
 4145TIP3    H133994   4.841   1.106   8.039  0.0092  0.5010  0.2694
 4145TIP3    H233995   4.801   1.231   7.964 -0.9690  0.3648  0.5495
 4146TIP3   OH233996   0.995   2.958   1.486 -0.1501  0.7230 -0.0395
 4146TIP3    H133997   0.948   2.881   1.519  0.0702 -0.0707 -1.5021
 4146TIP3    H233998   1.074   2.963   1.540  0.2914 -0.6540 -0.5147
 4147TIP3   OH233999   5.657   3.115   7.684  0.4124 -0.2577  0.3569
 4147TIP3    H134000   5.663   3.147   7.774 -0.2127  0.3900  0.1776
 4147TIP3    H234001   5.693   3.185   7.630 -2.4666  0.9772 -0.1791
 4148TIP3   OH234002   3.653   1.785   0.863 -0.1344  0.3722  0.6667
 4148TIP3    H134003   3.719   1.718   0.845  0.5433  0.9539  0.9462
 4148TIP3    H234004   3.574   1.736   0.886  0.4778 -0.3265  1.3070
 4149TIP3   OH234005   3.592   2.782   2.013  0.1568 -0.4973  0.0756
 4149TIP3    H134006   3.678   2.801   2.049  1.6448 -2.0482 -2.3976
 4149TIP3    H234007   3.584   2.687   2.017 -0.8360 -0.4852 -1.0457
 4150TIP3   OH234008   3.509   5.559   8.165  0.4941 -0.4189 -0.9319
 4150TIP3    H134009   3.576   5.627   8.153  1.1379 -1.1742 -1.7374
 4150TIP3    H234010   3.554   5.477   8.146 -0.9383 -0.8618 -2.7227
 4151TIP3   OH234011   6.302   1.949   0.792  0.6282  0.3941  0.5227
 4151TIP3    H134012   6.227   1.926   0.737  0.6024 -1.7900  1.3823
 4151TIP3    H234013   6.377   1.944   0.732  0.5867 -1.8329  0.5975
 4152TIP3   OH234014   4.471   3.435   7.890 -0.3417  0.1836  0.7459
 4152TIP3    H134015   4.494   3.342   7.896  0.0490  0.3452  2.0615
 4152TIP3    H234016   4.552   3.478   7.862 -0.7133  0.0665 -0.5797
 4153TIP3   OH234017   4.790   4.166   7.577  0.2737 -0.1913  0.5037
 4153TIP3    H134018   4.812   4.133   7.490  0.5290 -2.5313  1.3922
 4153TIP3    H234019   4.872   4.202   7.610  0.1692  0.7340 -0.2005
 4154TIP3   OH234020   3.815   1.797   1.455  0.1251 -0.1807  0.0574
 4154TIP3    H134021   3.769   1.714   1.467  0.2194 -0.2485 -0.0474
 4154TIP3    H234022   3.899   1.773   1.415  0.7244 -0.1702  1.2577
 4155TIP3   OH234023   6.042   1.259   8.592 -0.3544 -0.3458  0.2351
 4155TIP3    H134024   6.116   1.318   8.603 -0.6286  0.0464  0.0224
 4155TIP3    H234025   6.049   1.229   8.501  0.4167 -1.5202  0.6672
 4156TIP3   OH234026   3.583   4.111   1.338 -0.4870 -0.8977 -0.0876
 4156TIP3    H134027   3.577   4.194   1.387 -2.4234 -1.8241  1.4254
 4156TIP3    H234028   3.510   4.059   1.372 -0.0818 -2.7690 -1.9012
 4157TIP3   OH234029   4.806   2.728   6.738 -0.1684 -0.8864  0.1333
 4157TIP3    H134030   4.847   2.813   6.753 -0.1892 -0.6864 -0.8611
 4157TIP3    H234031   4.759   2.738   6.655  0.9373 -2.2657 -0.7210
 4158TIP3   OH234032   0.393   1.998   2.529  0.2234 -1.2149  0.3072
 4158TIP3    H134033   0.403   2.093   2.519 -0.3310 -1.3230 -1.6124
 4158TIP3    H234034   0.319   1.976   2.473  0.9664 -2.9356 -0.0472
 4159TIP3   OH234035   3.035   4.433   0.565 -0.6052  0.4484 -0.5438
 4159TIP3    H134036   3.121   4.415   0.602 -0.6687 -0.1703 -0.6871
 4159TIP3    H234037   3.053   4.488   0.488 -0.3774  0.6795 -0.3270
 4160TIP3   OH234038   1.234   1.798   7.193 -0.1174 -0.2274  0.1037
 4160TIP3    H134039   1.233   1.854   7.115  0.3170 -0.0440  0.2251
 4160TIP3    H234040   1.239   1.709   7.159  0.9624 -0.1153 -0.0802
 4161TIP3   OH234041   3.514   3.956   2.374  0.9992  0.1419  0.4759
 4161TIP3    H134042   3.503   4.045   2.340  3.0347  0.0615 -0.5737
 4161TIP3    H234043   3.459   3.902   2.318 -0.0504  0.6806  0.9538
 4162TIP3   OH234044   4.077   6.123   8.231 -0.2009 -0.4534 -0.0993
 4162TIP3    H134045   4.103   6.033   8.213 -0.7565 -0.2721 -2.0360
 4162TIP3    H234046   3.982   6.120   8.238 -0.2638  0.0570 -0.6843
 4163TIP3   OH234047   1.491   6.109   8.116  0.2721  0.2538 -0.1344
 4163TIP3    H134048   1.546   6.079   8.044 -0.3579  1.3376 -1.1109
 4163TIP3    H234049   1.506   6.046   8.187  1.3899 -0.4676 -0.9913
 4164TIP3   OH234050   6.336   4.706   6.580  0.5555 -0.0676 -0.8943
 4164TIP3    H134051   6.357   4.794   6.611 -2.8987  0.8017 -0.6598
 4164TIP3    H234052   6.291   4.719   6.497  1.0273 -1.7384 -1.4624
 4165TIP3   OH234053   0.758   3.421   0.236 -0.0649  0.6996  0.1298
 4165TIP3    H134054   0.700   3.476   0.288  0.0535  0.2171  0.7895
 4165TIP3    H234055   0.846   3.457   0.252 -0.0394  0.6115  0.1909
 4166TIP3   OH234056   2.160   5.809   0.292  0.0206  0.2397 -0.5053
 4166TIP3    H134057   2.151   5.745   0.362 -1.2301  0.4962 -0.4153
 4166TIP3    H234058   2.231   5.867   0.321  1.4468 -1.2947 -0.7773
 4167TIP3   OH234059   0.822   3.912   7.777  0.1444 -0.1874  0.4704
 4167TIP3    H134060   0.798   3.826   7.741  0.6870  0.0553 -0.4806
 4167TIP3    H234061   0.915   3.904   7.799  0.6661  0.7042 -1.2972
 4168TIP3   OH234062   2.650   3.598   6.386 -0.3239  0.2312  0.2721
 4168TIP3    H134063   2.718   3.650   6.343 -0.4386 -0.0466 -0.2488
 4168TIP3    H234064   2.613   3.658   6.451  0.0725  0.5492  0.2114
 4169TIP3   OH234065   1.625   4.438   6.673  0.1501 -0.0820 -0.1848
 4169TIP3    H134066   1.680   4.509   6.641  1.9278 -0.7114  1.2443
 4169TIP3    H234067   1.540   4.451   6.631  0.5438  2.6096 -0.3052
 4170TIP3   OH234068   5.278   4.686   8.059  0.0286  0.1575  0.5789
 4170TIP3    H134069   5.345   4.742   8.098 -0.7599  0.9469  0.8364
 4170TIP3    H234070   5.233   4.742   7.996 -0.9397 -0.0974  1.0164
 4171TIP3   OH234071   3.776   2.526   0.677  0.6107  0.0866 -0.1945
 4171TIP3    H134072   3.850   2.572   0.638  1.9499 -1.1017  0.8579
 4171TIP3    H234073   3.785   2.541   0.771  0.7908 -1.8500  0.1282
 4172TIP3   OH234074   2.982   5.671   8.682  0.0590  0.1725 -0.4526
 4172TIP3    H134075   2.971   5.762   8.654 -1.3521  0.2054  0.0915
 4172TIP3    H234076   2.898   5.629   8.661  0.7203 -1.0345 -0.7708
 4173TIP3   OH234077   4.630   5.062   7.585 -0.0126  0.1620 -0.0524
 4173TIP3    H134078   4.592   5.105   7.508  1.0320 -0.2238 -0.8135
 4173TIP3    H234079   4.695   5.124   7.617 -0.5488  0.3824  0.6194
 4174TIP3   OH234080   3.404   4.379   0.235  0.2010 -0.3121 -0.3260
 4174TIP3    H134081   3.343   4.397   0.163  1.3314  0.5549 -1.1033
 4174TIP3    H234082   3.484   4.350   0.191  0.5617 -0.8357  0.6556
 4175TIP3   OH234083   5.936   3.565   8.194 -0.1138 -0.2622 -0.4561
 4175TIP3    H134084   5.943   3.621   8.117 -0.1049  1.9541  1.0659
 4175TIP3    H234085   5.853   3.519   8.183 -0.2244  0.2123 -1.6663
 4176TIP3   OH234086   6.477   1.378   7.225  0.0960  0.4021 -0.7171
 4176TIP3    H134087   6.496   1.331   7.305 -0.3701 -0.7133 -1.2417
 4176TIP3    H234088   6.382   1.393   7.227 -0.2544 -1.3024 -1.8899
 4177TIP3   OH234089   2.709   5.790   7.168  0.3684 -0.5212 -0.1437
 4177TIP3    H134090   2.690   5.853   7.099  1.2379 -1.7799 -1.6035
 4177TIP3    H234091   2.788   5.823   7.209  0.0483  0.0494  0.0235
 4178TIP3   OH234092   1.422   5.679   7.320 -0.2256 -0.2148 -0.0610
 4178TIP3    H134093   1.497   5.633   7.283 -0.9060 -0.7111 -0.8761
 4178TIP3    H234094   1.377   5.613   7.373  0.1950  0.2279  0.8701
 4179TIP3   OH234095   0.042   3.956   1.076 -0.2733  0.0315 -0.1486
 4179TIP3    H134096  -0.000   3.876   1.045  1.1969 -1.3263  1.1262
 4179TIP3    H234097   0.116   3.968   1.017 -0.0191 -0.0443  0.1501
 4180TIP3   OH234098   4.002   6.278   1.536  0.2995 -0.6146  0.1379
 4180TIP3    H134099   3.944   6.212   1.574 -0.0039 -2.0249 -2.5684
 4180TIP3    H234100   3.944   6.330   1.480  1.2009 -0.4309 -0.6340
 4181TIP3   OH234101   5.531   3.357   8.227  0.0210  0.0154  0.1925
 4181TIP3    H134102   5.438   3.373   8.242 -0.4792  0.2980 -2.6133
 4181TIP3    H234103   5.576   3.413   8.290 -1.7439  1.5986  0.1384
 4182TIP3   OH234104   6.079   5.229   2.419  0.3007  0.1927 -0.2637
 4182TIP3    H134105   6.144   5.178   2.467  0.2533 -1.8803 -2.1958
 4182TIP3    H234106   6.130   5.287   2.363  0.7044 -2.1573 -2.5532
 4183TIP3   OH234107   5.426   3.662   1.183 -0.3560  0.4571 -0.0741
 4183TIP3    H134108   5.427   3.630   1.093 -1.7414  0.8718 -0.2687
 4183TIP3    H234109   5.393   3.588   1.235 -2.6192  1.1876 -0.3864
 4184TIP3   OH234110   5.144   3.195   7.469 -0.0354 -0.1237 -0.5279
 4184TIP3    H134111   5.227   3.242   7.482 -0.8250  1.1210  0.1067
 4184TIP3    H234112   5.119   3.166   7.557 -0.4995 -0.1134 -0.6572
 4185TIP3   OH234113   1.203   0.004   8.283  0.2395  0.3075  0.3797
 4185TIP3    H134114   1.160   0.006   8.368  0.9763  0.0684  0.7640
 4185TIP3    H234115   1.165   0.077   8.235  0.2808  0.8451  1.1470
 4186TIP3   OH234116   6.171   2.612   6.440  0.1685 -0.4782  0.4099
 4186TIP3    H134117   6.194   2.605   6.347  0.8239  0.6357  0.4631
 4186TIP3    H234118   6.076   2.627   6.440  0.5157  2.3233 -0.2991
 4187TIP3   OH234119   6.565   4.091   0.815 -0.5047  0.1952  0.3090
 4187TIP3    H134120   6.539   4.105   0.906 -1.2205 -0.0445  0.1416
 4187TIP3    H234121   6.614   4.009   0.817 -0.3393  0.2963  0.5076
 4188TIP3   OH234122   2.564   6.091   0.345  0.6713 -0.5781  0.2839
 4188TIP3    H134123   2.630   6.111   0.411 -1.0923  1.0931  1.6506
 4188TIP3    H234124   2.580   6.155   0.275  2.2644 -2.0708 -0.7987
 4189TIP3   OH234125   5.767   3.240   7.899 -0.4204  0.7623 -0.2429
 4189TIP3    H134126   5.857   3.231   7.868  0.2948  0.6461  1.7600
 4189TIP3    H234127   5.759   3.176   7.969 -2.0231  0.8904 -0.2783
 4190TIP3   OH234128   3.705   4.963   7.319 -0.3015  0.4325 -0.2701
 4190TIP3    H134129   3.701   4.993   7.410  2.3456 -1.1838  0.5182
 4190TIP3    H234130   3.755   5.031   7.273 -0.7744  0.7752 -0.2775
 4191TIP3   OH234131   5.776   2.007   6.790 -0.2263 -0.1842 -0.3693
 4191TIP3    H134132   5.846   1.945   6.811 -0.3616 -0.5467 -0.9536
 4191TIP3    H234133   5.772   2.007   6.695 -0.7355  0.1577 -0.3514
 4192TIP3   OH234134   0.358   3.343   7.888  0.1046 -0.0982  0.1679
 4192TIP3    H134135   0.312   3.360   7.806 -0.1429  0.9527  0.4945
 4192TIP3    H234136   0.403   3.260   7.875 -1.3204 -0.8074 -0.4178
 4193TIP3   OH234137   5.658   0.240   7.758 -0.0922  0.2515 -0.4500
 4193TIP3    H134138   5.684   0.205   7.843 -2.1636 -0.9184 -0.2177
 4193TIP3    H234139   5.710   0.192   7.694  0.5990  0.2695  0.0912
 4194TIP3   OH234140   1.452   3.052   2.307 -0.5614  0.8451 -0.3491
 4194TIP3    H134141   1.518   3.117   2.327 -0.3033  0.8587 -1.2170
 4194TIP3    H234142   1.385   3.100   2.259 -1.3047  0.8690  0.6675
 4195TIP3   OH234143   0.947   5.392   1.081 -0.7341 -0.6002  0.0359
 4195TIP3    H134144   0.969   5.420   0.992 -0.4606 -0.3228  0.1908
 4195TIP3    H234145   1.014   5.432   1.136 -0.5694 -1.2318  0.3070
 4196TIP3   OH234146   6.536   5.700   0.987  0.5412 -0.2066  0.1027
 4196TIP3    H134147   6.457   5.695   0.932  1.5000  0.2323 -1.3905
 4196TIP3    H234148   6.562   5.609   1.000 -0.2992 -0.3655  0.7657
 4197TIP3   OH234149   6.850   4.723   7.609 -0.2399 -0.2201  0.4965
 4197TIP3    H134150   6.785   4.666   7.567  0.2677 -1.5595  1.4546
 4197TIP3    H234151   6.804   4.760   7.684  0.5338 -2.6632  2.3153
 4198TIP3   OH234152   0.628   4.726   0.634 -0.5800 -0.0539 -0.1600
 4198TIP3    H134153   0.643   4.810   0.591 -0.8228  0.2183  0.2852
 4198TIP3    H234154   0.713   4.683   0.632 -0.3481  0.3927  0.0152
 4199TIP3   OH234155   2.775   3.234   8.253 -0.3731 -0.1379 -0.3631
 4199TIP3    H134156   2.750   3.192   8.335 -0.9207  0.1210 -0.3888
 4199TIP3    H234157   2.870   3.225   8.249 -0.3099  0.0925  0.4351
 4200TIP3   OH234158   0.546   4.894   0.101  0.3334  0.2163  0.3580
 4200TIP3    H134159   0.505   4.807   0.109  0.5352  0.0750 -0.0995
 4200TIP3    H234160   0.559   4.905   0.007  3.6781 -0.8540  0.5590
 4201TIP3   OH234161   6.674   3.686   1.220  0.1265  0.1578  0.1275
 4201TIP3    H134162   6.710   3.659   1.135 -1.6395  0.9454 -0.9279
 4201TIP3    H234163   6.746   3.674   1.281  1.4752 -0.3967 -1.4871
 4202TIP3   OH234164   5.292   4.022   7.667  0.5738  0.0617 -0.1104
 4202TIP3    H134165   5.210   4.051   7.707  0.0042 -0.5150 -0.8137
 4202TIP3    H234166   5.276   3.930   7.645  2.4580 -1.0205  2.4842
 4203TIP3   OH234167   4.083   1.094   7.416 -0.1976  0.2640 -0.0550
 4203TIP3    H134168   4.080   1.161   7.484  1.1927  0.8965 -0.5888
 4203TIP3    H234169   4.109   1.014   7.462 -1.1504  0.2310  0.4611
 4204TIP3   OH234170   0.539   5.189   7.899 -0.2483  0.3004 -0.3007
 4204TIP3    H134171   0.556   5.150   7.813 -0.1721 -1.0069  0.2730
 4204TIP3    H234172   0.535   5.283   7.883  1.1588  0.1983 -1.5108
 4205TIP3   OH234173   5.997   6.257   0.206 -0.4007  0.1168 -0.2022
 4205TIP3    H134174   6.021   6.277   0.116  0.5953 -1.2538 -0.2845
 4205TIP3    H234175   5.903   6.272   0.210 -0.5022 -0.0294 -1.5484
 4206TIP3   OH234176   3.603   4.221   8.365  0.7907  0.0907 -0.9818
 4206TIP3    H134177   3.515   4.249   8.388  1.4637  1.4414  0.0913
 4206TIP3    H234178   3.634   4.174   8.442  0.7581 -1.0837 -1.6512
 4207TIP3   OH234179   6.384   0.811   1.433  0.1598  0.3977 -0.0632
 4207TIP3    H134180   6.473   0.823   1.400  0.3778  0.8727  0.6912
 4207TIP3    H234181   6.381   0.861   1.514 -0.4691 -0.4835  0.4788
 4208TIP3   OH234182   4.772   6.770   0.533 -0.1075  0.5084 -0.4737
 4208TIP3    H134183   4.747   6.716   0.458  0.2079 -0.4278  0.0669
 4208TIP3    H234184   4.696   6.824   0.551 -1.6035 -1.8657  0.7927
 4209TIP3   OH234185   6.317   0.045   0.455 -0.1990 -0.5576 -0.1889
 4209TIP3    H134186   6.369   0.126   0.457 -0.6761 -0.2733  1.3014
 4209TIP3    H234187   6.253   0.055   0.525 -0.6166 -2.0120 -0.3295
 4210TIP3   OH234188   0.371   5.319   0.320  0.1374 -0.4401 -0.1689
 4210TIP3    H134189   0.357   5.256   0.250 -0.6212 -0.2548 -0.1945
 4210TIP3    H234190   0.322   5.284   0.394  0.9812 -0.6642  0.2923
 4211TIP3   OH234191   1.708   4.167   2.236 -0.4632 -0.2470  0.0645
 4211TIP3    H134192   1.771   4.097   2.222  0.5516  0.5905  0.3254
 4211TIP3    H234193   1.737   4.238   2.180 -2.3660 -0.5227 -1.3798
 4212TIP3   OH234194   1.241   1.966   0.716  0.6710  0.1285  0.1741
 4212TIP3    H134195   1.305   2.029   0.685 -0.6662  1.1295 -0.6894
 4212TIP3    H234196   1.172   1.966   0.649  0.0362 -1.3271  0.7685
 4213TIP3   OH234197   0.070   1.633   1.439 -0.0133 -0.0630 -0.1401
 4213TIP3    H134198  -0.021   1.656   1.420 -0.8632 -0.4934  2.9008
 4213TIP3    H234199   0.114   1.635   1.354 -2.2210  2.9053 -1.3861
 4214TIP3   OH234200   5.340   1.961   0.857  0.3797  0.2237  0.2123
 4214TIP3    H134201   5.407   2.028   0.841 -0.1267  0.9096  0.8569
 4214TIP3    H234202   5.368   1.886   0.806  0.8736  0.9962 -0.6955
 4215TIP3   OH234203   6.273   1.999   8.102 -0.5667 -0.0904 -0.2247
 4215TIP3    H134204   6.221   1.936   8.051  0.9151 -0.2920 -1.5649
 4215TIP3    H234205   6.329   1.944   8.156 -0.5630  0.1087 -0.0264
 4216TIP3   OH234206   2.487   6.308   8.152 -0.1653  0.0718  0.0132
 4216TIP3    H134207   2.474   6.389   8.103  1.0514 -0.6910 -1.6784
 4216TIP3    H234208   2.493   6.336   8.244 -0.4366  1.8029 -0.4685
 4217TIP3   OH234209   5.683   3.760   0.785  0.6610  0.1817  0.2392
 4217TIP3    H134210   5.603   3.712   0.805 -0.0915  0.3754 -1.9617
 4217TIP3    H234211   5.700   3.814   0.862 -0.8778 -0.4551  1.0556
 4218TIP3   OH234212   6.786   2.114   6.679 -0.1421 -0.2151 -0.2002
 4218TIP3    H134213   6.709   2.112   6.622  0.0243 -1.1284 -0.4144
 4218TIP3    H234214   6.847   2.173   6.635 -1.6826  2.6729  1.2979
 4219TIP3   OH234215   1.046   5.639   7.836  0.0745 -0.1414  0.5433
 4219TIP3    H134216   0.999   5.586   7.771  0.5389  0.6171 -0.4500
 4219TIP3    H234217   1.058   5.724   7.793  2.8178 -0.4616  0.5282
 4220TIP3   OH234218   3.410   6.248   7.630 -0.2656  0.0185  0.1609
 4220TIP3    H134219   3.462   6.274   7.706  0.2889  0.1604 -0.2583
 4220TIP3    H234220   3.473   6.247   7.558 -0.4592 -1.6100 -0.0103
 4221TIP3   OH234221   5.158   2.111   1.667  0.1395 -0.3184  0.3676
 4221TIP3    H134222   5.074   2.149   1.693  0.1688 -0.0493  0.0877
 4221TIP3    H234223   5.134   2.033   1.617  0.0156  0.1968 -0.4128
 4222TIP3   OH234224   3.889   1.310   8.304 -0.2969 -0.5482  0.2542
 4222TIP3    H134225   3.877   1.281   8.395 -1.1861 -0.2817  0.2374
 4222TIP3    H234226   3.895   1.405   8.310  0.8118 -0.5960  0.1336
 4223TIP3   OH234227   4.579   3.458   1.283  0.0440 -0.2453 -0.3485
 4223TIP3    H134228   4.639   3.438   1.355 -0.2895 -0.6045 -0.1691
 4223TIP3    H234229   4.549   3.373   1.251 -2.5333 -0.0956  1.3733
 4224TIP3   OH234230   5.896   0.691   7.098 -0.4987  0.6351  0.5356
 4224TIP3    H134231   5.903   0.770   7.044 -1.2293  0.5183  0.2699
 4224TIP3    H234232   5.958   0.706   7.170  0.7901  0.6163 -0.5345
 4225TIP3   OH234233   2.746   1.749   7.428  0.2119 -0.7204  0.1527
 4225TIP3    H134234   2.764   1.814   7.495  0.9256  0.1701 -0.8783
 4225TIP3    H234235   2.655   1.724   7.444 -0.0850  0.5371  0.5566
 4226TIP3   OH234236   3.622   5.863   8.013 -0.2829 -0.0719  0.1987
 4226TIP3    H134237   3.546   5.843   7.959  0.2402 -2.0489  0.1149
 4226TIP3    H234238   3.677   5.784   8.007  0.6649  0.3862  2.1244
 4227TIP3   OH234239   4.508   0.020   7.658  1.0413  0.2509  0.0974
 4227TIP3    H134240   4.502   0.112   7.634 -1.2622  0.3126  0.7066
 4227TIP3    H234241   4.530   0.020   7.751  2.1892  0.1176 -0.1483
 4228TIP3   OH234242   6.263   2.973   8.331  0.0769 -0.4285  0.7879
 4228TIP3    H134243   6.240   2.891   8.288 -0.6308 -1.0030  2.2340
 4228TIP3    H234244   6.356   2.963   8.352  0.1971 -0.5135  0.2424
 4229TIP3   OH234245   0.719   4.995   6.743  0.2762 -0.0259 -0.6251
 4229TIP3    H134246   0.663   5.007   6.820  2.4660  1.7881  0.8437
 4229TIP3    H234247   0.707   5.074   6.692  2.3200  1.0316  0.3880
 4230TIP3   OH234248   4.567   2.116   0.474 -0.4357 -0.3566  0.3762
 4230TIP3    H134249   4.607   2.058   0.409 -1.4632  0.7308 -1.3092
 4230TIP3    H234250   4.628   2.115   0.548  0.4548 -2.1454 -0.3153
 4231TIP3   OH234251   4.012   3.143   1.932 -0.5906  0.2548  0.2218
 4231TIP3    H134252   3.925   3.172   1.904 -0.2031  0.0661 -1.2421
 4231TIP3    H234253   4.068   3.156   1.856  0.7855  0.7911  1.2753
 4232TIP3   OH234254   3.939   4.154   1.995  0.5436  0.1404 -0.3154
 4232TIP3    H134255   3.923   4.112   2.080 -1.0137  0.7010 -0.2974
 4232TIP3    H234256   3.940   4.247   2.015  2.1707  0.2168 -0.6358
 4233TIP3   OH234257   5.645   5.112   1.870  0.7008  0.1763  0.1734
 4233TIP3    H134258   5.574   5.049   1.862  1.4195 -0.9069  1.8070
 4233TIP3    H234259   5.601   5.197   1.865 -0.3189 -0.3966 -1.7939
 4234TIP3   OH234260   1.465   5.854   0.553  0.5125  0.2860 -0.2586
 4234TIP3    H134261   1.512   5.873   0.473  1.4332  1.1194  0.4556
 4234TIP3    H234262   1.456   5.939   0.597  0.5896 -0.2309  0.8046
 4235TIP3   OH234263   2.665   4.731   1.028 -0.8356 -0.2556  0.2543
 4235TIP3    H134264   2.617   4.659   0.988 -0.7194 -0.5476  0.6331
 4235TIP3    H234265   2.646   4.806   0.972 -0.1248 -0.7918 -0.7318
 4236TIP3   OH234266   0.960   3.993   0.429  0.6762 -0.0822  0.3033
 4236TIP3    H134267   0.902   3.921   0.401  0.2318 -1.1561  3.5504
 4236TIP3    H234268   0.925   4.020   0.514  2.4245  2.2301  0.3835
 4237TIP3   OH234269   0.230   5.975   8.278 -0.4769 -0.2534 -0.0486
 4237TIP3    H134270   0.178   5.897   8.260  0.8890 -0.6498 -2.9044
 4237TIP3    H234271   0.291   5.981   8.204  0.9167  2.3381  1.1529
 4238TIP3   OH234272   3.121   1.183   7.417 -0.6521 -0.3235 -0.1796
 4238TIP3    H134273   3.136   1.165   7.510  2.0418 -1.0715 -0.6606
 4238TIP3    H234274   3.180   1.255   7.398 -0.9674 -0.3703 -1.3734
 4239TIP3   OH234275   0.827   5.960   0.462  0.0166  0.3484 -0.0178
 4239TIP3    H134276   0.770   6.020   0.415  1.5261  2.7040  0.9704
 4239TIP3    H234277   0.778   5.878   0.466 -1.2417  0.8097 -3.3348
 4240TIP3   OH234278   6.464   3.420   7.690 -0.5660 -0.3801 -0.0133
 4240TIP3    H134279   6.527   3.359   7.652 -1.6571 -1.3051 -0.3820
 4240TIP3    H234280   6.462   3.398   7.783 -0.0214 -0.0365  0.0870
 4241TIP3   OH234281   5.355   0.711   6.056  0.1690  0.8350 -0.1132
 4241TIP3    H134282   5.375   0.643   5.992  2.1928  2.1736 -1.0020
 4241TIP3    H234283   5.274   0.751   6.024  1.3429  1.7290 -2.0941
 4242TIP3   OH234284   6.618   5.626   2.537 -0.9512 -0.6581 -0.1708
 4242TIP3    H134285   6.674   5.697   2.508 -1.2468 -1.3617 -2.7390
 4242TIP3    H234286   6.551   5.668   2.591 -0.0174  0.7007 -0.0397
 4243TIP3   OH234287   2.138   0.387   1.474  0.2925 -0.5248  0.8837
 4243TIP3    H134288   2.137   0.460   1.537 -1.4429 -0.0220  0.3199
 4243TIP3    H234289   2.148   0.309   1.529 -0.7114 -0.0658  1.7765
 4244TIP3   OH234290   6.130   0.104   0.653 -0.3293  0.4601 -0.2477
 4244TIP3    H134291   6.050   0.156   0.646 -0.0463  0.9196 -0.0517
 4244TIP3    H234292   6.172   0.135   0.733  0.0858  0.2696 -0.3916
 4245TIP3   OH234293   6.388   5.304   0.168 -0.0968  0.0240  0.2349
 4245TIP3    H134294   6.300   5.268   0.172  0.5878 -1.6480  1.5049
 4245TIP3    H234295   6.409   5.327   0.259  1.0707 -0.4165  0.1003
 4246TIP3   OH234296   4.456   0.923   7.200  0.5095  0.3436  0.2045
 4246TIP3    H134297   4.523   0.863   7.231 -0.0702 -1.2624 -1.4632
 4246TIP3    H234298   4.376   0.895   7.245 -0.1414 -1.4128 -1.8376
 4247TIP3   OH234299   1.248   4.370   2.379 -0.3756  0.1876 -0.9939
 4247TIP3    H134300   1.303   4.327   2.444 -0.3953 -0.3562 -1.3320
 4247TIP3    H234301   1.215   4.449   2.424  0.5849  0.4660 -0.7539
 4248TIP3   OH234302   4.973   3.860   2.311  0.2033  0.0203 -0.8916
 4248TIP3    H134303   4.983   3.823   2.399  0.6067  1.0606 -0.4860
 4248TIP3    H234304   4.914   3.935   2.322 -0.1649 -0.1471 -1.6047
 4249TIP3   OH234305   5.537   6.182   8.148  0.2080  0.6195 -0.1455
 4249TIP3    H134306   5.519   6.254   8.088 -0.2960  0.2958 -0.3952
 4249TIP3    H234307   5.451   6.144   8.166  0.5454 -0.4663 -0.7260
 4250TIP3   OH234308   4.983   6.345   8.613 -0.2697  0.7501 -0.1746
 4250TIP3    H134309   5.054   6.335   8.550 -0.2817 -0.2550 -0.0404
 4250TIP3    H234310   4.904   6.322   8.563 -0.6147  2.5511 -0.5261
 4251TIP3   OH234311   6.557   1.470   0.930  0.1742 -0.1711 -0.0587
 4251TIP3    H134312   6.555   1.564   0.947  1.4463 -0.0510 -0.4690
 4251TIP3    H234313   6.477   1.453   0.880 -0.0494  0.6943 -0.0098
 4252TIP3   OH234314   4.238   2.829   8.054 -0.4471 -0.7840  0.1657
 4252TIP3    H134315   4.291   2.755   8.026 -1.5916 -0.8057 -2.1842
 4252TIP3    H234316   4.164   2.789   8.100 -0.6289 -1.0385 -0.3481
 4253TIP3   OH234317   4.004   3.344   0.109 -0.2544  0.4910  0.4778
 4253TIP3    H134318   4.042   3.258   0.125 -1.1887 -0.3104 -1.2836
 4253TIP3    H234319   4.077   3.397   0.076  0.2684  0.3121  1.3283
 4254TIP3   OH234320   2.584   2.378   7.361  0.2521 -0.0168 -0.0251
 4254TIP3    H134321   2.587   2.465   7.401 -0.8993 -0.1176  0.3276
 4254TIP3    H234322   2.615   2.392   7.272  2.1925  0.3348  0.6586
 4255TIP3   OH234323   2.112   1.303   1.542 -0.1479 -0.2560 -0.6737
 4255TIP3    H134324   2.076   1.353   1.615  0.0067  1.0027 -1.4363
 4255TIP3    H234325   2.108   1.212   1.572 -0.9581  0.1404  0.5232
 4256TIP3   OH234326   0.004   3.221   1.554 -0.4468  0.0092 -0.0450
 4256TIP3    H134327  -0.015   3.303   1.599  0.1722  0.0992  0.0519
 4256TIP3    H234328   0.089   3.194   1.588 -1.0345 -1.1261  0.5761
 4257TIP3   OH234329   0.695   1.820   2.175 -0.4304 -0.2884 -0.2666
 4257TIP3    H134330   0.651   1.788   2.254  1.0103  1.2632  1.2531
 4257TIP3    H234331   0.785   1.788   2.182 -0.0339  0.6573 -0.7779
 4258TIP3   OH234332   1.174   0.181   0.410 -0.2948  0.3454  0.4825
 4258TIP3    H134333   1.111   0.153   0.476 -2.5508  0.5341 -1.4778
 4258TIP3    H234334   1.184   0.275   0.425 -0.8467  0.3987  0.5126
 4259TIP3   OH234335   6.113   2.248   8.505  0.3385 -0.6478  0.1753
 4259TIP3    H134336   6.152   2.282   8.425 -1.6921 -1.4021 -1.2255
 4259TIP3    H234337   6.024   2.284   8.505 -1.1801 -4.0323 -0.2457
 4260TIP3   OH234338   4.780   3.061   0.941  0.2747  0.0797 -0.1455
 4260TIP3    H134339   4.762   2.968   0.942 -1.5053  0.3889 -1.0447
 4260TIP3    H234340   4.842   3.073   0.869  0.4181 -0.3878 -0.1004
 4261TIP3   OH234341   5.015   6.079   8.043  0.0197  0.3114 -0.3335
 4261TIP3    H134342   5.099   6.123   8.030 -0.1638  0.6779 -0.3167
 4261TIP3    H234343   5.034   6.007   8.103 -0.2670  2.5255  2.7005
 4262TIP3   OH234344   5.414   2.259   1.720  0.6337 -0.1271  0.1101
 4262TIP3    H134345   5.427   2.322   1.791  1.1590 -0.4949  0.3477
 4262TIP3    H234346   5.468   2.184   1.745  1.4869  0.0713 -1.1073
 4263TIP3   OH234347   3.177   5.420   7.528  0.4136  0.3239 -0.2000
 4263TIP3    H134348   3.117   5.351   7.499 -1.5189  0.9654  1.9327
 4263TIP3    H234349   3.162   5.492   7.466 -1.5170  0.6554  0.5709
 4264TIP3   OH234350   3.716   3.278   7.108 -0.7005 -0.1787 -0.5907
 4264TIP3    H134351   3.729   3.260   7.201 -0.5214  1.1503 -0.3426
 4264TIP3    H234352   3.621   3.290   7.099 -0.7862 -0.8979 -0.7016
 4265TIP3   OH234353   6.378   6.356   7.114 -0.1359 -0.1540 -0.3796
 4265TIP3    H134354   6.397   6.269   7.147  1.6945  0.5723  0.6869
 4265TIP3    H234355   6.445   6.372   7.047 -2.0005 -0.4728 -2.4485
 4266TIP3   OH234356   4.469   5.841   6.790 -0.3153 -0.0807  0.1245
 4266TIP3    H134357   4.451   5.749   6.772  0.2638  0.0887 -1.5797
 4266TIP3    H234358   4.553   5.858   6.747 -0.0919  1.0835  0.9652
 4267TIP3   OH234359   5.761   4.426   7.067 -0.7238 -0.4158  0.0743
 4267TIP3    H134360   5.756   4.521   7.078 -0.5718 -0.4187  0.1740
 4267TIP3    H234361   5.759   4.414   6.972  0.3072 -0.2406  0.0083
 4268TIP3   OH234362   5.776   1.095   0.948 -0.0215  0.4468  0.1446
 4268TIP3    H134363   5.779   1.053   0.862 -3.2798  0.3604 -0.0667
 4268TIP3    H234364   5.814   1.031   1.007 -0.3788 -0.7589 -0.8643
 4269TIP3   OH234365   6.165   3.797   7.339 -0.4886 -0.1885  0.0703
 4269TIP3    H134366   6.236   3.831   7.285  1.5923 -0.2664  2.5756
 4269TIP3    H234367   6.090   3.853   7.318  1.2063  2.0578 -0.3204
 4270TIP3   OH234368   4.325   4.987   1.695  0.5893 -0.0996 -0.2153
 4270TIP3    H134369   4.344   4.894   1.685  0.6766  0.0872 -2.0261
 4270TIP3    H234370   4.230   4.994   1.690  0.4145 -0.2519  1.8233
 4271TIP3   OH234371   3.112   4.061   1.587 -0.1235  0.3452 -0.0978
 4271TIP3    H134372   3.076   4.129   1.530  2.6384  2.1488  0.1089
 4271TIP3    H234373   3.127   4.104   1.671  0.1697 -0.9831  0.5688
 4272TIP3   OH234374   4.243   1.677   6.886 -0.5402  0.4356 -0.3772
 4272TIP3    H134375   4.300   1.655   6.960  0.0394  0.3467 -0.8415
 4272TIP3    H234376   4.286   1.636   6.810  1.3957  4.2210 -1.5597
 4273TIP3   OH234377   2.284   3.878   8.672 -0.0813 -0.0120  0.1017
 4273TIP3    H134378   2.318   3.944   8.732 -1.9691  0.5891  0.5755
 4273TIP3    H234379   2.245   3.811   8.729 -1.2947  0.2342 -0.4140
 4274TIP3   OH234380   5.978   2.859   7.193 -0.6590  0.3919 -0.1080
 4274TIP3    H134381   5.907   2.818   7.241 -0.2566  1.8439  1.8780
 4274TIP3    H234382   5.959   2.842   7.101 -2.4560 -0.9695  0.4754
 4275TIP3   OH234383   4.976   3.879   0.790  0.4437  0.4854 -0.1637
 4275TIP3    H134384   4.967   3.963   0.835 -1.5359  1.1762 -1.7186
 4275TIP3    H234385   4.912   3.822   0.833  0.7842  0.1816 -0.0492
 4276TIP3   OH234386   4.558   3.481   0.914  0.3379 -0.5114  0.3436
 4276TIP3    H134387   4.494   3.536   0.870 -1.1500 -1.5502  1.1476
 4276TIP3    H234388   4.589   3.535   0.987  2.1157  0.8493 -1.3072
 4277TIP3   OH234389   4.190   6.072   7.895  0.0722  0.3065 -0.6786
 4277TIP3    H134390   4.204   6.156   7.939  0.8786  0.6165 -1.4907
 4277TIP3    H234391   4.108   6.039   7.932 -0.8995  1.9987 -1.1929
 4278TIP3   OH234392   2.123   6.091   1.704  0.4987  0.4271 -0.2881
 4278TIP3    H134393   2.038   6.089   1.748 -0.2582  0.1272 -1.6978
 4278TIP3    H234394   2.186   6.068   1.772 -0.2564  2.8902  1.3733
 4279TIP3   OH234395   6.387   3.073   8.645 -0.0341 -0.0233 -0.4850
 4279TIP3    H134396   6.318   3.137   8.661  1.4284  1.1845  1.3266
 4279TIP3    H234397   6.344   2.988   8.655 -1.6806  0.6339 -1.4791
 4280TIP3   OH234398   3.274   2.295   0.205  0.9290  0.1079  0.0810
 4280TIP3    H134399   3.348   2.313   0.146  0.1686  2.8139 -0.1874
 4280TIP3    H234400   3.198   2.290   0.147  0.7118 -1.6853  0.4590
 4281TIP3   OH234401   4.006   2.562   6.937  0.1730  0.5506  0.2629
 4281TIP3    H134402   4.014   2.616   6.859  0.1384  0.9477  0.5317
 4281TIP3    H234403   3.912   2.552   6.950  0.1434 -1.1885 -0.8828
 4282TIP3   OH234404   3.236   3.975   0.261  0.4068  0.9411  0.3103
 4282TIP3    H134405   3.261   4.050   0.314  0.6020  1.6435 -0.7542
 4282TIP3    H234406   3.261   3.999   0.171  1.0271 -0.6226  0.0271
 4283TIP3   OH234407   3.302   4.446   0.631 -0.3878 -0.4102 -0.4324
 4283TIP3    H134408   3.318   4.541   0.628 -0.3423 -0.3830  0.4660
 4283TIP3    H234409   3.387   4.407   0.614 -0.4031 -0.2933 -0.7914
 4284TIP3   OH234410   2.483   5.212   0.886  0.0684  1.2153  0.2167
 4284TIP3    H134411   2.575   5.236   0.897  0.6950 -1.3730  1.3715
 4284TIP3    H234412   2.434   5.277   0.937  1.6536  0.1471  3.3433
 4285TIP3   OH234413   3.620   3.934   0.513  0.0532 -0.2801 -0.1191
 4285TIP3    H134414   3.575   3.990   0.576  1.3318 -0.4734  1.0193
 4285TIP3    H234415   3.662   3.867   0.567 -0.2385 -1.4833 -1.3327
 4286TIP3   OH234416   4.083   4.986   1.194 -0.1650 -0.3792 -0.4512
 4286TIP3    H134417   4.171   5.009   1.223 -0.8022  2.6471 -0.5489
 4286TIP3    H234418   4.033   4.975   1.275  0.1505 -1.4699 -0.3990
 4287TIP3   OH234419   3.086   2.358   0.796 -0.1368 -0.3756 -0.0842
 4287TIP3    H134420   3.132   2.405   0.727  2.3909 -0.3858  1.4821
 4287TIP3    H234421   3.046   2.426   0.850  0.7457 -0.1701  0.3236
 4288TIP3   OH234422   4.028   3.626   7.715 -0.3961  0.4413  0.2347
 4288TIP3    H134423   4.055   3.548   7.764 -1.3826 -0.5568 -0.7618
 4288TIP3    H234424   3.968   3.593   7.649 -1.0336  2.0971 -0.0524
 4289TIP3   OH234425   2.198   4.184   2.086 -0.1704 -0.4798  0.1929
 4289TIP3    H134426   2.288   4.190   2.054 -0.0719  0.3828  0.6161
 4289TIP3    H234427   2.206   4.135   2.168 -0.1126 -0.5878  0.1234
 4290TIP3   OH234428   1.382   3.739   8.702 -0.3547  0.0876  0.0959
 4290TIP3    H134429   1.338   3.782   8.775  0.2201 -0.0401  0.5278
 4290TIP3    H234430   1.455   3.692   8.743  0.7082  1.0091 -0.6883
 4291TIP3   OH234431   5.088   2.023   0.966  0.1643 -0.5714  0.1619
 4291TIP3    H134432   5.158   1.994   0.907 -0.2285  0.7476 -1.0275
 4291TIP3    H234433   5.106   1.981   1.049  2.2374 -0.4556 -0.1894
 4292TIP3   OH234434   0.481   2.725   0.917  0.2565 -0.3950  0.0122
 4292TIP3    H134435   0.572   2.705   0.938  0.2178 -1.3260 -0.6523
 4292TIP3    H234436   0.484   2.758   0.827  0.0108  0.2160  0.2245
 4293TIP3   OH234437   3.732   6.723   0.670 -0.6838 -0.1037  0.7051
 4293TIP3    H134438   3.672   6.794   0.691  0.3760  0.8180  0.6913
 4293TIP3    H234439   3.724   6.711   0.575 -0.2130  0.6198  0.5667
 4294TIP3   OH234440   1.808   1.200   0.521 -0.1598  0.1115  0.0477
 4294TIP3    H134441   1.854   1.147   0.586  0.1044 -1.0208 -1.0336
 4294TIP3    H234442   1.781   1.278   0.569  0.3213 -0.5407  1.4279
 4295TIP3   OH234443   0.812   5.439   7.908  0.6468 -0.0300  0.0441
 4295TIP3    H134444   0.823   5.348   7.878 -0.5209  0.0003 -0.5400
 4295TIP3    H234445   0.834   5.492   7.832 -0.4261  0.1057 -0.1893
 4296TIP3   OH234446   1.239   0.706   6.304 -1.0180 -0.1125 -0.7590
 4296TIP3    H134447   1.154   0.662   6.305 -1.4691  0.7362  0.6607
 4296TIP3    H234448   1.218   0.798   6.290 -0.3999  0.1836  0.1757
 4297TIP3   OH234449   0.318   4.785   1.357 -0.1575 -0.4027  0.0479
 4297TIP3    H134450   0.397   4.759   1.403 -0.5538 -0.3247  0.7800
 4297TIP3    H234451   0.310   4.723   1.285  2.8771  2.0118 -2.7131
 4298TIP3   OH234452   6.588   2.346   1.117  0.2803  0.3606 -0.0239
 4298TIP3    H134453   6.531   2.423   1.107 -0.4024 -0.1958 -0.6197
 4298TIP3    H234454   6.675   2.377   1.092  0.4217  1.4408  1.6975
 4299TIP3   OH234455   6.399   6.072   7.622  0.0417 -0.0778  0.5094
 4299TIP3    H134456   6.348   6.132   7.677  0.4114  1.3003 -0.5661
 4299TIP3    H234457   6.486   6.072   7.661  0.2477  0.7326  0.0821
 4300TIP3   OH234458   4.605   4.129   8.157 -0.2555  0.0168  0.0236
 4300TIP3    H134459   4.612   4.060   8.091  0.6839  0.8597 -0.8005
 4300TIP3    H234460   4.537   4.188   8.122 -1.8208 -0.9912  1.2371
 4301TIP3   OH234461   5.272   6.612   6.606  0.2962 -0.1416 -0.0414
 4301TIP3    H134462   5.308   6.687   6.653  0.1153 -0.8766  1.3144
 4301TIP3    H234463   5.340   6.589   6.542  0.5243  0.9057 -0.1919
 4302TIP3   OH234464   1.105   1.240   7.862  0.2590  0.4123 -0.1969
 4302TIP3    H134465   1.128   1.291   7.785  0.1475 -1.7878 -1.7652
 4302TIP3    H234466   1.027   1.192   7.837  0.2151 -0.3709  1.3086
 4303TIP3   OH234467   6.761   2.887   7.983 -0.0094 -0.0568 -0.1757
 4303TIP3    H134468   6.743   2.840   8.064  0.7923 -1.3806 -0.7331
 4303TIP3    H234469   6.696   2.957   7.981  0.0736  0.1410  1.6940
 4304TIP3   OH234470   5.700   1.894   2.315 -0.1160 -0.0129  0.2596
 4304TIP3    H134471   5.626   1.888   2.376  0.0255  0.1724  0.4506
 4304TIP3    H234472   5.686   1.822   2.254  2.0180 -3.0255  3.0168
 4305TIP3   OH234473   6.627   5.814   7.537  0.1135  0.1092 -0.4006
 4305TIP3    H134474   6.639   5.728   7.578 -0.1568  0.6431  0.8736
 4305TIP3    H234475   6.631   5.876   7.611  0.5470  1.2139 -1.3155
 4306TIP3   OH234476   0.666   4.156   0.816 -0.2117  0.1225  0.2113
 4306TIP3    H134477   0.618   4.084   0.858  1.5656 -0.6267  1.0812
 4306TIP3    H234478   0.628   4.235   0.854 -0.8845 -0.4381  0.7381
 4307TIP3   OH234479   6.446   5.452   7.464  0.4416  0.4730  0.0165
 4307TIP3    H134480   6.538   5.427   7.476  0.3126 -0.0311 -0.0477
 4307TIP3    H234481   6.448   5.517   7.393  0.9383  1.7441  1.1438
 4308TIP3   OH234482   6.249   0.850   1.066 -0.8792 -0.2091 -0.3429
 4308TIP3    H134483   6.344   0.844   1.051 -0.3877 -0.0513  2.2115
 4308TIP3    H234484   6.226   0.767   1.106 -1.9624 -0.4338 -1.3738
 4309TIP3   OH234485   5.011   4.436   0.812  0.8387 -0.7887 -0.0002
 4309TIP3    H134486   4.974   4.524   0.810 -0.6189 -1.3314 -2.8146
 4309TIP3    H234487   5.105   4.449   0.799  0.8344  0.3720  0.9529
 4310TIP3   OH234488   6.043   0.508   1.556 -0.5646 -0.3501  0.1053
 4310TIP3    H134489   5.986   0.581   1.534 -0.1131  0.0676  0.3046
 4310TIP3    H234490   5.997   0.462   1.627 -0.0821  0.7179  1.1548
 4311TIP3   OH234491   3.039   6.287   0.972  0.1663 -0.2578 -0.8607
 4311TIP3    H134492   3.060   6.380   0.969  1.0624  0.0961  5.0075
 4311TIP3    H234493   2.944   6.283   0.976  0.1636  0.6187  0.4323
 4312TIP3   OH234494   2.753   3.947   0.260  0.4866 -0.0421  0.5019
 4312TIP3    H134495   2.830   4.003   0.251 -0.2745  1.0033  0.3029
 4312TIP3    H234496   2.679   4.007   0.253 -0.4537 -1.3841 -2.4113
 4313TIP3   OH234497   3.406   1.825   7.969  0.4605  0.0421 -0.1024
 4313TIP3    H134498   3.430   1.750   7.914 -0.8349  0.3141 -1.0864
 4313TIP3    H234499   3.374   1.786   8.050 -0.8814 -0.5332 -0.8758
 4314TIP3   OH234500   4.597   2.865   7.785 -0.4873  0.5479  0.6357
 4314TIP3    H134501   4.693   2.867   7.785 -0.3320  1.6752 -3.1963
 4314TIP3    H234502   4.574   2.772   7.780  0.4534  0.3168  0.4854
 4315TIP3   OH234503   2.779   1.221   8.181  0.4559  0.2029 -0.5914
 4315TIP3    H134504   2.782   1.227   8.277 -0.6904 -1.5761 -0.4072
 4315TIP3    H234505   2.730   1.299   8.154  0.4340  0.5143  0.2991
 4316TIP3   OH234506   3.402   0.427   8.302 -0.2892  0.5846  0.2792
 4316TIP3    H134507   3.473   0.465   8.353 -1.0863  0.7738  1.2861
 4316TIP3    H234508   3.408   0.471   8.217  2.1942 -1.0732 -0.4857
 4317TIP3   OH234509   0.101   3.874   7.854 -0.3781 -0.1975 -0.1817
 4317TIP3    H134510   0.040   3.838   7.919 -0.7821 -0.6537 -0.8123
 4317TIP3    H234511   0.061   3.854   7.770  1.7035 -2.4816 -0.7308
 4318TIP3   OH234512   3.156   2.026   8.457 -0.4092  0.3329 -0.3103
 4318TIP3    H134513   3.175   2.078   8.535  0.6569 -0.9543  0.3091
 4318TIP3    H234514   3.234   2.033   8.403 -0.2629 -0.5815 -0.2335
 4319TIP3   OH234515   0.253   4.709   2.148  0.0456 -0.3093 -0.2279
 4319TIP3    H134516   0.170   4.691   2.192 -0.0596  0.7344  0.0165
 4319TIP3    H234517   0.239   4.793   2.104  1.3944  0.5317  0.8903
 4320TIP3   OH234518   4.482   3.524   0.501  0.1728  0.0244 -0.5255
 4320TIP3    H134519   4.496   3.612   0.467  1.3098 -0.7735 -2.2901
 4320TIP3    H234520   4.480   3.534   0.596  0.2394  1.9421 -0.6928
 4321TIP3   OH234521   5.571   3.255   2.164  0.5595  0.1942  0.0501
 4321TIP3    H134522   5.513   3.297   2.100 -1.7807 -0.8673  1.3595
 4321TIP3    H234523   5.655   3.248   2.119 -1.4848 -2.6539 -3.9036
 4322TIP3   OH234524   4.239   6.150   2.667 -0.1998 -0.5964  0.1605
 4322TIP3    H134525   4.175   6.099   2.618 -1.0244  0.6817 -0.1710
 4322TIP3    H234526   4.249   6.104   2.750 -3.1225  0.1751  1.0817
 4323TIP3   OH234527   0.983   6.132   6.707  0.5475  0.3030  0.0632
 4323TIP3    H134528   0.957   6.058   6.652 -2.0428  0.6695  0.6920
 4323TIP3    H234529   1.077   6.142   6.690  0.9374 -2.8587 -0.3444
 4324TIP3   OH234530   0.637   0.777   1.171 -0.0886  0.1132  0.0930
 4324TIP3    H134531   0.686   0.843   1.123 -1.3734 -0.9146 -2.9228
 4324TIP3    H234532   0.554   0.819   1.193 -0.6651 -0.2258 -1.2960
 4325TIP3   OH234533   0.376   2.351   1.147  0.6479  0.2142 -0.1352
 4325TIP3    H134534   0.281   2.356   1.137  0.8727  1.7787 -2.0186
 4325TIP3    H234535   0.403   2.279   1.089  0.8160  1.5682 -1.8240
 4326TIP3   OH234536   5.831   2.918   7.550  0.2315 -0.2137 -0.2627
 4326TIP3    H134537   5.769   2.991   7.558 -0.0308 -0.5786  1.5786
 4326TIP3    H234538   5.900   2.951   7.492 -0.6809  0.9189 -0.7350
 4327TIP3   OH234539   1.052   5.887   0.221  0.0747  0.0154 -0.2349
 4327TIP3    H134540   1.122   5.849   0.168  0.6057  0.6941 -0.0372
 4327TIP3    H234541   0.977   5.891   0.162  0.7846  1.2116 -1.1038
 4328TIP3   OH234542   1.496   0.946   6.037  0.6749  0.3931  0.2866
 4328TIP3    H134543   1.575   0.965   5.987 -0.3392 -2.2711 -2.6986
 4328TIP3    H234544   1.437   1.018   6.017  1.2930  0.8061 -0.0772
 4329TIP3   OH234545   1.619   3.576   7.072  0.1535 -0.2313 -0.0517
 4329TIP3    H134546   1.557   3.631   7.119 -0.7546 -1.0189 -0.3010
 4329TIP3    H234547   1.583   3.569   6.983  0.7660 -0.4339 -0.2939
 4330TIP3   OH234548   4.299   2.346   1.695 -0.3299  0.4378  0.0256
 4330TIP3    H134549   4.223   2.316   1.746 -0.3635  1.9361  0.9095
 4330TIP3    H234550   4.357   2.387   1.760  1.0576 -0.2956 -0.6999
 4331TIP3   OH234551   3.805   1.651   1.124  0.2206 -0.2048  0.1333
 4331TIP3    H134552   3.850   1.584   1.176  0.1337 -0.6665 -0.3691
 4331TIP3    H234553   3.828   1.630   1.034  0.2046  0.4654 -0.0294
 4332TIP3   OH234554   1.828   5.209   7.034  0.2429  0.1184  0.1722
 4332TIP3    H134555   1.752   5.227   7.090  1.4395  0.3772  1.8081
 4332TIP3    H234556   1.805   5.246   6.949 -1.3310  0.4441  0.7037
 4333TIP3   OH234557   4.639   3.797   8.628 -0.5770  0.1938  0.4269
 4333TIP3    H134558   4.669   3.877   8.671  0.6041  0.9244 -1.5936
 4333TIP3    H234559   4.550   3.816   8.600 -0.3256  0.8018  0.0147
 4334TIP3   OH234560   2.630   3.982   7.670  0.1904  0.3015 -0.0802
 4334TIP3    H134561   2.581   4.061   7.652 -0.8043 -0.5759 -1.3711
 4334TIP3    H234562   2.712   3.992   7.622 -0.9381 -0.4502 -2.2864
 4335TIP3   OH234563   6.065   4.556   0.341  0.3938  0.2340 -0.2020
 4335TIP3    H134564   6.123   4.551   0.265 -0.7958 -1.2133 -1.0545
 4335TIP3    H234565   6.026   4.469   0.347  0.3712  0.3405  2.0233
 4336TIP3   OH234566   6.077   3.488   1.140  0.2330 -0.1966  0.0947
 4336TIP3    H134567   6.046   3.410   1.185 -1.2076  0.8136  0.9019
 4336TIP3    H234568   6.020   3.497   1.063 -0.5129  0.7985  0.7417
 4337TIP3   OH234569   2.803   0.590   0.360 -0.2440 -0.2046  0.2144
 4337TIP3    H134570   2.893   0.565   0.382  0.0356  0.4826 -0.1230
 4337TIP3    H234571   2.760   0.601   0.445 -0.7238 -2.9242  0.4146
 4338TIP3   OH234572   5.219   4.568   1.720 -0.1080  0.1687  0.1900
 4338TIP3    H134573   5.249   4.572   1.629  0.5130  0.3741  0.3953
 4338TIP3    H234574   5.213   4.475   1.739  0.5996  0.1181  0.2000
 4339TIP3   OH234575   6.477   1.867   1.174 -0.3399  0.0355 -0.0440
 4339TIP3    H134576   6.494   1.959   1.158  0.2618  0.0116  0.4119
 4339TIP3    H234577   6.478   1.826   1.087 -2.2167  0.6897 -0.4235
 4340TIP3   OH234578   3.685   3.310   6.428 -0.1336 -0.0304 -0.1294
 4340TIP3    H134579   3.632   3.253   6.485 -1.3793 -0.0392 -1.2536
 4340TIP3    H234580   3.657   3.399   6.450  1.4494  0.1640  1.2665
 4341TIP3   OH234581   2.885   1.782   6.546 -0.3380  0.4910 -0.2483
 4341TIP3    H134582   2.813   1.741   6.498 -0.7197  0.8214  0.0342
 4341TIP3    H234583   2.864   1.876   6.544  0.3994  0.6566 -0.6865
 4342TIP3   OH234584   3.203   3.587   6.646 -0.1259  0.4191  0.7387
 4342TIP3    H134585   3.131   3.556   6.591 -0.6155  0.4903  1.3227
 4342TIP3    H234586   3.242   3.659   6.597 -0.4749  0.3980  0.4280
 4343TIP3   OH234587   1.011   4.332   8.047 -0.0242 -0.1757  0.3694
 4343TIP3    H134588   1.038   4.248   8.010 -0.2965 -1.1973  2.3250
 4343TIP3    H234589   1.020   4.320   8.142 -0.5097  1.8575  0.7136
 4344TIP3   OH234590   4.323   5.377   8.378 -0.3833 -0.0797  0.3640
 4344TIP3    H134591   4.265   5.453   8.387  0.4780  0.3423  3.7943
 4344TIP3    H234592   4.264   5.303   8.363 -1.2558  1.0770 -2.8980
 4345TIP3   OH234593   2.811   4.812   7.273  0.3467  0.3309  0.7489
 4345TIP3    H134594   2.753   4.863   7.215 -0.8986 -0.0719  1.6051
 4345TIP3    H234595   2.794   4.847   7.360  0.7924 -0.3548  1.1156
 4346TIP3   OH234596   4.978   1.276   0.899  0.0751 -0.1798 -0.5149
 4346TIP3    H134597   4.981   1.200   0.957 -1.2820  1.1725  1.4508
 4346TIP3    H234598   4.950   1.241   0.814 -1.1917 -1.7963  0.5115
 4347TIP3   OH234599   5.293   1.862   1.492 -0.6068 -0.1712 -0.2320
 4347TIP3    H134600   5.201   1.841   1.508 -0.4847  0.4671  1.5025
 4347TIP3    H234601   5.292   1.956   1.470 -0.3113  0.0049  0.4867
 4348TIP3   OH234602   1.975   0.329   0.288 -0.3041  0.2967  0.9582
 4348TIP3    H134603   1.927   0.378   0.355 -2.1116  3.3250 -2.1996
 4348TIP3    H234604   2.023   0.395   0.239 -0.4837 -1.4212 -1.7778
 4349TIP3   OH234605   0.240   4.854   0.933 -1.0825 -0.7469 -0.2132
 4349TIP3    H134606   0.301   4.898   0.874  0.0902 -2.2133 -0.1248
 4349TIP3    H234607   0.291   4.786   0.976 -1.8844  0.2116  2.4921
 4350TIP3   OH234608   0.619   1.766   0.633  0.0495 -0.1912 -0.0287
 4350TIP3    H134609   0.570   1.790   0.711 -0.1992 -0.5820 -0.0657
 4350TIP3    H234610   0.568   1.697   0.592  0.1229  0.0847 -0.5999
 4351TIP3   OH234611   2.910   4.388   1.930 -0.2135 -0.2865 -0.0229
 4351TIP3    H134612   2.896   4.465   1.875  2.5220 -1.1638 -2.2084
 4351TIP3    H234613   2.823   4.364   1.961 -1.0817  4.4987  2.1061
 4352TIP3   OH234614   5.061   5.917   0.878 -0.0777 -0.4656  1.4714
 4352TIP3    H134615   5.065   5.975   0.954  0.6420  3.1748 -1.0671
 4352TIP3    H234616   4.987   5.949   0.827  2.3227  0.6832 -1.6727
 4353TIP3   OH234617   1.439   4.586   6.493 -0.3659  0.3995 -0.4201
 4353TIP3    H134618   1.360   4.554   6.536 -0.2931  0.8425  0.0568
 4353TIP3    H234619   1.408   4.643   6.423 -0.4691  0.8896  0.0185
 4354TIP3   OH234620   0.855   3.316   7.846 -0.3636 -0.7249 -0.0521
 4354TIP3    H134621   0.869   3.222   7.857  2.1477 -0.9868 -3.5527
 4354TIP3    H234622   0.803   3.324   7.766 -0.6709  0.8653  0.2651
 4355TIP3   OH234623   0.541   5.904   6.905 -0.4095 -0.4619 -0.3285
 4355TIP3    H134624   0.584   5.819   6.904 -0.3844 -0.4616 -1.8657
 4355TIP3    H234625   0.584   5.953   6.835 -1.0436  0.4994 -0.0652
 4356TIP3   OH234626   6.655   3.682   7.451 -0.3829 -0.9087 -0.2500
 4356TIP3    H134627   6.689   3.596   7.473  0.4155 -1.1321 -2.1164
 4356TIP3    H234628   6.729   3.741   7.462 -0.4567 -0.7504 -0.5699
 4357TIP3   OH234629   1.001   6.637   0.338  0.2241 -0.3291  0.3488
 4357TIP3    H134630   0.956   6.566   0.292 -0.8808 -0.1861  1.1744
 4357TIP3    H234631   0.933   6.704   0.351  1.2394  0.9050 -0.4153
 4358TIP3   OH234632   4.481   4.977   8.269  0.2624 -0.6566  0.2492
 4358TIP3    H134633   4.450   4.913   8.333  1.6750 -0.3514  1.2991
 4358TIP3    H234634   4.419   4.972   8.197 -2.4824  0.1873  2.3529
 4359TIP3   OH234635   0.977   0.239   0.935 -0.1078  0.1144 -0.0367
 4359TIP3    H134636   0.982   0.163   0.993 -2.7172 -1.6673 -1.9227
 4359TIP3    H234637   1.045   0.224   0.869 -0.1365 -0.2096  0.0075
 4360TIP3   OH234638   4.357   1.491   1.565  0.0256  0.2266 -1.0331
 4360TIP3    H134639   4.393   1.564   1.515  1.3491 -0.4014 -1.0466
 4360TIP3    H234640   4.280   1.463   1.514  0.0706  0.9855 -1.5327
 4361TIP3   OH234641   4.909   6.757   0.764  0.4000  0.2230 -0.5136
 4361TIP3    H134642   4.876   6.748   0.675 -0.3877  1.2923 -0.3466
 4361TIP3    H234643   4.886   6.846   0.790  1.5352  0.2816  0.3961
 4362TIP3   OH234644   6.156   5.823   8.401  0.2790  0.1854 -0.6742
 4362TIP3    H134645   6.160   5.862   8.314  1.4558 -0.6384 -1.0066
 4362TIP3    H234646   6.247   5.812   8.427 -0.0453 -0.7535  0.1250
 4363TIP3   OH234647   2.009   6.379   0.272  0.4420 -0.0779  0.0413
 4363TIP3    H134648   2.061   6.396   0.351  0.9693  1.4249 -0.5974
 4363TIP3    H234649   1.918   6.384   0.303  0.6382 -0.6307  0.7543
 4364TIP3   OH234650   1.400   3.401   1.985 -0.1891  0.0624 -0.1246
 4364TIP3    H134651   1.398   3.402   2.080  0.0523  2.1523 -0.0951
 4364TIP3    H234652   1.478   3.451   1.962 -0.3628 -0.2295 -1.4345
 4365TIP3   OH234653   4.706   3.573   8.487  0.1382  0.1133 -0.0958
 4365TIP3    H134654   4.659   3.647   8.527  0.6678 -0.4206  1.6251
 4365TIP3    H234655   4.643   3.534   8.427 -0.6195  1.1460  0.0019
 4366TIP3   OH234656   0.132   5.985   7.939  0.6580 -0.1141  0.0870
 4366TIP3    H134657   0.161   6.055   7.880  1.3327  0.8831  1.5349
 4366TIP3    H234658   0.213   5.949   7.975  0.3108 -1.5539 -0.4893
 4367TIP3   OH234659   6.832   3.652   0.922 -0.1053 -0.2837 -0.0357
 4367TIP3    H134660   6.910   3.664   0.975 -1.2183  0.0394  1.5923
 4367TIP3    H234661   6.840   3.564   0.886  0.7611 -0.4425  0.5231
 4368TIP3   OH234662   2.336   0.850   1.968 -0.0979 -0.3536  0.0499
 4368TIP3    H134663   2.330   0.797   2.048  1.8821  0.2867  0.6971
 4368TIP3    H234664   2.280   0.925   1.984 -1.6909 -1.4438 -0.2264
 4369TIP3   OH234665   3.504   4.162   0.900  0.0868  0.3317 -0.7243
 4369TIP3    H134666   3.513   4.097   0.970  0.7666  1.4387  0.2503
 4369TIP3    H234667   3.564   4.233   0.925 -0.1795  1.0655 -2.0764
 4370TIP3   OH234668   3.549   5.776   8.547  0.2438  0.2330  0.4582
 4370TIP3    H134669   3.566   5.697   8.598 -0.2258 -1.5049 -1.9458
 4370TIP3    H234670   3.454   5.787   8.549  0.3558  1.1545  1.3343
 4371TIP3   OH234671   0.617   4.823   1.630 -0.0347 -0.0460 -0.5595
 4371TIP3    H134672   0.648   4.741   1.592 -1.1408 -0.6535 -0.1880
 4371TIP3    H234673   0.644   4.819   1.722 -2.1568 -1.1288  0.0769
 4372TIP3   OH234674   3.586   1.451   7.603  0.6302  0.3920  0.2678
 4372TIP3    H134675   3.630   1.452   7.517 -1.3784  0.7152 -0.8167
 4372TIP3    H234676   3.534   1.371   7.602  0.4918  0.4656  1.1390
 4373TIP3   OH234677   2.311   5.722   1.551  0.7883 -0.2540  0.6187
 4373TIP3    H134678   2.347   5.675   1.476 -0.6340  1.7231 -1.4149
 4373TIP3    H234679   2.268   5.654   1.603  0.7925 -1.5269 -0.9727
 4374TIP3   OH234680   3.094   3.629   8.088  0.2497 -0.2938  0.2089
 4374TIP3    H134681   3.057   3.699   8.141 -0.4872  0.2195 -0.9390
 4374TIP3    H234682   3.017   3.585   8.050  0.7380  0.4567 -1.8115
 4375TIP3   OH234683   0.548   3.593   7.424 -0.2366 -0.7233 -0.0872
 4375TIP3    H134684   0.491   3.617   7.351 -1.2036  0.0672  0.8872
 4375TIP3    H234685   0.534   3.499   7.436 -2.2594 -0.3633  0.8489
 4376TIP3   OH234686   0.992   1.330   1.576 -0.1103 -0.4496  0.1806
 4376TIP3    H134687   1.068   1.376   1.611 -1.3321  1.8007  0.0186
 4376TIP3    H234688   0.980   1.365   1.488 -2.1372  0.2998  0.6966
 4377TIP3   OH234689   4.796   3.083   6.902  0.0432 -0.5558  0.4942
 4377TIP3    H134690   4.816   3.140   6.828  1.9141 -1.8322 -0.0467
 4377TIP3    H234691   4.880   3.045   6.926 -0.5767 -0.4620  3.0680
 4378TIP3   OH234692   5.711   5.315   7.527 -0.1589  0.3753 -0.5701
 4378TIP3    H134693   5.740   5.406   7.532  0.1976  0.2278  0.1116
 4378TIP3    H234694   5.686   5.303   7.436 -2.5711  1.8804 -0.2081
 4379TIP3   OH234695   5.683   5.279   1.060  0.2859  0.3251 -0.4978
 4379TIP3    H134696   5.744   5.246   0.995  1.6163  2.7580 -0.6003
 4379TIP3    H234697   5.629   5.343   1.013 -1.6970 -0.9811 -0.1497
 4380TIP3   OH234698   2.374   4.426   8.344  0.5107 -0.3007  0.2912
 4380TIP3    H134699   2.312   4.471   8.402 -0.4808 -0.5175 -0.5667
 4380TIP3    H234700   2.459   4.465   8.366 -0.1039  0.9453  0.5891
 4381TIP3   OH234701   3.730   2.244   8.472 -0.5101 -0.1019  0.2203
 4381TIP3    H134702   3.817   2.249   8.432 -0.6890 -2.3099 -0.5744
 4381TIP3    H234703   3.695   2.332   8.464  0.3425  0.0804 -2.5404
 4382TIP3   OH234704   3.890   3.200   7.581  0.5650  0.2226  0.2510
 4382TIP3    H134705   3.948   3.252   7.638  2.6117 -0.6881 -0.9128
 4382TIP3    H234706   3.941   3.123   7.558 -0.5958  0.0570 -1.9971
 4383TIP3   OH234707   0.176   2.135   8.579  0.3425  0.2194 -0.3382
 4383TIP3    H134708   0.147   2.076   8.648 -0.8355  1.0437 -0.0858
 4383TIP3    H234709   0.116   2.119   8.507  1.9165 -1.0407 -1.4270
 4384TIP3   OH234710   3.702   5.336   8.183 -0.0494  0.2791 -0.5388
 4384TIP3    H134711   3.742   5.300   8.262 -1.1129  1.9716  0.8363
 4384TIP3    H234712   3.772   5.335   8.118  1.3071  0.2474  0.8620
 4385TIP3   OH234713   1.319   4.701   6.877  0.2491  0.1600  0.5243
 4385TIP3    H134714   1.372   4.762   6.826 -1.2518  0.3762 -0.8433
 4385TIP3    H234715   1.239   4.688   6.826 -0.4360 -1.2541  1.8299
 4386TIP3   OH234716   2.924   1.486   8.601  0.4980 -0.1756 -0.0261
 4386TIP3    H134717   2.893   1.437   8.677  1.7819 -0.5384  0.3005
 4386TIP3    H234718   2.926   1.577   8.630 -1.3027  0.0188 -0.4302
 4387TIP3   OH234719   3.301   4.296   8.072  0.5216 -0.5393  0.0120
 4387TIP3    H134720   3.217   4.340   8.083  0.0969 -1.5275  0.7850
 4387TIP3    H234721   3.366   4.363   8.097 -0.1166 -0.3432  1.2025
 4388TIP3   OH234722   4.804   2.288   7.343 -0.8445  0.0006  0.1672
 4388TIP3    H134723   4.726   2.250   7.305  0.2781 -1.2926 -0.9649
 4388TIP3    H234724   4.784   2.299   7.436 -1.3134 -3.2389  0.5434
 4389TIP3   OH234725   2.421   1.074   8.643  0.4737 -0.0952 -0.1976
 4389TIP3    H134726   2.434   0.999   8.585 -2.0892 -0.9408  0.2329
 4389TIP3    H234727   2.416   1.036   8.731  1.2267  0.8484  0.2747
 4390TIP3   OH234728   1.707   3.472   8.437 -0.4503  0.3040  0.3196
 4390TIP3    H134729   1.629   3.519   8.467  0.4835  2.2477 -0.1625
 4390TIP3    H234730   1.755   3.535   8.383  1.2891 -0.9409  0.3071
 4391TIP3   OH234731   2.004   4.338   7.754 -0.4348 -0.4880  0.8435
 4391TIP3    H134732   1.974   4.420   7.794  1.6491  1.9353 -2.1015
 4391TIP3    H234733   1.948   4.326   7.678  0.5829 -0.6490  0.1065
 4392TIP3   OH234734   3.749   1.058   0.293  0.3229 -0.0851 -0.1855
 4392TIP3    H134735   3.815   1.126   0.308  0.2096  1.0634 -3.8761
 4392TIP3    H234736   3.674   1.087   0.345  0.8646  1.7348 -0.3364
 4393TIP3   OH234737   6.340   0.101   8.431  0.0549 -0.3596 -0.1293
 4393TIP3    H134738   6.403   0.055   8.375  1.0478 -0.3823  0.9561
 4393TIP3    H234739   6.269   0.038   8.444  0.2542 -0.6906 -0.5947
 4394TIP3   OH234740   5.143   3.177   7.194  0.0066  1.0856 -0.0265
 4394TIP3    H134741   5.132   3.183   7.289  2.3636  3.5000  0.1930
 4394TIP3    H234742   5.055   3.193   7.159 -0.9303  0.0045  1.6998
 4395TIP3   OH234743   6.103   3.816   8.561  0.2852 -0.5109 -0.1456
 4395TIP3    H134744   6.103   3.737   8.507  1.0834 -1.0102  0.5527
 4395TIP3    H234745   6.149   3.790   8.641 -1.0320  0.1602  0.8617
 4396TIP3   OH234746   5.267   6.082   2.123  0.3837 -0.1341  1.0621
 4396TIP3    H134747   5.314   6.165   2.118 -1.1377  0.6930 -0.7388
 4396TIP3    H234748   5.336   6.015   2.118  1.4398  1.0162 -1.9530
 4397TIP3   OH234749   5.062   3.539   1.974  0.2247  0.0849  0.2338
 4397TIP3    H134750   5.140   3.545   2.029  0.7718  2.2369 -0.6705
 4397TIP3    H234751   5.018   3.623   1.984 -2.2102 -1.1619  0.9347
 4398TIP3   OH234752   4.255   0.877   0.695  0.6074 -0.1635 -0.3677
 4398TIP3    H134753   4.167   0.852   0.667  0.6507  0.9019 -1.5563
 4398TIP3    H234754   4.302   0.894   0.613  1.9094 -0.6429  0.2487
 4399TIP3   OH234755   5.644   5.766   8.269 -0.4152  0.1608  0.2847
 4399TIP3    H134756   5.720   5.823   8.258  0.6955 -1.3391 -0.3403
 4399TIP3    H234757   5.584   5.791   8.199  0.4359  0.0055 -0.5173
 4400TIP3   OH234758   4.291   0.026   8.256  0.1166 -0.2068  0.5253
 4400TIP3    H134759   4.263   0.101   8.309  1.6636 -0.1950  1.4102
 4400TIP3    H234760   4.281   0.054   8.166  1.2618  1.3506  0.8368
 4401TIP3   OH234761   2.854   5.297   8.266 -0.0423  0.2122 -0.6005
 4401TIP3    H134762   2.837   5.254   8.350  1.3197  0.9924  0.1133
 4401TIP3    H234763   2.814   5.383   8.274  1.1519  0.7516 -0.2494
 4402TIP3   OH234764   3.566   2.035   7.996  0.1801 -0.0215  0.0854
 4402TIP3    H134765   3.634   1.999   8.053  1.0245  0.4860 -0.5851
 4402TIP3    H234766   3.499   1.966   7.993  1.3531 -1.1968 -0.4587
 4403TIP3   OH234767   2.293   2.482   7.447  0.5870 -0.2965  0.5331
 4403TIP3    H134768   2.229   2.537   7.493 -0.9813  0.8131 -2.6938
 4403TIP3    H234769   2.376   2.531   7.454  0.4873 -0.3078  2.3016
 4404TIP3   OH234770   5.227   6.284   1.211  0.8572  0.3456  0.2955
 4404TIP3    H134771   5.295   6.343   1.178 -0.4087  2.1390  0.7159
 4404TIP3    H234772   5.239   6.284   1.306 -1.4238  3.1354  0.7497
 4405TIP3   OH234773   1.526   0.658   1.464 -0.3172  0.0906 -0.3629
 4405TIP3    H134774   1.541   0.752   1.456  1.8735 -0.2282 -0.4588
 4405TIP3    H234775   1.611   0.622   1.488 -1.2452 -1.8146  0.2350
 4406TIP3   OH234776   0.335   5.068   1.176  0.1641  0.5056 -0.1515
 4406TIP3    H134777   0.299   4.982   1.152  0.4852  0.1858  0.4678
 4406TIP3    H234778   0.425   5.066   1.143  0.4215  0.2888  0.5238
 4407TIP3   OH234779   4.795   0.419   7.901  0.3166 -0.0903 -0.0231
 4407TIP3    H134780   4.787   0.441   7.808  1.1722  1.6726  0.2791
 4407TIP3    H234781   4.739   0.483   7.946  1.2736  0.2382  0.7603
 4408TIP3   OH234782   1.741   0.932   8.065 -1.0595  0.0214 -0.1722
 4408TIP3    H134783   1.751   0.852   8.117 -1.4061  1.5391  2.3986
 4408TIP3    H234784   1.647   0.951   8.068 -0.7058  1.8709  1.5540
 4409TIP3   OH234785   6.513   0.189   7.462  0.1379  0.5636 -0.2303
 4409TIP3    H134786   6.552   0.223   7.543  0.4654  1.5509 -0.7787
 4409TIP3    H234787   6.521   0.262   7.400  1.5858 -0.7742 -1.7106
 4410TIP3   OH234788   0.712   5.389   6.962  0.5354 -0.1936  0.1095
 4410TIP3    H134789   0.752   5.472   6.986  0.3221  0.5095 -1.7958
 4410TIP3    H234790   0.782   5.324   6.971  0.9294  0.3204  0.7980
 4411TIP3   OH234791   6.455   0.219   0.597  0.5694 -0.9405 -0.4157
 4411TIP3    H134792   6.532   0.262   0.560  0.6170 -0.9139 -0.2887
 4411TIP3    H234793   6.416   0.286   0.654  0.9626 -1.2489  0.2254
 4412TIP3   OH234794   1.144   5.009   0.702  0.0379 -0.0051  0.2361
 4412TIP3    H134795   1.236   4.992   0.680  0.5963  2.6267  0.1890
 4412TIP3    H234796   1.095   4.941   0.655  1.9425 -1.7391  0.6099
 4413TIP3   OH234797   1.042   0.743   0.713 -0.1910 -0.3541  0.6311
 4413TIP3    H134798   1.023   0.837   0.712 -1.9918 -0.6766  0.0446
 4413TIP3    H234799   0.960   0.702   0.739 -0.3837 -1.9055 -1.9711
 4414TIP3   OH234800   4.318   6.400   7.359  0.3445  0.2430  0.2235
 4414TIP3    H134801   4.296   6.473   7.301  1.4032  2.3862  2.3544
 4414TIP3    H234802   4.411   6.384   7.342  0.3277 -0.0143  0.3736
 4415TIP3   OH234803   0.068   4.559   6.514  0.2051 -0.1729  0.3462
 4415TIP3    H134804   0.050   4.473   6.551  0.9334  0.2505  1.7724
 4415TIP3    H234805   0.164   4.567   6.518  0.2136  0.3638 -0.5931
 4416TIP3   OH234806   2.631   6.078   1.562  0.2034  0.0326  0.5231
 4416TIP3    H134807   2.640   6.119   1.648 -0.3692  1.8465 -0.2316
 4416TIP3    H234808   2.720   6.059   1.534  0.4335  0.0504  1.2360
 4417TIP3   OH234809   1.160   0.555   8.438  0.5291  0.3171 -0.1492
 4417TIP3    H134810   1.159   0.602   8.521 -0.0594  0.5762 -0.2970
 4417TIP3    H234811   1.250   0.524   8.429  0.7077  0.6693  0.3669
 4418TIP3   OH234812   4.882   2.627   7.972  0.6237 -0.2552 -0.3482
 4418TIP3    H134813   4.946   2.628   8.043  0.8116 -3.6045 -0.2743
 4418TIP3    H234814   4.898   2.544   7.927 -3.1430 -0.9622 -0.7800
 4419TIP3   OH234815   1.688   4.840   7.651  0.0839 -0.7131  0.4679
 4419TIP3    H134816   1.650   4.754   7.634  0.6689 -1.0092  0.6121
 4419TIP3    H234817   1.756   4.824   7.716  1.0690 -0.3581 -0.4360
 4420TIP3   OH234818   5.142   2.270   0.726  0.2063 -0.2263  0.4570
 4420TIP3    H134819   5.074   2.253   0.792  1.5431  0.8431  2.1684
 4420TIP3    H234820   5.187   2.348   0.757  1.7099 -0.4331 -1.0815
 4421TIP3   OH234821   5.551   0.338   8.652  0.1414  0.2420  0.2198
 4421TIP3    H134822   5.555   0.406   8.720  0.6562  1.8600 -1.3608
 4421TIP3    H234823   5.586   0.380   8.574 -0.0538 -1.7000 -0.9730
 4422TIP3   OH234824   5.412   5.836   1.414 -0.2791  0.7938 -0.1151
 4422TIP3    H134825   5.421   5.920   1.370 -2.3843  0.4385 -1.3283
 4422TIP3    H234826   5.318   5.820   1.420  0.0370 -1.2642  0.4995
 4423TIP3   OH234827   4.498   0.643   1.338  0.0181 -0.3464 -0.3663
 4423TIP3    H134828   4.497   0.612   1.428  2.6421 -0.9225 -0.4550
 4423TIP3    H234829   4.408   0.629   1.307 -0.7777 -0.7232  1.9340
 4424TIP3   OH234830   1.849   5.286   8.535 -0.3739 -0.3308 -0.3314
 4424TIP3    H134831   1.775   5.277   8.595  0.3074 -1.4794  0.3917
 4424TIP3    H234832   1.816   5.255   8.451 -1.0752  0.3908 -0.3277
 4425TIP3   OH234833   3.145   4.881   7.054 -0.0625  0.1027 -0.7207
 4425TIP3    H134834   3.141   4.846   6.965 -0.8275 -0.4233 -0.4950
 4425TIP3    H234835   3.238   4.898   7.069  0.0142  0.7795 -1.8278
 4426TIP3   OH234836   0.878   1.674   7.113 -0.6866  0.5635  0.2006
 4426TIP3    H134837   0.903   1.753   7.066 -0.8751  0.1803 -0.5551
 4426TIP3    H234838   0.826   1.706   7.187 -0.0609  1.1937  0.3783
 4427TIP3   OH234839   6.248   5.256   6.951 -0.2861 -0.4871 -0.4554
 4427TIP3    H134840   6.254   5.285   7.042  2.4928  0.6517 -0.9242
 4427TIP3    H234841   6.239   5.161   6.957  0.8227 -0.5305  1.0080
 4428TIP3   OH234842   4.672   6.602   7.252  0.3082 -0.0091 -0.5188
 4428TIP3    H134843   4.583   6.638   7.246  0.2415  0.0973  0.7441
 4428TIP3    H234844   4.696   6.614   7.344  1.4863 -0.3940 -0.7618
 4429TIP3   OH234845   4.150   3.230   0.706  0.6990 -0.1340  0.0881
 4429TIP3    H134846   4.072   3.176   0.713  0.1604  0.7279  1.2022
 4429TIP3    H234847   4.127   3.310   0.754  2.2775  0.1153  0.4723
 4430TIP3   OH234848   4.909   3.151   0.630  0.0809  0.5375 -0.7256
 4430TIP3    H134849   4.980   3.110   0.581  0.2310 -0.3879  0.2276
 4430TIP3    H234850   4.953   3.192   0.705 -0.3604  0.2125 -0.2881
 4431TIP3   OH234851   5.264   2.770   1.840  0.4094  0.2594 -0.3084
 4431TIP3    H134852   5.196   2.780   1.907  1.7922  0.4150  1.1199
 4431TIP3    H234853   5.311   2.691   1.865  1.0778  0.4353 -0.9860
 4432TIP3   OH234854   1.731   4.155   2.579  0.1661 -0.7403  0.4029
 4432TIP3    H134855   1.789   4.103   2.523  0.6309  0.5400 -0.3322
 4432TIP3    H234856   1.761   4.245   2.569 -2.0882  0.0241 -0.2146
 4433TIP3   OH234857   5.060   0.725   8.441  0.1484  0.6809 -0.3252
 4433TIP3    H134858   5.127   0.746   8.375 -0.7050  0.4765 -1.2953
 4433TIP3    H234859   5.070   0.791   8.509  1.4431  0.5497 -0.3694
 4434TIP3   OH234860   0.236   4.106   1.871 -0.4173  0.3871 -0.0931
 4434TIP3    H134861   0.147   4.113   1.903 -0.3695  0.3165  0.0535
 4434TIP3    H234862   0.266   4.020   1.899 -0.0564  0.6875  0.4792
 4435TIP3   OH234863   3.369   2.992   7.653 -0.3501  0.0807 -0.2995
 4435TIP3    H134864   3.444   2.937   7.677  0.7880  1.5006 -0.3780
 4435TIP3    H234865   3.382   3.011   7.560  0.0558  1.5346  0.0211
 4436TIP3   OH234866   3.084   6.587   8.305 -0.4892  0.0094 -0.1920
 4436TIP3    H134867   3.172   6.624   8.300 -0.3887 -0.4245 -2.0573
 4436TIP3    H234868   3.043   6.609   8.222 -0.6849 -3.3295 -1.0971
 4437TIP3   OH234869   1.921   0.544   0.455  0.0793  0.8749  0.0384
 4437TIP3    H134870   1.854   0.609   0.432 -0.5430 -0.1474 -1.2062
 4437TIP3    H234871   1.897   0.514   0.543  1.5759  3.7412  1.5601
 4438TIP3   OH234872   4.405   2.225   0.790  0.3188  0.6044  0.4392
 4438TIP3    H134873   4.440   2.192   0.707 -0.7727  0.4395  0.0161
 4438TIP3    H234874   4.473   2.207   0.854  0.5551 -0.7267 -0.1466
 4439TIP3   OH234875   5.714   5.424   0.103  0.6395  0.3085  0.4865
 4439TIP3    H134876   5.655   5.368   0.052 -0.4482  0.2946  1.6993
 4439TIP3    H234877   5.743   5.490   0.041  0.7270 -0.6924 -0.5859
 4440TIP3   OH234878   4.463   0.683   0.497 -0.0529  0.3764  0.1977
 4440TIP3    H134879   4.467   0.656   0.589  0.1091 -0.7101 -0.1219
 4440TIP3    H234880   4.392   0.632   0.459 -0.7065  1.4617 -0.0974
 4441TIP3   OH234881   6.849   4.903   6.899 -0.4545  0.1287  0.1502
 4441TIP3    H134882   6.804   4.840   6.957 -0.6478 -0.8355 -1.0087
 4441TIP3    H234883   6.780   4.941   6.846  0.0013 -1.1390 -1.4363
 4442TIP3   OH234884   2.248   1.377   0.891 -0.1223 -0.1569  0.3701
 4442TIP3    H134885   2.189   1.364   0.965  0.8922  2.5620  1.7880
 4442TIP3    H234886   2.201   1.437   0.834  0.4265  0.3552  0.4556
 4443TIP3   OH234887   5.285   0.820   0.951  0.4120 -0.0321 -0.0675
 4443TIP3    H134888   5.362   0.765   0.968  0.0292 -0.8742 -0.9440
 4443TIP3    H234889   5.321   0.906   0.929  1.0165  0.1741  1.6147
 4444TIP3   OH234890   4.084   4.344   0.553  0.5275 -0.8976  0.4016
 4444TIP3    H134891   4.010   4.361   0.495  0.7043 -2.0675 -0.1930
 4444TIP3    H234892   4.091   4.423   0.607  1.6690  1.1796 -2.5160
 4445TIP3   OH234893   3.157   6.327   8.245 -0.3005  0.0017 -0.2496
 4445TIP3    H134894   3.114   6.406   8.277  0.3090 -0.0101  0.6408
 4445TIP3    H234895   3.232   6.358   8.194 -0.4917  0.0036 -0.5320
 4446TIP3   OH234896   6.577   1.594   6.892  0.3701  0.8590  0.0095
 4446TIP3    H134897   6.500   1.582   6.836  0.4857  0.2751 -0.0226
 4446TIP3    H234898   6.605   1.506   6.914  1.0852  1.0658 -0.0453
 4447TIP3   OH234899   4.869   2.065   7.578 -0.1833 -0.5576 -0.2640
 4447TIP3    H134900   4.934   2.015   7.626 -0.7213 -1.1043 -0.0932
 4447TIP3    H234901   4.906   2.074   7.490  0.4794 -0.1670  0.0463
 4448TIP3   OH234902   5.591   4.961   1.584 -0.6496 -0.5808  0.2829
 4448TIP3    H134903   5.539   5.041   1.593  0.4608  0.1992  0.0140
 4448TIP3    H234904   5.529   4.890   1.597 -1.5933  0.3339  0.9011
 4449TIP3   OH234905   5.464   4.602   0.217  0.0767  0.0524 -0.0664
 4449TIP3    H134906   5.434   4.516   0.245  0.8716 -0.3557 -0.4412
 4449TIP3    H234907   5.559   4.596   0.217  0.1676  1.1415  0.5293
 4450TIP3   OH234908   5.044   0.011   8.677  0.1423  0.2639  0.4234
 4450TIP3    H134909   5.081   0.088   8.634  3.9046 -1.3130  0.4964
 4450TIP3    H234910   5.072   0.019   8.768 -0.9025 -0.3675  0.8133
 4451TIP3   OH234911   4.218   0.397   7.000  0.1428  0.2395 -0.3118
 4451TIP3    H134912   4.148   0.350   6.955  1.1451 -0.6966 -0.9271
 4451TIP3    H234913   4.224   0.355   7.086 -0.1946  0.4602 -0.1818
 4452TIP3   OH234914   5.393   2.682   6.807  0.0580 -0.1315  0.1490
 4452TIP3    H134915   5.379   2.753   6.744  1.1512  1.2829  1.4273
 4452TIP3    H234916   5.387   2.725   6.892 -0.4252 -1.8275  0.9987
 4453TIP3   OH234917   6.741   4.318   0.644 -0.3245 -0.3230 -0.0309
 4453TIP3    H134918   6.682   4.262   0.593  0.1166 -1.4939  0.7124
 4453TIP3    H234919   6.710   4.310   0.734  0.0109  0.2929  0.1450
 4454TIP3   OH234920   4.061   4.865   6.484 -0.2082  0.0256  0.1110
 4454TIP3    H134921   4.124   4.806   6.443 -0.4598  0.4071 -0.8519
 4454TIP3    H234922   4.113   4.940   6.511 -0.3195  0.6073 -1.2222
 4455TIP3   OH234923   0.660   3.197   2.058 -0.3346 -0.0521  0.1818
 4455TIP3    H134924   0.590   3.246   2.016  1.0067  1.6816 -0.1316
 4455TIP3    H234925   0.726   3.186   1.990  1.2326  1.5043  1.3542
 4456TIP3   OH234926   4.224   1.969   0.761  0.6111 -0.0456 -0.6118
 4456TIP3    H134927   4.148   1.938   0.710  1.5399 -0.4446 -1.8028
 4456TIP3    H234928   4.258   2.042   0.710 -0.6236  2.0579  1.3778
 4457TIP3   OH234929   2.248   1.737   7.475  0.0195 -0.3750  0.0779
 4457TIP3    H134930   2.226   1.774   7.389  0.1978 -1.8929 -0.6376
 4457TIP3    H234931   2.216   1.803   7.537 -0.3297  0.6433 -1.1271
 4458TIP3   OH234932   4.718   2.786   0.874  0.2423  0.1280 -0.4141
 4458TIP3    H134933   4.746   2.775   0.783  0.6167  1.5991 -0.4990
 4458TIP3    H234934   4.772   2.725   0.923  2.4469  1.6498 -0.8002
 4459TIP3   OH234935   1.661   2.011   7.480 -0.1277  0.3004 -0.0827
 4459TIP3    H134936   1.675   2.106   7.473  1.1294  0.2834  1.5551
 4459TIP3    H234937   1.747   1.973   7.463 -0.3445 -0.4812  0.5213
 4460TIP3   OH234938   2.390   5.717   7.227 -0.4238 -0.7971 -0.4105
 4460TIP3    H134939   2.428   5.779   7.164  0.0630 -1.4055 -0.7316
 4460TIP3    H234940   2.464   5.662   7.253 -0.9029 -1.4197 -0.3484
 4461TIP3   OH234941   1.711   3.787   1.427 -0.0794  0.2296 -0.0306
 4461TIP3    H134942   1.705   3.882   1.423 -2.0608  0.1049 -1.2803
 4461TIP3    H234943   1.629   3.759   1.468 -0.3551 -1.0036 -1.3499
 4462TIP3   OH234944   1.158   4.324   1.003 -0.3945 -0.6144 -0.4409
 4462TIP3    H134945   1.234   4.296   1.054  0.0162 -0.3123 -0.8865
 4462TIP3    H234946   1.192   4.387   0.940 -0.7917 -1.4507 -1.5206
 4463TIP3   OH234947   2.210   6.593   0.042 -0.6571 -0.2530  1.2007
 4463TIP3    H134948   2.304   6.603   0.030 -1.0357  0.5277 -2.1449
 4463TIP3    H234949   2.179   6.681   0.066 -0.8375  0.3449 -1.0157
 4464TIP3   OH234950   3.899   6.348   2.283 -0.4789  0.2636  0.2558
 4464TIP3    H134951   3.984   6.337   2.325 -0.2402  0.3410 -0.1998
 4464TIP3    H234952   3.844   6.280   2.320  0.5881 -1.7112 -1.5555
 4465TIP3   OH234953   6.441   2.749   6.799  0.0054  0.6395  0.4292
 4465TIP3    H134954   6.524   2.705   6.781 -0.4333  0.3346 -1.0324
 4465TIP3    H234955   6.425   2.802   6.721 -2.3347 -1.1872 -0.4957
 4466TIP3   OH234956   6.436   6.686   6.945 -0.2278  0.6340  0.3215
 4466TIP3    H134957   6.509   6.724   6.994  0.6823 -0.6648  0.0194
 4466TIP3    H234958   6.453   6.713   6.854  0.1789 -0.0848  0.1739
 4467TIP3   OH234959   5.834   4.048   1.175  0.2606  0.0304 -0.6576
 4467TIP3    H134960   5.887   4.032   1.253  1.6580 -0.8408 -1.7217
 4467TIP3    H234961   5.823   3.962   1.135 -2.0056  0.1843 -0.4974
 4468TIP3   OH234962   1.104   5.740   7.413  0.6517  0.1708 -0.3867
 4468TIP3    H134963   1.162   5.667   7.433  1.6395  1.4216  1.7240
 4468TIP3    H234964   1.155   5.796   7.355 -0.1679 -0.8025 -2.1453
 4469TIP3   OH234965   0.220   2.067   8.000  0.2805 -0.4905  0.1726
 4469TIP3    H134966   0.139   2.099   8.041 -0.3120 -2.4966  0.7294
 4469TIP3    H234967   0.254   2.141   7.951 -1.7241  0.5216  0.2154
 4470TIP3   OH234968   6.629   0.102   0.843 -0.3554  0.3777  0.4279
 4470TIP3    H134969   6.670   0.016   0.833 -0.4147  0.4069 -0.1482
 4470TIP3    H234970   6.544   0.092   0.800  0.3320  1.2011 -1.2044
 4471TIP3   OH234971   4.908   1.147   1.503  0.6755  0.4625  0.3409
 4471TIP3    H134972   4.819   1.141   1.468  1.0299 -0.5863 -0.4192
 4471TIP3    H234973   4.952   1.209   1.444  0.0047  2.3719  1.7494
 4472TIP3   OH234974   2.915   3.565   8.332 -0.2839  0.2653  0.0111
 4472TIP3    H134975   2.841   3.517   8.296 -1.5086  1.4122  0.8712
 4472TIP3    H234976   2.915   3.648   8.284  2.9864 -1.1679 -2.8251
 4473TIP3   OH234977   1.771   2.388   0.454 -0.0098  0.1580 -0.1134
 4473TIP3    H134978   1.786   2.382   0.548  0.0226 -2.1531 -0.2131
 4473TIP3    H234979   1.710   2.461   0.444  2.3449  2.5004  1.3487
 4474TIP3   OH234980   3.022   5.149   0.158 -0.3766 -0.0045  0.1449
 4474TIP3    H134981   3.024   5.225   0.101  0.9570  0.9958  1.4490
 4474TIP3    H234982   3.107   5.150   0.202 -1.2936 -0.7937  2.0415
 4475TIP3   OH234983   4.678   0.077   1.704  0.2679  0.3298  0.3820
 4475TIP3    H134984   4.737   0.014   1.662  0.4704 -0.1594  1.3713
 4475TIP3    H234985   4.625   0.023   1.764  0.3833  1.0876  1.1780
 4476TIP3   OH234986   0.229   0.891   7.324 -0.3282  0.6532 -0.5700
 4476TIP3    H134987   0.210   0.799   7.305 -1.2172  0.9479 -1.1350
 4476TIP3    H234988   0.244   0.930   7.238  0.6723  0.9179 -0.2908
 4477TIP3   OH234989   5.029   1.778   1.549  0.4081 -0.3225  0.3780
 4477TIP3    H134990   5.028   1.692   1.591 -0.4979 -1.7681 -2.3273
 4477TIP3    H234991   4.938   1.793   1.525  0.8970  0.2814 -1.2170
 4478TIP3   OH234992   0.817   5.731   7.946  0.2355  0.4224  0.0616
 4478TIP3    H134993   0.870   5.749   8.024  0.1698  0.0355  0.1973
 4478TIP3    H234994   0.875   5.680   7.889 -0.9107 -2.7899  1.5092
 4479TIP3   OH234995   5.210   3.098   1.288 -0.5791 -0.0890 -0.3083
 4479TIP3    H134996   5.228   3.159   1.359 -0.4733 -2.1913  1.5698
 4479TIP3    H234997   5.115   3.093   1.284 -0.6679  1.6866 -1.8941
 4480TIP3   OH234998   4.125   4.544   8.439 -0.0126 -0.2378 -0.1876
 4480TIP3    H134999   4.150   4.452   8.433  0.2343 -0.2934  1.2593
 4480TIP3    H235000   4.177   4.578   8.512 -1.3439  0.6150  0.4005
 4481TIP3   OH235001   5.998   2.540   7.300  0.4835  0.1510  0.0105
 4481TIP3    H135002   5.944   2.596   7.356  1.3291 -0.9431  2.0360
 4481TIP3    H235003   6.088   2.556   7.330  0.9626 -0.5603 -0.9784
 4482TIP3   OH235004   5.745   4.930   2.081 -0.5198 -0.4205  0.0517
 4482TIP3    H135005   5.707   5.009   2.043  2.5139  1.2074  0.1459
 4482TIP3    H235006   5.766   4.955   2.171  2.3045 -0.5632 -0.4745
 4483TIP3   OH235007   0.076   1.724   8.642  0.3571  0.0904  0.0232
 4483TIP3    H135008   0.126   1.644   8.656  0.8148  0.2296 -0.7213
 4483TIP3    H235009  -0.004   1.712   8.692  0.3843 -0.8672 -0.1450
 4484TIP3   OH235010   5.167   0.957   7.058 -0.2037 -0.8270  0.2530
 4484TIP3    H135011   5.210   0.974   7.142 -0.9530 -0.3113  0.5480
 4484TIP3    H235012   5.184   1.036   7.006 -1.1990 -0.3754  0.5650
 4485TIP3   OH235013   2.327   2.266   7.277 -0.3858  0.1307 -0.2759
 4485TIP3    H135014   2.422   2.255   7.278 -0.3453  0.4529  0.7796
 4485TIP3    H235015   2.313   2.357   7.306 -1.0339 -0.1851  0.4583
 4486TIP3   OH235016   5.978   3.448   1.460  0.4093  0.1622  0.0399
 4486TIP3    H135017   5.918   3.392   1.411 -0.0704  0.2319  0.5309
 4486TIP3    H235018   6.064   3.427   1.425 -0.0194  1.0383 -1.6214
 4487TIP3   OH235019   3.263   2.711   7.319 -0.1926 -0.6475 -0.1837
 4487TIP3    H135020   3.278   2.685   7.410  1.1915  0.1936 -0.1422
 4487TIP3    H235021   3.333   2.774   7.300 -1.9551  1.1529 -1.0325
 4488TIP3   OH235022   6.794   0.784   6.814  0.5887  0.7170 -0.2007
 4488TIP3    H135023   6.709   0.740   6.823  0.4844  1.2780  2.0169
 4488TIP3    H235024   6.857   0.724   6.853  0.9716  1.0018 -0.3762
 4489TIP3   OH235025   5.983   2.023   0.988  0.4910 -0.7440  0.8518
 4489TIP3    H135026   6.060   2.081   0.990  0.5798 -0.8656  1.0703
 4489TIP3    H235027   6.012   1.944   1.035  0.8817 -1.6027 -0.7768
 4490TIP3   OH235028   0.149   1.613   1.156  0.1612 -0.0988 -0.3543
 4490TIP3    H135029   0.143   1.704   1.128 -1.2068  0.7202  2.2311
 4490TIP3    H235030   0.086   1.566   1.100  0.1415  0.7428 -1.0445
 4491TIP3   OH235031   3.528   1.382   6.834  0.1794  0.2277 -0.1355
 4491TIP3    H135032   3.489   1.389   6.747  2.9303  0.7070 -1.4121
 4491TIP3    H235033   3.511   1.291   6.860 -0.7566  0.1001 -1.1028
 4492TIP3   OH235034   6.255   4.170   7.590  0.6836  0.0482  0.2620
 4492TIP3    H135035   6.218   4.088   7.623  0.7618  0.7629  2.2929
 4492TIP3    H235036   6.349   4.162   7.608  0.7697  0.3701 -0.0425
 4493TIP3   OH235037   2.156   2.037   2.707 -0.4213  0.0018  0.0756
 4493TIP3    H135038   2.200   1.953   2.697 -0.3833 -0.0465  0.6356
 4493TIP3    H235039   2.224   2.102   2.690 -0.0136 -0.0683  1.3870
 4494TIP3   OH235040   6.685   3.677   7.795 -0.2391  0.2086  0.3785
 4494TIP3    H135041   6.744   3.683   7.720 -0.9545 -1.2230 -0.3380
 4494TIP3    H235042   6.601   3.711   7.762 -0.9694 -1.8185  0.0300
 4495TIP3   OH235043   1.912   1.625   0.252  0.0585 -0.0506 -0.2686
 4495TIP3    H135044   1.946   1.698   0.303 -1.6803  0.7295 -0.1513
 4495TIP3    H235045   1.990   1.578   0.222  1.3814  3.1041 -2.2618
 4496TIP3   OH235046   2.662   0.060   6.755 -0.2134 -0.0244  0.3092
 4496TIP3    H135047   2.731   0.004   6.719 -0.0477 -0.3240  1.0775
 4496TIP3    H235048   2.702   0.147   6.757 -0.1400 -0.0472  0.0025
 4497TIP3   OH235049   3.228   1.521   8.532 -0.0958 -0.1802  0.3250
 4497TIP3    H135050   3.203   1.610   8.556 -2.0647 -0.5281 -0.2605
 4497TIP3    H235051   3.145   1.476   8.516  0.8937 -1.1876 -2.7040
 4498TIP3   OH235052   3.081   5.861   7.709 -0.4811  0.3486 -0.1368
 4498TIP3    H135053   3.018   5.882   7.640 -1.5084 -2.1802 -0.0773
 4498TIP3    H235054   3.159   5.831   7.662 -0.7730 -0.2961 -0.2182
 4499TIP3   OH235055   5.464   4.616   6.540  0.5455  0.1228 -1.1092
 4499TIP3    H135056   5.392   4.671   6.510  0.6743  1.0149  0.1361
 4499TIP3    H235057   5.541   4.651   6.494  0.8047  1.7264  0.4603
 4500TIP3   OH235058   3.543   1.077   6.912  0.2603  0.3752 -0.0393
 4500TIP3    H135059   3.603   1.113   6.977  0.5654 -2.0050  1.1084
 4500TIP3    H235060   3.464   1.055   6.962  0.5621 -1.6603 -0.3688
 4501TIP3   OH235061   0.717   2.214   0.165  0.1574  0.0860  0.6330
 4501TIP3    H135062   0.623   2.203   0.174  0.3340 -1.3467  1.0286
 4501TIP3    H235063   0.755   2.161   0.236  1.2724  0.1190  0.0914
 4502TIP3   OH235064   1.644   3.062   8.037 -0.3578 -0.1907 -0.5962
 4502TIP3    H135065   1.700   3.139   8.025  1.1887 -1.4486 -1.9772
 4502TIP3    H235066   1.619   3.037   7.948 -1.0557 -1.1370 -0.1569
 4503TIP3   OH235067   0.165   1.671   7.539 -0.0907  0.0106 -0.2104
 4503TIP3    H135068   0.132   1.640   7.624 -2.3653  0.9828 -0.6588
 4503TIP3    H235069   0.212   1.596   7.503 -0.8184 -1.0986  1.0382
 4504TIP3   OH235070   3.120   1.569   7.265  0.0364  0.9713  0.2246
 4504TIP3    H135071   3.035   1.524   7.265 -0.2088  1.4190  1.4063
 4504TIP3    H235072   3.174   1.517   7.324  0.4462  0.9751 -0.1395
 4505TIP3   OH235073   1.860   6.581   1.345 -0.0172 -0.0176  0.0488
 4505TIP3    H135074   1.952   6.559   1.335  0.0873  0.0017  0.8638
 4505TIP3    H235075   1.860   6.661   1.397 -0.5005 -0.3799  0.6211
 4506TIP3   OH235076   1.049   1.150   6.427  0.1000 -0.0549  0.4145
 4506TIP3    H135077   1.043   1.245   6.412  0.0602  0.1587  1.6793
 4506TIP3    H235078   1.014   1.138   6.515  1.5668 -1.0551  0.8824
 4507TIP3   OH235079   3.486   1.275   8.644 -0.2323  0.1112 -0.2682
 4507TIP3    H135080   3.532   1.196   8.672 -1.5139 -0.2800  0.8686
 4507TIP3    H235081   3.551   1.344   8.648  0.3483 -0.4739  0.9986
 4508TIP3   OH235082   0.301   1.002   0.245 -0.2915  0.1771 -0.2777
 4508TIP3    H135083   0.382   0.967   0.281  0.5268  0.8792 -1.3441
 4508TIP3    H235084   0.328   1.046   0.164 -1.7291  0.4926 -0.6223
 4509TIP3   OH235085   2.511   5.006   8.657 -0.1202  0.0417  0.0169
 4509TIP3    H135086   2.446   4.938   8.636  1.2010 -1.0336 -0.7118
 4509TIP3    H235087   2.582   4.960   8.701  0.6168  1.0338 -0.0893
 4510TIP3   OH235088   6.692   0.182   6.955 -0.3379  0.5068 -0.2352
 4510TIP3    H135089   6.683   0.098   6.998 -1.5793  1.0387  0.6030
 4510TIP3    H235090   6.780   0.181   6.916 -0.3823 -1.1860 -0.3259
 4511TIP3   OH235091   3.036   5.369   8.691  0.4587 -0.2113  0.2338
 4511TIP3    H135092   3.121   5.401   8.661  0.2292 -0.0442 -0.2490
 4511TIP3    H235093   2.981   5.448   8.694  0.1930 -0.3937  0.1049
 4512TIP3   OH235094   0.304   5.597   0.799  0.0630  0.1043 -0.0832
 4512TIP3    H135095   0.315   5.514   0.844  0.7018  0.9971  1.5178
 4512TIP3    H235096   0.278   5.658   0.869  1.0063  1.5360 -0.9373
 4513TIP3   OH235097   5.241   5.030   0.496 -0.2816  0.3890 -0.2226
 4513TIP3    H135098   5.275   4.968   0.561 -0.7650  0.1055 -0.2379
 4513TIP3    H235099   5.259   5.116   0.533 -0.1616  0.2334  0.0868
 4514TIP3   OH235100   2.451   5.485   0.141 -0.3101 -0.2854  0.1437
 4514TIP3    H135101   2.470   5.524   0.056  0.3951  0.0611  0.4476
 4514TIP3    H235102   2.373   5.432   0.126  0.5066 -1.2171 -1.0199
 4515TIP3   OH235103   5.764   0.945   7.405  0.5746 -0.3380 -0.2610
 4515TIP3    H135104   5.782   0.943   7.311  3.0312 -0.9709  0.1295
 4515TIP3    H235105   5.748   0.853   7.428 -4.3919  0.1663 -0.6172
 4516TIP3   OH235106   1.922   1.864   7.505  0.0700 -0.3419  0.4176
 4516TIP3    H135107   1.924   1.770   7.525  1.0051 -0.0744  1.7300
 4516TIP3    H235108   1.983   1.876   7.433 -0.2496 -0.7710  0.0721
 4517TIP3   OH235109   6.305   2.772   7.108  0.3597 -0.0903 -0.1566
 4517TIP3    H135110   6.263   2.857   7.126 -0.3717 -0.9601  2.6507
 4517TIP3    H235111   6.240   2.724   7.058 -1.6335 -0.9024  2.9534
 4518TIP3   OH235112   2.427   6.660   7.522 -0.3838  0.7295  0.0922
 4518TIP3    H135113   2.409   6.599   7.594 -2.0129  1.3458  0.2497
 4518TIP3    H235114   2.487   6.612   7.465  2.6463  0.9447  2.8166
 4519TIP3   OH235115   1.727   4.718   0.046  0.2547 -0.4720 -0.2423
 4519TIP3    H135116   1.695   4.792  -0.006 -1.8745 -0.8093  0.4853
 4519TIP3    H235117   1.806   4.752   0.089 -1.2893  1.8562  1.0052
 4520TIP3   OH235118   3.274   5.769   8.593  0.6682  0.3281  0.0030
 4520TIP3    H135119   3.195   5.822   8.607  0.6594 -0.0810  1.6967
 4520TIP3    H235120   3.242   5.679   8.592  1.1017  0.1621  0.6811
 4521TIP3   OH235121   6.612   2.855   1.087  0.4007  0.1235  0.3816
 4521TIP3    H135122   6.649   2.784   1.035 -1.2049  0.0840 -0.7955
 4521TIP3    H235123   6.669   2.862   1.163  2.0796 -0.7015 -0.7455
 4522TIP3   OH235124   2.928   1.414   6.361 -0.3721  0.6672 -1.0540
 4522TIP3    H135125   2.847   1.366   6.378 -0.9144  0.9552 -2.6602
 4522TIP3    H235126   2.900   1.499   6.327  0.5991  1.1947 -0.5999
 4523TIP3   OH235127   5.762   1.329   6.913 -0.1508 -0.3413  0.3226
 4523TIP3    H135128   5.830   1.395   6.901 -2.6321  2.2258 -0.7145
 4523TIP3    H235129   5.753   1.289   6.826  1.2954 -2.1103  0.9297
 4524TIP3   OH235130   5.980   0.924   1.722  0.7030 -0.4821 -0.6297
 4524TIP3    H135131   6.023   0.926   1.807  1.4898 -0.1180 -1.0260
 4524TIP3    H235132   6.043   0.964   1.662 -0.7273  1.3324 -0.9887
 4525TIP3   OH235133   2.733   1.782   1.641  0.4672 -0.0825 -0.1761
 4525TIP3    H135134   2.713   1.690   1.622  0.8885 -0.0086 -1.0152
 4525TIP3    H235135   2.812   1.779   1.695  1.5966 -0.1775 -1.7439
 4526TIP3   OH235136   5.830   0.869   1.292 -0.1748  0.1554  0.2357
 4526TIP3    H135137   5.896   0.882   1.225 -0.4314  3.2813  0.4165
 4526TIP3    H235138   5.865   0.800   1.348  1.2365 -0.7013 -1.6050
 4527TIP3   OH235139   3.680   6.430   0.452  0.1138 -0.5808  0.2308
 4527TIP3    H135140   3.687   6.378   0.372 -0.4126  0.1738 -0.3146
 4527TIP3    H235141   3.684   6.521   0.423  0.6945 -0.2977  1.1433
 4528TIP3   OH235142   0.041   1.789   2.122 -0.0145 -0.0352 -0.1549
 4528TIP3    H135143  -0.037   1.741   2.095  0.5541  0.1918 -2.3119
 4528TIP3    H235144   0.013   1.880   2.127  0.0116 -0.0063 -0.5338
 4529TIP3   OH235145   6.582   6.253   0.435  0.2869  0.6124 -0.4893
 4529TIP3    H135146   6.521   6.322   0.408 -0.9679  0.4439  1.7100
 4529TIP3    H235147   6.526   6.180   0.459  1.4169  0.0316  0.4613
 4530TIP3   OH235148   1.655   1.100   7.774  0.0196  0.2044 -0.1181
 4530TIP3    H135149   1.748   1.120   7.779 -0.1638  1.0171  0.2628
 4530TIP3    H235150   1.612   1.183   7.795 -0.7904  0.0238 -1.0154
 4531TIP3   OH235151   1.960   6.735   7.238 -0.2261  0.6868 -0.2345
 4531TIP3    H135152   2.030   6.784   7.280 -2.0458  1.2941  2.2902
 4531TIP3    H235153   1.881   6.759   7.285 -2.1349 -0.3049 -2.6672
 4532TIP3   OH235154   3.883   2.236   0.374  0.1475  0.2454  0.1533
 4532TIP3    H135155   3.899   2.216   0.466  1.2100 -0.5079 -0.1753
 4532TIP3    H235156   3.804   2.289   0.375 -0.8786 -1.2187  1.3453
 4533TIP3   OH235157   6.327   2.181   6.664 -0.0910 -0.5090  0.2641
 4533TIP3    H135158   6.412   2.153   6.631 -0.4675 -1.7372  0.2559
 4533TIP3    H235159   6.264   2.147   6.599 -0.7306 -1.6387  1.4155
 4534TIP3   OH235160   1.766   6.147   7.731 -0.0614  0.8356 -0.2457
 4534TIP3    H135161   1.771   6.240   7.753 -1.6732  0.8101  0.3458
 4534TIP3    H235162   1.717   6.108   7.802 -1.7286  0.0039 -1.7843
 4535TIP3   OH235163   5.981   1.381   0.280  0.6431  0.4110 -0.2823
 4535TIP3    H135164   5.921   1.418   0.215 -0.9347  0.5874  1.1760
 4535TIP3    H235165   5.965   1.433   0.359  0.1628 -1.7390  1.1230
 4536TIP3   OH235166   4.042   5.836   8.169  0.3295 -0.6533  0.1445
 4536TIP3    H135167   4.028   5.742   8.157 -1.1673 -0.3547 -0.5944
 4536TIP3    H235168   4.034   5.850   8.263  1.4074 -1.3663  0.3675
 4537TIP3   OH235169   3.831   4.412   0.099  0.3759  0.1030  0.4878
 4537TIP3    H135170   3.776   4.490   0.103 -0.5276 -0.5311  1.5151
 4537TIP3    H235171   3.905   4.436   0.044 -0.5146  1.2698 -0.2408
 4538TIP3   OH235172   3.081   1.944   1.241 -0.0938  0.1690  0.6859
 4538TIP3    H135173   3.024   1.957   1.317 -0.6786 -0.6529  0.4057
 4538TIP3    H235174   3.111   2.032   1.219  0.3452  0.3969  2.0536
 4539TIP3   OH235175   4.114   2.203   1.848 -0.0044  0.6762  0.2143
 4539TIP3    H135176   4.038   2.146   1.835 -1.6331  2.8696 -0.4036
 4539TIP3    H235177   4.114   2.222   1.942 -1.9603  2.8016 -0.1185
 4540TIP3   OH235178   1.994   2.188   1.708 -0.0208  0.0077  0.1981
 4540TIP3    H135179   2.048   2.248   1.657 -1.1493 -0.0601 -1.1362
 4540TIP3    H235180   2.020   2.205   1.799  2.0137  0.1662 -0.3486
 4541TIP3   OH235181   3.296   4.854   7.937 -0.0147  0.2631  0.5049
 4541TIP3    H135182   3.322   4.850   8.029 -0.9580  0.6483  0.7988
 4541TIP3    H235183   3.201   4.843   7.938 -0.1378  1.1115 -0.3587
 4542TIP3   OH235184   2.770   1.567   8.251 -0.3188  0.3718 -0.2575
 4542TIP3    H135185   2.811   1.643   8.294  0.8608  1.1049 -2.5389
 4542TIP3    H235186   2.798   1.492   8.304  1.5341  1.1709 -0.0146
 4543TIP3   OH235187   3.249   0.168   0.929  0.3286  0.3959  0.6336
 4543TIP3    H135188   3.263   0.074   0.930 -2.4555 -0.1173  0.4760
 4543TIP3    H235189   3.239   0.192   1.021  2.1749  0.8123  0.7703
 4544TIP3   OH235190   3.332   2.664   6.745 -0.2432  0.8362 -0.3803
 4544TIP3    H135191   3.342   2.617   6.828  0.9860  1.9849  0.1752
 4544TIP3    H235192   3.418   2.706   6.731 -0.3744  0.5581 -2.3105
 4545TIP3   OH235193   4.172   6.324   2.312 -0.0950  0.2809  0.1169
 4545TIP3    H135194   4.157   6.353   2.223  0.8662 -0.1826 -0.2180
 4545TIP3    H235195   4.231   6.249   2.303 -0.3958 -0.0967  1.1074
 4546TIP3   OH235196   6.680   5.906   8.183  0.3602  0.1493  0.0009
 4546TIP3    H135197   6.689   5.925   8.276  1.2362 -0.6434  0.0877
 4546TIP3    H235198   6.711   5.985   8.139 -1.8799  1.3085  0.3515
 4547TIP3   OH235199   2.998   4.961   7.664 -0.0191  0.2706 -0.2454
 4547TIP3    H135200   2.913   4.933   7.629  0.2635  0.5405 -1.1891
 4547TIP3    H235201   3.058   4.891   7.639  0.1444  0.3547 -0.0878
 4548TIP3   OH235202   5.150   0.103   0.209 -0.2247  0.1615  0.0850
 4548TIP3    H135203   5.137   0.164   0.282 -0.5613  0.6149 -0.3469
 4548TIP3    H235204   5.240   0.117   0.182 -0.4305  0.7867 -0.2925
 4549TIP3   OH235205   4.800   1.537   2.170 -0.1607  0.3698  0.4432
 4549TIP3    H135206   4.722   1.580   2.204  0.3290  0.6850  1.1962
 4549TIP3    H235207   4.767   1.468   2.112 -1.0331 -0.4671  1.9000
 4550TIP3   OH235208   0.812   0.182   6.660 -1.3997 -0.5106  0.4181
 4550TIP3    H135209   0.808   0.087   6.657 -0.2536 -0.5560 -0.0728
 4550TIP3    H235210   0.819   0.209   6.569 -0.9082  0.0031  0.6032
 4551TIP3   OH235211   1.529   2.686   0.673  0.0860  0.5229  0.3590
 4551TIP3    H135212   1.533   2.697   0.578  0.9335  1.1932  0.4571
 4551TIP3    H235213   1.599   2.743   0.707  0.4298 -0.4474  1.3312
 4552TIP3   OH235214   2.589   3.189   8.039 -0.1886 -0.5592 -0.7724
 4552TIP3    H135215   2.617   3.114   7.987  2.3533  0.1077 -0.4843
 4552TIP3    H235216   2.653   3.195   8.110 -1.9563  0.2273  0.8549
 4553TIP3   OH235217   4.510   0.474   0.806  0.0887 -0.3187  0.0153
 4553TIP3    H135218   4.474   0.482   0.894 -0.7944 -1.0413 -0.2640
 4553TIP3    H235219   4.536   0.563   0.782  0.1383 -0.0807  0.9123
 4554TIP3   OH235220   2.248   1.921   1.934 -0.1614 -0.1423  0.8396
 4554TIP3    H135221   2.243   1.850   1.870 -0.6476  1.3824 -0.9284
 4554TIP3    H235222   2.158   1.936   1.961 -0.3905  1.2618 -0.5668
 4555TIP3   OH235223   2.690   2.169   7.022 -0.5066  0.0462  0.0883
 4555TIP3    H135224   2.707   2.115   7.099 -1.1454  1.5891  1.3774
 4555TIP3    H235225   2.759   2.144   6.960  0.0989 -1.1564  1.1909
 4556TIP3   OH235226   3.647   1.233   1.034 -0.2141  0.6013 -0.2134
 4556TIP3    H135227   3.648   1.317   0.989  1.4346  0.5903 -0.2742
 4556TIP3    H235228   3.740   1.211   1.045 -0.5449  0.0898  2.2032
 4557TIP3   OH235229   4.505   5.625   0.924  0.4551 -0.6366 -0.0393
 4557TIP3    H135230   4.591   5.628   0.965  0.2089 -1.9487  0.6177
 4557TIP3    H235231   4.457   5.558   0.973 -0.8663 -0.0920 -0.5380
 4558TIP3   OH235232   6.362   4.559   2.472  0.5435 -0.4663  0.0622
 4558TIP3    H135233   6.313   4.554   2.390  1.1548 -0.9260 -0.2823
 4558TIP3    H235234   6.451   4.582   2.445  1.0531 -1.8694  0.4727
 4559TIP3   OH235235   1.043   0.531   0.195 -0.4346 -0.4761  0.5902
 4559TIP3    H135236   0.955   0.537   0.234 -0.8438 -3.2397  0.3217
 4559TIP3    H235237   1.045   0.444   0.155  1.8280  0.2242 -0.9961
 4560TIP3   OH235238   1.820   5.634   2.280 -0.5575  0.3831  0.5225
 4560TIP3    H135239   1.804   5.727   2.299 -2.4753  0.5644 -1.6279
 4560TIP3    H235240   1.762   5.614   2.207  1.2935 -2.0080 -0.4219
 4561TIP3   OH235241   2.138   5.329   2.035  0.1346 -0.0197 -0.2802
 4561TIP3    H135242   2.083   5.364   2.105  0.5388  0.3295 -0.1353
 4561TIP3    H235243   2.076   5.291   1.973 -0.1834 -1.9186  1.0920
 4562TIP3   OH235244   4.517   1.386   2.063  0.5346  0.0502 -0.1329
 4562TIP3    H135245   4.499   1.406   2.155 -0.1237  1.3325 -0.5188
 4562TIP3    H235246   4.441   1.420   2.015 -0.3199 -2.7229 -0.9651
 4563TIP3   OH235247   1.553   6.654   1.393 -0.2022 -0.5521  0.2536
 4563TIP3    H135248   1.637   6.695   1.414 -0.6059  0.5963 -0.3020
 4563TIP3    H235249   1.497   6.675   1.468 -0.7936  1.0947 -0.5928
 4564TIP3   OH235250   5.933   5.487   7.121 -0.0605 -0.0193  0.2596
 4564TIP3    H135251   5.882   5.421   7.074 -0.6757  0.2810  0.4903
 4564TIP3    H235252   5.933   5.456   7.212  1.4655 -0.8114  0.0265
 4565TIP3   OH235253   0.776   1.751   0.903 -0.3906  0.2847 -0.4362
 4565TIP3    H135254   0.701   1.699   0.875 -0.8663  0.9046 -0.3400
 4565TIP3    H235255   0.850   1.712   0.858 -0.8205 -0.1216 -0.8063
 4566TIP3   OH235256   4.186   4.276   8.394 -0.0907 -0.3575 -0.2340
 4566TIP3    H135257   4.281   4.269   8.383  0.3873  0.1133  2.8333
 4566TIP3    H235258   4.155   4.185   8.391  0.5255 -0.5643 -0.5741
 4567TIP3   OH235259   3.038   5.497   0.892 -0.3102 -1.1431  0.0861
 4567TIP3    H135260   2.963   5.542   0.930 -2.7173 -1.8758 -3.3616
 4567TIP3    H235261   3.096   5.568   0.862 -0.4631 -0.5459  1.1465
 4568TIP3   OH235262   5.531   4.845   8.134 -0.2321  0.0074  0.0142
 4568TIP3    H135263   5.522   4.919   8.074 -1.6072 -0.1192  0.0410
 4568TIP3    H235264   5.486   4.873   8.214  0.6004 -0.2649  0.5937
 4569TIP3   OH235265   6.563   2.461   7.896 -0.1956  0.0948 -1.1515
 4569TIP3    H135266   6.498   2.517   7.854 -1.4121  0.1875  0.7286
 4569TIP3    H235267   6.567   2.382   7.842 -0.4658  0.8629 -2.3212
 4570TIP3   OH235268   1.807   2.970   6.813 -0.3556 -0.5243 -0.3730
 4570TIP3    H135269   1.743   3.000   6.878  0.6048  0.7129  0.0557
 4570TIP3    H235270   1.765   2.986   6.729  0.1713  2.5172 -0.2050
 4571TIP3   OH235271   0.001   5.689   7.000  0.0449  0.3032  0.3765
 4571TIP3    H135272   0.003   5.597   6.975 -0.9446  0.7644 -1.5301
 4571TIP3    H235273   0.069   5.730   6.948  0.3548  0.7112  1.0820
 4572TIP3   OH235274   1.601   4.714   0.370 -0.5964  0.3113 -0.0309
 4572TIP3    H135275   1.567   4.686   0.455  2.4534  1.4719  1.7865
 4572TIP3    H235276   1.618   4.633   0.322 -0.4714 -0.5136  1.3454
 4573TIP3   OH235277   1.044   1.467   7.077 -0.3549 -0.0429  0.3594
 4573TIP3    H135278   1.115   1.523   7.045 -0.9305  0.0602 -0.7657
 4573TIP3    H235279   0.983   1.528   7.119  0.6155 -0.2269  2.1308
 4574TIP3   OH235280   4.309   0.948   7.906  0.3887 -0.4794 -0.2322
 4574TIP3    H135281   4.296   0.971   7.998 -0.8046 -1.0847 -0.2252
 4574TIP3    H235282   4.404   0.944   7.895  0.5465 -0.4329  0.9843
 4575TIP3   OH235283   1.189   2.929   1.663 -0.4216 -0.1666  0.1885
 4575TIP3    H135284   1.183   2.844   1.706 -0.1802  0.0854  0.7337
 4575TIP3    H235285   1.239   2.983   1.724  0.3452  0.0717 -0.6266
 4576TIP3   OH235286   3.543   0.049   0.011 -0.6159  0.0306  0.4667
 4576TIP3    H135287   3.541   0.029   0.105  1.1045 -1.9264  0.1497
 4576TIP3    H235288   3.515  -0.033  -0.031  0.6453  0.2043 -0.7677
 4577TIP3   OH235289   1.388   0.547   0.911 -0.9189  0.3676 -0.0166
 4577TIP3    H135290   1.302   0.555   0.870 -0.4638 -2.3089 -1.7512
 4577TIP3    H235291   1.370   0.540   1.004 -2.7290 -1.2732 -0.4220
 4578TIP3   OH235292   1.926   1.181   7.840  0.1049  0.4895  0.0012
 4578TIP3    H135293   1.949   1.091   7.817 -1.0794 -0.1270  1.0630
 4578TIP3    H235294   2.003   1.215   7.885  0.2525 -0.3099  0.3821
 4579TIP3   OH235295   4.810   2.530   0.377  0.2390 -0.1190 -0.1083
 4579TIP3    H135296   4.755   2.591   0.327 -0.2265  0.0143  0.5696
 4579TIP3    H235297   4.754   2.455   0.395 -0.0596  0.4404  1.4485
 4580TIP3   OH235298   0.173   0.316   0.237 -0.0111 -0.1606 -0.4388
 4580TIP3    H135299   0.175   0.339   0.144 -3.1357 -0.5381 -0.6871
 4580TIP3    H235300   0.084   0.287   0.253  0.7575 -1.2677  2.4491
 4581TIP3   OH235301   3.820   5.236   7.452 -0.0184 -0.0438 -0.0011
 4581TIP3    H135302   3.864   5.253   7.368  2.1127  1.5276  1.3025
 4581TIP3    H235303   3.735   5.280   7.444 -0.1648 -0.5503 -1.5669
 4582TIP3   OH235304   2.206   0.905   0.913 -0.0230 -0.4283 -0.5953
 4582TIP3    H135305   2.118   0.870   0.930  0.1962 -1.6861 -1.8257
 4582TIP3    H235306   2.256   0.882   0.991 -0.1813 -1.9663 -0.9080
 4583TIP3   OH235307   5.139   0.076   8.337 -0.2427  0.3503 -0.0352
 4583TIP3    H135308   5.101  -0.007   8.367  0.8094 -0.0443  0.2411
 4583TIP3    H235309   5.233   0.060   8.333  0.2886  2.2049  2.3564
 4584TIP3   OH235310   1.908   0.090   0.429 -0.1496 -0.0230  0.2153
 4584TIP3    H135311   1.887   0.168   0.378 -2.3571 -0.7689 -0.1367
 4584TIP3    H235312   1.852   0.096   0.506  0.7057 -0.5617  0.8931
 4585TIP3   OH235313   0.973   1.731   0.708 -0.8406 -0.4297 -0.0477
 4585TIP3    H135314   1.038   1.719   0.639 -0.3253  0.2505  0.3088
 4585TIP3    H235315   0.920   1.806   0.680 -0.1762  0.3061  0.6195
 4586TIP3   OH235316   0.241   0.637   8.460 -0.2390  0.0652 -0.2586
 4586TIP3    H135317   0.239   0.571   8.529  1.3753  0.1309 -0.1116
 4586TIP3    H235318   0.187   0.602   8.390 -1.0463 -0.4779  0.6232
 4587TIP3   OH235319   2.876   6.773   7.060  0.1446  0.0034  0.2767
 4587TIP3    H135320   2.861   6.857   7.103 -1.2590 -0.5677  0.9464
 4587TIP3    H235321   2.863   6.708   7.129 -0.8720 -0.8660 -0.6989
 4588TIP3   OH235322   3.757   6.438   1.988  0.1999 -0.4508 -0.2545
 4588TIP3    H135323   3.662   6.437   1.979  0.1981  1.1363 -0.8293
 4588TIP3    H235324   3.773   6.428   2.082 -0.6307  0.9350  0.0588
 4589TIP3   OH235325   2.862   3.755   7.172  0.8660  0.4565 -0.8128
 4589TIP3    H135326   2.915   3.815   7.120  1.2899  0.6370 -0.1832
 4589TIP3    H235327   2.904   3.753   7.258  0.2838  0.0253 -0.5238
 4590TIP3   OH235328   5.995   0.076   7.256 -0.3418  0.0155 -0.0120
 4590TIP3    H135329   6.064   0.104   7.197 -0.4790 -1.6336 -0.9908
 4590TIP3    H235330   6.037   0.069   7.341 -0.1121  2.2822  0.1284
 4591TIP3   OH235331   2.513   6.759   1.455 -0.2399 -0.3468 -0.1335
 4591TIP3    H135332   2.438   6.709   1.489  0.9577 -2.3402 -0.3303
 4591TIP3    H235333   2.563   6.697   1.403  1.5052  0.9724 -0.1312
 4592TIP3   OH235334   2.675   6.585   7.909 -0.1960 -0.2798 -0.0889
 4592TIP3    H135335   2.597   6.601   7.961  1.2111  0.1469  1.9820
 4592TIP3    H235336   2.683   6.663   7.854 -0.7459  0.0507  0.2914
 4593TIP3   OH235337   1.164   2.902   2.079 -0.0321 -0.0804 -0.2587
 4593TIP3    H135338   1.087   2.863   2.119 -1.7000  1.2614 -1.9619
 4593TIP3    H235339   1.211   2.944   2.152 -1.0780 -0.6552  0.7634
 4594TIP3   OH235340   2.068   4.539   1.345 -0.1254  0.4390  0.3219
 4594TIP3    H135341   2.064   4.567   1.437 -1.8197  2.1727 -0.2087
 4594TIP3    H235342   2.133   4.596   1.305  2.3726 -1.8543  0.8303
 4595TIP3   OH235343   3.492   5.126   7.541 -0.1083  0.5457 -0.1514
 4595TIP3    H135344   3.572   5.088   7.576 -0.3974  0.3974  0.3491
 4595TIP3    H235345   3.424   5.062   7.561  0.2200 -1.4604 -4.2662
 4596TIP3   OH235346   3.387   3.482   0.160  0.0953  0.0657  0.0160
 4596TIP3    H135347   3.396   3.565   0.207 -1.0231 -0.1035  0.5471
 4596TIP3    H235348   3.420   3.501   0.072 -0.9860  1.3328 -0.1450
 4597TIP3   OH235349   4.977   3.583   1.157  0.1015 -0.7239  0.0571
 4597TIP3    H135350   4.886   3.603   1.135 -0.2556 -1.3104  0.9639
 4597TIP3    H235351   5.017   3.668   1.172 -0.9572 -0.5336  2.1478
 4598TIP3   OH235352   0.192   5.018   0.304 -0.1035 -0.1112 -0.3687
 4598TIP3    H135353   0.262   5.052   0.248  0.3677  0.0372  0.3037
 4598TIP3    H235354   0.113   5.061   0.272  0.6127  2.6009  1.1767
 4599TIP3   OH235355   4.774   4.121   0.891 -0.0552 -0.1546  0.2181
 4599TIP3    H135356   4.745   4.209   0.914  0.0612 -0.1808  0.4573
 4599TIP3    H235357   4.801   4.081   0.973  0.9512 -0.0296 -0.0376
 4600TIP3   OH235358   6.486   5.874   0.282  0.2959  0.7369  0.1802
 4600TIP3    H135359   6.461   5.788   0.316 -0.2965 -0.5868 -3.1523
 4600TIP3    H235360   6.485   5.932   0.358 -0.3645 -1.9512  2.3778
 4601TIP3   OH235361   0.548   1.212   7.632 -0.6838 -0.2883 -0.1742
 4601TIP3    H135362   0.516   1.124   7.648  1.2214 -0.9158  0.4702
 4601TIP3    H235363   0.578   1.210   7.541  0.2791 -0.6426  0.1353
 4602TIP3   OH235364   4.969   4.830   7.595 -0.0255 -0.4808 -0.3721
 4602TIP3    H135365   5.034   4.815   7.526  0.4275 -2.9375  0.4795
 4602TIP3    H235366   4.997   4.912   7.636  1.9637 -0.9291 -0.6996
 4603TIP3   OH235367   0.510   3.995   1.178  0.4283 -0.1148 -0.2002
 4603TIP3    H135368   0.441   4.044   1.134 -0.0156 -0.0213  0.5851
 4603TIP3    H235369   0.552   4.059   1.236 -0.0924 -0.6248  0.7627
 4604TIP3   OH235370   0.439   3.897   1.635 -0.2004  0.2309 -0.1800
 4604TIP3    H135371   0.479   3.976   1.669  0.1176  0.0550 -0.1383
 4604TIP3    H235372   0.492   3.825   1.672  2.1664  0.0818 -3.4107
 4605TIP3   OH235373   6.378   6.595   1.171 -0.0557  0.0652  0.2307
 4605TIP3    H135374   6.332   6.520   1.134  0.8479 -0.3097 -0.1713
 4605TIP3    H235375   6.439   6.622   1.103  0.7089  0.1979  0.9480
 4606TIP3   OH235376   6.716   5.330   0.654  0.5444  0.5389 -0.3695
 4606TIP3    H135377   6.756   5.279   0.725  0.9036 -1.0981 -1.6691
 4606TIP3    H235378   6.655   5.389   0.698 -1.2035 -2.1886  1.1996
 4607TIP3   OH235379   6.150   4.517   1.551 -0.8967 -0.5895 -0.3176
 4607TIP3    H135380   6.109   4.435   1.524  0.1097 -1.1684 -0.1215
 4607TIP3    H235381   6.170   4.505   1.644 -0.7768 -0.1070 -0.2780
 4608TIP3   OH235382   2.158   0.506   0.090 -0.3811  0.2021  0.1456
 4608TIP3    H135383   2.234   0.551   0.052  0.4247  0.5815  2.0945
 4608TIP3    H235384   2.151   0.424   0.041  2.2851 -0.5791  0.9244
 4609TIP3   OH235385   1.067   3.566   2.444  0.0087  0.2264 -0.2888
 4609TIP3    H135386   1.039   3.542   2.356 -0.0360  0.3381 -0.3057
 4609TIP3    H235387   1.143   3.623   2.430  0.1491  0.0495 -0.2483
 4610TIP3   OH235388   4.906   2.988   7.511 -0.6103 -0.2127  0.4045
 4610TIP3    H135389   4.902   2.893   7.521 -0.3921 -0.2225  0.4106
 4610TIP3    H235390   4.828   3.021   7.556 -0.7314 -0.3944  0.3270
 4611TIP3   OH235391   6.572   6.660   0.985  0.4060  0.1848 -0.6811
 4611TIP3    H135392   6.644   6.713   1.019  0.0674  0.8069 -0.9232
 4611TIP3    H235393   6.589   6.655   0.891 -0.4581  1.2629 -0.9048
 4612TIP3   OH235394   5.216   0.394   7.809  0.2206 -0.0742 -0.4213
 4612TIP3    H135395   5.295   0.386   7.863 -0.7333 -0.4727  0.9720
 4612TIP3    H235396   5.228   0.328   7.741  1.3517  0.2794 -0.5940
 4613TIP3   OH235397   3.391   2.531   1.102 -0.3487  0.6092  0.7873
 4613TIP3    H135398   3.478   2.556   1.134 -0.0338 -0.9678  1.2649
 4613TIP3    H235399   3.407   2.496   1.015 -0.6842  1.4091  0.3981
 4614TIP3   OH235400   3.926   5.287   6.779  0.6131  0.1345  0.3147
 4614TIP3    H135401   4.004   5.342   6.773  0.3106  0.5961  0.6084
 4614TIP3    H235402   3.855   5.343   6.748  0.1506  0.2315  1.5073
 4615TIP3   OH235403   4.631   0.042   8.457  0.1064  0.2030 -0.2473
 4615TIP3    H135404   4.609   0.034   8.365  0.8864  1.8029 -0.6044
 4615TIP3    H235405   4.688  -0.034   8.475 -1.8807 -1.4170 -0.4354
 4616TIP3   OH235406   1.489   1.294   0.639 -0.4203 -0.5318  0.3933
 4616TIP3    H135407   1.499   1.213   0.590  2.9608 -1.4774  2.3412
 4616TIP3    H235408   1.503   1.363   0.575 -0.9919 -1.5170 -0.8407
 4617TIP3   OH235409   1.852   6.483   7.838 -0.5355  0.2797 -0.1131
 4617TIP3    H135410   1.838   6.516   7.927  3.3023  1.3571  0.2738
 4617TIP3    H235411   1.800   6.542   7.783 -1.8468  0.4906  1.2636
 4618TIP3   OH235412   6.576   6.328   6.607 -1.1594 -0.1264  0.0194
 4618TIP3    H135413   6.553   6.236   6.614 -0.0439 -0.3347  1.4358
 4618TIP3    H235414   6.650   6.330   6.547 -0.4045 -0.3292  0.9165
 4619TIP3   OH235415   1.674   1.044   1.139  0.0427 -0.0321 -0.0625
 4619TIP3    H135416   1.579   1.057   1.139 -0.0050 -0.3813 -0.3572
 4619TIP3    H235417   1.707   1.111   1.199 -0.5301 -0.8702  1.2452
 4620TIP3   OH235418   2.716   1.508   1.592 -0.0559 -0.3475  0.0702
 4620TIP3    H135419   2.746   1.485   1.504 -0.1302 -0.8987  0.1850
 4620TIP3    H235420   2.661   1.434   1.619 -0.0172 -0.1930  0.5839
 4621TIP3   OH235421   5.789   4.508   2.385 -0.6373 -0.3006 -0.0464
 4621TIP3    H135422   5.838   4.516   2.466 -0.7784  1.2237 -0.0943
 4621TIP3    H235423   5.812   4.586   2.334 -1.6510 -0.5051 -0.8641
 4622TIP3   OH235424   4.054   1.568   0.515  0.3511  0.3747 -0.6645
 4622TIP3    H135425   4.071   1.508   0.587  2.5324 -1.9958 -2.9099
 4622TIP3    H235426   3.959   1.571   0.507 -0.0563  1.7000  2.8926
 4623TIP3   OH235427   4.952   3.872   0.523 -0.6946 -0.0004 -0.2915
 4623TIP3    H135428   5.033   3.883   0.473 -0.4132 -2.1060 -0.3884
 4623TIP3    H235429   4.981   3.863   0.613 -0.5677 -2.7033 -0.5288
 4624TIP3   OH235430   0.689   4.578   1.022  0.4768 -0.6618  0.2188
 4624TIP3    H135431   0.750   4.505   1.031  1.5155  0.1258 -0.2233
 4624TIP3    H235432   0.638   4.577   1.103  0.2512 -2.0469  0.0988
 4625TIP3   OH235433   1.340   3.815   8.293  0.0816  0.2968 -0.2673
 4625TIP3    H135434   1.285   3.749   8.251 -0.2411  0.2269  0.2662
 4625TIP3    H235435   1.279   3.873   8.339  0.4419  0.2701  0.2566
 4626TIP3   OH235436   5.106   1.547   7.701 -0.1039 -0.6568 -0.2157
 4626TIP3    H135437   5.095   1.596   7.619  1.6061  1.2559  0.6033
 4626TIP3    H235438   5.198   1.519   7.700 -0.7531 -3.0409 -0.1551
 4627TIP3   OH235439   5.218   4.306   1.804 -0.5355 -0.0629 -0.2043
 4627TIP3    H135440   5.175   4.255   1.735  0.4210 -2.6377  0.9851
 4627TIP3    H235441   5.167   4.287   1.883  2.3105 -2.8768  1.1635
 4628TIP3   OH235442   3.595   5.983   8.263 -0.2310  0.2202 -0.0800
 4628TIP3    H135443   3.664   5.932   8.305 -0.0212  0.7577  0.2400
 4628TIP3    H235444   3.599   5.958   8.171  1.6052  1.5482 -0.4273
 4629TIP3   OH235445   4.225   2.311   6.632  0.1323  0.0007  0.1944
 4629TIP3    H135446   4.219   2.406   6.640  2.6414  0.2273  0.1447
 4629TIP3    H235447   4.162   2.277   6.696 -2.5001  1.5964 -1.3301
 4630TIP3   OH235448   2.986   6.790   1.589  0.2778  0.1512 -0.2654
 4630TIP3    H135449   3.080   6.788   1.609  0.1030 -0.2095  0.5653
 4630TIP3    H235450   2.979   6.750   1.503  0.6930 -1.7767  0.5441
 4631TIP3   OH235451   5.019   2.758   2.003 -0.5027 -0.6257 -0.7496
 4631TIP3    H135452   5.035   2.849   2.029 -0.4172 -0.1703 -2.3325
 4631TIP3    H235453   4.937   2.761   1.954  0.5409 -1.0145 -2.6108
 4632TIP3   OH235454   0.177   0.688   2.364  0.8693 -0.3686  0.0981
 4632TIP3    H135455   0.246   0.722   2.419  1.6137 -0.5733 -0.6862
 4632TIP3    H235456   0.183   0.738   2.283  2.1205 -2.4089 -1.1625
 4633TIP3   OH235457   1.220   3.795   0.775  0.1576 -0.2298 -0.4872
 4633TIP3    H135458   1.208   3.883   0.811  1.7304  0.2200 -0.9730
 4633TIP3    H235459   1.251   3.742   0.849  0.9959  0.0933 -0.5943
 4634TIP3   OH235460   2.394   0.996   7.232  0.7330  0.1861 -0.4639
 4634TIP3    H135461   2.388   0.933   7.160 -1.5720  0.6564 -0.7776
 4634TIP3    H235462   2.362   0.948   7.309  1.5429  0.2035 -0.1015
 4635TIP3   OH235463   3.499   2.904   7.351 -0.3745 -0.0893  0.2000
 4635TIP3    H135464   3.458   2.988   7.331  0.3043 -0.0547 -1.1184
 4635TIP3    H235465   3.549   2.921   7.431  2.1838  1.6518 -1.6174
 4636TIP3   OH235466   3.312   2.392   1.341 -0.0428  0.5746  0.2705
 4636TIP3    H135467   3.336   2.451   1.270  1.3512  1.9855  1.8313
 4636TIP3    H235468   3.238   2.436   1.384  0.1228  0.5126  0.6211
 4637TIP3   OH235469   0.501   5.265   7.442 -0.0268  0.2415 -0.2905
 4637TIP3    H135470   0.556   5.343   7.454 -2.0161  1.8009 -0.9005
 4637TIP3    H235471   0.504   5.248   7.348  1.6263 -1.4501 -0.0119
 4638TIP3   OH235472   5.023   1.632   6.384 -0.5439  0.4266 -0.2102
 4638TIP3    H135473   5.035   1.604   6.474 -0.6978 -1.0417 -0.6303
 4638TIP3    H235474   5.063   1.719   6.380  0.4160  0.0594  1.0048
 4639TIP3   OH235475   6.261   6.736   0.018 -0.3415 -0.5414 -0.6702
 4639TIP3    H135476   6.344   6.781   0.002 -0.3742 -0.1390  0.2638
 4639TIP3    H235477   6.209   6.755  -0.060 -0.9023  2.3229  0.2798
 4640TIP3   OH235478   0.991   3.382   8.479  0.1955 -0.2357  0.0652
 4640TIP3    H135479   0.909   3.334   8.470 -0.1525  0.4417 -0.5589
 4640TIP3    H235480   1.033   3.345   8.556  0.4822 -2.3125 -1.0104
 4641TIP3   OH235481   4.558   1.040   7.650  0.5170 -0.1457  0.1131
 4641TIP3    H135482   4.466   1.014   7.657 -0.3488  2.6793  0.4299
 4641TIP3    H235483   4.579   1.027   7.557 -0.6309  0.3869 -0.2460
 4642TIP3   OH235484   3.345   0.705   8.523 -0.0728 -0.4190  0.6242
 4642TIP3    H135485   3.351   0.781   8.465  1.0955 -2.3075 -1.9569
 4642TIP3    H235486   3.252   0.683   8.524 -0.4457  1.0338  1.5093
 4643TIP3   OH235487   0.555   4.340   1.951  0.1570  0.1544 -0.0226
 4643TIP3    H135488   0.597   4.298   2.026  0.1157 -0.2760 -0.2371
 4643TIP3    H235489   0.526   4.425   1.985 -0.4519 -0.2974  0.6334
 4644TIP3   OH235490   1.800   5.557   0.355  0.1255 -0.0575  0.6942
 4644TIP3    H135491   1.809   5.559   0.259  0.4831  4.2182  0.6192
 4644TIP3    H235492   1.706   5.564   0.371  0.1766  1.2089  0.5527
 4645TIP3   OH235493   6.784   6.723   7.629 -0.2577 -0.1742  0.1076
 4645TIP3    H135494   6.781   6.727   7.534  0.1912  1.0007  0.1311
 4645TIP3    H235495   6.813   6.634   7.649 -0.0820 -0.3357 -0.8543
 4646TIP3   OH235496   3.014   2.550   6.044  0.3255 -0.6742  0.0582
 4646TIP3    H135497   2.959   2.475   6.067 -1.1587  0.3167 -0.1214
 4646TIP3    H235498   3.083   2.551   6.111 -1.1741 -0.6473  1.6873
 4647TIP3   OH235499   5.711   1.925   1.202 -0.0522  0.7907 -0.2502
 4647TIP3    H135500   5.782   1.861   1.205 -0.4805  0.1934 -1.8811
 4647TIP3    H235501   5.748   2.004   1.242  1.1382  0.1346 -0.0075
 4648TIP3   OH235502   4.470   0.243   7.035  0.4112 -0.1400  0.0618
 4648TIP3    H135503   4.547   0.242   6.979  1.1927 -2.3415  1.0640
 4648TIP3    H235504   4.396   0.238   6.975  1.1335 -0.2226 -0.8435
 4649TIP3   OH235505   5.912   1.731   7.160 -0.1541 -0.1522  0.1924
 4649TIP3    H135506   5.994   1.703   7.201 -0.2644 -0.5234  0.1554
 4649TIP3    H235507   5.919   1.827   7.158 -0.1001 -0.1291  0.9774
 4650TIP3   OH235508   4.999   6.020   7.768 -0.7756  0.4591 -0.2108
 4650TIP3    H135509   5.009   6.034   7.862  1.9999  0.5076 -0.4357
 4650TIP3    H235510   4.991   6.108   7.731  2.3127  0.8051 -0.3128
 4651TIP3   OH235511   4.344   1.417   7.069 -0.1515 -0.6553 -0.2204
 4651TIP3    H135512   4.387   1.491   7.112 -0.7548 -0.9094  0.8638
 4651TIP3    H235513   4.415   1.357   7.046  0.1754 -0.6696  0.7668
 4652TIP3   OH235514   5.207   1.456   6.282  0.4127  0.3384  0.1462
 4652TIP3    H135515   5.125   1.504   6.292  1.0152  1.5049 -0.3789
 4652TIP3    H235516   5.193   1.401   6.205  0.0543  0.3753  0.1831
 4653TIP3   OH235517   5.882   2.033   0.017  0.0279 -0.2692  0.8235
 4653TIP3    H135518   5.920   2.109  -0.027 -0.6170  0.3165  1.2727
 4653TIP3    H235519   5.861   2.064   0.105  2.9828 -1.8813  2.2614
 4654TIP3   OH235520   5.670   2.496   1.063 -0.3283  0.5562  0.5672
 4654TIP3    H135521   5.689   2.453   0.980 -2.3977 -0.6387  0.6411
 4654TIP3    H235522   5.688   2.589   1.047  1.6525  0.0485 -0.4257
 4655TIP3   OH235523   4.415   5.358   0.059 -0.6698 -0.2553 -0.4891
 4655TIP3    H135524   4.414   5.309   0.141  0.7457  0.9257  0.3004
 4655TIP3    H235525   4.346   5.319   0.006 -0.9806 -1.6796  0.8940
 4656TIP3   OH235526   4.301   2.756   0.332  0.0756  0.2311 -0.0310
 4656TIP3    H135527   4.319   2.778   0.424  0.8361 -1.8593  0.3651
 4656TIP3    H235528   4.371   2.801   0.283 -0.3686  1.4078  0.3713
 4657TIP3   OH235529   1.944   3.268   0.659  0.3219  0.0215 -0.3098
 4657TIP3    H135530   2.010   3.273   0.591  0.6738 -0.6599 -0.0183
 4657TIP3    H235531   1.989   3.233   0.735  0.6279  3.1954  1.1497
 4658TIP3   OH235532   3.110   5.394   1.685  0.1009  0.0990  0.0103
 4658TIP3    H135533   3.015   5.384   1.681  0.3357 -5.7936  0.7165
 4658TIP3    H235534   3.141   5.370   1.598  1.1496  3.7042 -0.7972
 4659TIP3   OH235535   2.800   4.661   7.612  0.3164  0.0768 -0.0565
 4659TIP3    H135536   2.862   4.592   7.587 -0.5373 -0.9299  0.5231
 4659TIP3    H235537   2.727   4.614   7.653 -1.7868  1.0417 -2.4926
 4660TIP3   OH235538   5.359   1.994   1.844 -0.4787 -0.4564 -0.2811
 4660TIP3    H135539   5.316   2.046   1.776 -2.3268  2.4074  2.7564
 4660TIP3    H235540   5.287   1.946   1.886  0.1447 -0.0333  1.3409
 4661TIP3   OH235541   5.722   6.025   1.741 -0.1391  0.4812 -1.0352
 4661TIP3    H135542   5.705   6.048   1.832 -2.1096 -2.4744 -0.5311
 4661TIP3    H235543   5.662   6.080   1.691  1.9460  3.1778 -0.8276
 4662TIP3   OH235544   6.062   2.328   0.217 -0.1406  0.3360 -0.3608
 4662TIP3    H135545   6.105   2.404   0.178 -0.1788 -0.1479 -1.3873
 4662TIP3    H235546   5.992   2.306   0.155 -0.7769  0.0721  0.4319
 4663TIP3   OH235547   2.924   5.094   1.340  0.4455 -0.3052  0.5428
 4663TIP3    H135548   2.886   5.094   1.428  0.1951 -0.2191  0.4375
 4663TIP3    H235549   2.931   5.002   1.316  2.3644 -0.4434  1.4295
 4664TIP3   OH235550   1.765   4.090   0.588  0.7877  0.0007 -0.1918
 4664TIP3    H135551   1.702   4.066   0.520  0.1924  0.7352  0.0889
 4664TIP3    H235552   1.729   4.169   0.628  2.1656  0.7753 -0.3989
 4665TIP3   OH235553   6.117   2.666   0.796  0.4233  0.4910  0.6962
 4665TIP3    H135554   6.093   2.757   0.777 -0.3812  0.5224  1.7401
 4665TIP3    H235555   6.213   2.667   0.797  0.6004  0.4755 -3.0608
 4666TIP3   OH235556   3.233   1.479   0.663 -0.3896  0.0212 -0.0204
 4666TIP3    H135557   3.187   1.414   0.609 -1.1391 -0.2184  0.8678
 4666TIP3    H235558   3.195   1.563   0.638  0.3086  0.0863 -0.8981
 4667TIP3   OH235559   0.189   0.784   1.102  0.2220 -0.0212  0.2607
 4667TIP3    H135560   0.137   0.728   1.160  0.3255 -0.9796 -0.5386
 4667TIP3    H235561   0.259   0.817   1.158 -0.2704 -0.0918  0.9333
 4668TIP3   OH235562   5.762   5.279   7.038  0.2304  0.2384  0.7691
 4668TIP3    H135563   5.676   5.241   7.026  0.0795  0.5390  0.8813
 4668TIP3    H235564   5.808   5.219   7.096  1.0869 -1.4190 -1.4807
 4669TIP3   OH235565   0.418   2.720   6.983 -0.0988 -0.2231  0.0256
 4669TIP3    H135566   0.481   2.657   6.947 -0.7367 -2.2334  2.1502
 4669TIP3    H235567   0.470   2.799   6.999  1.5704 -1.3227  0.3777
 4670TIP3   OH235568   1.030   6.358   1.190  0.7862 -0.2876  0.1037
 4670TIP3    H135569   1.116   6.320   1.206  0.6192 -0.0849  1.6285
 4670TIP3    H235570   1.003   6.322   1.106  1.5129 -1.9042  0.5187
 4671TIP3   OH235571   6.382   0.662   0.736 -0.2512 -0.3515  0.3737
 4671TIP3    H135572   6.384   0.569   0.758  0.5224 -0.7423 -1.2366
 4671TIP3    H235573   6.352   0.665   0.646  1.1530  0.8432 -0.0929
 4672TIP3   OH235574   4.532   4.567   8.011  0.2223 -0.5864  0.0031
 4672TIP3    H135575   4.597   4.637   8.018 -2.1296  1.6052  1.9544
 4672TIP3    H235576   4.496   4.577   7.922  1.2523 -0.6052 -0.4235
 4673TIP3   OH235577   4.653   5.103   0.332  0.1228 -0.1017 -0.0005
 4673TIP3    H135578   4.739   5.069   0.359  0.2950  0.1785 -0.2029
 4673TIP3    H235579   4.595   5.080   0.405  1.1375  3.1473  2.0109
 4674TIP3   OH235580   5.697   3.628   7.350  0.2146 -0.2510  0.0509
 4674TIP3    H135581   5.650   3.693   7.402 -1.9697  0.4460 -2.5725
 4674TIP3    H235582   5.765   3.678   7.304 -0.5346 -0.0473 -0.8646
 4675TIP3   OH235583   6.493   3.669   1.692  0.0458 -0.2384  0.2103
 4675TIP3    H135584   6.492   3.612   1.614  1.5359 -1.7221  1.2156
 4675TIP3    H235585   6.553   3.739   1.669  1.1142 -1.1032  0.2655
 4676TIP3   OH235586   4.814   6.653   7.764 -0.0508 -0.1913  0.1062
 4676TIP3    H135587   4.773   6.682   7.845 -0.5073  0.5967 -0.3937
 4676TIP3    H235588   4.811   6.558   7.768  0.2666 -0.1761  1.1779
 4677TIP3   OH235589   3.911   6.619   0.173  0.0983 -0.2428 -0.0183
 4677TIP3    H135590   3.935   6.560   0.101 -0.9838 -0.2828 -0.3586
 4677TIP3    H235591   3.966   6.696   0.160 -0.4922 -0.0089 -1.2429
 4678TIP3   OH235592   6.815   0.628   7.985 -0.0169 -0.1222  0.0875
 4678TIP3    H135593   6.790   0.699   7.926 -1.9588 -1.2331 -0.5027
 4678TIP3    H235594   6.733   0.582   8.004  0.8819 -1.0266  2.0459
 4679TIP3   OH235595   3.950   6.070   6.866 -0.3731  0.4496 -0.0478
 4679TIP3    H135596   3.942   6.163   6.845  0.3624  0.9862  1.8303
 4679TIP3    H235597   4.043   6.059   6.889 -0.3689 -0.8343 -0.6142
 4680TIP3   OH235598   3.441   5.742   7.560 -0.3511  0.1979  0.5302
 4680TIP3    H135599   3.514   5.735   7.499 -0.3610 -0.4150  0.5895
 4680TIP3    H235600   3.409   5.653   7.571 -0.5161  0.3377  1.2312
 4681TIP3   OH235601   5.435   6.470   7.507 -0.0133  0.0079 -0.4794
 4681TIP3    H135602   5.492   6.545   7.493  1.4619 -0.7539  1.1172
 4681TIP3    H235603   5.370   6.501   7.571  0.5982 -0.0512  0.1850
 4682TIP3   OH235604   3.441   5.399   7.594 -0.3537 -0.1269 -0.3837
 4682TIP3    H135605   3.353   5.390   7.557  0.4107 -0.6427 -2.2152
 4682TIP3    H235606   3.474   5.309   7.601 -0.6191 -0.0984  2.1035
 4683TIP3   OH235607   5.342   3.696   1.484 -0.4013 -0.4074  0.3172
 4683TIP3    H135608   5.302   3.770   1.439 -3.0480 -2.0617 -0.2748
 4683TIP3    H235609   5.280   3.673   1.553 -0.7909 -3.3128 -0.8469
 4684TIP3   OH235610   4.575   2.366   1.195  0.3061 -0.3773 -0.0118
 4684TIP3    H135611   4.559   2.298   1.130 -0.9774  0.8006 -0.9962
 4684TIP3    H235612   4.507   2.351   1.262  0.6115 -0.6189  0.2459
 4685TIP3   OH235613   6.591   3.136   1.077  0.4646 -0.4741 -0.1670
 4685TIP3    H135614   6.496   3.142   1.087  0.5053  0.4134 -0.2799
 4685TIP3    H235615   6.609   3.042   1.075 -0.3993 -0.6457 -0.0384
 4686TIP3   OH235616   2.430   1.531   6.575  0.0154 -0.4140 -0.4170
 4686TIP3    H135617   2.345   1.505   6.540  0.2163  0.4685 -1.6266
 4686TIP3    H235618   2.448   1.616   6.535  1.2329 -0.3384  0.2241
 4687TIP3   OH235619   4.444   5.931   7.838 -0.0922  0.3250  0.2692
 4687TIP3    H135620   4.356   5.968   7.827 -0.4334 -0.6577 -0.5105
 4687TIP3    H235621   4.432   5.861   7.903  0.3717  0.9768  1.0791
 4688TIP3   OH235622   2.508   1.409   0.966  0.3972 -0.1430  0.0095
 4688TIP3    H135623   2.525   1.500   0.944  2.0824 -0.3312  0.4156
 4688TIP3    H235624   2.414   1.399   0.955  0.4787  1.0435 -2.3115
 4689TIP3   OH235625   4.396   6.182   1.447  0.2054  0.2857 -0.1867
 4689TIP3    H135626   4.328   6.135   1.399  0.7889 -1.1820  0.3361
 4689TIP3    H235627   4.368   6.178   1.538  0.8289 -0.0911 -0.0014
 4690TIP3   OH235628   2.625   0.335   7.764  0.2117  0.1637  0.5672
 4690TIP3    H135629   2.707   0.384   7.767  1.2431 -1.4783  0.7564
 4690TIP3    H235630   2.569   0.377   7.829  0.2383  2.3731 -0.7569
 4691TIP3   OH235631   1.144   4.080   0.859 -0.1932  0.6727 -0.2998
 4691TIP3    H135632   1.152   4.159   0.912  1.1378  0.1033  0.3997
 4691TIP3    H235633   1.073   4.030   0.900  0.6971  0.3256  0.8794
 4692TIP3   OH235634   0.728   4.076   1.590  0.3460 -0.1391  0.1849
 4692TIP3    H135635   0.796   4.047   1.651 -1.6309 -0.3772  2.4011
 4692TIP3    H235636   0.712   4.000   1.534 -1.4647 -1.9142  2.8775
 4693TIP3   OH235637   3.072   0.419   0.879 -0.5309  0.0586 -0.2759
 4693TIP3    H135638   3.104   0.329   0.880 -1.1435 -0.1656  0.5847
 4693TIP3    H235639   3.148   0.472   0.902  0.1267 -0.1094 -1.9004
 4694TIP3   OH235640   0.366   5.760   1.293 -0.3517 -0.6308 -0.4365
 4694TIP3    H135641   0.337   5.727   1.377 -0.5537 -0.7149 -0.5385
 4694TIP3    H235642   0.456   5.791   1.308 -1.2223  1.7059  0.4366
 4695TIP3   OH235643   5.916   4.773   0.369 -0.1811 -0.1839 -0.5724
 4695TIP3    H135644   5.984   4.706   0.371  1.0399  1.0378  1.6299
 4695TIP3    H235645   5.963   4.856   0.380 -2.0168  0.6810  1.3144
 4696TIP3   OH235646   2.504   4.850   1.914 -0.7053  0.1812  0.1580
 4696TIP3    H135647   2.418   4.853   1.874  0.0461  0.3101 -1.5397
 4696TIP3    H235648   2.529   4.942   1.923 -0.6343  0.1388  0.4089
 4697TIP3   OH235649   6.062   3.736   2.166 -0.7383  0.8028  0.1751
 4697TIP3    H135650   6.113   3.803   2.120 -3.7435  1.7720 -2.1186
 4697TIP3    H235651   6.016   3.784   2.236 -1.7763  0.9113 -0.5507
 4698TIP3   OH235652   5.224   0.816   1.570  0.5580 -0.3001 -0.1824
 4698TIP3    H135653   5.247   0.733   1.613  2.6502  0.6156  0.5777
 4698TIP3    H235654   5.282   0.821   1.494 -0.7690 -0.2971 -1.2426
 4699TIP3   OH235655   1.189   3.894   7.194  0.0932 -0.3044  0.2938
 4699TIP3    H135656   1.253   3.951   7.152 -0.6302  0.2844 -0.0192
 4699TIP3    H235657   1.157   3.838   7.124  0.9161 -1.2394  0.6278
 4700TIP3   OH235658   3.422   0.203   6.228  0.1449  0.3890 -0.6009
 4700TIP3    H135659   3.406   0.273   6.291 -0.1866 -1.4857  1.5626
 4700TIP3    H235660   3.481   0.143   6.274 -1.6802 -2.0653 -1.2457
 4701TIP3   OH235661   5.078   2.244   7.393 -0.1018 -0.4381  0.7537
 4701TIP3    H135662   5.130   2.320   7.418 -0.1937 -0.6010  1.4679
 4701TIP3    H235663   4.988   2.276   7.389  0.0930  0.0205 -1.2030
 4702TIP3   OH235664   2.409   0.847   6.434 -0.0939  0.5303  0.3610
 4702TIP3    H135665   2.478   0.873   6.496  0.8170  2.0870 -1.2088
 4702TIP3    H235666   2.340   0.911   6.448  0.0598  0.8057 -0.1279
 4703TIP3   OH235667   2.626   3.109   7.745  0.0311 -0.3210  0.0699
 4703TIP3    H135668   2.550   3.069   7.787 -1.2901  0.8560 -1.1237
 4703TIP3    H235669   2.590   3.163   7.675  2.0379 -0.7701 -1.4255
 4704TIP3   OH235670   0.355   3.722   7.262  0.6554  0.4785  0.4392
 4704TIP3    H135671   0.365   3.817   7.269 -1.3446  0.8062 -0.5783
 4704TIP3    H235672   0.267   3.709   7.228  0.8442 -1.7687  0.6384
 4705TIP3   OH235673   2.629   2.107   0.506 -0.0284  0.3014 -0.3793
 4705TIP3    H135674   2.710   2.115   0.556  1.2112  0.7302 -2.3803
 4705TIP3    H235675   2.614   2.012   0.499  1.8996  0.0803 -2.3904
 4706TIP3   OH235676   4.951   4.711   0.816  0.4654 -0.0561  0.1481
 4706TIP3    H135677   5.037   4.749   0.798  0.2184 -0.3500 -1.8820
 4706TIP3    H235678   4.891   4.760   0.760 -0.2933 -1.5016 -0.3504
 4707TIP3   OH235679   5.407   3.396   7.830  0.0633 -0.3334  0.3597
 4707TIP3    H135680   5.502   3.408   7.838  0.2920 -1.5187 -0.2443
 4707TIP3    H235681   5.382   3.352   7.911 -0.0689  0.4166  0.7367
 4708TIP3   OH235682   5.464   0.060   2.492 -0.5054  0.0742  0.0930
 4708TIP3    H135683   5.426  -0.017   2.449  0.6418  1.1419 -3.1191
 4708TIP3    H235684   5.410   0.133   2.464  1.4491  1.0763 -1.3017
 4709TIP3   OH235685   2.629   3.030   0.306 -0.0189 -0.0739 -0.1722
 4709TIP3    H135686   2.650   3.100   0.367 -2.4561 -0.7826  1.6312
 4709TIP3    H235687   2.652   2.950   0.352 -1.0245 -0.5931 -0.5248
 4710TIP3   OH235688   5.106   4.504   7.774 -0.1226 -0.0492 -0.1664
 4710TIP3    H135689   5.130   4.536   7.687  2.3693  2.0526  1.1557
 4710TIP3    H235690   5.126   4.577   7.833  0.3908 -2.1263  2.4387
 4711TIP3   OH235691   2.392   4.527   8.031  0.0495  0.2053 -0.4216
 4711TIP3    H135692   2.415   4.617   8.053 -0.1369 -0.0439  0.8921
 4711TIP3    H235693   2.347   4.533   7.947  0.3488  1.2873 -0.5204
 4712TIP3   OH235694   0.419   1.316   0.968 -0.3774  0.1402 -0.4147
 4712TIP3    H135695   0.465   1.270   1.039 -2.1951 -0.4850  0.4227
 4712TIP3    H235696   0.392   1.399   1.007  1.9691  1.5930 -1.6134
 4713TIP3   OH235697   6.522   5.052   0.942  0.3158  0.4808  0.2420
 4713TIP3    H135698   6.514   4.978   0.881  1.9583 -0.9855  1.6745
 4713TIP3    H235699   6.485   5.126   0.894 -1.3351 -1.2162 -1.3035
 4714TIP3   OH235700   0.047   5.035   1.282 -0.0723 -0.1705  0.3449
 4714TIP3    H135701   0.087   5.034   1.369 -1.0434 -2.2405  0.8266
 4714TIP3    H235702   0.120   5.054   1.223  1.0149 -0.7449  1.4461
 4715TIP3   OH235703   4.902   4.542   1.702  0.4821  0.0842 -0.1460
 4715TIP3    H135704   4.904   4.626   1.746  0.9814 -0.3242  0.6276
 4715TIP3    H235705   4.816   4.506   1.723  0.4116  0.2365 -0.1715
 4716TIP3   OH235706   4.839   1.794   7.320  0.5172  0.0264 -0.1595
 4716TIP3    H135707   4.923   1.840   7.329  0.5478 -0.3594  2.3411
 4716TIP3    H235708   4.859   1.717   7.267  1.7890 -0.1026  0.4742
 4717TIP3   OH235709   3.214   6.688   1.139 -0.3049  0.2007 -0.1067
 4717TIP3    H135710   3.211   6.619   1.072 -0.4965  1.4901 -1.4928
 4717TIP3    H235711   3.201   6.769   1.090 -0.6113  1.1950  1.5440
 4718TIP3   OH235712   2.935   2.220   8.012  0.4734  0.8465  0.6785
 4718TIP3    H135713   3.012   2.173   8.045 -0.2964  0.3371  1.8010
 4718TIP3    H235714   2.868   2.207   8.079 -0.2218  2.3252  0.3152
 4719TIP3   OH235715   4.216   6.795   0.724  0.1469 -0.4082 -0.3750
 4719TIP3    H135716   4.306   6.826   0.715  0.0640 -0.0829 -0.0994
 4719TIP3    H235717   4.201   6.792   0.818  0.4224 -2.0773 -0.3463
 4720TIP3   OH235718   2.992   4.477   7.554 -0.3836  0.2435  0.1588
 4720TIP3    H135719   3.018   4.405   7.611 -0.1078  0.9152  0.8991
 4720TIP3    H235720   3.026   4.452   7.468 -0.1871 -0.4536  0.4286
 4721TIP3   OH235721   4.904   3.845   7.474 -0.1815 -0.4996 -0.4332
 4721TIP3    H135722   4.833   3.873   7.417  0.8623  0.2711 -1.3889
 4721TIP3    H235723   4.984   3.860   7.423  0.6141 -2.8197 -0.0235
 4722TIP3   OH235724   3.824   0.610   0.998  0.4252 -0.0268  0.3213
 4722TIP3    H135725   3.813   0.561   1.079  0.8628 -1.5201 -0.4754
 4722TIP3    H235726   3.749   0.668   0.994  1.1110  1.0871  2.4619
 4723TIP3   OH235727   3.971   3.893   7.525 -0.1198 -0.0316 -0.1431
 4723TIP3    H135728   4.054   3.906   7.572 -0.1974  1.2323 -0.3304
 4723TIP3    H235729   3.988   3.820   7.466  0.6781 -0.1723  0.2511
 4724TIP3   OH235730   4.299   1.022   8.168 -0.3126 -0.6982  0.7322
 4724TIP3    H135731   4.237   1.095   8.159 -0.0132 -0.5175  0.1024
 4724TIP3    H235732   4.306   1.009   8.262 -1.0828 -0.5259  0.8256
 4725TIP3   OH235733   6.653   5.025   8.560  0.0570 -0.2376 -0.7541
 4725TIP3    H135734   6.581   5.071   8.603  2.3248  2.4068  0.6039
 4725TIP3    H235735   6.701   4.984   8.633  2.0238  1.3777 -1.0440
 4726TIP3   OH235736   5.408   1.575   8.402 -0.2354 -0.4034  0.0820
 4726TIP3    H135737   5.462   1.507   8.442  0.5182  0.0966 -0.0638
 4726TIP3    H235738   5.409   1.647   8.465  2.0302  0.9085 -1.3159
 4727TIP3   OH235739   5.452   6.325   8.359  0.1422  1.3075  0.4669
 4727TIP3    H135740   5.464   6.395   8.296 -2.3223  0.9839 -0.4672
 4727TIP3    H235741   5.446   6.245   8.306  1.5370  0.5336  1.4047
 4728TIP3   OH235742   6.625   4.018   6.295 -0.3683 -0.1012  0.1385
 4728TIP3    H135743   6.633   4.084   6.365 -0.0373 -0.1735  0.1727
 4728TIP3    H235744   6.703   4.032   6.241  0.2406 -1.1159  0.7076
 4729TIP3   OH235745   4.740   1.569   8.248 -0.1303 -0.2195  0.3339
 4729TIP3    H135746   4.756   1.563   8.342  2.0790  2.4928  0.2278
 4729TIP3    H235747   4.724   1.478   8.222 -0.1055 -1.1557  3.1675
 4730TIP3   OH235748   0.940   5.206   8.371 -0.2539 -0.0510  0.0507
 4730TIP3    H135749   0.932   5.256   8.290 -0.9098 -1.2383 -0.6510
 4730TIP3    H235750   0.908   5.265   8.439 -1.6654  0.2609 -0.8416
 4731TIP3   OH235751   3.343   0.741   1.176 -0.5136  0.3524  0.1570
 4731TIP3    H135752   3.298   0.790   1.106 -0.1496 -0.2753 -0.5314
 4731TIP3    H235753   3.346   0.651   1.144  1.7949  0.4792 -0.1227
 4732TIP3   OH235754   3.860   5.639   1.641  0.1229  0.2141 -0.4449
 4732TIP3    H135755   3.876   5.633   1.547 -0.4636 -1.1253 -0.4878
 4732TIP3    H235756   3.794   5.572   1.659 -0.6104  1.2036  0.7511
 4733TIP3   OH235757   6.248   1.052   8.541  0.6426 -0.1386  0.3684
 4733TIP3    H135758   6.205   1.063   8.457 -2.4188  0.3028  1.8408
 4733TIP3    H235759   6.228   0.962   8.567  1.1775 -0.1344  0.8204
 4734TIP3   OH235760   3.382   4.128   2.599  0.1929 -0.0424  0.5043
 4734TIP3    H135761   3.405   4.060   2.536  1.1776 -1.2038  2.0762
 4734TIP3    H235762   3.439   4.201   2.577  0.8868 -0.6211  0.3669
 4735TIP3   OH235763   3.568   1.437   7.258  0.9825  0.2341 -0.0729
 4735TIP3    H135764   3.627   1.476   7.194 -1.4097  0.8222 -2.0664
 4735TIP3    H235765   3.520   1.511   7.295  0.6842 -0.3277  0.6989
 4736TIP3   OH235766   1.873   3.025   0.320 -0.0478 -0.3020  0.2275
 4736TIP3    H135767   1.824   3.100   0.286 -0.2398  0.7884  2.6983
 4736TIP3    H235768   1.943   3.063   0.373 -0.5887 -1.8190  2.1735
 4737TIP3   OH235769   2.195   5.269   7.618 -0.2170 -0.2006 -0.2059
 4737TIP3    H135770   2.270   5.309   7.573  0.1191  1.0617  1.3757
 4737TIP3    H235771   2.173   5.332   7.687 -3.7729  0.2334 -1.5784
 4738TIP3   OH235772   3.411   3.126   1.251  0.4609 -0.0441  0.2130
 4738TIP3    H135773   3.490   3.086   1.288  0.5147 -1.9042 -1.7581
 4738TIP3    H235774   3.442   3.171   1.172  0.4728  4.4102  2.4265
 4739TIP3   OH235775   3.060   6.290   8.671 -0.4196  0.1538  0.8245
 4739TIP3    H135776   3.100   6.252   8.592 -2.4408  0.7627 -0.5683
 4739TIP3    H235777   3.033   6.215   8.723  0.1081 -0.2726  0.5009
 4740TIP3   OH235778   1.118   5.934   8.577  0.0600  0.2384 -0.3756
 4740TIP3    H135779   1.179   5.931   8.650 -1.0500  0.6538  0.6011
 4740TIP3    H235780   1.105   6.028   8.560 -0.7897  0.1657 -0.1499
 4741TIP3   OH235781   4.088   2.525   0.952  0.0436 -0.3481 -0.7915
 4741TIP3    H135782   4.027   2.595   0.928 -0.5185 -0.1381  1.0731
 4741TIP3    H235783   4.077   2.515   1.047  1.0802 -2.0608 -0.8047
 4742TIP3   OH235784   1.308   0.972   0.955  0.1349 -0.0268 -0.1838
 4742TIP3    H135785   1.261   1.031   1.014  0.0339  0.5831 -0.8639
 4742TIP3    H235786   1.293   0.885   0.992 -1.2058  0.1843 -0.1741
 4743TIP3   OH235787   0.434   6.681   7.628 -0.5181 -0.0421  0.1974
 4743TIP3    H135788   0.436   6.594   7.669 -0.2237  0.1767  0.6544
 4743TIP3    H235789   0.526   6.700   7.608 -0.8008 -0.9927 -2.4122
 4744TIP3   OH235790   3.053   0.252   7.158 -0.2474 -1.0035  0.0253
 4744TIP3    H135791   2.971   0.279   7.117 -0.8381 -2.6990  0.0134
 4744TIP3    H235792   3.028   0.229   7.248  0.7497  1.1617  0.9239
 4745TIP3   OH235793   5.973   3.972   1.909  0.2316  0.4201 -0.0806
 4745TIP3    H135794   5.921   4.042   1.948 -3.1232 -1.7173 -0.3198
 4745TIP3    H235795   6.043   3.956   1.972 -0.4483  2.2291  1.2088
 4746TIP3   OH235796   0.247   5.944   7.264 -0.7058  0.0695  0.1883
 4746TIP3    H135797   0.208   5.874   7.212 -0.1314 -0.8594  0.9898
 4746TIP3    H235798   0.337   5.950   7.232 -1.0846  1.3002 -0.7281
 4747TIP3   OH235799   1.305   2.266   0.361  0.0251 -0.7257  0.0405
 4747TIP3    H135800   1.352   2.248   0.280  0.9689 -0.7990  0.5852
 4747TIP3    H235801   1.305   2.361   0.369  0.2279 -0.7327  0.1241
 4748TIP3   OH235802   6.340   0.883   2.177  0.2956 -0.3127  0.2395
 4748TIP3    H135803   6.359   0.952   2.241  0.8561  0.3738 -0.6521
 4748TIP3    H235804   6.348   0.801   2.227 -1.1015  0.2685  1.4947
 4749TIP3   OH235805   3.754   4.424   6.669  0.1751 -0.1322  0.0270
 4749TIP3    H135806   3.810   4.374   6.728 -0.2751 -0.9995 -0.2653
 4749TIP3    H235807   3.699   4.476   6.727  0.9081  0.3301  0.3256
 4750TIP3   OH235808   6.134   0.882   2.003 -0.1528  0.0407  0.2470
 4750TIP3    H135809   6.080   0.917   2.074  0.4494  2.4687 -0.4109
 4750TIP3    H235810   6.222   0.876   2.040  0.2785  1.8580 -0.4005
 4751TIP3   OH235811   5.449   6.740   0.815 -0.2775  0.0090 -0.1349
 4751TIP3    H135812   5.504   6.725   0.891 -2.0473  0.7781  1.3802
 4751TIP3    H235813   5.454   6.834   0.799 -0.8928  0.0413 -0.1722
 4752TIP3   OH235814   5.812   1.147   1.455 -0.6184  0.1858 -0.6427
 4752TIP3    H135815   5.853   1.099   1.383 -1.9069 -0.6311 -0.8724
 4752TIP3    H235816   5.862   1.121   1.532 -2.7265 -3.6789 -0.3111
 4753TIP3   OH235817   0.149   1.538   6.890 -0.0739 -0.7361 -0.4760
 4753TIP3    H135818   0.235   1.527   6.850 -1.0090 -0.5700 -2.6808
 4753TIP3    H235819   0.139   1.462   6.947  2.6130  0.6395  2.1344
 4754TIP3   OH235820   0.911   0.199   6.920 -0.0847 -0.5680 -0.2507
 4754TIP3    H135821   0.859   0.202   6.840 -1.1767 -1.3455  0.3901
 4754TIP3    H235822   0.886   0.116   6.961  0.3542 -0.1275  0.9469
 4755TIP3   OH235823   2.976   2.141   8.300  0.2062  0.0388 -0.1683
 4755TIP3    H135824   3.042   2.094   8.351 -0.5821 -2.8069 -1.5551
 4755TIP3    H235825   2.953   2.216   8.354  2.2111 -0.6723  1.8309
 4756TIP3   OH235826   0.437   4.340   7.521  0.6151  0.2777 -0.1460
 4756TIP3    H135827   0.455   4.376   7.435  4.7371 -0.2908  0.2839
 4756TIP3    H235828   0.482   4.255   7.522 -1.5778 -0.9970  1.7242
 4757TIP3   OH235829   1.416   1.430   6.192  0.5347 -0.1606 -0.6675
 4757TIP3    H135830   1.408   1.347   6.238 -0.2367  0.4402  0.3361
 4757TIP3    H235831   1.349   1.486   6.231  0.9920  0.9204 -1.3623
 4758TIP3   OH235832   6.010   5.920   7.707 -0.4364  0.6605 -0.6488
 4758TIP3    H135833   6.030   5.967   7.625  0.5181 -1.2372 -1.5779
 4758TIP3    H235834   5.916   5.906   7.704 -0.4361  0.7571 -1.3402
 4759TIP3   OH235835   3.377   0.947   8.367 -0.1462  0.0006  0.0016
 4759TIP3    H135836   3.467   0.978   8.364  0.6923 -2.2243  0.5160
 4759TIP3    H235837   3.324   1.027   8.364  1.7415  1.2925 -2.5778
 4760TIP3   OH235838   5.539   4.730   8.568  0.0922 -0.0110 -0.5429
 4760TIP3    H135839   5.528   4.779   8.650  0.8192  0.5187 -0.7464
 4760TIP3    H235840   5.530   4.797   8.500 -0.3522 -0.4218 -0.8869
 4761TIP3   OH235841   2.263   2.302   0.370  0.3155  0.1307 -0.5222
 4761TIP3    H135842   2.172   2.278   0.386  0.2565  1.1130  0.7628
 4761TIP3    H235843   2.260   2.395   0.350  1.3169  1.1350  3.2393
 4762TIP3   OH235844   1.301   4.452   8.432  0.2891 -0.1659 -0.4232
 4762TIP3    H135845   1.378   4.478   8.382  0.3825 -0.8975 -0.6791
 4762TIP3    H235846   1.318   4.361   8.456 -0.4449 -0.3011 -0.3978
 4763TIP3   OH235847   3.080   4.857   0.524  0.0550  0.2819 -0.1058
 4763TIP3    H135848   3.025   4.872   0.601  0.4878  1.4787 -0.0080
 4763TIP3    H235849   3.081   4.942   0.479  0.1468 -0.2850 -1.2138
 4764TIP3   OH235850   5.199   1.616   1.349 -0.4295 -0.9517 -0.5729
 4764TIP3    H135851   5.169   1.628   1.439 -0.3142 -1.6440 -0.4380
 4764TIP3    H235852   5.228   1.703   1.322 -1.6026 -0.4789 -0.3689
 4765TIP3   OH235853   3.171   2.010   8.117  0.1084 -0.0885  0.7240
 4765TIP3    H135854   3.127   2.001   8.202  2.5930  0.8291  2.1921
 4765TIP3    H235855   3.228   1.933   8.112  0.3881  0.1618  0.1219
 4766TIP3   OH235856   3.319   2.228   7.262 -0.5462 -0.2972  0.2866
 4766TIP3    H135857   3.393   2.259   7.209 -0.8665  3.9666  1.9670
 4766TIP3    H235858   3.360   2.175   7.331  0.3484 -1.7941 -1.3044
 4767TIP3   OH235859   2.254   5.276   1.077 -0.0606  0.6425  0.6319
 4767TIP3    H135860   2.159   5.271   1.064  0.2264 -0.8816 -1.3130
 4767TIP3    H235861   2.271   5.217   1.150 -0.4621 -0.1995  0.0547
 4768TIP3   OH235862   5.260   1.207   0.152  0.0453 -0.1825 -0.1700
 4768TIP3    H135863   5.284   1.257   0.074  1.1473  1.9170  1.4184
 4768TIP3    H235864   5.315   1.128   0.148  1.0072  0.5032 -0.8752
 4769TIP3   OH235865   3.748   0.146   8.501  0.6001  0.8098 -0.3108
 4769TIP3    H135866   3.668   0.139   8.554  0.8080  0.3651 -0.0484
 4769TIP3    H235867   3.788   0.229   8.529  1.4013 -0.0479  1.2268
 4770TIP3   OH235868   3.877   2.957   0.054  0.0840 -0.3380  0.6303
 4770TIP3    H135869   3.893   2.996  -0.032  1.0544 -1.7491  0.1328
 4770TIP3    H235870   3.959   2.912   0.075 -0.8235 -1.6997  1.3724
 4771TIP3   OH235871   2.011   6.754   2.011  0.0747  0.5197 -0.5717
 4771TIP3    H135872   2.040   6.666   2.034  1.3555  0.9498 -0.4617
 4771TIP3    H235873   2.007   6.801   2.094 -3.5303 -0.1811 -0.1952
 4772TIP3   OH235874   0.705   2.495   1.699  0.2346  0.2040  0.5052
 4772TIP3    H135875   0.625   2.452   1.730 -0.9498  1.7117 -0.3082
 4772TIP3    H235876   0.704   2.484   1.604  0.5533  0.9395  0.4071
 4773TIP3   OH235877   0.567   3.987   7.865 -0.1731  0.4199 -0.4070
 4773TIP3    H135878   0.564   4.078   7.894  2.1479  0.4884 -0.2207
 4773TIP3    H235879   0.654   3.976   7.826 -0.1580 -1.8580  0.0881
 4774TIP3   OH235880   4.213   3.778   1.032  0.2674 -0.1528  0.0460
 4774TIP3    H135881   4.203   3.729   0.950 -0.5913  1.5311 -0.9248
 4774TIP3    H235882   4.295   3.826   1.021 -0.2997  0.7807 -0.2612
 4775TIP3   OH235883   0.337   2.214   7.571  0.0675  0.0614  0.0268
 4775TIP3    H135884   0.292   2.131   7.587  1.9106 -1.0978 -0.4220
 4775TIP3    H235885   0.324   2.230   7.477 -0.5626  0.4700  0.1785
 4776TIP3   OH235886   1.623   3.201   1.941  0.2763 -0.2830 -0.2424
 4776TIP3    H135887   1.717   3.218   1.931  0.1476  0.0554 -0.9788
 4776TIP3    H235888   1.588   3.281   1.981  0.2873 -0.3667 -0.0668
 4777TIP3   OH235889   6.540   5.532   7.016  0.5725  0.7228  0.2313
 4777TIP3    H135890   6.483   5.546   6.941  0.4749 -1.0272 -0.0636
 4777TIP3    H235891   6.621   5.497   6.979 -0.5358 -3.1578  1.0187
 4778TIP3   OH235892   3.927   6.854   7.287  0.0172  0.1299 -0.5362
 4778TIP3    H135893   3.984   6.795   7.238 -0.9213  0.3449 -1.9428
 4778TIP3    H235894   3.878   6.901   7.220 -1.2832  0.4753  0.6118
 4779TIP3   OH235895   5.528   1.180   1.113 -0.2494  0.3212  0.7657
 4779TIP3    H135896   5.552   1.118   1.181 -0.1122  2.4036  2.7296
 4779TIP3    H235897   5.608   1.193   1.063 -0.7141 -2.3761 -0.9260
 4780TIP3   OH235898   6.180   6.150   7.219 -0.1600 -0.1525  0.2378
 4780TIP3    H135899   6.180   6.083   7.151  3.0210 -0.9118  0.7966
 4780TIP3    H235900   6.208   6.230   7.174  1.1155 -0.4641  0.4185
 4781TIP3   OH235901   6.344   3.565   1.098 -0.2070  0.3752 -0.1224
 4781TIP3    H135902   6.258   3.528   1.118  0.5409 -0.7349  1.2397
 4781TIP3    H235903   6.373   3.603   1.181  1.1627 -0.4579 -0.1891
 4782TIP3   OH235904   3.853   0.250   8.240 -0.0126 -0.5493 -0.4454
 4782TIP3    H135905   3.834   0.188   8.311 -0.1738 -1.8912 -1.6313
 4782TIP3    H235906   3.817   0.210   8.162 -0.7809  1.4028 -1.1695
 4783TIP3   OH235907   1.449   6.813   7.539 -0.1658 -0.5350  0.1153
 4783TIP3    H135908   1.407   6.805   7.624 -1.4240 -0.6158 -0.4888
 4783TIP3    H235909   1.440   6.906   7.516 -0.8552 -0.7234 -0.4178
 4784TIP3   OH235910   5.479   1.836   7.556  0.5748  0.1461 -0.4219
 4784TIP3    H135911   5.504   1.857   7.647 -1.2662  1.7117 -0.2168
 4784TIP3    H235912   5.457   1.921   7.518  0.2314 -0.6338 -2.0120
 4785TIP3   OH235913   4.581   0.326   1.679 -0.1127  0.4269 -0.7495
 4785TIP3    H135914   4.619   0.240   1.698 -0.2727 -0.0321 -2.3755
 4785TIP3    H235915   4.494   0.323   1.720  0.4120  0.3728  0.4203
 4786TIP3   OH235916   4.431   2.132   0.034  0.2317  0.5582 -0.2101
 4786TIP3    H135917   4.526   2.140   0.045  0.4679 -0.5508 -1.2589
 4786TIP3    H235918   4.410   2.044   0.067 -0.2611  0.3868 -0.9492
 4787TIP3   OH235919   4.132   3.087   0.161  0.7425 -0.0283 -0.5705
 4787TIP3    H135920   4.137   3.020   0.092  0.0670  0.3534 -1.0038
 4787TIP3    H235921   4.223   3.110   0.179  0.9094  0.3162 -1.7774
 4788TIP3   OH235922   2.118   3.364   7.409  0.1935  0.4707 -0.3844
 4788TIP3    H135923   2.144   3.288   7.460 -0.7909  1.1657  1.2111
 4788TIP3    H235924   2.194   3.422   7.412  0.8777 -0.3256 -1.4473
 4789TIP3   OH235925   5.394   6.044   0.772  0.0928  0.4153  0.5947
 4789TIP3    H135926   5.342   6.110   0.727  0.6510  0.5867  0.1870
 4789TIP3    H235927   5.453   6.094   0.828 -0.5810  0.2062  1.5213
 4790TIP3   OH235928   5.285   4.908   8.348 -0.2818  0.5531  0.0279
 4790TIP3    H135929   5.243   4.994   8.340 -0.0343  1.0670  3.0124
 4790TIP3    H235930   5.330   4.912   8.433 -1.3832 -2.9512  0.9314
 4791TIP3   OH235931   1.307   5.811   6.473  0.3477  0.3462 -0.0145
 4791TIP3    H135932   1.238   5.764   6.427  0.2593  1.6238 -1.2554
 4791TIP3    H235933   1.349   5.864   6.405  0.6705  1.7600  1.2340
 4792TIP3   OH235934   4.665   5.466   0.077 -1.2271 -0.1540 -0.6393
 4792TIP3    H135935   4.571   5.446   0.069 -1.5362 -1.0063  3.2402
 4792TIP3    H235936   4.667   5.549   0.125  0.1382  1.3776 -3.1261
 4793TIP3   OH235937   6.431   3.073   7.765 -0.1542  0.1310 -0.9849
 4793TIP3    H135938   6.464   3.037   7.682 -2.9403 -0.6402 -1.8649
 4793TIP3    H235939   6.378   3.148   7.739  0.5668  1.1485  0.3346
 4794TIP3   OH235940   4.226   2.235   7.933 -0.1486 -0.3035  0.1011
 4794TIP3    H135941   4.272   2.285   7.865 -0.0840  1.4072  1.3575
 4794TIP3    H235942   4.142   2.213   7.893 -0.2067  0.8805 -0.4739
 4795TIP3   OH235943   6.840   5.304   1.259 -0.5009 -0.1429  0.6909
 4795TIP3    H135944   6.857   5.209   1.261  1.4603  0.1678  1.2069
 4795TIP3    H235945   6.841   5.326   1.167 -2.8395 -0.8818  0.4347
 4796TIP3   OH235946   5.477   4.169   0.926  0.0653 -0.5253  0.3606
 4796TIP3    H135947   5.421   4.102   0.966  0.5391 -1.8027 -1.0415
 4796TIP3    H235948   5.454   4.168   0.833  0.1595  1.2164  0.2769
 4797TIP3   OH235949   3.172   3.602   1.277 -0.4020  0.0760  0.8229
 4797TIP3    H135950   3.242   3.660   1.246 -0.4480  0.1690  0.8911
 4797TIP3    H235951   3.216   3.541   1.336  0.0958 -1.4932 -1.0684
 4798TIP3   OH235952   6.521   0.398   7.014 -0.0738  0.4425  0.2492
 4798TIP3    H135953   6.563   0.315   6.992  0.9610 -0.1098  3.8090
 4798TIP3    H235954   6.592   0.462   7.016 -0.5796  1.0619 -0.6151
 4799TIP3   OH235955   0.205   0.274   7.957 -0.3188 -0.2551 -0.4425
 4799TIP3    H135956   0.245   0.194   7.992 -1.9350 -0.9720 -0.1402
 4799TIP3    H235957   0.111   0.262   7.971 -0.5677  2.0793  0.3838
 4800TIP3   OH235958   1.586   2.224   1.598  0.7245  0.0297 -0.0460
 4800TIP3    H135959   1.587   2.135   1.632  1.4103 -0.1672 -0.5721
 4800TIP3    H235960   1.503   2.231   1.550  0.5663 -0.2514  0.1898
 4801TIP3   OH235961   3.130   2.432   7.285 -0.5890  0.2568 -0.7924
 4801TIP3    H135962   3.160   2.516   7.321 -0.2234 -0.0291 -0.4098
 4801TIP3    H235963   3.210   2.379   7.280 -0.9268 -0.3042 -0.3666
 4802TIP3   OH235964   4.910   2.898   0.191 -0.3296 -0.1419  0.4079
 4802TIP3    H135965   4.898   2.881   0.098 -0.8034  1.6022  0.1220
 4802TIP3    H235966   5.002   2.922   0.199 -0.0632 -1.1576  0.5569
 4803TIP3   OH235967   3.457   1.182   0.258 -0.2466  0.2325  0.2250
 4803TIP3    H135968   3.402   1.258   0.237 -2.0840 -1.1252 -0.0966
 4803TIP3    H235969   3.497   1.158   0.174 -1.2974 -0.3760 -0.1175
 4804TIP3   OH235970   3.840   2.527   1.627  0.4460  0.0793 -0.5168
 4804TIP3    H135971   3.782   2.534   1.702 -0.7909 -0.7727 -1.3532
 4804TIP3    H235972   3.862   2.434   1.621 -1.4203 -0.2945 -2.5731
 4805TIP3   OH235973   5.446   0.031   7.529 -0.4935 -0.1657  0.1490
 4805TIP3    H135974   5.446   0.030   7.625 -2.6640  3.2706  0.3471
 4805TIP3    H235975   5.354   0.021   7.505  0.0171 -1.0294 -1.6486
 4806TIP3   OH235976   2.127   6.004   0.623  0.3972 -0.0401 -0.0466
 4806TIP3    H135977   2.084   5.991   0.538  4.2046  1.8136 -2.5719
 4806TIP3    H235978   2.129   5.917   0.662 -0.0031 -1.3561 -2.7004
 4807TIP3   OH235979   1.575   2.587   0.412  0.1181 -0.0406  0.4165
 4807TIP3    H135980   1.547   2.564   0.324 -0.3879 -0.2423  0.6278
 4807TIP3    H235981   1.626   2.668   0.401 -0.2928  0.1611 -0.0108
 4808TIP3   OH235982   0.210   3.835   7.022 -0.2326  0.3848  0.2455
 4808TIP3    H135983   0.294   3.866   6.989 -0.0809 -0.3584 -0.0797
 4808TIP3    H235984   0.190   3.758   6.969 -0.5990 -0.0805  1.0359
 4809TIP3   OH235985   0.612   4.472   2.261 -0.4022  0.3453 -0.4556
 4809TIP3    H135986   0.522   4.443   2.276  0.0117 -0.8087 -0.0545
 4809TIP3    H235987   0.651   4.402   2.209  1.3582 -1.2193  2.6814
 4810TIP3   OH235988   1.653   3.627   0.036  0.1722  0.0769 -0.1706
 4810TIP3    H135989   1.715   3.658  -0.030 -0.4638  2.8693  0.4247
 4810TIP3    H235990   1.691   3.653   0.120  0.0863 -1.8043  0.4944
 4811TIP3   OH235991   2.416   1.321   7.689 -0.2978 -0.1637  0.1975
 4811TIP3    H135992   2.379   1.407   7.670  0.6311  0.0990 -0.4898
 4811TIP3    H235993   2.349   1.278   7.743  0.0155  1.6561  2.1703
 4812TIP3   OH235994   5.665   2.840   0.512  0.2220 -0.0971 -0.6213
 4812TIP3    H135995   5.717   2.857   0.590  0.1278 -1.9427 -0.1231
 4812TIP3    H235996   5.729   2.819   0.444  0.2304 -0.0638 -0.6238
 4813TIP3   OH235997   1.674   5.059   7.829 -0.2364 -0.1153  0.4908
 4813TIP3    H135998   1.747   5.096   7.779 -2.3692  2.7531 -0.7999
 4813TIP3    H235999   1.638   4.991   7.773  1.1678 -1.3293  0.9989
 4814TIP3   OH236000   6.517   2.950   6.259 -0.0501  0.7709 -0.2876
 4814TIP3    H136001   6.595   2.924   6.308  1.1084  1.1616 -1.8221
 4814TIP3    H236002   6.487   3.030   6.301  0.8107  0.9981 -0.0916
 4815TIP3   OH236003   1.763   0.731   0.323  0.2016 -0.6790 -0.3748
 4815TIP3    H136004   1.827   0.740   0.253  1.9877 -2.4860  0.9115
 4815TIP3    H236005   1.751   0.820   0.357 -0.1878  0.1230 -2.4536
 4816TIP3   OH236006   5.029   4.614   6.973 -0.0338  0.2000  0.3483
 4816TIP3    H136007   5.062   4.525   6.966  0.7100  0.4329  0.7783
 4816TIP3    H236008   4.940   4.609   6.940 -0.3772 -0.9220  1.3520
 4817TIP3   OH236009   6.641   4.643   1.315 -0.1106 -0.2650 -0.3587
 4817TIP3    H136010   6.665   4.696   1.239  1.2350  0.6347  0.6211
 4817TIP3    H236011   6.547   4.656   1.325  0.0967  1.5941 -0.4395
 4818TIP3   OH236012   4.186   2.311   7.445  0.4656  0.0335 -0.1582
 4818TIP3    H136013   4.256   2.279   7.501 -0.6037 -1.1488  0.5726
 4818TIP3    H236014   4.176   2.244   7.378  0.3210  0.4044 -0.5124
 4819TIP3   OH236015   4.815   4.262   1.275 -0.6836 -0.4603  0.0561
 4819TIP3    H136016   4.847   4.349   1.248  0.4281 -1.5636 -2.4599
 4819TIP3    H236017   4.830   4.260   1.370 -0.0616  1.8223  0.0700
 4820TIP3   OH236018   5.933   2.516   8.231 -0.0349 -0.3633  0.5387
 4820TIP3    H136019   5.875   2.582   8.268  1.1906  1.2286 -0.2801
 4820TIP3    H236020   5.874   2.448   8.198 -1.4380  1.1854 -0.2833
 4821TIP3   OH236021   0.529   0.909   7.649  0.0122 -0.3519  0.1883
 4821TIP3    H136022   0.478   0.919   7.730  0.4926 -2.3694  0.8084
 4821TIP3    H236023   0.620   0.919   7.677  0.1132  0.8442 -0.4891
 4822TIP3   OH236024   4.680   6.460   0.038 -0.4927 -0.6244  0.0095
 4822TIP3    H136025   4.634   6.451  -0.045  1.5537  0.1819 -1.2958
 4822TIP3    H236026   4.773   6.460   0.015  0.1463  1.7559  2.0090
 4823TIP3   OH236027   2.866   3.330   0.310 -0.3403  0.2881  0.4019
 4823TIP3    H136028   2.818   3.299   0.233 -1.4889  3.3425 -0.2584
 4823TIP3    H236029   2.946   3.369   0.275  0.7654 -1.1858  1.1435
 4824TIP3   OH236030   0.593   0.845   0.485 -0.2634 -0.4998 -0.5366
 4824TIP3    H136031   0.610   0.752   0.492  0.4291 -0.3805 -0.6315
 4824TIP3    H236032   0.677   0.884   0.463 -0.9743 -0.0833 -2.7360
 4825TIP3   OH236033   3.673   6.678   7.866 -0.5369  0.5270 -0.6073
 4825TIP3    H136034   3.755   6.633   7.849 -0.5856 -0.4434  1.4372
 4825TIP3    H236035   3.642   6.706   7.779  1.0070 -0.7018 -1.6015
 4826TIP3   OH236036   4.494   1.592   8.077 -0.5525 -0.6828 -0.3742
 4826TIP3    H136037   4.575   1.615   8.123 -0.5179 -1.2242 -0.1622
 4826TIP3    H236038   4.520   1.526   8.013 -1.1720 -2.4770  1.1491
 4827TIP3   OH236039   2.099   4.595   8.315  0.1447  0.1212  0.1963
 4827TIP3    H136040   2.049   4.514   8.327  1.7755 -0.9130  0.2614
 4827TIP3    H236041   2.084   4.646   8.395 -0.3492 -0.4129  0.4463
 4828TIP3   OH236042   0.182   3.146   0.255  0.0552 -0.7525 -0.1384
 4828TIP3    H136043   0.100   3.167   0.211  0.2692 -0.0473 -0.2264
 4828TIP3    H236044   0.249   3.159   0.187  0.2830 -0.7897  0.0770
 4829TIP3   OH236045   6.082   2.695   1.936 -0.7899  0.3785 -0.4372
 4829TIP3    H136046   6.066   2.600   1.934  1.3733 -0.0740  0.7194
 4829TIP3    H236047   6.175   2.704   1.912 -0.6932  2.1200  0.4151
 4830TIP3   OH236048   1.449   6.781   0.348  0.1195 -0.0505  0.4688
 4830TIP3    H136049   1.537   6.763   0.314 -0.0232 -2.5847  1.1863
 4830TIP3    H236050   1.452   6.872   0.376  2.4889 -0.0238  0.3881
 4831TIP3   OH236051   1.659   4.959   6.851  0.0398 -0.1532  0.4286
 4831TIP3    H136052   1.749   4.926   6.862  0.2459  0.3268  0.2040
 4831TIP3    H236053   1.670   5.050   6.826 -0.4506 -0.5975 -1.5787
 4832TIP3   OH236054   1.955   0.831   8.588 -0.0634  0.4040  0.0436
 4832TIP3    H136055   1.965   0.775   8.665 -1.4158 -2.4868 -1.7060
 4832TIP3    H236056   1.933   0.917   8.624  0.9069 -0.4270  2.8882
 4833TIP3   OH236057   3.213   3.797   8.702 -0.4120 -0.1325  0.9176
 4833TIP3    H136058   3.134   3.791   8.755 -1.7603 -0.1661 -0.9956
 4833TIP3    H236059   3.182   3.825   8.616  1.5482 -1.0346 -0.1420
 4834TIP3   OH236060   1.387   4.735   0.091  0.2145  0.0151 -0.4159
 4834TIP3    H136061   1.419   4.701   0.008  0.7319 -0.5626  0.0090
 4834TIP3    H236062   1.428   4.821   0.099 -0.6036  0.4978 -1.2032
 4835TIP3   OH236063   3.916   1.174   1.090 -0.2301 -0.0481  0.1463
 4835TIP3    H136064   3.934   1.080   1.095 -1.4130 -0.2995  0.1123
 4835TIP3    H236065   4.000   1.216   1.107  0.7469 -1.1176 -1.7423
 4836TIP3   OH236066   6.204   3.235   7.401  0.1538  0.4522 -0.0756
 4836TIP3    H136067   6.180   3.327   7.399 -0.3880  0.3183  0.1496
 4836TIP3    H236068   6.262   3.224   7.326  1.1476  1.2232  0.5503
 4837TIP3   OH236069   3.320   5.185   0.221 -0.1013 -0.5593 -0.3626
 4837TIP3    H136070   3.305   5.157   0.311  0.1142 -2.8235 -0.9655
 4837TIP3    H236071   3.371   5.113   0.182  0.4648  0.7122 -2.0842
 4838TIP3   OH236072   2.641   5.989   2.657  0.5707  0.1161  0.4910
 4838TIP3    H136073   2.730   6.024   2.660  0.9480 -0.7990  0.4299
 4838TIP3    H236074   2.585   6.066   2.652  1.3672  0.7016  0.3433
 4839TIP3   OH236075   2.026   5.361   8.210 -0.0601 -0.1294  0.4559
 4839TIP3    H136076   2.035   5.429   8.276 -1.6769  1.5695 -0.9333
 4839TIP3    H236077   2.075   5.394   8.135 -1.6560  0.0346 -0.5696
 4840TIP3   OH236078   2.037   0.035   1.389 -0.3856 -0.2856 -0.1948
 4840TIP3    H136079   1.951   0.024   1.429 -0.5143 -2.6802 -1.0148
 4840TIP3    H236080   2.083   0.096   1.448 -1.3320 -1.8604  2.3403
 4841TIP3   OH236081   3.722   5.160   0.269  0.1623  0.3577 -0.3566
 4841TIP3    H136082   3.727   5.100   0.195 -2.0618  0.5378 -0.7122
 4841TIP3    H236083   3.660   5.119   0.329 -0.4985  1.7227 -0.0662
 4842TIP3   OH236084   1.894   1.305   6.003 -0.3525 -0.8682  0.8521
 4842TIP3    H136085   1.840   1.234   5.967 -0.7174 -0.0607 -0.2600
 4842TIP3    H236086   1.983   1.269   6.005 -0.7915 -1.9706  2.0275
 4843TIP3   OH236087   4.462   6.708   0.314 -0.0789 -0.1459  0.0876
 4843TIP3    H136088   4.545   6.663   0.298  0.0675 -0.3177  1.2269
 4843TIP3    H236089   4.395   6.644   0.295  0.1097 -0.6319  1.0146
 4844TIP3   OH236090   1.602   0.504   0.329 -0.0063  0.1873  0.3018
 4844TIP3    H136091   1.638   0.593   0.321 -0.5244  0.5113  1.3468
 4844TIP3    H236092   1.568   0.484   0.242  1.5748  0.3499 -0.3871
 4845TIP3   OH236093   3.865   6.769   1.743  0.1364 -0.5083  0.0369
 4845TIP3    H136094   3.940   6.765   1.684 -0.0957 -1.7508 -0.2009
 4845TIP3    H236095   3.869   6.857   1.781  1.2234 -0.2647 -0.6004
 4846TIP3   OH236096   1.695   6.089   1.267 -0.5121 -0.0980  0.3143
 4846TIP3    H136097   1.669   5.999   1.250 -0.4938  0.3068 -2.1713
 4846TIP3    H236098   1.786   6.083   1.297  0.4727 -0.7906 -2.5777
 4847TIP3   OH236099   4.941   5.814   6.983  0.2422  0.1216  0.3893
 4847TIP3    H136100   4.959   5.720   6.989 -2.5513 -0.4402  1.1923
 4847TIP3    H236101   4.922   5.829   6.891 -1.9291 -0.7154  0.6420
 4848TIP3   OH236102   4.163   5.924   0.150 -0.5424 -0.4105  0.3089
 4848TIP3    H136103   4.106   5.849   0.133 -0.8312 -0.0577 -0.3475
 4848TIP3    H236104   4.135   5.956   0.236 -0.9699 -0.5750  0.2371
 4849TIP3   OH236105   1.453   3.360   7.591  0.1882  0.0354 -0.4360
 4849TIP3    H136106   1.456   3.451   7.560 -0.8862  0.5491  0.8648
 4849TIP3    H236107   1.530   3.351   7.647 -1.7347  1.4844  2.7183
 4850TIP3   OH236108   1.451   4.037   1.025 -0.3816  0.5664 -0.1848
 4850TIP3    H136109   1.456   4.083   1.108 -2.2922 -0.1068  0.3434
 4850TIP3    H236110   1.420   4.102   0.962  0.1526  0.8284 -0.1853
 4851TIP3   OH236111   1.066   5.115   1.008 -0.4677 -0.3639 -0.5079
 4851TIP3    H136112   1.001   5.184   1.016 -0.3441 -0.3766  0.9692
 4851TIP3    H236113   1.149   5.161   0.997 -0.5353 -0.3155 -0.8294
 4852TIP3   OH236114   0.395   6.591   8.673 -0.0103 -0.3712  0.3059
 4852TIP3    H136115   0.413   6.671   8.722 -2.0344  0.1260  0.3001
 4852TIP3    H236116   0.377   6.621   8.584 -0.4924 -0.8709  0.2332
 4853TIP3   OH236117   4.572   1.576   1.133  0.0723 -0.0352 -0.5898
 4853TIP3    H136118   4.477   1.590   1.133  0.2234  1.7045  2.1445
 4853TIP3    H236119   4.583   1.490   1.173 -0.3160 -0.4647 -1.3615
 4854TIP3   OH236120   5.916   0.425   6.967 -0.0917 -0.1309 -0.0178
 4854TIP3    H136121   5.883   0.358   7.027 -1.1330  0.0706 -0.3420
 4854TIP3    H236122   5.948   0.495   7.024 -1.5006  0.2596  0.3257
 4855TIP3   OH236123   2.384   3.057   7.792 -0.7276  0.0237 -0.4405
 4855TIP3    H136124   2.366   2.970   7.828 -0.8424 -0.0950 -0.7893
 4855TIP3    H236125   2.322   3.068   7.720  1.1141 -0.7638 -2.2508
 4856TIP3   OH236126   4.984   4.713   1.082  0.2837 -0.1884  0.0930
 4856TIP3    H136127   4.955   4.751   0.999 -0.2380  0.0164  0.3684
 4856TIP3    H236128   4.911   4.727   1.142  0.9460  0.3082  0.7903
 4857TIP3   OH236129   3.219   0.513   7.730 -0.1149  0.4424  0.7754
 4857TIP3    H136130   3.280   0.569   7.681 -0.1942 -0.1257  0.0153
 4857TIP3    H236131   3.276   0.452   7.777  0.2378  3.2377  4.4491
 4858TIP3   OH236132   5.179   1.895   7.078 -0.0337  0.1990  0.1732
 4858TIP3    H136133   5.112   1.961   7.099  0.6107  1.2510 -0.9186
 4858TIP3    H236134   5.222   1.929   7.000  0.4216 -1.4825 -0.3473
 4859TIP3   OH236135   3.418   1.790   1.102  0.0356  0.1435 -0.0841
 4859TIP3    H136136   3.397   1.732   1.028 -0.0046 -0.4525  0.3826
 4859TIP3    H236137   3.470   1.735   1.161  1.5882  1.1141 -0.4689
 4860TIP3   OH236138   2.316   1.240   1.927 -0.0103  0.3229  0.1843
 4860TIP3    H136139   2.367   1.167   1.890 -1.2668 -0.1046 -0.8008
 4860TIP3    H236140   2.236   1.198   1.960 -0.0455  1.0619  1.0690
 4861TIP3   OH236141   0.604   4.266   7.930  0.2265  0.1644  0.0463
 4861TIP3    H136142   0.604   4.344   7.875 -3.1549 -0.2218 -0.7800
 4861TIP3    H236143   0.545   4.287   8.002  1.4514 -0.7206  1.3629
 4862TIP3   OH236144   6.346   2.002   7.577  0.6508 -0.8238 -0.1620
 4862TIP3    H136145   6.403   2.028   7.649 -1.5604 -0.2447  1.4529
 4862TIP3    H236146   6.330   2.083   7.528  0.9364 -0.9351 -0.4500
 4863TIP3   OH236147   3.450   1.883   7.247 -0.5862  0.2330  0.5579
 4863TIP3    H136148   3.466   1.978   7.253  0.2822  0.2445 -1.2909
 4863TIP3    H236149   3.396   1.873   7.169  0.5155 -0.8944 -0.0926
 4864TIP3   OH236150   1.362   6.713   7.231 -1.3930  0.3202  0.0960
 4864TIP3    H136151   1.353   6.749   7.143 -2.1915  0.4326  0.2192
 4864TIP3    H236152   1.274   6.718   7.269 -0.8896  1.1392  1.2345
 4865TIP3   OH236153   0.449   3.536   8.051 -0.4410 -0.0559  0.2644
 4865TIP3    H136154   0.498   3.460   8.081 -0.9874 -0.7219 -0.4999
 4865TIP3    H236155   0.388   3.502   7.985 -0.1551  1.1474 -0.6684
 4866TIP3   OH236156   0.681   2.254   7.951  0.0943  0.4724  0.4150
 4866TIP3    H136157   0.771   2.286   7.948  0.0676  0.7170  1.6540
 4866TIP3    H236158   0.649   2.265   7.862  1.4184 -0.0126 -0.1632
 4867TIP3   OH236159   6.651   1.898   0.784  0.1054  0.2073  0.0789
 4867TIP3    H136160   6.746   1.904   0.773  0.1948  0.3741  0.8819
 4867TIP3    H236161   6.616   1.906   0.695  0.8203  0.7098 -0.1697
 4868TIP3   OH236162   3.650   2.714   7.231 -0.1086  0.3099  0.2915
 4868TIP3    H136163   3.730   2.729   7.281  1.3436 -2.7133 -0.8539
 4868TIP3    H236164   3.582   2.762   7.279  1.3688 -1.3127  4.5242
 4869TIP3   OH236165   5.971   3.377   2.400 -0.2664 -0.3469  0.2494
 4869TIP3    H136166   5.896   3.320   2.418  1.6609 -3.1519  0.2201
 4869TIP3    H236167   6.006   3.398   2.487  0.5141 -1.4598  0.2249
 4870TIP3   OH236168   3.215   4.704   8.357 -0.3254 -0.1444  0.3947
 4870TIP3    H136169   3.225   4.777   8.296 -1.3232 -0.8798 -0.6914
 4870TIP3    H236170   3.304   4.670   8.367  0.1176  1.0392  0.7266
 4871TIP3   OH236171   4.048   4.778   7.650  0.1394 -0.8291  0.4563
 4871TIP3    H136172   3.956   4.753   7.653  0.1613 -1.0385 -0.4131
 4871TIP3    H236173   4.049   4.873   7.663 -0.2045 -0.8192  0.3970
 4872TIP3   OH236174   0.053   1.774   0.241 -0.1445  0.6425 -0.0277
 4872TIP3    H136175   0.039   1.683   0.215 -0.2764  0.0786  1.8678
 4872TIP3    H236176   0.144   1.791   0.218  0.7058 -0.8541  1.8553
 4873TIP3   OH236177   2.639   2.706   2.353  0.9800 -0.1725  0.4816
 4873TIP3    H136178   2.607   2.637   2.410  0.2616 -0.7438 -0.5656
 4873TIP3    H236179   2.711   2.747   2.401 -0.0361 -0.1769  2.0602
 4874TIP3   OH236180   4.883   4.731   6.757  0.3839  0.4861 -0.2797
 4874TIP3    H136181   4.842   4.660   6.807 -1.0273  0.5918 -1.2089
 4874TIP3    H236182   4.810   4.769   6.707  1.7003  0.3524 -2.4237
 4875TIP3   OH236183   3.519   2.389   1.639 -0.1181 -0.3826 -0.0109
 4875TIP3    H136184   3.525   2.464   1.579  2.8776 -1.0945 -0.8234
 4875TIP3    H236185   3.589   2.405   1.703 -0.5536 -1.6635  0.8043
 4876TIP3   OH236186   0.571   3.692   8.701  0.5637  0.1932  0.3354
 4876TIP3    H136187   0.570   3.605   8.741  1.2716  0.0919  0.1380
 4876TIP3    H236188   0.620   3.680   8.620  1.3014  0.9381  0.6658
 4877TIP3   OH236189   1.308   6.298   0.893 -0.6368  0.1302 -0.0318
 4877TIP3    H136190   1.299   6.320   0.800  0.8828 -0.3938 -0.3226
 4877TIP3    H236191   1.375   6.230   0.895 -1.6219 -0.8434  1.3307
 4878TIP3   OH236192   4.850   6.023   2.431 -0.2900 -0.4849 -0.0698
 4878TIP3    H136193   4.834   6.116   2.446 -0.2023 -0.8486  2.8184
 4878TIP3    H236194   4.765   5.988   2.403 -0.8935  0.1080  0.9857
 4879TIP3   OH236195   1.484   5.889   7.493  0.0281  0.2663 -1.0793
 4879TIP3    H136196   1.429   5.850   7.561  0.2366  0.6590 -0.6820
 4879TIP3    H236197   1.469   5.834   7.416 -1.7762  0.9757 -1.2994
 4880TIP3   OH236198   6.255   4.749   1.199 -0.0144  0.1802  0.0648
 4880TIP3    H136199   6.305   4.703   1.265 -0.5729 -0.6589 -0.0901
 4880TIP3    H236200   6.164   4.724   1.214 -0.8045  3.4955  1.8596
 4881TIP3   OH236201   4.811   2.991   8.059 -0.4803 -0.1229  0.2267
 4881TIP3    H136202   4.719   2.965   8.060 -1.2743  2.3633 -0.4732
 4881TIP3    H236203   4.848   2.944   7.985 -1.7550  0.4062 -0.8020
 4882TIP3   OH236204   0.213   6.151   0.659 -0.0514 -0.0085  0.3752
 4882TIP3    H136205   0.233   6.155   0.566  0.8250 -0.0330  0.5494
 4882TIP3    H236206   0.118   6.138   0.663 -0.0205 -0.6019 -0.5204
 4883TIP3   OH236207   4.617   3.131   0.035 -0.2965 -0.1068 -0.1899
 4883TIP3    H136208   4.577   3.217   0.046 -1.6286 -0.5059 -1.5738
 4883TIP3    H236209   4.697   3.134   0.088 -0.6141  1.7698  0.2258
 4884TIP3   OH236210   1.667   1.164   6.934  0.1738 -0.0354  0.0278
 4884TIP3    H136211   1.636   1.122   6.853  0.0991 -0.5314  0.3102
 4884TIP3    H236212   1.724   1.235   6.904  0.5857 -0.5583 -0.4515
 4885TIP3   OH236213   1.844   2.109   0.697  0.2987 -0.6336  0.0392
 4885TIP3    H136214   1.877   2.033   0.745  1.7152  0.0497  0.2105
 4885TIP3    H236215   1.790   2.157   0.760  1.1346 -0.4008  0.5980
 4886TIP3   OH236216   4.978   4.504   2.150 -0.0926  0.5869  0.6154
 4886TIP3    H136217   4.982   4.534   2.241 -1.6154  0.1148  0.8636
 4886TIP3    H236218   4.963   4.410   2.156  3.3934 -0.1442 -0.1568
 4887TIP3   OH236219   0.043   0.527   0.757  0.0445  0.3681  0.2566
 4887TIP3    H136220  -0.051   0.511   0.747 -0.1130  0.2981  1.6977
 4887TIP3    H236221   0.050   0.622   0.770 -0.0291  0.1537  2.0308
 4888TIP3   OH236222   3.367   1.796   0.052  0.2175  0.1418  0.0030
 4888TIP3    H136223   3.318   1.835   0.124  0.6961 -0.9506  0.9527
 4888TIP3    H236224   3.456   1.830   0.063 -0.1072  1.4572 -1.2145
 4889TIP3   OH236225   3.972   3.594   0.385  0.6072  0.1681 -0.9165
 4889TIP3    H136226   3.978   3.499   0.388 -1.7328 -0.0123 -0.1612
 4889TIP3    H236227   3.885   3.612   0.351  0.1787  2.0129  0.9369
 4890TIP3   OH236228   3.064   0.309   2.297  0.3442 -0.1855  0.2266
 4890TIP3    H136229   2.969   0.306   2.282  0.4918 -0.7692 -0.6179
 4890TIP3    H236230   3.082   0.236   2.356  0.1817  0.3683  0.9915
 4891TIP3   OH236231   2.696   0.578   8.420 -0.1595  0.2630 -0.1836
 4891TIP3    H136232   2.767   0.521   8.450 -0.2621  0.6824  0.8967
 4891TIP3    H236233   2.616   0.535   8.453 -0.2747  0.7228  0.1472
 4892TIP3   OH236234   0.260   3.607   1.345 -0.4122  0.2481  0.4479
 4892TIP3    H136235   0.321   3.680   1.342  0.7045 -0.6719 -0.1640
 4892TIP3    H236236   0.316   3.529   1.347 -1.4819 -0.7183 -2.1207
 4893TIP3   OH236237   0.036   6.383   6.885 -0.9571  0.7361 -0.3690
 4893TIP3    H136238   0.048   6.475   6.865 -1.2136  0.5736 -1.3071
 4893TIP3    H236239   0.009   6.343   6.803 -3.3736  0.2557  0.5777
 4894TIP3   OH236240   2.891   1.193   1.411 -0.3065 -0.4130  0.4807
 4894TIP3    H136241   2.884   1.285   1.387 -1.2426 -0.4140  0.7059
 4894TIP3    H236242   2.943   1.193   1.491  1.2893 -0.2598 -0.5130
 4895TIP3   OH236243   4.166   2.663   1.543  0.2505  0.2268 -1.0887
 4895TIP3    H136244   4.192   2.753   1.524 -0.3705  0.0703 -2.8057
 4895TIP3    H236245   4.090   2.647   1.488 -0.7738 -0.7859  0.5233
 4896TIP3   OH236246   3.294   5.654   2.269  0.0938 -0.1397 -0.2301
 4896TIP3    H136247   3.247   5.712   2.330 -0.0900  0.8125 -1.2334
 4896TIP3    H236248   3.358   5.711   2.226 -0.5642 -0.4937 -1.7535
 4897TIP3   OH236249   4.596   2.035   7.652 -0.7046 -0.0860  0.1101
 4897TIP3    H136250   4.683   2.073   7.661 -1.3030  1.1930  0.8123
 4897TIP3    H236251   4.568   2.020   7.742 -0.7341 -1.6723 -0.1351
 4898TIP3   OH236252   6.381   5.995   8.281  0.2569  0.1373  0.0667
 4898TIP3    H136253   6.325   6.002   8.203 -1.5691  0.7866  1.3780
 4898TIP3    H236254   6.415   5.906   8.278 -0.2999 -0.0584 -1.1219
 4899TIP3   OH236255   6.547   5.438   2.199 -0.0365 -0.3748  0.0507
 4899TIP3    H136256   6.557   5.533   2.197  1.6358 -0.5246 -0.3229
 4899TIP3    H236257   6.559   5.414   2.290  0.9813 -0.3316 -0.0568
 4900TIP3   OH236258   0.710   2.811   2.005  0.3894  0.1106  0.2166
 4900TIP3    H136259   0.625   2.852   1.992  0.8802  1.2383  0.4329
 4900TIP3    H236260   0.690   2.720   2.029 -0.7958  0.7458  1.7523
 4901TIP3   OH236261   2.580   2.684   2.061 -0.3310 -0.4061 -0.3019
 4901TIP3    H136262   2.581   2.715   2.151  0.3303 -1.4581  0.0759
 4901TIP3    H236263   2.500   2.721   2.023  0.0747  1.1637  0.2936
 4902TIP3   OH236264   6.854   3.779   8.170  0.1087 -0.4862 -0.7560
 4902TIP3    H136265   6.835   3.686   8.157  2.3097 -1.1903  0.5986
 4902TIP3    H236266   6.940   3.781   8.212  0.0037  2.1665 -0.4784
 4903TIP3   OH236267   5.024   0.312   6.739 -0.1577  0.1104 -0.3857
 4903TIP3    H136268   4.965   0.241   6.715  0.6692 -0.1926 -1.5940
 4903TIP3    H236269   5.102   0.268   6.773 -0.0208  0.4720 -0.2194
 4904TIP3   OH236270   0.102   2.903   0.362  0.7135 -0.5517  0.3118
 4904TIP3    H136271   0.136   2.993   0.362  2.7688 -1.2775 -0.2283
 4904TIP3    H236272   0.109   2.875   0.271  0.6431 -1.4565  0.5777
 4905TIP3   OH236273   5.805   5.517   1.787  0.1532 -0.5373 -0.2217
 4905TIP3    H136274   5.806   5.612   1.804 -2.2547 -0.3154 -0.8466
 4905TIP3    H236275   5.726   5.486   1.832  1.8464 -2.6207  1.4697
 4906TIP3   OH236276   0.802   1.759   7.421  0.3432 -0.3992  0.3695
 4906TIP3    H136277   0.788   1.818   7.495 -0.1548  0.5731 -0.4845
 4906TIP3    H236278   0.757   1.678   7.446 -1.3390  0.4988  0.4303
 4907TIP3   OH236279   1.524   3.638   0.444 -0.1238 -0.4103 -0.0416
 4907TIP3    H136280   1.455   3.687   0.487 -0.3015 -1.6985  1.2249
 4907TIP3    H236281   1.588   3.619   0.513  1.3990  0.5318 -1.1235
 4908TIP3   OH236282   6.460   3.357   0.616  0.8149 -0.4421 -0.3634
 4908TIP3    H136283   6.450   3.370   0.711  0.7237 -0.5701 -0.3552
 4908TIP3    H236284   6.503   3.272   0.608  2.9995  0.5921 -0.3521
 4909TIP3   OH236285   0.490   0.558   8.379  0.3230 -0.4465  0.1071
 4909TIP3    H136286   0.405   0.597   8.401  0.1377 -0.8637  0.1428
 4909TIP3    H236287   0.480   0.530   8.288  1.0484  1.1750 -0.5139
 4910TIP3   OH236288   2.497   1.121   7.526 -0.2784  0.2818 -0.2670
 4910TIP3    H136289   2.530   1.138   7.437  2.4847  1.3297  0.8355
 4910TIP3    H236290   2.484   1.207   7.564  1.7082 -0.0235  1.3193
 4911TIP3   OH236291   5.420   5.786   8.083  0.4421  0.0418  0.6822
 4911TIP3    H136292   5.479   5.746   8.020  0.3176  1.0916 -0.1282
 4911TIP3    H236293   5.353   5.828   8.030 -0.4036 -0.1631  1.5598
 4912TIP3   OH236294   1.759   4.834   1.212 -0.2224 -0.1374 -0.2968
 4912TIP3    H136295   1.749   4.871   1.299  0.5349  1.8048 -0.9863
 4912TIP3    H236296   1.759   4.739   1.226 -0.8417  0.1122  1.7081
 4913TIP3   OH236297   0.323   3.024   7.649 -0.3669  0.4544 -0.0526
 4913TIP3    H136298   0.336   3.078   7.727 -2.1942  1.1394 -0.1766
 4913TIP3    H236299   0.263   2.955   7.677 -1.3464  0.9285 -0.9237
 4914TIP3   OH236300   1.073   0.051   6.596  0.0814 -0.2351 -0.4347
 4914TIP3    H136301   0.989   0.005   6.606 -1.2079  2.2207  0.9780
 4914TIP3    H236302   1.068   0.089   6.508 -0.9137  0.9660  0.1124
 4915TIP3   OH236303   0.939   1.768   1.429 -0.3590  0.0080  0.3587
 4915TIP3    H136304   0.853   1.785   1.466  1.1457  2.6739  3.0478
 4915TIP3    H236305   1.000   1.790   1.499  2.6968  3.2688 -2.8802
 4916TIP3   OH236306   3.157   6.391   6.696 -0.1485  0.1036  0.4044
 4916TIP3    H136307   3.217   6.337   6.748 -1.2240 -0.5303  1.0359
 4916TIP3    H236308   3.124   6.332   6.629 -2.9542 -0.7773  2.3617
 4917TIP3   OH236309   6.299   6.203   0.625  0.7738  0.2013 -0.3323
 4917TIP3    H136310   6.313   6.219   0.718  2.0351  1.2386 -0.6826
 4917TIP3    H236311   6.225   6.260   0.602  0.7030  0.2239 -0.0555
 4918TIP3   OH236312   0.548   2.505   7.312 -0.3003 -0.3101 -0.1484
 4918TIP3    H136313   0.469   2.539   7.352 -0.5731 -0.9977 -0.0920
 4918TIP3    H236314   0.608   2.488   7.385 -0.2277 -0.1069 -0.1614
 4919TIP3   OH236315   5.203   5.963   7.579  0.2758 -0.2055  0.4587
 4919TIP3    H136316   5.277   5.959   7.640  0.4649 -2.9640  0.1581
 4919TIP3    H236317   5.130   5.995   7.632  1.0807  0.0759  1.4262
 4920TIP3   OH236318   2.579   6.842   1.938 -0.6676 -0.2310 -0.5092
 4920TIP3    H136319   2.552   6.882   1.855 -1.3722  0.2220 -0.0734
 4920TIP3    H236320   2.582   6.914   2.000  1.4915 -0.2840 -0.4857
 4921TIP3   OH236321   2.016   0.729   0.141 -0.0193 -0.0262  0.2753
 4921TIP3    H136322   2.050   0.646   0.107  1.2402  0.6327 -0.1228
 4921TIP3    H236323   2.093   0.774   0.176 -0.8401  0.5717  1.3663
 4922TIP3   OH236324   4.461   5.771   7.168  0.6147  0.1797 -0.3368
 4922TIP3    H136325   4.390   5.786   7.105  1.8699 -0.8774 -2.1018
 4922TIP3    H236326   4.419   5.724   7.240 -0.8392  1.3017 -0.3962
 4923TIP3   OH236327   2.557   0.936   0.723  0.1676 -0.4083  0.0789
 4923TIP3    H136328   2.606   0.978   0.653 -0.4738  2.4814  1.2396
 4923TIP3    H236329   2.488   0.999   0.746 -1.3625 -2.4381  1.4716
 4924TIP3   OH236330   0.649   6.353   0.786  0.1511 -0.6210 -0.2084
 4924TIP3    H136331   0.710   6.420   0.816 -2.6556  1.8035  0.6557
 4924TIP3    H236332   0.668   6.277   0.842  1.1456  0.6750  1.3262
 4925TIP3   OH236333   4.424   1.285   6.482  0.0972  0.1131  0.1533
 4925TIP3    H136334   4.415   1.226   6.407 -0.3120  0.3640  0.0039
 4925TIP3    H236335   4.519   1.297   6.492  0.1497  0.1359 -0.3708
 4926TIP3   OH236336   0.171   5.693   6.733  0.4023 -0.3818  0.2442
 4926TIP3    H136337   0.105   5.716   6.669  1.3943  1.2340 -0.2700
 4926TIP3    H236338   0.190   5.601   6.717  0.2987 -0.1230 -1.4884
 4927TIP3   OH236339   0.330   0.413   6.245 -0.0904 -0.2941  0.8361
 4927TIP3    H136340   0.361   0.325   6.269 -0.6213 -1.0167 -0.9747
 4927TIP3    H236341   0.279   0.400   6.165 -1.6677  1.4309  1.4800
 4928TIP3   OH236342   1.440   0.774   7.845 -0.2550  0.4369 -0.1424
 4928TIP3    H136343   1.390   0.796   7.767  1.1476  0.0885 -1.1835
 4928TIP3    H236344   1.423   0.847   7.905 -1.7312  0.4736 -0.5676
 4929TIP3   OH236345   5.867   4.668   1.832  0.3419 -0.0658 -0.3470
 4929TIP3    H136346   5.942   4.678   1.891 -0.4353 -0.1236  0.6873
 4929TIP3    H236347   5.868   4.747   1.778 -1.0154  1.8869  2.2214
 4930TIP3   OH236348   4.150   5.362   7.669 -0.6358  0.7986 -0.4617
 4930TIP3    H136349   4.116   5.448   7.692  0.0182  1.3477 -1.5159
 4930TIP3    H236350   4.126   5.307   7.744  0.4461  2.2639  1.0498
 4931TIP3   OH236351   0.410   4.071   1.417 -0.0474 -0.2821 -0.4201
 4931TIP3    H136352   0.347   4.054   1.348 -0.7985 -0.0558  0.1983
 4931TIP3    H236353   0.411   3.991   1.470 -1.0688  0.3044  0.5275
 4932TIP3   OH236354   3.413   3.390   6.682 -0.4146  0.1506  0.2843
 4932TIP3    H136355   3.347   3.458   6.665  0.1652  1.1226  1.7266
 4932TIP3    H236356   3.477   3.432   6.740  0.7414 -1.1993  0.0531
 4933TIP3   OH236357   1.023   3.421   6.938 -0.2242 -0.1713  0.2658
 4933TIP3    H136358   0.951   3.373   6.897  0.1690  0.8492 -1.7535
 4933TIP3    H236359   0.991   3.510   6.946  0.3153 -0.0088  0.6751
 4934TIP3   OH236360   5.237   6.184   8.561 -0.0523 -0.0428 -0.4837
 4934TIP3    H136361   5.282   6.153   8.482 -0.7659 -0.4113 -0.7573
 4934TIP3    H236362   5.174   6.115   8.581 -1.1607  0.8941 -0.6706
 4935TIP3   OH236363   5.391   1.996   0.221  0.1751 -0.4212 -0.1064
 4935TIP3    H136364   5.380   1.917   0.274 -0.9700 -0.3692 -0.2622
 4935TIP3    H236365   5.371   2.068   0.281  0.6975 -0.2601 -0.1129
 4936TIP3   OH236366   3.823   1.853   6.996  0.2657  0.2626 -0.4787
 4936TIP3    H136367   3.861   1.921   7.051 -1.7684  0.5057  0.7571
 4936TIP3    H236368   3.735   1.886   6.975 -0.4219 -1.5475 -0.6344
 4937TIP3   OH236369   4.858   2.788   8.656 -0.2896  0.4135 -0.3619
 4937TIP3    H136370   4.837   2.807   8.564 -0.8322  2.9214  0.2112
 4937TIP3    H236371   4.843   2.694   8.665 -0.1056  0.0734 -2.8555
 4938TIP3   OH236372   0.305   6.063   0.036  0.0437  0.6160 -0.2799
 4938TIP3    H136373   0.261   6.102   0.112  1.4629  1.5016  0.1228
 4938TIP3    H236374   0.340   6.137  -0.012  3.6878 -0.0365  1.0366
 4939TIP3   OH236375   5.459   0.610   6.935  0.2565 -0.0792 -0.0215
 4939TIP3    H136376   5.480   0.697   6.901 -0.2003  0.2346  0.4809
 4939TIP3    H236377   5.526   0.592   7.000 -0.3366  0.4273  0.7493
 4940TIP3   OH236378   6.352   6.523   7.313  0.0789 -0.7404 -0.4747
 4940TIP3    H136379   6.344   6.486   7.225 -1.4593 -2.6511  0.4064
 4940TIP3    H236380   6.354   6.447   7.371 -1.5509  0.5109  1.3238
 4941TIP3   OH236381   1.807   1.204   8.088  0.8021  0.4736 -0.0015
 4941TIP3    H136382   1.795   1.110   8.101  0.5710  0.5344  0.2381
 4941TIP3    H236383   1.836   1.212   7.997  1.4343  0.1196  0.1631
 4942TIP3   OH236384   3.187   5.310   1.091 -0.1179 -0.1102 -0.1351
 4942TIP3    H136385   3.234   5.308   1.175 -1.2203 -1.7821  0.5056
 4942TIP3    H236386   3.131   5.387   1.097 -0.8004 -0.6670  1.0628
 4943TIP3   OH236387   3.127   5.363   8.090  0.2735  0.4381  1.0152
 4943TIP3    H136388   3.073   5.285   8.104  0.5080  0.3952  1.7183
 4943TIP3    H236389   3.110   5.387   7.999 -2.0960  1.2915  1.6067
 4944TIP3   OH236390   5.978   2.004   7.145 -0.2970  0.1065 -0.4745
 4944TIP3    H136391   6.036   2.039   7.212 -0.0938  0.0549 -0.6221
 4944TIP3    H236392   5.911   2.071   7.134 -0.6456 -0.1234  0.1699
 4945TIP3   OH236393   1.606   1.849   1.482  0.2589 -0.4481  0.4885
 4945TIP3    H136394   1.693   1.889   1.485  0.2913 -0.4563 -0.1505
 4945TIP3    H236395   1.554   1.899   1.545  1.2274 -1.7057  2.3820
 4946TIP3   OH236396   6.390   1.760   7.380  0.1783  0.0846 -0.3680
 4946TIP3    H136397   6.383   1.854   7.398  0.7151 -0.1845  1.3515
 4946TIP3    H236398   6.479   1.749   7.346  1.4997 -0.2741  2.9256
 4947TIP3   OH236399   5.729   5.638   7.596  0.8113 -0.0375 -0.4622
 4947TIP3    H136400   5.664   5.605   7.659 -1.0951  1.1754 -1.7167
 4947TIP3    H236401   5.771   5.711   7.641  1.3731 -0.8374  0.3633
 4948TIP3   OH236402   6.675   6.056   7.375 -0.0128  0.0242 -0.0223
 4948TIP3    H136403   6.764   6.078   7.348 -0.8646  0.9863 -2.2687
 4948TIP3    H236404   6.678   5.962   7.393  0.8097 -0.6942 -3.2897
 4949TIP3   OH236405   6.227   5.431   2.313  0.3161 -0.1004 -0.3108
 4949TIP3    H136406   6.245   5.517   2.274  0.1703  0.6935  1.2749
 4949TIP3    H236407   6.314   5.396   2.333  0.3616  0.0181 -0.2947
 4950TIP3   OH236408   3.923   3.506   7.251 -0.3889 -0.5291 -0.2836
 4950TIP3    H136409   3.962   3.436   7.199  2.3266 -0.4875  1.4818
 4950TIP3    H236410   3.972   3.585   7.227 -0.7940 -0.0100  0.5266
 4951TIP3   OH236411   3.545   6.398   8.628  0.1644  0.3360  0.4306
 4951TIP3    H136412   3.627   6.387   8.676  0.0416  1.5688  0.9586
 4951TIP3    H236413   3.564   6.363   8.540  1.5008  1.2752  0.3117
 4952TIP3   OH236414   2.300   5.759   6.301 -0.2502  0.1855 -0.0923
 4952TIP3    H136415   2.383   5.734   6.260 -1.1155  0.0392 -1.8544
 4952TIP3    H236416   2.241   5.686   6.281 -0.7693  0.1888  1.3099
 4953TIP3   OH236417   2.488   6.758   0.712  0.1561  0.5463 -0.2348
 4953TIP3    H136418   2.483   6.834   0.655 -1.6578  0.5217 -0.1687
 4953TIP3    H236419   2.475   6.792   0.800 -1.1901  0.1541 -0.2492
 4954TIP3   OH236420   6.704   5.139   7.745 -0.0642 -0.5889 -0.1769
 4954TIP3    H136421   6.784   5.173   7.704  1.0087 -1.5780  1.0006
 4954TIP3    H236422   6.652   5.217   7.765  1.4856  0.2549  0.7622
 4955TIP3   OH236423   0.536   4.704   8.499 -0.0375  0.5723  0.2306
 4955TIP3    H136424   0.566   4.629   8.449 -0.8241  0.1663  0.3615
 4955TIP3    H236425   0.596   4.708   8.574 -0.2423 -0.1639  0.4343
 4956TIP3   OH236426   0.790   3.677   2.455 -0.1225 -0.5051  0.0768
 4956TIP3    H136427   0.767   3.611   2.391  0.8463 -0.7622 -0.0287
 4956TIP3    H236428   0.883   3.661   2.474  0.6043  1.8218 -1.1615
 4957TIP3   OH236429   2.646   0.702   0.586 -0.1652 -0.0039  1.0997
 4957TIP3    H136430   2.591   0.772   0.618  2.6400  3.4388 -0.8392
 4957TIP3    H236431   2.728   0.711   0.635  0.9608 -0.5338 -0.5742
 4958TIP3   OH236432   0.401   6.587   6.557  0.3188 -0.2151 -0.0542
 4958TIP3    H136433   0.489   6.607   6.589 -0.8870  1.2666  2.7664
 4958TIP3    H236434   0.375   6.664   6.507 -0.2214  0.4539  1.2150
 4959TIP3   OH236435   0.083   0.889   6.602  0.1548  0.0137 -0.2019
 4959TIP3    H136436   0.049   0.885   6.692  1.2175 -0.8964  0.1932
 4959TIP3    H236437   0.019   0.840   6.550  0.0983 -0.4189  0.2660
 4960TIP3   OH236438   4.556   5.440   1.729 -0.2035 -0.1697  0.2941
 4960TIP3    H136439   4.648   5.419   1.746  0.0731 -0.8431 -1.7187
 4960TIP3    H236440   4.514   5.435   1.815  1.7735  1.0402  1.4171
 4961TIP3   OH236441   4.682   5.438   6.612 -0.4594  0.6333  0.2797
 4961TIP3    H136442   4.745   5.498   6.652  1.2101  1.8836 -3.6797
 4961TIP3    H236443   4.725   5.352   6.614  0.7364  1.1679 -0.9321
 4962TIP3   OH236444   2.942   4.856   1.190 -0.5202  0.4552  0.4481
 4962TIP3    H136445   3.026   4.827   1.225 -0.7316 -1.2687 -0.3823
 4962TIP3    H236446   2.964   4.899   1.107 -0.4161  0.5105  0.5047
 4963TIP3   OH236447   1.212   0.891   7.267  0.2076  0.3400 -0.7584
 4963TIP3    H136448   1.134   0.836   7.278  0.7174 -0.7056 -2.1265
 4963TIP3    H236449   1.194   0.968   7.320 -1.1028 -0.5559  0.1626
 4964TIP3   OH236450   1.813   0.957   7.157 -0.4095  0.1597  0.4912
 4964TIP3    H136451   1.781   0.870   7.134  0.9254 -0.5229  1.1110
 4964TIP3    H236452   1.777   1.014   7.089 -1.1906 -0.8830 -0.0072
 4965TIP3   OH236453   1.370   6.738   0.019 -0.7104  0.1680  0.1190
 4965TIP3    H136454   1.334   6.694  -0.058 -0.6629  1.1348 -0.4705
 4965TIP3    H236455   1.452   6.691   0.036  0.4752  1.3672 -1.8595
 4966TIP3   OH236456   4.286   4.612   8.638 -0.0425 -0.1268  0.0093
 4966TIP3    H136457   4.226   4.579   8.704 -2.0799 -0.8896 -2.0895
 4966TIP3    H236458   4.347   4.668   8.686 -0.2044 -2.1465  2.7710
 4967TIP3   OH236459   2.551   5.494   2.153 -0.2595  0.1318 -0.3585
 4967TIP3    H136460   2.553   5.426   2.221 -0.7279 -0.5997 -1.0527
 4967TIP3    H236461   2.643   5.513   2.136 -0.1180 -0.5350 -0.3577
 4968TIP3   OH236462   1.896   4.408   8.214  0.0523  0.1585  0.3197
 4968TIP3    H136463   1.913   4.337   8.277  1.3537 -2.9106 -3.1199
 4968TIP3    H236464   1.801   4.413   8.208 -0.0863 -1.7017  0.3303
 4969TIP3   OH236465   4.750   1.745   1.462 -0.0472  0.3175  0.0801
 4969TIP3    H136466   4.735   1.838   1.446  0.0953  0.3027 -0.1440
 4969TIP3    H236467   4.797   1.715   1.384 -0.0015  0.0815  0.1992
 4970TIP3   OH236468   2.297   3.723   6.742  0.0909  0.4988  0.0129
 4970TIP3    H136469   2.300   3.627   6.736  2.2403  0.6179 -2.4831
 4970TIP3    H236470   2.206   3.746   6.722 -0.6582 -1.0088  1.4638
 4971TIP3   OH236471   2.460   0.720   0.384  0.0175 -0.1964  0.0092
 4971TIP3    H136472   2.402   0.667   0.439 -1.6266 -0.1568 -1.5853
 4971TIP3    H236473   2.544   0.720   0.430 -0.4312 -2.6543  0.9866
 4972TIP3   OH236474   6.653   4.183   2.103 -0.6996 -0.4250 -0.5060
 4972TIP3    H136475   6.625   4.251   2.164  0.5356  1.6067 -2.0517
 4972TIP3    H236476   6.572   4.143   2.073 -1.3840 -0.9213  1.7553
 4973TIP3   OH236477   6.111   0.258   0.268  0.0917  0.4834  0.0700
 4973TIP3    H136478   6.025   0.249   0.309 -0.3341  2.0732 -0.3805
 4973TIP3    H236479   6.138   0.347   0.290  0.7378  0.6791 -1.4172
 4974TIP3   OH236480   2.905   2.508   1.010 -0.2823 -0.1236  0.3257
 4974TIP3    H136481   2.889   2.415   1.025 -1.5282 -0.1161 -0.7425
 4974TIP3    H236482   2.819   2.549   1.017  0.3058  1.0317  1.1993
 4975TIP3   OH236483   3.455   4.689   7.450  0.1694 -0.1583 -0.2421
 4975TIP3    H136484   3.537   4.682   7.402  1.8398  0.6439  2.3063
 4975TIP3    H236485   3.460   4.774   7.494 -1.1414 -0.9070  1.4717
 4976TIP3   OH236486   6.372   2.173   1.313  0.1302 -0.2542 -0.0675
 4976TIP3    H136487   6.406   2.221   1.237  0.5520  0.1948  0.3998
 4976TIP3    H236488   6.448   2.157   1.368 -0.2193 -0.3223  0.4029
 4977TIP3   OH236489   5.049   5.519   2.180  0.4793 -0.5399  0.1047
 4977TIP3    H136490   5.089   5.443   2.138  1.2059 -1.3983  2.2092
 4977TIP3    H236491   4.955   5.504   2.170  0.6042 -0.1893 -2.0198
 4978TIP3   OH236492   5.452   1.595   6.770  0.4891 -0.1312 -0.2410
 4978TIP3    H136493   5.468   1.519   6.714 -1.6906 -0.3080 -0.7195
 4978TIP3    H236494   5.380   1.641   6.727 -0.1982  0.6062  1.6186
 4979TIP3   OH236495   1.162   0.080   7.926 -0.2117  0.3189  0.0897
 4979TIP3    H136496   1.134  -0.003   7.965 -1.6211  0.5466 -0.4012
 4979TIP3    H236497   1.122   0.147   7.981  0.7153  0.6851  0.3348
 4980TIP3   OH236498   5.393   1.054   0.489  0.0030 -0.0825  0.5433
 4980TIP3    H136499   5.357   0.977   0.445 -0.4201 -0.5934  1.7221
 4980TIP3    H236500   5.484   1.058   0.461  0.4067 -1.8116  1.4468
 4981TIP3   OH236501   5.085   6.665   8.411 -0.2336  0.1113  1.0950
 4981TIP3    H136502   5.137   6.603   8.462 -0.2702 -0.5873  0.3080
 4981TIP3    H236503   5.082   6.627   8.323  1.9452  2.4812 -0.1227
 4982TIP3   OH236504   3.032   5.922   8.510 -0.5117  0.2158 -0.2804
 4982TIP3    H136505   2.971   5.992   8.486  0.5819  1.8334  1.3602
 4982TIP3    H236506   3.119   5.959   8.493  0.0982 -0.6457  0.8085
 4983TIP3   OH236507   3.091   2.018   7.185  0.3128 -0.1273 -0.2038
 4983TIP3    H136508   3.031   2.075   7.138 -0.6192 -0.9191 -0.0006
 4983TIP3    H236509   3.155   2.077   7.224 -0.2134  0.7112 -0.5977
 4984TIP3   OH236510   3.293   5.217   8.630  0.8462  0.6407  0.0286
 4984TIP3    H136511   3.265   5.194   8.718  0.1740  0.4559 -0.2255
 4984TIP3    H236512   3.302   5.313   8.632  1.0491  0.6162  0.3535
 4985TIP3   OH236513   5.163   0.661   7.677 -0.6510  0.5073  0.3943
 4985TIP3    H136514   5.163   0.575   7.719 -0.2655  0.8022  1.0124
 4985TIP3    H236515   5.114   0.648   7.596  1.2512 -0.8303 -0.6109
 4986TIP3   OH236516   2.182   1.801   8.290 -0.7387 -0.3265 -0.1785
 4986TIP3    H136517   2.152   1.872   8.346 -0.6096 -0.0203 -0.4950
 4986TIP3    H236518   2.241   1.842   8.227 -0.2756 -0.7938 -0.0621
 4987TIP3   OH236519   0.595   0.426   6.697  0.1306 -0.1444  0.3197
 4987TIP3    H136520   0.602   0.512   6.654 -0.3531 -0.5760 -0.6471
 4987TIP3    H236521   0.590   0.364   6.625  0.4826 -0.9928  1.0184
 4988TIP3   OH236522   0.913   1.303   8.317  0.5302  0.2187 -0.4493
 4988TIP3    H136523   0.834   1.258   8.347  0.3552 -0.2410 -1.5542
 4988TIP3    H236524   0.887   1.394   8.306  0.6342  0.4300  0.8752
 4989TIP3   OH236525   0.204   0.790   0.087 -0.5038 -0.6121 -0.5608
 4989TIP3    H136526   0.215   0.832   0.173  0.3650  0.1891 -1.0387
 4989TIP3    H236527   0.160   0.708   0.106 -0.6072 -0.3063  0.6227
 4990TIP3   OH236528   0.516   2.834   0.137  0.1533  0.1537 -0.2654
 4990TIP3    H136529   0.581   2.763   0.134  0.4857  0.4178  0.3001
 4990TIP3    H236530   0.517   2.862   0.229 -2.4195 -1.3465  0.3234
 4991TIP3   OH236531   5.499   3.317   0.886  0.2922  0.2481  0.6110
 4991TIP3    H136532   5.464   3.330   0.797  1.6305  0.2447  0.0665
 4991TIP3    H236533   5.434   3.262   0.929  1.0244 -2.3295 -1.3250
 4992TIP3   OH236534   0.181   5.963   6.835 -0.3141 -0.0523  0.4406
 4992TIP3    H136535   0.203   5.873   6.810 -0.4926 -0.1943  0.7876
 4992TIP3    H236536   0.158   6.006   6.753  0.5234 -0.1079  0.1722
 4993TIP3   OH236537   6.534   4.454   0.830  0.3812  0.0296 -0.2220
 4993TIP3    H136538   6.621   4.452   0.870  1.4772  0.7828 -2.4056
 4993TIP3    H236539   6.547   4.495   0.745 -2.5182  2.2305  0.2387
 4994TIP3   OH236540   5.462   1.550   7.273  0.5258  0.4327 -0.3154
 4994TIP3    H136541   5.501   1.536   7.186 -0.4404  1.8673 -1.0259
 4994TIP3    H236542   5.454   1.645   7.280 -2.7901  0.2539 -0.2335
 4995TIP3   OH236543   1.520   5.808   6.704  0.1092  0.0583  0.3837
 4995TIP3    H136544   1.435   5.778   6.672  0.1474  0.9672 -0.6172
 4995TIP3    H236545   1.515   5.903   6.701  0.9486  0.1305  0.9190
 4996TIP3   OH236546   2.962   4.715   6.873  0.3220  0.5976 -0.0592
 4996TIP3    H136547   2.995   4.781   6.812  1.6933  0.9816  1.0438
 4996TIP3    H236548   2.895   4.760   6.923 -0.7011  0.3252 -1.1360
 4997TIP3   OH236549   0.675   0.549   8.037 -0.0398  0.4495 -0.4474
 4997TIP3    H136550   0.611   0.515   8.100  0.0878 -1.4269 -1.2735
 4997TIP3    H236551   0.629   0.549   7.953  1.1233 -1.4061 -1.1474
 4998TIP3   OH236552   3.907   5.011   7.122 -0.5187  0.1249  0.4329
 4998TIP3    H136553   3.982   5.010   7.063 -1.0317 -0.1255 -0.2253
 4998TIP3    H236554   3.904   4.923   7.159 -1.6297 -0.4855 -1.0276
 4999TIP3   OH236555   5.906   3.800   1.060 -0.1810  0.6085  0.1086
 4999TIP3    H136556   5.908   3.719   1.009  0.0902  0.7811 -0.1636
 4999TIP3    H236557   5.973   3.855   1.019  0.5427  0.4818  1.0888
 5000TIP3   OH236558   3.370   2.908   0.568  0.2848 -0.2786  0.0482
 5000TIP3    H136559   3.327   2.927   0.651 -0.7361  0.1267 -0.5492
 5000TIP3    H236560   3.416   2.826   0.583 -1.1563 -1.0378  0.5669
 5001TIP3   OH236561   3.339   4.325   7.164  0.7646 -1.0308 -0.5988
 5001TIP3    H136562   3.359   4.416   7.142 -0.3646 -0.6050  0.0314
 5001TIP3    H236563   3.308   4.286   7.083 -0.1976 -0.4110 -0.5458
 5002TIP3   OH236564   5.650   2.124   1.514  0.6151  0.1712 -0.3716
 5002TIP3    H136565   5.726   2.135   1.458  0.8517  0.5299  0.0148
 5002TIP3    H236566   5.686   2.113   1.602  0.2346 -0.0151 -0.2363
 5003TIP3   OH236567   2.470   5.852   1.273 -0.3441  0.3852 -0.0543
 5003TIP3    H136568   2.433   5.876   1.188  1.3494  0.8481 -0.6954
 5003TIP3    H236569   2.534   5.785   1.253 -1.3047 -0.9337  1.1229
 5004TIP3   OH236570   5.885   2.797   2.090 -0.4164  0.2936  0.1955
 5004TIP3    H136571   5.875   2.748   2.172  0.8839  1.5185  1.1503
 5004TIP3    H236572   5.961   2.757   2.048  0.4003  1.1894  0.7833
 5005TIP3   OH236573   1.985   3.253   8.298  0.1803  0.4055 -0.2674
 5005TIP3    H136574   2.021   3.211   8.375 -1.9437  0.0045  0.5657
 5005TIP3    H236575   1.987   3.347   8.318 -0.4924  0.2928  0.3431
 5006TIP3   OH236576   0.725   2.515   0.490  0.0624  0.7809  0.4123
 5006TIP3    H136577   0.678   2.547   0.413  2.8365  2.3542 -0.8165
 5006TIP3    H236578   0.710   2.421   0.490  0.3472  0.6255 -2.4239
 5007TIP3   OH236579   2.819   2.072   0.730 -0.0726  0.1063  0.6890
 5007TIP3    H136580   2.908   2.106   0.737  0.4381 -0.6767 -1.4705
 5007TIP3    H236581   2.828   1.979   0.750  0.6919 -1.2394 -4.6303
 5008TIP3   OH236582   4.539   2.310   8.040 -0.4877  0.0795  0.4739
 5008TIP3    H136583   4.489   2.334   8.118 -1.7820  1.4103 -0.7152
 5008TIP3    H236584   4.529   2.215   8.034  0.6956 -0.2374  2.5980
 5009TIP3   OH236585   2.181   2.463   6.586  0.0348  0.0529 -0.2563
 5009TIP3    H136586   2.227   2.385   6.556  2.0431  0.2374  2.0663
 5009TIP3    H236587   2.217   2.480   6.673 -2.1704  2.1271  0.3431
 5010TIP3   OH236588   4.018   6.263   6.285  1.1027 -0.2520  0.0777
 5010TIP3    H136589   4.104   6.279   6.247  0.2806  1.3592 -1.2227
 5010TIP3    H236590   3.963   6.240   6.210  0.2113 -0.4091  0.7666
 5011TIP3   OH236591   1.130   1.197   8.653  0.1533  0.0231 -0.2432
 5011TIP3    H136592   1.174   1.215   8.569 -0.9687  1.4623 -0.5658
 5011TIP3    H236593   1.198   1.211   8.719  0.9374 -0.6936 -0.8716
 5012TIP3   OH236594   6.395   6.798   0.790  0.9085 -0.3182  1.1682
 5012TIP3    H136595   6.389   6.749   0.708  1.4370 -0.5045  1.2395
 5012TIP3    H236596   6.438   6.738   0.850 -0.0661 -0.4259  1.7811
 5013TIP3   OH236597   4.602   0.614   1.060  0.0657  0.8025  0.0691
 5013TIP3    H136598   4.582   0.705   1.038 -0.2664  0.5575 -0.6753
 5013TIP3    H236599   4.590   0.610   1.155  0.3867  1.6060  0.1556
 5014TIP3   OH236600   6.775   6.129   1.244  0.2209 -0.3312 -0.0391
 5014TIP3    H136601   6.812   6.208   1.204  0.2419  0.2656  1.1232
 5014TIP3    H236602   6.691   6.118   1.200  0.3366  0.1779 -0.4117
 5015TIP3   OH236603   5.668   5.995   0.171  0.2077  0.2829  0.0348
 5015TIP3    H136604   5.624   5.910   0.176  1.0883 -0.3088 -1.6193
 5015TIP3    H236605   5.596   6.058   0.175 -1.0103 -0.6617 -3.1310
 5016TIP3   OH236606   4.546   1.240   8.164 -0.6698 -0.2530  0.6195
 5016TIP3    H136607   4.615   1.210   8.105  0.8482  0.7694  1.8135
 5016TIP3    H236608   4.465   1.229   8.114  0.4584 -0.3401 -1.2626
 5017TIP3   OH236609   2.834   4.615   0.220  0.2899 -0.1342 -0.1530
 5017TIP3    H136610   2.899   4.645   0.283 -1.0948 -0.7969  1.6951
 5017TIP3    H236611   2.757   4.593   0.274 -0.6352 -1.6500 -1.9776
 5018TIP3   OH236612   4.046   4.982   1.641 -0.1902  0.3598  0.1117
 5018TIP3    H136613   4.058   5.067   1.684  0.0225 -0.2796  1.3462
 5018TIP3    H236614   3.989   4.932   1.700  0.0568 -0.5161 -0.3696
 5019TIP3   OH236615   5.973   5.010   8.473 -0.2582  0.7416  0.6069
 5019TIP3    H136616   5.969   5.062   8.392 -0.7393  0.7474  0.6298
 5019TIP3    H236617   5.902   5.045   8.527 -1.1536 -0.5243  0.2774
 5020TIP3   OH236618   0.544   2.703   0.642 -0.0828  0.2973  0.3605
 5020TIP3    H136619   0.519   2.695   0.550  0.3404  0.9332  0.1794
 5020TIP3    H236620   0.585   2.790   0.648  2.3287 -0.7690  0.5672
 5021TIP3   OH236621   2.179   4.632   0.998 -0.1237  0.1295 -0.2946
 5021TIP3    H136622   2.109   4.696   1.016  2.0957  2.4097  0.9372
 5021TIP3    H236623   2.212   4.656   0.912  0.1572  0.1235 -0.1903
 5022TIP3   OH236624   5.626   6.134   6.922 -0.4152 -0.6777 -0.3043
 5022TIP3    H136625   5.692   6.144   6.854 -1.7928  1.0673 -1.4613
 5022TIP3    H236626   5.564   6.071   6.887 -1.5401  0.7962 -1.0753
 5023TIP3   OH236627   6.404   2.768   0.069  0.0353 -0.3728  1.1073
 5023TIP3    H136628   6.319   2.809   0.053  1.1904  1.1988 -1.7705
 5023TIP3    H236629   6.456   2.837   0.112  0.5295 -0.5095  0.7352
 5024TIP3   OH236630   5.184   4.131   0.908  0.2312  0.6600  0.8660
 5024TIP3    H136631   5.214   4.221   0.892  2.7469 -0.1290  0.7640
 5024TIP3    H236632   5.127   4.138   0.984  0.6945  2.2827  1.1094
 5025TIP3   OH236633   5.036   6.530   1.862 -0.3655  0.7155 -0.2067
 5025TIP3    H136634   5.003   6.614   1.894  0.3391  0.1395  2.3026
 5025TIP3    H236635   5.087   6.495   1.936  2.5750 -0.1991 -2.4854
 5026TIP3   OH236636   3.941   4.039   8.641 -0.0099 -0.1720 -0.5031
 5026TIP3    H136637   4.001   3.964   8.643  0.0133 -0.1513 -0.4040
 5026TIP3    H236638   3.917   4.053   8.733 -0.5857 -0.5142 -0.5959
 5027TIP3   OH236639   6.854   4.540   8.365  0.1991  0.0874  0.3384
 5027TIP3    H136640   6.950   4.548   8.361  0.3869 -1.7667  0.4403
 5027TIP3    H236641   6.824   4.584   8.285  1.0917  1.0312  0.4933
 5028TIP3   OH236642   0.026   3.279   6.976 -0.5287  0.9139  0.1488
 5028TIP3    H136643   0.001   3.363   7.015 -0.8563  0.3623  1.1471
 5028TIP3    H236644   0.022   3.295   6.882 -2.9145  1.3835  0.2676
 5029TIP3   OH236645   0.648   1.371   1.609 -0.0052  0.1360 -0.3763
 5029TIP3    H136646   0.693   1.453   1.630 -1.0297  0.9741 -1.2772
 5029TIP3    H236647   0.555   1.394   1.612 -0.2994 -0.9359 -0.8657
 5030TIP3   OH236648   2.365   0.708   8.700  0.2020 -0.4333 -0.3906
 5030TIP3    H136649   2.427   0.766   8.657  0.3023 -0.1900  0.0783
 5030TIP3    H236650   2.324   0.762   8.768  0.3927 -0.9363  0.1413
 5031TIP3   OH236651   4.727   2.713   2.341 -0.0894  0.0226 -0.0247
 5031TIP3    H136652   4.645   2.706   2.293  0.1838 -0.1388 -0.4782
 5031TIP3    H236653   4.786   2.651   2.298  0.2418  0.0572  0.3601
 5032TIP3   OH236654   0.285   3.941   0.943  0.2683 -0.3576  0.0253
 5032TIP3    H136655   0.329   3.918   0.861  2.3964 -0.5388  1.1503
 5032TIP3    H236656   0.303   4.035   0.953 -0.6781 -0.1553 -0.0845
 5033TIP3   OH236657   2.725   2.841   8.617 -0.0917 -0.6946  0.2582
 5033TIP3    H136658   2.636   2.876   8.623  0.1103 -0.0282 -0.4216
 5033TIP3    H236659   2.742   2.804   8.704 -0.1238  1.4172  1.2375
 5034TIP3   OH236660   6.079   5.198   1.048  0.8401  0.0122  0.6889
 5034TIP3    H136661   6.048   5.274   1.097  2.2813  1.0915 -0.0165
 5034TIP3    H236662   6.005   5.137   1.049 -0.3228  1.3879  1.3339
 5035TIP3   OH236663   5.645   1.283   0.214  0.1174 -0.9545  0.0888
 5035TIP3    H136664   5.707   1.355   0.203  0.2415 -1.2746 -1.5643
 5035TIP3    H236665   5.564   1.315   0.173  0.6980 -2.3522 -2.3691
 5036TIP3   OH236666   4.469   6.420   0.383 -0.4340 -0.0362  0.2690
 5036TIP3    H136667   4.533   6.458   0.443  0.0016  0.2773 -0.3746
 5036TIP3    H236668   4.522   6.363   0.326 -0.2400  2.1335 -1.9186
 5037TIP3   OH236669   4.535   2.882   6.792 -0.0191 -0.3377 -0.4352
 5037TIP3    H136670   4.596   2.954   6.776  2.3556 -2.3208 -0.9372
 5037TIP3    H236671   4.578   2.805   6.754 -1.1774 -2.5251  2.2544
 5038TIP3   OH236672   0.878   0.616   0.397  0.2953  0.4730 -0.7873
 5038TIP3    H136673   0.793   0.604   0.437  1.3779 -2.6068  0.8778
 5038TIP3    H236674   0.904   0.705   0.422  1.0038 -1.0744  6.1586
 5039TIP3   OH236675   4.818   2.376   7.606 -0.2794 -0.1385  0.4544
 5039TIP3    H136676   4.861   2.312   7.662  1.0737  0.0800 -0.2921
 5039TIP3    H236677   4.875   2.453   7.608  0.7006 -0.6509 -2.3635
 5040TIP3   OH236678   4.195   2.573   0.125  0.7699 -0.2099 -0.2339
 5040TIP3    H136679   4.270   2.517   0.102  0.3994 -0.2121 -1.5190
 5040TIP3    H236680   4.230   2.635   0.189  0.9010 -2.6278  2.2205
 5041TIP3   OH236681   4.139   1.457   7.328  0.1674 -0.1002  0.1815
 5041TIP3    H136682   4.104   1.456   7.417 -0.0320 -0.9896  0.1062
 5041TIP3    H236683   4.062   1.451   7.272  0.2633  0.9041 -0.0691
 5042TIP3   OH236684   5.079   0.069   1.616 -0.0801  0.3440  0.0566
 5042TIP3    H136685   5.140  -0.005   1.605 -0.5681 -0.0446 -0.0790
 5042TIP3    H236686   5.050   0.063   1.707 -1.2985 -0.5795 -0.3528
 5043TIP3   OH236687   4.392   5.617   8.687  0.0954  0.2238 -0.6295
 5043TIP3    H136688   4.335   5.644   8.616  0.6358  0.5123 -0.9632
 5043TIP3    H236689   4.374   5.524   8.699 -1.8355  0.6894  0.5703
 5044TIP3   OH236690   0.490   4.701   6.907  0.3221 -0.8146 -0.2455
 5044TIP3    H136691   0.526   4.660   6.986  0.1970 -0.2659  0.1017
 5044TIP3    H236692   0.506   4.637   6.838  0.6461 -1.2035  0.1794
 5045TIP3   OH236693   5.827   4.851   2.516 -0.0617  0.1942  0.0211
 5045TIP3    H136694   5.784   4.923   2.561  0.3349  0.7211 -0.4273
 5045TIP3    H236695   5.756   4.806   2.470 -0.5724 -0.7153  1.6143
 5046TIP3   OH236696   6.010   3.289   7.077  0.0697  0.2235  0.2781
 5046TIP3    H136697   6.012   3.374   7.120 -0.2591  0.0516  0.6322
 5046TIP3    H236698   5.982   3.309   6.987 -1.0992  0.3642  0.6622
 5047TIP3   OH236699   0.119   6.019   8.533  0.1132  0.2974  0.5770
 5047TIP3    H136700   0.194   5.997   8.589  0.0833 -2.3121 -0.2653
 5047TIP3    H236701   0.156   6.033   8.446 -0.2744  0.0001  0.3597
 5048TIP3   OH236702   3.585   6.322   7.825  0.1072 -0.3300  0.2976
 5048TIP3    H136703   3.680   6.336   7.819  0.1743  0.3184  2.2229
 5048TIP3    H236704   3.574   6.260   7.898 -0.9822  0.1829  0.5910
 5049TIP3   OH236705   2.530   0.247   0.650  0.2940  1.0067  0.4633
 5049TIP3    H136706   2.600   0.205   0.699  0.8976  1.8420  0.3546
 5049TIP3    H236707   2.477   0.292   0.716 -2.9336 -3.2057  1.1846
 5050TIP3   OH236708   3.944   1.255   0.374 -0.0376 -0.0254  0.1957
 5050TIP3    H136709   3.969   1.254   0.281  0.3681 -0.3725  0.3039
 5050TIP3    H236710   4.026   1.274   0.420 -0.2637  0.2752  0.4796
 5051TIP3   OH236711   3.304   0.036   7.500 -0.2264 -0.2966 -0.4187
 5051TIP3    H136712   3.373   0.099   7.521  0.0435 -1.2269  1.8661
 5051TIP3    H236713   3.351  -0.044   7.478 -0.5435 -0.5937 -0.0351
 5052TIP3   OH236714   3.699   1.901   0.095  0.1545  0.2616 -0.5836
 5052TIP3    H136715   3.748   1.885   0.176 -2.5469 -0.1866  1.0741
 5052TIP3    H236716   3.722   1.990   0.071  0.3611  0.7321  1.1932
 5053TIP3   OH236717   6.259   2.369   7.699 -0.1290  0.6106 -0.2854
 5053TIP3    H136718   6.303   2.323   7.628  0.7054 -0.6874  1.0005
 5053TIP3    H236719   6.168   2.376   7.671  0.0128 -0.6013 -1.1310
 5054TIP3   OH236720   6.573   5.390   8.120  0.1803  0.0919 -0.7316
 5054TIP3    H136721   6.547   5.482   8.121 -0.7997 -0.1570 -1.5202
 5054TIP3    H236722   6.669   5.392   8.123  0.1635  1.1231 -0.4560
 5055TIP3   OH236723   6.357   0.715   7.589  0.1160  0.2036 -0.4465
 5055TIP3    H136724   6.277   0.705   7.641  0.0953 -0.4771 -0.6014
 5055TIP3    H236725   6.424   0.668   7.639 -0.5542 -3.2860 -2.5043
 5056TIP3   OH236726   5.473   0.155   0.761  0.3097  0.6879  0.0904
 5056TIP3    H136727   5.401   0.198   0.715 -1.9353 -0.5255  2.2252
 5056TIP3    H236728   5.502   0.219   0.826 -0.8240  0.2214  1.0986
 5057TIP3   OH236729   1.866   1.538   8.662 -0.2776  0.1387 -0.4708
 5057TIP3    H136730   1.815   1.524   8.742  3.0517  0.2682  1.8844
 5057TIP3    H236731   1.862   1.454   8.616  0.0117 -0.9276  1.3338
 5058TIP3   OH236732   2.491   3.389   2.371  0.3695  0.0488  0.1957
 5058TIP3    H136733   2.552   3.402   2.298 -0.6009  0.6298 -0.5452
 5058TIP3    H236734   2.501   3.297   2.395 -0.3447 -0.5687 -1.6757
 5059TIP3   OH236735   3.475   0.047   1.603 -0.0474  0.0336  0.4256
 5059TIP3    H136736   3.524   0.004   1.673 -0.9185 -0.5254  0.7075
 5059TIP3    H236737   3.396   0.080   1.645 -0.4812 -0.1205 -0.2508
 5060TIP3   OH236738   3.334   6.548   7.646  0.6267 -0.1765  1.0297
 5060TIP3    H136739   3.425   6.578   7.638  0.4695  0.7694  2.5067
 5060TIP3    H236740   3.342   6.455   7.669  1.1321 -0.9112 -1.6746
 5061TIP3   OH236741   5.640   6.779   6.780  0.1079  0.2339  0.2143
 5061TIP3    H136742   5.647   6.873   6.765  1.4028  0.0862 -0.2215
 5061TIP3    H236743   5.621   6.743   6.693  0.2756  0.0351  0.2596
 5062TIP3   OH236744   5.945   4.003   7.397 -0.1794 -0.0864 -0.2131
 5062TIP3    H136745   5.941   4.042   7.484 -0.8920  1.8643 -1.0593
 5062TIP3    H236746   5.931   4.077   7.337  1.9611 -1.0757 -2.0523
 5063TIP3   OH236747   3.685   3.257   7.384 -0.0632 -0.1237 -0.0237
 5063TIP3    H136748   3.606   3.270   7.437 -0.7591 -2.2941 -0.4334
 5063TIP3    H236749   3.749   3.223   7.446  0.4640  1.3104  0.2383
 5064TIP3   OH236750   6.616   1.435   1.507  0.0408 -0.5943 -0.9643
 5064TIP3    H136751   6.563   1.498   1.459  2.1054  0.4186 -2.0516
 5064TIP3    H236752   6.679   1.402   1.442 -0.4802 -3.2639 -0.2521
 5065TIP3   OH236753   3.950   3.517   6.444  0.5034 -0.0760  0.0317
 5065TIP3    H136754   3.862   3.492   6.472  0.6562 -1.3937 -0.5890
 5065TIP3    H236755   3.992   3.548   6.524 -0.9910  2.1179  0.0632
 5066TIP3   OH236756   5.648   2.139   1.860 -0.2736 -0.2568 -0.4192
 5066TIP3    H136757   5.604   2.207   1.911 -0.3432  0.1885 -1.0514
 5066TIP3    H236758   5.714   2.186   1.809 -2.0099 -0.2157 -2.8185
 5067TIP3   OH236759   3.212   6.766   1.773 -0.2487 -0.6634  0.6857
 5067TIP3    H136760   3.226   6.856   1.743  0.8598 -1.3337 -1.0144
 5067TIP3    H236761   3.189   6.774   1.865 -2.3660  1.4757  0.0499
 5068TIP3   OH236762   1.811   4.311   1.172 -0.5882  0.0724 -0.0141
 5068TIP3    H136763   1.825   4.371   1.245 -1.7772  0.3025  0.0442
 5068TIP3    H236764   1.849   4.355   1.097 -0.9642  0.6585  0.1338
 5069TIP3   OH236765   6.016   6.060   8.311 -0.0193 -0.1448 -0.2750
 5069TIP3    H136766   5.985   5.980   8.269 -2.1962 -0.2268  1.2955
 5069TIP3    H236767   5.952   6.127   8.287  1.0739  0.8264 -0.5465
 5070TIP3   OH236768   5.250   3.880   0.781 -0.3272  0.0411 -0.1436
 5070TIP3    H136769   5.156   3.865   0.780 -0.3322 -0.0126  0.7324
 5070TIP3    H236770   5.260   3.970   0.813 -0.1377  0.6388 -1.7733
 5071TIP3   OH236771   1.475   4.159   2.738  0.0384  0.0207  0.1729
 5071TIP3    H136772   1.518   4.241   2.714 -0.4990  0.3094  0.1664
 5071TIP3    H236773   1.436   4.177   2.824 -1.5952  0.3687 -0.6080
 5072TIP3   OH236774   3.017   6.782   7.309 -0.9466 -0.7600 -0.8819
 5072TIP3    H136775   3.050   6.871   7.325  0.2969 -1.1496 -1.2554
 5072TIP3    H236776   2.978   6.757   7.393  0.9243 -0.7925  0.0378
 5073TIP3   OH236777   5.925   1.955   2.031 -0.0813  0.1154  0.7589
 5073TIP3    H136778   5.979   2.034   2.022  1.7634 -1.0934  0.6822
 5073TIP3    H236779   5.955   1.898   1.960 -1.1178 -0.8096  1.0493
 5074TIP3   OH236780   5.917   1.234   7.675  0.2246  0.3470 -0.5392
 5074TIP3    H136781   5.935   1.224   7.768  1.3781 -1.5810 -0.9159
 5074TIP3    H236782   5.972   1.309   7.649 -0.4977  1.2255  0.3978
 5075TIP3   OH236783   5.247   4.761   6.425 -0.1623  0.2058 -0.1592
 5075TIP3    H136784   5.171   4.726   6.380 -0.2701  1.8805 -1.3746
 5075TIP3    H236785   5.233   4.856   6.426  1.1697  0.4313  0.9907
 5076TIP3   OH236786   1.358   6.536   6.187 -0.4126  0.3130 -0.4419
 5076TIP3    H136787   1.317   6.498   6.110 -0.9218 -1.9027  0.8470
 5076TIP3    H236788   1.287   6.580   6.233 -0.9663 -1.6734  0.6849
 5077TIP3   OH236789   5.542   0.431   0.217  0.1765  0.3040  0.2458
 5077TIP3    H136790   5.496   0.352   0.245 -1.5648  1.0620 -0.3591
 5077TIP3    H236791   5.506   0.500   0.272  2.4276  0.5767  1.5010
 5078TIP3   OH236792   0.346   5.817   0.628  0.3123  0.0270  0.4198
 5078TIP3    H136793   0.313   5.737   0.669 -2.0603  1.3489  1.3073
 5078TIP3    H236794   0.297   5.824   0.546 -0.3194  1.1074  0.8732
 5079TIP3   OH236795   2.011   3.863   2.759 -0.1542  0.0325  0.5020
 5079TIP3    H136796   2.065   3.943   2.754 -1.8443  1.1547 -3.1905
 5079TIP3    H236797   2.069   3.793   2.729  0.1484  0.6308 -0.3312
 5080TIP3   OH236798   1.586   4.879   0.715 -0.4379  0.2083 -0.0435
 5080TIP3    H136799   1.522   4.927   0.663  0.6010  1.6397 -0.0915
 5080TIP3    H236800   1.548   4.876   0.803 -0.9862  0.2190 -0.2769
 5081TIP3   OH236801   5.744   3.895   0.206  0.1265  0.9889 -0.5453
 5081TIP3    H136802   5.654   3.879   0.177  0.1772  0.4103 -0.3892
 5081TIP3    H236803   5.738   3.892   0.302  0.4394  0.2467 -0.5478
 5082TIP3   OH236804   6.240   5.596   0.531  0.3361  0.0043  0.0763
 5082TIP3    H136805   6.173   5.535   0.563  1.5654 -1.3741  0.0999
 5082TIP3    H236806   6.207   5.625   0.446 -0.6271 -0.0877  0.4051
 5083TIP3   OH236807   2.595   5.828   0.442 -0.0934 -0.4061 -0.2924
 5083TIP3    H136808   2.525   5.767   0.417 -0.5895  0.4420 -1.0527
 5083TIP3    H236809   2.569   5.911   0.401  1.9282 -0.3416 -1.5498
 5084TIP3   OH236810   1.363   6.421   1.608 -0.2801 -0.0061 -0.3503
 5084TIP3    H136811   1.303   6.356   1.571 -1.3800 -1.1209  3.0174
 5084TIP3    H236812   1.334   6.504   1.571 -2.3685 -0.8125 -0.6761
 5085TIP3   OH236813   4.791   6.682   8.484 -0.1196  0.6055 -0.1790
 5085TIP3    H136814   4.788   6.609   8.422 -0.5911 -3.4374  4.0548
 5085TIP3    H236815   4.883   6.709   8.485  0.3574 -0.8882 -0.9257
 5086TIP3   OH236816   6.031   2.340   1.056  0.4077  0.3003 -0.7249
 5086TIP3    H136817   6.010   2.384   0.973  0.9772  0.7344 -0.6461
 5086TIP3    H236818   6.101   2.280   1.034 -0.1290 -0.3187 -0.7579
 5087TIP3   OH236819   5.891   4.170   0.750  0.0284  0.0728  0.4147
 5087TIP3    H136820   5.872   4.141   0.660 -0.4740  1.7605 -0.0611
 5087TIP3    H236821   5.965   4.230   0.741 -0.0424  0.2754  1.1233
 5088TIP3   OH236822   1.778   1.194   0.903 -0.1270 -0.1673 -0.2620
 5088TIP3    H136823   1.734   1.171   0.821  1.0575  0.2393 -1.0349
 5088TIP3    H236824   1.756   1.122   0.962 -1.3495 -0.2569 -0.7860
 5089TIP3   OH236825   5.835   6.678   1.689 -0.1218  0.2354 -0.3065
 5089TIP3    H136826   5.786   6.626   1.753 -2.5196 -0.1103 -2.2678
 5089TIP3    H236827   5.809   6.768   1.705  1.6317  0.5531  1.0737
 5090TIP3   OH236828   2.075   3.654   2.600 -0.5477  0.1991 -0.1743
 5090TIP3    H136829   2.127   3.579   2.572  0.6315  0.8385  0.2520
 5090TIP3    H236830   2.075   3.712   2.525 -1.8006 -0.3715 -0.6492
 5091TIP3   OH236831   4.361   0.771   2.173 -0.0430  0.3358 -0.0737
 5091TIP3    H136832   4.274   0.736   2.157 -0.1696  0.6320 -0.0340
 5091TIP3    H236833   4.384   0.741   2.261  1.4755 -3.0268 -1.4407
 5092TIP3   OH236834   1.989   6.034   7.886  0.2604  0.6690  0.4924
 5092TIP3    H136835   1.902   6.064   7.861  0.7800  1.9036  0.1191
 5092TIP3    H236836   2.046   6.109   7.873  1.8747 -0.8019 -1.8173
 5093TIP3   OH236837   1.233   0.922   7.738  0.2774 -0.4263  0.0285
 5093TIP3    H136838   1.252   0.999   7.793  0.4372 -0.3481 -0.1327
 5093TIP3    H236839   1.252   0.952   7.649  0.3239 -0.6484 -0.0359
 5094TIP3   OH236840   4.353   6.313   6.949 -0.0542 -0.3840 -0.4315
 5094TIP3    H136841   4.411   6.308   7.025 -0.2508  0.0991 -0.2455
 5094TIP3    H236842   4.342   6.407   6.933 -0.9224 -0.4612 -0.3540
 5095TIP3   OH236843   1.426   4.953   1.278 -0.1749 -0.3184  0.2270
 5095TIP3    H136844   1.332   4.959   1.261  0.0063  2.0772 -0.3198
 5095TIP3    H236845   1.434   4.885   1.344 -2.3399 -0.2775  0.6089
 5096TIP3   OH236846   1.584   2.973   1.072 -0.5658 -0.8929  0.4003
 5096TIP3    H136847   1.595   3.037   1.142 -0.3953 -1.3102  0.7603
 5096TIP3    H236848   1.673   2.957   1.040 -0.5759 -1.1422  0.4902
 5097TIP3   OH236849   0.862   4.632   8.063  0.0178 -0.1755  0.0508
 5097TIP3    H136850   0.862   4.537   8.075 -0.3732 -0.1641  0.1608
 5097TIP3    H236851   0.818   4.646   7.980  0.7753 -0.1309 -0.3471
 5098TIP3   OH236852   0.039   1.316   7.026  0.2963 -0.3816  0.1453
 5098TIP3    H136853   0.072   1.226   7.026  0.7825 -0.2191  1.5660
 5098TIP3    H236854  -0.052   1.308   6.998  1.2243 -0.9128 -3.2230
 5099TIP3   OH236855   6.227   1.276   0.264 -0.0515 -0.5891  0.5368
 5099TIP3    H136856   6.135   1.301   0.258  0.2149  0.8647  1.8526
 5099TIP3    H236857   6.227   1.195   0.315 -0.7303 -1.8952 -1.4286
 5100TIP3   OH236858   2.878   4.013   0.947 -0.0154 -0.0371  0.5103
 5100TIP3    H136859   2.827   4.094   0.944 -0.9463 -0.5013  2.0691
 5100TIP3    H236860   2.887   3.995   1.041  2.4937 -0.3472  0.2642
 5101TIP3   OH236861   0.885   5.557   1.395 -0.1706  0.3204 -0.1754
 5101TIP3    H136862   0.942   5.505   1.452 -1.0649 -1.5093 -0.8660
 5101TIP3    H236863   0.941   5.627   1.362  1.2327 -0.4780  0.4273
 5102TIP3   OH236864   6.856   4.054   1.978  0.6347  0.0509  0.5555
 5102TIP3    H136865   6.842   3.959   1.985  0.6807 -0.0178 -0.2683
 5102TIP3    H236866   6.781   4.092   2.024 -0.7308 -0.3654 -1.2339
 5103TIP3   OH236867   4.621   1.868   6.332  0.0540  0.1809 -0.4570
 5103TIP3    H136868   4.663   1.849   6.249  0.5941 -0.4819 -0.0455
 5103TIP3    H236869   4.643   1.959   6.351  0.2675  0.2068 -0.8415
 5104TIP3   OH236870   3.009   2.913   7.079  0.6339  0.1023 -0.4344
 5104TIP3    H136871   3.063   2.842   7.044 -0.9122 -1.4385  0.1630
 5104TIP3    H236872   3.072   2.978   7.109  2.1015 -0.8746 -1.2810
 5105TIP3   OH236873   1.131   6.234   8.098 -0.4968 -0.0480  0.0907
 5105TIP3    H136874   1.040   6.262   8.106 -0.2182  0.9191 -0.0516
 5105TIP3    H236875   1.126   6.149   8.054 -1.4800 -1.2236  2.3092
 5106TIP3   OH236876   5.589   0.846   0.318  0.8469 -0.1951  0.0707
 5106TIP3    H136877   5.494   0.851   0.324  0.7874  0.1957 -0.9116
 5106TIP3    H236878   5.606   0.822   0.226  1.6248 -2.9164  0.8304
 5107TIP3   OH236879   0.059   1.193   1.077 -0.5395 -0.0424  0.3332
 5107TIP3    H136880   0.154   1.188   1.063 -0.7411 -0.9786 -0.9016
 5107TIP3    H236881   0.029   1.102   1.069 -1.9012  0.5462 -2.2634
 5108TIP3   OH236882   2.500   2.917   7.534 -0.4490  0.3586  0.1839
 5108TIP3    H136883   2.592   2.942   7.541 -0.4556  1.3268 -2.3016
 5108TIP3    H236884   2.455   2.972   7.598  0.4502  1.4699 -0.1052
 5109TIP3   OH236885   3.649   3.025   7.565  0.3706  0.1052 -0.5963
 5109TIP3    H136886   3.743   3.043   7.552  0.5037  2.0668  2.1954
 5109TIP3    H236887   3.642   2.997   7.656 -1.9169  1.5960 -0.2344
 5110TIP3   OH236888   2.893   2.983   7.821 -0.4457 -0.3153  0.1914
 5110TIP3    H136889   2.801   3.011   7.815 -0.5130 -0.4276  0.6762
 5110TIP3    H236890   2.890   2.888   7.815 -0.2790 -0.2725 -0.6944
 5111TIP3   OH236891   3.494   1.659   6.935  0.3699  0.6733  0.5547
 5111TIP3    H136892   3.443   1.601   6.878  0.2639  1.6324 -0.3513
 5111TIP3    H236893   3.567   1.605   6.965  0.2150  0.0300 -0.1930
 5112TIP3   OH236894   2.237   0.188   8.141 -0.8911  0.0626  0.0326
 5112TIP3    H136895   2.173   0.247   8.181 -1.0135  0.5786 -0.9032
 5112TIP3    H236896   2.203   0.171   8.053 -0.6753 -1.1324  0.1625
 5113TIP3   OH236897   4.664   2.127   0.178  0.0372 -0.1646 -0.2659
 5113TIP3    H136898   4.741   2.153   0.229  1.1781  0.2810 -2.1084
 5113TIP3    H236899   4.649   2.035   0.201  1.3472 -0.3546 -0.1250
 5114TIP3   OH236900   0.909   2.121   0.702  0.1347 -1.0517  0.3401
 5114TIP3    H136901   0.954   2.198   0.668 -2.5532  1.5685  2.2079
 5114TIP3    H236902   0.879   2.074   0.624  1.1936  0.1826 -0.8599
 5115TIP3   OH236903   1.046   6.396   7.565  0.2754 -0.5222 -0.5308
 5115TIP3    H136904   1.105   6.413   7.492 -0.5274  0.1102 -1.0444
 5115TIP3    H236905   1.092   6.331   7.619  2.3173  1.4067  0.1631
 5116TIP3   OH236906   2.727   3.333   1.711  0.2441  0.0632 -0.1951
 5116TIP3    H136907   2.773   3.306   1.631  0.8107  0.4839 -0.0135
 5116TIP3    H236908   2.688   3.417   1.689 -0.5276 -0.3400 -0.3805
 5117TIP3   OH236909   5.765   0.582   7.875 -0.2352  0.8789 -0.2125
 5117TIP3    H136910   5.800   0.605   7.789  1.3059 -2.1542 -0.5319
 5117TIP3    H236911   5.834   0.607   7.937  0.2894 -0.3357 -0.2873
 5118TIP3   OH236912   3.780   5.225   2.318  0.2798 -0.2196 -0.2841
 5118TIP3    H136913   3.857   5.240   2.373  0.3075  0.5317 -0.5187
 5118TIP3    H236914   3.709   5.270   2.365 -0.0564 -1.0240  0.0032
 5119TIP3   OH236915   4.527   3.815   1.610 -0.1446  0.3737  0.2736
 5119TIP3    H136916   4.529   3.730   1.567  0.4247  0.4006  0.2380
 5119TIP3    H236917   4.449   3.812   1.666 -1.1546  0.5107 -1.0769
 5120TIP3   OH236918   5.151   2.666   0.551 -0.1216 -0.0595  0.2442
 5120TIP3    H136919   5.221   2.705   0.603 -0.8069  0.3660  0.8877
 5120TIP3    H236920   5.124   2.589   0.602  0.3821 -0.6611 -0.3854
 5121TIP3   OH236921   0.829   4.840   6.544  0.2879  0.4062  0.0244
 5121TIP3    H136922   0.854   4.764   6.598 -2.3487 -0.5070  0.1222
 5121TIP3    H236923   0.767   4.888   6.599  0.0041  1.2394 -1.0127
 5122TIP3   OH236924   2.418   6.385   6.737  0.2981 -0.5802  0.4139
 5122TIP3    H136925   2.326   6.400   6.760  0.7829  2.3262  0.8624
 5122TIP3    H236926   2.441   6.303   6.781 -1.4115 -0.0938  2.3758
 5123TIP3   OH236927   4.338   4.705   1.837 -0.3697 -0.3663 -1.1547
 5123TIP3    H136928   4.424   4.690   1.878 -0.8488 -1.9301 -0.6571
 5123TIP3    H236929   4.278   4.716   1.910 -0.5989  0.8998 -1.5046
 5124TIP3   OH236930   0.956   3.082   8.187 -0.3011 -0.1413 -0.1301
 5124TIP3    H136931   0.909   3.007   8.224 -2.2439  1.1839  0.2272
 5124TIP3    H236932   0.923   3.090   8.098 -0.7204  0.7635  0.0987
 5125TIP3   OH236933   1.345   5.146   2.018 -0.3822 -0.4134  0.4559
 5125TIP3    H136934   1.264   5.182   2.055 -0.7097  0.8261 -1.2987
 5125TIP3    H236935   1.323   5.056   1.994 -1.3618 -0.0078 -0.2532
 5126TIP3   OH236936   5.095   5.115   1.434  0.4405 -0.0736  0.3379
 5126TIP3    H136937   5.098   5.147   1.524  0.7298  0.7060  0.0604
 5126TIP3    H236938   5.145   5.033   1.435 -2.2854 -1.8754  1.5641
 5127TIP3   OH236939   5.356   6.772   1.611  0.6919  0.2431  0.5231
 5127TIP3    H136940   5.349   6.745   1.702  1.2824  0.4647  0.6368
 5127TIP3    H236941   5.427   6.837   1.610  0.9992 -0.0927 -0.1602
 5128TIP3   OH236942   4.088   6.737   1.601  0.1045  0.5588  0.1909
 5128TIP3    H136943   4.088   6.662   1.542  0.5777  2.5799 -2.5383
 5128TIP3    H236944   4.171   6.730   1.649 -0.0416 -0.8548  0.2573
 5129TIP3   OH236945   0.300   1.142   0.527 -0.4273 -0.2912  0.4553
 5129TIP3    H136946   0.307   1.114   0.436 -1.9333 -0.1985  0.2906
 5129TIP3    H236947   0.333   1.232   0.527 -1.1101 -0.0270 -0.1557
 5130TIP3   OH236948   1.397   6.130   7.417 -0.1735  0.2781  0.1778
 5130TIP3    H136949   1.462   6.198   7.400 -1.0071  0.9899 -0.2975
 5130TIP3    H236950   1.446   6.057   7.454  0.6725  1.3313  1.2039
 5131TIP3   OH236951   1.756   5.936   0.649  0.1379  0.0675  0.7340
 5131TIP3    H136952   1.752   6.031   0.663  1.3439  0.1084  0.8679
 5131TIP3    H236953   1.809   5.926   0.570  0.7563 -0.5350  1.2266
 5132TIP3   OH236954   4.702   4.510   7.493  0.1727 -0.1375 -0.1235
 5132TIP3    H136955   4.719   4.556   7.575 -0.2422 -0.1039 -0.0535
 5132TIP3    H236956   4.635   4.563   7.449 -0.5875 -0.8602  0.1277
 5133TIP3   OH236957   5.362   2.521   8.320 -0.6713  0.1289 -0.0404
 5133TIP3    H136958   5.420   2.468   8.374 -0.1747  0.7196  0.0090
 5133TIP3    H236959   5.312   2.574   8.382  1.2509  2.2260 -0.1814
 5134TIP3   OH236960   1.281   0.671   0.612 -0.6499 -0.2165 -0.1346
 5134TIP3    H136961   1.204   0.696   0.662 -0.2865  0.9389 -0.1192
 5134TIP3    H236962   1.343   0.742   0.626  1.3339 -2.1547  1.7147
 5135TIP3   OH236963   0.020   1.523   7.181 -0.5931 -0.4487  0.4423
 5135TIP3    H136964   0.005   1.607   7.136  0.3588 -0.2953  0.3705
 5135TIP3    H236965  -0.014   1.457   7.121 -0.4673 -0.1630  0.0506
 5136TIP3   OH236966   5.189   1.567   7.422 -0.1413 -0.2126  0.1951
 5136TIP3    H136967   5.155   1.483   7.392  0.5762 -0.5216  0.2381
 5136TIP3    H236968   5.283   1.561   7.410 -0.2163  1.2238 -1.3650
 5137TIP3   OH236969   6.532   2.588   7.167  0.1036  0.5089  0.4197
 5137TIP3    H136970   6.488   2.662   7.125 -0.6784  0.0712  0.4479
 5137TIP3    H236971   6.599   2.628   7.223 -1.9838  1.3734  2.4508
 5138TIP3   OH236972   1.265   5.041   6.813 -0.1252  0.4817  0.0801
 5138TIP3    H136973   1.318   4.979   6.764  0.7460  0.7180  0.7099
 5138TIP3    H236974   1.187   4.992   6.838  0.2779 -0.1777  0.0524
 5139TIP3   OH236975   0.539   5.704   8.035  0.0354 -0.8725 -0.0717
 5139TIP3    H136976   0.558   5.625   8.086  0.0235 -0.7329  0.1490
 5139TIP3    H236977   0.624   5.745   8.022 -0.2008  0.4105  1.9796
 5140TIP3   OH236978   5.654   4.852   6.697 -0.1781 -0.2702  0.0932
 5140TIP3    H136979   5.643   4.922   6.761 -1.8449  0.4159 -0.8734
 5140TIP3    H236980   5.732   4.805   6.725  0.6021  1.5694  1.1527
 5141TIP3   OH236981   2.075   3.987   7.624  0.0170  0.0943 -0.0320
 5141TIP3    H136982   2.020   4.065   7.634 -1.8046 -1.2563  1.1113
 5141TIP3    H236983   2.106   3.968   7.712  0.9607 -0.1560 -0.4040
 5142TIP3   OH236984   2.083   1.940   8.694 -0.1019 -0.2772 -0.4947
 5142TIP3    H136985   1.997   1.961   8.730  0.5240  0.5112  0.6017
 5142TIP3    H236986   2.117   1.872   8.752 -0.7631 -2.0342 -2.0875
 5143TIP3   OH236987   5.743   4.351   0.156  0.5717  0.2116 -0.0195
 5143TIP3    H136988   5.700   4.356   0.242 -0.7844  0.4468 -0.6846
 5143TIP3    H236989   5.747   4.441   0.125  0.4504  0.0641 -0.4819
 5144TIP3   OH236990   1.238   1.666   1.256 -0.0523 -0.2425  0.4048
 5144TIP3    H136991   1.322   1.652   1.211 -0.5835 -0.3749 -0.5713
 5144TIP3    H236992   1.202   1.745   1.215 -0.8937 -0.7961  0.0451
 5145TIP3   OH236993   2.719   1.901   6.793  0.1671 -0.3006  0.1898
 5145TIP3    H136994   2.658   1.855   6.735 -0.3856 -0.5924  0.9808
 5145TIP3    H236995   2.732   1.987   6.751 -0.1122 -0.5544 -0.4262
 5146TIP3   OH236996   6.254   5.933   0.868 -0.6149 -0.3009 -0.0395
 5146TIP3    H136997   6.280   5.850   0.828 -2.4753 -1.2904  0.6770
 5146TIP3    H236998   6.209   5.980   0.799  0.8082  0.3377 -0.5690
 5147TIP3   OH236999   6.513   3.140   1.814  0.2486  0.4952  0.2164
 5147TIP3    H137000   6.419   3.131   1.831 -0.0510 -1.1380 -1.7966
 5147TIP3    H237001   6.555   3.085   1.880 -0.3634 -0.2508  0.0006
 5148TIP3   OH237002   1.351   5.648   1.722  0.7719 -0.4053 -0.1298
 5148TIP3    H137003   1.274   5.652   1.779  0.0862  0.6225 -1.0824
 5148TIP3    H237004   1.411   5.589   1.767  0.7708  1.2806  2.2409
 5149TIP3   OH237005   3.920   1.488   1.685  0.0696 -0.4514 -0.1169
 5149TIP3    H137006   3.907   1.544   1.762 -1.1850 -0.5152 -0.2643
 5149TIP3    H237007   4.012   1.461   1.691 -0.1296 -0.9037  1.6660
 5150TIP3   OH237008   3.175   0.227   6.891 -0.6474  0.3545 -0.1235
 5150TIP3    H137009   3.201   0.319   6.887  0.8969 -0.0787 -0.7513
 5150TIP3    H237010   3.095   0.228   6.943 -1.4838  2.2098 -1.3299
 5151TIP3   OH237011   5.474   2.016   6.197 -0.6129  0.5009  0.0309
 5151TIP3    H137012   5.459   1.953   6.268 -0.3420  2.1189  1.6035
 5151TIP3    H237013   5.569   2.016   6.184 -0.7160 -0.2251 -0.7626
 5152TIP3   OH237014   4.611   5.902   2.345 -0.9433 -0.3411 -0.5629
 5152TIP3    H137015   4.557   5.841   2.396 -0.8168 -0.7428 -0.8992
 5152TIP3    H237016   4.663   5.845   2.288 -1.2463  0.1069 -1.2992
 5153TIP3   OH237017   5.050   0.475   0.067 -0.0003  0.0403 -0.4958
 5153TIP3    H137018   5.027   0.386   0.039  2.2591 -0.3933 -1.1051
 5153TIP3    H237019   4.982   0.530   0.027 -1.8030 -1.4220  0.3954
 5154TIP3   OH237020   3.689   5.059   0.800  0.6277  0.2906 -0.2085
 5154TIP3    H137021   3.705   5.003   0.724 -3.0253  0.6097 -1.3855
 5154TIP3    H237022   3.668   4.999   0.871  0.8665  0.0865 -0.3076
 5155TIP3   OH237023   3.581   5.516   0.873 -0.1373 -0.1127 -0.0049
 5155TIP3    H137024   3.652   5.533   0.935 -0.2046 -0.9991  0.3341
 5155TIP3    H237025   3.596   5.577   0.801 -0.7367  1.7759  1.4073
 5156TIP3   OH237026   5.324   0.399   0.632 -0.2607  0.0238 -0.1940
 5156TIP3    H137027   5.337   0.437   0.545  0.2965 -0.1605 -0.1998
 5156TIP3    H237028   5.240   0.433   0.661  0.2174  1.2763 -0.1993
 5157TIP3   OH237029   4.771   6.295   8.460 -0.4033  0.0259 -0.3344
 5157TIP3    H137030   4.696   6.348   8.487 -1.5010 -0.2892 -2.5355
 5157TIP3    H237031   4.764   6.289   8.365  2.9698  0.7677 -0.7798
 5158TIP3   OH237032   6.064   3.570   6.579  0.9365 -0.3152 -0.2057
 5158TIP3    H137033   6.146   3.574   6.529  1.2079 -1.0434  0.1620
 5158TIP3    H237034   6.061   3.653   6.626  1.7054 -0.4591  0.1296
 5159TIP3   OH237035   6.472   0.973   8.388  0.3090 -0.0976 -0.3221
 5159TIP3    H137036   6.562   1.004   8.399  0.0556  0.6584 -0.3472
 5159TIP3    H237037   6.426   1.000   8.467 -0.1221  0.3516 -0.7158
 5160TIP3   OH237038   3.629   2.366   0.364 -0.5135  0.3081 -0.4156
 5160TIP3    H137039   3.597   2.319   0.288  3.7365 -1.0600 -1.5794
 5160TIP3    H237040   3.634   2.457   0.335 -2.0773  0.3935 -0.5328
 5161TIP3   OH237041   0.789   1.958   0.509  0.1446 -0.2905  0.2757
 5161TIP3    H137042   0.729   1.904   0.560 -1.1969  0.8380 -0.0634
 5161TIP3    H237043   0.820   1.900   0.439  0.6302 -1.3158  1.3033
 5162TIP3   OH237044   5.859   0.585   8.321  0.0376 -0.1374  0.0943
 5162TIP3    H137045   5.848   0.605   8.228 -1.8786  0.0608  0.3235
 5162TIP3    H237046   5.888   0.494   8.323  1.4856  0.2637 -0.7082
 5163TIP3   OH237047   6.120   1.795   1.088 -0.4683  0.0573 -0.2610
 5163TIP3    H137048   6.188   1.801   1.021 -0.1297 -1.3558 -0.0651
 5163TIP3    H237049   6.155   1.734   1.153 -0.4276  2.0159  1.6641
 5164TIP3   OH237050   1.358   4.122   7.061 -0.8343 -0.0143  0.5038
 5164TIP3    H137051   1.440   4.102   7.108 -0.2919 -1.0808 -0.8307
 5164TIP3    H237052   1.384   4.125   6.969 -1.3111  4.8264  0.3099
 5165TIP3   OH237053   3.619   1.138   7.905 -0.2573 -0.0841  0.0099
 5165TIP3    H137054   3.657   1.060   7.944 -0.1551  0.4910  1.1003
 5165TIP3    H237055   3.694   1.194   7.885 -0.4019  0.2688  0.4342
 5166TIP3   OH237056   5.159   2.608   6.272  0.2859 -0.4793  0.5365
 5166TIP3    H137057   5.102   2.560   6.212  0.1237 -1.2926  1.3076
 5166TIP3    H237058   5.113   2.605   6.356 -0.3966  2.2530  0.3470
 5167TIP3   OH237059   0.606   3.939   0.117  0.2173  0.0967  0.5077
 5167TIP3    H137060   0.595   3.854   0.074  0.0766  1.0218 -1.3771
 5167TIP3    H237061   0.552   3.999   0.066 -1.8027  0.9057  3.3463
 5168TIP3   OH237062   0.612   6.082   0.309 -0.0599 -0.0617  0.3409
 5168TIP3    H137063   0.592   6.129   0.390 -0.3110 -0.1438  0.3269
 5168TIP3    H237064   0.629   6.151   0.245 -1.6436  0.0455  0.0079
 5169TIP3   OH237065   1.475   0.991   7.604 -0.1280  0.2361  0.3178
 5169TIP3    H137066   1.455   1.067   7.549  2.0051  0.1430 -0.6743
 5169TIP3    H237067   1.516   1.028   7.682 -1.9881  0.2715  1.3411
 5170TIP3   OH237068   4.573   2.623   1.953 -0.8862  0.2293  0.1639
 5170TIP3    H137069   4.564   2.649   2.044  1.4848  1.4946  0.1380
 5170TIP3    H237070   4.655   2.665   1.925  0.0623 -2.5705 -1.6689
 5171TIP3   OH237071   3.952   5.384   0.648  0.6287  0.3090 -0.0616
 5171TIP3    H137072   3.881   5.449   0.650  1.1969  0.9768 -0.9036
 5171TIP3    H237073   3.953   5.353   0.557  1.1728  0.0318  0.0382
 5172TIP3   OH237074   5.952   6.303   7.253  0.0712  0.1299  0.0481
 5172TIP3    H137075   6.035   6.256   7.241 -0.6486 -1.0789 -0.3369
 5172TIP3    H237076   5.920   6.272   7.338 -0.8822 -0.8855 -0.6426
 5173TIP3   OH237077   0.044   3.079   0.626 -0.6292  0.4064 -0.6091
 5173TIP3    H137078   0.105   3.008   0.646 -1.4726 -0.6729 -1.7444
 5173TIP3    H237079  -0.020   3.075   0.698 -0.5221  0.1920 -0.5224
 5174TIP3   OH237080   3.338   4.716   0.604 -0.3126 -0.2725  0.2838
 5174TIP3    H137081   3.347   4.764   0.686  3.1147  0.0049 -0.0888
 5174TIP3    H237082   3.251   4.740   0.571 -1.2914  0.5514  3.1875
 5175TIP3   OH237083   3.914   2.084   7.119 -0.1116 -0.7174 -0.5044
 5175TIP3    H137084   3.951   2.172   7.123 -0.3464 -0.6173 -0.5482
 5175TIP3    H237085   3.970   2.032   7.177  0.1053 -0.5690 -0.5775
 5176TIP3   OH237086   3.380   6.108   0.682 -0.3013  0.1700  0.0593
 5176TIP3    H137087   3.370   6.062   0.765  0.7305 -2.0106 -0.9336
 5176TIP3    H237088   3.304   6.082   0.630 -1.2899  2.0372  0.4696
 5177TIP3   OH237089   2.887   6.430   8.475 -0.1953 -0.5113  0.3301
 5177TIP3    H137090   2.956   6.484   8.436 -1.3387  0.5826 -0.2448
 5177TIP3    H237091   2.918   6.413   8.564  0.3272  0.8847  0.4390
 5178TIP3   OH237092   5.976   5.696   1.554  0.2212  0.0878  0.5439
 5178TIP3    H137093   6.015   5.766   1.607  0.7272  0.3789 -0.2003
 5178TIP3    H237094   6.029   5.694   1.475 -1.1443  0.3239 -0.3981
 5179TIP3   OH237095   6.508   6.251   2.085  0.0836  0.1467  0.7718
 5179TIP3    H137096   6.455   6.324   2.054  0.1296  0.8147  2.1760
 5179TIP3    H237097   6.595   6.288   2.099  0.0899 -0.1453  1.5693
 5180TIP3   OH237098   5.326   3.804   8.104 -0.6364  0.6353  0.3543
 5180TIP3    H137099   5.417   3.774   8.104 -0.9664 -0.7482 -2.7998
 5180TIP3    H237100   5.333   3.899   8.097  0.5537  0.5873  0.6233
 5181TIP3   OH237101   1.743   1.403   0.723  0.2528 -0.7504 -0.4967
 5181TIP3    H137102   1.774   1.416   0.812  0.8695 -0.8059 -0.6930
 5181TIP3    H237103   1.653   1.374   0.732  0.4018 -1.0281  0.1196
 5182TIP3   OH237104   3.544   1.934   6.912  0.3740  0.0803  0.9424
 5182TIP3    H137105   3.512   1.977   6.834  0.0403  0.4329  1.2697
 5182TIP3    H237106   3.518   1.842   6.902  0.9231 -0.0164  0.3347
 5183TIP3   OH237107   6.500   6.711   1.762  0.1587  0.5140 -0.3912
 5183TIP3    H137108   6.503   6.786   1.703  0.1650  0.4492 -0.4732
 5183TIP3    H237109   6.408   6.701   1.784 -0.0595 -0.3919 -1.5835
 5184TIP3   OH237110   5.556   4.360   6.657 -0.0498  0.1994  0.4344
 5184TIP3    H137111   5.628   4.392   6.711  2.4844 -0.5693 -2.1690
 5184TIP3    H237112   5.546   4.426   6.588 -0.9539 -0.3421  0.0211
 5185TIP3   OH237113   5.219   6.392   6.896 -0.1916 -0.3198  0.0059
 5185TIP3    H137114   5.282   6.464   6.887  0.2938 -0.8714 -1.4381
 5185TIP3    H237115   5.266   6.326   6.947 -1.0812  0.8154  2.4222
 5186TIP3   OH237116   2.795   3.693   1.458 -0.5280 -0.4393  0.1273
 5186TIP3    H137117   2.741   3.639   1.515  1.7744 -0.6026  2.3728
 5186TIP3    H237118   2.838   3.755   1.518  1.8531 -0.4561 -1.4183
 5187TIP3   OH237119   3.705   1.789   8.140 -0.0570 -0.9414  0.1885
 5187TIP3    H137120   3.790   1.752   8.117  0.4817 -0.3813  1.2442
 5187TIP3    H237121   3.710   1.805   8.234 -0.3615  1.5529 -0.1746
 5188TIP3   OH237122   2.906   4.914   0.765  0.7698  0.5169 -0.0522
 5188TIP3    H137123   2.820   4.888   0.800  1.2252  0.2894  0.9227
 5188TIP3    H237124   2.915   5.006   0.788  0.1990  0.9436 -1.4005
 5189TIP3   OH237125   5.581   6.335   1.267  0.0282 -0.4287 -0.0356
 5189TIP3    H137126   5.606   6.387   1.343  0.8035  0.2778 -0.7539
 5189TIP3    H237127   5.589   6.396   1.193 -2.1651 -0.6449 -0.5369
 5190TIP3   OH237128   0.831   4.606   1.685  0.7226  0.5054  0.0494
 5190TIP3    H137129   0.790   4.644   1.762  0.6132 -1.3087  0.9272
 5190TIP3    H237130   0.914   4.653   1.676  1.5517 -0.3891  2.3512
 5191TIP3   OH237131   0.662   1.100   6.303  0.2185  0.2261  0.5840
 5191TIP3    H137132   0.699   1.015   6.281  0.1243  0.5939 -1.1627
 5191TIP3    H237133   0.715   1.163   6.253  1.1910  1.3678  2.9069
 5192TIP3   OH237134   5.831   6.101   1.092  0.2614  0.0292 -0.8965
 5192TIP3    H137135   5.821   6.156   1.169 -1.2137  0.3626 -1.2999
 5192TIP3    H237136   5.885   6.027   1.121 -1.0015 -0.3031  0.6758
 5193TIP3   OH237137   4.770   6.148   7.938  0.3932 -0.2757 -0.1342
 5193TIP3    H137138   4.749   6.057   7.920  0.6926 -0.3254 -0.2380
 5193TIP3    H237139   4.846   6.145   7.996 -0.1779 -0.1061  0.6386
 5194TIP3   OH237140   4.491   5.661   6.537 -0.3828  0.0951  0.5879
 5194TIP3    H137141   4.425   5.611   6.585 -0.1759 -2.0337 -1.1978
 5194TIP3    H237142   4.574   5.620   6.560 -0.2035 -0.4516 -0.9189
 5195TIP3   OH237143   2.719   6.808   8.569 -0.1278  0.1314 -0.3450
 5195TIP3    H137144   2.730   6.895   8.610  0.4239  0.3952 -1.0328
 5195TIP3    H237145   2.773   6.750   8.623 -1.8344 -0.1533  1.1673
 5196TIP3   OH237146   2.667   2.199   8.450 -0.7328 -0.6119 -0.6900
 5196TIP3    H137147   2.748   2.225   8.494 -0.7392  0.5370 -1.3323
 5196TIP3    H237148   2.646   2.272   8.392 -1.0518 -1.8194 -2.1709
 5197TIP3   OH237149   4.373   1.469   0.276 -0.8014 -0.0347 -0.1993
 5197TIP3    H137150   4.442   1.474   0.342 -0.1513 -1.0734 -0.7817
 5197TIP3    H237151   4.346   1.377   0.276 -0.4854 -0.1411 -1.6775
 5198TIP3   OH237152   0.388   0.046   7.971 -0.3311  0.3494  0.2831
 5198TIP3    H137153   0.394  -0.050   7.967 -1.1996  0.3120 -0.5746
 5198TIP3    H237154   0.416   0.068   8.060  1.4947 -0.5535 -0.0158
 5199TIP3   OH237155   0.108   5.308   0.529  0.6694  0.1294  0.4641
 5199TIP3    H137156   0.137   5.235   0.585  1.1757  0.5361  0.7370
 5199TIP3    H237157   0.021   5.331   0.562  0.5085 -0.3443  0.3816
 5200TIP3   OH237158   2.220   3.067   1.840 -0.2231  0.3048 -0.1648
 5200TIP3    H137159   2.235   3.144   1.785 -1.1374 -0.7028 -1.9267
 5200TIP3    H237160   2.225   3.100   1.930  2.3588  1.8377 -0.7712
 5201TIP3   OH237161   5.161   1.554   1.088  0.2773  0.2184  0.2442
 5201TIP3    H137162   5.152   1.576   1.180 -0.5933 -2.7168  0.9318
 5201TIP3    H237163   5.254   1.571   1.069  1.1897 -1.7914  2.4593
 5202TIP3   OH237164   6.150   6.163   1.303 -0.3341  0.1157 -0.1805
 5202TIP3    H137165   6.228   6.193   1.256 -0.7797  0.9526 -0.4106
 5202TIP3    H237166   6.115   6.093   1.248  0.1469 -0.1452 -0.1648
 5203TIP3   OH237167   3.438   4.126   0.611  0.0081  0.5601  0.2201
 5203TIP3    H137168   3.349   4.095   0.623  0.7456 -1.5588  0.6718
 5203TIP3    H237169   3.467   4.151   0.698  0.1414  0.4033  0.2215
 5204TIP3   OH237170   5.918   5.151   7.246 -0.0347  0.4875 -0.3457
 5204TIP3    H137171   5.973   5.084   7.288  0.8288  0.8947 -0.7931
 5204TIP3    H237172   5.898   5.213   7.316  2.3924  1.8042 -0.6991
 5205TIP3   OH237173   3.120   3.276   7.523 -0.6647  0.6475 -0.2785
 5205TIP3    H137174   3.067   3.330   7.465 -0.2791  1.8294  0.4310
 5205TIP3    H237175   3.160   3.338   7.584  1.2189 -0.2186 -0.5383
 5206TIP3   OH237176   2.847   0.970   6.195 -0.6946 -0.1569  0.0576
 5206TIP3    H137177   2.831   1.048   6.140  1.0816  1.2811  1.4715
 5206TIP3    H237178   2.835   1.001   6.285  0.2637 -1.4605  0.6689
 5207TIP3   OH237179   2.181   1.960   7.625  0.1595  0.6970  0.4878
 5207TIP3    H137180   2.222   2.046   7.635 -0.0676  0.9045 -0.2655
 5207TIP3    H237181   2.090   1.973   7.652  0.4406  0.3607  1.6593
 5208TIP3   OH237182   4.070   1.769   1.346  0.1472  0.0713 -0.1278
 5208TIP3    H137183   4.097   1.780   1.437 -1.2041 -0.5778  0.3890
 5208TIP3    H237184   4.092   1.678   1.326 -1.2021 -0.3488  0.1792
 5209TIP3   OH237185   6.406   0.278   8.040  0.0562  0.2797 -0.2785
 5209TIP3    H137186   6.376   0.205   7.985 -0.7872  0.0540  0.4584
 5209TIP3    H237187   6.342   0.282   8.111  2.4746 -1.0773  2.1322
 5210TIP3   OH237188   1.791   2.419   1.264  0.3643 -0.4024 -0.0813
 5210TIP3    H137189   1.760   2.391   1.350 -1.6029  1.1473 -0.1907
 5210TIP3    H237190   1.721   2.395   1.204  1.7457 -1.5424 -1.3216
 5211TIP3   OH237191   0.285   3.127   8.249 -0.3584  0.2764  0.0583
 5211TIP3    H137192   0.278   3.108   8.342  0.7355  1.0473  0.3239
 5211TIP3    H237193   0.269   3.043   8.205  1.1574 -0.5619  1.0364
 5212TIP3   OH237194   1.052   3.096   7.582 -0.5411 -0.2766  0.5000
 5212TIP3    H137195   1.042   3.002   7.594 -2.1825 -0.2779 -0.4626
 5212TIP3    H237196   0.970   3.123   7.540 -1.9542  2.2176  4.2817
 5213TIP3   OH237197   5.154   0.353   7.494  0.1982 -0.0515 -0.0249
 5213TIP3    H137198   5.090   0.389   7.432 -0.2403  0.0405  0.4778
 5213TIP3    H237199   5.213   0.426   7.511 -0.2838  0.2365  0.4549
 5214TIP3   OH237200   2.319   5.134   1.353  0.0230 -0.0568 -0.2432
 5214TIP3    H137201   2.250   5.200   1.359 -0.3858 -0.5207  0.3796
 5214TIP3    H237202   2.272   5.053   1.331  0.1470 -0.6887  1.5997
 5215TIP3   OH237203   6.427   2.874   0.525  0.2167  0.4547 -0.4443
 5215TIP3    H137204   6.421   2.794   0.473 -1.8315  0.0036  0.3853
 5215TIP3    H237205   6.476   2.848   0.604 -1.1539 -0.2441  0.2097
 5216TIP3   OH237206   3.477   5.589   0.364 -0.3475  0.2402 -0.5037
 5216TIP3    H137207   3.402   5.555   0.413 -1.3784  3.2111  0.1839
 5216TIP3    H237208   3.438   5.647   0.298  1.3069  0.5292 -1.2814
 5217TIP3   OH237209   4.461   0.729   1.914  0.2119  0.0382 -0.5258
 5217TIP3    H137210   4.416   0.735   1.998 -0.2731  0.4355 -0.8083
 5217TIP3    H237211   4.530   0.796   1.919  0.3305 -0.0987 -0.3534
 5218TIP3   OH237212   2.485   1.050   1.830  0.3294  0.1590 -0.2367
 5218TIP3    H137213   2.418   0.986   1.852 -1.3727  1.3182 -1.7392
 5218TIP3    H237214   2.567   1.013   1.864 -1.1949 -0.7014  2.8640
 5219TIP3   OH237215   1.988   1.780   7.918 -0.0188  0.1946  0.3495
 5219TIP3    H137216   1.901   1.744   7.934  0.2644 -0.7587 -0.1969
 5219TIP3    H237217   2.048   1.709   7.939  0.5531  0.3047 -0.8218
 5220TIP3   OH237218   0.551   3.597   1.044  0.4651  0.5209 -0.4789
 5220TIP3    H137219   0.515   3.596   0.955  0.6146  0.8044 -0.5476
 5220TIP3    H237220   0.635   3.552   1.036 -0.5828 -1.6249  0.0177
 5221TIP3   OH237221   4.850   3.588   1.505 -0.1297 -0.4928  0.5943
 5221TIP3    H137222   4.788   3.536   1.557  0.6818 -1.1274  0.9375
 5221TIP3    H237223   4.935   3.569   1.543  0.2649  0.5189  0.2368
 5222TIP3   OH237224   6.084   1.519   0.649 -0.7219 -0.3078 -0.2382
 5222TIP3    H137225   6.028   1.516   0.571  0.8727 -4.5548 -1.4848
 5222TIP3    H237226   6.077   1.432   0.687  1.0220  0.6669  2.6187
 5223TIP3   OH237227   3.003   1.281   7.810 -0.1218  0.6781  0.2178
 5223TIP3    H137228   3.057   1.290   7.889  0.0929 -2.3732  0.5522
 5223TIP3    H237229   2.913   1.287   7.842 -0.1124 -2.3928  1.1818
 5224TIP3   OH237230   3.341   3.960   1.414 -0.5237 -0.0580  0.2947
 5224TIP3    H137231   3.349   3.867   1.394  0.3609  0.1688 -0.5159
 5224TIP3    H237232   3.282   3.964   1.489  0.5177 -1.3755  1.2486
 5225TIP3   OH237233   2.228   2.359   7.889  0.4070 -0.4351 -0.6491
 5225TIP3    H137234   2.206   2.448   7.916  2.0303 -0.1790 -0.0476
 5225TIP3    H237235   2.151   2.307   7.914 -0.0620  0.5849  0.1474
 5226TIP3   OH237236   3.528   5.183   1.145  0.0113 -0.0717 -0.1967
 5226TIP3    H137237   3.555   5.266   1.185  2.8771  0.4473 -2.8543
 5226TIP3    H237238   3.607   5.129   1.147 -0.7203 -1.2672 -1.9812
 5227TIP3   OH237239   6.670   3.974   8.104  0.0257  0.2916 -0.0416
 5227TIP3    H137240   6.735   3.906   8.123  0.4225 -0.0503 -2.3874
 5227TIP3    H237241   6.637   4.000   8.190  1.4281 -1.3288  1.0456
 5228TIP3   OH237242   3.854   2.469   2.161 -0.0056 -0.0018 -0.2665
 5228TIP3    H137243   3.767   2.469   2.122  0.1967 -0.8818 -0.7346
 5228TIP3    H237244   3.839   2.495   2.252 -0.7397 -0.0209 -0.3737
 5229TIP3   OH237245   5.144   5.118   7.139  0.0023  0.2486  0.1469
 5229TIP3    H137246   5.177   5.036   7.175 -0.4406 -0.2741 -0.6006
 5229TIP3    H237247   5.213   5.148   7.081  0.2282  0.4850  0.5372
 5230TIP3   OH237248   5.493   0.164   1.645 -0.1841 -0.3357  0.3884
 5230TIP3    H137249   5.501   0.240   1.588 -0.9238 -0.3339  0.2839
 5230TIP3    H237250   5.448   0.196   1.723 -0.7144 -0.7143  0.2444
 5231TIP3   OH237251   3.846   0.061   7.993 -0.1832 -0.4072 -0.7832
 5231TIP3    H137252   3.840   0.020   7.906  0.6462  0.3541 -1.2189
 5231TIP3    H237253   3.895  -0.003   8.046 -0.8366 -0.9486 -0.8205
 5232TIP3   OH237254   5.909   2.690   1.294  0.1344  0.2207 -0.2833
 5232TIP3    H137255   5.854   2.718   1.367  1.1213 -1.3133  1.1196
 5232TIP3    H237256   5.912   2.766   1.235 -0.3487  1.6586  1.4717
 5233TIP3   OH237257   3.404   4.940   0.132  0.4813  0.1516 -0.9550
 5233TIP3    H137258   3.445   4.899   0.055  0.0421 -1.1972 -0.4990
 5233TIP3    H237259   3.440   4.893   0.206  3.4380  3.5242  0.0368
 5234TIP3   OH237260   4.861   4.684   0.024 -0.7324  0.0538 -0.0555
 5234TIP3    H137261   4.923   4.757   0.026 -0.5448 -0.1004  1.8099
 5234TIP3    H237262   4.791   4.713  -0.036 -0.9032  1.9828  1.0027
 5235TIP3   OH237263   0.038   6.032   7.075  0.3517 -0.0314  0.7828
 5235TIP3    H137264   0.071   5.991   6.994  0.0161  0.7356  0.2500
 5235TIP3    H237265   0.090   6.111   7.085 -0.1159  0.2639  0.9074
 5236TIP3   OH237266   4.036   3.302   7.793  0.5218  0.1160  0.5434
 5236TIP3    H137267   3.961   3.328   7.847  1.3511  1.1087  1.2619
 5236TIP3    H237268   4.062   3.217   7.829 -1.2251 -1.0464 -0.7784
 5237TIP3   OH237269   2.471   2.984   8.386  0.3151  0.4606 -0.0362
 5237TIP3    H137270   2.491   2.992   8.479  1.6366 -0.0803 -0.2524
 5237TIP3    H237271   2.398   3.045   8.372 -0.1282  0.3072  1.4017
 5238TIP3   OH237272   0.469   1.434   8.392 -0.1238  0.1545 -0.2860
 5238TIP3    H137273   0.537   1.423   8.459  1.2017  0.6246 -1.5156
 5238TIP3    H237274   0.422   1.351   8.393 -1.3714  0.7708  2.4927
 5239TIP3   OH237275   2.761   4.918   7.549 -0.4563  0.0741  0.9206
 5239TIP3    H137276   2.734   4.827   7.556  1.5293 -0.5673  0.9692
 5239TIP3    H237277   2.679   4.967   7.543 -1.5654 -1.8215 -0.6912
 5240TIP3   OH237278   0.398   4.099   8.117  0.0202 -0.7328 -0.1252
 5240TIP3    H137279   0.438   4.186   8.119 -0.4705 -0.4405 -1.9251
 5240TIP3    H237280   0.330   4.105   8.050 -1.2771 -1.9833  1.0130
 5241TIP3   OH237281   0.589   2.503   1.226 -0.2105 -0.6766 -0.0585
 5241TIP3    H137282   0.531   2.429   1.208 -3.1301  1.1495  1.0198
 5241TIP3    H237283   0.613   2.536   1.139 -1.8818 -0.7832 -0.6078
 5242TIP3   OH237284   2.452   0.267   0.062 -0.4490 -0.0516 -0.3418
 5242TIP3    H137285   2.455   0.357   0.096  0.8581  0.3723 -1.4821
 5242TIP3    H237286   2.365   0.235   0.087 -0.7632  1.3510  0.5068
 5243TIP3   OH237287   4.953   4.287   7.127  0.0520 -0.2718  0.0170
 5243TIP3    H137288   4.888   4.290   7.056  1.4725 -1.6320 -1.4437
 5243TIP3    H237289   5.033   4.323   7.088  0.3787  0.7964  1.5829
 5244TIP3   OH237290   1.981   5.081   0.036 -0.0587 -0.9617 -0.2454
 5244TIP3    H137291   2.006   5.168   0.067 -0.1634 -1.0120 -0.0152
 5244TIP3    H237292   1.887   5.087   0.022  0.3410 -0.1431 -3.1514
 5245TIP3   OH237293   6.599   0.663   0.337  0.6434  0.2609  0.8073
 5245TIP3    H137294   6.665   0.707   0.391  2.6931  0.0970 -1.4034
 5245TIP3    H237295   6.591   0.718   0.259  1.1139 -1.7095 -0.7200
 5246TIP3   OH237296   3.051   6.708   0.842  0.4839  0.5167  0.0603
 5246TIP3    H137297   3.068   6.724   0.749  2.1296  0.8339  0.3749
 5246TIP3    H237298   2.969   6.659   0.844  1.4009 -1.2131 -1.6870
 5247TIP3   OH237299   6.467   5.103   6.417 -0.5392  0.0668  0.6585
 5247TIP3    H137300   6.478   5.188   6.373 -0.2991 -0.5913 -0.6151
 5247TIP3    H237301   6.403   5.120   6.486 -0.8258  1.1908  0.1461
 5248TIP3   OH237302   4.509   0.596   1.634 -0.4626 -0.4996 -0.2942
 5248TIP3    H137303   4.508   0.505   1.663 -0.8835 -0.5323 -0.4153
 5248TIP3    H237304   4.519   0.647   1.714 -0.6040 -0.6355 -0.1896
 5249TIP3   OH237305   2.602   5.423   1.504 -0.2528  0.0282  0.3098
 5249TIP3    H137306   2.590   5.328   1.498 -0.5642  0.1212 -0.7069
 5249TIP3    H237307   2.605   5.441   1.598  2.0371 -1.2459  0.5495
 5250TIP3   OH237308   3.042   0.961   1.337  0.8610  0.3013 -0.2924
 5250TIP3    H137309   3.102   1.004   1.276  1.0016  1.3427  0.5561
 5250TIP3    H237310   2.989   1.032   1.373  0.8882 -0.2570  0.9146
 5251TIP3   OH237311   0.369   2.819   8.601  0.8790 -0.0062  0.1192
 5251TIP3    H137312   0.373   2.730   8.565 -0.2907 -0.0518  0.0845
 5251TIP3    H237313   0.406   2.810   8.689  0.8597 -0.5056  0.0815
 5252TIP3   OH237314   1.994   2.622   7.068  0.6533 -0.3202 -0.8071
 5252TIP3    H137315   2.076   2.591   7.108  0.9989 -0.1650 -1.3686
 5252TIP3    H237316   2.008   2.716   7.054 -1.0108  0.5512  2.3864
 5253TIP3   OH237317   1.552   5.197   0.814  0.3578  0.8500 -0.2003
 5253TIP3    H137318   1.470   5.155   0.840  1.1376 -0.6091 -0.0385
 5253TIP3    H237319   1.620   5.138   0.845  1.4519  1.3843 -1.5157
 5254TIP3   OH237320   6.489   3.534   7.948  0.2422 -0.3665 -0.7499
 5254TIP3    H137321   6.535   3.472   8.004  0.2392 -0.5676 -0.9649
 5254TIP3    H237322   6.548   3.549   7.874  0.1308 -0.3232 -0.8322
 5255TIP3   OH237323   1.963   4.319   8.461  0.8732 -0.0746 -0.6891
 5255TIP3    H137324   1.975   4.349   8.551  1.3555 -1.5278 -0.2412
 5255TIP3    H237325   1.909   4.240   8.469 -0.2752  0.5529 -1.8155
 5256TIP3   OH237326   5.798   0.501   2.334  0.5304 -0.0052  0.1206
 5256TIP3    H137327   5.726   0.466   2.388  0.0374  0.9363  0.1024
 5256TIP3    H237328   5.877   0.484   2.385  0.2893 -0.8820  0.2308
 5257TIP3   OH237329   2.401   5.589   2.491 -0.0942 -0.1233 -0.3932
 5257TIP3    H137330   2.477   5.648   2.501 -0.3929  0.2054 -0.0451
 5257TIP3    H237331   2.439   5.502   2.488  0.4389  0.1362 -1.8553
 5258TIP3   OH237332   2.360   3.195   8.203  0.1895  0.1188  0.1023
 5258TIP3    H137333   2.454   3.182   8.193  0.7665  1.9726  2.2421
 5258TIP3    H237334   2.335   3.249   8.127  2.0748  4.2127  2.0531
 5259TIP3   OH237335   1.588   1.067   6.691 -0.1517  0.4721  0.1868
 5259TIP3    H137336   1.502   1.083   6.652  0.6334  1.3768 -1.2711
 5259TIP3    H237337   1.646   1.055   6.616  1.0562  0.2022  1.1448
 5260TIP3   OH237338   1.582   0.729   1.113  0.0189 -0.1769  0.2179
 5260TIP3    H137339   1.488   0.718   1.122 -0.2111  1.3535  0.0057
 5260TIP3    H237340   1.609   0.773   1.194  0.3573  0.3982 -0.1962
 5261TIP3   OH237341   0.481   5.963   1.999  0.4263  0.1305 -0.2040
 5261TIP3    H137342   0.443   6.002   2.077  0.4496 -1.6464  0.7475
 5261TIP3    H237343   0.563   6.010   1.986 -1.0757  2.7100 -1.1763
 5262TIP3   OH237344   4.847   4.669   8.152 -0.1284  0.0394  0.3436
 5262TIP3    H137345   4.912   4.727   8.191 -0.7957  1.1733 -0.1919
 5262TIP3    H237346   4.802   4.723   8.087 -0.3738 -1.2448 -0.5932
 5263TIP3   OH237347   4.833   5.037   1.307 -0.6752 -0.1780 -0.2978
 5263TIP3    H137348   4.861   5.014   1.396  0.0474  0.5106 -0.3422
 5263TIP3    H237349   4.808   5.129   1.314  2.7770  0.9908 -1.5529
 5264TIP3   OH237350   1.264   5.066   7.880  0.0202  0.0197  0.1411
 5264TIP3    H137351   1.204   5.141   7.883  0.2431  0.2259 -0.4408
 5264TIP3    H237352   1.210   4.991   7.905 -0.2501  0.3440  0.5499
 5265TIP3   OH237353   1.910   3.189   1.864  0.2646 -0.2618 -0.0142
 5265TIP3    H137354   1.933   3.096   1.869  0.4566 -0.2573 -0.8268
 5265TIP3    H237355   1.970   3.226   1.800  1.6316  0.8845  1.8455
 5266TIP3   OH237356   1.116   5.848   7.667  0.0172 -0.1094 -0.0317
 5266TIP3    H137357   1.080   5.936   7.662  1.8440  0.6269 -1.4438
 5266TIP3    H237358   1.080   5.803   7.591 -0.1053 -0.2529  0.1106
 5267TIP3   OH237359   5.954   4.273   1.450 -0.2200 -0.2472 -0.4729
 5267TIP3    H137360   5.973   4.181   1.432  0.0693  0.0503 -1.8141
 5267TIP3    H237361   5.898   4.272   1.527 -0.2482 -1.5532 -0.5006
 5268TIP3   OH237362   1.075   4.210   0.221  0.3065 -0.0760 -0.2850
 5268TIP3    H137363   0.986   4.188   0.249  0.8288  0.3163  1.9246
 5268TIP3    H237364   1.083   4.303   0.242  1.2150 -0.0939 -0.5378
 5269TIP3   OH237365   1.780   1.770   1.847  0.2370 -0.6139 -0.1817
 5269TIP3    H137366   1.797   1.686   1.804  0.8577 -0.4151 -0.3359
 5269TIP3    H237367   1.865   1.796   1.883  0.0012 -0.1514  0.0494
 5270TIP3   OH237368   6.466   2.423   0.612  0.7579  0.3869  0.3399
 5270TIP3    H137369   6.412   2.489   0.569  1.2764 -0.1228 -1.1929
 5270TIP3    H237370   6.474   2.353   0.546 -0.2239 -1.4704  2.0892
 5271TIP3   OH237371   0.694   6.177   0.974 -0.3601  0.0159  0.4698
 5271TIP3    H137372   0.783   6.143   0.977 -0.1336  0.6767  1.5105
 5271TIP3    H237373   0.639   6.100   0.988 -0.0322 -0.6220 -1.4703
 5272TIP3   OH237374   2.271   4.756   6.999 -0.2575  0.1004  0.0465
 5272TIP3    H137375   2.235   4.690   7.058  1.0119 -0.2695  0.4341
 5272TIP3    H237376   2.236   4.732   6.913 -0.5177 -0.5576  0.3250
 5273TIP3   OH237377   0.353   1.624   1.490 -0.1341 -0.6233 -0.2533
 5273TIP3    H137378   0.269   1.657   1.458  0.0133  0.4093  0.3792
 5273TIP3    H237379   0.329   1.564   1.561 -0.3511 -0.5583 -0.2694
 5274TIP3   OH237380   1.330   4.879   8.378 -0.5558 -0.4548 -0.1849
 5274TIP3    H137381   1.329   4.939   8.303  0.1234  0.2664  0.3628
 5274TIP3    H237382   1.288   4.928   8.448 -1.9557 -1.4362 -0.2896
 5275TIP3   OH237383   5.564   0.609   0.671 -0.4989 -0.2579  0.4396
 5275TIP3    H137384   5.634   0.665   0.638  0.7808 -1.2584  1.3527
 5275TIP3    H237385   5.522   0.575   0.592  0.1431  0.2284 -0.1286
 5276TIP3   OH237386   0.261   2.553   1.343  0.3921  0.0982 -0.1873
 5276TIP3    H137387   0.313   2.516   1.414  2.1369  2.3640 -0.1651
 5276TIP3    H237388   0.283   2.501   1.266 -0.4663 -1.5081  0.6121
 5277TIP3   OH237389   3.509   0.985   0.023 -0.5916 -0.4065 -0.1779
 5277TIP3    H137390   3.424   0.959  -0.015 -0.3829  0.3853 -1.2391
 5277TIP3    H237391   3.506   0.952   0.113 -2.9833  1.5495  0.5627
 5278TIP3   OH237392   2.540   4.860   0.209  0.2936  0.4040  0.2807
 5278TIP3    H137393   2.624   4.905   0.199  0.6240 -0.6360 -2.2482
 5278TIP3    H237394   2.556   4.772   0.176 -1.4749 -0.2237  0.9903
 5279TIP3   OH237395   5.121   4.205   8.581  0.5385 -0.9516  0.3415
 5279TIP3    H137396   5.108   4.261   8.657  1.8529 -0.8751  0.5388
 5279TIP3    H237397   5.038   4.158   8.570 -1.0761  1.8836 -0.5938
 5280TIP3   OH237398   0.508   4.638   2.038 -0.1717 -0.0903  0.4466
 5280TIP3    H137399   0.443   4.703   2.068  0.1900  0.2446  0.5168
 5280TIP3    H237400   0.521   4.581   2.114 -0.7641 -0.4768  0.2687
 5281TIP3   OH237401   0.087   6.616   7.361  0.6217  0.1853 -0.0423
 5281TIP3    H137402   0.105   6.540   7.416  0.4458 -0.4813 -0.8779
 5281TIP3    H237403  -0.002   6.602   7.329 -0.2092  1.7906  1.4165
 5282TIP3   OH237404   3.904   6.029   1.244 -0.6349  0.0237 -0.1794
 5282TIP3    H137405   3.944   6.109   1.208  0.1541 -0.0901  0.4249
 5282TIP3    H237406   3.948   6.016   1.328  0.4787 -2.0003 -1.0088
 5283TIP3   OH237407   3.857   2.516   7.882  0.7358  0.5909  0.0868
 5283TIP3    H137408   3.864   2.496   7.975  0.6279 -0.4042 -0.0980
 5283TIP3    H237409   3.914   2.452   7.840  0.9504  1.1695 -0.5206
 5284TIP3   OH237410   6.707   1.059   7.254  0.6852  0.1468 -0.3717
 5284TIP3    H137411   6.666   0.987   7.302 -0.7239  1.1390 -0.0209
 5284TIP3    H237412   6.660   1.063   7.171  1.0648  0.3768 -0.5808
 5285TIP3   OH237413   2.463   3.403   6.410 -0.0528 -0.6612 -0.0377
 5285TIP3    H137414   2.532   3.467   6.423  1.3618 -2.1284  0.0486
 5285TIP3    H237415   2.390   3.452   6.372  0.6090  1.1460  0.9482
 5286TIP3   OH237416   1.358   3.910   1.900 -0.1039 -0.0768 -0.4512
 5286TIP3    H137417   1.277   3.879   1.940  0.1001  0.4089  0.3486
 5286TIP3    H237418   1.331   3.983   1.844 -0.5233 -1.3687 -1.9949
 5287TIP3   OH237419   0.285   3.289   0.481  0.7668 -0.0311  0.2275
 5287TIP3    H137420   0.242   3.206   0.459  0.3806  0.4438 -0.8769
 5287TIP3    H237421   0.268   3.346   0.406  1.0853  1.0335  0.9353
 5288TIP3   OH237422   4.174   1.255   1.622 -0.1870  0.1562  0.7153
 5288TIP3    H137423   4.262   1.219   1.608 -0.6055 -0.2158 -1.2345
 5288TIP3    H237424   4.176   1.289   1.712  1.0711 -2.3121  1.7125
 5289TIP3   OH237425   0.260   0.308   7.404 -0.5274 -0.2580  0.6447
 5289TIP3    H137426   0.242   0.219   7.376  0.1285 -0.7940  1.8324
 5289TIP3    H237427   0.257   0.304   7.500  1.3105  0.5733  0.7758
 5290TIP3   OH237428   2.879   4.748   1.506 -0.0910  0.3547 -0.7143
 5290TIP3    H137429   2.888   4.691   1.583  0.3778 -0.8083 -1.5854
 5290TIP3    H237430   2.908   4.834   1.536 -0.3498  0.0288  0.5216
 5291TIP3   OH237431   5.884   0.455   1.789 -0.6277 -0.3193  0.3616
 5291TIP3    H137432   5.883   0.543   1.828 -0.9468 -0.2370  0.1737
 5291TIP3    H237433   5.861   0.397   1.862 -3.0958 -0.0026 -0.0556
 5292TIP3   OH237434   4.717   1.483   1.544 -0.4922  0.3934 -0.5216
 5292TIP3    H137435   4.750   1.436   1.467  0.7763  1.4615 -0.6703
 5292TIP3    H237436   4.739   1.575   1.527  0.0168  0.6278  1.2211
 5293TIP3   OH237437   4.267   1.618   0.801  0.3583 -0.0911 -0.2316
 5293TIP3    H137438   4.210   1.544   0.782  0.5476 -0.5010  0.7113
 5293TIP3    H237439   4.292   1.652   0.716 -0.6598 -0.3908 -0.6709
 5294TIP3   OH237440   6.552   2.851   8.230 -0.2408 -0.0786  0.2211
 5294TIP3    H137441   6.515   2.909   8.162 -1.6152 -1.5681 -0.3591
 5294TIP3    H237442   6.582   2.911   8.298  0.0579  1.4119 -1.1424
 5295TIP3   OH237443   3.581   0.584   7.225 -0.4873  0.1171 -0.6878
 5295TIP3    H137444   3.487   0.566   7.212 -0.3522 -0.3833 -0.9905
 5295TIP3    H237445   3.620   0.569   7.139 -0.1182  0.2869 -0.5505
 5296TIP3   OH237446   3.238   0.017   8.493 -0.2734 -0.0944 -0.6821
 5296TIP3    H137447   3.292  -0.062   8.500 -1.5195 -0.8551  0.7664
 5296TIP3    H237448   3.209   0.035   8.582 -3.2691 -0.3231 -1.5006
 5297TIP3   OH237449   4.082   2.981   1.331  0.0313 -0.0334 -0.2907
 5297TIP3    H137450   4.101   2.982   1.237  1.6004  0.3300  0.0138
 5297TIP3    H237451   4.126   3.058   1.366 -0.2057 -0.3744  0.8108
 5298TIP3   OH237452   4.220   6.013   8.564 -0.4954 -0.4763 -0.6181
 5298TIP3    H137453   4.198   5.997   8.656 -0.1856 -0.1048 -0.4775
 5298TIP3    H237454   4.164   5.952   8.515 -0.1740 -1.1595 -0.1507
 5299TIP3   OH237455   3.525   0.169   0.479 -0.0024  0.4843 -0.3271
 5299TIP3    H137456   3.608   0.121   0.478 -1.1101 -1.5731 -1.2401
 5299TIP3    H237457   3.534   0.234   0.409  0.3137 -0.7695 -1.4993
 5300TIP3   OH237458   3.487   5.993   6.954 -0.1163 -0.0405 -0.1683
 5300TIP3    H137459   3.501   5.930   6.884  0.5764  0.6378 -0.6600
 5300TIP3    H237460   3.571   5.999   6.999 -0.0002  0.9589 -0.4971
 5301TIP3   OH237461   1.859   0.234   7.263  0.3906  0.0006  0.7554
 5301TIP3    H137462   1.916   0.190   7.326 -1.6294 -0.4492  2.3700
 5301TIP3    H237463   1.887   0.201   7.178  0.8821 -2.1451  1.6908
 5302TIP3   OH237464   6.681   0.819   7.814 -0.0195  0.3676  0.2650
 5302TIP3    H137465   6.594   0.847   7.785 -0.9542 -1.4026  1.1170
 5302TIP3    H237466   6.738   0.893   7.796 -1.1485  0.6224 -2.8585
 5303TIP3   OH237467   1.820   6.348   8.676 -0.2092  0.7161  0.2425
 5303TIP3    H137468   1.889   6.410   8.655  0.0482  0.4294  0.2442
 5303TIP3    H237469   1.863   6.262   8.676 -0.3612  0.6285  1.1974
 5304TIP3   OH237470   2.883   2.215   1.024 -0.2767 -0.5152 -0.4536
 5304TIP3    H137471   2.963   2.179   0.985 -0.8401 -0.6670 -1.5091
 5304TIP3    H237472   2.835   2.138   1.054  1.1247 -0.3395  2.6637
 5305TIP3   OH237473   0.335   6.379   8.290  0.2055 -0.2998  0.2426
 5305TIP3    H137474   0.362   6.382   8.199 -2.3850  0.5677 -0.5796
 5305TIP3    H237475   0.416   6.388   8.340  1.9772 -2.9718 -1.8664
 5306TIP3   OH237476   6.087   0.484   6.384 -0.0442 -0.3877 -0.5892
 5306TIP3    H137477   6.082   0.580   6.389 -1.3405 -0.4843  0.4619
 5306TIP3    H237478   6.125   0.458   6.468  3.5969 -0.6703 -2.1441
 5307TIP3   OH237479   2.173   3.095   0.321  0.4304  0.2368 -0.1169
 5307TIP3    H137480   2.154   3.003   0.340 -0.3760  0.7163  1.5345
 5307TIP3    H237481   2.231   3.092   0.244 -1.4454 -1.5301 -1.5516
 5308TIP3   OH237482   3.862   3.513   7.532  0.1762  0.2708 -0.4446
 5308TIP3    H137483   3.807   3.436   7.531 -1.9022  1.6421  0.5960
 5308TIP3    H237484   3.888   3.526   7.441 -1.0032 -0.5963 -0.9249
 5309TIP3   OH237485   0.471   0.621   8.653 -0.4464 -0.0474  0.1231
 5309TIP3    H137486   0.406   0.552   8.642 -0.9051  0.3067  0.5801
 5309TIP3    H237487   0.424   0.693   8.695  0.5327 -0.2823  1.7223
 5310TIP3   OH237488   4.224   6.140   1.216 -0.5876  0.3286 -0.0775
 5310TIP3    H137489   4.223   6.062   1.160  1.8557 -0.5938  1.0308
 5310TIP3    H237490   4.232   6.213   1.155  1.2747 -0.6013 -1.0252
 5311TIP3   OH237491   4.314   1.853   6.596  0.4290 -0.2483  0.3995
 5311TIP3    H137492   4.298   1.933   6.545 -0.8724 -0.8466 -0.1825
 5311TIP3    H237493   4.287   1.875   6.685 -0.5396 -0.2041  0.1109
 5312TIP3   OH237494   6.607   5.449   0.991 -0.3059 -0.1167  0.1845
 5312TIP3    H137495   6.698   5.419   0.992 -0.3542 -0.3056 -0.6345
 5312TIP3    H237496   6.559   5.384   1.042 -0.3881 -1.3853 -1.4558
 5313TIP3   OH237497   1.472   3.352   0.773 -0.1741 -0.0715  0.6482
 5313TIP3    H137498   1.481   3.291   0.700 -2.2257 -1.6069  1.5871
 5313TIP3    H237499   1.411   3.310   0.833 -0.5900  2.2905  2.0346
 5314TIP3   OH237500   1.278   6.055   1.130  0.0222 -0.1905  0.3609
 5314TIP3    H137501   1.361   6.098   1.110 -1.2635  1.7891 -1.0837
 5314TIP3    H237502   1.267   5.991   1.060 -0.3360  0.6108 -0.3404
 5315TIP3   OH237503   0.684   2.082   2.012 -0.0232 -0.2520 -0.3225
 5315TIP3    H137504   0.618   2.149   2.028 -0.1268 -0.1624 -1.0997
 5315TIP3    H237505   0.651   2.005   2.059  0.6717  0.5391  1.5452
 5316TIP3   OH237506   0.493   0.976   7.112  0.1224  0.4350  0.0480
 5316TIP3    H137507   0.561   0.932   7.164  0.0906 -0.8824 -0.9785
 5316TIP3    H237508   0.486   0.923   7.032 -1.9807  0.6412  0.0463
 5317TIP3   OH237509   4.971   4.829   1.384 -0.0402  0.0555 -0.2432
 5317TIP3    H137510   4.974   4.910   1.333  1.6405  0.0532 -0.2039
 5317TIP3    H237511   5.045   4.836   1.445 -0.7623 -0.8630  0.7646
 5318TIP3   OH237512   2.853   5.234   8.540  0.1161  0.0690 -0.1486
 5318TIP3    H137513   2.771   5.269   8.576  0.2257 -1.1416  1.4006
 5318TIP3    H237514   2.922   5.274   8.592  0.3750 -0.5687  0.0094
 5319TIP3   OH237515   4.670   1.133   8.646 -0.1658 -0.3268  0.4775
 5319TIP3    H137516   4.737   1.103   8.585  0.3534 -0.4509  1.0962
 5319TIP3    H237517   4.610   1.184   8.593  1.1721  0.9722  0.1474
 5320TIP3   OH237518   4.292   0.326   1.137 -0.0300  0.6545 -0.7692
 5320TIP3    H137519   4.311   0.382   1.212  1.2117 -1.5427  0.6874
 5320TIP3    H237520   4.197   0.323   1.132 -0.1259  1.2762  0.3746
 5321TIP3   OH237521   6.759   2.991   0.122  0.3309 -0.0037 -0.7395
 5321TIP3    H137522   6.764   3.007   0.217 -0.9442  0.6350 -0.7653
 5321TIP3    H237523   6.713   3.067   0.087  1.0832 -0.0737 -1.9351
 5322TIP3   OH237524   4.052   1.718   6.569  0.2755 -0.2837 -0.4155
 5322TIP3    H137525   4.146   1.704   6.571  0.2640 -0.4959 -0.9424
 5322TIP3    H237526   4.023   1.670   6.491 -0.3072 -0.4765 -0.0870
 5323TIP3   OH237527   5.497   1.828   6.965 -0.1670 -0.1185  0.2153
 5323TIP3    H137528   5.519   1.773   6.890 -0.2639  0.5252 -0.3001
 5323TIP3    H237529   5.418   1.874   6.938 -1.4823 -1.4841  1.5586
 5324TIP3   OH237530   1.274   5.884   1.640  0.1856  0.4096  0.2389
 5324TIP3    H137531   1.198   5.900   1.696 -0.2243  0.1714 -0.2477
 5324TIP3    H237532   1.309   5.801   1.672 -0.3476  0.0167 -0.1840
 5325TIP3   OH237533   5.564   4.953   0.929  0.1886  0.2487  0.9615
 5325TIP3    H137534   5.629   4.883   0.939 -0.6785 -0.5089  1.4609
 5325TIP3    H237535   5.530   4.967   1.017  1.1302  2.1058  1.0772
 5326TIP3   OH237536   4.500   3.981   7.592 -0.2984 -0.0313 -0.3341
 5326TIP3    H137537   4.572   3.953   7.535 -0.5294  0.7814 -1.0458
 5326TIP3    H237538   4.514   3.932   7.673  0.8377 -0.1731 -0.5940
 5327TIP3   OH237539   3.774   2.409   7.329  0.5962 -0.2933  0.3362
 5327TIP3    H137540   3.708   2.341   7.312  1.4936 -1.0611 -0.1516
 5327TIP3    H237541   3.735   2.462   7.398 -1.0287 -0.0383 -0.7180
 5328TIP3   OH237542   6.137   6.755   7.691  0.1687  0.1165  0.2787
 5328TIP3    H137543   6.109   6.668   7.720  0.4738  0.1565  0.7128
 5328TIP3    H237544   6.152   6.745   7.597  1.5194 -0.6800  0.5433
 5329TIP3   OH237545   2.934   3.522   7.079  0.7439 -0.1457  0.0843
 5329TIP3    H137546   2.848   3.489   7.053  0.2963  0.0586  1.2412
 5329TIP3    H237547   2.919   3.613   7.102  1.5631  0.2981 -1.0568
 5330TIP3   OH237548   0.100   1.057   8.404 -0.0697  0.2457 -0.3701
 5330TIP3    H137549   0.037   1.044   8.475 -1.1839  2.4531 -0.8902
 5330TIP3    H237550   0.063   1.009   8.330 -0.8444  1.0229 -0.4962
 5331TIP3   OH237551   1.359   4.177   2.152 -0.6231  0.0487 -0.1213
 5331TIP3    H137552   1.339   4.206   2.240 -0.1565 -1.8148  0.6535
 5331TIP3    H237553   1.358   4.081   2.157 -2.1381 -0.1717 -2.4915
 5332TIP3   OH237554   3.768   2.033   7.381 -0.3667 -0.1154  0.1065
 5332TIP3    H137555   3.802   2.082   7.307 -0.1397  0.4387  0.5663
 5332TIP3    H237556   3.772   1.941   7.354 -1.8684  0.1749 -1.2106
 5333TIP3   OH237557   2.956   1.187   1.098 -0.3864  0.0950  0.5932
 5333TIP3    H137558   3.040   1.231   1.085 -0.0305 -1.2267 -2.3070
 5333TIP3    H237559   2.964   1.147   1.185  0.7455  2.4098  1.6649
 5334TIP3   OH237560   6.172   6.425   1.611  0.1440  0.4892  0.4148
 5334TIP3    H137561   6.201   6.335   1.597  2.1434  0.7676  2.3565
 5334TIP3    H237562   6.158   6.459   1.523 -3.6370 -2.5035 -0.4310
 5335TIP3   OH237563   0.760   3.765   7.327 -0.5037  0.2601  0.4340
 5335TIP3    H137564   0.685   3.775   7.386  0.5607 -0.6660  2.0222
 5335TIP3    H237565   0.775   3.670   7.324 -0.2167  0.3256 -0.9661
 5336TIP3   OH237566   3.481   4.806   1.212  0.0889 -0.3701  0.3323
 5336TIP3    H137567   3.549   4.818   1.279  0.6724 -1.4925 -0.0219
 5336TIP3    H237568   3.448   4.718   1.228  0.3807 -0.7353 -0.9735
 5337TIP3   OH237569   6.295   4.859   0.452 -0.1038 -0.3574  0.4675
 5337TIP3    H137570   6.332   4.810   0.525 -0.0002  2.7400  2.7341
 5337TIP3    H237571   6.207   4.884   0.482 -0.4907  0.0831 -0.9424
 5338TIP3   OH237572   1.726   3.050   0.647  0.0139 -0.3209  0.0458
 5338TIP3    H137573   1.769   3.130   0.619  0.5127 -0.2066  1.0939
 5338TIP3    H237574   1.666   3.028   0.575 -1.3228  1.8567  0.4036
 5339TIP3   OH237575   1.978   6.331   0.681  0.3525  1.0575 -0.0362
 5339TIP3    H137576   1.972   6.387   0.759  2.6794  2.3558 -0.7096
 5339TIP3    H237577   1.987   6.242   0.716 -0.2720  1.4210  1.1177
 5340TIP3   OH237578   4.610   3.107   1.759  0.8332 -0.0521  0.2429
 5340TIP3    H137579   4.533   3.163   1.770  0.3457 -0.5948 -0.3422
 5340TIP3    H237580   4.576   3.018   1.761  1.7246 -0.4005  2.0885
 5341TIP3   OH237581   5.544   2.554   7.159 -0.0690 -0.0831 -0.0541
 5341TIP3    H137582   5.486   2.601   7.219  0.9871  0.7296  0.3517
 5341TIP3    H237583   5.587   2.622   7.108  2.2697 -0.4790  1.2573
 5342TIP3   OH237584   1.382   1.527   0.989  0.8001 -0.4937  0.0421
 5342TIP3    H137585   1.385   1.618   0.958  1.6022 -0.9510 -1.3046
 5342TIP3    H237586   1.473   1.506   1.010  0.8338 -1.3743 -0.8970
 5343TIP3   OH237587   4.322   5.055   6.790  0.0668  0.6244 -0.0726
 5343TIP3    H137588   4.408   5.098   6.796  0.4714  0.2248 -2.1656
 5343TIP3    H237589   4.284   5.089   6.709 -1.3922  0.1287  0.3756
 5344TIP3   OH237590   4.926   2.385   8.333 -0.4622 -0.0178  0.5191
 5344TIP3    H137591   4.906   2.318   8.267 -0.7489 -0.8854  1.4476
 5344TIP3    H237592   4.846   2.391   8.386  0.9838 -2.3656  3.3134
 5345TIP3   OH237593   3.919   1.058   6.895 -0.1013 -0.4315  0.0593
 5345TIP3    H137594   3.887   1.141   6.859  0.6242 -1.1442 -2.3939
 5345TIP3    H237595   3.947   1.080   6.984 -4.6410  0.8134  1.4221
 5346TIP3   OH237596   6.267   1.609   8.126  0.0864 -0.1535  0.2670
 5346TIP3    H137597   6.348   1.602   8.075  1.3467  1.8706  1.8062
 5346TIP3    H237598   6.199   1.627   8.061  0.8496 -1.7896 -1.0561
 5347TIP3   OH237599   3.310   0.790   7.451 -0.6809 -0.2306  0.3956
 5347TIP3    H137600   3.244   0.764   7.387 -0.4907  0.0898  0.0638
 5347TIP3    H237601   3.268   0.861   7.500 -0.2029  0.7143 -0.5300
 5348TIP3   OH237602   2.812   1.894   7.655  0.0153  0.0255 -1.2761
 5348TIP3    H137603   2.756   1.958   7.701 -0.2038  0.0206 -1.5369
 5348TIP3    H237604   2.881   1.874   7.719 -0.3425 -0.0542 -0.9082
 5349TIP3   OH237605   4.318   1.612   1.071 -0.2736 -0.2602  0.9410
 5349TIP3    H137606   4.322   1.695   1.118  2.8426  0.0492  0.3229
 5349TIP3    H237607   4.291   1.637   0.982 -0.3955 -0.0549  1.0341
 5350TIP3   OH237608   5.024   1.284   6.101 -0.5582 -0.5870 -0.9905
 5350TIP3    H137609   5.029   1.198   6.142  0.6752  0.2327  0.7267
 5350TIP3    H237610   4.962   1.332   6.155  0.7029  0.3621 -0.3358
 5351TIP3   OH237611   0.379   3.111   7.198 -0.2174  0.2943  0.1977
 5351TIP3    H137612   0.410   3.064   7.276 -0.4585  3.0435  2.1010
 5351TIP3    H237613   0.432   3.075   7.126 -0.4141 -2.7921  1.4335
 5352TIP3   OH237614   0.547   4.836   7.730 -0.6154  0.4246  0.0106
 5352TIP3    H137615   0.556   4.927   7.701  0.2619  0.0990 -0.8187
 5352TIP3    H237616   0.458   4.812   7.705 -0.9853  1.1529  0.5666
 5353TIP3   OH237617   1.483   5.266   0.174 -0.2234 -0.6857  0.4248
 5353TIP3    H137618   1.519   5.222   0.252  0.1387 -0.9034  0.1371
 5353TIP3    H237619   1.447   5.348   0.208 -1.1947 -1.3376  1.0223
 5354TIP3   OH237620   0.145   1.887   7.791 -0.3252 -0.1841 -0.2822
 5354TIP3    H137621   0.177   1.956   7.850 -1.3358 -0.7997  1.0362
 5354TIP3    H237622   0.209   1.885   7.720  1.5120 -0.1104  1.2947
 5355TIP3   OH237623   6.082   5.958   1.100 -0.1015  1.1769  0.3213
 5355TIP3    H137624   6.039   5.878   1.070 -0.6918  1.3358  0.7331
 5355TIP3    H237625   6.144   5.979   1.030 -0.6062  0.8739 -0.2239
 5356TIP3   OH237626   1.462   4.141   1.272 -0.7984  0.8224 -0.0478
 5356TIP3    H137627   1.537   4.094   1.310 -1.1690 -0.2477 -0.5898
 5356TIP3    H237628   1.474   4.232   1.299  2.0506  1.1980 -2.1332
 5357TIP3   OH237629   2.918   5.166   0.432  0.2864 -0.2361 -0.6645
 5357TIP3    H137630   2.910   5.260   0.447  0.3118 -0.4418  0.8478
 5357TIP3    H237631   2.934   5.157   0.338  1.7697  1.3721 -0.6038
 5358TIP3   OH237632   0.618   5.896   0.974 -0.0098  0.7747  0.0631
 5358TIP3    H137633   0.626   5.802   0.992  1.1621  0.9987  0.8288
 5358TIP3    H237634   0.631   5.904   0.880  0.9613  0.2682  0.1434
 5359TIP3   OH237635   0.288   6.330   0.866 -0.0995  0.0045  0.2512
 5359TIP3    H137636   0.313   6.276   0.790 -0.9748 -0.5447  0.3378
 5359TIP3    H237637   0.364   6.386   0.881 -0.2350  0.7786 -1.6033
 5360TIP3   OH237638   5.388   3.711   0.068  0.5804  0.1623  0.2720
 5360TIP3    H137639   5.454   3.706   0.137  1.6818  2.6957 -0.4788
 5360TIP3    H237640   5.328   3.780   0.097 -0.4561 -0.5540 -0.1102
 5361TIP3   OH237641   2.629   4.905   7.889 -0.2918  0.3127  0.3483
 5361TIP3    H137642   2.591   4.904   7.801  0.2804 -0.5143  0.1013
 5361TIP3    H237643   2.553   4.903   7.948 -0.6841 -2.7456 -0.1286
 5362TIP3   OH237644   1.100   2.945   6.905 -0.1833  0.4965  0.0643
 5362TIP3    H137645   1.007   2.924   6.891  0.3497 -1.8851 -0.4722
 5362TIP3    H237646   1.099   3.019   6.965 -2.4407 -0.1864  1.0091
 5363TIP3   OH237647   2.482   0.510   0.230 -0.1491  0.1448  0.1010
 5363TIP3    H137648   2.486   0.599   0.263  2.3501  0.4657 -0.8249
 5363TIP3    H237649   2.443   0.460   0.301 -1.1660  1.8764  0.8170
 5364TIP3   OH237650   0.723   2.471   7.517 -0.5790 -0.3208  1.0787
 5364TIP3    H137651   0.813   2.462   7.549 -0.8145 -0.8655  1.6076
 5364TIP3    H237652   0.711   2.565   7.505 -0.2657 -0.1557  1.9739
 5365TIP3   OH237653   3.924   0.759   6.378  0.0751  0.1006  0.0004
 5365TIP3    H137654   3.990   0.787   6.315 -1.0348 -1.6855 -2.1124
 5365TIP3    H237655   3.852   0.820   6.366 -0.3192 -0.5059 -0.8849
 5366TIP3   OH237656   4.063   0.776   1.369  0.1849 -0.4827 -0.3884
 5366TIP3    H137657   4.133   0.784   1.435  0.0134 -3.0129  0.1904
 5366TIP3    H237658   3.984   0.805   1.415  0.5106  0.4629 -0.4033
 5367TIP3   OH237659   1.514   3.572   1.393  0.1456  0.4516  0.1946
 5367TIP3    H137660   1.543   3.541   1.479  1.0574 -1.6069 -0.7983
 5367TIP3    H237661   1.439   3.517   1.371  0.5883  0.2086 -0.7750
 5368TIP3   OH237662   1.593   3.791   1.727  0.1588 -0.5482  0.4022
 5368TIP3    H137663   1.623   3.880   1.745 -2.3318  0.0341  2.3757
 5368TIP3    H237664   1.601   3.745   1.811 -3.4443 -0.5154  0.9475
 5369TIP3   OH237665   5.977   0.069   8.008 -0.1314  0.2579  0.2623
 5369TIP3    H137666   6.049   0.023   7.966 -0.9947  1.0750 -2.2736
 5369TIP3    H237667   6.019   0.138   8.060  0.9437 -0.2336  0.0737
 5370TIP3   OH237668   3.194   2.770   2.173  0.0301 -0.0764 -0.5402
 5370TIP3    H137669   3.139   2.703   2.134 -0.2063  0.3741 -0.9969
 5370TIP3    H237670   3.230   2.729   2.252  1.6416 -1.5063 -1.9185
 5371TIP3   OH237671   5.250   4.418   1.108 -0.1979  0.3610 -0.1697
 5371TIP3    H137672   5.343   4.405   1.126 -0.2456  2.9544  2.7588
 5371TIP3    H237673   5.207   4.341   1.145  0.6735  0.0853  0.2842
 5372TIP3   OH237674   3.722   0.428   7.685 -0.3650 -0.8599  0.4061
 5372TIP3    H137675   3.687   0.423   7.596  2.6048  0.8159 -0.9942
 5372TIP3    H237676   3.694   0.515   7.716 -1.1455 -1.3219  1.0241
 5373TIP3   OH237677   0.137   3.612   6.879 -1.0418  0.3152 -0.3322
 5373TIP3    H137678   0.059   3.587   6.929 -1.4753  2.3925  0.1061
 5373TIP3    H237679   0.198   3.539   6.892 -2.3331 -0.6399  0.5897
 5374TIP3   OH237680   5.700   0.026   0.299 -0.5655  0.1538 -0.0860
 5374TIP3    H137681   5.718  -0.066   0.316 -1.2798  0.1912  0.9353
 5374TIP3    H237682   5.685   0.030   0.204  0.2025 -0.6377 -0.2562
 5375TIP3   OH237683   0.890   4.805   2.111  0.2789  0.1527  0.1401
 5375TIP3    H137684   0.972   4.768   2.079 -0.2330 -1.2203  0.3522
 5375TIP3    H237685   0.897   4.799   2.206  0.2079  0.6785  0.1824
 5376TIP3   OH237686   4.494   1.547   8.484 -0.6473 -0.0408  0.3948
 5376TIP3    H137687   4.564   1.568   8.545 -0.7189 -1.8445  1.1781
 5376TIP3    H237688   4.445   1.628   8.475 -0.9523  0.2060  3.1988
 5377TIP3   OH237689   6.718   3.158   6.605 -0.2130 -0.2210  0.2657
 5377TIP3    H137690   6.718   3.064   6.583  0.8034  0.2306 -2.0011
 5377TIP3    H237691   6.671   3.199   6.533  0.0156  1.1000  0.8427
 5378TIP3   OH237692   3.955   5.566   7.780 -0.1325  0.1165 -0.2528
 5378TIP3    H137693   3.897   5.642   7.769 -2.0869 -1.2699 -0.0104
 5378TIP3    H237694   3.896   5.491   7.784  1.6766 -1.3433  0.4879
 5379TIP3   OH237695   4.269   4.512   2.055  0.3357 -0.5380  0.4162
 5379TIP3    H137696   4.292   4.599   2.090  1.2820 -0.4441 -0.3919
 5379TIP3    H237697   4.176   4.518   2.035  0.4422  0.3893  0.1258
 5380TIP3   OH237698   5.501   6.137   1.654  0.3896  0.0127 -0.0804
 5380TIP3    H137699   5.489   6.219   1.702  1.8052 -0.3858  1.0202
 5380TIP3    H237700   5.445   6.146   1.577  1.5390  2.5906 -0.7223
 5381TIP3   OH237701   5.162   5.392   0.698 -0.6043  0.2652  0.1374
 5381TIP3    H137702   5.112   5.371   0.620  0.0325  0.4976 -0.3411
 5381TIP3    H237703   5.234   5.328   0.699  0.1617  1.0966 -0.2132
 5382TIP3   OH237704   6.045   0.092   0.038 -0.2311 -0.1740 -0.2693
 5382TIP3    H137705   6.053  -0.001   0.057 -0.8532 -0.2737 -0.4675
 5382TIP3    H237706   6.097   0.135   0.105 -0.2235 -0.6476  0.0317
 5383TIP3   OH237707   2.736   4.242   7.843  0.4328 -0.1867 -0.0535
 5383TIP3    H137708   2.701   4.277   7.924  1.6018  1.5742 -0.2598
 5383TIP3    H237709   2.661   4.235   7.785  0.0928  1.9900  0.0351
 5384TIP3   OH237710   5.371   1.491   7.733  0.1467  0.7694 -0.3481
 5384TIP3    H137711   5.377   1.452   7.645  0.5861  0.8158 -0.3422
 5384TIP3    H237712   5.444   1.553   7.736 -0.6178  1.6735 -0.3923
 5385TIP3   OH237713   3.335   2.153   2.285  0.1517 -0.1367  0.5005
 5385TIP3    H137714   3.262   2.186   2.338  0.8658 -0.4218  1.6975
 5385TIP3    H237715   3.294   2.127   2.202 -1.5453 -2.4656  1.9266
 5386TIP3   OH237716   4.479   5.609   1.541 -0.1548 -0.0168 -0.7659
 5386TIP3    H137717   4.503   5.545   1.609  0.7757  0.6666 -0.4420
 5386TIP3    H237718   4.541   5.594   1.471 -0.3114  0.1395 -0.9379
 5387TIP3   OH237719   0.405   0.033   8.651 -0.0969 -0.5385  0.6779
 5387TIP3    H137720   0.496   0.037   8.680  0.4433  0.9157 -0.9927
 5387TIP3    H237721   0.354   0.042   8.731  1.2482 -0.0627  1.5162
 5388TIP3   OH237722   5.280   1.457   0.332 -0.0690 -0.0928 -0.3129
 5388TIP3    H137723   5.318   1.444   0.245 -0.1606  0.1285 -0.3864
 5388TIP3    H237724   5.246   1.371   0.356  1.8691 -0.7016  0.4260
 5389TIP3   OH237725   0.924   1.004   8.313  0.6195 -0.0368  0.3422
 5389TIP3    H137726   0.946   1.096   8.329 -3.0001  0.8523  1.0795
 5389TIP3    H237727   0.951   0.958   8.392  1.4164  0.5636  0.4323
 5390TIP3   OH237728   3.680   5.423   1.486 -0.0217 -0.0426 -0.5897
 5390TIP3    H137729   3.603   5.467   1.450  0.6340  1.2350 -0.4625
 5390TIP3    H237730   3.744   5.424   1.416  0.0672 -0.6346 -0.5206
 5391TIP3   OH237731   6.055   3.217   7.897  0.1477  1.0121  0.1787
 5391TIP3    H137732   6.082   3.142   7.949 -0.5455  2.1433  2.2857
 5391TIP3    H237733   6.111   3.214   7.819  3.4598  0.9144  2.3525
 5392TIP3   OH237734   1.570   3.989   8.255  0.1501 -0.6543 -0.3280
 5392TIP3    H137735   1.546   4.047   8.183 -1.6423 -0.2883  0.5039
 5392TIP3    H237736   1.493   3.932   8.265  0.6496 -1.1326  0.8658
 5393TIP3   OH237737   4.346   6.086   1.728  0.0773 -0.3818  0.2358
 5393TIP3    H137738   4.339   6.101   1.822  0.9148  0.9516  0.1073
 5393TIP3    H237739   4.342   5.990   1.719  2.3001 -0.7300  1.8713
 5394TIP3   OH237740   2.028   5.041   6.964 -0.1949 -0.1046  0.2483
 5394TIP3    H137741   2.053   5.091   6.886 -0.1442 -1.1721 -0.4400
 5394TIP3    H237742   1.970   5.100   7.013  0.2324  0.7914 -0.3039
 5395TIP3   OH237743   5.892   5.856   8.164  0.1008 -0.2338  0.2416
 5395TIP3    H137744   5.983   5.843   8.138 -0.0398  0.1663 -0.5021
 5395TIP3    H237745   5.850   5.772   8.146  0.1395 -0.1483 -0.2707
 5396TIP3   OH237746   6.122   0.522   0.357 -0.4226  0.2305 -0.3080
 5396TIP3    H137747   6.205   0.548   0.397 -1.1398  0.7052  0.9493
 5396TIP3    H237748   6.055   0.567   0.410 -1.4169  1.7864 -2.7296
 5397TIP3   OH237749   1.339   1.213   0.134  0.0699 -0.3228 -0.3423
 5397TIP3    H137750   1.419   1.160   0.132 -0.6449 -1.4156 -0.9173
 5397TIP3    H237751   1.315   1.216   0.226  0.5001 -0.4031 -0.2224
 5398TIP3   OH237752   1.680   6.374   1.458 -0.1521 -0.3256  0.0682
 5398TIP3    H137753   1.682   6.467   1.437  0.5844 -0.3850 -0.1701
 5398TIP3    H237754   1.691   6.330   1.374 -1.4982 -0.6571  0.0488
 5399TIP3   OH237755   0.160   3.323   8.103 -0.0682  0.2074  0.1661
 5399TIP3    H137756   0.236   3.272   8.129  0.2814  0.3053 -0.6418
 5399TIP3    H237757   0.191   3.378   8.031 -1.1927 -0.6009 -0.9826
 5400TIP3   OH237758   0.249   0.034   7.731  0.4374 -0.2949 -0.1730
 5400TIP3    H137759   0.263   0.049   7.825 -2.5733  0.0274  0.3183
 5400TIP3    H237760   0.302  -0.043   7.711  3.6015  1.3823  0.9982
 5401TIP3   OH237761   6.585   3.221   1.566  0.1521 -0.3663 -0.1606
 5401TIP3    H137762   6.589   3.196   1.658  1.2868 -0.5682 -0.2533
 5401TIP3    H237763   6.673   3.205   1.533  0.3625  1.7762 -0.7663
 5402TIP3   OH237764   1.297   2.097   1.832  0.3229 -0.1522 -1.5304
 5402TIP3    H137765   1.335   2.102   1.919 -2.0148  2.2671 -0.5213
 5402TIP3    H237766   1.302   2.004   1.809  0.4443 -0.9841  1.4475
 5403TIP3   OH237767   1.755   6.695   7.486  0.9898  0.2579  0.6986
 5403TIP3    H137768   1.784   6.760   7.550  1.9059 -0.0237  0.5902
 5403TIP3    H237769   1.825   6.629   7.486 -0.3858 -1.2522  1.5422
 5404TIP3   OH237770   1.218   1.290   2.009  0.4142  0.0563 -0.0551
 5404TIP3    H137771   1.197   1.197   2.004 -0.6153  0.2742  0.0337
 5404TIP3    H237772   1.137   1.332   2.038  0.1670  1.2444 -2.2584
 5405TIP3   OH237773   3.945   4.631   0.301 -0.6136  0.2362 -0.0812
 5405TIP3    H137774   4.024   4.647   0.352 -1.0678  1.3399  0.3070
 5405TIP3    H237775   3.888   4.582   0.361 -0.4043 -0.1866 -0.2177
 5406TIP3   OH237776   4.847   0.712   7.717 -0.4892  0.8560  0.3211
 5406TIP3    H137777   4.849   0.801   7.752  1.6760  0.8627  0.2917
 5406TIP3    H237778   4.893   0.718   7.634 -1.3357 -0.0919 -0.2380
 5407TIP3   OH237779   1.681   5.159   8.357 -0.4196  0.1332 -0.3284
 5407TIP3    H137780   1.690   5.169   8.262  1.1021  0.1152 -0.2185
 5407TIP3    H237781   1.732   5.080   8.377  0.7561  1.1032  0.6867
 5408TIP3   OH237782   5.245   1.397   6.847  0.7333  0.9307  0.0098
 5408TIP3    H137783   5.236   1.492   6.841  0.2234  0.8023 -3.9985
 5408TIP3    H237784   5.333   1.379   6.815  0.8108  0.0375  0.6927
 5409TIP3   OH237785   0.864   4.792   0.347 -1.1697  0.4243  0.2672
 5409TIP3    H137786   0.819   4.858   0.295 -0.9528  0.5802  0.2741
 5409TIP3    H237787   0.941   4.768   0.295 -3.2960 -2.8122 -1.6753
 5410TIP3   OH237788   3.245   3.830   1.689  0.1860 -0.1151  0.4811
 5410TIP3    H137789   3.196   3.883   1.626  1.6110  0.2754 -0.3498
 5410TIP3    H237790   3.249   3.885   1.768  1.8964  1.2364 -0.4666
 5411TIP3   OH237791   5.272   0.727   6.647  0.3357 -0.7363  0.0192
 5411TIP3    H137792   5.196   0.756   6.697  1.9108  0.7109  1.7408
 5411TIP3    H237793   5.241   0.722   6.557 -1.7976 -0.2826  0.6670
 5412TIP3   OH237794   5.211   1.230   0.623  0.2540  0.0755  0.4860
 5412TIP3    H137795   5.140   1.224   0.559 -0.0774  0.4113  0.8190
 5412TIP3    H237796   5.276   1.166   0.593 -1.1796 -1.9020  1.4405
 5413TIP3   OH237797   0.356   3.592   8.357 -0.0172  0.0504 -0.6231
 5413TIP3    H137798   0.408   3.650   8.302 -1.1537  2.1172  0.3554
 5413TIP3    H237799   0.266   3.603   8.326 -0.2944 -1.0684 -0.2819
 5414TIP3   OH237800   6.185   6.094   1.800  0.1768 -0.0991 -0.0788
 5414TIP3    H137801   6.275   6.093   1.834  0.3303 -1.1199 -0.4921
 5414TIP3    H237802   6.193   6.125   1.710 -0.0362  0.9356  0.2382
 5415TIP3   OH237803   0.934   5.178   0.699 -0.9089 -0.3572 -0.1434
 5415TIP3    H137804   0.997   5.110   0.721  0.3435  1.0316  0.8202
 5415TIP3    H237805   0.926   5.175   0.604  0.8001 -0.4454 -0.3126
 5416TIP3   OH237806   1.277   4.494   0.828 -0.3276  0.4721 -0.0049
 5416TIP3    H137807   1.298   4.564   0.890 -1.8916  0.1171  0.9918
 5416TIP3    H237808   1.297   4.530   0.742  2.2609  0.8614  0.6732
 5417TIP3   OH237809   6.286   6.755   2.146  0.2379  0.6286 -0.1361
 5417TIP3    H137810   6.250   6.828   2.097  1.4899  0.3544 -1.5642
 5417TIP3    H237811   6.331   6.795   2.220 -1.2337  1.0952  0.5281
 5418TIP3   OH237812   4.734   6.144   0.447 -0.0271 -0.1544 -0.2603
 5418TIP3    H137813   4.650   6.152   0.493 -0.3022 -0.9591 -0.5989
 5418TIP3    H237814   4.710   6.116   0.359  0.6240 -0.7175 -0.2622
 5419TIP3   OH237815   2.508   5.640   8.643  0.1227  0.7995 -0.2315
 5419TIP3    H137816   2.538   5.661   8.554 -1.2037 -0.0980 -0.9249
 5419TIP3    H237817   2.510   5.723   8.689  4.0085  0.8188 -0.0475
 5420TIP3   OH237818   3.642   0.758   1.178 -0.1007  0.0662 -0.0281
 5420TIP3    H137819   3.683   0.811   1.246 -0.9052 -0.8438  1.2286
 5420TIP3    H237820   3.575   0.708   1.225 -1.5350  0.3197 -1.7225
 5421TIP3   OH237821   3.224   4.646   1.055 -0.6841 -0.2574  0.3591
 5421TIP3    H137822   3.198   4.680   1.140 -2.1602  1.1250 -0.5808
 5421TIP3    H237823   3.142   4.630   1.009  0.0428  1.4673 -1.7015
 5422TIP3   OH237824   2.852   2.716   7.800  0.4669  0.3829 -0.1472
 5422TIP3    H137825   2.866   2.621   7.807  1.1267  0.4299 -0.7388
 5422TIP3    H237826   2.757   2.725   7.793  0.4904 -0.4074 -2.2509
 5423TIP3   OH237827   4.230   5.860   7.042  0.0354  0.2949 -0.0093
 5423TIP3    H137828   4.201   5.820   6.960 -1.4456 -0.1508  0.6983
 5423TIP3    H237829   4.223   5.954   7.025  0.1087  0.2152 -0.5155
 5424TIP3   OH237830   0.488   0.406   0.761 -0.4618  0.0138  0.2178
 5424TIP3    H137831   0.410   0.436   0.715 -0.1504  1.8441  0.8179
 5424TIP3    H237832   0.456   0.334   0.817 -1.8811  1.1440  0.9455
 5425TIP3   OH237833   6.542   6.497   7.768 -0.3176  0.1006 -0.0771
 5425TIP3    H137834   6.603   6.447   7.715 -0.5784  0.7058 -0.9629
 5425TIP3    H237835   6.558   6.467   7.858 -0.1895 -1.2641 -0.5323
 5426TIP3   OH237836   1.243   5.036   1.710  0.2147 -0.4295 -0.1812
 5426TIP3    H137837   1.263   5.012   1.800 -1.1657 -1.2808 -0.0674
 5426TIP3    H237838   1.187   5.113   1.718 -2.0116 -1.9329 -0.1083
 5427TIP3   OH237839   1.284   6.326   0.565  0.6713  0.0192 -0.3560
 5427TIP3    H137840   1.206   6.326   0.620  0.8387 -0.5874 -0.1066
 5427TIP3    H237841   1.255   6.362   0.482  0.2022  0.0919 -0.1635
 5428TIP3   OH237842   2.937   2.285   7.170  0.0399 -0.2762  0.3767
 5428TIP3    H137843   2.995   2.348   7.214 -0.2048  0.0696  0.2137
 5428TIP3    H237844   2.899   2.233   7.240 -0.2306  0.1703  0.5658
 5429TIP3   OH237845   5.867   2.128   8.379 -0.6239  0.7584  0.1717
 5429TIP3    H137846   5.841   2.218   8.402 -0.2381  0.3535  2.4377
 5429TIP3    H237847   5.949   2.139   8.331  0.1292  1.6068  1.5657
 5430TIP3   OH237848   0.976   0.668   1.933 -0.5134  0.0859 -0.0703
 5430TIP3    H137849   1.044   0.683   1.868  1.5716 -1.3858  1.6051
 5430TIP3    H237850   0.894   0.677   1.885  0.8488  1.1396 -2.3803
 5431TIP3   OH237851   5.455   4.479   8.011  0.3160  0.0472 -0.1101
 5431TIP3    H137852   5.382   4.533   8.042 -1.2332 -1.9492 -0.0556
 5431TIP3    H237853   5.502   4.455   8.090  0.6949  0.8550 -0.0818
 5432TIP3   OH237854   0.856   3.381   1.544 -0.1091 -1.5043 -0.8272
 5432TIP3    H137855   0.870   3.462   1.594 -0.0674 -2.3432  0.5754
 5432TIP3    H237856   0.871   3.406   1.453 -0.2030  0.0879 -0.4287
 5433TIP3   OH237857   1.534   5.281   0.556 -0.8253 -0.2338  0.2315
 5433TIP3    H137858   1.511   5.374   0.546 -0.5507  0.1453  2.4472
 5433TIP3    H237859   1.550   5.271   0.650  1.3782 -2.0197 -0.2445
 5434TIP3   OH237860   2.610   1.228   0.405 -0.0098  0.1181 -0.3986
 5434TIP3    H137861   2.589   1.288   0.334  0.1076 -0.9002 -1.3256
 5434TIP3    H237862   2.705   1.222   0.405 -0.0690 -1.4039 -1.5028
 5435TIP3   OH237863   2.866   3.263   7.725 -0.2592 -0.0658  0.3693
 5435TIP3    H137864   2.777   3.296   7.716 -0.1031 -0.1645 -2.8484
 5435TIP3    H237865   2.858   3.187   7.783 -2.3462 -0.2867 -0.1189
 5436TIP3   OH237866   3.507   2.112   7.444 -0.4060 -0.1715  0.3180
 5436TIP3    H137867   3.481   2.075   7.529  0.4340  3.6497  2.4652
 5436TIP3    H237868   3.600   2.091   7.437 -0.5356 -0.7249  0.1487
 5437TIP3   OH237869   3.048   0.435   1.193 -0.7420  0.5715 -0.0647
 5437TIP3    H137870   3.093   0.497   1.135 -0.7766  0.1965 -0.5001
 5437TIP3    H237871   2.956   0.460   1.188 -0.9559 -0.3478 -1.3234
 5438TIP3   OH237872   3.995   1.176   0.807 -0.1608  0.2992  0.2098
 5438TIP3    H137873   3.908   1.173   0.768 -1.3555 -0.8400  2.6667
 5438TIP3    H237874   3.979   1.193   0.900  2.4037  1.9850  0.4623
 5439TIP3   OH237875   6.148   0.388   7.230  0.3404 -0.5982  0.9990
 5439TIP3    H137876   6.205   0.433   7.291  1.0218 -2.4886  1.8181
 5439TIP3    H237877   6.134   0.451   7.159  2.0353  0.5142  1.6035
 5440TIP3   OH237878   5.242   1.376   8.611  0.1517  0.6292 -0.1221
 5440TIP3    H137879   5.163   1.430   8.608 -0.3337 -0.0477  0.1697
 5440TIP3    H237880   5.255   1.347   8.521  0.7393  1.6717 -0.3897
 5441TIP3   OH237881   6.583   4.359   0.298 -0.0449  0.3126 -0.1442
 5441TIP3    H137882   6.560   4.311   0.378 -0.2375 -0.0570 -0.4205
 5441TIP3    H237883   6.546   4.446   0.311  3.0353  1.5117  1.8138
 5442TIP3   OH237884   4.436   5.559   0.686  1.0354  0.6619  0.0083
 5442TIP3    H137885   4.477   5.583   0.769  1.6291 -2.1333  0.6465
 5442TIP3    H237886   4.342   5.557   0.706  1.1224  0.6424  0.4382
 5443TIP3   OH237887   0.412   5.332   8.299  0.4987  0.3163  0.0597
 5443TIP3    H137888   0.442   5.377   8.219  2.4851  0.1369  0.6584
 5443TIP3    H237889   0.396   5.242   8.271 -1.0623  0.7532 -0.5953
 5444TIP3   OH237890   1.861   3.291   1.344 -0.2337  0.1527  0.0148
 5444TIP3    H137891   1.862   3.384   1.364 -0.7040  0.0752  0.4051
 5444TIP3    H237892   1.770   3.272   1.321 -0.0620 -0.1299 -0.4459
 5445TIP3   OH237893   0.039   0.478   1.204  0.4121 -0.2827 -0.5122
 5445TIP3    H137894  -0.015   0.522   1.138  1.0070 -2.3237 -2.4744
 5445TIP3    H237895   0.123   0.463   1.160  1.2270 -0.7129  1.1218
 5446TIP3   OH237896   4.661   5.235   0.880 -0.3855 -0.0541 -0.1129
 5446TIP3    H137897   4.675   5.267   0.969 -1.5285  0.4212 -0.0947
 5446TIP3    H237898   4.566   5.223   0.873 -0.2072 -1.1467 -0.9113
 5447TIP3   OH237899   1.037   3.711   1.483 -0.1894 -0.8047  0.9258
 5447TIP3    H137900   0.957   3.675   1.446 -0.2192 -1.3428  1.4873
 5447TIP3    H237901   1.102   3.704   1.413 -0.9672  1.0051 -0.0494
 5448TIP3   OH237902   2.248   3.621   7.698  0.8012  0.3152  0.2548
 5448TIP3    H137903   2.307   3.678   7.746 -0.2172  1.0074  0.7387
 5448TIP3    H237904   2.168   3.618   7.752  0.2705 -0.3045 -0.5341
 5449TIP3   OH237905   6.788   0.748   8.681  0.3782  0.4133 -0.8526
 5449TIP3    H137906   6.788   0.655   8.661 -0.3527  0.4879 -1.2062
 5449TIP3    H237907   6.881   0.769   8.693  0.5867 -0.2548 -1.2357
 5450TIP3   OH237908   4.323   3.262   6.268  0.4030 -0.1252 -0.5024
 5450TIP3    H137909   4.285   3.345   6.297 -1.1406 -1.0324  0.2046
 5450TIP3    H237910   4.280   3.244   6.184  0.2188 -0.5355 -0.3223
 5451TIP3   OH237911   4.944   1.932   0.520  0.4896 -0.4186 -0.6073
 5451TIP3    H137912   5.030   1.972   0.509 -0.2491  0.9788 -1.5233
 5451TIP3    H237913   4.938   1.915   0.614  0.9168  1.5035 -0.1927
 5452TIP3   OH237914   6.818   5.716   6.569 -0.0924 -0.0780 -0.1225
 5452TIP3    H137915   6.800   5.645   6.507  0.4257 -0.1161 -0.2356
 5452TIP3    H237916   6.733   5.755   6.586 -0.4418 -0.9317  0.1877
 5453TIP3   OH237917   5.606   1.593   8.097  0.0666  0.3868  0.8521
 5453TIP3    H137918   5.623   1.635   8.013  0.2878  1.5447  1.4570
 5453TIP3    H237919   5.680   1.618   8.152 -0.6715  0.6444  1.7546
 5454TIP3   OH237920   2.843   1.174   7.212  0.3364  0.7651 -0.3432
 5454TIP3    H137921   2.854   1.151   7.305 -0.3070  3.1143  0.4102
 5454TIP3    H237922   2.894   1.255   7.202 -0.3651  1.0632 -1.7916
 5455TIP3   OH237923   3.760   2.551   0.957  0.4666 -0.5187  0.6309
 5455TIP3    H137924   3.745   2.521   1.046 -2.6127 -0.0219  0.3757
 5455TIP3    H237925   3.767   2.646   0.963 -3.3755 -0.0386  0.1371
 5456TIP3   OH237926   3.095   1.618   2.360 -0.2939  0.7933  0.2958
 5456TIP3    H137927   3.057   1.650   2.279  0.8409 -0.1994 -0.6557
 5456TIP3    H237928   3.173   1.672   2.373 -0.1331  0.5412  0.3933
 5457TIP3   OH237929   1.708   4.683   1.827  0.1081 -0.2467  0.1395
 5457TIP3    H137930   1.645   4.745   1.864  0.5710 -0.0680  0.6417
 5457TIP3    H237931   1.783   4.738   1.803 -0.0892 -0.3926 -0.8470
 5458TIP3   OH237932   2.581   5.702   8.403  0.3225 -0.0993 -0.4488
 5458TIP3    H137933   2.574   5.693   8.308 -3.9223 -0.6808 -0.2546
 5458TIP3    H237934   2.630   5.783   8.416  0.1709  0.5124 -3.1187
 5459TIP3   OH237935   3.544   4.002   0.242  0.6350 -0.0295  1.0976
 5459TIP3    H137936   3.543   3.973   0.333 -0.1400  0.3456  1.2239
 5459TIP3    H237937   3.479   4.073   0.239 -1.0425 -1.5162 -0.2116
 5460TIP3   OH237938   6.836   1.199   0.389  0.3517 -0.0557 -0.2811
 5460TIP3    H137939   6.752   1.194   0.434 -0.0152 -0.7192 -1.0030
 5460TIP3    H237940   6.901   1.208   0.459 -0.2746 -0.0777  0.3116
 5461TIP3   OH237941   5.510   4.610   0.750 -0.3912  0.3496 -0.6649
 5461TIP3    H137942   5.544   4.521   0.746 -1.0589  0.0885 -0.5795
 5461TIP3    H237943   5.501   4.628   0.843  2.6392  1.6405 -0.4936
 5462TIP3   OH237944   1.067   3.053   0.168  0.8105 -0.4395  0.3998
 5462TIP3    H137945   1.055   3.046   0.074 -1.4147  1.6853  0.4217
 5462TIP3    H237946   1.143   3.111   0.178 -0.5042  1.4898 -0.2116
 5463TIP3   OH237947   1.662   6.843   2.006  0.3101  1.1183 -0.2773
 5463TIP3    H137948   1.718   6.794   1.946  0.8836  2.1938 -0.6355
 5463TIP3    H237949   1.574   6.834   1.970  0.5283  1.0383 -0.7961
 5464TIP3   OH237950   4.216   3.281   8.577  0.6275 -0.4152 -0.0556
 5464TIP3    H137951   4.288   3.219   8.583  0.1213 -0.8972  1.4654
 5464TIP3    H237952   4.140   3.234   8.610  0.3276  1.1107  1.6330
 5465TIP3   OH237953   2.214   5.541   1.724  0.6595 -0.5587  0.0605
 5465TIP3    H137954   2.259   5.483   1.785 -0.1241 -0.1476  1.0708
 5465TIP3    H237955   2.140   5.575   1.774  2.1044  2.8043  0.1765
 5466TIP3   OH237956   2.284   3.448   6.968 -0.2055  0.8111 -0.2822
 5466TIP3    H137957   2.314   3.443   6.877 -0.0617 -0.1478 -0.1866
 5466TIP3    H237958   2.363   3.467   7.019  0.3248 -1.7874 -0.0220
 5467TIP3   OH237959   5.512   0.403   1.175  0.5190  0.6550  0.0062
 5467TIP3    H137960   5.513   0.394   1.080 -1.8448 -0.8638  0.0642
 5467TIP3    H237961   5.429   0.445   1.195  0.3354 -0.3361  1.4763
 5468TIP3   OH237962   3.404   5.257   8.180  0.5391 -0.0199 -0.1037
 5468TIP3    H137963   3.333   5.236   8.120  0.2290  0.3669  0.1240
 5468TIP3    H237964   3.370   5.328   8.234  1.0619  0.1037  0.0741
 5469TIP3   OH237965   3.140   4.784   0.152  0.2386 -0.9326 -0.4321
 5469TIP3    H137966   3.127   4.780   0.057  0.3667 -0.9289 -0.4511
 5469TIP3    H237967   3.206   4.852   0.163  0.1551 -0.8679 -0.3327
 5470TIP3   OH237968   0.212   4.835   7.911  0.0825 -0.2843 -0.2148
 5470TIP3    H137969   0.213   4.847   7.816 -0.2859 -1.4346 -0.3709
 5470TIP3    H237970   0.193   4.742   7.924 -0.0812 -0.0981  0.9924
 5471TIP3   OH237971   2.077   2.292   0.675  0.4962 -0.1253 -0.4686
 5471TIP3    H137972   1.984   2.270   0.670  0.1101  1.1915  0.6182
 5471TIP3    H237973   2.119   2.209   0.698 -0.4875 -0.5631 -0.1793
 5472TIP3   OH237974   3.808   2.162   0.011 -0.6850 -0.0080 -0.4397
 5472TIP3    H137975   3.794   2.197  -0.077 -0.0709  0.1800 -0.4600
 5472TIP3    H237976   3.897   2.128   0.010 -1.0109 -0.8941 -0.1865
 5473TIP3   OH237977   4.063   0.126   1.808  0.3339  0.1453 -0.6760
 5473TIP3    H137978   4.088   0.106   1.898 -0.4751  0.3422 -0.3938
 5473TIP3    H237979   4.128   0.081   1.754  1.3226  0.7253  0.0146
 5474TIP3   OH237980   2.512   2.448   2.480 -0.0104  0.4087 -0.5462
 5474TIP3    H137981   2.534   2.418   2.568  1.5845  0.4862 -0.8799
 5474TIP3    H237982   2.529   2.372   2.424 -0.3756  0.5573 -0.8592
 5475TIP3   OH237983   1.166   0.190   6.812 -0.0489 -0.3268 -0.2333
 5475TIP3    H137984   1.081   0.183   6.855 -0.0881 -2.7576 -0.6027
 5475TIP3    H237985   1.152   0.156   6.724  1.0074  0.5430 -0.7603
 5476TIP3   OH237986   2.103   0.165   2.255 -0.5219 -0.1571  0.0449
 5476TIP3    H137987   2.019   0.153   2.211 -0.5024  0.3953 -0.1472
 5476TIP3    H237988   2.153   0.223   2.197  0.4495 -1.4161 -0.4428
 5477TIP3   OH237989   0.121   6.659   6.797 -0.1964 -0.3431 -0.5820
 5477TIP3    H137990   0.171   6.739   6.785 -1.0712  0.5875  1.5876
 5477TIP3    H237991   0.063   6.655   6.721 -0.4648  1.3169 -0.4793
 5478TIP3   OH237992   3.529   6.604   8.076  0.0292 -0.0774 -0.3201
 5478TIP3    H137993   3.445   6.647   8.062 -0.9289 -1.2486  1.3614
 5478TIP3    H237994   3.583   6.630   8.001 -0.8278  3.0485  0.0014
 5479TIP3   OH237995   1.733   4.485   8.623  0.1280 -0.5017 -0.4556
 5479TIP3    H137996   1.729   4.522   8.534 -2.5426  0.0318 -0.1846
 5479TIP3    H237997   1.739   4.562   8.680 -1.6278 -0.6298 -0.0554
 5480TIP3   OH237998   4.010   1.740   8.645  0.2370  0.1763 -0.2752
 5480TIP3    H137999   4.022   1.834   8.629 -0.1637  0.1047 -0.9952
 5480TIP3    H238000   4.084   1.699   8.601 -1.1774 -0.0686 -2.6174
 5481TIP3   OH238001   4.448   3.295   6.868  0.1488 -0.7005 -0.1760
 5481TIP3    H138002   4.502   3.337   6.801 -0.3403 -0.2608 -0.3052
 5481TIP3    H238003   4.370   3.267   6.820 -0.3952 -0.0072  0.2812
 5482TIP3   OH238004   3.947   4.286   0.309  0.4346 -1.3036 -0.0046
 5482TIP3    H138005   3.889   4.238   0.369 -0.5481 -1.4545 -1.0309
 5482TIP3    H238006   3.892   4.304   0.233  0.2748  2.7804  0.8692
 5483TIP3   OH238007   4.020   4.473   2.577  0.6219 -0.1899  0.3269
 5483TIP3    H138008   3.953   4.409   2.553 -0.6032  0.3846  1.9687
 5483TIP3    H238009   4.073   4.430   2.644  0.4907  0.1054  0.6281
 5484TIP3   OH238010   3.214   5.377   7.819 -0.2918  0.6248  0.1214
 5484TIP3    H138011   3.191   5.418   7.736  1.8965 -1.1633 -1.4944
 5484TIP3    H238012   3.162   5.297   7.822  0.5633  0.0452 -0.1762
 5485TIP3   OH238013   2.884   2.433   7.633  0.1685 -0.6578 -0.1111
 5485TIP3    H138014   2.798   2.436   7.675 -0.8327 -0.7025 -2.0199
 5485TIP3    H238015   2.880   2.501   7.566  1.9744 -0.0581  0.3423
 5486TIP3   OH238016   3.996   6.782   8.160 -0.3599  0.3267 -0.0321
 5486TIP3    H138017   4.060   6.844   8.125  2.4406 -1.0956  2.1595
 5486TIP3    H238018   3.991   6.802   8.253 -1.1346 -1.3013  0.3120
 5487TIP3   OH238019   2.265   4.618   7.810  0.0306 -0.4839  0.5468
 5487TIP3    H138020   2.189   4.594   7.863  0.9229 -0.4188  1.9042
 5487TIP3    H238021   2.237   4.695   7.761 -1.0585 -0.9887  0.3470
 5488TIP3   OH238022   6.328   3.161   1.006  0.6470 -0.3424 -0.1918
 5488TIP3    H138023   6.330   3.065   0.996 -0.8462 -0.3623 -0.4295
 5488TIP3    H238024   6.240   3.186   0.980  0.2308  0.8634  2.1554
 5489TIP3   OH238025   0.577   0.462   0.158 -0.4872  0.1759 -0.4715
 5489TIP3    H138026   0.594   0.372   0.185 -0.0936  0.7322  1.2456
 5489TIP3    H238027   0.558   0.455   0.064 -0.2350 -1.6510 -0.4335
 5490TIP3   OH238028   5.895   6.389   0.648 -0.1637  0.1034 -0.8602
 5490TIP3    H138029   5.871   6.482   0.646  1.4995  0.5543 -1.3948
 5490TIP3    H238030   5.906   6.369   0.741  1.8072  1.1275 -0.8196
 5491TIP3   OH238031   0.766   5.076   0.872  0.3563  0.4656 -0.0334
 5491TIP3    H138032   0.816   5.117   0.800  2.3979 -0.8434  0.5412
 5491TIP3    H238033   0.813   4.995   0.889 -0.0958  0.7153  2.7693
 5492TIP3   OH238034   4.407   6.618   7.781  0.0492 -0.4746 -0.4027
 5492TIP3    H138035   4.384   6.664   7.701  1.1813 -0.2155 -0.5970
 5492TIP3    H238036   4.460   6.543   7.752 -0.2325 -0.8497  0.0412
 5493TIP3   OH238037   1.813   4.456   7.903  0.8324 -0.1555 -0.0370
 5493TIP3    H138038   1.815   4.360   7.896  1.6790 -0.0035 -3.1685
 5493TIP3    H238039   1.744   4.483   7.842  0.9002  1.2648  0.4887
 5494TIP3   OH238040   4.100   4.962   8.603 -0.4266  0.7999 -0.0748
 5494TIP3    H138041   4.033   4.932   8.665 -0.7216  1.0969 -0.2488
 5494TIP3    H238042   4.052   4.980   8.523  0.0375 -0.1762 -0.5913
 5495TIP3   OH238043   1.721   4.622   1.541 -0.9339  0.3077 -0.1735
 5495TIP3    H138044   1.736   4.715   1.526 -0.4298  0.1473 -0.6664
 5495TIP3    H238045   1.725   4.613   1.636 -3.4049  1.1937  0.0981
 5496TIP3   OH238046   0.824   6.626   8.439 -0.3826 -0.4143 -0.5423
 5496TIP3    H138047   0.850   6.625   8.531  0.1985  2.1686 -0.6196
 5496TIP3    H238048   0.904   6.600   8.392 -0.3745 -0.6716 -0.3937
 5497TIP3   OH238049   5.252   5.996   6.875 -0.5011  0.0158  0.1921
 5497TIP3    H138050   5.211   5.943   6.943 -0.3594 -0.2075  0.1021
 5497TIP3    H238051   5.280   6.076   6.920 -0.4144 -0.1280  0.3937
 5498TIP3   OH238052   1.777   6.576   8.101 -0.4794 -0.0707 -0.3518
 5498TIP3    H138053   1.701   6.531   8.136 -0.1094 -1.0667 -0.8063
 5498TIP3    H238054   1.851   6.541   8.150 -0.2930  0.8282  0.0302
 5499TIP3   OH238055   5.123   0.432   0.831  0.3354  0.4357 -0.6463
 5499TIP3    H138056   5.143   0.525   0.824 -0.3230  0.6319  0.0588
 5499TIP3    H238057   5.076   0.423   0.914  0.2296 -0.4951 -0.7954
 5500TIP3   OH238058   5.229   1.053   8.205 -0.8389 -0.1235 -0.0644
 5500TIP3    H138059   5.230   0.988   8.275 -2.9363 -1.8425 -1.5061
 5500TIP3    H238060   5.305   1.030   8.151 -1.0651 -0.8314 -0.0904
 5501TIP3   OH238061   3.146   2.949   8.424  0.2959 -0.0388  0.5213
 5501TIP3    H138062   3.118   2.868   8.467  0.4488  0.0189  0.7327
 5501TIP3    H238063   3.065   2.990   8.394  0.0850  0.4506  1.6933
 5502TIP3   OH238064   4.987   2.203   0.110 -0.1094  0.2734 -0.1710
 5502TIP3    H138065   4.922   2.135   0.093 -1.0583  1.1011 -0.0091
 5502TIP3    H238066   4.961   2.240   0.194  1.0733  0.0816  0.2933
 5503TIP3   OH238067   2.906   4.844   8.228 -0.1536 -0.3988  0.0182
 5503TIP3    H138068   2.812   4.861   8.229  0.1610  2.2795 -2.2684
 5503TIP3    H238069   2.936   4.869   8.315 -1.3830  0.0222  0.3437
 5504TIP3   OH238070   6.420   0.134   1.331 -0.4367  0.7500  0.4605
 5504TIP3    H138071   6.439   0.115   1.239  0.2975  1.0264  0.5457
 5504TIP3    H238072   6.485   0.200   1.355 -1.3382  1.5132  0.8600
 5505TIP3   OH238073   2.468   3.931   1.609 -0.1580 -0.0298 -0.1669
 5505TIP3    H138074   2.519   4.004   1.575 -2.1050  2.3768  1.6413
 5505TIP3    H238075   2.506   3.913   1.695  2.0068 -3.1424 -1.5932
 5506TIP3   OH238076   2.981   1.511   0.298 -0.1215 -0.3484 -0.4863
 5506TIP3    H138077   2.928   1.586   0.324  2.4732  1.0090  1.3371
 5506TIP3    H238078   2.942   1.481   0.216 -3.2722  0.8739  0.4256
 5507TIP3   OH238079   0.239   4.992   6.973  0.4802 -0.5951 -0.6384
 5507TIP3    H138080   0.243   4.967   7.065  0.3308 -1.1639 -0.7852
 5507TIP3    H238081   0.148   4.978   6.947  0.9033 -2.2513 -1.3603
 5508TIP3   OH238082   2.349   2.870   7.303  0.6466 -0.1553 -0.1326
 5508TIP3    H138083   2.391   2.922   7.371  0.0441 -1.5283  1.3634
 5508TIP3    H238084   2.419   2.815   7.269  0.6978 -0.3353  0.2590
 5509TIP3   OH238085   2.501   1.670   7.490  0.1383 -0.2982  0.2652
 5509TIP3    H138086   2.407   1.687   7.494 -0.1162 -1.5938  0.4049
 5509TIP3    H238087   2.507   1.588   7.440  1.1908 -0.2579  0.3170
 5510TIP3   OH238088   5.855   0.974   0.246 -0.4875 -1.0168  0.3538
 5510TIP3    H138089   5.919   1.032   0.204 -3.0320  2.4029  0.8461
 5510TIP3    H238090   5.818   0.923   0.174  0.6318 -0.8694 -0.3583
 5511TIP3   OH238091   2.607   4.569   1.973 -0.0244 -0.5031  0.2551
 5511TIP3    H138092   2.623   4.486   2.018  0.4276  0.1118  1.2720
 5511TIP3    H238093   2.597   4.633   2.044 -2.3434 -0.0057 -0.4412
 5512TIP3   OH238094   4.726   3.188   1.502 -0.0533  0.1276 -0.4584
 5512TIP3    H138095   4.714   3.130   1.576  1.2150  0.9030  0.3945
 5512TIP3    H238096   4.637   3.212   1.475 -0.5409  0.1060  1.0439
 5513TIP3   OH238097   4.997   1.118   1.124  0.1668 -0.3050  0.7615
 5513TIP3    H138098   5.058   1.188   1.145 -0.1887 -0.3384  2.0032
 5513TIP3    H238099   5.015   1.050   1.190  0.3778 -1.3063 -0.2953
 5514TIP3   OH238100   2.715   6.187   1.268 -0.2567  0.0110 -0.3176
 5514TIP3    H138101   2.732   6.098   1.299 -2.8886 -0.2271  0.6989
 5514TIP3    H238102   2.649   6.176   1.200  1.7539  0.9951 -2.5795
 5515TIP3   OH238103   2.709   6.775   7.350 -0.1370 -0.3220 -0.1291
 5515TIP3    H138104   2.685   6.683   7.342  0.7911 -0.5997  0.2278
 5515TIP3    H238105   2.782   6.777   7.412 -1.3684  0.8559  1.3924
 5516TIP3   OH238106   0.672   0.063   1.325  0.2971  0.2909  0.0444
 5516TIP3    H138107   0.758   0.089   1.358 -0.1784  3.7550 -0.9814
 5516TIP3    H238108   0.613   0.076   1.399  0.3717  0.0618  0.1423
 5517TIP3   OH238109   1.580   3.300   7.068 -0.4419  0.1390  0.1317
 5517TIP3    H138110   1.615   3.385   7.093 -0.3621  0.7265 -1.8137
 5517TIP3    H238111   1.485   3.312   7.069 -0.4377  0.1622  0.2065
 5518TIP3   OH238112   2.895   1.229   0.440  0.6758 -0.4355  0.1308
 5518TIP3    H138113   2.977   1.278   0.441  1.3905 -1.6277  1.1897
 5518TIP3    H238114   2.895   1.185   0.355  0.9808 -0.2014  0.0067
 5519TIP3   OH238115   1.975   6.493   8.270 -0.6835 -0.2776 -0.1423
 5519TIP3    H138116   2.059   6.455   8.242 -0.9303 -1.0784  0.1777
 5519TIP3    H238117   1.991   6.520   8.361 -0.9950 -1.1714  0.1921
 5520TIP3   OH238118   1.339   1.796   8.429  0.1424  0.1934 -0.1909
 5520TIP3    H138119   1.374   1.814   8.341  1.3776 -0.9277  0.0342
 5520TIP3    H238120   1.343   1.880   8.474  2.4067  0.1961 -0.2648
 5521TIP3   OH238121   6.081   2.191   8.187 -0.3468  0.0845  0.6688
 5521TIP3    H138122   6.051   2.205   8.097  0.2497  2.0792  0.7383
 5521TIP3    H238123   6.150   2.126   8.179 -1.2037 -0.7740 -0.1201
 5522TIP3   OH238124   2.770   1.546   0.797 -0.0212 -0.4448 -0.0839
 5522TIP3    H138125   2.690   1.556   0.746  0.0192 -0.2580 -0.1103
 5522TIP3    H238126   2.777   1.451   0.813 -0.4232 -0.4281  0.2029
 5523TIP3   OH238127   1.343   6.074   0.305  0.2591 -0.1467 -0.3559
 5523TIP3    H138128   1.324   6.163   0.335 -0.4325 -0.0153 -1.1426
 5523TIP3    H238129   1.301   6.017   0.369  2.2917  0.0185  1.2289
 5524TIP3   OH238130   3.606   5.432   1.210 -0.0940  0.2839  0.1381
 5524TIP3    H138131   3.529   5.482   1.183 -0.5131  1.0572  2.5519
 5524TIP3    H238132   3.680   5.489   1.193 -0.3530  0.7807  0.6597
 5525TIP3   OH238133   2.849   1.885   8.278 -0.6390 -0.6857 -0.4075
 5525TIP3    H138134   2.875   1.976   8.294  0.0362 -0.6426 -1.6455
 5525TIP3    H238135   2.913   1.833   8.327 -1.4380 -0.5040  0.8665
 5526TIP3   OH238136   6.813   1.925   1.307 -0.5537  0.0717  0.1855
 5526TIP3    H138137   6.820   1.858   1.239 -0.0033 -0.8646  1.1417
 5526TIP3    H238138   6.728   1.908   1.349 -0.6120  0.2492  0.1394
 5527TIP3   OH238139   1.753   0.219   7.652 -0.1635  0.1022 -0.5335
 5527TIP3    H138140   1.741   0.253   7.564  0.0937  0.2245 -0.5199
 5527TIP3    H238141   1.664   0.199   7.682 -0.1546 -1.5376 -1.4502
 5528TIP3   OH238142   0.228   0.540   8.013 -0.4692 -0.0725  0.1508
 5528TIP3    H138143   0.136   0.564   8.002 -0.0008  0.8393 -2.1784
 5528TIP3    H238144   0.232   0.448   7.988 -0.7379 -0.1096  0.2412
 5529TIP3   OH238145   2.106   6.621   1.058  0.5769 -0.5798 -0.2705
 5529TIP3    H138146   2.108   6.633   0.963  1.0042 -0.9241 -0.3068
 5529TIP3    H238147   2.126   6.528   1.071 -0.0944 -0.6757  0.1274
 5530TIP3   OH238148   2.241   2.378   1.232  0.2532 -0.4244 -0.3730
 5530TIP3    H138149   2.235   2.398   1.139  0.7252 -0.1531 -0.3505
 5530TIP3    H238150   2.236   2.464   1.275  0.6717 -0.4893 -0.1862
 5531TIP3   OH238151   4.096   5.459   2.422  0.1993 -0.2991 -0.5662
 5531TIP3    H138152   4.087   5.548   2.456  0.4293 -0.3356 -0.4136
 5531TIP3    H238153   4.050   5.404   2.485  2.2127 -0.6027  0.7163
 5532TIP3   OH238154   1.083   0.648   7.629 -0.3650 -0.0598 -0.2284
 5532TIP3    H138155   1.147   0.710   7.663  0.4001 -0.9236 -0.0527
 5532TIP3    H238156   0.998   0.691   7.642  0.0093  0.2254  1.4770
 5533TIP3   OH238157   1.974   3.748   2.025 -0.4791 -0.4011  0.2462
 5533TIP3    H138158   1.923   3.812   2.074 -1.0036 -0.8879  0.3427
 5533TIP3    H238159   2.012   3.798   1.953 -0.3509  0.1513  0.6859
 5534TIP3   OH238160   6.699   2.498   0.788 -0.1478 -0.2152 -0.2057
 5534TIP3    H138161   6.664   2.413   0.765  1.7635 -0.6962 -1.5451
 5534TIP3    H238162   6.704   2.546   0.706  0.0396  0.7092  0.3269
 5535TIP3   OH238163   1.328   1.678   7.727 -0.1310  1.0113 -0.5937
 5535TIP3    H138164   1.328   1.710   7.817 -0.2153  0.0782 -0.2430
 5535TIP3    H238165   1.383   1.740   7.678  1.7496  0.3296  0.5520
 5536TIP3   OH238166   4.181   0.106   8.010 -0.1564 -0.4343  0.5844
 5536TIP3    H138167   4.212   0.197   8.013  0.1662 -0.5265  0.1264
 5536TIP3    H238168   4.191   0.081   7.919 -2.7345 -0.0876  0.1486
 5537TIP3   OH238169   0.576   0.809   0.169  0.6478  0.2582 -0.8714
 5537TIP3    H138170   0.512   0.782   0.235  0.8736  3.0257  0.6482
 5537TIP3    H238171   0.628   0.731   0.152 -0.8167 -1.1068  0.6117
 5538TIP3   OH238172   3.335   5.687   7.076 -0.2745 -0.2006 -0.0825
 5538TIP3    H138173   3.328   5.696   6.981 -0.9830 -2.3243 -0.2865
 5538TIP3    H238174   3.323   5.775   7.110  1.1049  0.8027 -1.9951
 5539TIP3   OH238175   0.140   0.059   0.418  0.6867 -0.2140 -0.4323
 5539TIP3    H138176   0.198   0.073   0.493  1.5612 -0.0602 -1.1114
 5539TIP3    H238177   0.155   0.136   0.363  1.0118 -0.9212 -1.3505
 5540TIP3   OH238178   0.611   1.286   0.262  0.7512  0.1320 -0.1535
 5540TIP3    H138179   0.602   1.301   0.167  1.1061  1.4275 -0.0073
 5540TIP3    H238180   0.528   1.314   0.298  1.2024  1.2355  0.0679
 5541TIP3   OH238181   3.950   1.144   7.175  0.3218 -0.4425  0.2131
 5541TIP3    H138182   3.999   1.132   7.256 -0.7204  0.6261  1.0317
 5541TIP3    H238183   3.945   1.239   7.163  0.7888 -0.5764 -1.3279
 5542TIP3   OH238184   5.689   4.989   8.652  0.2761  0.3658 -0.3348
 5542TIP3    H138185   5.684   4.934   8.730  1.0518 -1.6616 -1.6212
 5542TIP3    H238186   5.679   5.079   8.685  0.0838 -0.4387  2.0031
 5543TIP3   OH238187   5.236   2.209   6.668 -0.5652 -0.5079 -0.4119
 5543TIP3    H138188   5.254   2.123   6.631 -0.2187 -0.5853 -0.0665
 5543TIP3    H238189   5.154   2.237   6.625 -1.5802 -1.7155  0.6574
 5544TIP3   OH238190   1.705   6.559   7.245 -0.0025 -0.2851  0.0990
 5544TIP3    H138191   1.747   6.520   7.168  0.1434  2.2813 -1.2236
 5544TIP3    H238192   1.774   6.558   7.312  0.0493 -2.0377  0.0724
 5545TIP3   OH238193   2.129   5.495   0.680  0.0782  0.4358  0.0795
 5545TIP3    H138194   2.094   5.447   0.605 -1.0351  0.9705  0.2361
 5545TIP3    H238195   2.090   5.451   0.756 -0.1768  0.9693  0.2615
 5546TIP3   OH238196   3.571   3.638   8.011 -0.2394 -0.5320 -0.2092
 5546TIP3    H138197   3.604   3.727   8.021 -1.7364  0.0416 -0.0826
 5546TIP3    H238198   3.585   3.617   7.919  0.3721 -0.2818 -0.1779
 5547TIP3   OH238199   0.868   3.985   0.706  0.0554 -0.2123 -0.0102
 5547TIP3    H138200   0.784   4.029   0.717 -0.8164 -2.0507  1.0213
 5547TIP3    H238201   0.911   3.993   0.791  0.8720  0.5262 -0.4682
 5548TIP3   OH238202   5.938   6.349   0.926 -0.2275  0.1189  0.2784
 5548TIP3    H138203   5.918   6.410   0.998  0.8234  1.2219 -0.3175
 5548TIP3    H238204   5.915   6.263   0.961  1.7952  0.4058  2.5892
 5549TIP3   OH238205   0.938   4.328   6.526  0.6453  0.1224  0.2964
 5549TIP3    H138206   0.903   4.291   6.444  1.8788 -0.2231 -0.0938
 5549TIP3    H238207   0.920   4.261   6.592  0.8230 -0.1767  0.0427
 5550TIP3   OH238208   4.482   4.218   0.823 -0.2625  0.2925  0.0010
 5550TIP3    H138209   4.513   4.261   0.903 -0.6730  0.9045 -0.1525
 5550TIP3    H238210   4.525   4.266   0.753  0.7630 -0.7962 -0.1328
 5551TIP3   OH238211   2.374   6.306   1.349 -0.1981  0.6328 -0.2286
 5551TIP3    H138212   2.382   6.301   1.253 -0.0899  0.5585 -0.2155
 5551TIP3    H238213   2.379   6.215   1.378 -1.1203  0.5763 -0.2264
 5552TIP3   OH238214   0.541   2.932   8.417  0.8271 -0.5201  0.0287
 5552TIP3    H138215   0.469   2.895   8.468 -1.4170  1.7459 -1.2499
 5552TIP3    H238216   0.609   2.952   8.481 -0.2255 -1.4743  1.5018
 5553TIP3   OH238217   3.883   2.214   6.231  0.0760 -0.0494 -0.3461
 5553TIP3    H138218   3.878   2.145   6.296  0.2206  3.6525  4.1205
 5553TIP3    H238219   3.976   2.224   6.213  0.1393 -0.2424 -0.1198
 5554TIP3   OH238220   2.685   1.621   7.945 -0.4380 -0.4235  0.5118
 5554TIP3    H138221   2.670   1.709   7.981 -0.6685 -0.6511  0.9853
 5554TIP3    H238222   2.773   1.598   7.973  0.3898  0.4379 -1.2704
 5555TIP3   OH238223   1.793   1.410   8.261  0.2201 -0.5118 -0.6460
 5555TIP3    H138224   1.830   1.345   8.201  2.3208  0.7428 -0.7899
 5555TIP3    H238225   1.858   1.480   8.264 -2.5457  2.3453 -1.6460
 5556TIP3   OH238226   5.967   0.917   1.057 -0.2814  0.3512 -0.0259
 5556TIP3    H138227   6.055   0.886   1.079 -0.6747 -0.4277  0.4825
 5556TIP3    H238228   5.978   0.962   0.973 -0.0114 -3.0758 -2.0237
 5557TIP3   OH238229   1.949   3.588   6.501 -0.1846  0.3176 -0.2186
 5557TIP3    H138230   1.972   3.523   6.434  3.2702 -1.8496  2.7026
 5557TIP3    H238231   1.880   3.546   6.553  0.0124  0.2294 -0.0278
 5558TIP3   OH238232   4.036   3.929   1.256 -0.3779  0.3850 -0.8565
 5558TIP3    H138233   4.025   3.854   1.315  0.3279  1.9801  1.4482
 5558TIP3    H238234   4.116   3.909   1.207 -0.3060 -0.4769 -0.4074
 5559TIP3   OH238235   5.618   4.360   0.760 -0.3732  0.2434 -0.2221
 5559TIP3    H138236   5.609   4.274   0.720  0.7656  0.0761 -0.1484
 5559TIP3    H238237   5.652   4.343   0.848  2.6907  0.8509 -1.1860
 5560TIP3   OH238238   4.310   0.628   7.607  0.1211  0.2700  0.4362
 5560TIP3    H138239   4.327   0.606   7.699 -0.3242 -1.9576  0.0485
 5560TIP3    H238240   4.231   0.579   7.585  2.3064 -2.4808 -2.1603
 5561TIP3   OH238241   4.084   6.219   7.411 -0.7435 -0.7887  0.0194
 5561TIP3    H138242   4.168   6.223   7.365 -0.9642 -1.9755 -0.5265
 5561TIP3    H238243   4.106   6.227   7.503 -0.5287  5.3097 -0.1953
 5562TIP3   OH238244   6.282   5.226   6.604 -0.1506 -0.0006  0.2353
 5562TIP3    H138245   6.214   5.160   6.617  0.4191 -0.6633 -0.1088
 5562TIP3    H238246   6.246   5.306   6.644 -1.4896 -0.1041 -0.6952
 5563TIP3   OH238247   0.711   0.237   0.714  0.2464 -0.4493  0.0106
 5563TIP3    H138248   0.767   0.301   0.759 -0.1937 -0.6133  0.7993
 5563TIP3    H238249   0.622   0.269   0.727 -0.0094 -1.4248  0.7549
 5564TIP3   OH238250   4.481   0.777   2.452 -0.0292 -0.5894  0.2118
 5564TIP3    H138251   4.415   0.845   2.470 -0.1067 -0.3704 -0.8692
 5564TIP3    H238252   4.546   0.788   2.522  0.8768  1.7593 -0.8871
 5565TIP3   OH238253   2.497   0.453   8.561 -0.1633  0.1878  0.1596
 5565TIP3    H138254   2.496   0.369   8.606 -1.9211  0.2125  0.2298
 5565TIP3    H238255   2.519   0.517   8.629 -0.7592 -0.0099  0.5433
 5566TIP3   OH238256   1.127   5.290   7.626 -0.2649  0.2781  0.0075
 5566TIP3    H138257   1.168   5.314   7.709 -0.8185 -0.4637  0.5152
 5566TIP3    H238258   1.036   5.269   7.649 -0.6204  0.7392 -0.8996
 5567TIP3   OH238259   4.364   0.778   0.058 -0.3479  0.4444 -0.0338
 5567TIP3    H138260   4.373   0.871   0.077 -0.4322  0.5823 -0.6653
 5567TIP3    H238261   4.437   0.757   0.001 -0.5827  0.2241 -0.2595
 5568TIP3   OH238262   0.586   1.535   0.831 -0.3023  0.0432  0.2902
 5568TIP3    H138263   0.546   1.490   0.756 -0.9378  0.5929  0.2835
 5568TIP3    H238264   0.557   1.484   0.907 -0.2533 -0.0998  0.2128
 5569TIP3   OH238265   6.201   4.994   0.945 -0.2834  0.3813 -0.0038
 5569TIP3    H138266   6.276   5.012   1.002 -0.3148  0.9801 -0.1463
 5569TIP3    H238267   6.147   5.073   0.949  0.3115  0.9319 -1.7885
 5570TIP3   OH238268   4.817   4.997   2.348  0.0932  0.4052  0.6071
 5570TIP3    H138269   4.862   5.054   2.286  0.1199  0.0088  0.2551
 5570TIP3    H238270   4.842   5.031   2.434 -0.0915  1.0712  0.4059
 5571TIP3   OH238271   1.818   4.209   7.590 -0.1883  0.1356 -0.7089
 5571TIP3    H138272   1.806   4.123   7.550  1.3359  0.5233 -2.0647
 5571TIP3    H238273   1.746   4.262   7.556  0.5882  0.2120 -2.3113
 5572TIP3   OH238274   3.708   4.612   6.848 -0.8940 -0.3217  0.1864
 5572TIP3    H138275   3.798   4.641   6.830 -0.9793 -0.3172 -0.2269
 5572TIP3    H238276   3.654   4.687   6.826 -0.8749  0.3240  2.1311
 5573TIP3   OH238277   6.121   3.555   2.586  0.3999 -0.1492 -0.3759
 5573TIP3    H138278   6.072   3.634   2.564 -0.9557 -0.9457 -0.3438
 5573TIP3    H238279   6.168   3.578   2.667  0.1488  0.6675 -0.4478
 5574TIP3   OH238280   1.096   1.428   8.096  0.0259  1.1872  0.3618
 5574TIP3    H138281   1.076   1.401   8.006  2.4108 -0.4153  0.2142
 5574TIP3    H238282   1.033   1.379   8.150  0.0051  0.4135 -0.3369
 5575TIP3   OH238283   2.812   2.710   6.141 -0.0832  0.3962  0.0941
 5575TIP3    H138284   2.885   2.674   6.091  0.7611  0.7624  1.0431
 5575TIP3    H238285   2.819   2.805   6.129  0.4999  0.5334  1.3820
 5576TIP3   OH238286   0.763   1.614   1.702 -0.1439 -0.6762 -0.2844
 5576TIP3    H138287   0.723   1.672   1.766  0.2061  1.0672 -1.5846
 5576TIP3    H238288   0.855   1.607   1.730 -0.1097 -0.3320 -0.3069
 5577TIP3   OH238289   3.638   5.097   8.078  0.4974 -0.2917  0.4141
 5577TIP3    H138290   3.553   5.129   8.047  0.8284 -0.2087 -0.4526
 5577TIP3    H238291   3.688   5.177   8.095  0.9525 -0.3310 -0.6830
 5578TIP3   OH238292   5.464   2.322   0.089 -0.1055 -0.3971 -0.3948
 5578TIP3    H138293   5.375   2.352   0.075 -0.2734 -0.5305  0.3190
 5578TIP3    H238294   5.454   2.242   0.142  0.4480 -0.1341  0.1223
 5579TIP3   OH238295   6.772   3.331   1.259 -1.0664 -0.0309  0.4857
 5579TIP3    H138296   6.835   3.300   1.193 -0.4352  0.7209  0.7102
 5579TIP3    H238297   6.708   3.261   1.267  0.0958 -1.0954  0.6924
 5580TIP3   OH238298   5.781   4.411   7.342 -0.7067  0.3174 -0.0288
 5580TIP3    H138299   5.747   4.421   7.253 -1.1502  0.0571  0.1087
 5580TIP3    H238300   5.707   4.434   7.399 -0.3855  0.6192  0.2757
 5581TIP3   OH238301   6.143   5.837   8.116 -0.0920  0.1868  0.2713
 5581TIP3    H138302   6.231   5.803   8.131 -0.3664 -0.0948  1.3461
 5581TIP3    H238303   6.117   5.801   8.031  0.5881 -0.2370  0.2384
 5582TIP3   OH238304   6.766   4.238   8.105 -0.3188 -0.2128  0.4207
 5582TIP3    H138305   6.743   4.149   8.078 -1.9521  1.1308 -3.4526
 5582TIP3    H238306   6.681   4.279   8.124 -0.0986  1.5006 -1.8493
 5583TIP3   OH238307   4.890   6.399   7.441 -0.3229 -0.4808 -0.3720
 5583TIP3    H138308   4.966   6.422   7.387  0.0877  1.4054  0.9124
 5583TIP3    H238309   4.928   6.358   7.518 -0.5158  1.0593  0.5736
 5584TIP3   OH238310   5.382   0.992   1.709 -0.1836  0.5110 -0.4907
 5584TIP3    H138311   5.315   0.949   1.655 -0.9319  1.6793 -0.5382
 5584TIP3    H238312   5.339   1.006   1.793  1.0534 -1.5156  0.5468
 5585TIP3   OH238313   0.486   6.528   1.004 -0.2069  0.1791  0.2104
 5585TIP3    H138314   0.558   6.475   1.039 -0.3559 -0.0641  0.1514
 5585TIP3    H238315   0.519   6.561   0.920 -0.5208 -0.7362 -0.2837
 5586TIP3   OH238316   3.820   3.859   2.055  0.3547 -0.4498 -0.8718
 5586TIP3    H138317   3.742   3.812   2.084  0.8529 -1.7668 -1.5968
 5586TIP3    H238318   3.806   3.949   2.086 -0.8993 -0.9175  0.0226
 5587TIP3   OH238319   2.798   1.310   7.490 -0.2265 -0.6513  0.3866
 5587TIP3    H138320   2.813   1.365   7.567 -0.8485  0.3648 -0.1937
 5587TIP3    H238321   2.728   1.251   7.515  0.5554 -1.3097  1.0731
 5588TIP3   OH238322   0.236   4.332   0.283  0.2364  0.6506  0.0191
 5588TIP3    H138323   0.319   4.379   0.277  0.0770  0.9460  0.1040
 5588TIP3    H238324   0.169   4.401   0.283  0.0641  0.5231  1.8145
 5589TIP3   OH238325   1.467   2.717   1.403  0.4518  0.6761 -0.8496
 5589TIP3    H138326   1.392   2.777   1.399 -1.2358 -1.0230  2.0824
 5589TIP3    H238327   1.441   2.644   1.347 -1.4585 -1.1141  2.1054
 5590TIP3   OH238328   3.782   0.287   1.027 -0.2385 -0.4063 -0.0788
 5590TIP3    H138329   3.846   0.334   0.974  0.0077 -0.9025 -0.2298
 5590TIP3    H238330   3.772   0.341   1.106  0.4602 -0.3835  0.0035
 5591TIP3   OH238331   0.313   1.853   2.185  0.4938 -0.3797  0.0908
 5591TIP3    H138332   0.321   1.804   2.266  0.1532  1.0029  1.0096
 5591TIP3    H238333   0.228   1.827   2.149 -0.2897  0.4844  1.2520
 5592TIP3   OH238334   3.620   1.785   7.592  0.0020  0.1050  0.5409
 5592TIP3    H138335   3.688   1.778   7.659  0.4937 -0.5569  0.0007
 5592TIP3    H238336   3.668   1.773   7.509 -0.8561 -0.9671  0.1770
 5593TIP3   OH238337   6.205   0.062   7.431  0.1774  0.5561 -0.1580
 5593TIP3    H138338   6.284   0.052   7.378 -0.3035  1.6427 -1.1238
 5593TIP3    H238339   6.238   0.083   7.519  0.9743  0.1692 -0.3581
 5594TIP3   OH238340   1.566   2.518   8.466 -0.1435  0.5459  0.5136
 5594TIP3    H138341   1.577   2.470   8.549 -0.8157 -0.5924 -0.0272
 5594TIP3    H238342   1.634   2.483   8.410 -0.2596  0.6664  0.2982
 5595TIP3   OH238343   6.568   3.013   8.443 -0.2182 -0.4418 -0.3642
 5595TIP3    H138344   6.503   3.050   8.502 -0.0546  0.4871 -0.7417
 5595TIP3    H238345   6.652   3.033   8.485  0.1544  3.3217 -2.4047
 5596TIP3   OH238346   6.512   4.984   7.923  0.1608  0.2677 -0.0724
 5596TIP3    H138347   6.483   5.011   7.836 -1.5600  1.2687  0.7776
 5596TIP3    H238348   6.577   5.049   7.948 -1.3383  1.5783  0.4902
 5597TIP3   OH238349   3.432   6.662   8.327  0.2680  0.8364 -0.3459
 5597TIP3    H138350   3.428   6.736   8.265 -0.5830  0.3690 -0.8734
 5597TIP3    H238351   3.486   6.597   8.283  1.0478  1.1409  0.1351
 5598TIP3   OH238352   2.018   5.318   7.405 -0.0723  0.4031  0.0874
 5598TIP3    H138353   2.040   5.404   7.370 -3.0212  0.9885 -0.5965
 5598TIP3    H238354   2.068   5.311   7.486  0.3603  2.7132  0.0892
 5599TIP3   OH238355   2.326   0.375   0.753  0.4208 -0.2009  0.2176
 5599TIP3    H138356   2.309   0.440   0.821 -0.4438 -0.5791  0.3831
 5599TIP3    H238357   2.239   0.349   0.723  0.7888 -0.1985 -0.8907
 5600TIP3   OH238358   2.588   5.571   7.289  0.2309  0.0515  0.5135
 5600TIP3    H138359   2.648   5.625   7.238  0.2979  0.8311  1.3792
 5600TIP3    H238360   2.616   5.481   7.274  0.2618  0.2663 -0.7833
 5601TIP3   OH238361   1.258   3.104   8.428 -0.1952  0.1276 -0.1124
 5601TIP3    H138362   1.291   3.148   8.350 -1.2758 -2.0018 -1.8598
 5601TIP3    H238363   1.313   3.026   8.437 -0.0928  0.3379  1.2864
 5602TIP3   OH238364   3.458   1.100   7.692 -0.2855  0.2267 -0.4669
 5602TIP3    H138365   3.522   1.109   7.622  0.8096 -1.2624  0.2697
 5602TIP3    H238366   3.511   1.100   7.772 -1.2629 -0.4351  0.1945
 5603TIP3   OH238367   6.126   0.251   6.863  0.1534 -0.0264 -0.2184
 5603TIP3    H138368   6.151   0.233   6.772  1.5042 -0.5641  0.2300
 5603TIP3    H238369   6.037   0.283   6.857  0.6962  1.3293 -1.8766
 5604TIP3   OH238370   5.306   3.473   7.600 -0.4357 -0.2636  0.0907
 5604TIP3    H138371   5.369   3.438   7.538 -0.5255 -2.2942  1.0754
 5604TIP3    H238372   5.317   3.421   7.679 -2.3943  0.2208  0.7601
 5605TIP3   OH238373   0.113   3.576   7.208  0.2464  0.2577 -0.1787
 5605TIP3    H138374   0.029   3.585   7.162  1.0020 -0.8650 -1.8777
 5605TIP3    H238375   0.112   3.486   7.240  0.9279  0.1304 -0.5056
 5606TIP3   OH238376   2.335   3.900   1.251 -0.7300  0.5045  0.4744
 5606TIP3    H138377   2.292   3.891   1.166  0.5868  1.0136 -0.2743
 5606TIP3    H238378   2.406   3.835   1.249 -1.8178 -0.8173  1.9559
 5607TIP3   OH238379   1.757   4.139   8.431  0.4454  0.7319  0.8791
 5607TIP3    H138380   1.676   4.093   8.407 -0.0092  1.9567 -0.1050
 5607TIP3    H238381   1.738   4.180   8.515 -0.6283  2.3927 -0.0995
 5608TIP3   OH238382   1.272   2.161   6.535 -0.3253 -0.5432 -0.2177
 5608TIP3    H138383   1.354   2.115   6.555 -0.7629 -0.8995  0.8338
 5608TIP3    H238384   1.294   2.253   6.545 -0.0701 -0.6423  0.1936
 5609TIP3   OH238385   0.326   6.336   8.638  0.3943  0.0681 -0.0926
 5609TIP3    H138386   0.331   6.427   8.665 -1.1160 -0.4385  2.1928
 5609TIP3    H238387   0.243   6.329   8.591  0.5710 -0.1120 -0.3812
 5610TIP3   OH238388   6.645   6.804   7.077  0.3650  0.0681 -0.2726
 5610TIP3    H138389   6.701   6.726   7.069  1.1019  0.4855  0.5915
 5610TIP3    H238390   6.630   6.812   7.172  0.8017  1.3258 -0.3005
 5611TIP3   OH238391   1.868   2.306   1.021 -0.9019  0.3643 -0.0323
 5611TIP3    H138392   1.926   2.350   1.083 -2.1136 -1.1430  2.3101
 5611TIP3    H238393   1.788   2.358   1.021 -1.2696 -0.1904  0.4756
 5612TIP3   OH238394   4.713   1.864   0.346 -0.0588  0.6621  0.0381
 5612TIP3    H138395   4.659   1.785   0.354  1.6866 -0.6844 -0.6743
 5612TIP3    H238396   4.749   1.878   0.434 -0.7849  0.9760  0.2862
 5613TIP3   OH238397   4.410   2.774   0.792 -0.2444 -0.5820  0.0414
 5613TIP3    H138398   4.495   2.803   0.824 -0.5316 -0.3125  0.5699
 5613TIP3    H238399   4.392   2.694   0.842 -0.7988 -0.0345  0.7366
 5614TIP3   OH238400   0.486   3.089   7.855 -0.2676 -0.2189  0.3467
 5614TIP3    H138401   0.557   3.089   7.791  0.0205 -0.8902  0.6547
 5614TIP3    H238402   0.485   2.999   7.889 -1.5572 -0.3455  0.0175
 5615TIP3   OH238403   5.011   2.335   7.950  0.3735 -0.6265  0.2350
 5615TIP3    H138404   5.095   2.370   7.978  0.6939 -1.6870  0.6715
 5615TIP3    H238405   5.031   2.246   7.919 -0.5630 -0.8502  0.2271
 5616TIP3   OH238406   3.222   5.117   0.466 -0.1175 -0.2252 -0.2376
 5616TIP3    H138407   3.144   5.172   0.473 -0.2004 -0.2335 -1.0614
 5616TIP3    H238408   3.241   5.092   0.556 -0.8543  0.0720  0.0080
 5617TIP3   OH238409   6.435   1.351   8.399 -0.2259 -0.6343  0.5976
 5617TIP3    H138410   6.386   1.397   8.467  0.7343  2.0413 -0.3874
 5617TIP3    H238411   6.386   1.368   8.318  1.5466  1.1264 -0.2101
 5618TIP3   OH238412   2.941   3.485   7.880  0.5445  0.0392  0.1863
 5618TIP3    H138413   2.922   3.406   7.830 -0.7475  0.5796 -0.2093
 5618TIP3    H238414   3.004   3.533   7.827 -0.1865  0.2125 -0.5471
 5619TIP3   OH238415   4.660   6.121   0.954  0.1015 -1.0261  0.1736
 5619TIP3    H138416   4.621   6.178   1.021 -0.2457  0.0962 -0.9328
 5619TIP3    H238417   4.612   6.144   0.874  2.1600 -0.5444 -0.9721
 5620TIP3   OH238418   2.526   1.476   7.314  0.1141  0.5821 -0.1484
 5620TIP3    H138419   2.537   1.381   7.314  1.0890  0.6836  0.3460
 5620TIP3    H238420   2.471   1.494   7.238 -0.8230 -0.4518  0.2558
 5621TIP3   OH238421   6.451   2.722   6.111 -0.4542  0.5824 -0.2422
 5621TIP3    H138422   6.483   2.802   6.152  0.5019  0.2205 -0.2675
 5621TIP3    H238423   6.505   2.652   6.149 -1.7167 -0.1408  0.2779
 5622TIP3   OH238424   6.678   4.680   6.628 -0.0251 -0.3668  0.0531
 5622TIP3    H138425   6.655   4.739   6.557  0.3692 -0.1928  0.0633
 5622TIP3    H238426   6.762   4.642   6.602 -0.5561 -1.3905 -0.2397
 5623TIP3   OH238427   2.338   0.576   6.345 -0.2491  0.4697 -0.9589
 5623TIP3    H138428   2.346   0.646   6.410 -3.4952  2.2543 -2.2373
 5623TIP3    H238429   2.426   0.566   6.310  1.0813  1.2411  1.8208
 5624TIP3   OH238430   2.310   6.315   7.447 -0.1160 -0.2755  0.2526
 5624TIP3    H138431   2.379   6.299   7.383  0.2239  0.9217  0.3111
 5624TIP3    H238432   2.271   6.398   7.421 -0.6657 -0.2871  1.0000
 5625TIP3   OH238433   4.339   2.716   7.518  0.2952 -0.2093 -0.7626
 5625TIP3    H138434   4.329   2.795   7.465 -0.6737  0.0162 -0.2604
 5625TIP3    H238435   4.370   2.650   7.456  0.3301  0.3543 -1.3557
 5626TIP3   OH238436   0.555   5.772   0.031  0.0092  0.1051  0.0864
 5626TIP3    H138437   0.507   5.788   0.112  0.7305  0.9483  0.3646
 5626TIP3    H238438   0.496   5.800  -0.039  0.5261  2.3482  0.4789
 5627TIP3   OH238439   2.791   5.756   1.344  0.5808 -0.4024 -0.4076
 5627TIP3    H138440   2.750   5.679   1.304 -0.5142 -1.9269  3.2825
 5627TIP3    H238441   2.881   5.728   1.361  0.3934 -0.6057  0.2584
 5628TIP3   OH238442   1.192   5.370   7.872  0.1085  0.7458 -0.0093
 5628TIP3    H138443   1.222   5.330   7.954  1.4032 -0.2935 -0.9577
 5628TIP3    H238444   1.182   5.463   7.893  1.1865  0.6251  1.1212
 5629TIP3   OH238445   4.707   4.794   7.706  0.3619 -0.3796  0.3155
 5629TIP3    H138446   4.692   4.846   7.627 -0.1073 -3.2707 -1.6193
 5629TIP3    H238447   4.803   4.788   7.712  0.5107  1.9153  1.5229
 5630TIP3   OH238448   4.543   1.280   7.418 -0.2177  0.2032  0.1484
 5630TIP3    H138449   4.453   1.250   7.411  0.5370 -2.1518 -0.4743
 5630TIP3    H238450   4.536   1.372   7.443 -2.7527 -0.1693  1.0788
 5631TIP3   OH238451   1.940   1.712   0.698 -0.1981 -0.4120  0.0760
 5631TIP3    H138452   1.962   1.802   0.721 -1.1559 -0.1788  0.1044
 5631TIP3    H238453   1.924   1.668   0.782  0.9366 -0.8082  0.1111
 5632TIP3   OH238454   4.082   2.989   8.303 -0.6304 -0.3018  0.0958
 5632TIP3    H138455   4.012   3.017   8.244 -0.1036 -1.8244 -1.3339
 5632TIP3    H238456   4.093   2.895   8.285  0.3354 -0.5701  1.8188
 5633TIP3   OH238457   1.078   4.061   7.647  0.8223 -0.0323 -0.4501
 5633TIP3    H138458   1.115   4.149   7.634  0.7140  0.2374  0.9155
 5633TIP3    H238459   1.007   4.055   7.583 -0.2087  1.5018  0.4930
 5634TIP3   OH238460   1.392   3.866   1.510  0.4657 -0.2225 -0.1510
 5634TIP3    H138461   1.390   3.783   1.463 -0.0363 -1.1137  1.3985
 5634TIP3    H238462   1.450   3.850   1.585 -0.9743  0.2806  1.1105
 5635TIP3   OH238463   2.534   2.969   1.856 -0.1213 -0.0302  0.0034
 5635TIP3    H138464   2.626   2.994   1.862  0.4066 -0.3003 -4.1682
 5635TIP3    H238465   2.494   3.006   1.935  2.7795  3.6441  0.0319
 5636TIP3   OH238466   4.571   4.442   8.636 -0.2835  0.5443 -0.8077
 5636TIP3    H138467   4.599   4.485   8.555  0.0526 -1.4534 -1.8009
 5636TIP3    H238468   4.494   4.392   8.611  0.0766 -0.4366 -0.0024
 5637TIP3   OH238469   0.821   2.847   8.294  0.4227 -0.6494  0.0981
 5637TIP3    H138470   0.842   2.810   8.380  1.1241 -4.3866 -1.4748
 5637TIP3    H238471   0.737   2.807   8.271  1.2257 -1.4099 -1.7297
 5638TIP3   OH238472   1.114   4.112   7.940  0.2647  0.0885  0.4463
 5638TIP3    H138473   1.101   4.018   7.953 -1.3646  0.4251  1.6585
 5638TIP3    H238474   1.063   4.132   7.861  0.6056 -0.0485  0.1917
 5639TIP3   OH238475   3.797   0.921   7.216  0.1235  0.2302  0.4380
 5639TIP3    H138476   3.835   1.009   7.225  1.3111 -0.3088  0.8713
 5639TIP3    H238477   3.716   0.925   7.267 -0.0043  1.1676  0.1794
 5640TIP3   OH238478   3.139   3.725   0.303 -0.1446  0.8306  0.1621
 5640TIP3    H138479   3.173   3.814   0.295  0.3079  0.6475  0.0094
 5640TIP3    H238480   3.078   3.728   0.377  0.7502  0.9980  0.9085
 5641TIP3   OH238481   1.266   5.549   7.529 -0.1460 -0.2502  0.1960
 5641TIP3    H138482   1.284   5.455   7.541  0.0043 -0.0974  1.2343
 5641TIP3    H238483   1.296   5.590   7.610 -1.0815  0.5740  0.1479
 5642TIP3   OH238484   4.387   3.593   1.432 -0.0306  0.3317 -0.2784
 5642TIP3    H138485   4.454   3.550   1.378 -0.9586  0.0249 -1.2396
 5642TIP3    H238486   4.311   3.599   1.374 -1.2735 -0.5427  1.1739
 5643TIP3   OH238487   6.534   6.808   8.702  0.1555 -0.0167  0.2178
 5643TIP3    H138488   6.543   6.764   8.618  0.7691  0.8035 -0.1551
 5643TIP3    H238489   6.624   6.817   8.734 -0.1368 -1.7092  1.7157
 5644TIP3   OH238490   4.873   5.719   0.788  0.6990 -0.3767  0.3553
 5644TIP3    H138491   4.964   5.745   0.803  0.8068  0.1190 -0.9780
 5644TIP3    H238492   4.838   5.786   0.729 -0.3434 -0.9026  0.3459
 5645TIP3   OH238493   3.261   6.834   0.196  0.6609  0.6590 -0.3860
 5645TIP3    H138494   3.256   6.738   0.195 -0.5630  0.7020 -0.5441
 5645TIP3    H238495   3.351   6.853   0.219  0.8910 -0.5374 -0.2137
 5646TIP3   OH238496   0.581   2.301   7.705  0.4418  0.6716 -0.8385
 5646TIP3    H138497   0.497   2.268   7.673  0.7568  0.1001 -1.0917
 5646TIP3    H238498   0.622   2.341   7.628 -0.1821  2.2131 -0.4130
 5647TIP3   OH238499   1.480   1.298   8.596 -0.0777 -0.1462 -0.2431
 5647TIP3    H138500   1.421   1.281   8.522  0.5704 -1.0788 -0.5693
 5647TIP3    H238501   1.437   1.367   8.646 -0.7648  0.1604 -1.2300
 5648TIP3   OH238502   6.382   1.777   8.361  0.1529  0.2473 -0.1181
 5648TIP3    H138503   6.461   1.829   8.351 -0.1105  0.7623  0.4525
 5648TIP3    H238504   6.371   1.733   8.277  1.1055  0.0817 -0.1629
 5649TIP3   OH238505   4.981   3.365   7.009 -0.0394  0.1028 -0.6186
 5649TIP3    H138506   5.002   3.455   7.032 -1.1826  0.0595  0.7570
 5649TIP3    H238507   4.889   3.367   6.982 -0.2950 -0.7363  0.1255
 5650TIP3   OH238508   6.546   1.690   1.736  0.6908  0.2330 -0.2043
 5650TIP3    H138509   6.620   1.750   1.744  1.5630 -0.6762 -1.1847
 5650TIP3    H238510   6.578   1.608   1.773 -0.1732  0.0865  0.2525
 5651TIP3   OH238511   6.225   5.322   7.839  0.2281  0.1751  0.0953
 5651TIP3    H138512   6.260   5.402   7.877  2.3533 -0.8415  0.4453
 5651TIP3    H238513   6.300   5.281   7.796 -1.1254 -0.9229 -1.3524
 5652TIP3   OH238514   6.539   0.169   1.966  0.6026 -0.1580  0.5421
 5652TIP3    H138515   6.445   0.156   1.980 -0.0386  3.2824  0.2856
 5652TIP3    H238516   6.577   0.169   2.054 -0.1692  1.4506  0.9020
 5653TIP3   OH238517   5.147   5.807   7.366  0.1607  0.0571  0.3662
 5653TIP3    H138518   5.163   5.862   7.443 -1.0843  0.6527  0.2232
 5653TIP3    H238519   5.143   5.718   7.401  0.2684  0.2507  0.8828
 5654TIP3   OH238520   3.722   5.956   7.119 -0.5214  0.0526  0.0330
 5654TIP3    H138521   3.801   6.001   7.088  0.4310 -0.6907  1.2959
 5654TIP3    H238522   3.749   5.865   7.129 -1.7571 -0.3551 -0.1883
 5655TIP3   OH238523   3.785   1.188   0.634  0.0371  0.2488  0.4421
 5655TIP3    H138524   3.830   1.168   0.553  1.2412  1.3033  0.8200
 5655TIP3    H238525   3.695   1.157   0.620  0.8378 -1.9177 -0.3172
 5656TIP3   OH238526   0.873   6.340   1.547  0.7957  0.0828  0.0384
 5656TIP3    H138527   0.883   6.246   1.533  0.4283  0.2584 -1.7120
 5656TIP3    H238528   0.858   6.350   1.641 -0.9290 -1.7787  0.0222
 5657TIP3   OH238529   5.555   4.471   1.644  0.5627  0.8504  0.5792
 5657TIP3    H138530   5.485   4.434   1.589  0.3071  1.0287  0.7875
 5657TIP3    H238531   5.531   4.448   1.733  0.0996  2.0187  0.7669
 5658TIP3   OH238532   2.036   3.781   0.923  0.2043  0.2705 -0.4984
 5658TIP3    H138533   2.034   3.688   0.898 -1.0068 -0.2763  1.3539
 5658TIP3    H238534   1.960   3.819   0.880 -0.8760 -0.2733  0.8276
 5659TIP3   OH238535   1.536   1.084   0.848  0.3567  0.4159 -0.3205
 5659TIP3    H138536   1.505   1.173   0.827 -1.8357 -0.4788 -1.1612
 5659TIP3    H238537   1.459   1.039   0.882  1.4239 -1.1863  0.0747
 5660TIP3   OH238538   5.892   6.244   1.647  0.3914 -0.3099  0.6180
 5660TIP3    H138539   5.838   6.171   1.674 -0.6686  0.5819  0.9844
 5660TIP3    H238540   5.982   6.211   1.650 -0.0827 -1.6330  0.5864
 5661TIP3   OH238541   2.514   1.996   0.182  0.7326 -0.2260 -0.8201
 5661TIP3    H138542   2.481   2.084   0.203  1.4853 -0.2876  0.7791
 5661TIP3    H238543   2.453   1.962   0.118 -0.4674  0.8814 -0.3039
 5662TIP3   OH238544   5.751   1.848   0.410 -0.4058 -0.0614 -0.4817
 5662TIP3    H138545   5.745   1.838   0.315  1.1817 -1.9451 -0.4490
 5662TIP3    H238546   5.670   1.893   0.435 -0.8087  0.5603 -2.7172
 5663TIP3   OH238547   6.799   4.766   1.137 -0.6151  0.2741  0.2406
 5663TIP3    H138548   6.885   4.725   1.123 -1.0311 -0.3953 -0.4368
 5663TIP3    H238549   6.819   4.860   1.144  0.3357 -0.0166  1.7359
 5664TIP3   OH238550   4.907   4.936   8.482 -0.1507  0.4585  0.2956
 5664TIP3    H138551   4.961   4.889   8.546 -0.9954  0.2864  0.9020
 5664TIP3    H238552   4.817   4.913   8.506 -0.4685 -0.5093 -1.6712
 5665TIP3   OH238553   1.340   4.647   1.052 -0.4172 -0.1049  0.3421
 5665TIP3    H138554   1.254   4.687   1.042 -0.8836 -1.2237 -0.2343
 5665TIP3    H238555   1.400   4.721   1.055 -1.3194  0.6644 -0.0139
 5666TIP3   OH238556   4.584   1.884   6.617  0.1125 -0.2596  0.2218
 5666TIP3    H138557   4.492   1.871   6.638  0.1854 -1.6380 -0.2443
 5666TIP3    H238558   4.588   1.874   6.522  0.3882  2.1287 -0.0774
 5667TIP3   OH238559   2.663   5.509   0.802  0.1751 -0.0992 -0.1102
 5667TIP3    H138560   2.686   5.440   0.864 -1.3359 -0.9232 -0.4044
 5667TIP3    H238561   2.615   5.463   0.732 -2.7239  1.4276  0.6917
 5668TIP3   OH238562   3.446   6.694   8.595 -0.0347  0.1717  0.3500
 5668TIP3    H138563   3.441   6.600   8.611 -1.1209  0.2153  0.3591
 5668TIP3    H238564   3.498   6.703   8.515  1.0463 -0.3594  0.9851
 5669TIP3   OH238565   2.200   2.692   6.443  0.6269 -0.4607  0.0430
 5669TIP3    H138566   2.151   2.645   6.375  0.1793  1.8960 -1.3904
 5669TIP3    H238567   2.210   2.629   6.514 -2.2609 -1.8676 -0.6512
 5670TIP3   OH238568   2.626   6.456   1.696  0.2600 -0.6118 -0.4041
 5670TIP3    H138569   2.656   6.467   1.606  0.2524 -0.7174 -0.4189
 5670TIP3    H238570   2.703   6.474   1.750  0.1011  0.1278 -0.4065
 5671TIP3   OH238571   1.285   6.505   1.035 -0.1770  0.3705  0.2429
 5671TIP3    H138572   1.267   6.416   1.003 -1.3940  0.2692  1.1563
 5671TIP3    H238573   1.318   6.551   0.957  5.3496 -2.0345  0.6321
 5672TIP3   OH238574   1.829   6.182   1.615 -0.4145  0.0525 -0.3843
 5672TIP3    H138575   1.783   6.257   1.578  0.5701  0.6542 -0.4307
 5672TIP3    H238576   1.915   6.184   1.574  0.0351 -0.3956  0.5003
 5673TIP3   OH238577   3.964   5.794   7.254  0.4538  0.3601 -0.1841
 5673TIP3    H138578   4.024   5.797   7.180  0.2816  0.4138 -0.3203
 5673TIP3    H238579   4.015   5.752   7.324  0.4582 -0.1359 -0.4782
 5674TIP3   OH238580   3.727   2.183   0.968 -0.3133  0.0680  0.3381
 5674TIP3    H138581   3.637   2.213   0.954 -0.4388  0.3792  1.6727
 5674TIP3    H238582   3.733   2.167   1.062  0.7003 -1.0630  0.1063
 5675TIP3   OH238583   2.597   6.451   8.366 -0.3232 -0.0796  0.5574
 5675TIP3    H138584   2.683   6.420   8.395  0.4362 -0.4211 -1.8142
 5675TIP3    H238585   2.609   6.544   8.351  0.4048 -0.4927 -1.9646
 5676TIP3   OH238586   6.575   5.938   1.117  0.3284  0.2683 -0.4450
 5676TIP3    H138587   6.559   5.848   1.088  0.0959 -0.2207  1.1338
 5676TIP3    H238588   6.618   5.979   1.042 -0.6996 -0.7837 -1.6749
 5677TIP3   OH238589   0.387   1.910   1.933 -0.0629 -0.0376 -0.2535
 5677TIP3    H138590   0.351   1.928   2.019 -0.8134  1.2327 -0.7961
 5677TIP3    H238591   0.420   1.995   1.903 -1.2286 -0.0868 -1.8355
 5678TIP3   OH238592   3.593   0.614   8.396  0.4384  0.7056  0.2791
 5678TIP3    H138593   3.638   0.669   8.332  0.8631  0.5910  0.4787
 5678TIP3    H238594   3.518   0.667   8.424 -0.4947  0.2548 -1.2603
 5679TIP3   OH238595   2.510   6.239   7.241  0.0770 -0.1332 -0.0040
 5679TIP3    H138596   2.450   6.164   7.236  0.2233 -0.2336 -0.2858
 5679TIP3    H238597   2.593   6.201   7.273  0.8210 -0.5127 -2.2075
 5680TIP3   OH238598   3.545   6.247   7.117 -0.3544  0.3360  0.3265
 5680TIP3    H138599   3.600   6.258   7.039 -2.0460  0.8631 -0.8675
 5680TIP3    H238600   3.491   6.326   7.118 -3.2841 -1.5240 -0.4213
 5681TIP3   OH238601   3.346   5.962   8.389  0.1115 -0.2588  0.0434
 5681TIP3    H138602   3.276   5.908   8.353 -0.2496  0.3075 -0.1137
 5681TIP3    H238603   3.420   5.949   8.328  0.7094 -2.1253  1.0839
 5682TIP3   OH238604   0.954   6.068   7.589  0.3572  0.2147 -0.0498
 5682TIP3    H138605   0.949   6.076   7.493  1.5111  0.0426 -0.1466
 5682TIP3    H238606   0.918   6.150   7.622 -0.5087  0.0708 -0.6157
 5683TIP3   OH238607   2.272   6.276   0.545  0.2757 -0.0098  0.0966
 5683TIP3    H138608   2.337   6.206   0.538  1.1615  0.2680  3.5384
 5683TIP3    H238609   2.194   6.234   0.580  0.8504  0.6083  2.2965
 5684TIP3   OH238610   3.519   0.547   1.366 -0.1548  0.6794 -0.1046
 5684TIP3    H138611   3.525   0.478   1.299  2.3266  2.9273 -2.4845
 5684TIP3    H238612   3.571   0.514   1.439 -1.1138 -0.9614 -0.1159
 5685TIP3   OH238613   1.403   3.393   7.246  0.1595  0.2770  0.2482
 5685TIP3    H138614   1.390   3.452   7.172 -1.9171 -0.1008  0.2522
 5685TIP3    H238615   1.338   3.419   7.310  1.7372  0.4066  1.8757
 5686TIP3   OH238616   2.667   6.618   0.275 -0.2593  0.0854 -0.3783
 5686TIP3    H138617   2.692   6.663   0.355 -0.7286 -0.8415  0.3140
 5686TIP3    H238618   2.614   6.682   0.227 -0.4909  0.4380  0.3394
 5687TIP3   OH238619   3.642   3.683   1.578  0.3553 -0.1538 -0.4449
 5687TIP3    H138620   3.564   3.701   1.630  0.3590 -1.8157  0.2136
 5687TIP3    H238621   3.652   3.587   1.582  1.6457 -0.1054 -1.6471
 5688TIP3   OH238622   5.235   5.306   2.070 -0.3636 -0.2901 -0.3849
 5688TIP3    H138623   5.291   5.364   2.121  0.2873 -0.5774 -0.7652
 5688TIP3    H238624   5.276   5.220   2.078 -0.1855 -0.3178 -1.4921
 5689TIP3   OH238625   5.351   6.177   7.054 -0.5100  0.1027 -0.1468
 5689TIP3    H138626   5.420   6.242   7.068  0.5132 -1.0445  0.3302
 5689TIP3    H238627   5.343   6.132   7.138  0.3796 -1.8328 -1.0354
 5690TIP3   OH238628   0.211   0.353   0.674  0.1127  0.0543  0.2457
 5690TIP3    H138629   0.169   0.439   0.682  0.8908  0.5076 -0.3813
 5690TIP3    H238630   0.144   0.291   0.700 -0.2827  0.8913  1.2644
 5691TIP3   OH238631   6.262   3.958   1.217 -0.3373 -0.3391 -0.1668
 5691TIP3    H138632   6.205   3.881   1.215 -0.4814 -0.2373 -0.0541
 5691TIP3    H238633   6.344   3.927   1.256 -0.4436 -0.4027  0.0062
 5692TIP3   OH238634   2.310   5.104   7.821  0.4985  0.6385 -0.4883
 5692TIP3    H138635   2.251   5.142   7.756 -0.1998 -2.0120 -1.4882
 5692TIP3    H238636   2.266   5.025   7.850  2.1352  0.2707  1.1366
 5693TIP3   OH238637   5.624   2.749   0.977  0.3271 -0.3624  0.2136
 5693TIP3    H138638   5.593   2.793   1.056  0.1007  0.9215 -0.5637
 5693TIP3    H238639   5.681   2.814   0.934 -0.5806 -0.5296 -1.3243
 5694TIP3   OH238640   6.653   3.846   0.841 -0.2550  0.0699  0.3951
 5694TIP3    H138641   6.714   3.774   0.859  1.0599  0.7400 -1.0830
 5694TIP3    H238642   6.570   3.816   0.876  0.3677 -1.9529  0.3002
 5695TIP3   OH238643   3.258   4.707   2.337  0.0352 -0.3990  0.3735
 5695TIP3    H138644   3.204   4.755   2.399 -0.2359  0.2307 -0.3311
 5695TIP3    H238645   3.325   4.770   2.309  0.6977 -0.9474  0.6829
 5696TIP3   OH238646   3.212   5.449   0.272 -0.0432  0.7665 -0.6295
 5696TIP3    H138647   3.247   5.367   0.236  0.9542  0.5943  0.6582
 5696TIP3    H238648   3.239   5.448   0.364 -2.8436  0.9770  0.3117
 5697TIP3   OH238649   4.155   3.588   1.249 -0.1297  0.2794 -0.5385
 5697TIP3    H138650   4.165   3.663   1.191 -1.0849  0.2353 -0.7903
 5697TIP3    H238651   4.064   3.594   1.279 -0.0809 -0.5222 -0.2126
 5698TIP3   OH238652   5.646   0.556   7.116  0.2384 -0.4565 -0.3087
 5698TIP3    H138653   5.719   0.617   7.123 -0.7081  0.5232  1.7111
 5698TIP3    H238654   5.624   0.534   7.206 -2.9075  0.4754 -0.7250
 5699TIP3   OH238655   4.981   0.924   7.869 -0.4689 -0.2258 -0.1576
 5699TIP3    H138656   4.988   0.957   7.779 -0.3228 -0.8581 -0.3846
 5699TIP3    H238657   5.055   0.865   7.879 -0.3476  0.0246  0.4651
 5700TIP3   OH238658   3.169   3.261   1.615  0.4676 -0.4003 -0.2729
 5700TIP3    H138659   3.087   3.219   1.588 -0.5034  1.1542  0.1397
 5700TIP3    H238660   3.217   3.274   1.533 -0.2175 -0.3092 -0.6700
 5701TIP3   OH238661   5.288   4.532   1.455 -0.3836  0.0772 -0.0525
 5701TIP3    H138662   5.323   4.452   1.417 -0.8479  0.5485 -1.5612
 5701TIP3    H238663   5.292   4.596   1.383  0.8647  1.6859  1.3742
 5702TIP3   OH238664   1.468   0.679   8.339  0.5731  0.0242 -0.1391
 5702TIP3    H138665   1.545   0.623   8.344  0.4925 -0.0950 -0.2288
 5702TIP3    H238666   1.445   0.680   8.246 -0.0845 -0.6821  0.0067
 5703TIP3   OH238667   5.667   2.746   6.972 -0.1348  0.2378 -0.3806
 5703TIP3    H138668   5.760   2.721   6.972 -0.5083 -1.2653 -0.9050
 5703TIP3    H238669   5.659   2.811   6.902  0.4667  0.1588 -0.5262
 5704TIP3   OH238670   4.638   1.528   7.385  0.0357  0.4636  0.2145
 5704TIP3    H138671   4.628   1.622   7.372  0.5539  0.4738 -0.1014
 5704TIP3    H238672   4.673   1.495   7.302 -0.0890 -0.0011  0.3402
 5705TIP3   OH238673   1.786   5.070   0.605  0.0389  0.3474  0.6326
 5705TIP3    H138674   1.818   5.146   0.655  1.0341 -0.5338  1.3751
 5705TIP3    H238675   1.732   5.022   0.667 -0.7304  0.5277  0.1105
 5706TIP3   OH238676   2.471   2.667   7.146 -0.1707  0.2453 -0.6155
 5706TIP3    H138677   2.494   2.724   7.072 -1.9897  0.8532 -0.7557
 5706TIP3    H238678   2.498   2.579   7.117 -0.8770  0.4630 -2.0349
 5707TIP3   OH238679   0.239   5.061   7.558 -0.2181 -0.0090  0.5381
 5707TIP3    H138680   0.331   5.082   7.568 -0.2293  0.7755 -0.8295
 5707TIP3    H238681   0.238   4.967   7.539  0.3573  0.1311 -0.2064
 5708TIP3   OH238682   0.788   1.607   6.609 -0.1584  0.4043  0.3675
 5708TIP3    H138683   0.851   1.618   6.537 -0.9412  2.2013 -0.0932
 5708TIP3    H238684   0.757   1.696   6.628 -1.3665 -0.2534  1.6793
 5709TIP3   OH238685   6.385   4.015   8.283  0.4019  1.1325  0.6277
 5709TIP3    H138686   6.316   3.994   8.346  1.0817 -2.2161  0.4276
 5709TIP3    H238687   6.465   4.020   8.336  0.5857  0.9939  0.3672
 5710TIP3   OH238688   4.734   4.791   2.180  1.1109  0.1665  0.4992
 5710TIP3    H138689   4.746   4.703   2.214  2.5965 -0.4140 -1.4069
 5710TIP3    H238690   4.761   4.849   2.252  0.1046 -0.8856  1.7678
 5711TIP3   OH238691   1.726   6.384   0.283  0.1220 -0.1087 -0.0759
 5711TIP3    H138692   1.705   6.422   0.197  0.0582 -1.5944 -0.7441
 5711TIP3    H238693   1.701   6.452   0.346 -0.1853  0.8623 -1.2097
 5712TIP3   OH238694   4.115   2.984   1.022  0.4204  0.5690  0.3106
 5712TIP3    H138695   4.128   2.912   0.960 -0.2719 -0.5333  1.4006
 5712TIP3    H238696   4.173   3.053   0.990  0.4130 -0.1157 -1.3031
 5713TIP3   OH238697   2.967   5.917   0.731  0.0804 -0.1676  0.6481
 5713TIP3    H138698   2.941   5.825   0.721 -0.1309 -0.0288 -0.1324
 5713TIP3    H238699   2.905   5.966   0.678  0.2544  0.4254  0.9794
 5714TIP3   OH238700   1.101   2.152   1.324 -0.0676 -0.8100 -0.6864
 5714TIP3    H138701   1.031   2.212   1.295  1.4109  1.9496  0.9959
 5714TIP3    H238702   1.180   2.187   1.283  1.2929  0.2955  2.5503
 5715TIP3   OH238703   4.028   2.252   2.102 -0.1345 -1.3425  0.0254
 5715TIP3    H138704   3.970   2.326   2.082  0.8946 -0.7712 -0.9068
 5715TIP3    H238705   3.974   2.175   2.086 -0.9306 -0.8138  0.0936
 5716TIP3   OH238706   1.791   0.064   1.169 -0.8034 -0.2854  0.0164
 5716TIP3    H138707   1.748   0.148   1.150  0.2352 -0.2557 -2.4881
 5716TIP3    H238708   1.873   0.090   1.211  0.4283  0.1514 -2.4969
 5717TIP3   OH238709   1.742   5.862   7.235 -0.0546 -0.0530  0.5469
 5717TIP3    H138710   1.768   5.931   7.173  0.1869  1.3754  2.1769
 5717TIP3    H238711   1.647   5.858   7.228 -0.0080 -0.2175 -0.1867
 5718TIP3   OH238712   0.484   4.346   8.174  0.2484  0.2801 -0.7547
 5718TIP3    H138713   0.453   4.437   8.166  0.1730  0.1430 -2.6134
 5718TIP3    H238714   0.451   4.317   8.258 -2.2360  1.0822 -1.3477
 5719TIP3   OH238715   0.287   0.309   7.669  0.1612  0.1590 -0.5047
 5719TIP3    H138716   0.233   0.243   7.710 -0.6701  2.3424  2.2197
 5719TIP3    H238717   0.363   0.319   7.727  0.1711  1.6934 -0.7222
 5720TIP3   OH238718   2.326   2.036   1.321  0.3599 -0.2366  0.1362
 5720TIP3    H138719   2.327   2.049   1.226 -1.4411  3.2925  0.4541
 5720TIP3    H238720   2.340   2.123   1.358  1.2024 -1.5187  3.1872
 5721TIP3   OH238721   0.629   1.337   8.181 -0.0996 -0.3800  0.6276
 5721TIP3    H138722   0.676   1.419   8.166 -1.9151  0.3349 -1.9084
 5721TIP3    H238723   0.564   1.359   8.249 -0.0123  0.0308  0.5791
 5722TIP3   OH238724   3.282   2.192   0.874  0.1179 -0.6739  0.1255
 5722TIP3    H138725   3.337   2.161   0.802  0.7109  0.6837 -0.0419
 5722TIP3    H238726   3.240   2.271   0.840 -1.3867 -1.2828  0.5085
 5723TIP3   OH238727   2.077   0.087   1.126 -1.1272  0.3486  0.6159
 5723TIP3    H138728   2.080   0.096   1.221 -0.4612 -0.1239  0.6378
 5723TIP3    H238729   2.036   0.002   1.110 -0.9542  0.2899  0.4808
 5724TIP3   OH238730   4.414   2.218   7.567 -0.2585 -0.0722 -0.3757
 5724TIP3    H138731   4.443   2.218   7.476  1.2255 -0.5755  0.0744
 5724TIP3    H238732   4.482   2.170   7.614 -2.0193 -1.6324  0.6998
 5725TIP3   OH238733   3.219   1.868   7.440 -0.1988 -0.0368  0.0015
 5725TIP3    H138734   3.280   1.937   7.466 -0.5276 -0.1538  1.1589
 5725TIP3    H238735   3.181   1.838   7.523 -0.4743 -1.2211 -0.5428
 5726TIP3   OH238736   1.492   1.012   2.322  0.4490 -0.1414 -0.1058
 5726TIP3    H138737   1.587   1.006   2.336  0.4694 -0.0392 -0.2043
 5726TIP3    H238738   1.472   0.940   2.263  0.6285  0.4758 -0.9371
 5727TIP3   OH238739   0.909   1.366   0.296  0.2371 -0.4305 -0.2092
 5727TIP3    H138740   0.897   1.380   0.389 -0.8339  1.2798 -0.5542
 5727TIP3    H238741   0.840   1.305   0.271  0.2520 -0.5487  0.0405
 5728TIP3   OH238742   2.368   2.041   2.133 -0.2863  0.3708  0.3441
 5728TIP3    H138743   2.316   2.112   2.171 -1.4543  0.3407 -1.0621
 5728TIP3    H238744   2.314   2.008   2.061 -0.5226 -2.9910  1.8343
 5729TIP3   OH238745   0.349   5.314   1.938 -0.2303 -0.5995  0.4852
 5729TIP3    H138746   0.317   5.225   1.923 -0.4400 -0.3863 -0.4220
 5729TIP3    H238747   0.394   5.309   2.022  1.3567 -2.0180 -0.3782
 5730TIP3   OH238748   4.554   0.270   0.986  0.1412  0.1112  0.4506
 5730TIP3    H138749   4.560   0.301   0.896  2.0862 -1.6766 -0.1361
 5730TIP3    H238750   4.460   0.260   1.002 -0.3394  2.3057 -0.6523
 5731TIP3   OH238751   4.544   2.930   7.235 -0.0477  0.2812  0.2314
 5731TIP3    H138752   4.585   2.993   7.175  3.1689 -0.9457  0.9466
 5731TIP3    H238753   4.586   2.847   7.215 -1.0222 -0.7658  2.2269
 5732TIP3   OH238754   3.078   2.752   7.955 -0.3394 -0.4107  0.3334
 5732TIP3    H138755   3.035   2.722   8.035 -0.4874 -0.1619  0.3473
 5732TIP3    H238756   3.012   2.738   7.886 -1.0429  1.4228  0.5826
 5733TIP3   OH238757   6.005   2.890   1.120  0.4359 -0.2143  0.3231
 5733TIP3    H138758   6.025   2.876   1.028 -2.0258  0.5533 -0.4057
 5733TIP3    H238759   6.080   2.939   1.154 -0.3020  3.2041 -2.3640
 5734TIP3   OH238760   1.423   4.548   0.581  0.3881 -0.1198  0.2306
 5734TIP3    H138761   1.374   4.628   0.562 -0.3740 -1.0127 -1.8638
 5734TIP3    H238762   1.499   4.578   0.631  0.2519  1.9569 -0.6840
 5735TIP3   OH238763   6.747   1.079   8.561  0.9683  0.3177 -0.2210
 5735TIP3    H138764   6.765   1.169   8.586 -1.0344  1.3000 -2.0434
 5735TIP3    H238765   6.685   1.048   8.627  2.6489 -0.2724  1.1855
 5736TIP3   OH238766   1.275   4.197   6.418  0.3183 -0.0255  0.6479
 5736TIP3    H138767   1.345   4.162   6.474  1.1429 -1.7655 -1.2883
 5736TIP3    H238768   1.259   4.127   6.354 -0.9123  1.6214 -0.9575
 5737TIP3   OH238769   5.746   5.175   0.502  0.0282  0.3614  0.2471
 5737TIP3    H138770   5.657   5.198   0.476 -0.7136  0.1461  2.4633
 5737TIP3    H238771   5.744   5.081   0.515  0.2890  0.4990  1.3445
 5738TIP3   OH238772   6.631   2.435   6.712 -0.3268  0.5574  0.4829
 5738TIP3    H138773   6.539   2.424   6.687  0.2691 -1.7967 -0.9961
 5738TIP3    H238774   6.652   2.525   6.687 -2.1147  1.0119  0.4809
 5739TIP3   OH238775   1.936   2.399   7.454 -1.4256  1.4494 -0.7897
 5739TIP3    H138776   1.984   2.482   7.465  0.3221  0.3230  0.7954
 5739TIP3    H238777   1.980   2.356   7.381 -1.4194  1.3428 -0.7239
 5740TIP3   OH238778   1.407   0.980   1.940  0.1271 -0.6781 -0.7801
 5740TIP3    H138779   1.317   1.005   1.917 -0.4543 -2.7816 -0.9878
 5740TIP3    H238780   1.400   0.945   2.028  0.7174 -1.0490 -0.8791
 5741TIP3   OH238781   2.974   6.552   0.274  0.5198  0.1267 -0.2109
 5741TIP3    H138782   3.017   6.468   0.257  0.4439  0.0503 -0.0267
 5741TIP3    H238783   2.884   6.529   0.296  0.1662  0.3402 -1.3747
 5742TIP3   OH238784   3.734   0.963   6.350  0.0667  0.3322 -0.0043
 5742TIP3    H138785   3.790   1.004   6.285 -0.0622  0.7485  0.1449
 5742TIP3    H238786   3.645   0.985   6.323  0.0013  0.2550  0.1428
 5743TIP3   OH238787   2.269   6.825   7.187 -0.0604 -0.6015 -0.5516
 5743TIP3    H138788   2.338   6.880   7.223 -0.4599 -1.9718  2.6883
 5743TIP3    H238789   2.312   6.741   7.170 -0.8575 -1.6153  1.9324
 5744TIP3   OH238790   0.459   2.951   7.412  0.6697  0.9562 -0.1848
 5744TIP3    H138791   0.517   2.882   7.443  0.0828  0.7713  0.5430
 5744TIP3    H238792   0.420   2.987   7.492 -1.3904  0.0316 -0.6940
 5745TIP3   OH238793   0.888   1.012   6.625 -0.4455  0.1464 -0.7677
 5745TIP3    H138794   0.848   0.964   6.698  1.5835 -0.4922 -0.0087
 5745TIP3    H238795   0.910   0.944   6.561 -0.5583  0.4863 -1.1740
 5746TIP3   OH238796   1.260   2.313   7.455  0.2201  0.1650  0.1351
 5746TIP3    H138797   1.338   2.289   7.405  0.0420  0.0243 -0.0766
 5746TIP3    H238798   1.293   2.372   7.523  0.5613 -0.1466  0.2478
 5747TIP3   OH238799   2.083   2.871   7.124 -0.5567  0.0681 -0.9132
 5747TIP3    H138800   2.052   2.951   7.168  0.3088 -0.0060 -0.1222
 5747TIP3    H238801   2.178   2.877   7.130 -0.4644 -1.8509  0.7456
 5748TIP3   OH238802   0.240   3.479   0.255 -0.1401 -0.3685  0.7175
 5748TIP3    H138803   0.161   3.465   0.202  0.1463 -0.0479  0.2050
 5748TIP3    H238804   0.306   3.507   0.192 -0.4415  2.5468  1.5653
 5749TIP3   OH238805   1.892   6.797   0.127  0.0997  0.4530 -0.0318
 5749TIP3    H138806   1.971   6.808   0.181 -0.4070  0.5631  0.7062
 5749TIP3    H238807   1.921   6.814   0.038  0.9415  0.3549  0.2172
 5750TIP3   OH238808   4.024   3.036   7.865  0.0174 -0.3848  0.1830
 5750TIP3    H138809   4.003   2.949   7.832 -1.4531  0.2794 -0.7439
 5750TIP3    H238810   3.983   3.039   7.952  0.3609 -0.7310  0.3565
 5751TIP3   OH238811   4.476   6.172   6.770  0.2109  0.5221  0.6490
 5751TIP3    H138812   4.525   6.120   6.833 -0.4327  0.5321  1.1659
 5751TIP3    H238813   4.473   6.260   6.808  0.1100  0.6110  0.4380
 5752TIP3   OH238814   6.237   3.712   0.072  0.3954  0.0693  0.2104
 5752TIP3    H138815   6.179   3.747   0.139  0.3846  0.9138 -0.2290
 5752TIP3    H238816   6.202   3.625   0.053 -1.2967  0.8791 -0.6734
 5753TIP3   OH238817   5.157   4.109   8.304  0.1793  0.7412  0.0836
 5753TIP3    H138818   5.062   4.103   8.316  0.4260 -0.9874  1.6191
 5753TIP3    H238819   5.193   4.103   8.392  1.7358  1.6814 -0.4474
 5754TIP3   OH238820   2.452   5.126   1.813  0.4295 -0.2024  0.1501
 5754TIP3    H138821   2.440   5.147   1.721 -0.4771 -0.6712  0.1525
 5754TIP3    H238822   2.537   5.164   1.836  0.3186  0.5660 -0.6771
 5755TIP3   OH238823   6.613   3.191   0.003  0.5050 -0.1041 -0.3030
 5755TIP3    H138824   6.678   3.186  -0.068  0.6837  0.5198 -0.1929
 5755TIP3    H238825   6.532   3.161  -0.037  0.2078  1.8591 -1.2913
 5756TIP3   OH238826   6.797   0.577   6.041  0.2896  0.1196 -0.3995
 5756TIP3    H138827   6.744   0.584   6.120 -0.1631 -1.6495 -0.5030
 5756TIP3    H238828   6.736   0.546   5.974  1.0578 -0.2053 -0.9660
 5757TIP3   OH238829   3.098   0.510   7.418 -0.1549 -0.2252 -0.1144
 5757TIP3    H138830   3.015   0.489   7.376 -0.4854  0.0299  0.4095
 5757TIP3    H238831   3.079   0.585   7.475  0.3305 -0.4529  0.3585
 5758TIP3   OH238832   5.073   2.621   6.795 -0.3367  0.2600 -0.5443
 5758TIP3    H138833   5.161   2.651   6.772 -0.3415  0.0434 -0.8451
 5758TIP3    H238834   5.083   2.584   6.882 -0.5622  2.2399  0.3937
 5759TIP3   OH238835   6.375   6.606   1.442 -0.3689 -0.5896  0.0151
 5759TIP3    H138836   6.360   6.607   1.347  1.0281  1.3487 -0.2533
 5759TIP3    H238837   6.287   6.614   1.480 -0.8509  0.0719 -1.1775
 5760TIP3   OH238838   4.147   3.626   6.639 -0.1777 -0.1477 -0.4914
 5760TIP3    H138839   4.077   3.588   6.693 -0.5445 -0.6287 -1.2753
 5760TIP3    H238840   4.153   3.717   6.667 -1.5650  0.0712 -0.8257
 5761TIP3   OH238841   1.147   1.920   1.178  0.5973  0.1690  0.7553
 5761TIP3    H138842   1.134   1.962   1.264  1.9134 -0.0266  1.0778
 5761TIP3    H238843   1.059   1.896   1.149  0.1926 -0.5239  2.4415
 5762TIP3   OH238844   6.402   6.315   0.104 -0.2362  0.3243 -0.3972
 5762TIP3    H138845   6.311   6.338   0.123 -0.6228 -0.9232 -0.6395
 5762TIP3    H238846   6.453   6.374   0.159 -1.2172  0.2235  0.6747
 5763TIP3   OH238847   6.026   1.925   2.466 -0.1748 -0.1844 -0.0756
 5763TIP3    H138848   6.014   1.906   2.559  1.1255 -3.0192 -0.3845
 5763TIP3    H238849   5.968   1.999   2.449 -0.9116  0.0317  2.8295
 5764TIP3   OH238850   3.698   4.702   7.320 -0.0992  0.0211  0.3627
 5764TIP3    H138851   3.787   4.679   7.350 -0.4065 -1.8128 -0.0529
 5764TIP3    H238852   3.701   4.797   7.310  1.6821  0.0578  0.8155
 5765TIP3   OH238853   5.163   4.081   7.071 -0.1872  0.6848  0.2205
 5765TIP3    H138854   5.191   4.084   6.980  1.0764 -0.5367  0.5168
 5765TIP3    H238855   5.158   4.172   7.099  0.7593  1.0239 -0.6869
 5766TIP3   OH238856   0.865   4.559   0.591 -0.2677 -0.2425 -0.1055
 5766TIP3    H138857   0.852   4.530   0.501  0.3008  0.0290 -0.2830
 5766TIP3    H238858   0.897   4.480   0.637  0.2051 -0.1809 -0.3270
 5767TIP3   OH238859   4.400   6.421   1.295  0.0975 -0.2248 -0.0594
 5767TIP3    H138860   4.383   6.339   1.340  2.1210 -0.3298  0.5940
 5767TIP3    H238861   4.453   6.473   1.356 -0.9606  1.5144 -0.5296
 5768TIP3   OH238862   4.792   3.862   7.747  0.0678  0.1981  0.2983
 5768TIP3    H138863   4.863   3.802   7.772  0.5530  0.6384 -0.0019
 5768TIP3    H238864   4.823   3.903   7.666 -0.4647  0.5078  0.2491
 5769TIP3   OH238865   4.662   6.486   0.568 -0.0699  0.0742 -0.1702
 5769TIP3    H138866   4.751   6.498   0.535  0.3533  0.5816  1.1083
 5769TIP3    H238867   4.662   6.397   0.604  0.2538  0.4614  0.8061
 5770TIP3   OH238868   5.879   2.203   1.715 -0.0158  0.5018 -0.0453
 5770TIP3    H138869   5.950   2.254   1.677  1.5585 -1.1052  0.5560
 5770TIP3    H238870   5.918   2.163   1.793 -1.1259 -1.5848 -0.4772
 5771TIP3   OH238871   0.241   5.605   0.274  0.9339 -0.1443 -0.1781
 5771TIP3    H138872   0.189   5.613   0.354  0.1965 -1.5581 -0.4924
 5771TIP3    H238873   0.327   5.577   0.305  0.9227  0.2095  0.1815
 5772TIP3   OH238874   5.444   1.850   1.205  0.1262  0.0151 -0.4647
 5772TIP3    H138875   5.532   1.886   1.192  0.9146 -1.7970 -0.4877
 5772TIP3    H238876   5.450   1.798   1.285 -0.6624 -0.8391 -0.9323
 5773TIP3   OH238877   2.593   2.039   7.232 -0.2727  0.1695  0.8116
 5773TIP3    H138878   2.629   1.958   7.195  0.2011  0.1336  1.3449
 5773TIP3    H238879   2.599   2.028   7.327 -1.2418  0.3726  0.9009
 5774TIP3   OH238880   1.401   4.131   8.056 -0.4462 -0.4643 -0.0816
 5774TIP3    H138881   1.314   4.092   8.053 -0.3174 -0.8795  1.0917
 5774TIP3    H238882   1.385   4.223   8.078 -0.6108 -0.4143 -0.4032
 5775TIP3   OH238883   5.523   4.301   1.891 -0.3869 -0.0675  0.1541
 5775TIP3    H138884   5.514   4.223   1.946  0.3075 -0.0764  0.2685
 5775TIP3    H238885   5.434   4.324   1.866 -0.7800  0.2829  1.7649
 5776TIP3   OH238886   3.324   4.463   7.537 -0.1665  0.4762 -0.2941
 5776TIP3    H138887   3.288   4.445   7.450  0.1802  0.2671 -0.3971
 5776TIP3    H238888   3.351   4.555   7.533  0.5058  0.2723 -0.6488
 5777TIP3   OH238889   1.742   6.687   6.313  0.1266 -0.3194  0.2703
 5777TIP3    H138890   1.762   6.614   6.254 -0.8683  0.4533 -1.0740
 5777TIP3    H238891   1.828   6.718   6.341  0.6803 -0.2377 -1.3842
 5778TIP3   OH238892   4.585   1.196   0.840 -0.7934  0.7064  0.6978
 5778TIP3    H138893   4.625   1.176   0.924 -1.2430  2.2295  1.3111
 5778TIP3    H238894   4.513   1.133   0.831  1.3984 -1.8647 -0.2790
 5779TIP3   OH238895   6.093   6.255   6.410  0.0866 -0.5735  0.3867
 5779TIP3    H138896   6.009   6.241   6.366 -1.1712  0.8054  2.2017
 5779TIP3    H238897   6.080   6.220   6.498  1.0671  0.5824  1.0161
 5780TIP3   OH238898   4.174   0.253   0.247  0.4623  0.7141  0.2042
 5780TIP3    H138899   4.267   0.233   0.252  0.0740 -1.6353 -0.7856
 5780TIP3    H238900   4.155   0.300   0.328  2.3755  0.6763  0.7051
 5781TIP3   OH238901   0.443   2.469   1.521 -0.8434 -0.3978 -0.0831
 5781TIP3    H138902   0.494   2.409   1.466 -0.5869  0.2619 -0.5639
 5781TIP3    H238903   0.452   2.433   1.610 -0.7718 -1.1277 -0.3775
 5782TIP3   OH238904   2.605   3.223   6.885 -0.1618 -0.4885 -0.5652
 5782TIP3    H138905   2.559   3.194   6.963 -1.4205 -1.4743 -1.6312
 5782TIP3    H238906   2.690   3.178   6.888 -0.1414 -0.3925  0.2980
 5783TIP3   OH238907   2.286   1.711   1.063  0.0107 -0.1330 -0.0792
 5783TIP3    H138908   2.370   1.686   1.102 -0.4792 -1.6328  0.0942
 5783TIP3    H238909   2.229   1.727   1.138 -1.2436 -4.0629  0.0584
 5784TIP3   OH238910   6.356   1.491   0.745 -0.2890 -0.0074  0.1280
 5784TIP3    H138911   6.392   1.453   0.664 -0.3978 -0.4568  0.2910
 5784TIP3    H238912   6.276   1.535   0.717  1.0433  2.2100 -0.4980
 5785TIP3   OH238913   4.864   5.860   7.412 -0.0249  0.0099 -0.2380
 5785TIP3    H138914   4.939   5.906   7.373 -1.2343  1.8442 -0.5191
 5785TIP3    H238915   4.837   5.798   7.344  0.9720 -0.4087 -0.2816
 5786TIP3   OH238916   3.937   0.431   7.291  0.1875 -0.5692 -0.2764
 5786TIP3    H138917   3.849   0.395   7.283 -0.1056 -0.1711  0.9712
 5786TIP3    H238918   3.969   0.397   7.374  0.6593  0.4560 -0.0256
 5787TIP3   OH238919   0.499   5.046   6.915  0.2665  0.1061  0.7788
 5787TIP3    H138920   0.476   5.123   6.862  1.2676 -0.2369 -0.2048
 5787TIP3    H238921   0.415   5.006   6.936 -0.3988  2.2036  2.5116
 5788TIP3   OH238922   2.850   3.543   0.057  0.0240  0.1145 -0.1964
 5788TIP3    H138923   2.845   3.455   0.019 -2.1132 -0.5505  1.4089
 5788TIP3    H238924   2.942   3.553   0.082  0.0405 -2.4512  1.2103
 5789TIP3   OH238925   2.186   5.995   6.409  0.0245  0.3692  0.0908
 5789TIP3    H138926   2.224   6.021   6.492  0.6576 -0.7041  0.1565
 5789TIP3    H238927   2.253   5.940   6.368 -0.8255 -0.2344 -0.5175
 5790TIP3   OH238928   2.106   6.139   2.480  0.7090  0.1683  0.5124
 5790TIP3    H138929   2.077   6.144   2.389  0.5963  1.3035  0.5953
 5790TIP3    H238930   2.102   6.229   2.511  0.8253 -0.1973  1.6220
 5791TIP3   OH238931   1.293   6.325   0.085 -0.1443  0.2997  0.1546
 5791TIP3    H138932   1.387   6.323   0.067 -0.4172 -0.6416 -1.3941
 5791TIP3    H238933   1.257   6.379   0.015 -0.9233 -0.7411 -0.2694
 5792TIP3   OH238934   5.496   4.181   6.440 -0.2956 -0.4819  0.0404
 5792TIP3    H138935   5.481   4.234   6.518  0.5602  0.1973 -0.2464
 5792TIP3    H238936   5.418   4.126   6.434  0.2063 -1.5259  2.1278
 5793TIP3   OH238937   3.977   5.246   0.393  0.3396 -0.4795 -0.1265
 5793TIP3    H138938   3.886   5.219   0.382  0.3897 -0.6473 -0.1304
 5793TIP3    H238939   4.026   5.189   0.334  0.4439 -0.3697 -0.1457
 5794TIP3   OH238940   2.740   5.993   0.630  0.3932 -0.6056  0.0011
 5794TIP3    H138941   2.692   5.915   0.658 -0.0631 -0.2381  0.2553
 5794TIP3    H238942   2.678   6.064   0.641  0.4963 -0.3286 -1.1256
 5795TIP3   OH238943   4.903   1.583   1.879 -0.0535 -0.2382 -1.1262
 5795TIP3    H138944   4.964   1.548   1.814  2.2414 -0.3599  0.9534
 5795TIP3    H238945   4.944   1.663   1.911  0.2284 -1.4317  1.8704
 5796TIP3   OH238946   6.677   3.100   6.864  0.3943 -0.0781 -0.6381
 5796TIP3    H138947   6.727   3.168   6.909 -1.1295  0.4650  0.3025
 5796TIP3    H238948   6.688   3.121   6.771  0.2262  1.2757 -0.3772
 5797TIP3   OH238949   4.308   0.937   7.624  0.1158  0.3490  0.5541
 5797TIP3    H138950   4.270   0.899   7.703 -1.5644  0.3528 -0.2256
 5797TIP3    H238951   4.267   0.890   7.552 -0.2209  1.9784 -0.3812
 5798TIP3   OH238952   2.904   5.730   1.013 -0.5193 -0.2536 -0.0530
 5798TIP3    H138953   2.813   5.714   1.039 -0.4757  1.3072  1.2597
 5798TIP3    H238954   2.910   5.825   1.006  0.7238 -0.3989 -1.3260
 5799TIP3   OH238955   4.350   5.084   1.210 -0.5804 -0.6726  0.1437
 5799TIP3    H138956   4.368   5.163   1.159  1.5836 -1.3245 -0.2128
 5799TIP3    H238957   4.431   5.033   1.204 -1.2766 -2.0812  1.8946
 5800TIP3   OH238958   0.637   2.029   8.403 -0.2026 -0.1351  0.3380
 5800TIP3    H138959   0.579   2.040   8.328 -0.1453 -0.8236  0.1827
 5800TIP3    H238960   0.720   2.068   8.375 -0.4598  0.4788  0.4093
 5801TIP3   OH238961   0.318   5.685   7.331 -0.0309  0.3458  0.0319
 5801TIP3    H138962   0.363   5.642   7.403  1.1464  0.0388 -0.8612
 5801TIP3    H238963   0.280   5.764   7.371  2.0735  1.1128  0.6591
 5802TIP3   OH238964   4.279   0.033   6.763 -0.1367 -0.0014  0.4603
 5802TIP3    H138965   4.359   0.002   6.720 -0.3524  2.4503 -2.0465
 5802TIP3    H238966   4.267   0.122   6.729 -2.9318  0.4030  2.1946
 5803TIP3   OH238967   4.273   3.942   0.107  0.0467  0.5181  0.3889
 5803TIP3    H138968   4.339   3.963   0.041  0.6072 -2.1376 -0.0217
 5803TIP3    H238969   4.251   4.026   0.147  1.8105  1.8158 -1.1974
 5804TIP3   OH238970   0.704   2.870   8.007  0.0498 -0.1024 -0.2625
 5804TIP3    H138971   0.689   2.929   8.081  1.0439  1.5763 -1.3309
 5804TIP3    H238972   0.621   2.869   7.960 -0.1394  0.0260  0.0625
 5805TIP3   OH238973   5.291   5.346   7.291 -0.1279  0.0984  0.1975
 5805TIP3    H138974   5.266   5.425   7.338 -2.6913 -1.1509  1.1501
 5805TIP3    H238975   5.259   5.360   7.201  0.5034  0.5776  0.0366
 5806TIP3   OH238976   6.850   6.489   1.697  0.7037 -0.2857 -0.3071
 5806TIP3    H138977   6.918   6.487   1.765  1.6846 -2.4347 -1.2821
 5806TIP3    H238978   6.774   6.447   1.738  0.3795  0.8354  0.3013
 5807TIP3   OH238979   2.849   0.066   2.175  0.6754  0.1499 -0.3800
 5807TIP3    H138980   2.849   0.020   2.259  2.1403 -1.8503 -1.4123
 5807TIP3    H238981   2.840   0.159   2.199 -0.7657 -0.4762  1.8487
 5808TIP3   OH238982   2.277   0.556   7.052 -0.0649  0.3374 -0.1022
 5808TIP3    H138983   2.224   0.477   7.041  1.3646 -0.6302 -0.1950
 5808TIP3    H238984   2.282   0.569   7.146 -0.4341  0.4166 -0.0915
 5809TIP3   OH238985   0.475   6.756   6.886 -0.0658  0.2478 -0.4808
 5809TIP3    H138986   0.503   6.713   6.805 -2.3885  0.7959 -1.6656
 5809TIP3    H238987   0.479   6.850   6.866  0.2008  0.4285  0.3689
 5810TIP3   OH238988   6.715   1.409   8.406  0.5466  0.0499 -0.4133
 5810TIP3    H138989   6.655   1.354   8.355 -0.5862  0.9116 -0.0644
 5810TIP3    H238990   6.687   1.498   8.387  0.9426  0.4275  0.7059
 5811TIP3   OH238991   3.822   1.437   7.425  0.0174  0.2890 -0.3260
 5811TIP3    H138992   3.843   1.412   7.335  2.1786  1.2897 -0.1482
 5811TIP3    H238993   3.817   1.533   7.422  0.6030  0.3543  0.7249
 5812TIP3   OH238994   0.697   4.420   1.529  0.4490  0.2500 -0.1733
 5812TIP3    H138995   0.649   4.474   1.466 -1.7624 -1.9089 -0.4653
 5812TIP3    H238996   0.752   4.482   1.576  0.3268  2.3027 -2.5179
 5813TIP3   OH238997   1.483   0.236   2.361  0.3718  0.4724  0.3931
 5813TIP3    H138998   1.391   0.232   2.386 -0.3822  1.6995 -1.9085
 5813TIP3    H238999   1.506   0.146   2.339 -0.1604  0.0979  1.3430
 5814TIP3   OH239000   1.227   0.201   0.833 -0.4120  0.1485 -0.5189
 5814TIP3    H139001   1.263   0.138   0.770 -1.0017  0.4167 -1.1294
 5814TIP3    H239002   1.288   0.274   0.832  1.5057 -1.2581  1.7989
 5815TIP3   OH239003   2.236   3.144   8.418  0.1122  0.5905 -0.8480
 5815TIP3    H139004   2.270   3.175   8.334  0.7821  0.4253 -0.6408
 5815TIP3    H239005   2.240   3.220   8.476 -0.5630  0.7662 -1.0192
 5816TIP3   OH239006   6.127   6.390   8.674 -0.0412  0.0374 -0.0140
 5816TIP3    H139007   6.056   6.385   8.610  1.0663  1.7121 -1.4925
 5816TIP3    H239008   6.203   6.351   8.630  0.5275  0.3996  0.6146
 5817TIP3   OH239009   1.905   6.138   8.198  0.3044 -0.2278 -0.5539
 5817TIP3    H139010   1.865   6.109   8.280  0.1110  0.3006 -0.4599
 5817TIP3    H239011   1.868   6.225   8.183 -0.4653 -0.7364 -1.7444
 5818TIP3   OH239012   6.443   5.558   1.422 -0.4457  0.3154  0.0627
 5818TIP3    H139013   6.535   5.582   1.407  0.4706 -2.4017  0.7239
 5818TIP3    H239014   6.425   5.584   1.512 -0.4996  1.2857 -0.2202
 5819TIP3   OH239015   6.377   6.495   2.060 -0.0292 -0.0316  0.1447
 5819TIP3    H139016   6.374   6.576   2.110 -0.6259 -0.1394  0.2954
 5819TIP3    H239017   6.333   6.517   1.977  1.7976  0.4158 -0.7569
 5820TIP3   OH239018   5.021   2.328   6.540 -0.1159  0.2309  0.6325
 5820TIP3    H139019   4.949   2.282   6.582 -0.6643  0.2459 -0.2618
 5820TIP3    H239020   4.978   2.397   6.489  0.5722  0.5941  0.5329
 5821TIP3   OH239021   6.592   4.724   7.440 -0.3427  0.3576 -0.2090
 5821TIP3    H139022   6.523   4.690   7.497  1.6098 -1.4114  1.2106
 5821TIP3    H239023   6.604   4.815   7.469 -1.6342  0.5116 -0.0869
 5822TIP3   OH239024   2.900   6.841   1.863  0.1307 -0.3568 -0.3941
 5822TIP3    H139025   2.943   6.822   1.780  0.7017 -1.3364  0.1021
 5822TIP3    H239026   2.807   6.843   1.843  0.3526  1.9347 -1.5160
 5823TIP3   OH239027   3.164   2.391   8.129  0.3389 -0.0639  0.2586
 5823TIP3    H139028   3.216   2.403   8.208  0.1966 -0.7039  0.4501
 5823TIP3    H239029   3.217   2.335   8.073 -0.3266 -1.0967  0.6407
 5824TIP3   OH239030   6.387   0.517   1.412  0.1532  0.4148 -0.1715
 5824TIP3    H139031   6.423   0.606   1.414 -0.0008  0.4845 -0.4120
 5824TIP3    H239032   6.299   0.527   1.448  0.3333  0.2639  0.3168
 5825TIP3   OH239033   3.667   0.559   6.967 -0.0754 -0.1601  0.7474
 5825TIP3    H139034   3.646   0.480   6.916 -0.8776  0.2845  0.3682
 5825TIP3    H239035   3.697   0.622   6.902 -2.2505  0.8172  0.6033
 5826TIP3   OH239036   5.623   1.946   2.626 -0.5425  0.1787  0.3076
 5826TIP3    H139037   5.712   1.937   2.591 -1.0510  0.2455 -1.1005
 5826TIP3    H239038   5.576   1.869   2.592 -1.6022  1.3371 -1.0021
 5827TIP3   OH239039   6.472   6.018   0.513  0.6987  0.1057  0.3847
 5827TIP3    H139040   6.405   6.079   0.543  1.0999 -0.0687  1.7042
 5827TIP3    H239041   6.509   5.982   0.594  1.3776 -0.8851 -0.3517
 5828TIP3   OH239042   1.214   0.193   7.269  0.1290  0.0244 -0.7434
 5828TIP3    H139043   1.294   0.175   7.319  0.0092 -0.9795 -0.8781
 5828TIP3    H239044   1.178   0.106   7.251 -0.4156  0.4195 -1.6176
 5829TIP3   OH239045   1.265   0.400   7.915 -0.4732 -0.2088  0.9023
 5829TIP3    H139046   1.233   0.335   7.977 -3.0244 -1.4710 -1.4997
 5829TIP3    H239047   1.187   0.447   7.887  0.4305 -0.0039 -1.5991
 5830TIP3   OH239048   0.935   5.198   7.027 -0.6851  0.3738 -0.4479
 5830TIP3    H139049   0.980   5.141   7.088 -0.1630  2.3599  1.1389
 5830TIP3    H239050   0.932   5.149   6.945  0.1257 -1.6912  0.6967
 5831TIP3   OH239051   0.532   3.380   0.556  0.1425  0.1328 -0.4358
 5831TIP3    H139052   0.609   3.324   0.542  0.1192  0.1733 -0.7231
 5831TIP3    H239053   0.458   3.327   0.526  0.2285  0.7238 -1.7328
 5832TIP3   OH239054   3.576   4.783   1.794 -0.6532 -0.4030  0.0108
 5832TIP3    H139055   3.550   4.767   1.885  0.5843  0.2253  0.4927
 5832TIP3    H239056   3.526   4.862   1.770  0.7924  0.8788  0.9779
 5833TIP3   OH239057   1.592   0.624   7.304 -0.1144 -0.3818  0.5276
 5833TIP3    H139058   1.513   0.657   7.346  0.1536  0.7404  0.1650
 5833TIP3    H239059   1.570   0.620   7.211  0.8891  1.9636  0.1189
 5834TIP3   OH239060   3.836   0.449   1.248  0.9246  0.4951 -0.0846
 5834TIP3    H139061   3.906   0.384   1.245 -2.3553 -3.5382 -4.0522
 5834TIP3    H239062   3.815   0.457   1.341  4.3513 -0.7138  0.9428
 5835TIP3   OH239063   6.186   5.698   0.295  0.5119  0.4299  0.5702
 5835TIP3    H139064   6.213   5.647   0.219  2.1489 -1.2233  2.1267
 5835TIP3    H239065   6.151   5.779   0.260 -1.2431 -1.3183 -2.0330
 5836TIP3   OH239066   0.932   5.695   8.613  0.0670  0.3830 -0.0071
 5836TIP3    H139067   1.011   5.749   8.606 -0.9154  1.7572 -0.8157
 5836TIP3    H239068   0.868   5.751   8.657 -0.5757 -0.6152  0.3791
 5837TIP3   OH239069   5.422   2.129   1.127  0.2685 -0.3219 -0.5917
 5837TIP3    H139070   5.394   2.049   1.083 -0.4700 -0.6161  0.3715
 5837TIP3    H239071   5.515   2.138   1.106  0.4291 -1.5897 -0.4718
 5838TIP3   OH239072   4.852   3.004   7.204  0.2864 -0.3959 -0.1780
 5838TIP3    H139073   4.906   2.951   7.262  0.7812  0.9252  0.6191
 5838TIP3    H239074   4.853   2.957   7.120  0.2978 -1.8669  0.6194
 5839TIP3   OH239075   6.343   1.363   1.908  0.3474  0.0905  0.9263
 5839TIP3    H139076   6.309   1.274   1.897  1.0346 -0.2465  1.4558
 5839TIP3    H239077   6.273   1.409   1.955 -1.0381  0.5322 -1.3929
 5840TIP3   OH239078   5.120   2.127   0.494  0.2973 -0.1136  0.7877
 5840TIP3    H139079   5.119   2.170   0.580  0.1484 -0.0992  0.7792
 5840TIP3    H239080   5.170   2.186   0.438 -0.3245  0.2885  0.6492
 5841TIP3   OH239081   4.248   3.674   0.165  0.6800  0.7255  0.4215
 5841TIP3    H139082   4.258   3.769   0.152 -1.0208  1.0071  0.8736
 5841TIP3    H239083   4.185   3.647   0.097 -1.6653  0.6519  2.4630
 5842TIP3   OH239084   0.048   1.835   6.772 -0.2350  0.7859 -0.5282
 5842TIP3    H139085  -0.006   1.886   6.711  0.6939  0.4214 -1.7068
 5842TIP3    H239086   0.114   1.793   6.716  1.4901  1.4939  0.8925
 5843TIP3   OH239087   6.792   0.279   8.026  0.5321  0.3842 -0.9751
 5843TIP3    H139088   6.724   0.344   8.044  1.2280  1.9045 -3.3595
 5843TIP3    H239089   6.756   0.225   7.956  1.2608  0.3565 -1.3368
 5844TIP3   OH239090   6.148   4.233   1.846  0.2475 -0.3927 -0.3884
 5844TIP3    H139091   6.053   4.219   1.845  0.0293  0.7888  0.7460
 5844TIP3    H239092   6.181   4.181   1.773 -1.0748 -2.2225  0.2452
 5845TIP3   OH239093   0.072   4.088   0.271 -0.3583  0.5602  0.4745
 5845TIP3    H139094   0.019   4.079   0.350  1.3808  0.8835  1.7322
 5845TIP3    H239095   0.119   4.170   0.282  2.2338 -0.8233  0.6214
 5846TIP3   OH239096   5.044   3.652   6.537  0.3282 -0.2256 -0.1013
 5846TIP3    H139097   5.082   3.705   6.607 -2.2011 -0.1237  1.2980
 5846TIP3    H239098   5.096   3.675   6.460  4.0885 -1.2922  1.8576
 5847TIP3   OH239099   4.879   1.329   1.966 -0.1713 -0.3267 -0.6565
 5847TIP3    H139100   4.952   1.286   1.923  0.9792  0.6432  0.2439
 5847TIP3    H239101   4.896   1.423   1.955 -0.4551 -0.0644  0.8800
 5848TIP3   OH239102   4.189   6.296   8.043  0.1039  0.4686 -0.1385
 5848TIP3    H139103   4.132   6.287   8.120 -0.7578  0.0146 -0.8102
 5848TIP3    H239104   4.277   6.276   8.076 -0.1441  0.9391  0.8634
 5849TIP3   OH239105   2.537   2.638   8.400  0.4155 -0.1396  0.9443
 5849TIP3    H139106   2.447   2.650   8.430  0.3076  1.2031  0.1602
 5849TIP3    H239107   2.546   2.698   8.326  2.2039  0.3545  1.5072
 5850TIP3   OH239108   3.486   3.259   7.598  0.0283  0.0461 -0.2636
 5850TIP3    H139109   3.507   3.314   7.674 -1.1752  0.8740 -0.5048
 5850TIP3    H239110   3.533   3.177   7.614  1.0092  0.7627  0.6236
 5851TIP3   OH239111   3.961   2.356   7.146 -0.1097 -0.0563 -0.4576
 5851TIP3    H139112   3.903   2.370   7.221 -0.1697 -0.0491 -0.5052
 5851TIP3    H239113   4.025   2.427   7.151  0.3750 -0.5161  0.0521
 5852TIP3   OH239114   5.527   5.871   6.785  0.0599 -0.3829  0.2738
 5852TIP3    H139115   5.434   5.880   6.807  0.1260  0.1120  0.3731
 5852TIP3    H239116   5.538   5.779   6.761  0.1063 -1.1328  2.8983
 5853TIP3   OH239117   4.089   4.982   6.925 -1.1115 -0.2828 -0.1998
 5853TIP3    H139118   4.036   5.006   6.849 -1.3981  1.0030  0.3733
 5853TIP3    H239119   4.179   4.997   6.896 -0.9914 -2.3937 -1.1474
 5854TIP3   OH239120   1.525   0.201   0.400 -0.2133  0.0426 -0.1924
 5854TIP3    H139121   1.605   0.156   0.426 -0.3996 -0.6623 -0.8182
 5854TIP3    H239122   1.521   0.277   0.458  0.3676 -0.4690  0.5373
 5855TIP3   OH239123   5.162   5.797   1.507  0.1677  0.2234  0.0176
 5855TIP3    H139124   5.212   5.835   1.580 -0.7046  0.8675  0.2891
 5855TIP3    H239125   5.137   5.710   1.539 -0.0061  0.4089  0.3889
 5856TIP3   OH239126   3.503   2.297   7.722  0.3394  0.2099 -0.1435
 5856TIP3    H139127   3.504   2.201   7.728 -0.0553  0.2338  0.4383
 5856TIP3    H239128   3.584   2.319   7.676  0.7601 -0.3722  0.2937
 5857TIP3   OH239129   0.337   0.787   6.673 -0.5368  0.6880 -0.3009
 5857TIP3    H139130   0.378   0.815   6.591  0.8142  2.2629  0.8649
 5857TIP3    H239131   0.250   0.828   6.671  0.1174  2.1490 -0.2206
 5858TIP3   OH239132   5.032   4.280   7.623  0.1153 -0.0565  0.1097
 5858TIP3    H139133   5.092   4.261   7.552 -2.3092 -0.3406 -2.0078
 5858TIP3    H239134   5.080   4.338   7.682  1.8548  1.1270 -2.3457
 5859TIP3   OH239135   0.280   2.276   7.859  0.1319 -0.5950  0.6973
 5859TIP3    H139136   0.263   2.370   7.855  0.0286 -0.6212  0.5284
 5859TIP3    H239137   0.291   2.249   7.768 -0.8898 -0.9392  0.6646
 5860TIP3   OH239138   5.210   1.207   7.418  0.2453 -0.0157 -0.7719
 5860TIP3    H139139   5.188   1.237   7.330 -0.7322  2.0649  0.1296
 5860TIP3    H239140   5.305   1.223   7.425  0.0597  1.3178 -0.9375
 5861TIP3   OH239141   4.186   0.200   8.605  0.4637 -0.5030 -0.4104
 5861TIP3    H139142   4.266   0.217   8.655  0.9580 -0.8338 -1.0783
 5861TIP3    H239143   4.171   0.106   8.614 -1.3268 -0.0842  1.8690
 5862TIP3   OH239144   3.804   3.331   0.615 -0.3334  0.2774  0.1689
 5862TIP3    H139145   3.806   3.359   0.523  1.8515  0.9621  0.3568
 5862TIP3    H239146   3.726   3.372   0.651  0.3796  2.5673 -0.6924
 5863TIP3   OH239147   4.532   4.506   1.469 -0.1602 -0.1412  0.6225
 5863TIP3    H139148   4.485   4.478   1.390 -3.0021  3.6120  0.6772
 5863TIP3    H239149   4.607   4.556   1.435 -1.3820  1.4813  0.1693
 5864TIP3   OH239150   6.837   3.377   6.727  0.0547  0.2943  0.2095
 5864TIP3    H139151   6.780   3.333   6.664 -1.0716  1.7134  0.1996
 5864TIP3    H239152   6.824   3.471   6.710  1.0395  0.6711  1.4124
 5865TIP3   OH239153   5.309   5.708   7.042  0.1604  0.3326  0.1137
 5865TIP3    H139154   5.261   5.790   7.050  0.3102  0.3566  0.9051
 5865TIP3    H239155   5.242   5.640   7.049  0.1460  0.3792  0.4834
 5866TIP3   OH239156   6.445   6.846   2.684 -0.5033  0.3990 -0.1295
 5866TIP3    H139157   6.510   6.901   2.640 -0.6792  1.7639  1.2303
 5866TIP3    H239158   6.384   6.908   2.724  0.5826 -0.5902  3.4792
 5867TIP3   OH239159   1.336   4.014   6.218  0.4255  0.3347 -0.6276
 5867TIP3    H139160   1.325   3.920   6.233 -0.6269  0.4582 -0.4959
 5867TIP3    H239161   1.422   4.034   6.254  0.6521 -0.5712 -0.6326
 5868TIP3   OH239162   0.459   4.247   0.045 -0.3172 -0.5412 -0.3347
 5868TIP3    H139163   0.444   4.311   0.115  1.9566 -0.2853 -0.0238
 5868TIP3    H239164   0.452   4.297  -0.036  0.5389 -0.0732 -0.1295
 5869TIP3   OH239165   2.354   4.642   0.478  0.0209 -0.0241 -0.1256
 5869TIP3    H139166   2.448   4.639   0.462  0.1798 -0.7984  0.8410
 5869TIP3    H239167   2.320   4.562   0.438 -0.0122 -0.4343  0.6935
 5870TIP3   OH239168   3.164   0.335   1.489 -0.8188  0.7467 -0.0489
 5870TIP3    H139169   3.121   0.251   1.479  1.9135 -0.8163  0.1286
 5870TIP3    H239170   3.237   0.317   1.549  2.1834  2.2225 -2.9115
 5871TIP3   OH239171   4.596   4.960   1.205 -0.2381  0.2130 -0.2392
 5871TIP3    H139172   4.675   5.008   1.231 -0.0454  0.8126 -1.8448
 5871TIP3    H239173   4.583   4.896   1.275  0.3930  1.5520  1.1724
 5872TIP3   OH239174   6.033   1.875   8.032  0.5746 -0.4171 -0.2458
 5872TIP3    H139175   5.943   1.903   8.018  0.6520 -0.5466 -1.0567
 5872TIP3    H239176   6.049   1.811   7.962  1.4518 -0.0236 -0.4187
 5873TIP3   OH239177   0.772   3.519   0.804 -0.2785 -0.2417 -0.3730
 5873TIP3    H139178   0.755   3.562   0.721  0.0451 -1.0555 -0.8638
 5873TIP3    H239179   0.703   3.453   0.812 -0.8098  0.3868  0.4071
 5874TIP3   OH239180   5.349   0.897   1.353 -0.2817  0.1840 -0.4761
 5874TIP3    H139181   5.338   0.992   1.359 -0.1412  0.3012 -1.8764
 5874TIP3    H239182   5.438   0.884   1.321  0.4450 -0.5127  1.6421
 5875TIP3   OH239183   4.180   5.554   0.733 -0.1342  0.1939 -0.3672
 5875TIP3    H139184   4.095   5.535   0.694  0.5461 -3.4893 -0.4225
 5875TIP3    H239185   4.168   5.535   0.827  0.2187  1.2874 -0.0905
 5876TIP3   OH239186   5.159   2.263   8.488  0.4733  0.1846  0.4266
 5876TIP3    H139187   5.190   2.278   8.577  0.7983 -1.3770  0.6100
 5876TIP3    H239188   5.077   2.311   8.482  1.3371  1.8058  0.9566
 5877TIP3   OH239189   4.513   4.297   7.573  0.0249 -0.2215 -0.3213
 5877TIP3    H139190   4.599   4.318   7.538  0.6547 -1.7057  0.2362
 5877TIP3    H239191   4.519   4.204   7.596 -1.2600 -0.0090  1.0263
 5878TIP3   OH239192   3.049   5.409   0.550 -0.1813  0.0865  0.1084
 5878TIP3    H139193   2.965   5.425   0.507  0.3576  0.0839 -1.0053
 5878TIP3    H239194   3.029   5.410   0.643 -1.4012  0.1550 -0.1298
 5879TIP3   OH239195   3.539   5.102   8.545  0.1286  1.0187 -0.4578
 5879TIP3    H139196   3.452   5.136   8.567  0.6557  0.9349  2.0129
 5879TIP3    H239197   3.526   5.057   8.462 -2.3593  0.4232  0.1630
 5880TIP3   OH239198   5.636   0.301   2.467  0.5018  0.5914  0.4189
 5880TIP3    H139199   5.552   0.342   2.448 -0.0472 -1.4601 -2.3275
 5880TIP3    H239200   5.617   0.234   2.533 -0.7701 -1.6845 -2.0479
 5881TIP3   OH239201   1.130   1.037   1.904  0.1010 -0.5972 -0.4514
 5881TIP3    H139202   1.041   1.010   1.928  0.0079  0.8015  1.0267
 5881TIP3    H239203   1.123   1.064   1.813 -0.3048 -3.1883 -1.2408
 5882TIP3   OH239204   0.042   2.326   0.617  0.2792 -0.1540 -0.4142
 5882TIP3    H139205  -0.008   2.263   0.566 -1.1325 -1.1035  1.9518
 5882TIP3    H239206  -0.003   2.409   0.604 -0.1277 -0.4058 -0.6245
 5883TIP3   OH239207   4.433   2.556   6.657 -0.1251  0.7096  0.0662
 5883TIP3    H139208   4.356   2.607   6.629  0.3689  0.9490 -0.8887
 5883TIP3    H239209   4.485   2.546   6.577 -0.5936 -2.0320  0.0050
 5884TIP3   OH239210   5.058   2.540   0.295  0.1487  0.0282 -0.2476
 5884TIP3    H139211   4.965   2.538   0.318  0.1018  0.9766 -0.3542
 5884TIP3    H239212   5.092   2.620   0.335  0.3745  1.0080 -2.3233
 5885TIP3   OH239213   5.372   1.463   0.596 -0.6605 -0.5094  0.0935
 5885TIP3    H139214   5.335   1.381   0.628  0.0692 -0.6192  0.6766
 5885TIP3    H239215   5.346   1.466   0.504 -2.4556 -0.3701  0.5655
 5886TIP3   OH239216   1.399   2.418   0.598  0.2438  0.5165 -0.0382
 5886TIP3    H139217   1.398   2.512   0.614 -0.4236  0.4826  0.1343
 5886TIP3    H239218   1.424   2.409   0.507  1.0280  0.8314  0.1398
 5887TIP3   OH239219   1.854   0.560   6.930  0.1240 -0.7132  0.4080
 5887TIP3    H139220   1.793   0.488   6.949  0.4229 -0.1339  4.3071
 5887TIP3    H239221   1.926   0.518   6.883 -0.8374 -2.4518  0.3859
 5888TIP3   OH239222   4.709   4.091   0.614 -0.3751  0.4077 -0.2445
 5888TIP3    H139223   4.716   4.093   0.709 -1.7195  1.3739 -0.1481
 5888TIP3    H239224   4.770   4.159   0.584  0.0840  0.0702 -0.0973
 5889TIP3   OH239225   5.494   4.697   7.820  0.0959 -0.7555  0.3782
 5889TIP3    H139226   5.584   4.726   7.832 -0.0467 -0.6339  1.2411
 5889TIP3    H239227   5.490   4.612   7.864  0.1699 -1.4977 -0.9858
 5890TIP3   OH239228   1.718   3.664   0.652 -0.2946  0.0568 -0.0755
 5890TIP3    H139229   1.785   3.687   0.588  0.3228 -1.0055  0.1660
 5890TIP3    H239230   1.740   3.715   0.730 -0.2921  0.3813 -0.2870
 5891TIP3   OH239231   0.783   6.213   6.873 -0.2671 -0.2898  0.1390
 5891TIP3    H139232   0.852   6.214   6.807  1.3222 -1.1093  1.7344
 5891TIP3    H239233   0.733   6.293   6.856  1.5797  0.7845 -0.5220
 5892TIP3   OH239234   4.305   1.221   7.322  0.1217 -0.1056  0.0144
 5892TIP3    H139235   4.240   1.158   7.352  0.2344  0.0281  0.5350
 5892TIP3    H239236   4.254   1.299   7.300 -0.1709 -0.7441 -1.7614
 5893TIP3   OH239237   0.665   6.407   0.439  0.1318  0.0661  0.7573
 5893TIP3    H139238   0.643   6.325   0.482 -2.2954 -0.1424 -0.6502
 5893TIP3    H239239   0.679   6.470   0.510 -1.0090 -0.8806  1.8580
 5894TIP3   OH239240   4.024   0.762   7.599 -0.5662  0.1469 -0.2892
 5894TIP3    H139241   4.044   0.673   7.571 -2.4714 -0.6607  0.7187
 5894TIP3    H239242   3.934   0.776   7.571 -0.0127  2.1364 -1.2392
 5895TIP3   OH239243   0.089   2.278   8.113 -0.3789  0.3048  0.1747
 5895TIP3    H139244   0.130   2.350   8.160 -3.1030 -0.0116  3.3824
 5895TIP3    H239245  -0.000   2.309   8.095 -0.4561 -0.9179 -1.8362
 5896TIP3   OH239246   2.792   5.506   8.421  0.3676 -0.4251  0.0959
 5896TIP3    H139247   2.747   5.510   8.506  0.1625 -0.2460 -0.0212
 5896TIP3    H239248   2.750   5.574   8.368 -0.5763 -1.5646 -0.6638
 5897TIP3   OH239249   2.575   5.460   1.782  0.0838 -1.0991  0.8083
 5897TIP3    H139250   2.644   5.435   1.844 -0.3458 -0.6696  1.4731
 5897TIP3    H239251   2.493   5.450   1.831 -0.2201 -0.0988  0.5364
 5898TIP3   OH239252   6.702   4.060   7.383 -0.1175  0.3308  0.4537
 5898TIP3    H139253   6.730   3.975   7.347  3.1909  1.1372  0.7547
 5898TIP3    H239254   6.752   4.124   7.333  1.1620  1.7692  3.3429
 5899TIP3   OH239255   2.879   0.670   0.728 -0.1021  0.6126 -0.0083
 5899TIP3    H139256   2.873   0.614   0.806 -0.8583  0.3334 -0.2560
 5899TIP3    H239257   2.918   0.751   0.760 -1.6269  0.9993  0.9566
 5900TIP3   OH239258   4.292   2.251   2.167 -0.2373  0.3312  0.0987
 5900TIP3    H139259   4.198   2.249   2.149 -0.3678 -0.2849  0.7746
 5900TIP3    H239260   4.307   2.335   2.210 -1.0494 -0.7599  2.7296
 5901TIP3   OH239261   5.455   3.241   7.059  0.1082  0.1377 -0.8012
 5901TIP3    H139262   5.535   3.191   7.074  0.2115  0.4927 -0.1276
 5901TIP3    H239263   5.481   3.312   7.000  0.4887  0.7284  0.0496
 5902TIP3   OH239264   2.104   1.658   6.746  0.1786 -0.0108 -0.3272
 5902TIP3    H139265   2.058   1.581   6.714 -2.0777  0.5339  1.3603
 5902TIP3    H239266   2.118   1.713   6.668 -0.9607 -0.7546 -1.0749
 5903TIP3   OH239267   1.319   2.974   1.095  0.0207  0.1236  0.4284
 5903TIP3    H139268   1.405   2.973   1.053 -0.1464 -0.9532  0.0786
 5903TIP3    H239269   1.338   2.973   1.189  0.4166 -1.9856  0.3680
 5904TIP3   OH239270   2.422   2.811   8.186  0.2958 -0.4605  0.6500
 5904TIP3    H139271   2.449   2.877   8.251  0.3044  0.7561 -0.5514
 5904TIP3    H239272   2.340   2.845   8.150  0.6848 -0.7197 -0.5183
 5905TIP3   OH239273   1.921   5.881   0.430 -0.4184 -0.1341 -0.4445
 5905TIP3    H139274   1.902   5.974   0.417 -0.4578 -0.1069 -0.2056
 5905TIP3    H239275   1.950   5.850   0.345  2.9759  0.8981  0.1705
 5906TIP3   OH239276   5.781   4.272   0.966 -0.8227  0.2639 -0.5170
 5906TIP3    H139277   5.813   4.214   1.034  1.9804  2.6087  0.3855
 5906TIP3    H239278   5.829   4.245   0.887 -1.8210 -0.5351 -0.8701
 5907TIP3   OH239279   5.407   5.481   2.213  0.1214  0.1510  0.1738
 5907TIP3    H139280   5.444   5.569   2.203  0.7499 -0.1093  0.2236
 5907TIP3    H239281   5.482   5.423   2.220 -0.2918 -0.3222  0.8216
 5908TIP3   OH239282   4.151   1.143   1.344 -0.1138 -0.2953  0.3326
 5908TIP3    H139283   4.124   1.109   1.430 -1.2498 -1.9699 -0.6364
 5908TIP3    H239284   4.193   1.069   1.301 -1.0074  0.0186 -1.1634
 5909TIP3   OH239285   2.761   2.934   1.015 -0.1875  0.1534 -0.8453
 5909TIP3    H139286   2.849   2.899   1.027 -0.9726 -1.9357 -0.6974
 5909TIP3    H239287   2.716   2.914   1.097 -0.7006  1.5532 -0.7677
 5910TIP3   OH239288   1.589   6.426   6.092 -0.6212 -0.2645  0.2342
 5910TIP3    H139289   1.527   6.481   6.140  0.0423  0.2727  0.4873
 5910TIP3    H239290   1.673   6.472   6.098 -0.2189 -0.9108 -0.2206
 5911TIP3   OH239291   1.869   5.401   0.780  0.3951  0.1458 -0.1080
 5911TIP3    H139292   1.801   5.457   0.743  0.3272 -0.5724 -1.1170
 5911TIP3    H239293   1.902   5.450   0.855  0.2812  1.5001 -0.9028
 5912TIP3   OH239294   0.692   1.394   8.590 -0.1678  0.1862  0.8317
 5912TIP3    H139295   0.699   1.308   8.549 -0.7513  1.1536 -1.4800
 5912TIP3    H239296   0.783   1.419   8.608  0.2396  0.1557 -0.9735
 5913TIP3   OH239297   6.274   0.889   7.930 -0.6332  0.2498 -0.2740
 5913TIP3    H139298   6.221   0.896   7.850 -0.4721 -0.4399 -0.4449
 5913TIP3    H239299   6.300   0.797   7.934 -3.2099 -0.4778  2.2478
 5914TIP3   OH239300   5.123   1.840   0.255  0.4370  1.2664 -0.0450
 5914TIP3    H139301   5.083   1.881   0.177  0.0400  0.8493 -0.0620
 5914TIP3    H239302   5.070   1.872   0.328 -1.9133 -1.6190 -0.3071
 5915TIP3   OH239303   6.576   5.738   1.753  0.0149  0.0150  0.4624
 5915TIP3    H139304   6.514   5.754   1.824 -0.1615 -0.5606  0.4440
 5915TIP3    H239305   6.649   5.693   1.794 -0.0227 -0.1892  0.3053
 5916TIP3   OH239306   3.979   3.937   2.462 -0.0841 -0.2586  0.0730
 5916TIP3    H139307   3.899   3.911   2.417  0.0488 -1.6630  0.5901
 5916TIP3    H239308   4.024   3.854   2.480  2.0634  0.5332 -1.2271
 5917TIP3   OH239309   0.752   1.265   1.350 -0.1994  0.6745  0.3812
 5917TIP3    H139310   0.753   1.169   1.356  0.8791  0.7348  1.6463
 5917TIP3    H239311   0.746   1.294   1.440  0.0528  1.8020  0.0459
 5918TIP3   OH239312   3.803   4.426   8.351 -0.2107 -0.1596  0.6218
 5918TIP3    H139313   3.721   4.380   8.366  0.2111 -0.6346  1.5502
 5918TIP3    H239314   3.857   4.405   8.427  0.1972  1.4197  0.8145
 5919TIP3   OH239315   6.668   3.354   7.313 -0.2144  0.1579  0.1354
 5919TIP3    H139316   6.577   3.342   7.284 -0.7603  2.1860  0.8332
 5919TIP3    H239317   6.710   3.401   7.241 -0.3637  1.2137  0.7087
 5920TIP3   OH239318   2.804   1.746   0.386  0.4092  0.5172  0.5586
 5920TIP3    H139319   2.744   1.758   0.312 -0.0032  0.6669  0.9078
 5920TIP3    H239320   2.761   1.793   0.458  0.8669  0.4765  0.8570
 5921TIP3   OH239321   2.509   6.612   7.033  0.3279 -0.6947 -0.4017
 5921TIP3    H139322   2.426   6.567   7.023  1.0974 -1.7776 -2.8643
 5921TIP3    H239323   2.568   6.568   6.971  2.4457  0.6946  0.4854
 5922TIP3   OH239324   3.530   5.407   1.761  0.2231  0.0089 -0.7014
 5922TIP3    H139325   3.514   5.415   1.667  0.1233  1.2748 -0.5929
 5922TIP3    H239326   3.619   5.372   1.768  0.3218  0.1537 -1.2574
 5923TIP3   OH239327   3.047   5.682   7.075 -0.0086  0.3639  0.8553
 5923TIP3    H139328   2.999   5.758   7.042  0.7816  0.7732  0.6276
 5923TIP3    H239329   3.121   5.672   7.015  0.1204 -0.3366  1.1241
 5924TIP3   OH239330   3.019   0.828   1.609  0.1274 -0.1754 -0.0126
 5924TIP3    H139331   2.928   0.809   1.632  0.0264  1.4635  1.0672
 5924TIP3    H239332   3.014   0.866   1.522 -0.4190  1.3150  0.6429
 5925TIP3   OH239333   5.893   0.161   0.462 -0.1051 -0.5896  0.1179
 5925TIP3    H139334   5.824   0.120   0.409 -0.5968 -0.8616  0.9621
 5925TIP3    H239335   5.956   0.091   0.478  1.2662  0.0368 -2.0490
 5926TIP3   OH239336   2.293   3.611   8.254  0.6668 -0.4112 -0.0067
 5926TIP3    H139337   2.346   3.603   8.174 -0.0686  3.5412 -1.1122
 5926TIP3    H239338   2.351   3.651   8.317  0.0873  0.4030  0.0230
 5927TIP3   OH239339   3.111   0.722   6.967 -0.1691 -0.0538 -0.2613
 5927TIP3    H139340   3.088   0.815   6.973  2.4440  0.6240  0.4921
 5927TIP3    H239341   3.044   0.678   7.020 -0.4437  1.6049  0.8582
 5928TIP3   OH239342   5.207   2.917   8.512 -0.1299 -0.1798  0.5225
 5928TIP3    H139343   5.201   2.830   8.553 -0.2975 -0.4140  0.0124
 5928TIP3    H239344   5.121   2.957   8.529 -0.3528 -0.4426  0.0452
 5929TIP3   OH239345   6.680   0.458   1.710  0.2100 -0.0596  0.0129
 5929TIP3    H139346   6.739   0.477   1.637 -0.9164  0.6394 -0.7540
 5929TIP3    H239347   6.678   0.540   1.760 -0.6992  0.1855 -0.4099
 5930TIP3   OH239348   5.405   4.902   7.188 -0.0602 -0.2162  0.1653
 5930TIP3    H139349   5.479   4.954   7.158 -1.9226  2.8967  0.4865
 5930TIP3    H239350   5.431   4.872   7.275  0.3873  2.0157  0.8801
 5931TIP3   OH239351   0.114   6.303   7.142 -0.0694 -0.1649 -0.2889
 5931TIP3    H139352   0.080   6.313   7.053 -0.3164 -1.2434 -0.3309
 5931TIP3    H239353   0.190   6.360   7.145 -0.1742  0.0346 -1.1350
 5932TIP3   OH239354   1.779   0.565   8.685  0.8008 -0.0709 -0.0929
 5932TIP3    H139355   1.754   0.642   8.736  0.3503  0.9745 -1.8113
 5932TIP3    H239356   1.761   0.589   8.594  1.3338 -1.9516 -0.7496
 5933TIP3   OH239357   3.415   4.455   6.686 -0.5876  0.6187  0.1539
 5933TIP3    H139358   3.328   4.490   6.706  0.0863  1.4306  1.8746
 5933TIP3    H239359   3.424   4.379   6.744  0.7656  2.0222  1.9025
 5934TIP3   OH239360   4.822   3.610   0.826 -0.3497  0.3029 -0.3637
 5934TIP3    H139361   4.819   3.602   0.731 -1.0208  1.3344 -0.4476
 5934TIP3    H239362   4.731   3.598   0.855 -0.0756 -0.5117  0.2031
 5935TIP3   OH239363   6.263   0.999   8.211  0.2229 -0.5237 -0.3757
 5935TIP3    H139364   6.343   0.980   8.261  1.2198  0.8574 -1.3453
 5935TIP3    H239365   6.290   0.989   8.119 -0.4506  0.8370 -0.7459
 5936TIP3   OH239366   1.733   2.056   7.036 -0.4109  0.1496  0.1379
 5936TIP3    H139367   1.652   2.097   7.066 -0.7051 -1.2867  1.4203
 5936TIP3    H239368   1.798   2.126   7.040 -1.0704  0.7208  1.4378
 5937TIP3   OH239369   2.583   3.914   8.033  0.2714 -0.4349  0.3595
 5937TIP3    H139370   2.615   3.916   8.123  2.5216 -0.3057 -0.3921
 5937TIP3    H239371   2.659   3.935   7.979 -1.1063 -0.0742 -1.5766
 5938TIP3   OH239372   2.141   6.290   8.165  0.0351 -0.0343  0.2018
 5938TIP3    H139373   2.071   6.228   8.183 -1.8203  0.5836 -3.8509
 5938TIP3    H239374   2.202   6.242   8.109  0.9271  0.5289  0.6656
 5939TIP3   OH239375   3.453   2.741   0.814 -0.1776  0.1121  0.2675
 5939TIP3    H139376   3.393   2.699   0.876 -0.3175 -1.5016 -0.9063
 5939TIP3    H239377   3.462   2.678   0.743  0.0384  1.8723 -1.3322
 5940TIP3   OH239378   2.252   4.909   6.641 -0.1938  0.6608  0.1996
 5940TIP3    H139379   2.347   4.909   6.652  0.0358 -2.0027 -1.1458
 5940TIP3    H239380   2.238   4.890   6.548 -2.1155  3.9173 -0.3704
 5941TIP3   OH239381   3.232   1.060   1.134  0.0634 -0.4237  0.4992
 5941TIP3    H139382   3.320   1.096   1.140  0.0290  0.2925 -2.0425
 5941TIP3    H239383   3.235   1.003   1.056 -1.6295 -0.6398  0.5532
 5942TIP3   OH239384   4.361   5.188   0.898 -0.7195  0.0352  0.4743
 5942TIP3    H139385   4.289   5.217   0.953 -0.7594  0.2046  0.3349
 5942TIP3    H239386   4.324   5.186   0.809 -1.0288 -1.4523  0.6022
 5943TIP3   OH239387   4.633   6.051   8.161 -0.0357  0.3381 -0.0365
 5943TIP3    H139388   4.633   5.997   8.082  0.1684  0.3507 -0.0455
 5943TIP3    H239389   4.690   6.004   8.222  0.9281  1.0310 -0.3780
 5944TIP3   OH239390   1.450   5.910   7.179  0.6608  0.2575 -0.0323
 5944TIP3    H139391   1.437   5.824   7.217 -0.6538  0.3081 -0.3399
 5944TIP3    H239392   1.367   5.956   7.191  1.8070  2.1070  1.6283
 5945TIP3   OH239393   1.475   1.550   0.707 -0.5230 -0.3074  0.1579
 5945TIP3    H139394   1.508   1.620   0.762 -1.8240  0.1836  0.3489
 5945TIP3    H239395   1.428   1.492   0.767  0.6417 -1.4315  0.0248
 5946TIP3   OH239396   3.411   1.370   0.857 -0.3046  0.0381  0.5098
 5946TIP3    H139397   3.353   1.403   0.788 -1.6705  0.6284  1.8852
 5946TIP3    H239398   3.497   1.364   0.815 -0.3935  3.4087 -0.4179
 5947TIP3   OH239399   2.074   1.396   0.163  0.1465  0.1119  0.1490
 5947TIP3    H139400   2.113   1.352   0.087 -0.4986  1.1742 -0.8247
 5947TIP3    H239401   2.131   1.373   0.236 -0.4816 -2.8280 -0.1643
 5948TIP3   OH239402   3.082   2.308   6.756 -0.5186 -0.1235  0.4751
 5948TIP3    H139403   3.024   2.289   6.682 -0.4373  3.9495 -0.8623
 5948TIP3    H239404   3.168   2.278   6.729 -0.3075  2.1030 -1.6207
 5949TIP3   OH239405   1.821   2.349   2.552  0.2996 -0.8031 -0.1390
 5949TIP3    H139406   1.892   2.334   2.615  1.4356 -0.0904 -1.2059
 5949TIP3    H239407   1.765   2.272   2.560 -0.4584 -0.0405  2.8149
 5950TIP3   OH239408   5.305   1.886   6.002 -0.2934  0.1003  0.4017
 5950TIP3    H139409   5.368   1.940   6.049 -0.3719  0.0382  0.5792
 5950TIP3    H239410   5.226   1.888   6.057  0.1918 -1.4742  1.2139
 5951TIP3   OH239411   3.927   4.857   0.114  0.0724 -0.0992 -0.3620
 5951TIP3    H139412   3.834   4.879   0.110 -0.2310 -1.5217 -2.1060
 5951TIP3    H239413   3.930   4.774   0.162  0.6147  0.6635  0.9733
 5952TIP3   OH239414   1.723   0.349   8.043 -0.1079 -0.0872  0.0100
 5952TIP3    H139415   1.780   0.350   7.965 -0.7959 -0.4721 -0.5061
 5952TIP3    H239416   1.677   0.433   8.039 -1.7766 -0.9923 -1.2549
 5953TIP3   OH239417   6.039   2.795   8.427 -0.1820  0.4638  0.0498
 5953TIP3    H139418   5.945   2.785   8.442 -0.6054  0.6052 -2.2331
 5953TIP3    H239419   6.046   2.858   8.355  1.3529 -2.8836 -3.0512
 5954TIP3   OH239420   0.083   5.794   2.302 -0.5785 -0.3355  0.2202
 5954TIP3    H139421   0.033   5.821   2.379 -0.1090  0.4165  0.2770
 5954TIP3    H239422   0.168   5.836   2.313 -0.6285  0.1112 -0.8923
 5955TIP3   OH239423   6.520   0.804   0.942 -0.4738  0.3806 -0.1304
 5955TIP3    H139424   6.472   0.769   0.867 -1.0450  1.4788 -0.2911
 5955TIP3    H239425   6.558   0.886   0.911 -1.3986  1.2792  0.9996
 5956TIP3   OH239426   3.873   4.991   1.398 -0.5871 -0.2119 -0.7850
 5956TIP3    H139427   3.899   5.031   1.481  1.2628 -0.4647 -1.2004
 5956TIP3    H239428   3.837   5.063   1.347 -1.4070  0.0164  0.0717
 5957TIP3   OH239429   0.771   4.347   6.815  1.1422  0.2229 -0.1861
 5957TIP3    H139430   0.866   4.335   6.824  1.4823  2.4738 -0.3045
 5957TIP3    H239431   0.750   4.418   6.875 -1.0988 -2.2749  2.3084
 5958TIP3   OH239432   4.054   2.935   0.608 -0.4407  0.2787  0.6362
 5958TIP3    H139433   4.146   2.911   0.596  0.1499  2.0142  1.4517
 5958TIP3    H239434   4.038   3.003   0.543 -0.8215  0.7800  1.2469
 5959TIP3   OH239435   3.743   1.955   8.376  1.0955  0.6061  0.6341
 5959TIP3    H139436   3.791   1.988   8.300  0.8524  1.7677  0.9626
 5959TIP3    H239437   3.687   2.028   8.402 -1.4572 -0.9342 -0.1851
 5960TIP3   OH239438   0.850   4.438   8.405 -0.2246  0.0899 -0.2202
 5960TIP3    H139439   0.934   4.484   8.402  0.6581 -1.2075  1.9866
 5960TIP3    H239440   0.846   4.401   8.493 -1.7363 -2.4357 -1.2288
 5961TIP3   OH239441   6.616   1.407   8.666  0.8714 -0.5753  0.1009
 5961TIP3    H139442   6.521   1.409   8.654  0.9680 -0.2195 -0.6592
 5961TIP3    H239443   6.651   1.399   8.577  1.5256 -1.8177  0.4522
 5962TIP3   OH239444   0.414   1.926   1.113  0.0421 -0.1006  0.2844
 5962TIP3    H139445   0.472   2.002   1.121  0.6612 -0.5829  0.3722
 5962TIP3    H239446   0.446   1.863   1.177 -0.1882 -0.6242 -0.1014
 5963TIP3   OH239447   6.390   4.471   7.707 -0.1257  0.3890 -0.2248
 5963TIP3    H139448   6.381   4.563   7.683 -1.0373  0.7282  1.2740
 5963TIP3    H239449   6.343   4.424   7.638 -2.6664  1.3153  0.7576
 5964TIP3   OH239450   5.161   1.884   1.178  0.3750  0.4415 -0.6546
 5964TIP3    H139451   5.255   1.889   1.198  0.2622  0.3451 -0.0746
 5964TIP3    H239452   5.118   1.920   1.256 -0.0895 -0.1603 -0.6243
 5965TIP3   OH239453   6.768   2.073   6.961  0.1946 -0.1977  0.6110
 5965TIP3    H139454   6.698   2.134   6.986 -0.8685 -1.4476  0.8450
 5965TIP3    H239455   6.780   2.088   6.867 -0.7677 -0.2998  0.4559
 5966TIP3   OH239456   4.765   0.243   7.476  0.2757  0.5780 -0.1201
 5966TIP3    H139457   4.690   0.292   7.511 -0.4675 -1.1098  0.7701
 5966TIP3    H239458   4.775   0.168   7.535  0.5221 -1.0869 -2.1262
 5967TIP3   OH239459   1.954   0.754   0.786 -0.9147  0.5771 -0.1527
 5967TIP3    H139460   1.869   0.757   0.829 -0.9463  0.5393 -0.2131
 5967TIP3    H239461   1.935   0.758   0.693 -0.8305  0.9294 -0.1568
 5968TIP3   OH239462   1.955   5.870   0.940  0.2638  0.2249 -0.0126
 5968TIP3    H139463   1.966   5.809   0.866  0.9218 -0.7599  0.8720
 5968TIP3    H239464   1.862   5.893   0.937  0.1562 -0.2601 -0.8028
 5969TIP3   OH239465   1.716   4.905   1.480 -0.2624  0.6880 -0.1724
 5969TIP3    H139466   1.738   4.997   1.468  0.9373  1.0159  3.3791
 5969TIP3    H239467   1.645   4.906   1.545  0.2696 -0.8895  0.4790
 5970TIP3   OH239468   5.505   2.766   0.154 -0.3746 -0.1500  0.4140
 5970TIP3    H139469   5.516   2.689   0.211  1.4187  0.0202  0.3638
 5970TIP3    H239470   5.491   2.839   0.214 -0.7208 -0.3140  0.5310
 5971TIP3   OH239471   0.486   3.550   0.780 -0.1518 -0.0962 -0.1788
 5971TIP3    H139472   0.415   3.503   0.823 -0.5810 -0.4052 -1.1909
 5971TIP3    H239473   0.507   3.497   0.703  0.0554  0.8386 -0.7817
 5972TIP3   OH239474   0.864   0.133   8.565 -0.1721 -0.4436 -0.0782
 5972TIP3    H139475   0.839   0.153   8.475 -0.1834  1.2328  0.2563
 5972TIP3    H239476   0.956   0.107   8.559 -0.7153 -2.2986 -0.7858
 5973TIP3   OH239477   2.208   4.303   1.498 -0.0977  0.4039  0.4348
 5973TIP3    H139478   2.187   4.242   1.427  1.0780 -0.5238  0.8459
 5973TIP3    H239479   2.150   4.378   1.483 -1.3280 -0.6404 -0.3003
 5974TIP3   OH239480   0.750   1.093   0.405 -0.5838 -0.3740 -0.0113
 5974TIP3    H139481   0.765   1.156   0.475  1.4240 -1.3416  0.5025
 5974TIP3    H239482   0.708   1.144   0.335 -1.5826  0.8563  1.4403
 5975TIP3   OH239483   5.501   0.417   0.904  0.0041  0.4688  0.3251
 5975TIP3    H139484   5.525   0.440   0.814  2.4275  0.1029  0.8159
 5975TIP3    H239485   5.418   0.463   0.919 -0.8484 -0.0480 -2.3027
 5976TIP3   OH239486   5.784   0.067   2.191 -0.6159  0.0521  0.3846
 5976TIP3    H139487   5.762   0.075   2.098  0.7225 -2.2399 -0.2192
 5976TIP3    H239488   5.880   0.064   2.192 -0.4581  2.7618  2.1752
 5977TIP3   OH239489   4.411   3.163   0.569  0.1032  0.4133 -0.2482
 5977TIP3    H139490   4.468   3.170   0.646 -0.2855 -0.3953  0.1199
 5977TIP3    H239491   4.338   3.223   0.588  1.9479  3.4072 -1.7956
 5978TIP3   OH239492   1.694   0.540   0.639 -0.3321 -0.5454 -0.5929
 5978TIP3    H139493   1.672   0.479   0.710  1.5639 -0.8447 -0.2011
 5978TIP3    H239494   1.640   0.512   0.565 -1.1444 -1.2707  0.2497
 5979TIP3   OH239495   6.000   0.977   8.084  0.1113 -0.5737 -0.5838
 5979TIP3    H139496   5.999   1.053   8.026  0.9460 -2.1262 -2.7520
 5979TIP3    H239497   6.089   0.976   8.120 -0.6127  0.8138  1.4684
 5980TIP3   OH239498   6.159   0.545   8.177  0.3943 -0.6343 -0.0088
 5980TIP3    H139499   6.186   0.470   8.231 -0.7282 -0.1544  1.2721
 5980TIP3    H239500   6.218   0.616   8.203 -0.3342 -0.3214  0.8413
 5981TIP3   OH239501   5.150   5.150   7.430 -0.5293  0.0370  0.0954
 5981TIP3    H139502   5.213   5.209   7.390  0.0355  0.7075  1.8957
 5981TIP3    H239503   5.190   5.063   7.422  0.7739  0.4820  1.4501
 5982TIP3   OH239504   6.753   6.123   7.982  0.5919  0.3053  0.9432
 5982TIP3    H139505   6.799   6.140   8.064  0.3369 -0.4844  1.2669
 5982TIP3    H239506   6.806   6.056   7.938  0.3130  0.1499  0.8387
 5983TIP3   OH239507   5.356   1.530   2.377  0.3030  0.1039  0.2508
 5983TIP3    H139508   5.263   1.527   2.399 -0.2605  0.9297 -1.7340
 5983TIP3    H239509   5.387   1.441   2.393 -1.0779 -0.4499  0.0387
 5984TIP3   OH239510   5.515   6.847   1.982 -0.3274  0.9080 -0.1095
 5984TIP3    H139511   5.487   6.897   2.059 -0.7943  1.7225 -0.7901
 5984TIP3    H239512   5.434   6.808   1.949  0.1180 -0.9966  0.8442
 5985TIP3   OH239513   4.014   1.808   1.667  0.1841 -0.4854 -0.0967
 5985TIP3    H139514   4.051   1.757   1.739  2.3643  1.1797  0.0561
 5985TIP3    H239515   3.960   1.875   1.710  1.8654  0.8062  0.0873
 5986TIP3   OH239516   4.548   6.302   6.184 -0.3274  0.7831  0.1650
 5986TIP3    H139517   4.532   6.349   6.265 -1.3443 -1.2826  1.2357
 5986TIP3    H239518   4.583   6.368   6.124  2.4843  1.9842  2.8689
 5987TIP3   OH239519   4.924   5.000   8.015  0.2011  0.0412  0.2859
 5987TIP3    H139520   4.967   4.972   8.096  0.0639  1.0228  0.7246
 5987TIP3    H239521   4.837   5.029   8.043 -0.5849 -1.4420 -0.5136
 5988TIP3   OH239522   4.246   3.726   0.455 -0.1947  0.0646 -0.0547
 5988TIP3    H139523   4.308   3.700   0.387 -0.0142 -1.0510  0.5123
 5988TIP3    H239524   4.164   3.683   0.430 -0.2151 -0.0752  0.2424
 5989TIP3   OH239525   1.644   2.377   8.686  0.4399  0.0394 -0.0739
 5989TIP3    H139526   1.585   2.400   8.759  0.8980  0.1195  0.2762
 5989TIP3    H239527   1.726   2.421   8.708 -0.4439  3.3792 -2.5176
 5990TIP3   OH239528   5.454   6.775   7.783 -0.1612 -0.0649  0.0098
 5990TIP3    H139529   5.484   6.813   7.866 -1.7171  1.8897 -0.2409
 5990TIP3    H239530   5.359   6.779   7.788 -0.3107  1.7066 -2.5052
 5991TIP3   OH239531   6.638   6.111   7.738  0.7073 -0.1244 -0.0280
 5991TIP3    H139532   6.691   6.175   7.690 -0.7202  1.7391  0.7439
 5991TIP3    H239533   6.672   6.116   7.828 -1.9896  2.7367  1.0142
 5992TIP3   OH239534   6.833   4.936   7.376  0.1428 -0.1247 -0.4599
 5992TIP3    H139535   6.740   4.951   7.365  0.3016  1.2989 -0.0922
 5992TIP3    H239536   6.839   4.856   7.429 -0.8004 -1.0871 -1.7528
 5993TIP3   OH239537   0.418   0.175   7.119 -0.6041  0.4087 -0.1359
 5993TIP3    H139538   0.476   0.238   7.076 -0.2893 -0.9976 -1.8661
 5993TIP3    H239539   0.476   0.123   7.174 -0.9395  1.8931  1.7308
 5994TIP3   OH239540   2.060   5.764   7.030  0.0313 -0.2963 -0.2163
 5994TIP3    H139541   2.026   5.734   6.946 -0.8355 -1.8987  0.6461
 5994TIP3    H239542   2.122   5.833   7.008 -0.2207 -0.6321 -2.1588
 5995TIP3   OH239543   3.283   0.746   1.624 -0.3529  0.2640 -0.5441
 5995TIP3    H139544   3.190   0.760   1.637 -0.4117 -1.1948  0.9159
 5995TIP3    H239545   3.324   0.780   1.704  0.1220 -1.2171 -0.1304
 5996TIP3   OH239546   5.521   6.578   8.238  0.0765 -0.3767 -0.1400
 5996TIP3    H139547   5.602   6.602   8.193 -2.0554  1.4911 -3.3466
 5996TIP3    H239548   5.498   6.656   8.289 -0.4387 -0.3639 -0.3923
 5997TIP3   OH239549   4.785   5.307   1.780 -0.0720  0.5644 -0.4125
 5997TIP3    H139550   4.869   5.298   1.825 -0.7490  1.0119  0.9783
 5997TIP3    H239551   4.766   5.219   1.747 -0.2680 -0.1516  1.4917
 5998TIP3   OH239552   3.794   5.549   6.909 -0.4509 -0.1598  0.1641
 5998TIP3    H139553   3.833   5.634   6.889  0.8245 -0.9618 -0.9027
 5998TIP3    H239554   3.756   5.520   6.826 -1.1283 -0.5160  0.5881
 5999TIP3   OH239555   3.890   6.064   1.667 -0.4495  0.0803 -0.2606
 5999TIP3    H139556   3.879   5.977   1.704 -0.1815 -0.2605 -0.9581
 5999TIP3    H239557   3.851   6.123   1.731 -0.3285 -0.5239  0.3767
 6000TIP3   OH239558   6.720   0.705   7.527  0.1934  0.0112 -0.0982
 6000TIP3    H139559   6.713   0.759   7.606 -0.5942 -0.7890  0.4011
 6000TIP3    H239560   6.660   0.745   7.465 -1.2340 -0.8863  0.6474
 6001TIP3   OH239561   1.757   4.091   1.792  0.0142 -0.7095  0.1275
 6001TIP3    H139562   1.675   4.137   1.812 -0.7014 -1.9538  0.2050
 6001TIP3    H239563   1.795   4.071   1.878  2.8121  3.7618  0.2184
 6002TIP3   OH239564   0.157   6.295   7.946 -0.1171  0.1831  0.1191
 6002TIP3    H139565   0.162   6.227   7.879  0.3934 -2.0189  2.2606
 6002TIP3    H239566   0.145   6.247   8.028 -2.0888  2.8050  1.5031
 6003TIP3   OH239567   2.787   3.062   8.459  0.6572  0.2339 -0.6402
 6003TIP3    H139568   2.792   2.996   8.528  3.1491  1.8012  0.8074
 6003TIP3    H239569   2.824   3.018   8.382  0.2602 -0.7254 -0.2998
 6004TIP3   OH239570   3.154   0.952   0.119  0.0680  0.1102  0.2147
 6004TIP3    H139571   3.193   0.972   0.204  1.0574  0.5376 -0.3119
 6004TIP3    H239572   3.111   0.867   0.130  0.8467 -0.1972  0.9316
 6005TIP3   OH239573   0.688   1.505   6.320  0.2096  0.6030 -0.0320
 6005TIP3    H139574   0.690   1.498   6.416  0.9152 -1.3992 -0.1589
 6005TIP3    H239575   0.773   1.472   6.292 -0.9811 -1.4639 -1.4661
 6006TIP3   OH239576   6.081   2.893   6.310  0.7042 -0.2818 -0.9329
 6006TIP3    H139577   6.038   2.810   6.330  2.7055 -1.0894  0.4621
 6006TIP3    H239578   6.140   2.872   6.237  3.0096 -0.8532  0.9535
 6007TIP3   OH239579   2.565   6.528   1.261 -0.0485  0.5105  0.5388
 6007TIP3    H139580   2.473   6.510   1.242  0.4689  0.0797 -1.8369
 6007TIP3    H239581   2.600   6.444   1.290 -0.4233  0.7444  1.7520
 6008TIP3   OH239582   2.908   0.097   0.582  0.0594 -0.2258 -0.5567
 6008TIP3    H139583   2.891   0.100   0.488 -1.5179  1.5770 -0.2604
 6008TIP3    H239584   3.003   0.102   0.589  0.1929 -0.1988 -2.0317
 6009TIP3   OH239585   0.898   1.449   0.818 -0.4308  0.3742 -0.4182
 6009TIP3    H139586   0.813   1.455   0.862 -0.4751 -1.4378 -0.1758
 6009TIP3    H239587   0.950   1.520   0.856 -1.4618  0.7888  0.2641
 6010TIP3   OH239588   3.734   3.397   7.829 -0.0598  0.1581 -0.8316
 6010TIP3    H139589   3.746   3.313   7.784  0.5138 -0.0792 -0.2573
 6010TIP3    H239590   3.639   3.407   7.837 -0.1318 -1.3598  0.7814
 6011TIP3   OH239591   4.588   0.942   7.915 -0.0206  0.3215  0.5300
 6011TIP3    H139592   4.589   0.984   7.829 -0.7079  1.0667  0.8780
 6011TIP3    H239593   4.662   0.982   7.961  1.0643 -0.9017 -0.0750
 6012TIP3   OH239594   3.681   5.683   0.655  0.5902  0.0875  0.3112
 6012TIP3    H139595   3.633   5.758   0.621  2.1513  0.9377 -0.1151
 6012TIP3    H239596   3.687   5.623   0.580  0.3420  0.0424  0.3249
 6013TIP3   OH239597   1.713   1.686   7.978  0.4424  0.4587 -0.2479
 6013TIP3    H139598   1.665   1.679   8.061 -0.2008  0.2236 -0.6368
 6013TIP3    H239599   1.659   1.743   7.923  2.6991  3.8931  0.7716
 6014TIP3   OH239600   3.067   4.269   8.492 -0.3192  0.1014  0.0159
 6014TIP3    H139601   3.022   4.205   8.547 -0.8708  0.3264 -0.1589
 6014TIP3    H239602   3.010   4.278   8.415 -0.0273  0.4702 -0.1602
 6015TIP3   OH239603   5.835   3.250   8.437  0.4573 -0.4096  0.3555
 6015TIP3    H139604   5.909   3.231   8.380 -0.0131 -0.1059 -0.3647
 6015TIP3    H239605   5.758   3.220   8.389 -0.1715  1.8184 -0.1623
 6016TIP3   OH239606   2.438   6.845   8.563  0.1035 -0.3110  0.2276
 6016TIP3    H139607   2.424   6.889   8.479  0.1416 -2.2064 -0.8392
 6016TIP3    H239608   2.520   6.797   8.551  0.2512 -0.3840  1.4545
 6017TIP3   OH239609   3.690   1.531   2.165  0.5795 -0.0987  0.1967
 6017TIP3    H139610   3.771   1.556   2.210 -0.4798  0.2700  2.0339
 6017TIP3    H239611   3.705   1.552   2.073  2.4333  0.2603  0.5477
 6018TIP3   OH239612   4.676   0.514   2.554 -0.0336 -0.5651  0.3789
 6018TIP3    H139613   4.768   0.533   2.538 -0.0400 -1.4329 -0.7761
 6018TIP3    H239614   4.658   0.555   2.639  0.5965  2.2494 -0.7326
 6019TIP3   OH239615   0.460   0.928   8.200  0.4186  0.1628  0.9378
 6019TIP3    H139616   0.437   1.021   8.206  0.4037  0.2468 -0.1859
 6019TIP3    H239617   0.383   0.886   8.161  0.1186 -0.4706  2.1612
 6020TIP3   OH239618   3.059   5.157   7.429 -0.1867 -0.1485 -0.8406
 6020TIP3    H139619   3.139   5.135   7.382  0.3523 -0.1106  0.0352
 6020TIP3    H239620   3.036   5.077   7.477 -0.2332  0.0773 -0.4790
 6021TIP3   OH239621   2.226   5.980   6.898  0.2031 -0.2247  0.3674
 6021TIP3    H139622   2.300   5.944   6.947  1.5027 -0.0879 -1.3961
 6021TIP3    H239623   2.264   6.009   6.815 -1.5885  1.1732 -0.0288
 6022TIP3   OH239624   2.162   2.584   8.041 -0.6118 -0.9141  0.1562
 6022TIP3    H139625   2.225   2.542   8.099 -1.0085 -3.3617 -1.0464
 6022TIP3    H239626   2.097   2.623   8.100  0.8341 -0.2679  1.3664
 6023TIP3   OH239627   5.595   5.682   7.902 -0.0908 -0.4217  0.8129
 6023TIP3    H139628   5.644   5.600   7.902  0.2064 -0.2543 -0.4062
 6023TIP3    H239629   5.658   5.748   7.930 -0.0901 -0.4660  0.9180
 6024TIP3   OH239630   0.716   5.052   2.126  0.4022 -0.3201 -0.1103
 6024TIP3    H139631   0.780   4.981   2.132 -0.3553 -1.1712 -1.4420
 6024TIP3    H239632   0.650   5.030   2.193  1.1035  0.1763  0.7719
 6025TIP3   OH239633   0.275   5.633   1.947  0.2613 -0.3630 -0.2051
 6025TIP3    H139634   0.285   5.547   1.906 -0.5082 -1.1093  1.1161
 6025TIP3    H239635   0.294   5.618   2.039  2.2203  1.3467 -0.2594
 6026TIP3   OH239636   0.028   2.430   1.410  0.2454 -0.2996  0.6733
 6026TIP3    H139637   0.090   2.500   1.390  1.6181 -0.4889  3.7392
 6026TIP3    H239638  -0.057   2.473   1.416  0.8423  0.8561  1.0617
 6027TIP3   OH239639   6.451   5.096   0.518 -0.5983  0.3195  0.0567
 6027TIP3    H139640   6.393   5.021   0.527 -0.4130  0.0242 -1.0634
 6027TIP3    H239641   6.537   5.064   0.547 -0.6406  0.2684  0.1259
 6028TIP3   OH239642   5.925   6.304   1.268  0.1526  0.9025 -0.1370
 6028TIP3    H139643   6.005   6.253   1.275 -1.1912 -1.4303 -0.7710
 6028TIP3    H239644   5.918   6.350   1.352  1.6916  0.4622  0.2517
 6029TIP3   OH239645   3.862   0.820   0.145 -0.2145  0.0077 -0.4535
 6029TIP3    H139646   3.890   0.757   0.211 -0.7852 -0.1815 -0.3893
 6029TIP3    H239647   3.828   0.894   0.195 -0.9741 -0.2835 -0.5343
 6030TIP3   OH239648   3.344   1.505   6.462 -0.1128  0.2974 -0.5297
 6030TIP3    H139649   3.398   1.429   6.483 -0.6726  0.2703  0.9323
 6030TIP3    H239650   3.317   1.491   6.371 -0.7506 -1.6181 -0.0909
 6031TIP3   OH239651   0.764   0.822   6.805  0.2011 -0.3492 -0.2192
 6031TIP3    H139652   0.828   0.795   6.871  0.1864 -2.2138 -0.9018
 6031TIP3    H239653   0.679   0.806   6.846  0.1318  1.5126  0.4458
 6032TIP3   OH239654   6.123   4.331   2.110  0.0130 -0.2712  0.0740
 6032TIP3    H139655   6.156   4.291   2.030 -1.1711  1.9777 -1.6430
 6032TIP3    H239656   6.030   4.343   2.094 -0.0749  1.0994  1.3997
 6033TIP3   OH239657   6.450   2.028   8.681  0.4362  0.6505  0.1933
 6033TIP3    H139658   6.501   2.018   8.761  0.5311 -1.6674 -0.0848
 6033TIP3    H239659   6.481   2.110   8.642  2.6312  0.2347  0.9566
 6034TIP3   OH239660   5.172   3.807   6.731 -0.3863 -0.5691  0.1887
 6034TIP3    H139661   5.265   3.786   6.726 -0.9947 -4.1838  1.0881
 6034TIP3    H239662   5.158   3.836   6.821  0.0350  1.5111 -0.3614
 6035TIP3   OH239663   5.117   3.571   0.932  0.6927 -0.1030 -0.3190
 6035TIP3    H139664   5.107   3.535   1.020  0.9333 -1.3767 -0.7846
 6035TIP3    H239665   5.031   3.606   0.910  0.4747 -0.3024  0.2058
 6036TIP3   OH239666   2.469   1.947   1.687  0.6262 -0.2478  0.2122
 6036TIP3    H139667   2.382   1.941   1.648  0.7557  0.2066 -0.1564
 6036TIP3    H239668   2.488   1.858   1.718  0.2313 -0.4539 -0.1344
 6037TIP3   OH239669   5.778   2.777   5.905 -0.3163 -0.4094  0.0145
 6037TIP3    H139670   5.775   2.750   5.997 -0.7217 -0.6167 -0.0590
 6037TIP3    H239671   5.749   2.868   5.905  1.1309  0.0779  0.2725
 6038TIP3   OH239672   1.935   3.788   0.501  0.1840  0.0638  0.3538
 6038TIP3    H139673   2.024   3.825   0.501  0.5480 -0.7835  0.3144
 6038TIP3    H239674   1.892   3.829   0.575  0.3126  1.1591 -0.1538
 6039TIP3   OH239675   2.377   5.658   0.696  0.1136  0.3604 -0.4950
 6039TIP3    H139676   2.320   5.583   0.711  1.7819 -0.8170  0.3258
 6039TIP3    H239677   2.405   5.649   0.605  0.8279 -0.4256 -0.2124
 6040TIP3   OH239678   3.090   1.395   8.075  0.4162  0.2373 -0.0765
 6040TIP3    H139679   3.140   1.432   8.148 -1.3009  1.5185  0.5139
 6040TIP3    H239680   3.047   1.471   8.035 -0.5259 -0.7338 -0.9606
 6041TIP3   OH239681   1.656   5.636   6.904  0.0216  0.4448 -0.0346
 6041TIP3    H139682   1.741   5.648   6.863  0.5949 -1.1825  0.6097
 6041TIP3    H239683   1.594   5.674   6.842  1.1462  1.0921 -0.7946
 6042TIP3   OH239684   5.192   4.428   8.174  0.0742 -0.1867 -0.1568
 6042TIP3    H139685   5.224   4.428   8.264 -3.6670 -1.1621  1.3458
 6042TIP3    H239686   5.199   4.519   8.145 -1.5012  0.7969  2.3081
 6043TIP3   OH239687   6.243   5.122   1.599 -0.1124 -0.0117 -0.4052
 6043TIP3    H139688   6.180   5.066   1.643 -0.1443 -0.7288 -1.3342
 6043TIP3    H239689   6.320   5.067   1.586  0.7555  0.8604  0.7472
 6044TIP3   OH239690   5.054   2.284   6.966  0.3101  0.1442  0.5021
 6044TIP3    H139691   5.132   2.339   6.958  0.7818 -0.6820 -1.0622
 6044TIP3    H239692   4.985   2.334   6.924  1.0009 -0.8506 -2.0029
 6045TIP3   OH239693   2.499   1.444   0.299  0.1344  0.5263 -0.1964
 6045TIP3    H139694   2.430   1.459   0.235 -0.8832  2.8819  1.2765
 6045TIP3    H239695   2.461   1.474   0.382  1.5706 -1.8667  1.4511
 6046TIP3   OH239696   5.651   1.909   8.658 -0.4793  1.0619 -0.1210
 6046TIP3    H139697   5.699   1.857   8.594  1.1314  0.1023  1.7589
 6046TIP3    H239698   5.716   1.972   8.690 -0.7570  0.4685  1.6822
 6047TIP3   OH239699   2.055   4.208   7.052  0.2905 -0.1556  0.4757
 6047TIP3    H139700   2.077   4.122   7.015  2.2733 -0.1947  1.6296
 6047TIP3    H239701   2.094   4.271   6.991 -0.3668 -0.0763  0.1247
 6048TIP3   OH239702   0.486   0.069   1.114  0.1834  0.0547  0.0310
 6048TIP3    H139703   0.432   0.011   1.168 -0.0105 -0.2590 -0.4946
 6048TIP3    H239704   0.576   0.047   1.139  0.0711  0.7534  1.0877
 6049TIP3   OH239705   3.117   2.593   8.513  0.2242 -0.6191  0.0621
 6049TIP3    H139706   3.022   2.593   8.516  0.1467  2.0038  0.6696
 6049TIP3    H239707   3.143   2.655   8.581  2.2630  0.2021 -1.3537
 6050TIP3   OH239708   5.355   5.166   6.963 -0.1483  0.5347  0.4655
 6050TIP3    H139709   5.439   5.123   6.971  0.3916  1.4206 -0.2300
 6050TIP3    H239710   5.374   5.259   6.972 -1.1092  0.7226  0.7324
 6051TIP3   OH239711   1.725   4.097   1.339 -0.0303 -0.3167 -0.6262
 6051TIP3    H139712   1.723   4.171   1.399 -2.8284  0.1041 -1.1129
 6051TIP3    H239713   1.777   4.127   1.265  1.4195  0.0010  0.4482
 6052TIP3   OH239714   2.003   3.622   8.618 -0.0341  0.9680  0.0129
 6052TIP3    H139715   2.060   3.610   8.694 -0.8572 -0.1422  0.4848
 6052TIP3    H239716   1.930   3.675   8.650 -0.4749  0.3468  0.0659
 6053TIP3   OH239717   4.134   3.561   1.575  0.1531  0.0567  0.7112
 6053TIP3    H139718   4.227   3.553   1.600  0.6850 -2.0065 -1.5869
 6053TIP3    H239719   4.123   3.655   1.557  1.4069  0.5575  2.2558
 6054TIP3   OH239720   4.992   1.546   0.867  0.6581  0.5028  0.2571
 6054TIP3    H139721   4.996   1.451   0.872  0.3579  0.5219  0.8831
 6054TIP3    H239722   5.035   1.576   0.947  0.4855  0.8866  0.2078
 6055TIP3   OH239723   4.390   1.199   6.790 -0.6143  0.1114  0.1330
 6055TIP3    H139724   4.410   1.110   6.761 -0.0509  0.1045  0.5281
 6055TIP3    H239725   4.369   1.189   6.883 -0.9488  0.3355  0.0824
 6056TIP3   OH239726   1.564   6.382   8.102 -0.1735 -0.0848  0.6353
 6056TIP3    H139727   1.545   6.398   8.010  0.7625  0.7015  0.5578
 6056TIP3    H239728   1.539   6.291   8.117 -3.9663  0.8109  0.6113
 6057TIP3   OH239729   3.755   3.322   8.126 -0.2596  0.3624 -0.3801
 6057TIP3    H139730   3.748   3.392   8.061  1.1419 -1.0843 -2.2087
 6057TIP3    H239731   3.674   3.271   8.115  0.4797 -0.5518 -1.9044
 6058TIP3   OH239732   5.676   5.321   8.550 -0.2755 -0.0153 -0.0176
 6058TIP3    H139733   5.611   5.283   8.491  0.7610 -2.0801  0.0812
 6058TIP3    H239734   5.731   5.375   8.493 -0.2089 -0.7577 -0.6720
 6059TIP3   OH239735   5.840   4.243   1.914  0.1257  0.2197  0.3856
 6059TIP3    H139736   5.809   4.332   1.926 -1.2572 -0.0467 -0.9167
 6059TIP3    H239737   5.826   4.224   1.821  0.5943 -1.2776  0.5818
 6060TIP3   OH239738   0.227   3.826   7.504 -0.2420 -0.3019  0.0974
 6060TIP3    H139739   0.296   3.773   7.464  0.7182  0.8509  0.1457
 6060TIP3    H239740   0.272   3.878   7.571 -1.1243  0.5554  0.0542
 6061TIP3   OH239741   5.099   5.820   1.243  0.8738  0.3296 -0.7261
 6061TIP3    H139742   5.146   5.824   1.327  0.5701 -0.6141 -0.4967
 6061TIP3    H239743   5.071   5.729   1.237 -2.4532  1.1830 -0.0309
 6062TIP3   OH239744   4.800   5.215   8.339 -0.5361  0.6481  0.3269
 6062TIP3    H139745   4.864   5.186   8.404  0.6834  1.0054 -0.6748
 6062TIP3    H239746   4.718   5.223   8.388  0.3544  0.9559  1.8227
 6063TIP3   OH239747   0.355   6.392   2.129 -0.0651  0.1517 -0.5776
 6063TIP3    H139748   0.412   6.392   2.052 -0.5974  0.5698 -0.9769
 6063TIP3    H239749   0.267   6.375   2.094 -0.3943  0.8758 -0.1323
 6064TIP3   OH239750   4.996   0.916   8.634 -0.2952 -0.0044  0.0083
 6064TIP3    H139751   5.036   0.935   8.719  2.3346 -2.7390 -0.4441
 6064TIP3    H239752   4.929   0.851   8.654  1.8665 -2.4374 -0.0684
 6065TIP3   OH239753   3.950   4.973   8.357  0.2706  0.7086 -0.1511
 6065TIP3    H139754   3.872   5.029   8.360  0.7503  1.3613  2.9609
 6065TIP3    H239755   3.915   4.884   8.360 -0.4855  0.9768  3.3247
 6066TIP3   OH239756   1.512   6.746   7.925  0.3655 -0.1331 -0.1406
 6066TIP3    H139757   1.524   6.663   7.879  1.5794  0.4858 -0.9980
 6066TIP3    H239758   1.468   6.803   7.862 -2.3493 -0.6900  1.1285
 6067TIP3   OH239759   0.757   0.798   8.087 -0.0154  0.2370  0.5998
 6067TIP3    H139760   0.726   0.711   8.064  0.4971  0.1566  0.2075
 6067TIP3    H239761   0.759   0.798   8.183 -0.5691  0.0187  0.6168
 6068TIP3   OH239762   1.303   1.817   7.978  0.4271 -0.2039  0.1553
 6068TIP3    H139763   1.261   1.812   8.064 -1.9403 -1.6850 -0.9690
 6068TIP3    H239764   1.390   1.853   7.996 -0.4922  0.9470  2.9562
 6069TIP3   OH239765   4.303   0.314   1.760  0.4714  0.3544 -0.2733
 6069TIP3    H139766   4.263   0.392   1.798 -0.3550 -0.6070  0.8815
 6069TIP3    H239767   4.352   0.274   1.832 -0.8133 -1.2871 -0.2381
 6070TIP3   OH239768   3.472   4.236   7.432  0.0922 -0.4615 -0.0568
 6070TIP3    H139769   3.377   4.226   7.425 -0.0786 -0.8335  2.1148
 6070TIP3    H239770   3.485   4.326   7.463  0.6154  0.2881 -2.2666
 6071TIP3   OH239771   2.202   1.687   1.809  0.9518 -0.5656 -0.3757
 6071TIP3    H139772   2.291   1.680   1.775  0.3621 -0.5196 -2.0209
 6071TIP3    H239773   2.147   1.696   1.731 -0.5128 -0.7253  0.5929
 6072TIP3   OH239774   4.819   1.815   8.058  0.2966  0.4169 -0.1180
 6072TIP3    H139775   4.868   1.770   7.989 -0.1418 -1.5061  0.7376
 6072TIP3    H239776   4.803   1.747   8.123 -4.3660  0.5971 -0.7510
 6073TIP3   OH239777   6.227   3.745   2.762  0.4967  0.0222 -0.0962
 6073TIP3    H139778   6.144   3.773   2.724  0.0107  1.8667  2.0471
 6073TIP3    H239779   6.292   3.806   2.726  0.4519  0.2064  0.1267
 6074TIP3   OH239780   6.698   3.698   8.657  0.2243 -0.4038 -0.2057
 6074TIP3    H139781   6.739   3.714   8.742  0.3572 -1.0302 -0.1449
 6074TIP3    H239782   6.750   3.749   8.595 -0.4009  0.7579  0.1954
 6075TIP3   OH239783   5.798   4.602   7.872 -0.3512  0.1742 -0.3037
 6075TIP3    H139784   5.811   4.637   7.960  1.2497  0.8654 -0.7870
 6075TIP3    H239785   5.823   4.510   7.879  2.3199  0.7864 -0.5304
 6076TIP3   OH239786   0.350   4.454   2.196  0.5151 -0.0894  0.0837
 6076TIP3    H139787   0.280   4.394   2.171 -0.2312  0.9894 -0.4911
 6076TIP3    H239788   0.318   4.541   2.170  1.6451  0.5405  0.7153
 6077TIP3   OH239789   5.293   2.398   6.877  0.5703  0.7288  0.1456
 6077TIP3    H139790   5.353   2.459   6.835  0.8329 -0.4810 -1.3324
 6077TIP3    H239791   5.283   2.327   6.814 -0.3811 -0.3547  1.4529
 6078TIP3   OH239792   4.800   0.938   7.505 -0.1701  0.2507 -0.0270
 6078TIP3    H139793   4.820   1.030   7.522 -0.9846  0.3914  0.1831
 6078TIP3    H239794   4.884   0.900   7.481  0.1486  1.0841 -0.2707
 6079TIP3   OH239795   3.232   2.101   7.595 -0.0796 -0.0218 -0.5810
 6079TIP3    H139796   3.139   2.115   7.578 -0.5605 -0.5504  1.4045
 6079TIP3    H239797   3.246   2.136   7.682  1.2949 -1.1502 -0.3189
 6080TIP3   OH239798   1.407   0.629   6.784 -0.2868  0.1308 -0.2925
 6080TIP3    H139799   1.448   0.561   6.730 -0.3240  0.7600 -1.1413
 6080TIP3    H239800   1.429   0.711   6.740 -1.2897  0.5800  0.0162
 6081TIP3   OH239801   5.045   5.334   1.883  0.0429  0.0400  0.3049
 6081TIP3    H139802   5.099   5.313   1.959 -0.2675 -1.0896  0.2392
 6081TIP3    H239803   5.064   5.426   1.864 -0.8150  0.7401  2.5097
 6082TIP3   OH239804   3.562   4.265   0.049  0.1589 -0.2716 -0.2497
 6082TIP3    H139805   3.581   4.207  -0.024  1.0900 -0.2586 -0.0243
 6082TIP3    H239806   3.639   4.321   0.057 -0.8900  1.2926 -0.7172
 6083TIP3   OH239807   5.702   1.404   0.577 -0.0417 -0.2073 -0.1421
 6083TIP3    H139808   5.631   1.411   0.640  2.7839 -2.4147  3.6689
 6083TIP3    H239809   5.714   1.310   0.564  2.7858  0.0006  0.2359
 6084TIP3   OH239810   4.598   2.181   0.989 -0.4362  0.0990 -0.3852
 6084TIP3    H139811   4.687   2.205   1.013  0.0947  0.5636 -2.5816
 6084TIP3    H239812   4.608   2.107   0.929 -1.7113 -1.4642  1.2175
 6085TIP3   OH239813   6.832   1.899   7.539 -0.3487  0.3047  0.1895
 6085TIP3    H139814   6.913   1.873   7.584 -1.1562 -2.0806  0.3683
 6085TIP3    H239815   6.854   1.897   7.446 -0.3773 -1.0309  0.2034
 6086TIP3   OH239816   4.177   3.995   8.415 -0.0224  0.4478 -0.0821
 6086TIP3    H139817   4.239   3.926   8.438 -1.0251 -0.1097  1.0903
 6086TIP3    H239818   4.152   3.976   8.325  0.3505 -0.2190 -0.0489
 6087TIP3   OH239819   5.596   4.493   2.192 -0.0082  0.3050 -0.1240
 6087TIP3    H139820   5.657   4.451   2.131  1.8836  0.8976  1.2946
 6087TIP3    H239821   5.643   4.497   2.275 -2.0555  0.6645  1.0782
 6088TIP3   OH239822   1.857   5.614   6.346 -0.0770  0.4700  0.5546
 6088TIP3    H139823   1.832   5.705   6.332  1.1885  0.7137 -0.2847
 6088TIP3    H239824   1.831   5.595   6.436 -1.1521  1.3804  0.4514
 6089TIP3   OH239825   4.145   3.861   1.896 -0.1715 -0.4125  0.2170
 6089TIP3    H139826   4.213   3.915   1.856 -1.2242  0.8506  0.0689
 6089TIP3    H239827   4.181   3.836   1.981  0.5490  0.0971  0.0729
 6090TIP3   OH239828   4.647   4.813   0.981  0.3656 -0.4594  0.4420
 6090TIP3    H139829   4.729   4.853   0.951 -0.1426  0.2107 -0.0807
 6090TIP3    H239830   4.621   4.866   1.056 -0.3969  0.3183 -0.3550
 6091TIP3   OH239831   1.320   5.581   6.652  0.2867  0.2582 -0.0883
 6091TIP3    H139832   1.288   5.514   6.712  0.3907 -1.3535 -1.7282
 6091TIP3    H239833   1.327   5.536   6.568  3.3283  1.4959 -0.6368
 6092TIP3   OH239834   1.588   4.861   2.028  0.7225  0.5475  0.2809
 6092TIP3    H139835   1.571   4.916   2.104  1.2980 -0.9678  1.5593
 6092TIP3    H239836   1.516   4.797   2.029  2.9343 -2.1599  2.1835
 6093TIP3   OH239837   0.397   3.107   0.755 -0.1638 -0.6426  0.1488
 6093TIP3    H139838   0.363   3.195   0.770  0.6642  0.0010 -1.5631
 6093TIP3    H239839   0.332   3.049   0.795 -1.6898  0.6622 -0.3646
 6094TIP3   OH239840   6.155   1.907   0.541  0.8605 -0.3102 -0.1391
 6094TIP3    H139841   6.234   1.853   0.532  0.9184 -0.2627  0.0681
 6094TIP3    H239842   6.124   1.920   0.451 -0.4562 -2.5908 -0.1122
 6095TIP3   OH239843   4.563   5.650   0.460 -0.0526 -0.3499 -0.3928
 6095TIP3    H139844   4.483   5.636   0.409 -1.3289  1.3322  1.0349
 6095TIP3    H239845   4.537   5.632   0.551  1.3484 -0.3156  0.0402
 6096TIP3   OH239846   6.206   1.461   7.260  0.2590 -0.2760  0.0098
 6096TIP3    H139847   6.156   1.430   7.185  0.5391  0.2043 -0.3801
 6096TIP3    H239848   6.159   1.539   7.289  1.1065  0.5385 -0.7405
 6097TIP3   OH239849   5.619   2.433   1.357  0.5767  0.0176  0.8309
 6097TIP3    H139850   5.623   2.489   1.280 -0.2397  1.0823  1.5318
 6097TIP3    H239851   5.609   2.344   1.322 -1.9952  0.6586 -0.3221
 6098TIP3   OH239852   3.442   3.906   7.244  0.2557 -0.0538  0.9858
 6098TIP3    H139853   3.380   3.977   7.263  1.1929  0.9652  0.3189
 6098TIP3    H239854   3.474   3.878   7.329  0.4891  0.8856  1.2086
 6099TIP3   OH239855   0.741   1.134   8.508 -0.0725 -0.3953  0.0749
 6099TIP3    H139856   0.719   1.108   8.597  0.4038 -1.7911 -0.1829
 6099TIP3    H239857   0.759   1.051   8.463 -1.2055  0.1983 -1.5742
 6100TIP3   OH239858   6.810   6.840   1.791 -0.0565  0.0056 -0.0981
 6100TIP3    H139859   6.878   6.799   1.844 -1.9316 -0.0927  2.4061
 6100TIP3    H239860   6.766   6.767   1.748  0.6628 -0.0077 -0.8556
 6101TIP3   OH239861   3.491   3.186   8.100  0.2518 -0.6738  0.3682
 6101TIP3    H139862   3.453   3.224   8.180  0.3967  2.0194 -0.7504
 6101TIP3    H239863   3.425   3.124   8.070 -1.4435  0.8607  0.7262
 6102TIP3   OH239864   4.933   1.581   0.599  0.0033  0.0675 -0.0438
 6102TIP3    H139865   4.968   1.663   0.565  3.4121 -1.5829 -1.0479
 6102TIP3    H239866   4.969   1.575   0.688  0.3750 -0.5953 -0.2277
 6103TIP3   OH239867   6.096   6.559   1.388 -0.0164  0.8096 -0.0982
 6103TIP3    H139868   6.101   6.655   1.382  0.6357  0.8309  0.7188
 6103TIP3    H239869   6.002   6.541   1.396 -0.0236  1.5122  1.7509
 6104TIP3   OH239870   5.788   3.352   1.989  0.0886 -0.1411 -0.0446
 6104TIP3    H139871   5.840   3.407   2.048 -0.1407  0.7045 -0.6238
 6104TIP3    H239872   5.849   3.329   1.918  0.8038 -2.3355  1.1775
 6105TIP3   OH239873   3.529   3.615   7.724 -0.5766 -0.1600  0.3353
 6105TIP3    H139874   3.614   3.658   7.733 -0.9343  0.4729  0.7682
 6105TIP3    H239875   3.513   3.612   7.629 -0.7995  1.1938  0.3089
 6106TIP3   OH239876   0.465   1.802   0.849  1.1419  0.0299  0.3778
 6106TIP3    H139877   0.437   1.712   0.868  1.6055 -0.2219 -0.1144
 6106TIP3    H239878   0.480   1.841   0.935 -4.1875  1.3781  1.0648
 6107TIP3   OH239879   2.321   6.700   0.355 -0.3319 -0.0314 -0.1057
 6107TIP3    H139880   2.364   6.779   0.388 -1.1599  0.5542 -0.3945
 6107TIP3    H239881   2.235   6.729   0.328 -1.8387 -1.5799  2.5646
 6108TIP3   OH239882   0.312   5.743   7.875 -0.1148  0.0505 -0.0601
 6108TIP3    H139883   0.256   5.732   7.951 -0.7051  2.3226 -0.0934
 6108TIP3    H239884   0.396   5.706   7.901 -0.8854 -1.0844  0.9131
 6109TIP3   OH239885   4.230   2.343   6.929  0.5632  0.0811 -0.6057
 6109TIP3    H139886   4.142   2.377   6.946  0.4335 -0.0253 -1.0556
 6109TIP3    H239887   4.284   2.422   6.918  0.5542  0.1467 -0.1845
 6110TIP3   OH239888   5.574   3.713   7.875 -0.4111 -0.6703 -0.1973
 6110TIP3    H139889   5.635   3.653   7.918 -0.8102  0.0531  1.4563
 6110TIP3    H239890   5.591   3.798   7.916 -0.2923  0.2440 -2.0372
 6111TIP3   OH239891   6.334   1.844   2.489 -0.0394  0.9691  0.7181
 6111TIP3    H139892   6.258   1.805   2.444  0.0059  1.8399 -0.1423
 6111TIP3    H239893   6.364   1.775   2.548 -0.7310  0.1513  0.1494
 6112TIP3   OH239894   3.228   2.807   1.083  0.5923  0.5246 -0.7032
 6112TIP3    H139895   3.206   2.881   1.140 -0.6924  0.8697 -1.6091
 6112TIP3    H239896   3.288   2.754   1.135 -0.0147  1.1794  0.7142
 6113TIP3   OH239897   2.843   3.965   7.508  0.4666 -0.0468  0.7239
 6113TIP3    H139898   2.877   4.039   7.457 -1.8187  0.5590 -0.0621
 6113TIP3    H239899   2.864   3.888   7.454 -1.9987  0.5884 -1.3785
 6114TIP3   OH239900   1.642   6.043   8.637  0.6107 -1.0244 -0.1063
 6114TIP3    H139901   1.642   6.092   8.720  0.4623  0.9415 -1.2107
 6114TIP3    H239902   1.650   5.952   8.664  1.4697 -0.3854  2.0401
 6115TIP3   OH239903   5.792   1.975   7.987 -0.4487 -1.0192 -0.4595
 6115TIP3    H139904   5.797   2.039   7.916  1.0999 -1.9534 -1.2426
 6115TIP3    H239905   5.705   1.987   8.024  0.2243  2.5274  0.3855
 6116TIP3   OH239906   0.301   5.549   8.446  0.3271 -0.2647  0.5940
 6116TIP3    H139907   0.285   5.518   8.535 -0.5272  0.4489  0.7046
 6116TIP3    H239908   0.324   5.470   8.396  0.4593 -0.7191  1.3604
 6117TIP3   OH239909   0.355   3.688   0.390 -0.3408 -0.4283  0.2428
 6117TIP3    H139910   0.288   3.718   0.451 -0.5088  1.0507 -0.6173
 6117TIP3    H239911   0.307   3.632   0.328 -0.3910 -0.9587  0.7501
 6118TIP3   OH239912   1.852   6.284   0.908 -0.4275 -0.6124 -0.1756
 6118TIP3    H139913   1.916   6.216   0.929 -1.1386 -0.7738  1.6052
 6118TIP3    H239914   1.854   6.342   0.984 -1.4792  0.1005 -0.6751
 6119TIP3   OH239915   5.980   1.214   7.945  0.2422  0.1900  0.0727
 6119TIP3    H139916   6.070   1.245   7.953  1.5035 -2.7031 -1.3792
 6119TIP3    H239917   5.934   1.255   8.018  2.2640  3.1341 -0.1441
 6120TIP3   OH239918   2.194   1.328   0.449 -0.3477 -0.1758 -0.3015
 6120TIP3    H139919   2.265   1.323   0.512  1.0915 -1.6497 -1.9365
 6120TIP3    H239920   2.135   1.257   0.474  0.1390 -0.6574 -0.5062
 6121TIP3   OH239921   2.132   0.161   7.876  0.5158  0.3823  0.3046
 6121TIP3    H139922   2.088   0.082   7.844 -1.0552  1.1893  0.3770
 6121TIP3    H239923   2.070   0.232   7.860  0.9776  1.2923  2.2206
 6122TIP3   OH239924   1.668   6.398   1.742 -0.3143  0.4663 -0.4975
 6122TIP3    H139925   1.630   6.387   1.655 -0.5067 -1.0578 -0.2522
 6122TIP3    H239926   1.601   6.364   1.802  0.6290 -0.4249  0.0830
 6123TIP3   OH239927   5.786   1.228   7.179  0.2119  0.2583 -0.0152
 6123TIP3    H139928   5.708   1.190   7.220  1.1765 -0.2447  1.4325
 6123TIP3    H239929   5.762   1.238   7.087 -0.6415 -2.4650 -0.1753
 6124TIP3   OH239930   6.367   6.122   1.167  0.3208 -0.0169 -0.2093
 6124TIP3    H139931   6.344   6.161   1.082 -0.3957 -0.8714 -0.4195
 6124TIP3    H239932   6.411   6.041   1.145 -1.3294 -1.0734  0.2175
 6125TIP3   OH239933   1.956   0.383   0.695  0.3154 -0.4492 -0.3449
 6125TIP3    H139934   1.994   0.297   0.713 -0.0507 -0.3528  0.9653
 6125TIP3    H239935   1.967   0.432   0.776  1.1304  1.0022 -1.2722
 6126TIP3   OH239936   5.395   3.359   2.002 -0.3719  0.2917  0.5786
 6126TIP3    H139937   5.353   3.443   2.023  0.3491  1.4098 -1.9793
 6126TIP3    H239938   5.329   3.293   2.021 -1.4448  1.5643  1.4439
 6127TIP3   OH239939   2.469   6.158   7.748 -0.3464 -0.2561 -0.3269
 6127TIP3    H139940   2.394   6.116   7.706 -0.9852  1.8996 -1.4904
 6127TIP3    H239941   2.541   6.096   7.736 -1.6976 -1.9706  0.0136
 6128TIP3   OH239942   4.224   6.280   0.951  0.5761  0.1279  0.1958
 6128TIP3    H139943   4.210   6.240   0.865  1.9076  0.0148  0.0072
 6128TIP3    H239944   4.309   6.323   0.944  1.3091 -0.9324  1.8198
 6129TIP3   OH239945   2.107   0.360   7.105 -0.0824 -0.5626 -0.4058
 6129TIP3    H139946   2.160   0.310   7.168 -0.4148 -0.8812 -0.3750
 6129TIP3    H239947   2.037   0.300   7.081 -0.5334 -0.0771 -0.3080
 6130TIP3   OH239948   1.497   4.722   8.522  0.5506 -0.2543 -0.5971
 6130TIP3    H139949   1.519   4.677   8.440 -1.1651  0.9228 -1.7543
 6130TIP3    H239950   1.416   4.769   8.503 -0.6112 -0.9340  2.1664
 6131TIP3   OH239951   0.558   3.399   1.695  0.5494 -0.1995 -0.7125
 6131TIP3    H139952   0.508   3.372   1.772  0.5980  0.9404 -0.2664
 6131TIP3    H239953   0.646   3.363   1.710  0.6825  0.4066 -0.0070
 6132TIP3   OH239954   4.123   3.839   1.536  0.2977 -0.7664 -0.5467
 6132TIP3    H139955   4.073   3.892   1.598  1.5375 -0.5810  0.3408
 6132TIP3    H239956   4.189   3.899   1.501  0.9992 -1.4127 -0.3808
 6133TIP3   OH239957   2.618   4.853   8.237  0.1597  0.0162 -0.2395
 6133TIP3    H139958   2.620   4.932   8.290  1.7758 -0.2902  0.2040
 6133TIP3    H239959   2.553   4.871   8.169  0.5204  1.7263 -0.1562
 6134TIP3   OH239960   6.311   4.040   8.019  0.2380  0.0536 -0.1247
 6134TIP3    H139961   6.339   4.023   8.109 -0.8666 -1.1842  0.0251
 6134TIP3    H239962   6.325   3.958   7.973 -2.5268 -0.5240 -0.1428
 6135TIP3   OH239963   2.119   3.014   1.082  0.0965 -0.2208  0.1259
 6135TIP3    H139964   2.103   3.104   1.108  0.3038  0.0306 -0.5962
 6135TIP3    H239965   2.203   2.991   1.121  2.0034  1.1946 -2.7885
 6136TIP3   OH239966   2.469   4.116   1.366 -0.1105  0.4889 -0.0123
 6136TIP3    H139967   2.469   4.160   1.281  1.3266 -0.5963 -0.6171
 6136TIP3    H239968   2.405   4.045   1.356  0.7160 -0.2011 -0.5246
 6137TIP3   OH239969   5.617   3.640   0.533 -0.5033  0.0101  0.1717
 6137TIP3    H139970   5.619   3.544   0.532  1.1694  0.0116 -1.3049
 6137TIP3    H239971   5.677   3.664   0.604 -1.0756 -0.0193  0.6737
 6138TIP3   OH239972   5.092   5.856   8.145 -0.1027  0.6479 -0.5550
 6138TIP3    H139973   5.120   5.822   8.230  1.7955  3.7277  0.2176
 6138TIP3    H239974   5.147   5.810   8.081  0.3258  0.1749  0.1464
 6139TIP3   OH239975   0.866   4.032   8.386  0.1059  0.0609  0.2708
 6139TIP3    H139976   0.775   4.036   8.415  0.1782  1.3434  0.3798
 6139TIP3    H239977   0.860   3.993   8.298 -0.6882  1.1506 -0.1939
 6140TIP3   OH239978   6.786   1.570   6.728 -0.0615 -0.8312  0.3056
 6140TIP3    H139979   6.704   1.585   6.776  0.4494 -0.5898  1.1242
 6140TIP3    H239980   6.854   1.568   6.796  0.5472 -1.5893 -0.3092
 6141TIP3   OH239981   4.992   5.433   7.404 -0.3399  0.6536  0.0291
 6141TIP3    H139982   5.066   5.494   7.412  1.5622 -1.6675  1.7748
 6141TIP3    H239983   4.976   5.402   7.493 -1.1559 -1.4017 -0.7555
 6142TIP3   OH239984   0.632   0.023   0.554  0.0137  0.1502 -0.0692
 6142TIP3    H139985   0.656   0.106   0.595  2.7266 -0.5435 -0.0804
 6142TIP3    H239986   0.552  -0.004   0.600 -0.0363  1.9712  1.0220
 6143TIP3   OH239987   4.012   3.053   2.214  0.0032  0.5902  0.5170
 6143TIP3    H139988   4.034   3.090   2.129 -0.4415  1.4630  0.7697
 6143TIP3    H239989   4.087   3.071   2.270  1.2904 -1.9414 -0.2175
 6144TIP3   OH239990   6.214   3.205   1.783 -0.4541 -0.2903  0.0909
 6144TIP3    H139991   6.213   3.142   1.854 -0.5351 -2.5432 -1.7856
 6144TIP3    H239992   6.129   3.249   1.789 -0.3920 -0.3233  1.4377
 6145TIP3   OH239993   1.840   4.849   0.447  0.6173 -0.3178  0.0178
 6145TIP3    H139994   1.769   4.792   0.416 -0.2307  0.8309 -0.2337
 6145TIP3    H239995   1.797   4.912   0.505  1.4835  0.2228  0.0946
 6146TIP3   OH239996   6.400   0.591   8.531  0.1988  0.4914 -0.0937
 6146TIP3    H139997   6.446   0.533   8.592  3.8998  0.0182 -2.9357
 6146TIP3    H239998   6.391   0.539   8.452 -0.0980  2.4806 -1.4428
 6147TIP3   OH239999   2.009   2.779   6.173 -0.0161  0.0071  0.2650
 6147TIP3    H140000   1.989   2.709   6.235  2.5911  0.9256  2.3102
 6147TIP3    H240001   2.093   2.755   6.135 -0.1069  0.9837 -0.5989
 6148TIP3   OH240002   4.295   6.761   2.091 -0.2789  0.6037  0.3216
 6148TIP3    H140003   4.388   6.768   2.069 -0.5967 -1.1263 -1.9202
 6148TIP3    H240004   4.292   6.700   2.165  0.3845  0.6853  0.4152
 6149TIP3   OH240005   2.597   0.538   6.270  0.0204 -0.3383  0.3800
 6149TIP3    H140006   2.592   0.607   6.204  1.9620  1.2380  1.7546
 6149TIP3    H240007   2.678   0.491   6.250 -0.2981 -0.9902  0.5916
 6150TIP3   OH240008   6.452   1.497   0.275  0.2945 -0.5087 -0.4138
 6150TIP3    H140009   6.459   1.405   0.252  0.8808 -0.9444  1.3093
 6150TIP3    H240010   6.365   1.523   0.246  0.1432 -1.5854 -0.9698
 6151TIP3   OH240011   5.721   6.479   7.212 -0.3779 -0.1258 -0.0533
 6151TIP3    H140012   5.749   6.565   7.244 -0.0660 -0.8372  1.6966
 6151TIP3    H240013   5.794   6.421   7.234 -0.9710 -1.0089 -0.3887
 6152TIP3   OH240014   6.558   4.134   7.893  0.4882 -0.2364 -1.0992
 6152TIP3    H140015   6.590   4.060   7.945  0.1633  0.0207 -0.5117
 6152TIP3    H240016   6.465   4.140   7.915  0.2107 -0.4736 -2.1606
 6153TIP3   OH240017   5.650   6.764   8.037  0.7855 -0.3177 -0.0972
 6153TIP3    H140018   5.695   6.848   8.050  0.1060  0.4697 -2.2942
 6153TIP3    H240019   5.557   6.785   8.048  0.5745 -0.6366 -1.1300
 6154TIP3   OH240020   2.691   0.622   1.447 -0.4296  0.1472  0.0076
 6154TIP3    H140021   2.667   0.561   1.517 -1.1411 -0.5814 -0.8488
 6154TIP3    H240022   2.720   0.701   1.493  1.0365 -0.9979  1.1597
 6155TIP3   OH240023   4.808   0.532   0.859 -0.6767  0.5727  0.3498
 6155TIP3    H140024   4.832   0.625   0.860  0.8110  0.3049  3.7360
 6155TIP3    H240025   4.719   0.530   0.895 -0.7772  0.6758  0.1126
 6156TIP3   OH240026   3.567   3.959   1.111 -0.1375 -0.5776  0.3748
 6156TIP3    H140027   3.573   4.037   1.166  1.4096  0.2342 -0.8710
 6156TIP3    H240028   3.654   3.919   1.117  0.1087 -0.4003 -1.5121
 6157TIP3   OH240029   6.683   1.905   7.231  0.3212 -0.1147  0.5292
 6157TIP3    H140030   6.778   1.910   7.225  0.2493 -0.3505 -2.4282
 6157TIP3    H240031   6.661   1.820   7.193 -1.1041  0.4278  0.0576
 6158TIP3   OH240032   2.609   5.900   7.825 -0.0602 -0.0351 -0.4754
 6158TIP3    H140033   2.670   5.826   7.824 -1.2876 -1.1576  1.3594
 6158TIP3    H240034   2.524   5.861   7.808 -0.5469  1.2112 -1.0150
 6159TIP3   OH240035   2.656   5.345   0.217 -0.0950  0.4559  0.0147
 6159TIP3    H140036   2.645   5.278   0.149 -1.2260  0.7098 -0.0780
 6159TIP3    H240037   2.573   5.393   0.217  0.2828  1.1409  0.8521
 6160TIP3   OH240038   4.661   1.169   1.399  0.0356 -0.2146  0.3356
 6160TIP3    H140039   4.639   1.080   1.373  2.9766 -1.2929  1.1594
 6160TIP3    H240040   4.645   1.222   1.321 -1.5153 -1.4721 -0.2411
 6161TIP3   OH240041   0.156   4.326   8.168  0.4020  0.4521 -0.7785
 6161TIP3    H140042   0.159   4.263   8.095 -0.2090 -1.4111  0.7293
 6161TIP3    H240043   0.067   4.319   8.203  1.7118 -1.8275  2.6511
 6162TIP3   OH240044   3.635   4.756   0.708 -0.2227  0.5914 -0.2120
 6162TIP3    H140045   3.561   4.700   0.733 -1.3404  1.5124 -1.3530
 6162TIP3    H240046   3.667   4.791   0.791  0.0680 -1.1398  0.4658
 6163TIP3   OH240047   5.739   4.527   8.394  0.2411 -0.6114  0.3394
 6163TIP3    H140048   5.659   4.533   8.447  0.4978  0.5256  0.6292
 6163TIP3    H240049   5.781   4.612   8.406  1.9427 -1.4941  0.9023
 6164TIP3   OH240050   0.172   5.720   8.129  0.3021  0.3341 -0.2100
 6164TIP3    H140051   0.103   5.720   8.196  0.0543  0.4372 -0.4605
 6164TIP3    H240052   0.220   5.638   8.143 -0.9558 -0.6077 -1.1187
 6165TIP3   OH240053   4.603   0.506   6.743  0.5219 -0.1265 -0.9711
 6165TIP3    H140054   4.569   0.464   6.664  0.9889 -0.3870 -1.0373
 6165TIP3    H240055   4.586   0.599   6.730 -1.3693 -0.3521 -0.4120
 6166TIP3   OH240056   4.718   4.454   1.923 -0.3421 -0.5984 -0.7745
 6166TIP3    H140057   4.807   4.465   1.955 -1.3405  0.9424  1.7211
 6166TIP3    H240058   4.705   4.359   1.920  1.2893 -0.8425 -1.0478
 6167TIP3   OH240059   0.485   2.653   7.715  0.0735  0.2340 -0.1500
 6167TIP3    H140060   0.537   2.693   7.646 -0.5113  1.3261  0.0172
 6167TIP3    H240061   0.395   2.658   7.684  0.0113 -1.5122 -0.3767
 6168TIP3   OH240062   4.510   0.052   6.106  0.0233 -0.0535 -0.2353
 6168TIP3    H140063   4.556  -0.013   6.159 -0.9130 -1.0642 -0.6065
 6168TIP3    H240064   4.419   0.021   6.105 -0.3466  1.0002 -0.8441
 6169TIP3   OH240065   2.731   5.914   8.472 -0.3723  0.5829 -0.4411
 6169TIP3    H140066   2.777   5.994   8.446  0.3123  0.8236  1.3874
 6169TIP3    H240067   2.724   5.920   8.567 -0.8169 -1.2740 -0.3150
 6170TIP3   OH240068   5.472   4.007   7.896 -0.2887  0.3277 -0.0792
 6170TIP3    H140069   5.397   4.040   7.944 -1.2888 -0.6415 -0.9205
 6170TIP3    H240070   5.442   3.999   7.806  0.8898  0.1130 -0.4784
 6171TIP3   OH240071   1.652   4.619   0.730 -0.1570 -0.5911 -0.2018
 6171TIP3    H140072   1.654   4.617   0.825 -1.8644  0.2120 -0.1270
 6171TIP3    H240073   1.657   4.712   0.707  1.9671 -0.8349 -0.9915
 6172TIP3   OH240074   4.693   0.961   7.006 -0.0676  0.5970 -0.8920
 6172TIP3    H140075   4.725   0.907   7.079  1.7556  2.0193 -0.5768
 6172TIP3    H240076   4.658   1.040   7.049  3.0661  2.5025 -1.5003
 6173TIP3   OH240077   5.372   3.098   1.021  0.2767 -0.3306  0.0395
 6173TIP3    H140078   5.307   3.102   1.091  1.9598 -1.1722  1.7185
 6173TIP3    H240079   5.328   3.051   0.950 -1.0547 -0.5555  0.9784
 6174TIP3   OH240080   1.646   5.162   8.070 -0.1086  0.0631  0.0248
 6174TIP3    H140081   1.658   5.250   8.033 -1.2836  0.0600 -0.4022
 6174TIP3    H240082   1.668   5.102   7.999  1.8473 -0.0587  0.6545
 6175TIP3   OH240083   0.200   6.209   0.244 -0.3343  0.4002  0.0687
 6175TIP3    H140084   0.245   6.265   0.308 -0.1703  2.1662 -1.4932
 6175TIP3    H240085   0.123   6.258   0.219 -0.2837 -0.1489 -1.2415
 6176TIP3   OH240086   1.039   0.931   8.565 -0.2700  0.2052 -0.0071
 6176TIP3    H140087   1.082   0.871   8.626  2.1737 -0.3752 -2.1199
 6176TIP3    H240088   1.065   1.018   8.595  2.2478 -0.1256 -1.0054
 6177TIP3   OH240089   5.984   6.591   1.050 -0.1533  0.3463  0.4913
 6177TIP3    H140090   6.066   6.590   1.100  0.0793  3.1048  0.3531
 6177TIP3    H240091   6.006   6.641   0.971 -1.7049  0.2222 -0.0520
 6178TIP3   OH240092   3.237   0.836   6.685  0.2631  0.0789 -0.4455
 6178TIP3    H140093   3.306   0.901   6.669  0.7817  0.0868  1.5572
 6178TIP3    H240094   3.284   0.757   6.711 -0.4523 -0.0710  0.4459
 6179TIP3   OH240095   5.690   2.214   7.754 -0.7825  0.5583  0.4131
 6179TIP3    H140096   5.601   2.245   7.771 -0.9074  0.1641  0.4774
 6179TIP3    H240097   5.694   2.202   7.659 -1.1370 -0.4584  0.5251
 6180TIP3   OH240098   6.748   3.333   8.136  0.1661  0.4083 -0.1553
 6180TIP3    H140099   6.754   3.418   8.179  0.7478  0.3438 -0.0941
 6180TIP3    H240100   6.836   3.317   8.102 -0.1128  0.1408 -0.7646
 6181TIP3   OH240101   1.368   6.066   6.917 -0.4969 -0.0188  0.1800
 6181TIP3    H140102   1.393   6.068   6.825  0.2890 -0.0813  0.3848
 6181TIP3    H240103   1.421   5.996   6.955 -0.0912  0.6386  0.8674
 6182TIP3   OH240104   4.087   1.972   8.508  0.3283 -0.0970  0.4528
 6182TIP3    H140105   4.165   2.015   8.472 -1.1114  0.9228 -1.6094
 6182TIP3    H240106   4.035   1.948   8.432 -0.6306 -2.3229  1.7047
 6183TIP3   OH240107   3.180   0.137   0.606  0.4143 -0.0630  0.1823
 6183TIP3    H140108   3.267   0.118   0.571 -0.2947  1.1179 -2.4386
 6183TIP3    H240109   3.198   0.186   0.687  2.1313 -1.4666  0.7244
 6184TIP3   OH240110   0.366   3.140   2.213 -0.9267 -0.3262 -0.4675
 6184TIP3    H140111   0.394   3.078   2.145  1.5380 -0.6795  0.7659
 6184TIP3    H240112   0.326   3.212   2.164  2.3488  0.2950 -2.5512
 6185TIP3   OH240113   4.013   1.956   1.146 -0.0719 -0.1487  0.3388
 6185TIP3    H140114   4.037   1.902   1.221 -0.8310  0.4007  0.9982
 6185TIP3    H240115   3.919   1.945   1.138  0.0725 -0.6081 -0.8784
 6186TIP3   OH240116   5.171   4.868   7.387 -0.0317  0.1218 -0.1103
 6186TIP3    H140117   5.219   4.833   7.462 -0.1822 -0.7229 -0.3989
 6186TIP3    H240118   5.154   4.792   7.331  0.8228  0.8506 -1.4310
 6187TIP3   OH240119   5.859   4.170   2.396 -0.3894 -0.2364  0.3107
 6187TIP3    H140120   5.872   4.265   2.392 -0.3574 -0.2560 -0.1962
 6187TIP3    H240121   5.821   4.148   2.311 -0.2252 -0.7023  0.3571
 6188TIP3   OH240122   0.084   2.032   0.322  0.9527 -0.3337  0.1633
 6188TIP3    H140123   0.073   2.092   0.247  1.7656  0.7589  0.8886
 6188TIP3    H240124   0.063   1.946   0.286 -1.6685  0.5052 -0.5806
 6189TIP3   OH240125   6.507   1.360   0.525  0.0181 -0.1346  0.2880
 6189TIP3    H140126   6.490   1.405   0.442 -0.8762  2.3013  1.7030
 6189TIP3    H240127   6.583   1.404   0.562 -0.1914 -0.5243  1.2111
 6190TIP3   OH240128   0.396   5.954   8.063 -0.4595  0.4004 -0.2689
 6190TIP3    H140129   0.420   5.862   8.074 -1.9435  0.1991  1.9079
 6190TIP3    H240130   0.479   6.001   8.072 -0.0395 -0.5791  1.4443
 6191TIP3   OH240131   1.504   4.334   2.542  0.6232 -0.4313  0.4031
 6191TIP3    H140132   1.532   4.393   2.472  1.7151  0.4354  1.5114
 6191TIP3    H240133   1.508   4.247   2.503  2.2095 -0.0698 -0.3523
 6192TIP3   OH240134   1.236   2.532   0.334 -0.2431  0.0728  0.1082
 6192TIP3    H140135   1.167   2.483   0.288  0.1841 -2.0821  1.6049
 6192TIP3    H240136   1.271   2.592   0.269 -0.4517 -2.0044 -2.0465
 6193TIP3   OH240137   4.776   6.440   1.241  1.0340 -0.3540 -0.3207
 6193TIP3    H140138   4.704   6.467   1.184  0.7312  0.6487  0.4962
 6193TIP3    H240139   4.847   6.502   1.221  0.9168  0.0201  0.3961
 6194TIP3   OH240140   0.789   3.396   7.588  0.4296  0.3007  0.2515
 6194TIP3    H140141   0.793   3.322   7.527  2.0445 -0.6347  1.4074
 6194TIP3    H240142   0.836   3.466   7.544  0.1231  0.1908 -0.2645
 6195TIP3   OH240143   4.062   3.374   0.983 -0.1755 -0.6665  0.1525
 6195TIP3    H140144   4.143   3.325   0.966  1.5659  0.8403  3.2555
 6195TIP3    H240145   4.003   3.310   1.023 -0.7470 -1.8459 -2.3793
 6196TIP3   OH240146   4.532   3.429   6.662 -0.1584 -0.7159 -0.3566
 6196TIP3    H140147   4.608   3.486   6.654  0.0923 -0.7602  1.3031
 6196TIP3    H240148   4.546   3.361   6.596  0.7568 -0.2014 -0.7103
 6197TIP3   OH240149   3.212   3.471   0.580 -0.1413 -0.0620 -0.0851
 6197TIP3    H140150   3.185   3.382   0.560 -0.4588 -0.5224  2.1638
 6197TIP3    H240151   3.161   3.495   0.658 -0.2906  2.2083 -0.7999
 6198TIP3   OH240152   6.098   4.323   7.832  0.1430 -0.3916  0.4559
 6198TIP3    H140153   6.121   4.270   7.756  0.1907 -0.1588  0.3049
 6198TIP3    H240154   6.002   4.318   7.837  0.0682  0.3251 -0.1622
 6199TIP3   OH240155   4.144   4.076   7.320 -0.2623  0.0304 -0.2388
 6199TIP3    H140156   4.185   4.008   7.374  0.4368  0.1078 -0.6562
 6199TIP3    H240157   4.161   4.158   7.366 -0.7653 -0.0270  0.0622
 6200TIP3   OH240158   4.430   6.203   8.152 -0.6980 -0.3305 -0.4040
 6200TIP3    H140159   4.505   6.145   8.141 -1.7270 -1.5695 -1.1846
 6200TIP3    H240160   4.413   6.203   8.246 -0.3087 -0.8089 -0.3263
 6201TIP3   OH240161   5.052   1.668   6.861 -0.3870 -0.3877  0.7880
 6201TIP3    H140162   5.107   1.661   6.938  0.1116  0.2992  0.5028
 6201TIP3    H240163   5.048   1.762   6.842  1.1807 -0.6405 -1.1983
 6202TIP3   OH240164   1.285   2.539   1.069  0.3144  0.3154  0.1642
 6202TIP3    H140165   1.218   2.608   1.059  0.4766  0.7326  1.7841
 6202TIP3    H240166   1.364   2.577   1.030 -0.1214  0.2049 -0.8611
 6203TIP3   OH240167   4.787   5.887   0.553  0.3739  0.1684  0.3382
 6203TIP3    H140168   4.772   5.975   0.517  1.4722 -0.3044 -1.4326
 6203TIP3    H240169   4.708   5.838   0.531  0.3755  0.3252 -0.0399
 6204TIP3   OH240170   2.967   4.104   8.688  0.1300  0.1206  0.2235
 6204TIP3    H140171   2.957   4.158   8.767  0.7279 -1.3990  1.3881
 6204TIP3    H240172   2.947   4.015   8.717 -1.5171 -0.2484 -1.8064
 6205TIP3   OH240173   4.177   3.328   1.254  0.5629 -0.3082 -0.1115
 6205TIP3    H140174   4.141   3.417   1.249  0.4222 -0.2583  1.2631
 6205TIP3    H240175   4.211   3.311   1.167 -0.0294  0.8327 -0.5943
 6206TIP3   OH240176   6.015   1.482   1.346  0.5383 -0.2340  0.3101
 6206TIP3    H140177   6.063   1.517   1.421 -2.5686  1.3906  1.7159
 6206TIP3    H240178   5.952   1.421   1.384 -0.3479 -0.2493 -1.1204
 6207TIP3   OH240179   5.450   3.398   1.290 -0.0431 -0.5285  0.1083
 6207TIP3    H140180   5.509   3.379   1.363  1.5957  0.7209 -0.8420
 6207TIP3    H240181   5.362   3.393   1.329  0.7068 -1.4807  1.7706
 6208TIP3   OH240182   0.470   3.037   1.608  0.5821  0.2088  0.4378
 6208TIP3    H140183   0.513   2.955   1.586 -1.7582 -0.7846 -0.7802
 6208TIP3    H240184   0.506   3.100   1.546 -0.3567 -0.8307 -1.2428
 6209TIP3   OH240185   0.467   1.560   7.758  0.5128 -0.6193  0.5049
 6209TIP3    H140186   0.545   1.577   7.706 -0.1301 -0.1443 -0.3159
 6209TIP3    H240187   0.446   1.468   7.741  0.2955 -0.4599 -0.0877
 6210TIP3   OH240188   1.032   2.498   7.597 -0.2069 -0.0050  0.6975
 6210TIP3    H140189   1.116   2.542   7.609 -0.0995  0.1020 -0.2895
 6210TIP3    H240190   1.002   2.478   7.685  0.6399  0.3628  1.0832
 6211TIP3   OH240191   4.365   3.599   7.544  1.0901 -0.2367 -0.2761
 6211TIP3    H140192   4.290   3.542   7.523  1.7973 -0.4133 -2.6680
 6211TIP3    H240193   4.337   3.686   7.514  0.3615  0.5867  2.5341
 6212TIP3   OH240194   3.777   0.731   1.471  0.5365 -0.2528  0.6882
 6212TIP3    H140195   3.825   0.741   1.553  1.3956 -2.3834  0.5018
 6212TIP3    H240196   3.751   0.640   1.469 -2.4526  0.5216  0.1208
 6213TIP3   OH240197   6.124   6.469   7.691 -0.4740 -0.0778 -0.4285
 6213TIP3    H140198   6.183   6.394   7.696  0.2470  0.5465  0.8055
 6213TIP3    H240199   6.038   6.430   7.676 -0.2956 -1.2473  1.2816
 6214TIP3   OH240200   3.591   2.263   0.652  0.1531  0.0183  0.2415
 6214TIP3    H140201   3.640   2.180   0.649 -3.7107 -2.4742 -1.5863
 6214TIP3    H240202   3.604   2.302   0.566 -0.8916 -0.5941 -0.2089
 6215TIP3   OH240203   6.461   4.400   8.443 -0.1547 -0.0516 -0.2084
 6215TIP3    H140204   6.507   4.482   8.424  2.1771 -1.2884 -0.1828
 6215TIP3    H240205   6.465   4.351   8.360 -0.7144 -0.5168  0.0344
 6216TIP3   OH240206   2.664   1.332   7.788  0.1862  0.5528  0.0253
 6216TIP3    H140207   2.663   1.256   7.846  1.1487  1.4098  1.2149
 6216TIP3    H240208   2.576   1.334   7.749 -0.3723 -0.2496  1.1947
 6217TIP3   OH240209   0.643   0.314   8.607  0.2590 -0.2240 -0.7384
 6217TIP3    H140210   0.714   0.261   8.571  1.0050  0.4570 -0.2917
 6217TIP3    H240211   0.568   0.293   8.552  0.8664 -0.7570 -1.3864
 6218TIP3   OH240212   4.692   4.656   7.172  0.1404  0.1149 -0.6774
 6218TIP3    H140213   4.657   4.594   7.108 -1.0744  0.3935 -0.3184
 6218TIP3    H240214   4.773   4.616   7.203 -0.0183 -0.7252 -1.3173
 6219TIP3   OH240215   6.014   4.222   8.205 -0.1244 -0.3665 -0.1783
 6219TIP3    H140216   6.059   4.181   8.132  0.1784 -1.3545  0.5506
 6219TIP3    H240217   6.053   4.309   8.212 -1.8790  0.7340 -2.7528
 6220TIP3   OH240218   2.397   5.584   0.432 -0.0395 -0.0766 -0.6117
 6220TIP3    H140219   2.413   5.567   0.339 -0.4588 -0.6312 -0.5957
 6220TIP3    H240220   2.341   5.511   0.459  1.1580 -0.6515  0.3977
 6221TIP3   OH240221   0.719   3.643   8.466 -0.0701 -0.2859  0.2068
 6221TIP3    H140222   0.685   3.557   8.441 -0.4270 -0.3186  0.7936
 6221TIP3    H240223   0.799   3.653   8.415  0.1566 -1.1150  0.3925
 6222TIP3   OH240224   4.226   3.969   7.629  0.2913 -0.1852  0.1219
 6222TIP3    H140225   4.191   4.018   7.704 -0.7400  0.8047 -0.9682
 6222TIP3    H240226   4.318   3.995   7.625  0.7382 -1.3103  1.8451
 6223TIP3   OH240227   6.799   4.582   1.521 -0.2548 -0.3206 -0.3925
 6223TIP3    H140228   6.754   4.624   1.448 -2.2584  1.7900  1.8593
 6223TIP3    H240229   6.861   4.649   1.552  0.1991 -0.9872  0.1773
 6224TIP3   OH240230   6.432   5.133   1.379 -0.4398 -0.1263  0.7400
 6224TIP3    H140231   6.457   5.092   1.461  0.8951 -0.9280 -0.0350
 6224TIP3    H240232   6.417   5.060   1.319 -0.3199  0.4575 -0.0189
 6225TIP3   OH240233   4.852   5.607   6.738  0.2068 -0.0307  0.4544
 6225TIP3    H140234   4.929   5.575   6.786 -0.1654  0.2980  1.2854
 6225TIP3    H240235   4.865   5.701   6.731 -0.3486  0.1048  1.0535
 6226TIP3   OH240236   2.216   1.965   1.584  0.0988 -0.0170  0.6617
 6226TIP3    H140237   2.209   1.977   1.490  1.2565  1.0613  0.6927
 6226TIP3    H240238   2.149   2.022   1.621  0.5698  0.6321  0.5283
 6227TIP3   OH240239   5.579   6.136   0.963 -0.3372  0.3830 -0.1548
 6227TIP3    H140240   5.668   6.101   0.970 -0.8233 -1.0134 -0.6416
 6227TIP3    H240241   5.590   6.231   0.972  1.1506  0.2049  0.1700
 6228TIP3   OH240242   5.844   4.695   2.184 -0.4595  0.4946 -0.1699
 6228TIP3    H140243   5.933   4.699   2.148 -0.8595 -0.7454 -1.4025
 6228TIP3    H240244   5.802   4.775   2.154 -0.0298  0.6679 -0.3191
 6229TIP3   OH240245   2.100   3.507   2.044 -0.7441 -0.1099  0.1702
 6229TIP3    H140246   2.044   3.585   2.054 -0.4356 -0.0642  1.6580
 6229TIP3    H240247   2.075   3.450   2.117  0.3225 -0.6096  0.1503
 6230TIP3   OH240248   5.346   2.523   1.468 -0.1482  0.6122 -0.1076
 6230TIP3    H140249   5.390   2.545   1.386 -0.9452  1.3384 -0.3659
 6230TIP3    H240250   5.320   2.608   1.504 -3.1858  0.1995 -1.0209
 6231TIP3   OH240251   1.108   3.557   1.122  0.2978  0.3425  0.2772
 6231TIP3    H140252   1.089   3.471   1.086  0.1040  0.0686  1.0402
 6231TIP3    H240253   1.045   3.615   1.080 -1.1980 -0.2872  1.5786
 6232TIP3   OH240254   4.720   5.568   1.404 -0.5371 -0.3426  0.3375
 6232TIP3    H140255   4.790   5.532   1.458 -0.2450  0.2343  0.3402
 6232TIP3    H240256   4.734   5.662   1.405  0.2795 -0.3977 -1.8344
 6233TIP3   OH240257   4.609   2.948   7.505 -0.3825  0.6415 -0.3556
 6233TIP3    H140258   4.619   2.853   7.491 -1.9391  0.3868  0.0980
 6233TIP3    H240259   4.606   2.984   7.416 -2.8957 -0.1321 -0.6602
 6234TIP3   OH240260   0.822   2.386   8.393 -0.1405  0.3805 -0.1958
 6234TIP3    H140261   0.840   2.384   8.487 -0.4831  0.4349 -0.1285
 6234TIP3    H240262   0.727   2.397   8.387  0.1121  3.2834 -0.5203
 6235TIP3   OH240263   4.519   3.191   6.494  0.2695 -0.0127 -0.4625
 6235TIP3    H140264   4.538   3.229   6.408 -0.0447 -0.7019 -0.8463
 6235TIP3    H240265   4.596   3.137   6.513 -0.2666 -0.9850 -0.9701
 6236TIP3   OH240266   4.022   6.787   1.271 -0.5398 -0.1372 -0.1866
 6236TIP3    H140267   4.019   6.851   1.200 -1.9789  0.6408  0.5204
 6236TIP3    H240268   4.090   6.725   1.245 -1.4464 -0.2418 -2.5392
 6237TIP3   OH240269   2.731   5.989   8.079 -0.3451  0.2523  0.2095
 6237TIP3    H140270   2.820   5.983   8.044 -0.5630 -2.3528 -0.0609
 6237TIP3    H240271   2.675   5.980   8.002 -0.8298 -0.0970  0.6012
 6238TIP3   OH240272   1.437   3.188   8.233 -0.5724 -0.0192  0.2472
 6238TIP3    H140273   1.520   3.140   8.227 -0.7004 -0.1990 -0.1118
 6238TIP3    H240274   1.452   3.268   8.183 -0.4502  0.1920  0.6137
 6239TIP3   OH240275   3.176   5.205   1.451  0.0166  0.4152 -0.3451
 6239TIP3    H140276   3.084   5.179   1.440 -0.3176  0.2172  2.2801
 6239TIP3    H240277   3.226   5.134   1.409 -1.0104 -0.8879  0.5528
 6240TIP3   OH240278   0.805   4.141   7.491  0.2795  0.1210  0.1029
 6240TIP3    H140279   0.714   4.112   7.481  0.4892 -1.0302  1.2394
 6240TIP3    H240280   0.800   4.216   7.550  0.0084  0.5126 -0.4106
 6241TIP3   OH240281   4.839   0.709   0.019  0.1949 -0.3370 -0.6204
 6241TIP3    H140282   4.766   0.658  -0.016  0.3778 -2.3821  1.7009
 6241TIP3    H240283   4.816   0.723   0.111  1.9493  0.4759 -0.2651
 6242TIP3   OH240284   3.005   1.685   1.470 -0.3115 -0.7863  0.9527
 6242TIP3    H140285   2.948   1.634   1.528  0.1759 -0.5881  1.6127
 6242TIP3    H240286   2.964   1.771   1.466 -1.6674 -1.4348 -0.9160
 6243TIP3   OH240287   2.409   1.119   1.217 -0.7980 -0.1865  0.2523
 6243TIP3    H140288   2.486   1.145   1.167 -1.0153  0.1702  0.1017
 6243TIP3    H240289   2.394   1.192   1.277 -0.3539 -0.7412  1.0623
 6244TIP3   OH240290   3.734   2.402   8.093 -0.0768  0.3815  0.1413
 6244TIP3    H140291   3.690   2.451   8.162 -0.2587 -0.9282  0.9794
 6244TIP3    H240292   3.668   2.396   8.023 -1.1452 -1.1953  1.2189
 6245TIP3   OH240293   0.386   1.179   8.086  0.6324  0.1252 -0.5718
 6245TIP3    H140294   0.465   1.226   8.056  1.2222  0.8591  1.8977
 6245TIP3    H240295   0.316   1.244   8.078  1.0453  0.7816  0.8229
 6246TIP3   OH240296   5.934   6.551   6.450  0.3469  0.2287 -0.0247
 6246TIP3    H140297   5.906   6.640   6.433 -1.5954 -0.3637 -0.1677
 6246TIP3    H240298   5.865   6.496   6.412 -0.1239 -1.2658  2.6625
 6247TIP3   OH240299   0.680   0.234   7.110  0.3628 -0.3481 -0.0248
 6247TIP3    H140300   0.751   0.199   7.056 -0.0015 -0.8736 -0.1735
 6247TIP3    H240301   0.669   0.170   7.180  1.0332  0.4849  0.8532
 6248TIP3   OH240302   6.529   4.198   0.526  0.1107 -0.0015 -0.0204
 6248TIP3    H140303   6.462   4.202   0.594  0.3557 -1.1812  0.3007
 6248TIP3    H240304   6.505   4.122   0.473  1.4114 -0.6735  0.3281
 6249TIP3   OH240305   1.896   6.155   0.432 -0.1715 -0.1087 -0.2854
 6249TIP3    H140306   1.938   6.193   0.355 -1.9991 -1.7975 -2.2256
 6249TIP3    H240307   1.834   6.221   0.461  0.6298  0.5963 -0.1507
 6250TIP3   OH240308   6.189   0.592   1.173 -0.2559  0.3220 -0.1809
 6250TIP3    H140309   6.168   0.603   1.266  0.0533 -1.0693  0.0619
 6250TIP3    H240310   6.133   0.520   1.144  0.5789 -0.1106 -0.7513
 6251TIP3   OH240311   3.128   3.536   0.870 -0.5517 -0.4338 -0.0932
 6251TIP3    H140312   3.061   3.467   0.862 -0.4552 -0.5140 -0.2044
 6251TIP3    H240313   3.078   3.617   0.878 -0.6617 -0.3102 -1.6982
 6252TIP3   OH240314   2.054   0.283   0.008 -0.1118 -0.2072 -0.5071
 6252TIP3    H140315   2.084   0.193   0.016 -0.2239 -0.0779  3.1862
 6252TIP3    H240316   1.968   0.283   0.050  0.7309  1.9328  1.3750
 6253TIP3   OH240317   5.658   6.604   1.911  0.0394 -0.2605  0.4452
 6253TIP3    H140318   5.635   6.566   1.996 -0.4305  0.2877  0.5725
 6253TIP3    H240319   5.633   6.696   1.919  1.0096  0.0481  0.0922
 6254TIP3   OH240320   6.134   5.209   0.220  0.0084  0.1590 -0.1238
 6254TIP3    H140321   6.086   5.127   0.213  0.4531  0.0254 -2.0426
 6254TIP3    H240322   6.068   5.274   0.243 -0.6787 -0.4166 -0.4497
 6255TIP3   OH240323   0.766   3.250   8.486 -0.0432  0.0867  0.2099
 6255TIP3    H140324   0.750   3.156   8.481  0.3588 -0.1177  2.1280
 6255TIP3    H240325   0.686   3.289   8.451 -1.3046 -0.9841  1.7179
 6256TIP3   OH240326   5.184   3.484   0.011 -0.2249  0.2884 -0.5348
 6256TIP3    H140327   5.091   3.503  -0.001 -0.0700  0.8231 -0.9630
 6256TIP3    H240328   5.227   3.568  -0.003  0.1528  0.5934  2.0429
 6257TIP3   OH240329   5.864   5.223   0.774  0.4788 -0.0630 -0.4675
 6257TIP3    H140330   5.883   5.302   0.824  0.3162 -0.2708 -0.0691
 6257TIP3    H240331   5.798   5.250   0.710  0.7199  0.2153 -0.6031
 6258TIP3   OH240332   6.653   0.591   0.660 -0.5117 -0.3798 -0.5912
 6258TIP3    H140333   6.566   0.611   0.695 -1.1004 -1.0389 -1.5957
 6258TIP3    H240334   6.688   0.675   0.632 -0.0838  0.1385  1.3879
 6259TIP3   OH240335   6.112   0.796   1.395 -0.1321 -0.4423  0.3839
 6259TIP3    H140336   6.084   0.887   1.387  2.8790  0.5159 -0.9516
 6259TIP3    H240337   6.208   0.800   1.386  0.0938 -3.7604  0.1188
 6260TIP3   OH240338   1.891   1.307   6.823 -0.7279 -0.8416 -0.3689
 6260TIP3    H140339   1.967   1.253   6.842  0.9254  1.5979  0.3920
 6260TIP3    H240340   1.915   1.357   6.745 -0.8615  1.0138  0.7041
 6261TIP3   OH240341   0.313   5.368   1.022  0.3894  0.3403 -0.2248
 6261TIP3    H140342   0.315   5.281   1.063  2.5009 -0.1042 -1.1048
 6261TIP3    H240343   0.338   5.428   1.092  0.2364  0.0577  0.0752
 6262TIP3   OH240344   1.725   1.342   8.525 -0.8382  0.2361 -0.0583
 6262TIP3    H140345   1.631   1.361   8.529 -1.0805 -0.7112 -1.0053
 6262TIP3    H240346   1.749   1.359   8.434 -0.6697 -2.0345 -0.4836
 6263TIP3   OH240347   4.635   2.657   8.159 -0.1189 -0.1912 -0.2512
 6263TIP3    H140348   4.723   2.624   8.140 -0.0779  0.2578 -0.8897
 6263TIP3    H240349   4.628   2.652   8.254  0.6244 -0.1772 -0.1835
 6264TIP3   OH240350   5.687   3.101   6.996 -0.0756 -0.3014 -0.0610
 6264TIP3    H140351   5.651   3.053   6.922  0.5983 -1.0544  0.0899
 6264TIP3    H240352   5.765   3.144   6.961 -0.7366  0.8005 -0.2259
 6265TIP3   OH240353   0.043   6.311   6.618 -0.6847  0.5751 -0.4542
 6265TIP3    H140354   0.063   6.337   6.528 -0.1583  2.0048  0.0385
 6265TIP3    H240355   0.040   6.215   6.616  0.2113  0.5488 -1.8121
 6266TIP3   OH240356   5.719   1.856   1.525 -0.0519  0.2551 -0.0616
 6266TIP3    H140357   5.665   1.935   1.525 -1.4675 -0.6775  0.0302
 6266TIP3    H240358   5.666   1.790   1.481 -0.2148 -1.4820  2.4915
 6267TIP3   OH240359   6.821   2.820   8.615  0.3004  0.6878  0.0986
 6267TIP3    H140360   6.792   2.735   8.649 -1.7448  1.3675  0.1263
 6267TIP3    H240361   6.806   2.881   8.687 -2.2548  1.7936 -1.2778
 6268TIP3   OH240362   4.379   2.433   7.782 -0.1530  0.2640  0.8021
 6268TIP3    H140363   4.401   2.360   7.724  0.1955  1.3689 -0.4992
 6268TIP3    H240364   4.446   2.499   7.764 -2.7421  2.5943 -1.1744
 6269TIP3   OH240365   3.194   0.622   2.177 -0.2182  0.8881 -1.0414
 6269TIP3    H140366   3.124   0.687   2.176  0.3439  1.5228 -0.1368
 6269TIP3    H240367   3.270   0.668   2.140  0.0549  0.6040 -0.8422
 6270TIP3   OH240368   3.710   4.867   0.480  0.4063 -0.4978  0.0602
 6270TIP3    H140369   3.678   4.843   0.567 -1.0589 -0.2518 -0.3904
 6270TIP3    H240370   3.797   4.827   0.475  0.3857 -0.7737  1.5155
 6271TIP3   OH240371   4.490   5.068   0.563  0.3582  0.6413  0.3625
 6271TIP3    H140372   4.453   5.150   0.531 -0.0538  0.9400  1.5341
 6271TIP3    H240373   4.517   5.088   0.653 -0.4188 -0.7018  0.9225
 6272TIP3   OH240374   0.761   4.987   8.370 -0.3953 -0.0387 -0.2278
 6272TIP3    H140375   0.838   5.043   8.380 -0.6494  0.7445 -2.2278
 6272TIP3    H240376   0.794   4.908   8.326 -0.7761  0.5370 -1.6071
 6273TIP3   OH240377   5.049   2.573   8.194  0.3498 -0.4462 -0.0805
 6273TIP3    H140378   5.010   2.508   8.253 -1.2852 -0.7031 -1.3613
 6273TIP3    H240379   5.128   2.530   8.161 -1.5543 -2.6454 -2.2144
 6274TIP3   OH240380   2.035   6.485   8.558  0.2073  0.2587 -0.4193
 6274TIP3    H140381   2.094   6.411   8.542  0.9803  1.2007 -2.4239
 6274TIP3    H240382   2.079   6.537   8.625 -1.2346 -1.9302  2.3904
 6275TIP3   OH240383   1.983   6.138   1.980 -0.3172  0.2078  0.1539
 6275TIP3    H140384   1.891   6.160   1.993 -0.1267  0.8756  0.3689
 6275TIP3    H240385   2.027   6.165   2.060  0.0242 -0.3946  0.1786
 6276TIP3   OH240386   2.111   5.989   7.318  0.7451 -0.5641  0.4887
 6276TIP3    H140387   2.067   5.993   7.403  0.2416  1.4029  0.1785
 6276TIP3    H240388   2.046   5.950   7.260  0.4627 -0.3529  0.6564
 6277TIP3   OH240389   1.121   4.786   0.210  0.3934 -0.4233 -0.2495
 6277TIP3    H140390   1.090   4.877   0.209 -3.7328 -1.6297 -1.4143
 6277TIP3    H240391   1.184   4.782   0.138 -0.0970  1.3219 -0.8483
 6278TIP3   OH240392   2.118   5.567   6.248 -0.9151 -0.2608 -0.0952
 6278TIP3    H140393   2.025   5.583   6.258 -1.0523 -1.2555  0.2844
 6278TIP3    H240394   2.126   5.472   6.243  0.2137 -0.2574  1.2295
 6279TIP3   OH240395   5.300   2.044   7.452 -0.0024 -0.2886 -0.0633
 6279TIP3    H140396   5.290   2.130   7.410 -0.3067 -0.0913  0.4012
 6279TIP3    H240397   5.220   1.997   7.431 -0.6835  0.2383  1.2518
 6280TIP3   OH240398   1.299   4.391   8.120  0.4386  0.6168  0.3120
 6280TIP3    H140399   1.207   4.393   8.094  0.6807  1.0920 -0.5256
 6280TIP3    H240400   1.304   4.450   8.195 -0.2945 -0.8949  1.6079
 6281TIP3   OH240401   4.592   4.003   7.911 -0.7442 -0.1793  0.3005
 6281TIP3    H140402   4.641   4.084   7.902 -1.0095  0.4210  3.2380
 6281TIP3    H240403   4.635   3.942   7.850  1.0512  1.4337 -0.1534
 6282TIP3   OH240404   3.783   6.293   0.239  0.3782  0.3135 -0.1446
 6282TIP3    H140405   3.744   6.251   0.162  1.2030  0.3123 -0.5766
 6282TIP3    H240406   3.872   6.316   0.211  0.6978  0.2929  0.8208
 6283TIP3   OH240407   6.714   3.824   1.612 -0.8262 -0.5299 -0.0539
 6283TIP3    H140408   6.804   3.799   1.590 -1.7889 -3.6338 -1.0046
 6283TIP3    H240409   6.695   3.899   1.557  1.6304  1.2085  1.3181
 6284TIP3   OH240410   5.984   4.733   1.467 -0.6757  0.8339 -0.0457
 6284TIP3    H140411   5.939   4.772   1.542  1.2540  1.0679  1.0395
 6284TIP3    H240412   6.014   4.648   1.499 -0.2314  0.7440 -0.6888
 6285TIP3   OH240413   6.830   1.048   6.835 -0.4161 -0.3043 -0.6102
 6285TIP3    H140414   6.748   1.064   6.790 -0.6372 -0.4085 -0.2455
 6285TIP3    H240415   6.833   0.954   6.849  0.1088 -0.3973 -1.2658
 6286TIP3   OH240416   6.761   0.688   1.055 -0.0123  0.0249 -0.0867
 6286TIP3    H140417   6.819   0.729   0.991  1.0433  0.5777  1.1638
 6286TIP3    H240418   6.674   0.694   1.017  0.2492  2.4366 -0.4405
 6287TIP3   OH240419   6.315   0.241   7.656 -0.1091 -0.4660  0.0372
 6287TIP3    H140420   6.358   0.226   7.572 -0.4880  2.0205 -0.6959
 6287TIP3    H240421   6.371   0.198   7.721  1.3773 -0.5656 -1.2700
 6288TIP3   OH240422   0.376   4.644   1.050  0.2092  0.5718 -0.4406
 6288TIP3    H140423   0.420   4.617   1.131 -0.8797 -0.7271 -0.2495
 6288TIP3    H240424   0.425   4.600   0.981 -1.7181 -2.3767 -0.1169
 6289TIP3   OH240425   1.778   0.298   0.094 -0.0122 -0.2174  0.1682
 6289TIP3    H140426   1.772   0.389   0.067 -0.5763 -0.4950 -0.6537
 6289TIP3    H240427   1.792   0.302   0.189 -1.3884  0.6978  0.3576
 6290TIP3   OH240428   0.711   1.531   7.574 -0.3619  0.6677  0.1367
 6290TIP3    H140429   0.693   1.440   7.550  0.0249  0.9298 -1.2210
 6290TIP3    H240430   0.766   1.524   7.652  0.1589 -0.2809 -0.2986
 6291TIP3   OH240431   5.606   5.835   0.543 -0.7807 -0.7531 -0.1041
 6291TIP3    H140432   5.684   5.891   0.540 -1.9042  0.8839 -0.1042
 6291TIP3    H240433   5.635   5.751   0.507  0.7915  0.0452 -0.7914
 6292TIP3   OH240434   6.525   0.368   8.351  0.7740  0.3669  0.3023
 6292TIP3    H140435   6.571   0.325   8.423 -0.2929 -0.9399  0.2504
 6292TIP3    H240436   6.435   0.335   8.357 -0.1161  2.5906  0.2238
 6293TIP3   OH240437   0.145   6.147   1.066  0.2971 -0.3491  0.0877
 6293TIP3    H140438   0.199   6.195   1.003  0.7771 -0.7247  0.2116
 6293TIP3    H240439   0.191   6.157   1.149 -0.0688 -0.2814  0.2834
 6294TIP3   OH240440   3.837   6.222   7.817  0.2680 -0.3247 -0.2413
 6294TIP3    H140441   3.823   6.198   7.909 -2.5381  1.4003 -0.0924
 6294TIP3    H240442   3.808   6.146   7.767 -2.3839  0.2233  0.3118
 6295TIP3   OH240443   4.854   2.716   8.353  0.5410 -0.0774 -0.0946
 6295TIP3    H140444   4.816   2.799   8.325  0.4141 -0.3818 -0.8537
 6295TIP3    H240445   4.930   2.703   8.295  1.3737  0.1596  0.9062
 6296TIP3   OH240446   5.251   3.421   7.144  0.3097  0.3410  0.0617
 6296TIP3    H140447   5.311   3.381   7.081  0.2854 -0.1527  0.3511
 6296TIP3    H240448   5.183   3.355   7.158  0.8851  0.0271  1.4147
 6297TIP3   OH240449   1.769   3.967   7.443  0.1823  0.6362  0.2373
 6297TIP3    H140450   1.695   3.978   7.383 -0.9686 -0.0134  1.4977
 6297TIP3    H240451   1.808   3.883   7.417  0.8829  1.2479 -0.8043
 6298TIP3   OH240452   0.559   4.493   0.783 -0.0131  0.7699 -0.5089
 6298TIP3    H140453   0.606   4.524   0.860  0.7167 -1.7238  0.1722
 6298TIP3    H240454   0.574   4.559   0.716 -0.1283  2.6890  1.2869
 6299TIP3   OH240455   6.605   6.239   0.850  0.3896 -0.0925  0.8556
 6299TIP3    H140456   6.644   6.170   0.796  0.2336  0.5265 -0.0764
 6299TIP3    H240457   6.659   6.316   0.832 -0.5753  0.4972  0.4090
 6300TIP3   OH240458   3.431   1.194   1.654  0.2535  0.1755  0.4350
 6300TIP3    H140459   3.370   1.140   1.703  0.4503 -0.0008  0.4913
 6300TIP3    H240460   3.409   1.284   1.676 -1.2743  0.2118 -1.0592
 6301TIP3   OH240461   4.235   3.869   0.676 -0.0297  0.2656  0.4842
 6301TIP3    H140462   4.275   3.955   0.666  1.9393 -0.5237  1.1322
 6301TIP3    H240463   4.249   3.826   0.592  0.6272 -0.0515  0.7478
 6302TIP3   OH240464   2.629   3.416   6.671 -0.0821  0.3909  0.4522
 6302TIP3    H140465   2.712   3.443   6.632  0.0830 -0.3324  0.2866
 6302TIP3    H240466   2.621   3.470   6.750 -0.7803  2.3831 -0.9297
 6303TIP3   OH240467   6.479   4.428   1.648  0.5602 -0.2771 -0.0410
 6303TIP3    H140468   6.399   4.427   1.700  0.6562 -2.0105  0.1470
 6303TIP3    H240469   6.509   4.518   1.651  0.5415 -0.2853  2.8983
 6304TIP3   OH240470   3.052   2.239   7.754  0.1688 -0.1897 -0.2630
 6304TIP3    H140471   3.011   2.257   7.839  1.1858  2.0159 -0.1689
 6304TIP3    H240472   3.006   2.297   7.693  0.5639 -0.5361 -0.8951
 6305TIP3   OH240473   3.936   1.411   8.001  0.6165 -0.2690 -0.0526
 6305TIP3    H140474   3.988   1.334   7.975  1.6287  0.5670 -0.5667
 6305TIP3    H240475   3.864   1.413   7.938 -0.3289 -1.6799  0.9189
 6306TIP3   OH240476   0.328   2.598   8.458  0.4520  0.1064 -0.6183
 6306TIP3    H140477   0.256   2.655   8.429 -0.6624 -1.7421 -1.7432
 6306TIP3    H240478   0.284   2.528   8.507  1.5056 -0.8709 -1.0277
 6307TIP3   OH240479   2.337   6.682   1.898  0.1372 -0.0799  0.0563
 6307TIP3    H140480   2.274   6.697   1.969 -1.5271 -1.7677 -0.9561
 6307TIP3    H240481   2.414   6.732   1.923 -1.1981  1.1814  1.9351
 6308TIP3   OH240482   3.940   4.730   6.756  0.1883  0.0506  0.5614
 6308TIP3    H140483   3.949   4.785   6.833 -1.3126 -0.4708  1.1497
 6308TIP3    H240484   4.024   4.684   6.749 -0.4575 -1.8729  3.4934
 6309TIP3   OH240485   3.145   2.679   7.068  0.0669 -0.7175 -0.2202
 6309TIP3    H140486   3.154   2.692   7.163  1.5120  1.2287 -0.5628
 6309TIP3    H240487   3.222   2.628   7.043  0.8185  0.5648 -0.6100
 6310TIP3   OH240488   5.412   4.874   0.076 -0.2789  0.3306  0.2286
 6310TIP3    H140489   5.424   4.791   0.122  1.5135  1.5960  2.2434
 6310TIP3    H240490   5.448   4.940   0.136  0.6887  2.2971 -2.3341
 6311TIP3   OH240491   4.719   4.543   2.346 -0.7489  0.4931 -0.0288
 6311TIP3    H140492   4.720   4.452   2.374  2.3151  0.0292 -1.2840
 6311TIP3    H240493   4.780   4.587   2.406 -2.5874  1.9226  0.9119
 6312TIP3   OH240494   3.924   1.928   6.355 -0.0220  0.5557  0.0987
 6312TIP3    H140495   3.957   1.991   6.419  0.0771  0.5224  0.0812
 6312TIP3    H240496   3.912   1.847   6.405 -0.8539  0.7828  0.2864
 6313TIP3   OH240497   4.374   0.932   0.415  0.4617 -0.4015  0.5376
 6313TIP3    H140498   4.411   0.844   0.408 -0.0446 -0.6472  0.8535
 6313TIP3    H240499   4.450   0.991   0.415  0.7683 -0.7650 -0.7002
 6314TIP3   OH240500   0.588   6.098   1.320 -0.1346 -0.1289  0.1932
 6314TIP3    H140501   0.493   6.102   1.313 -0.2932 -2.2791  0.3479
 6314TIP3    H240502   0.611   6.167   1.382 -2.0376 -2.1993  3.4590
 6315TIP3   OH240503   4.321   5.893   2.783  0.3355 -0.3200 -0.7962
 6315TIP3    H140504   4.399   5.884   2.728  2.2465 -1.5572  1.8778
 6315TIP3    H240505   4.340   5.839   2.860 -1.7795  1.9054  1.4765
 6316TIP3   OH240506   5.666   3.891   0.458  0.0331 -0.2502 -0.8631
 6316TIP3    H140507   5.656   3.804   0.497 -1.5114 -0.5247 -1.7723
 6316TIP3    H240508   5.607   3.947   0.509 -0.2751 -0.1223 -1.3554
 6317TIP3   OH240509   0.828   6.318   7.139 -0.2612 -0.3105 -0.2474
 6317TIP3    H140510   0.821   6.286   7.049 -1.0063  3.8280 -1.9075
 6317TIP3    H240511   0.741   6.305   7.176 -0.4088 -0.5823 -0.6784
 6318TIP3   OH240512   4.646   4.368   0.682 -0.5440 -0.0797 -0.1978
 6318TIP3    H140513   4.646   4.437   0.748 -0.1289 -0.2138 -0.0548
 6318TIP3    H240514   4.608   4.410   0.604  0.1551  0.4602 -0.2608
 6319TIP3   OH240515   4.300   5.008   8.066  0.7184  0.1566  0.2713
 6319TIP3    H140516   4.327   4.978   7.979  1.3187 -0.2264  0.5838
 6319TIP3    H240517   4.242   4.938   8.098  1.4581 -0.2927  0.6619
 6320TIP3   OH240518   3.690   2.974   7.010  0.5607 -0.4958  0.0788
 6320TIP3    H140519   3.720   3.031   6.939  0.3800  0.0394  0.4213
 6320TIP3    H240520   3.603   3.006   7.032  0.6957 -0.5172  0.6800
 6321TIP3   OH240521   1.683   3.027   2.155  0.4990  0.3493 -0.4786
 6321TIP3    H140522   1.624   3.002   2.226  0.3836  1.0954 -0.3100
 6321TIP3    H240523   1.632   3.085   2.100  0.9290  0.6238 -0.5910
 6322TIP3   OH240524   1.095   0.273   7.540  0.1359 -0.0339 -0.5899
 6322TIP3    H140525   1.135   0.251   7.455 -0.8691 -2.4364 -0.5168
 6322TIP3    H240526   1.037   0.346   7.521 -1.7857 -1.9110 -2.5589
 6323TIP3   OH240527   4.831   5.210   2.091  0.1495  0.4148  0.0185
 6323TIP3    H140528   4.806   5.302   2.080 -1.8072  0.0577  1.0106
 6323TIP3    H240529   4.896   5.211   2.161  0.1684  1.0493 -0.0037
 6324TIP3   OH240530   3.780   3.193   0.832 -0.5598  0.0852  0.1798
 6324TIP3    H140531   3.685   3.201   0.828 -0.4587  1.6715  0.2718
 6324TIP3    H240532   3.812   3.247   0.758  0.2874  0.8055  1.0399
 6325TIP3   OH240533   3.788   2.937   6.171 -0.0594 -0.2047 -0.0732
 6325TIP3    H140534   3.852   2.867   6.160  0.4555  0.2212  0.1720
 6325TIP3    H240535   3.747   2.919   6.255  0.8190  0.3660  0.4995
 6326TIP3   OH240536   5.010   3.402   8.084  0.2903  0.3677 -0.5444
 6326TIP3    H140537   4.988   3.468   8.150  1.7975  0.5176 -0.1575
 6326TIP3    H240538   5.081   3.440   8.034  2.0362 -1.3926  0.4557
 6327TIP3   OH240539   3.779   0.463   8.554 -0.4219  0.6040 -0.1552
 6327TIP3    H140540   3.804   0.479   8.645  0.5461  0.6125 -0.4092
 6327TIP3    H240541   3.696   0.509   8.543 -0.4353  0.7920  0.6545
 6328TIP3   OH240542   4.727   3.158   8.474 -0.0812  0.3211  0.0967
 6328TIP3    H140543   4.675   3.214   8.416  0.6798  1.8548  0.8543
 6328TIP3    H240544   4.676   3.155   8.555 -0.6336 -0.9900 -0.2568
 6329TIP3   OH240545   0.939   5.483   0.783 -0.5358 -0.4743  0.5488
 6329TIP3    H140546   1.019   5.529   0.757 -1.7209  0.6358 -1.2937
 6329TIP3    H240547   0.957   5.391   0.761 -0.3922  0.0185 -1.5555
 6330TIP3   OH240548   3.744   5.744   7.675  0.0435  0.3949  0.3129
 6330TIP3    H140549   3.705   5.663   7.710  0.8027 -0.0680  0.1158
 6330TIP3    H240550   3.700   5.758   7.592  0.4124 -0.2246  0.0067
 6331TIP3   OH240551   4.416   6.141   8.460 -0.6633 -0.0785  0.4337
 6331TIP3    H140552   4.347   6.086   8.497 -0.1137 -0.5210  0.7978
 6331TIP3    H240553   4.480   6.080   8.426 -0.2002  0.3326  0.5597
 6332TIP3   OH240554   0.537   4.007   0.499  0.3344 -0.3427  0.7153
 6332TIP3    H140555   0.482   4.010   0.421  0.3318 -0.5963  0.7065
 6332TIP3    H240556   0.569   4.097   0.510 -0.2351 -0.1506  0.8302
 6333TIP3   OH240557   4.595   0.579   6.431  0.4810  0.0672 -0.0995
 6333TIP3    H140558   4.685   0.605   6.409  0.7878 -0.8934 -0.0038
 6333TIP3    H240559   4.563   0.650   6.487  1.4862 -0.0146  0.6013
 6334TIP3   OH240560   2.285   4.167   8.387  0.1637 -0.0890 -0.5493
 6334TIP3    H140561   2.348   4.095   8.394 -0.0766 -0.2078  0.6180
 6334TIP3    H240562   2.336   4.245   8.406 -0.2606 -0.3099  1.8767
 6335TIP3   OH240563   1.994   6.830   8.504  0.1337  0.2958  0.4621
 6335TIP3    H140564   1.997   6.786   8.420  0.5297  0.2159  0.5154
 6335TIP3    H240565   1.933   6.903   8.492  0.3993  0.4475  0.0290
 6336TIP3   OH240566   4.443   0.311   7.636  0.1144 -0.2348  0.6896
 6336TIP3    H140567   4.417   0.372   7.705 -0.2340  0.9557 -0.4423
 6336TIP3    H240568   4.458   0.366   7.559 -4.3856 -1.7812 -1.6750
 6337TIP3   OH240569   0.003   2.199   7.847 -0.4895 -0.4383  0.3624
 6337TIP3    H140570   0.095   2.225   7.841 -0.1687 -1.7780 -1.2360
 6337TIP3    H240571   0.007   2.103   7.858 -1.7019 -0.4849  0.4469
 6338TIP3   OH240572   3.681   4.075   8.571 -0.5544 -0.4044 -0.3368
 6338TIP3    H140573   3.628   3.999   8.592 -0.1103 -0.4259  0.7940
 6338TIP3    H240574   3.769   4.052   8.601 -0.4704  0.6562  0.2849
 6339TIP3   OH240575   5.967   5.844   8.640 -0.5461 -0.2084  0.0259
 6339TIP3    H140576   6.037   5.848   8.575 -0.2599 -0.4222  0.3196
 6339TIP3    H240577   5.911   5.919   8.619  0.4517  0.7178  0.5597
 6340TIP3   OH240578   5.032   6.516   0.767  0.4493 -0.0100  0.0743
 6340TIP3    H140579   5.038   6.453   0.839  2.4637  1.0078  0.9048
 6340TIP3    H240580   4.984   6.590   0.804 -0.1844 -0.2519 -0.2576
 6341TIP3   OH240581   1.620   5.769   7.906 -0.0022 -1.1088 -0.6401
 6341TIP3    H140582   1.524   5.760   7.910 -0.0119 -0.6955  0.6206
 6341TIP3    H240583   1.639   5.782   7.814 -1.6067  3.0429 -0.6010
 6342TIP3   OH240584   3.995   5.213   2.544 -0.5091 -0.4878 -0.4327
 6342TIP3    H140585   4.074   5.178   2.503  0.4660  1.0375  0.0566
 6342TIP3    H240586   3.967   5.144   2.605  0.2576 -1.1735 -0.8424
 6343TIP3   OH240587   6.279   3.853   1.758 -0.2667  0.5594 -0.1857
 6343TIP3    H140588   6.269   3.847   1.853  1.6299 -2.4812 -0.0233
 6343TIP3    H240589   6.241   3.771   1.725  1.3068  0.4049 -1.7521
 6344TIP3   OH240590   3.079   0.043   7.696 -0.0467  0.3548 -0.5746
 6344TIP3    H140591   3.069   0.137   7.679  0.4302  0.4178 -0.5182
 6344TIP3    H240592   3.158   0.018   7.649  1.3892  0.5657  1.5690
 6345TIP3   OH240593   4.476   3.389   0.039 -0.3452  0.3283 -0.4102
 6345TIP3    H140594   4.540   3.459   0.051  1.3232 -1.3907  1.3737
 6345TIP3    H240595   4.424   3.389   0.119  0.8320 -1.5143  0.4311
 6346TIP3   OH240596   3.944   2.583   8.470 -0.3044 -0.0413  0.9317
 6346TIP3    H140597   3.927   2.611   8.560 -0.1908  0.6251  0.7516
 6346TIP3    H240598   4.024   2.531   8.475 -0.0485  0.3701  1.1526
 6347TIP3   OH240599   3.384   5.664   1.062 -0.0450  0.1443 -0.8792
 6347TIP3    H140600   3.476   5.661   1.035  0.5232 -2.0210  0.9782
 6347TIP3    H240601   3.335   5.655   0.980  1.4080  0.2578 -1.8033
 6348TIP3   OH240602   1.638   6.614   0.035 -0.2883 -0.4622  0.2099
 6348TIP3    H140603   1.697   6.644   0.105 -2.5302  1.3274  1.4566
 6348TIP3    H240604   1.686   6.633  -0.045  2.1481 -2.0860  1.1337
 6349TIP3   OH240605   2.073   0.722   1.090  0.2271  0.7011 -0.3947
 6349TIP3    H140606   2.072   0.807   1.133 -0.9383  0.9153 -0.8240
 6349TIP3    H240607   1.982   0.695   1.087  0.6313 -0.8867  0.3279
 6350TIP3   OH240608   5.248   1.296   1.608 -0.4959  0.4269 -0.1643
 6350TIP3    H140609   5.342   1.281   1.598 -0.6523 -0.5381 -0.3101
 6350TIP3    H240610   5.212   1.284   1.521 -0.7164  1.1860 -0.1869
 6351TIP3   OH240611   4.808   5.337   0.314 -0.8648  0.1599  0.2753
 6351TIP3    H140612   4.759   5.387   0.249  0.9820  0.4338 -0.9838
 6351TIP3    H240613   4.785   5.246   0.297  1.8045 -0.1035 -2.9141
 6352TIP3   OH240614   1.944   2.557   2.779 -0.3449 -0.1103 -0.5639
 6352TIP3    H140615   1.884   2.484   2.766 -0.3469 -0.1739 -0.2190
 6352TIP3    H240616   1.937   2.609   2.699 -0.6597 -0.2588 -0.6336
 6353TIP3   OH240617   5.653   3.044   0.940 -0.2479  0.1965  0.2017
 6353TIP3    H140618   5.562   3.049   0.969  0.0481 -1.0286  1.4738
 6353TIP3    H240619   5.696   3.118   0.982 -0.3455 -0.1416  0.9182
 6354TIP3   OH240620   6.539   0.663   6.220 -0.1319  0.1178  0.1490
 6354TIP3    H140621   6.495   0.578   6.230  0.8471 -0.2785  1.3875
 6354TIP3    H240622   6.522   0.709   6.302 -0.4783  1.0450 -0.4343
 6355TIP3   OH240623   6.392   4.914   0.194 -0.4823  0.5099 -0.0937
 6355TIP3    H140624   6.331   4.930   0.122 -0.0177 -0.1557 -0.6470
 6355TIP3    H240625   6.337   4.905   0.271 -1.2071 -1.3204 -0.7812
 6356TIP3   OH240626   1.327   4.731   7.677 -0.1060 -0.2737  0.0935
 6356TIP3    H140627   1.352   4.820   7.655 -0.4410 -0.5134 -1.3895
 6356TIP3    H240628   1.271   4.740   7.755  0.9995  0.6465  0.8098
 6357TIP3   OH240629   6.798   5.391   1.548  0.4654 -0.6616  0.1704
 6357TIP3    H140630   6.791   5.359   1.458 -0.9185 -0.8133  0.2999
 6357TIP3    H240631   6.827   5.482   1.539  2.4427 -1.2908 -0.2987
 6358TIP3   OH240632   6.168   6.420   6.670  0.3901 -0.1406  0.2085
 6358TIP3    H140633   6.179   6.439   6.763 -1.2682  0.1859  0.3784
 6358TIP3    H240634   6.108   6.346   6.668  0.6273 -0.3151 -0.5928
 6359TIP3   OH240635   4.428   2.594   7.246 -0.0598 -0.1057 -0.1764
 6359TIP3    H140636   4.346   2.636   7.221  0.3538  0.7325 -0.1680
 6359TIP3    H240637   4.472   2.578   7.162 -0.0726 -0.2133 -0.1615
 6360TIP3   OH240638   2.648   2.409   8.704 -0.2959  0.2167  0.0151
 6360TIP3    H140639   2.702   2.474   8.749 -2.1357  1.3526  0.7156
 6360TIP3    H240640   2.632   2.447   8.618 -1.6797  0.9281  0.5553
 6361TIP3   OH240641   4.398   5.191   7.832  0.3197 -0.2437  0.1363
 6361TIP3    H140642   4.389   5.148   7.917  2.3657 -0.6923  0.1790
 6361TIP3    H240643   4.432   5.278   7.853  0.7295 -0.3174 -0.2028
 6362TIP3   OH240644   6.189   2.982   1.360  0.0101  0.1132  0.3057
 6362TIP3    H140645   6.230   3.044   1.419 -0.1581  0.5015  0.0175
 6362TIP3    H240646   6.102   2.965   1.399 -0.6752  1.4718 -0.5698
 6363TIP3   OH240647   2.749   4.444   7.293 -0.6435  0.0472  0.4098
 6363TIP3    H140648   2.804   4.493   7.231 -0.1038 -0.0447  0.8101
 6363TIP3    H240649   2.680   4.506   7.318 -0.4658  0.3107  0.2478
 6364TIP3   OH240650   2.184   4.005   0.190  0.0970  0.1831 -0.2887
 6364TIP3    H140651   2.098   3.967   0.176 -0.4860  1.5218 -0.5297
 6364TIP3    H240652   2.176   4.052   0.273  1.2903 -1.5116  0.8450
 6365TIP3   OH240653   1.034   3.627   1.752 -0.2345  0.3290  0.1509
 6365TIP3    H140654   1.117   3.602   1.793 -0.7495 -2.6222 -0.3460
 6365TIP3    H240655   1.056   3.645   1.661  0.0277  0.6463  0.2778
 6366TIP3   OH240656   2.570   0.532   1.674 -0.1649  0.3082 -0.4520
 6366TIP3    H140657   2.529   0.472   1.612  2.0863 -1.2983 -0.4936
 6366TIP3    H240658   2.497   0.562   1.729 -1.9606  0.5182 -2.7595
 6367TIP3   OH240659   5.073   1.199   1.817  0.2002  0.0383  0.4516
 6367TIP3    H140660   5.122   1.178   1.896  0.6807 -0.8664 -0.0787
 6367TIP3    H240661   5.135   1.245   1.762 -0.5821  2.1488  1.2217
 6368TIP3   OH240662   6.584   5.926   0.747 -0.3704 -0.0565  0.0053
 6368TIP3    H140663   6.647   5.938   0.819  0.3846 -0.7458 -0.5142
 6368TIP3    H240664   6.539   5.844   0.768 -0.2371 -0.1936 -0.2324
 6369TIP3   OH240665   5.634   2.215   7.481 -0.1913 -0.1631  0.2162
 6369TIP3    H140666   5.716   2.261   7.466 -0.2233 -0.3114 -0.4401
 6369TIP3    H240667   5.567   2.271   7.441 -0.5595  0.4964  1.6809
 6370TIP3   OH240668   6.795   5.773   2.071  0.0292 -0.2212 -0.1722
 6370TIP3    H140669   6.860   5.771   2.141  0.6024  1.9148 -0.5563
 6370TIP3    H240670   6.716   5.735   2.110  1.1640 -1.8401  0.6358
 6371TIP3   OH240671   6.731   3.179   0.827 -0.1219  0.4671 -0.3578
 6371TIP3    H140672   6.659   3.176   0.765 -0.2325  3.7331 -0.5169
 6371TIP3    H240673   6.690   3.164   0.912 -0.7816  0.9283 -0.5893
 6372TIP3   OH240674   0.011   0.157   0.676  0.0349 -0.0786  0.1437
 6372TIP3    H140675  -0.078   0.135   0.703 -0.6392  0.2310 -1.6470
 6372TIP3    H240676   0.001   0.187   0.585  2.1024 -1.1379 -0.4945
 6373TIP3   OH240677   5.628   5.449   7.786  0.2484  0.2046 -1.0491
 6373TIP3    H140678   5.679   5.368   7.781  0.4547  0.0117  2.0797
 6373TIP3    H240679   5.537   5.420   7.782  0.2445 -0.5549  1.9056
 6374TIP3   OH240680   0.819   4.047   6.803 -0.1017  0.0848 -0.6839
 6374TIP3    H140681   0.890   4.110   6.801  1.2463 -1.3870 -1.7661
 6374TIP3    H240682   0.752   4.085   6.746  0.3484  0.8941 -0.6868
 6375TIP3   OH240683   3.017   5.650   1.475  0.3343 -0.8184 -0.0531
 6375TIP3    H140684   3.090   5.611   1.523 -0.0014 -2.7021 -0.9829
 6375TIP3    H240685   2.962   5.689   1.543  0.8255 -1.7612  0.9251
 6376TIP3   OH240686   2.386   4.500   1.569  0.5369  0.1215 -0.1775
 6376TIP3    H140687   2.318   4.447   1.528  0.4363  0.4723 -0.4728
 6376TIP3    H240688   2.389   4.469   1.659 -0.9600  0.9874  0.2141
 6377TIP3   OH240689   6.040   1.452   7.518 -0.5888  0.3209  0.7385
 6377TIP3    H140690   5.974   1.517   7.541  0.1712  1.0945  0.7819
 6377TIP3    H240691   6.009   1.414   7.436 -0.1593  2.0290 -0.2693
 6378TIP3   OH240692   6.360   3.547   0.462  0.0190  0.9467  0.1056
 6378TIP3    H140693   6.395   3.486   0.527 -0.0559  2.1729  1.3534
 6378TIP3    H240694   6.265   3.539   0.470  0.0063  0.3020 -0.6454
 6379TIP3   OH240695   4.862   0.058   7.121 -0.7442 -0.4132  0.4634
 6379TIP3    H140696   4.837  -0.020   7.072 -3.2031  0.5014  0.0933
 6379TIP3    H240697   4.880   0.026   7.210 -1.0956 -1.4655  0.1687
 6380TIP3   OH240698   6.102   1.565   8.394  0.4000  0.7632 -0.4268
 6380TIP3    H140699   6.138   1.642   8.351 -1.2066  1.1511 -1.1450
 6380TIP3    H240700   6.153   1.556   8.474 -1.4951  4.6654  1.5058
 6381TIP3   OH240701   1.516   1.360   7.723  0.6733 -0.4428 -0.8583
 6381TIP3    H140702   1.519   1.455   7.737 -1.8644 -0.2834 -0.9426
 6381TIP3    H240703   1.564   1.347   7.640  2.0742  0.5661 -0.2637
 6382TIP3   OH240704   4.506   3.767   0.373 -0.2461 -0.0107 -0.0479
 6382TIP3    H140705   4.462   3.841   0.413 -0.7799 -0.3073 -0.0787
 6382TIP3    H240706   4.597   3.795   0.364 -0.9854  1.8145 -2.9186
 6383TIP3   OH240707   4.141   6.798   8.683  0.2819 -0.0888  0.5373
 6383TIP3    H140708   4.191   6.726   8.644 -1.4052 -1.6544  1.1301
 6383TIP3    H240709   4.165   6.795   8.776 -1.5935 -1.5640  1.0471
 6384TIP3   OH240710   2.234   0.950   6.644  0.4520 -0.0629  0.0031
 6384TIP3    H140711   2.244   1.043   6.623 -1.0972 -0.4872 -3.1405
 6384TIP3    H240712   2.151   0.946   6.692  0.0594  0.0831 -0.6581
 6385TIP3   OH240713   2.245   1.456   8.220 -0.1545 -0.0117  0.1403
 6385TIP3    H140714   2.325   1.416   8.254  0.7751  1.9611  0.3565
 6385TIP3    H240715   2.182   1.384   8.218  1.2020 -1.2918  1.3014
 6386TIP3   OH240716   4.491   0.523   7.131 -0.6163 -0.4813  0.0089
 6386TIP3    H140717   4.461   0.507   7.042 -0.2436  2.1015 -0.6503
 6386TIP3    H240718   4.571   0.470   7.140 -1.4821 -1.9419 -0.6188
 6387TIP3   OH240719   4.985   0.463   1.090  0.3632 -0.3687  0.5655
 6387TIP3    H140720   4.924   0.397   1.122  1.1597 -2.8703 -2.5720
 6387TIP3    H240721   4.935   0.514   1.026  0.8911 -0.8418 -0.2376
 6388TIP3   OH240722   4.279   1.041   0.941 -0.0437 -0.2263 -0.1476
 6388TIP3    H140723   4.275   1.027   0.846  1.5701  1.8581 -0.5980
 6388TIP3    H240724   4.370   1.024   0.964  0.0496  1.2262  0.6511
 6389TIP3   OH240725   0.534   0.265   7.835  0.0722 -0.4521  0.1131
 6389TIP3    H140726   0.529   0.191   7.894  2.4301  0.7749  2.0340
 6389TIP3    H240727   0.627   0.273   7.814 -0.3134  1.0680 -1.2736
 6390TIP3   OH240728   6.354   4.199   8.658  0.2542 -0.5766  0.9549
 6390TIP3    H140729   6.408   4.262   8.610 -1.2964  2.2200  2.5947
 6390TIP3    H240730   6.266   4.213   8.625 -0.3884 -0.6736  2.5304
 6391TIP3   OH240731   6.710   5.435   7.523  0.3244  0.2202 -0.4596
 6391TIP3    H140732   6.754   5.353   7.502  0.8013  0.8281 -1.9585
 6391TIP3    H240733   6.775   5.503   7.503 -0.1382  0.9845  0.5398
 6392TIP3   OH240734   4.725   6.287   2.389 -0.6012  0.1786  0.0744
 6392TIP3    H140735   4.632   6.282   2.411 -0.7037 -0.5754 -0.5125
 6392TIP3    H240736   4.748   6.379   2.405 -1.4777  0.4038  0.0913
 6393TIP3   OH240737   1.804   3.871   8.680  0.5709 -0.4296  0.5169
 6393TIP3    H140738   1.805   3.885   8.775  0.2524  2.9456  0.1655
 6393TIP3    H240739   1.884   3.914   8.649  1.0569 -2.1441 -0.7298
 6394TIP3   OH240740   4.985   6.234   0.391 -0.0613  0.0952  0.4684
 6394TIP3    H140741   4.892   6.212   0.398 -0.5937  2.0983  0.2493
 6394TIP3    H240742   4.997   6.309   0.448  1.2241  0.4301 -0.1958
 6395TIP3   OH240743   1.928   3.515   8.088 -0.1517  0.3384 -0.5138
 6395TIP3    H140744   2.008   3.511   8.140  0.4630  0.9193 -1.3856
 6395TIP3    H240745   1.866   3.563   8.144 -0.2109 -0.9133  0.5403
 6396TIP3   OH240746   0.010   0.481   1.500 -0.0077 -0.0454 -0.0047
 6396TIP3    H140747   0.096   0.456   1.533  0.1633 -1.5473 -1.4861
 6396TIP3    H240748   0.014   0.465   1.406 -2.0026 -0.4335 -0.0730
 6397TIP3   OH240749   4.262   2.238   1.062 -0.7811 -0.0743 -0.3812
 6397TIP3    H140750   4.261   2.143   1.046 -1.5290 -0.3103  0.9300
 6397TIP3    H240751   4.255   2.246   1.157 -1.6298  1.3203 -0.5455
 6398TIP3   OH240752   3.558   4.525   1.714  0.0676  0.4765  0.4156
 6398TIP3    H140753   3.465   4.505   1.720  0.4148 -1.2172  0.5853
 6398TIP3    H240754   3.564   4.618   1.735 -1.6126  0.6823  0.0832
 6399TIP3   OH240755   3.844   6.389   1.149  0.7118  0.4219 -0.1562
 6399TIP3    H140756   3.909   6.403   1.217 -0.5350  0.9673  0.9701
 6399TIP3    H240757   3.804   6.475   1.136 -1.6448 -0.3656  1.1966
 6400TIP3   OH240758   4.955   2.795   7.036  0.2069 -0.0359  0.4407
 6400TIP3    H140759   5.015   2.726   7.065 -1.5955 -2.2870 -0.8816
 6400TIP3    H240760   4.987   2.820   6.950  1.2735  1.3810  1.2043
 6401TIP3   OH240761   1.305   4.718   8.093  0.0284  0.1060 -0.4008
 6401TIP3    H140762   1.214   4.722   8.123  0.3503  1.3877  0.4715
 6401TIP3    H240763   1.303   4.759   8.007 -0.2002  0.3093 -0.3022
 6402TIP3   OH240764   6.762   0.137   0.000  0.4942  0.0903 -0.2183
 6402TIP3    H140765   6.832   0.167  -0.058  0.6861  0.8308  0.3745
 6402TIP3    H240766   6.808   0.094   0.072  0.4349  1.4922  0.7071
 6403TIP3   OH240767   2.910   2.893   0.222  0.6200 -0.5122 -0.0667
 6403TIP3    H140768   2.985   2.928   0.173  1.1194  1.4533  1.9524
 6403TIP3    H240769   2.929   2.800   0.231  0.7354 -0.8946 -3.0826
 6404TIP3   OH240770   0.139   1.318   0.144 -0.6423  0.1907  0.5798
 6404TIP3    H140771   0.073   1.297   0.210 -3.4293  1.1203 -1.7448
 6404TIP3    H240772   0.147   1.238   0.092 -2.4142  1.0434 -1.0834
 6405TIP3   OH240773   6.801   1.435   1.069 -0.1689  0.2467  0.4234
 6405TIP3    H140774   6.714   1.447   1.031 -1.1300  1.5826  2.8173
 6405TIP3    H240775   6.819   1.342   1.060 -0.8013  0.2981 -2.1439
 6406TIP3   OH240776   0.993   4.389   7.695  0.4586  0.2850  0.1105
 6406TIP3    H140777   0.966   4.338   7.771 -0.0075  0.7809  0.2906
 6406TIP3    H240778   0.913   4.399   7.644  0.5562  0.7570  0.0406
 6407TIP3   OH240779   2.982   4.617   1.778 -0.0849 -0.0427  0.1108
 6407TIP3    H140780   3.072   4.584   1.768 -0.3752 -0.6672 -0.5012
 6407TIP3    H240781   2.983   4.661   1.863  0.6593 -0.5236  0.3672
 6408TIP3   OH240782   3.399   6.318   1.692  0.3703 -0.3126 -0.0798
 6408TIP3    H140783   3.403   6.296   1.599  2.9522 -0.2778 -0.0352
 6408TIP3    H240784   3.402   6.414   1.694 -0.7558 -0.2664  0.0366
 6409TIP3   OH240785   2.471   3.070   1.601  0.1094  0.4356  0.2180
 6409TIP3    H140786   2.464   3.064   1.697 -0.5292 -0.7092  0.1143
 6409TIP3    H240787   2.402   3.012   1.568  0.2114  0.9435 -0.9489
 6410TIP3   OH240788   2.462   0.098   8.305 -0.0268  0.1343  0.1515
 6410TIP3    H140789   2.393   0.142   8.256 -0.4568  1.5940  1.9537
 6410TIP3    H240790   2.544   0.136   8.273 -0.1670 -0.2313 -0.6613
 6411TIP3   OH240791   3.506   4.207   1.720  0.1688  0.5263  0.4450
 6411TIP3    H140792   3.520   4.198   1.626 -1.1295 -0.2611  0.3023
 6411TIP3    H240793   3.417   4.241   1.728  0.2760  0.6119  1.3943
 6412TIP3   OH240794   3.783   5.052   1.114 -0.0683 -0.5129 -0.2862
 6412TIP3    H140795   3.862   5.003   1.139  1.7709  1.8687 -1.0530
 6412TIP3    H240796   3.814   5.118   1.052 -2.4876  1.1662  0.1409
 6413TIP3   OH240797   4.710   3.196   7.355 -0.2568 -0.6875 -0.3250
 6413TIP3    H140798   4.792   3.236   7.383  0.5408 -0.5699 -2.5719
 6413TIP3    H240799   4.737   3.115   7.311 -1.2036 -0.1748 -1.9450
 6414TIP3   OH240800   4.138   6.271   8.451 -0.2652  0.2854  0.4023
 6414TIP3    H140801   4.129   6.351   8.399 -1.5503  0.8969  1.5072
 6414TIP3    H240802   4.151   6.202   8.387 -1.2142  1.0985 -0.6988
 6415TIP3   OH240803   1.848   0.830   1.524  0.0437 -0.3391 -0.1745
 6415TIP3    H140804   1.942   0.817   1.516 -0.0892 -1.2033 -0.4414
 6415TIP3    H240805   1.809   0.754   1.480 -0.8191  1.4501 -2.7146
 6416TIP3   OH240806   6.421   5.735   8.230 -0.4829  0.0799 -0.3515
 6416TIP3    H140807   6.476   5.727   8.152 -0.9924 -0.9258 -0.6251
 6416TIP3    H240808   6.482   5.727   8.303 -0.0447  0.7115 -0.6295
 6417TIP3   OH240809   1.398   0.588   8.057  0.0612 -0.0059  0.4140
 6417TIP3    H140810   1.348   0.519   8.014  0.4446  0.7560 -1.3527
 6417TIP3    H240811   1.405   0.657   7.991 -0.2000  1.6939  2.0574
 6418TIP3   OH240812   4.627   4.338   1.015  0.0797  0.2845 -0.3500
 6418TIP3    H140813   4.693   4.407   1.027 -2.1017  2.1234  1.9864
 6418TIP3    H240814   4.635   4.284   1.093 -2.2138  1.5736  0.8812
 6419TIP3   OH240815   1.487   4.278   0.854 -0.0548  0.1734  0.3581
 6419TIP3    H140816   1.470   4.316   0.940 -2.2620  0.6832 -0.2455
 6419TIP3    H240817   1.414   4.308   0.800  0.4695 -1.4006 -1.2995
 6420TIP3   OH240818   2.322   5.788   6.646  0.1840 -0.3523 -0.2859
 6420TIP3    H140819   2.374   5.744   6.714 -0.6923 -0.1415  0.5405
 6420TIP3    H240820   2.253   5.724   6.624 -0.6459  0.2895  0.3798
 6421TIP3   OH240821   3.854   0.259   6.373  0.1018 -0.1597  0.0090
 6421TIP3    H140822   3.876   0.237   6.283  0.9747 -0.3954  0.2736
 6421TIP3    H240823   3.779   0.203   6.395  0.8835 -1.2506 -0.0561
 6422TIP3   OH240824   5.883   4.959   0.756  0.2757  0.3899  0.5234
 6422TIP3    H140825   5.849   4.915   0.834  1.2880 -2.4483 -0.5113
 6422TIP3    H240826   5.875   5.053   0.776 -0.8579 -0.2139  3.3953
 6423TIP3   OH240827   5.788   6.040   8.619  0.9328 -0.1802  0.1188
 6423TIP3    H140828   5.763   6.047   8.711  0.0701 -0.6172 -0.0762
 6423TIP3    H240829   5.721   5.985   8.579 -0.4307  2.3927 -1.4201
 6424TIP3   OH240830   5.968   5.441   0.197  0.0272  0.3868 -0.4056
 6424TIP3    H140831   5.888   5.422   0.148 -0.0921 -0.5059  0.1098
 6424TIP3    H240832   6.033   5.461   0.129 -0.4191  0.2948 -0.8707
 6425TIP3   OH240833   0.180   5.364   6.956  0.2465  0.2776  0.4051
 6425TIP3    H140834   0.265   5.406   6.938  0.8530 -0.5115  1.3265
 6425TIP3    H240835   0.195   5.314   7.036 -0.8123 -0.6967  0.0168
 6426TIP3   OH240836   0.566   1.922   8.642  0.0679 -0.1081  0.4500
 6426TIP3    H140837   0.610   1.959   8.566  0.6251 -1.6643 -0.0149
 6426TIP3    H240838   0.476   1.909   8.614  0.5049 -1.6633 -0.3449
 6427TIP3   OH240839   3.969   3.100   8.530 -0.4522 -0.4896 -0.2910
 6427TIP3    H140840   3.989   3.050   8.451  1.8696  1.4721 -1.0492
 6427TIP3    H240841   3.938   3.185   8.498  0.8146  0.4508  0.8499
 6428TIP3   OH240842   3.322   2.625   7.579 -0.1348  0.0419  0.0461
 6428TIP3    H140843   3.283   2.569   7.646 -0.8060  0.8224  0.3222
 6428TIP3    H240844   3.343   2.706   7.625  0.3672  0.2012 -0.4592
 6429TIP3   OH240845   6.528   6.412   1.738  0.1511 -0.1396 -0.1260
 6429TIP3    H140846   6.501   6.495   1.777 -3.1825 -1.5481  0.9723
 6429TIP3    H240847   6.479   6.407   1.656 -1.1126 -1.6509  0.6461
 6430TIP3   OH240848   5.408   2.678   0.805  0.2413  0.5245 -0.3425
 6430TIP3    H140849   5.347   2.720   0.866  1.8715  0.7041  1.2762
 6430TIP3    H240850   5.495   2.696   0.842  1.2052 -1.1349 -1.6269
 6431TIP3   OH240851   4.522   5.816   2.611 -0.1351 -0.2522  0.3252
 6431TIP3    H140852   4.585   5.761   2.657 -1.1452 -0.4929  1.4687
 6431TIP3    H240853   4.494   5.764   2.536  0.4641 -0.4386  0.2278
 6432TIP3   OH240854   5.748   5.874   7.714  0.4675  0.5155  0.6590
 6432TIP3    H140855   5.702   5.928   7.650 -2.1628 -2.0848  0.1397
 6432TIP3    H240856   5.742   5.923   7.796 -1.4580  1.2423  0.1319
 6433TIP3   OH240857   2.471   2.697   1.779  0.3993  0.4152 -0.2769
 6433TIP3    H140858   2.476   2.675   1.686  0.4068  1.5031 -0.5437
 6433TIP3    H240859   2.504   2.787   1.785  1.6985 -0.1081  0.9649
 6434TIP3   OH240860   0.609   4.115   8.543 -0.5204  0.1246  0.3270
 6434TIP3    H140861   0.584   4.064   8.465  0.0498  1.1168 -0.5307
 6434TIP3    H240862   0.526   4.137   8.585 -0.8949  0.3557 -0.5070
 6435TIP3   OH240863   1.396   0.093   0.651 -0.2478 -0.5761 -0.2463
 6435TIP3    H140864   1.382   0.157   0.581  1.0261 -1.0193 -0.9362
 6435TIP3    H240865   1.355   0.013   0.619 -1.4897 -0.2444  0.4441
 6436TIP3   OH240866   3.017   3.786   0.906 -0.6548  0.1277 -0.1584
 6436TIP3    H140867   2.964   3.865   0.900 -0.1643  0.3679 -1.6493
 6436TIP3    H240868   3.070   3.798   0.985 -2.2796  0.1826  0.9771
 6437TIP3   OH240869   4.748   5.712   1.044 -0.3464 -0.7615 -0.4652
 6437TIP3    H140870   4.820   5.703   0.981 -0.1102 -0.9246 -0.1741
 6437TIP3    H240871   4.757   5.801   1.078 -0.3792 -0.7267 -0.5477
 6438TIP3   OH240872   3.834   4.704   2.647 -0.2597  0.4244  0.4015
 6438TIP3    H140873   3.789   4.619   2.649 -0.1832  0.3018 -1.4953
 6438TIP3    H240874   3.927   4.682   2.655 -0.0742  0.1053 -1.8530
 6439TIP3   OH240875   3.754   3.921   1.421  0.5791 -0.2077 -0.7579
 6439TIP3    H140876   3.707   3.848   1.461 -0.1543  0.1268 -0.9936
 6439TIP3    H240877   3.686   3.987   1.404  1.1755  0.3943 -0.8554
 6440TIP3   OH240878   5.541   2.014   8.122  0.0665  0.1419 -0.5640
 6440TIP3    H140879   5.477   2.085   8.127 -0.0048  0.0843 -0.6789
 6440TIP3    H240880   5.510   1.949   8.185 -0.9254 -0.6616 -1.8466
 6441TIP3   OH240881   0.524   4.480   7.776 -0.4689 -0.6689  0.1250
 6441TIP3    H140882   0.528   4.480   7.680  0.7985  0.6259  0.1487
 6441TIP3    H240883   0.431   4.490   7.796 -0.5845  0.8602 -1.0041
 6442TIP3   OH240884   6.758   3.974   7.650 -0.3313  0.6747 -0.1976
 6442TIP3    H140885   6.689   3.978   7.716  0.6320  0.3196  0.8715
 6442TIP3    H240886   6.722   4.019   7.574 -2.2821 -0.7252 -0.1796
 6443TIP3   OH240887   5.177   0.044   0.593  0.5627  0.2464 -0.1089
 6443TIP3    H140888   5.096   0.011   0.553  0.7065  1.8141 -1.8705
 6443TIP3    H240889   5.149   0.083   0.675 -0.2546 -0.3566 -0.0819
 6444TIP3   OH240890   0.792   5.205   7.366 -0.1936 -0.3022  0.1088
 6444TIP3    H140891   0.757   5.292   7.348 -1.5010 -0.3083  2.2091
 6444TIP3    H240892   0.790   5.160   7.282 -3.6440  0.3245 -0.3018
 6445TIP3   OH240893   6.105   3.189   8.318  0.0763  0.2778  0.3093
 6445TIP3    H140894   6.077   3.193   8.226  1.2603 -0.7527 -0.1334
 6445TIP3    H240895   6.158   3.109   8.323  0.0389  0.3271  1.8966
 6446TIP3   OH240896   5.927   0.959   6.940  0.4860 -0.3154 -0.6096
 6446TIP3    H140897   5.921   0.989   6.850  1.2624  1.0742 -0.2291
 6446TIP3    H240898   5.997   1.012   6.979 -0.2440 -0.4342  0.9615
 6447TIP3   OH240899   1.129   6.206   6.913 -0.6755 -0.4635  0.2060
 6447TIP3    H140900   1.075   6.138   6.871  1.0838 -0.6712 -1.8835
 6447TIP3    H240901   1.209   6.161   6.939 -1.0492  0.0375  2.4421
 6448TIP3   OH240902   4.145   4.801   7.141 -0.4081  0.4243 -0.0057
 6448TIP3    H140903   4.100   4.833   7.063 -3.0729  0.9444  1.6196
 6448TIP3    H240904   4.138   4.705   7.136  1.5664  0.2984 -1.5047
 6449TIP3   OH240905   5.629   2.275   8.221 -0.2051  0.2155  0.0258
 6449TIP3    H140906   5.579   2.317   8.291  0.4392  1.9765 -0.5343
 6449TIP3    H240907   5.630   2.182   8.246  0.8637  0.8812  2.9027
 6450TIP3   OH240908   4.740   2.085   7.153  0.2829 -0.5343 -0.0001
 6450TIP3    H140909   4.709   2.000   7.121  0.8896 -0.7021 -0.1753
 6450TIP3    H240910   4.834   2.084   7.134  0.1600  0.5077 -0.7608
 6451TIP3   OH240911   5.529   2.662   8.116 -0.6603 -0.5393 -0.3635
 6451TIP3    H140912   5.476   2.605   8.172  0.3219 -1.4658 -0.3239
 6451TIP3    H240913   5.560   2.731   8.175 -0.6173 -0.8266 -0.0444
 6452TIP3   OH240914   3.292   5.502   8.662  0.0152 -0.3951  0.2408
 6452TIP3    H140915   3.302   5.555   8.741  1.7069 -1.8036  1.0265
 6452TIP3    H240916   3.369   5.522   8.610 -0.6233 -0.1933 -0.6573
 6453TIP3   OH240917   4.437   5.062   0.176 -0.4668 -0.2771 -0.3549
 6453TIP3    H140918   4.528   5.088   0.191  0.0997 -2.5013  0.3032
 6453TIP3    H240919   4.386   5.121   0.232  0.5077  1.0833 -0.8278
 6454TIP3   OH240920   5.537   5.964   8.494  0.0351  0.1775 -0.0078
 6454TIP3    H140921   5.508   5.902   8.428 -1.0446  1.8179 -1.1548
 6454TIP3    H240922   5.482   5.947   8.570  1.5920 -2.0330  0.7453
 6455TIP3   OH240923   1.929   6.205   7.318 -0.3797  0.3159  0.0962
 6455TIP3    H140924   2.024   6.192   7.328 -0.2325  1.4240  0.2405
 6455TIP3    H240925   1.907   6.162   7.236  0.3571  0.5282 -0.2207
 6456TIP3   OH240926   4.569   3.643   7.028 -0.1318 -0.2614  0.1630
 6456TIP3    H140927   4.595   3.554   7.004  2.1083  0.3337  0.1755
 6456TIP3    H240928   4.642   3.676   7.081 -1.8168  0.9093  1.8715
 6457TIP3   OH240929   0.210   3.413   7.595  0.3205 -0.8714  0.3056
 6457TIP3    H140930   0.301   3.385   7.583  0.2623 -1.2525  0.7162
 6457TIP3    H240931   0.170   3.401   7.509  0.7224 -0.4585  0.0596
 6458TIP3   OH240932   2.333   4.632   1.228  0.6224 -0.8110  0.3073
 6458TIP3    H140933   2.294   4.603   1.145  1.1175  1.9913 -1.0469
 6458TIP3    H240934   2.320   4.727   1.228  1.2179 -0.6511  3.1902
 6459TIP3   OH240935   5.103   4.757   7.877  0.0860 -0.0676  0.6143
 6459TIP3    H140936   5.051   4.813   7.934  1.4700  0.9757  0.9198
 6459TIP3    H240937   5.143   4.818   7.814  0.7987 -0.8294  0.3119
 6460TIP3   OH240938   0.647   1.410   7.101 -0.0012 -0.1219 -0.6112
 6460TIP3    H140939   0.701   1.435   7.026 -2.1006  2.3419 -1.4483
 6460TIP3    H240940   0.593   1.487   7.118 -1.3845 -1.5205  1.8488
 6461TIP3   OH240941   2.272   4.266   7.217  0.9196  0.1500  0.0370
 6461TIP3    H140942   2.185   4.251   7.181  0.8873  0.9126 -0.2209
 6461TIP3    H240943   2.332   4.238   7.147  0.8909 -0.3936  0.2227
 6462TIP3   OH240944   1.437   4.195   1.551  0.1226 -0.4914  0.0032
 6462TIP3    H140945   1.524   4.233   1.565  0.1652 -0.9079  0.9347
 6462TIP3    H240946   1.449   4.133   1.480  0.6757 -0.8176  0.3729
 6463TIP3   OH240947   5.545   5.440   0.624  0.3917  0.0829  0.2791
 6463TIP3    H140948   5.639   5.460   0.628  0.1672  1.2602  0.1356
 6463TIP3    H240949   5.513   5.491   0.549 -0.4677  0.1550  0.6813
 6464TIP3   OH240950   2.087   5.551   0.973  0.2771 -0.1043 -0.7867
 6464TIP3    H140951   2.093   5.496   1.052 -0.5000  0.7032 -0.1387
 6464TIP3    H240952   2.149   5.622   0.989 -0.2959  0.3750 -0.6147
 6465TIP3   OH240953   4.222   4.162   0.771 -0.6030 -0.0907 -0.3211
 6465TIP3    H140954   4.208   4.207   0.687 -0.1410 -3.1050 -2.1341
 6465TIP3    H240955   4.315   4.174   0.789 -1.0481  2.2348  0.9187
 6466TIP3   OH240956   0.912   2.406   7.929 -0.0033 -0.5432 -0.5043
 6466TIP3    H140957   0.955   2.459   7.997  0.7087 -0.4597 -1.0089
 6466TIP3    H240958   0.844   2.464   7.894 -0.3753 -0.5854  0.1281
 6467TIP3   OH240959   6.120   4.328   8.601  0.2025  0.6331 -0.3351
 6467TIP3    H140960   6.031   4.325   8.638  0.2282 -0.2998 -0.3413
 6467TIP3    H240961   6.119   4.406   8.544 -1.2514 -0.4758 -1.9259
 6468TIP3   OH240962   1.310   6.054   7.877  0.1758 -0.5272  0.4356
 6468TIP3    H140963   1.372   5.982   7.889 -0.0695 -0.9514 -0.7057
 6468TIP3    H240964   1.328   6.114   7.949  2.4051 -0.2989 -0.2273
 6469TIP3   OH240965   1.271   3.584   8.161 -0.1325  0.3345 -0.7063
 6469TIP3    H140966   1.268   3.489   8.153 -3.0184  0.4174 -1.7819
 6469TIP3    H240967   1.235   3.617   8.079 -1.1712  2.2602  0.4166
 6470TIP3   OH240968   1.245   3.654   2.684  0.5398 -0.1318  0.0709
 6470TIP3    H140969   1.156   3.689   2.686  0.3279 -0.6909  1.0123
 6470TIP3    H240970   1.235   3.565   2.649  0.5443 -0.6402  1.2983
 6471TIP3   OH240971   5.290   6.526   7.754  0.3864 -0.3644  0.3083
 6471TIP3    H140972   5.342   6.599   7.788 -1.1844  1.0395 -0.1817
 6471TIP3    H240973   5.229   6.505   7.824 -1.2568  0.9419 -0.6510
 6472TIP3   OH240974   6.329   5.871   7.352 -0.3689  0.9425 -0.0934
 6472TIP3    H140975   6.355   5.893   7.441 -1.1024 -1.1532  0.7072
 6472TIP3    H240976   6.383   5.795   7.329 -1.0203  0.7307 -0.9714
 6473TIP3   OH240977   4.659   4.799   1.682 -0.3618  0.5407  0.3112
 6473TIP3    H140978   4.596   4.790   1.754 -1.5360  1.4168 -0.5760
 6473TIP3    H240979   4.745   4.784   1.724 -1.1509 -1.2332  1.4393
 6474TIP3   OH240980   5.962   5.319   6.537 -0.0998  0.3055  0.3466
 6474TIP3    H140981   5.988   5.381   6.605 -1.1765 -0.9787  2.0311
 6474TIP3    H240982   5.955   5.235   6.583 -0.0974 -0.7917 -1.5435
 6475TIP3   OH240983   4.968   4.211   0.361  0.5509 -0.4673 -0.5338
 6475TIP3    H140984   4.878   4.235   0.337 -0.1425 -2.3298  0.0256
 6475TIP3    H240985   4.980   4.248   0.448  0.2529 -0.4122 -0.5149
 6476TIP3   OH240986   6.025   0.414   6.133 -0.5332 -0.0696 -0.1760
 6476TIP3    H140987   6.032   0.504   6.099  0.1322 -0.1005 -0.1340
 6476TIP3    H240988   6.037   0.424   6.227  1.5171 -0.4029 -0.3623
 6477TIP3   OH240989   3.894   4.372   2.306 -0.0426 -0.2103 -0.2104
 6477TIP3    H140990   3.807   4.340   2.282 -0.6369 -0.5101  2.0872
 6477TIP3    H240991   3.955   4.316   2.257 -1.1217 -2.8984  1.2820
 6478TIP3   OH240992   4.271   6.313   8.691  0.4113 -0.5539  0.1885
 6478TIP3    H140993   4.352   6.264   8.677  0.9647  0.5861 -0.7566
 6478TIP3    H240994   4.218   6.293   8.615  0.2538 -0.4275  0.2647
 6479TIP3   OH240995   2.898   0.387   8.644 -0.4620  0.7407 -0.7197
 6479TIP3    H140996   2.830   0.378   8.712 -1.6779 -0.2496 -1.9957
 6479TIP3    H240997   2.980   0.373   8.690 -1.1694  1.1831  0.7435
 6480TIP3   OH240998   4.232   3.114   7.128  0.2243 -0.3640 -0.6637
 6480TIP3    H140999   4.293   3.187   7.115  0.1267 -0.2507 -0.4834
 6480TIP3    H241000   4.259   3.075   7.211 -0.5822  0.3060 -0.0694
 6481TIP3   OH241001   3.347   5.568   7.951  0.3302 -0.0477 -0.4308
 6481TIP3    H141002   3.392   5.531   8.027  1.3830 -1.6588 -1.7730
 6481TIP3    H241003   3.310   5.492   7.906  0.3117  0.7925 -1.8923
 6482TIP3   OH241004   1.142   0.716   0.010  0.2998 -0.1591  0.5268
 6482TIP3    H141005   1.211   0.768   0.052  1.9156 -1.2913 -0.5605
 6482TIP3    H241006   1.106   0.662   0.080  0.2278  0.7516  1.2003
 6483TIP3   OH241007   5.871   1.579   0.455  0.1463  0.0601 -0.2785
 6483TIP3    H141008   5.787   1.534   0.468 -0.3021  0.5149 -1.4602
 6483TIP3    H241009   5.848   1.672   0.448  1.1476  0.7079  3.0469
 6484TIP3   OH241010   0.026   5.750   8.348 -0.0472 -0.3298  0.4345
 6484TIP3    H141011   0.037   5.831   8.398 -2.0284  0.5318 -0.4112
 6484TIP3    H241012  -0.010   5.688   8.411  0.0712 -0.0965  0.7352
 6485TIP3   OH241013   1.351   0.213   0.183  0.2620  0.6814 -0.4483
 6485TIP3    H141014   1.286   0.194   0.251 -0.2601  0.3685 -1.0139
 6485TIP3    H241015   1.430   0.237   0.230  0.4483 -1.2601  0.3208
 6486TIP3   OH241016   4.316   5.811   1.368 -0.1961  1.1184  0.0576
 6486TIP3    H141017   4.278   5.820   1.280  1.4963  0.4163 -0.8022
 6486TIP3    H241018   4.374   5.735   1.361  2.0853  2.6639  0.9595
 6487TIP3   OH241019   5.730   0.085   2.604  0.1491  1.3936 -0.4284
 6487TIP3    H141020   5.762   0.175   2.618  2.3562  0.5363  0.4888
 6487TIP3    H241021   5.783   0.032   2.663 -0.1853 -0.6986 -1.9161
 6488TIP3   OH241022   1.622   2.331   1.892  0.4672 -0.0944 -0.5752
 6488TIP3    H141023   1.535   2.350   1.925  0.0887 -2.8897  0.2535
 6488TIP3    H241024   1.612   2.328   1.797 -1.1579 -3.3877 -0.4321
 6489TIP3   OH241025   4.377   3.058   8.574  0.1469 -0.2498 -0.5614
 6489TIP3    H141026   4.462   3.067   8.617 -0.5071  0.4391  0.6442
 6489TIP3    H241027   4.398   3.041   8.483  1.6147 -2.5732  0.1173
 6490TIP3   OH241028   0.142   2.447   0.383 -0.5638 -0.2328 -0.0929
 6490TIP3    H141029   0.171   2.383   0.448 -1.0737 -0.4039 -0.0291
 6490TIP3    H241030   0.122   2.525   0.434  1.2167  0.4074 -0.2940
 6491TIP3   OH241031   0.181   6.553   8.096  0.3428 -0.0503  0.3999
 6491TIP3    H141032   0.173   6.457   8.096 -0.7795  0.0253  0.8594
 6491TIP3    H241033   0.230   6.573   8.016 -0.2842 -0.9408 -0.2284
 6492TIP3   OH241034   2.231   1.266   8.669  0.3609 -0.4207 -0.5165
 6492TIP3    H141035   2.180   1.298   8.595  0.6381 -1.1969 -1.0545
 6492TIP3    H241036   2.281   1.193   8.634 -0.3904 -1.5709  0.6963
 6493TIP3   OH241037   0.767   2.463   1.421  0.2780 -0.2176 -0.6295
 6493TIP3    H141038   0.848   2.495   1.381  0.6754 -0.4781 -0.0527
 6493TIP3    H241039   0.703   2.466   1.351  0.6548  0.5029 -0.9534
 6494TIP3   OH241040   4.462   1.989   8.215  0.3021  0.5660 -1.1890
 6494TIP3    H141041   4.554   1.994   8.192  0.3025 -0.5723 -1.5048
 6494TIP3    H241042   4.437   1.898   8.196 -0.5737  0.5103  0.0364
 6495TIP3   OH241043   2.537   6.521   0.592  0.5099  0.5214 -0.1597
 6495TIP3    H141044   2.474   6.593   0.603  1.4699  1.9727 -3.1258
 6495TIP3    H241045   2.622   6.564   0.590  1.1506 -0.7349 -1.6557
 6496TIP3   OH241046   5.261   6.197   7.962 -0.5545 -0.4387 -0.1659
 6496TIP3    H141047   5.291   6.134   7.897 -0.8710  1.5146 -2.3266
 6496TIP3    H241048   5.321   6.272   7.953 -2.1211  0.8938 -0.0168
 6497TIP3   OH241049   6.693   6.417   7.079  0.3046  0.0915  0.1394
 6497TIP3    H141050   6.736   6.372   7.006 -0.8101 -0.4645 -0.2034
 6497TIP3    H241051   6.748   6.493   7.096  0.5785  0.2512 -1.3018
 6498TIP3   OH241052   5.991   3.909   1.628 -0.1182  0.7963  0.2680
 6498TIP3    H141053   6.007   3.949   1.714 -0.6027 -0.3309  0.9145
 6498TIP3    H241054   6.030   3.822   1.635  0.7642  1.0673 -1.0357
 6499TIP3   OH241055   2.516   4.702   8.656 -0.0484  0.4095 -0.3829
 6499TIP3    H141056   2.535   4.671   8.567  2.1400  0.8837 -0.1270
 6499TIP3    H241057   2.525   4.624   8.710 -0.5562  0.2970 -0.4487
 6500TIP3   OH241058   4.320   6.588   8.650  0.2752  0.4368  0.1407
 6500TIP3    H141059   4.414   6.571   8.637  0.4399  0.6343  0.9952
 6500TIP3    H241060   4.281   6.501   8.655  0.5047  0.3470  0.3968
 6501TIP3   OH241061   5.089   1.227   7.952 -0.1088 -1.2215 -0.0649
 6501TIP3    H141062   5.041   1.161   8.002 -0.5972 -2.6432 -2.2487
 6501TIP3    H241063   5.181   1.206   7.966 -0.2606 -2.3270 -0.6092
 6502TIP3   OH241064   6.302   5.625   1.166  0.1023 -0.4699 -0.0776
 6502TIP3    H141065   6.343   5.571   1.234 -0.0452  0.9697  1.2177
 6502TIP3    H241066   6.293   5.567   1.091  1.6979 -1.6930  0.6205
 6503TIP3   OH241067   0.209   4.572   7.965 -0.7041  0.2686  0.0105
 6503TIP3    H141068   0.194   4.522   7.884 -0.6478 -2.2707  1.4690
 6503TIP3    H241069   0.175   4.515   8.034 -1.6172  2.7615  1.7475
 6504TIP3   OH241070   2.021   0.934   7.762  0.2073  0.0154 -0.6529
 6504TIP3    H141071   1.954   0.917   7.696  1.1748 -2.5860 -1.0781
 6504TIP3    H241072   2.101   0.948   7.711  0.2659  1.9634 -0.1116
 6505TIP3   OH241073   2.342   3.456   6.675 -0.3341  1.1291  0.1487
 6505TIP3    H141074   2.426   3.440   6.632 -0.5221  0.4519  0.0230
 6505TIP3    H241075   2.279   3.404   6.626 -0.3713 -0.6044  1.9195
 6506TIP3   OH241076   3.748   1.598   0.177 -0.1044  0.3871 -0.2588
 6506TIP3    H141077   3.755   1.679   0.127  2.5721  0.1996 -0.3343
 6506TIP3    H241078   3.837   1.564   0.180 -0.5139 -0.7510  2.7885
 6507TIP3   OH241079   5.801   5.621   2.122 -0.0192  0.7715  0.4267
 6507TIP3    H141080   5.721   5.646   2.169 -0.4239  1.0888 -0.4011
 6507TIP3    H241081   5.802   5.678   2.045  0.9399  0.6714  0.3581
 6508TIP3   OH241082   5.988   0.700   7.608  0.5414  0.3411  0.4594
 6508TIP3    H141083   6.003   0.607   7.623 -0.4067 -0.4639 -2.7055
 6508TIP3    H241084   5.893   0.709   7.607  0.5558  0.7824 -1.6300
 6509TIP3   OH241085   4.988   3.208   1.465  0.8704 -0.0929  0.0409
 6509TIP3    H141086   4.896   3.226   1.480  1.0199  1.4274 -0.6767
 6509TIP3    H241087   5.010   3.139   1.528 -0.7315 -0.4445  0.2387
 6510TIP3   OH241088   2.291   2.474   8.239  0.1021  0.2843 -0.2924
 6510TIP3    H141089   2.304   2.539   8.308 -0.7933  0.8958 -0.6699
 6510TIP3    H241090   2.245   2.402   8.282 -1.1833  1.0047 -0.3810
 6511TIP3   OH241091   0.776   5.306   1.261  0.7143 -0.3959  0.2752
 6511TIP3    H141092   0.771   5.374   1.328  1.0683  0.0369 -0.1255
 6511TIP3    H241093   0.845   5.336   1.202 -0.5945 -0.0250 -1.1188
 6512TIP3   OH241094   0.968   0.098   1.392 -0.7556 -0.0439  0.2430
 6512TIP3    H141095   0.969   0.028   1.458 -0.2416  0.6042  0.9309
 6512TIP3    H241096   1.011   0.172   1.434 -0.7315  0.4975 -0.7038
 6513TIP3   OH241097   6.255   4.338   7.396  0.1873 -0.3155 -0.4914
 6513TIP3    H141098   6.225   4.283   7.323 -0.6183 -0.2300 -0.2335
 6513TIP3    H241099   6.273   4.277   7.467  1.3698 -0.4414 -0.8699
 6514TIP3   OH241100   0.146   2.515   7.791 -0.5860  0.0469 -0.2397
 6514TIP3    H141101   0.165   2.575   7.719  0.8129  0.0123  0.0718
 6514TIP3    H241102   0.051   2.507   7.791 -0.7688  1.8238 -0.6387
 6515TIP3   OH241103   4.417   5.391   1.958  0.8902 -0.1074  0.4498
 6515TIP3    H141104   4.481   5.444   2.007  1.0324 -0.7282  0.9460
 6515TIP3    H241105   4.332   5.425   1.986  0.9197  2.4496 -2.0636
 6516TIP3   OH241106   6.398   2.978   6.625  0.1942  0.2680  0.4275
 6516TIP3    H141107   6.373   3.038   6.555 -0.2778  0.8172  1.0483
 6516TIP3    H241108   6.474   2.932   6.591 -0.7622 -0.3680 -0.9352
 6517TIP3   OH241109   6.751   1.773   7.892  0.5583  0.0295 -0.2692
 6517TIP3    H141110   6.774   1.787   7.984 -0.1011  0.6060 -0.1843
 6517TIP3    H241111   6.824   1.811   7.843  0.4132  0.6674  0.0058
 6518TIP3   OH241112   4.755   6.378   7.794 -0.4404  1.1706  0.5465
 6518TIP3    H141113   4.699   6.423   7.857  0.8140  0.0519  2.5469
 6518TIP3    H241114   4.785   6.300   7.840  2.0721  1.2765 -0.7589
 6519TIP3   OH241115   3.079   0.100   1.361  0.2032 -0.0314 -0.4362
 6519TIP3    H141116   3.120   0.027   1.407  0.2744 -0.2150 -0.7847
 6519TIP3    H241117   3.000   0.061   1.322 -0.0551  0.2087 -0.1616
 6520TIP3   OH241118   4.492   2.601   0.552  0.5164  0.1421 -0.3958
 6520TIP3    H141119   4.454   2.676   0.597  0.7400  0.0546 -0.0609
 6520TIP3    H241120   4.530   2.637   0.472  0.9102  0.4345 -0.0762
 6521TIP3   OH241121   2.358   5.524   1.345 -0.0279 -0.4438  0.3803
 6521TIP3    H141122   2.286   5.469   1.317  0.9152 -0.8507 -1.3913
 6521TIP3    H241123   2.428   5.462   1.368  0.7568 -0.0376 -0.8329
 6522TIP3   OH241124   3.795   2.307   7.678  0.0302 -0.8106 -0.2973
 6522TIP3    H141125   3.823   2.218   7.699  1.1436 -0.1350  1.2980
 6522TIP3    H241126   3.867   2.344   7.627  1.3969  0.3529  2.2925
 6523TIP3   OH241127   6.581   1.736   0.251  0.2698  0.8798  0.6276
 6523TIP3    H141128   6.550   1.646   0.257  1.3067  0.4527 -0.0271
 6523TIP3    H241129   6.675   1.730   0.269  0.2767  1.8940  0.9864
 6524TIP3   OH241130   3.780   3.311   8.422  0.5405  0.2244  0.0216
 6524TIP3    H141131   3.720   3.239   8.442  2.3979 -1.0422  1.4494
 6524TIP3    H241132   3.769   3.326   8.328 -2.9454  1.0281  0.4014
 6525TIP3   OH241133   2.751   4.353   1.506 -0.4913 -0.0443  0.2589
 6525TIP3    H141134   2.683   4.287   1.494 -0.1784 -0.2974 -0.1654
 6525TIP3    H241135   2.724   4.403   1.583 -0.4330 -1.0481  0.9420
 6526TIP3   OH241136   1.176   4.803   1.430  0.3151 -0.5825  0.4808
 6526TIP3    H141137   1.099   4.754   1.400 -0.5163  0.7135  0.4099
 6526TIP3    H241138   1.171   4.886   1.383  2.2441 -0.7931 -0.1555
 6527TIP3   OH241139   1.989   1.409   7.194 -0.4624 -0.3628 -0.2943
 6527TIP3    H141140   1.936   1.437   7.120 -0.5149 -0.3703 -0.2597
 6527TIP3    H241141   2.068   1.372   7.155 -0.8709 -1.1679 -0.3770
 6528TIP3   OH241142   4.247   1.506   8.157  0.0640 -0.2787 -0.5126
 6528TIP3    H141143   4.204   1.556   8.226 -0.8260 -1.0468 -0.4818
 6528TIP3    H241144   4.330   1.551   8.142 -0.1417  0.4308  0.4098
 6529TIP3   OH241145   0.928   3.055   7.898 -0.2152 -0.1934 -0.0393
 6529TIP3    H141146   0.945   3.019   7.811 -0.5101  2.3981 -1.2763
 6529TIP3    H241147   0.870   2.992   7.939  1.3643 -2.4046 -0.9638
 6530TIP3   OH241148   1.642   6.763   0.699  0.0021  0.5576 -0.2169
 6530TIP3    H141149   1.682   6.693   0.751  3.1195  2.1445 -0.2506
 6530TIP3    H241150   1.629   6.724   0.612 -0.9842 -0.7472  0.4698
 6531TIP3   OH241151   2.842   0.461   7.841 -1.0847  0.2312  0.1767
 6531TIP3    H141152   2.864   0.447   7.933 -0.0129  1.1091  0.0850
 6531TIP3    H241153   2.877   0.548   7.821 -2.0840  0.4241 -0.8294
 6532TIP3   OH241154   2.008   0.963   8.083 -0.4694  1.1693  0.1651
 6532TIP3    H141155   1.916   0.964   8.056 -1.0131  1.9260  1.8617
 6532TIP3    H241156   2.047   0.891   8.033 -1.9802  0.8188 -0.5851
 6533TIP3   OH241157   3.498   0.902   1.511  0.0807 -0.0738  0.0858
 6533TIP3    H141158   3.570   0.919   1.573  0.1583 -0.0441 -0.0121
 6533TIP3    H241159   3.460   0.988   1.495  0.2808 -0.0344 -0.1761
 6534TIP3   OH241160   4.679   2.744   0.290  0.0893 -0.0724  0.9328
 6534TIP3    H141161   4.764   2.775   0.323 -0.0169  1.3204  0.0011
 6534TIP3    H241162   4.626   2.824   0.285  0.0490 -0.1642 -2.3910
 6535TIP3   OH241163   1.530   6.724   1.706 -0.2218  0.3520 -0.2876
 6535TIP3    H141164   1.617   6.697   1.734  0.2138  2.0676  0.1097
 6535TIP3    H241165   1.482   6.739   1.787 -0.1463  1.6690 -0.4749
 6536TIP3   OH241166   0.581   0.830   0.872 -0.3035 -0.1593 -0.2415
 6536TIP3    H141167   0.591   0.916   0.912  0.3877 -0.1110 -0.5040
 6536TIP3    H241168   0.524   0.844   0.796  1.4249  0.4752 -1.4909
 6537TIP3   OH241169   6.141   1.754   2.294  0.0400  0.1319 -0.5740
 6537TIP3    H141170   6.063   1.705   2.270  0.3092 -1.1480  1.0076
 6537TIP3    H241171   6.109   1.823   2.353  0.1653 -0.9913  0.8655
 6538TIP3   OH241172   1.897   5.569   0.115  0.0511 -0.0252  0.5379
 6538TIP3    H141173   1.918   5.477   0.104 -0.4169 -0.5290  3.1986
 6538TIP3    H241174   1.971   5.615   0.075  2.4753 -1.6429  2.8202
 6539TIP3   OH241175   2.539   1.966   1.058 -0.4302  0.5092  0.1007
 6539TIP3    H141176   2.607   1.969   1.124 -0.3091  2.2115 -0.0475
 6539TIP3    H241177   2.523   1.873   1.042 -0.6165  0.0527  2.6552
 6540TIP3   OH241178   4.061   6.378   0.246  0.0119 -0.1701  0.5213
 6540TIP3    H141179   4.044   6.471   0.232  0.0796 -0.1271  0.7287
 6540TIP3    H241180   4.119   6.353   0.174 -0.5395 -0.2093  0.0714
 6541TIP3   OH241181   3.420   0.266   0.094  0.1592  0.4287 -0.2142
 6541TIP3    H141182   3.458   0.181   0.070  0.2507 -0.3035  2.2069
 6541TIP3    H241183   3.415   0.314   0.012  2.2613 -1.0622 -1.3216
 6542TIP3   OH241184   3.718   1.757   7.320  0.4565 -0.2750  0.3423
 6542TIP3    H141185   3.655   1.787   7.255  1.6182  0.1101 -0.6432
 6542TIP3    H241186   3.783   1.708   7.270  1.5709  0.3350  1.1580
 6543TIP3   OH241187   5.151   2.535   0.827  0.3688  0.2868 -0.0593
 6543TIP3    H141188   5.137   2.579   0.911  0.3878 -0.0514  0.1221
 6543TIP3    H241189   5.238   2.564   0.799  0.8383 -0.4625  0.5760
 6544TIP3   OH241190   0.858   2.899   0.725  0.3623 -0.3046  0.4435
 6544TIP3    H141191   0.767   2.925   0.713  0.6151  0.7976  0.7856
 6544TIP3    H241192   0.860   2.805   0.706 -0.2237  0.2550 -2.8535
 6545TIP3   OH241193   2.348   4.986   7.084 -0.4597  0.0230 -0.0103
 6545TIP3    H141194   2.268   5.010   7.130 -0.4103 -2.2929  1.4826
 6545TIP3    H241195   2.329   4.900   7.046  1.3016 -0.6512  0.4900
 6546TIP3   OH241196   6.446   4.235   1.835  0.0871 -0.3738  0.6437
 6546TIP3    H141197   6.423   4.182   1.911 -0.3810  1.0413  1.5513
 6546TIP3    H241198   6.483   4.174   1.772  1.8398 -1.3991  2.5481
 6547TIP3   OH241199   6.011   6.785   0.349 -0.1665 -0.5471 -0.1404
 6547TIP3    H141200   6.063   6.865   0.344  0.6196 -0.6087  3.6375
 6547TIP3    H241201   6.052   6.725   0.287  2.9892  0.1444  1.0897
 6548TIP3   OH241202   1.998   5.433   2.240  0.0383  0.5212  0.3681
 6548TIP3    H141203   1.927   5.496   2.226  1.9748  2.3591 -1.9814
 6548TIP3    H241204   2.052   5.472   2.309  1.0541  1.3369 -0.8522
 6549TIP3   OH241205   4.387   2.587   6.924  0.1262  0.1728  0.0163
 6549TIP3    H141206   4.414   2.578   6.832 -3.4706  0.9954 -1.2855
 6549TIP3    H241207   4.398   2.680   6.942 -2.9804  0.8885 -1.1137
 6550TIP3   OH241208   0.066   3.344   6.356  0.0069  0.1190  0.1524
 6550TIP3    H141209   0.127   3.418   6.367 -0.1320  0.3928 -0.8435
 6550TIP3    H241210   0.118   3.277   6.311  0.2986 -0.6330  1.5419
 6551TIP3   OH241211   0.628   3.872   0.940 -0.0997  0.1236 -0.1280
 6551TIP3    H141212   0.667   3.785   0.940  0.7544  0.5003  0.2374
 6551TIP3    H241213   0.577   3.876   1.020 -0.5742 -0.2246 -0.4072
 6552TIP3   OH241214   4.748   6.066   0.087 -0.1085 -0.4623  0.3968
 6552TIP3    H141215   4.667   6.015   0.083  0.4449 -1.3419 -2.7994
 6552TIP3    H241216   4.795   6.041   0.007  2.0469  2.1029  0.7412
 6553TIP3   OH241217   2.018   5.278   7.897 -0.5340 -0.1805 -0.2393
 6553TIP3    H141218   2.051   5.195   7.932 -0.3320 -0.1980 -0.4720
 6553TIP3    H241219   2.095   5.333   7.890 -0.6496 -0.0149 -0.2065
 6554TIP3   OH241220   4.143   4.521   0.134 -0.0542 -0.4741 -0.3387
 6554TIP3    H141221   4.199   4.516   0.212 -0.3070  0.1801 -0.1093
 6554TIP3    H241222   4.056   4.539   0.169 -0.3990 -1.3576 -0.7019
 6555TIP3   OH241223   1.571   5.392   6.715  0.7292 -0.2753 -0.0809
 6555TIP3    H141224   1.633   5.323   6.739  2.1638  0.5014 -1.3664
 6555TIP3    H241225   1.590   5.464   6.775  0.5438 -0.3070  0.0178
 6556TIP3   OH241226   0.240   0.196   1.797 -0.1878  0.0405 -0.2924
 6556TIP3    H141227   0.334   0.211   1.787 -0.0515 -1.3852 -1.5677
 6556TIP3    H241228   0.228   0.183   1.891  1.0349 -0.5615 -0.1944
 6557TIP3   OH241229   1.144   3.830   2.081 -0.3775  0.3496  0.1706
 6557TIP3    H141230   1.165   3.742   2.051 -1.0967  0.2373 -0.0349
 6557TIP3    H241231   1.056   3.821   2.120 -1.3248  1.3563 -1.6288
 6558TIP3   OH241232   3.643   1.416   0.727 -0.2121 -0.6309  0.0549
 6558TIP3    H141233   3.594   1.435   0.646  0.2324 -2.3260 -0.6526
 6558TIP3    H241234   3.699   1.342   0.704  1.5330  0.2316  1.3098
 6559TIP3   OH241235   4.826   3.319   1.242  0.0977 -0.3779  0.4716
 6559TIP3    H141236   4.888   3.386   1.214  1.1376 -1.6806 -0.4751
 6559TIP3    H241237   4.859   3.291   1.328  0.6732 -0.8586  0.1036
 6560TIP3   OH241238   4.152   5.252   2.182  0.2472 -0.5085  0.3603
 6560TIP3    H141239   4.172   5.172   2.134  0.5216 -0.1838 -0.0849
 6560TIP3    H241240   4.164   5.230   2.274  1.2894 -0.7154  0.1850
 6561TIP3   OH241241   1.981   1.910   2.014  0.4405  0.3965  0.4839
 6561TIP3    H141242   1.913   1.977   2.013  0.2116  0.1745  0.7647
 6561TIP3    H241243   1.987   1.884   2.106  0.4519 -0.0384  0.3662
 6562TIP3   OH241244   3.312   5.440   0.537 -0.1668  0.1128 -0.0838
 6562TIP3    H141245   3.223   5.426   0.570 -0.4150  1.4185 -0.1627
 6562TIP3    H241246   3.366   5.377   0.586 -0.9916 -0.0807  0.5979
 6563TIP3   OH241247   5.659   0.854   7.892  0.0957 -0.0435  0.3405
 6563TIP3    H141248   5.706   0.887   7.816  1.4516 -2.1160  0.1787
 6563TIP3    H241249   5.672   0.759   7.889 -3.1458 -0.6254  1.0010
 6564TIP3   OH241250   0.090   2.738   8.373 -0.3447  0.0917 -0.0350
 6564TIP3    H141251   0.038   2.772   8.447 -2.5349  0.2499 -1.5572
 6564TIP3    H241252   0.025   2.705   8.311  1.2373  2.0738 -2.9657
 6565TIP3   OH241253   5.887   6.295   8.524  0.3881  0.0856  0.9040
 6565TIP3    H141254   5.845   6.290   8.438  0.7483  0.9335  0.6640
 6565TIP3    H241255   5.862   6.214   8.569  1.3130 -1.0099 -0.4931
 6566TIP3   OH241256   2.625   0.705   8.083  0.0167 -0.0019 -0.0262
 6566TIP3    H141257   2.635   0.729   7.991  0.4233  1.1466  0.2957
 6566TIP3    H241258   2.612   0.610   8.082  0.1644 -0.0262 -1.2532
 6567TIP3   OH241259   5.016   1.690   7.906  0.8421  0.0479  0.0649
 6567TIP3    H141260   5.077   1.674   7.978  1.0332 -0.6867 -0.2482
 6567TIP3    H241261   5.033   1.619   7.844 -1.6593 -1.3738  0.8405
 6568TIP3   OH241262   6.747   4.404   7.854  0.0621  0.1899  0.2320
 6568TIP3    H141263   6.757   4.339   7.924 -0.0147 -1.0367 -0.8541
 6568TIP3    H241264   6.722   4.484   7.900 -1.4753 -0.9408  1.5054
 6569TIP3   OH241265   2.379   2.982   1.159 -0.0956 -0.1174 -0.3227
 6569TIP3    H141266   2.433   2.941   1.092 -0.2169  0.5215 -0.8228
 6569TIP3    H241267   2.403   3.074   1.157 -3.5495  0.9620 -3.0113
 6570TIP3   OH241268   5.270   4.427   0.850  0.1741  0.4112 -0.8595
 6570TIP3    H141269   5.305   4.515   0.833  4.1753 -1.0158 -1.1464
 6570TIP3    H241270   5.280   4.416   0.945 -0.6033  0.3763 -0.7818
 6571TIP3   OH241271   1.252   3.331   1.234  0.5691  0.4400  0.2915
 6571TIP3    H141272   1.336   3.358   1.198 -0.0180  2.6379  0.4270
 6571TIP3    H241273   1.198   3.410   1.232 -1.9247 -1.1545 -0.8899
 6572TIP3   OH241274   0.804   5.928   8.472  0.1650  0.0781 -0.2039
 6572TIP3    H141275   0.812   5.838   8.441 -0.3523 -0.4952  1.2368
 6572TIP3    H241276   0.819   5.923   8.566 -0.9230  1.3321  0.0724
 6573TIP3   OH241277   6.528   5.308   7.850  0.1315  0.9525  0.7780
 6573TIP3    H141278   6.530   5.338   7.941  2.4187  1.8860  0.4876
 6573TIP3    H241279   6.558   5.384   7.799 -0.5959  0.2793 -0.7165
 6574TIP3   OH241280   6.688   5.732   1.337  0.3493  0.3930 -0.0481
 6574TIP3    H141281   6.778   5.701   1.328  0.7871  2.0237 -2.2878
 6574TIP3    H241282   6.671   5.779   1.255 -1.4355  2.8606  1.5849
 6575TIP3   OH241283   1.176   2.267   8.630  0.0590 -0.1425 -0.8287
 6575TIP3    H141284   1.096   2.265   8.682 -0.1145 -0.4420 -1.1029
 6575TIP3    H241285   1.246   2.279   8.694 -0.1550 -0.4538 -0.5323
 6576TIP3   OH241286   5.607   5.727   0.103  0.3709  0.1679  0.0983
 6576TIP3    H141287   5.633   5.714   0.011  0.1392  1.7329 -0.2225
 6576TIP3    H241288   5.689   5.723   0.152  0.6074  0.2049 -0.2894
 6577TIP3   OH241289   1.410   6.100   0.662 -0.5384 -0.3056 -0.5687
 6577TIP3    H141290   1.376   6.176   0.615 -0.5884  1.1052  1.6327
 6577TIP3    H241291   1.496   6.127   0.694 -0.2875 -1.4068 -0.2470
 6578TIP3   OH241292   1.341   5.941   1.372  0.1533 -0.4064 -0.1143
 6578TIP3    H141293   1.269   5.964   1.313  1.3087  0.3674 -1.3083
 6578TIP3    H241294   1.300   5.927   1.457 -1.5129 -0.9599 -0.9651
 6579TIP3   OH241295   4.039   0.227   7.437 -0.0962  0.3158 -0.2040
 6579TIP3    H141296   4.118   0.233   7.384 -0.5079  0.9535 -0.7575
 6579TIP3    H241297   3.992   0.151   7.402 -0.0857  0.3841 -0.3653
 6580TIP3   OH241298   2.998   5.947   7.955  0.3147  0.2300 -0.0240
 6580TIP3    H141299   3.042   6.026   7.985  0.6363  0.0318  0.0318
 6580TIP3    H241300   3.041   5.925   7.873 -0.5762  0.7812 -0.6657
 6581TIP3   OH241301   5.214   4.682   0.332 -0.0900 -0.2209 -0.1073
 6581TIP3    H141302   5.305   4.695   0.306  0.1285 -0.8637  0.3061
 6581TIP3    H241303   5.169   4.761   0.302  0.4547 -0.2271 -0.9868
 6582TIP3   OH241304   4.630   5.755   0.037 -0.2687  0.2182 -0.0248
 6582TIP3    H141305   4.607   5.781   0.126  0.7979  0.7372  0.1070
 6582TIP3    H241306   4.558   5.697   0.010 -0.3948 -0.2820  1.3137
 6583TIP3   OH241307   1.885   2.657   1.153 -0.0205  0.1047  0.2696
 6583TIP3    H141308   1.898   2.632   1.062 -1.5682 -0.7748  0.2563
 6583TIP3    H241309   1.840   2.582   1.192  1.4500  0.0589  2.0141
 6584TIP3   OH241310   5.084   6.445   7.960  0.0413  0.1026  0.3164
 6584TIP3    H141311   5.122   6.357   7.961  4.0625  1.5922 -0.4930
 6584TIP3    H241312   5.060   6.461   8.051  2.5269 -0.6667  1.1854
 6585TIP3   OH241313   4.204   2.131   8.173 -0.0628  0.3952  0.0521
 6585TIP3    H141314   4.211   2.158   8.082  0.7347 -1.1127 -0.3740
 6585TIP3    H241315   4.294   2.117   8.201 -0.3815 -2.1075  0.0865
 6586TIP3   OH241316   4.967   2.620   7.353  0.1352 -0.2471  0.6997
 6586TIP3    H141317   4.989   2.584   7.266 -4.3167  2.7357 -2.0360
 6586TIP3    H241318   5.005   2.708   7.352 -3.2654  1.3423 -0.1437
 6587TIP3   OH241319   5.853   5.013   1.087 -0.1788 -0.7171 -0.4642
 6587TIP3    H141320   5.842   4.927   1.046  1.7343 -1.6296  0.7466
 6587TIP3    H241321   5.820   5.002   1.176 -1.7062  0.4203 -0.8416
 6588TIP3   OH241322   3.581   0.399   0.267 -0.3665  0.2614 -0.1863
 6588TIP3    H141323   3.557   0.489   0.245 -1.4525  0.5681  2.0016
 6588TIP3    H241324   3.522   0.344   0.215 -1.2559  0.8836  0.1422
 6589TIP3   OH241325   3.113   2.181   0.582  0.0198 -0.2064  0.2770
 6589TIP3    H141326   3.051   2.179   0.510 -0.0746  1.0208  0.3177
 6589TIP3    H241327   3.071   2.234   0.650  2.0019  2.6739 -0.5795
 6590TIP3   OH241328   2.164   6.227   8.495 -0.5751 -0.0107  0.0116
 6590TIP3    H141329   2.173   6.202   8.403  1.3738  0.3318  0.0623
 6590TIP3    H241330   2.250   6.209   8.533 -1.2278  0.2346  1.6814
 6591TIP3   OH241331   4.971   6.477   8.212  0.0245  0.4190  0.4127
 6591TIP3    H141332   4.913   6.402   8.217 -0.9261  1.1134  0.0109
 6591TIP3    H241333   5.050   6.450   8.259 -0.8737 -0.3051  1.5381
 6592TIP3   OH241334   2.179   0.018   8.697 -0.3906  0.0334  0.3676
 6592TIP3    H141335   2.117  -0.033   8.645 -0.1454 -0.7846  0.8689
 6592TIP3    H241336   2.261   0.013   8.649 -0.5655  0.6505 -0.0058
 6593TIP3   OH241337   2.255   2.244   7.608  0.1485 -0.4813  0.4390
 6593TIP3    H141338   2.258   2.309   7.679 -2.7832 -0.1051  0.3145
 6593TIP3    H241339   2.246   2.295   7.528 -0.5240 -0.9949  0.1781
 6594TIP3   OH241340   0.620   5.888   0.696 -0.3478  0.0637 -0.0307
 6594TIP3    H141341   0.674   5.816   0.663 -1.3587 -1.0653  0.7195
 6594TIP3    H241342   0.530   5.858   0.685 -0.7587  0.5964  1.6149
 6595TIP3   OH241343   2.438   2.388   0.864  0.0137 -0.1371  0.3611
 6595TIP3    H141344   2.526   2.376   0.898 -0.5532  1.5648  2.6714
 6595TIP3    H241345   2.450   2.441   0.785  1.0542  0.7203  1.0650
 6596TIP3   OH241346   3.532   2.956   6.588  0.3594 -0.1388  0.5185
 6596TIP3    H141347   3.594   2.936   6.518  1.1658  0.2900  1.0819
 6596TIP3    H241348   3.493   3.039   6.563  1.7368  0.7852  1.2427
 6597TIP3   OH241349   6.223   6.811   1.143  0.0689  0.1273 -0.1362
 6597TIP3    H141350   6.281   6.738   1.164  0.9060  1.3820  2.3701
 6597TIP3    H241351   6.140   6.788   1.183  0.3498  0.5222  0.7060
 6598TIP3   OH241352   2.606   2.888   7.993  0.2406 -0.1282  0.1912
 6598TIP3    H141353   2.597   2.823   7.923 -0.2295  2.2227 -2.1140
 6598TIP3    H241354   2.541   2.862   8.059 -1.1221 -1.0725 -1.4279
 6599TIP3   OH241355   3.632   2.004   6.386 -0.0248 -0.1521  0.7590
 6599TIP3    H141356   3.560   2.000   6.323 -0.3969 -3.2052  1.1951
 6599TIP3    H241357   3.711   1.989   6.334 -0.1255 -0.6021  0.7275
 6600TIP3   OH241358   2.153   3.615   7.142  0.2997  0.2545  0.1844
 6600TIP3    H141359   2.079   3.578   7.190  2.0189 -0.7957  2.1953
 6600TIP3    H241360   2.187   3.542   7.091  0.9084  0.2840  0.5402
 6601TIP3   OH241361   5.231   1.615   7.072  0.3285 -0.2019  0.2416
 6601TIP3    H141362   5.308   1.581   7.117 -0.5942 -0.7908  1.4278
 6601TIP3    H241363   5.217   1.701   7.111  0.8275  0.2442 -0.5363
 6602TIP3   OH241364   4.847   3.836   0.088 -0.9253  0.1731  0.0012
 6602TIP3    H141365   4.838   3.925   0.056 -1.4546 -0.2492 -1.0819
 6602TIP3    H241366   4.853   3.782   0.008 -0.0882 -0.7098  0.6317
 6603TIP3   OH241367   0.959   6.574   1.344 -0.2322  0.0295 -0.7254
 6603TIP3    H141368   0.974   6.502   1.283  0.5027 -1.4187  1.0570
 6603TIP3    H241369   0.947   6.531   1.429 -0.2216  2.0052  0.3398
 6604TIP3   OH241370   1.981   1.612   0.935 -0.0403  0.5313 -0.1678
 6604TIP3    H141371   2.040   1.657   0.996 -0.1002 -0.2002  0.4439
 6604TIP3    H241372   1.935   1.548   0.989 -1.3832  1.0631 -0.6462
 6605TIP3   OH241373   0.101   1.274   6.683 -0.1204  0.9221 -0.9635
 6605TIP3    H141374   0.099   1.185   6.716  0.1969  1.4904  0.6838
 6605TIP3    H241375   0.192   1.291   6.661  0.2205  1.5208  0.7829
 6606TIP3   OH241376   2.420   4.385   7.423 -0.3140  0.1382  0.2402
 6606TIP3    H141377   2.463   4.449   7.366 -1.2545  0.3584 -0.2260
 6606TIP3    H241378   2.389   4.316   7.364 -2.0128  0.7657  0.3706
 6607TIP3   OH241379   4.082   3.897   2.180 -0.0359  0.0274 -0.5285
 6607TIP3    H141380   4.001   3.859   2.147 -0.6715 -0.0922  1.0883
 6607TIP3    H241381   4.129   3.824   2.220 -0.3092  0.5387  0.7583
 6608TIP3   OH241382   2.909   0.789   8.380  0.1835 -0.6985  0.4880
 6608TIP3    H141383   2.922   0.837   8.298 -1.1359 -0.1782  0.5645
 6608TIP3    H241384   2.841   0.725   8.360 -1.0247  0.2393  1.4703
 6609TIP3   OH241385   3.613   2.305   2.271 -0.2451  0.2647  0.3272
 6609TIP3    H141386   3.700   2.282   2.304 -0.3115 -0.3523  0.0837
 6609TIP3    H241387   3.561   2.320   2.350 -0.2940 -0.7915  0.5068
 6610TIP3   OH241388   4.162   2.069   0.042  0.2520  0.4000 -0.1623
 6610TIP3    H141389   4.241   2.117   0.015  1.4470 -1.7201 -0.6833
 6610TIP3    H241390   4.129   2.031  -0.039  0.0997 -0.6930  0.3992
 6611TIP3   OH241391   0.246   3.989   6.616  0.0585  0.1727  0.0568
 6611TIP3    H141392   0.165   4.040   6.603 -0.7489 -1.1300 -0.2687
 6611TIP3    H241393   0.275   3.968   6.527  1.1500  1.2018  0.1557
 6612TIP3   OH241394   0.241   6.316   1.545 -0.2136  0.8380 -0.2824
 6612TIP3    H141395   0.153   6.341   1.575  0.2536  1.9708  0.2097
 6612TIP3    H241396   0.282   6.399   1.521  0.1901  0.1626 -2.0540
 6613TIP3   OH241397   2.522   3.763   7.443  0.2583 -0.4345 -0.2046
 6613TIP3    H141398   2.537   3.855   7.465 -0.0839 -0.5224  0.4254
 6613TIP3    H241399   2.519   3.761   7.348 -0.8196  0.3784 -0.2098
 6614TIP3   OH241400   4.617   4.119   8.434  0.3529 -0.3925 -0.1028
 6614TIP3    H141401   4.666   4.197   8.460  1.4070 -1.4155  1.1446
 6614TIP3    H241402   4.629   4.114   8.339  0.1245  1.0294 -0.2271
 6615TIP3   OH241403   2.054   1.669   1.252 -0.3432 -0.7382 -0.1001
 6615TIP3    H141404   1.986   1.731   1.225 -0.5779 -0.8555  0.2126
 6615TIP3    H241405   2.076   1.695   1.342 -1.3554 -1.8687  0.5221
 6616TIP3   OH241406   2.176   1.235   5.917 -0.1240 -0.0960  0.0414
 6616TIP3    H141407   2.250   1.244   5.857  0.1340  0.5565  0.4505
 6616TIP3    H241408   2.167   1.141   5.930  1.6558 -0.1492  1.2246
 6617TIP3   OH241409   5.926   0.678   1.959 -0.3252 -0.2440 -0.0974
 6617TIP3    H141410   5.988   0.751   1.962  0.8453 -1.1913 -0.8517
 6617TIP3    H241411   5.882   0.682   2.045  1.1215  0.1333  0.6588
 6618TIP3   OH241412   3.251   0.669   0.677  0.6719 -0.2151  0.3459
 6618TIP3    H141413   3.329   0.615   0.678  1.6323  1.1138  0.3845
 6618TIP3    H241414   3.198   0.635   0.605  2.4519  0.4120 -1.3346
 6619TIP3   OH241415   4.478   4.513   0.499 -0.4601 -0.2304 -0.1174
 6619TIP3    H141416   4.494   4.507   0.404  0.4294  0.7020 -0.0496
 6619TIP3    H241417   4.507   4.601   0.522  0.1074 -0.7263  1.1609
 6620TIP3   OH241418   0.553   3.032   8.161 -0.0235  0.1471 -0.0135
 6620TIP3    H141419   0.468   3.071   8.140  0.0133  0.1498 -0.1583
 6620TIP3    H241420   0.550   3.017   8.256  0.2471  1.1846  0.1691
 6621TIP3   OH241421   2.676   3.505   8.220 -0.5828  0.9964 -0.2600
 6621TIP3    H141422   2.607   3.528   8.157 -1.0462  1.5645  0.4287
 6621TIP3    H241423   2.674   3.410   8.224  0.1428  0.8950 -1.8473
 6622TIP3   OH241424   0.644   2.085   1.139 -0.0333  0.9844 -0.1273
 6622TIP3    H141425   0.662   2.094   1.046 -0.7593  1.7788 -0.2089
 6622TIP3    H241426   0.729   2.100   1.182  0.5808 -0.7097 -0.6917
 6623TIP3   OH241427   4.822   0.685   6.373  0.6934  0.4253 -0.7665
 6623TIP3    H141428   4.901   0.638   6.400  1.3362  0.9637 -1.6692
 6623TIP3    H241429   4.846   0.777   6.378  0.4363  0.5713 -1.9254
 6624TIP3   OH241430   4.673   6.516   6.066 -0.4080  0.2135  0.6881
 6624TIP3    H141431   4.765   6.491   6.056 -0.5364 -0.1430  0.3606
 6624TIP3    H241432   4.675   6.592   6.124  0.3064  1.9357 -1.4903
 6625TIP3   OH241433   4.567   4.303   1.647  0.3779  0.3476  0.3560
 6625TIP3    H141434   4.524   4.352   1.717 -0.9896 -3.0283  2.1193
 6625TIP3    H241435   4.557   4.357   1.569 -0.6269  2.9565  2.1673
 6626TIP3   OH241436   4.835   2.520   6.421  0.7459  0.0236  0.0394
 6626TIP3    H141437   4.857   2.608   6.453  3.3780 -0.8693  0.9298
 6626TIP3    H241438   4.842   2.527   6.326  0.7080  0.8415  0.0898
 6627TIP3   OH241439   4.404   1.808   7.948  0.5037  0.0144  0.1899
 6627TIP3    H141440   4.419   1.735   8.009 -0.5122 -0.2824  0.1045
 6627TIP3    H241441   4.470   1.796   7.880  1.8674  0.5232  1.3585
 6628TIP3   OH241442   4.415   6.349   7.627  0.6313  0.3684 -0.3626
 6628TIP3    H141443   4.425   6.254   7.628 -2.4033 -0.0640  1.5157
 6628TIP3    H241444   4.357   6.367   7.553 -0.6023  0.4452  0.5917
 6629TIP3   OH241445   0.474   2.206   8.155  0.4241  0.8033  0.5270
 6629TIP3    H141446   0.391   2.187   8.111  0.6854 -2.2949  1.1544
 6629TIP3    H241447   0.533   2.233   8.084 -0.6566  1.4577 -0.1558
 6630TIP3   OH241448   3.867   3.795   1.715 -0.4023  0.6291 -0.1353
 6630TIP3    H141449   3.784   3.766   1.676 -0.8850  0.2604  1.1276
 6630TIP3    H241450   3.932   3.775   1.648 -1.3323  1.0121 -1.1918
 6631TIP3   OH241451   3.772   3.302   1.254  0.1346 -0.4583  0.6496
 6631TIP3    H141452   3.802   3.237   1.191  2.2653  2.7102 -1.9343
 6631TIP3    H241453   3.756   3.381   1.202  1.8427  2.3618  3.9541
 6632TIP3   OH241454   4.540   3.274   8.307  0.3481  0.2247 -0.2655
 6632TIP3    H141455   4.501   3.340   8.250  1.3912  0.6458 -0.5145
 6632TIP3    H241456   4.471   3.208   8.318  0.0280  0.2555 -1.8069
 6633TIP3   OH241457   0.255   6.716   0.849  0.3271 -0.1565  0.3102
 6633TIP3    H141458   0.172   6.716   0.801 -0.0999  0.4619  1.0265
 6633TIP3    H241459   0.305   6.643   0.811  0.3324  0.7822 -1.6000
 6634TIP3   OH241460   3.396   0.619   0.202 -0.1189 -0.2544 -0.1938
 6634TIP3    H141461   3.440   0.700   0.225 -0.2719 -0.8294  2.3268
 6634TIP3    H241462   3.303   0.639   0.209 -0.2926  0.1163 -2.5614
 6635TIP3   OH241463   4.838   4.978   0.085  0.4580 -0.3029  0.2631
 6635TIP3    H141464   4.776   5.050   0.070  2.3942  2.2799  3.2768
 6635TIP3    H241465   4.822   4.951   0.175  0.2324 -3.3774 -0.5932
 6636TIP3   OH241466   3.569   0.053   0.754 -0.3477 -0.7061 -0.4474
 6636TIP3    H141467   3.543   0.146   0.760  0.0579 -0.6700  1.2597
 6636TIP3    H241468   3.506   0.007   0.809  0.1732 -1.2829 -0.3186
 6637TIP3   OH241469   6.235   4.942   8.680 -0.0695 -0.3501 -0.1492
 6637TIP3    H141470   6.169   4.965   8.614 -0.9478  0.2496  0.9010
 6637TIP3    H241471   6.289   4.875   8.638 -0.2109  0.4644 -1.6954
 6638TIP3   OH241472   5.148   5.915   7.118  0.0914 -0.2632  0.4172
 6638TIP3    H141473   5.068   5.877   7.081  0.4529 -1.1102  0.4795
 6638TIP3    H241474   5.159   5.871   7.202  0.2927  0.2979  0.6897
 6639TIP3   OH241475   6.239   6.165   1.554 -0.8492  0.2168  0.3614
 6639TIP3    H141476   6.195   6.141   1.472 -0.1518 -3.3854  0.8917
 6639TIP3    H241477   6.332   6.173   1.529 -0.7751  0.1489  0.6197
 6640TIP3   OH241478   1.545   4.500   7.219 -0.5581 -0.0495 -0.6191
 6640TIP3    H141479   1.553   4.513   7.125 -1.4193 -0.9625 -0.8353
 6640TIP3    H241480   1.451   4.488   7.234 -0.2992 -1.3259  0.1497
 6641TIP3   OH241481   4.582   6.257   0.198  0.4044  0.0780  0.3682
 6641TIP3    H141482   4.648   6.199   0.158 -0.0631 -1.6366  1.9486
 6641TIP3    H241483   4.580   6.334   0.141  2.3296 -0.6940 -0.8342
 6642TIP3   OH241484   3.698   5.551   7.171 -0.3508  0.2120 -0.0273
 6642TIP3    H141485   3.726   5.464   7.200  0.6857  1.1835  2.1031
 6642TIP3    H241486   3.724   5.554   7.079 -0.8505 -1.8834 -0.3037
 6643TIP3   OH241487   6.133   1.049   1.534  0.3809  0.0888  0.2485
 6643TIP3    H141488   6.095   1.136   1.550  0.3264  0.1730 -0.3130
 6643TIP3    H241489   6.175   1.057   1.448  0.0524 -0.5518  0.0240
 6644TIP3   OH241490   6.823   0.494   8.597 -0.0547  0.0291  0.0596
 6644TIP3    H141491   6.811   0.446   8.515  0.9084 -0.5619  0.2461
 6644TIP3    H241492   6.914   0.475   8.622 -0.4851 -0.1953  1.5197
 6645TIP3   OH241493   2.508   2.656   1.507  0.0593  0.0660  0.1448
 6645TIP3    H141494   2.598   2.629   1.491 -0.3678 -1.0517 -0.4333
 6645TIP3    H241495   2.471   2.668   1.420 -0.4909  0.0575  0.3761
 6646TIP3   OH241496   3.840   2.736   8.111  0.7158  0.1389 -0.5775
 6646TIP3    H141497   3.884   2.756   8.028  2.7775 -2.5116 -0.2468
 6646TIP3    H241498   3.757   2.697   8.085  0.7889  0.4817 -1.3600
 6647TIP3   OH241499   5.525   1.731   2.456 -0.4474 -0.3215  0.0354
 6647TIP3    H141500   5.463   1.664   2.426 -0.5386 -0.1275 -0.2064
 6647TIP3    H241501   5.611   1.693   2.440 -0.4987 -0.8418  0.9184
 6648TIP3   OH241502   5.326   1.361   2.063  0.0096 -0.1471 -0.3456
 6648TIP3    H141503   5.368   1.376   2.148 -0.9217 -0.3340  0.1603
 6648TIP3    H241504   5.304   1.267   2.064 -0.0429 -0.1391 -0.7732
 6649TIP3   OH241505   3.144   2.210   1.212  0.3318  0.5773 -0.0657
 6649TIP3    H141506   3.154   2.206   1.116  2.6866 -2.3791  0.1787
 6649TIP3    H241507   3.228   2.244   1.243 -0.7501  2.4495  1.0039
 6650TIP3   OH241508   2.849   1.272   0.866  0.0432  0.6836  0.3388
 6650TIP3    H141509   2.877   1.249   0.955  1.4625 -1.7348 -0.6508
 6650TIP3    H241510   2.924   1.250   0.811 -1.8079 -0.6536 -1.8042
 6651TIP3   OH241511   6.809   5.614   1.862 -0.2890 -0.6129  0.1352
 6651TIP3    H141512   6.807   5.677   1.934 -1.0043 -1.4583  0.8884
 6651TIP3    H241513   6.892   5.568   1.873  0.4596  0.4737 -0.6995
 6652TIP3   OH241514   0.882   5.586   7.332 -0.8569  0.2457 -0.2793
 6652TIP3    H141515   0.939   5.661   7.351  0.5389 -0.8271 -0.1129
 6652TIP3    H241516   0.869   5.589   7.237 -3.1924  2.3102 -0.0198
 6653TIP3   OH241517   1.598   5.186   2.106  0.6918  0.4089 -0.2069
 6653TIP3    H141518   1.587   5.258   2.168 -0.8438  1.3869 -1.5543
 6653TIP3    H241519   1.512   5.175   2.065  0.8314 -2.2648 -0.0106
 6654TIP3   OH241520   1.449   4.111   2.414  0.1629  0.1165 -0.2674
 6654TIP3    H141521   1.524   4.096   2.357 -0.7346  1.9197 -2.0271
 6654TIP3    H241522   1.383   4.049   2.384 -0.6769  1.7481 -2.0277
 6655TIP3   OH241523   4.516   0.260   0.336  0.0102  0.0782 -0.3158
 6655TIP3    H141524   4.457   0.311   0.392 -3.1213 -1.1614 -2.1961
 6655TIP3    H241525   4.566   0.326   0.288  1.2265  1.1697  2.2168
 6656TIP3   OH241526   2.347   0.930   7.872 -0.5757  0.0646  0.1686
 6656TIP3    H141527   2.356   1.007   7.929  2.3115  0.5313 -0.7294
 6656TIP3    H241528   2.300   0.963   7.796 -0.6288  0.5855  0.4171
 6657TIP3   OH241529   4.658   6.729   6.259  0.5129 -0.2459 -0.0798
 6657TIP3    H141530   4.606   6.699   6.334  0.5995  0.5704  0.3161
 6657TIP3    H241531   4.747   6.700   6.278  0.7310  0.8270  0.6447
 6658TIP3   OH241532   4.016   0.658   0.821 -0.4021 -0.1967 -0.8034
 6658TIP3    H141533   3.943   0.620   0.870 -1.5571  2.2047 -0.5317
 6658TIP3    H241534   4.080   0.682   0.888 -1.0014  1.0145 -0.6260
 6659TIP3   OH241535   0.752   1.277   1.059  0.1914  0.4203  0.2223
 6659TIP3    H141536   0.733   1.300   1.150  0.0224  1.9030 -0.1548
 6659TIP3    H241537   0.841   1.310   1.045 -0.7107  2.5804 -0.8537
 6660TIP3   OH241538   5.278   6.547   1.483 -0.2407 -0.1722 -0.8248
 6660TIP3    H141539   5.321   6.622   1.524  0.6832 -0.2672 -1.5844
 6660TIP3    H241540   5.272   6.571   1.390  1.7563 -1.7730 -1.4224
 6661TIP3   OH241541   5.645   5.329   2.527  0.6961  0.0828 -0.5628
 6661TIP3    H141542   5.640   5.416   2.488 -1.3198  0.0377 -0.4826
 6661TIP3    H241543   5.557   5.313   2.562  1.1660 -1.7871 -0.1453
 6662TIP3   OH241544   2.094   1.033   0.318 -0.1081  0.4518 -0.6589
 6662TIP3    H141545   2.172   1.047   0.372 -0.9468  0.8005  0.4970
 6662TIP3    H241546   2.020   1.041   0.379 -1.1044  0.9603 -1.8782
 6663TIP3   OH241547   1.106   1.726   7.489 -0.0179 -0.4834  0.5673
 6663TIP3    H141548   1.022   1.680   7.481 -0.2314  0.2531 -2.1376
 6663TIP3    H241549   1.170   1.655   7.493 -0.4452 -1.1486 -2.2521
 6664TIP3   OH241550   3.347   3.808   6.556 -0.0807  0.5455 -0.2367
 6664TIP3    H141551   3.393   3.781   6.477  2.3111 -0.3246  1.3622
 6664TIP3    H241552   3.363   3.902   6.562 -0.2247  0.6075 -0.7293
 6665TIP3   OH241553   2.686   3.283   8.600 -0.2863  0.1507  0.2134
 6665TIP3    H141554   2.688   3.204   8.547  2.3418  0.2673  0.0211
 6665TIP3    H241555   2.705   3.253   8.689 -0.2323  0.4735  0.3118
 6666TIP3   OH241556   1.330   3.443   6.984  0.4646  0.1439  1.0408
 6666TIP3    H141557   1.295   3.530   7.002 -0.6667  0.1704 -0.9536
 6666TIP3    H241558   1.415   3.459   6.945 -0.0803  0.4268 -0.0664
 6667TIP3   OH241559   5.578   0.500   7.384 -0.0977  0.0357 -0.0038
 6667TIP3    H141560   5.511   0.450   7.430 -0.3222  1.0802  0.8460
 6667TIP3    H241561   5.651   0.440   7.375 -0.2925 -0.3947  1.1556
 6668TIP3   OH241562   0.444   3.074   1.881  0.0794  0.1862 -0.4469
 6668TIP3    H141563   0.440   3.169   1.895 -1.1776  0.1079 -0.1688
 6668TIP3    H241564   0.492   3.064   1.799 -0.4599  1.1042 -0.8868
 6669TIP3   OH241565   3.753   0.886   8.598  0.0185 -0.2033 -0.1322
 6669TIP3    H141566   3.810   0.858   8.669  1.0452  0.8162 -0.5270
 6669TIP3    H241567   3.669   0.906   8.640  0.2591 -0.7190  0.6077
 6670TIP3   OH241568   2.433   2.016   2.469 -1.1411 -0.2881 -0.2596
 6670TIP3    H141569   2.507   2.001   2.411 -0.1748  0.6700  0.6784
 6670TIP3    H241570   2.379   1.937   2.461 -0.1913 -0.8519 -1.2078
 6671TIP3   OH241571   0.997   3.520   0.319  0.2000  0.0553  0.3825
 6671TIP3    H141572   1.048   3.448   0.354  0.3562  1.2270  2.7842
 6671TIP3    H241573   0.969   3.570   0.397 -1.0100  1.8191 -1.0896
 6672TIP3   OH241574   5.793   5.939   1.497  0.2337 -0.6881  0.3695
 6672TIP3    H141575   5.871   5.895   1.530 -0.8462 -2.8956  0.2157
 6672TIP3    H241576   5.755   5.982   1.573  1.6438  0.5362  0.4111
 6673TIP3   OH241577   4.212   4.599   1.318 -0.1383 -0.2143  0.2337
 6673TIP3    H141578   4.295   4.625   1.358  0.6954 -0.4629 -1.2844
 6673TIP3    H241579   4.145   4.635   1.377  1.0174  0.9775  0.8625
 6674TIP3   OH241580   3.294   3.510   7.255 -0.0734 -0.3303 -0.3795
 6674TIP3    H141581   3.326   3.453   7.185  0.4380 -0.6936  0.1355
 6674TIP3    H241582   3.365   3.510   7.320 -1.0177 -0.9450  0.6811
 6675TIP3   OH241583   6.439   5.114   2.278  0.4214 -0.0267 -0.0996
 6675TIP3    H141584   6.417   5.122   2.370  0.4341 -2.9859  0.2601
 6675TIP3    H241585   6.531   5.086   2.277 -0.0686 -1.7511 -0.8583
 6676TIP3   OH241586   4.984   3.063   8.482  0.6318  0.0096 -0.2789
 6676TIP3    H141587   5.017   3.093   8.398  2.4839  1.1603  0.7872
 6676TIP3    H241588   4.898   3.104   8.490  1.0361  1.0434 -1.0088
 6677TIP3   OH241589   1.143   5.006   1.257  0.7503 -0.4481  0.1560
 6677TIP3    H141590   1.118   5.022   1.166  1.9182 -0.6796 -0.2320
 6677TIP3    H241591   1.071   5.041   1.309  0.9422  1.4932 -0.7891
 6678TIP3   OH241592   1.986   5.635   1.811 -0.2891 -0.5677  0.0163
 6678TIP3    H141593   1.948   5.695   1.747  0.0792 -1.7316 -1.3469
 6678TIP3    H241594   1.911   5.602   1.861 -0.9233 -1.4799 -1.4569
 6679TIP3   OH241595   0.708   1.163   0.784 -0.0666  0.3987 -0.1371
 6679TIP3    H141596   0.740   1.197   0.867 -0.4867  1.8764 -0.5442
 6679TIP3    H241597   0.614   1.152   0.798 -0.1814  0.9066 -0.4911
 6680TIP3   OH241598   5.297   4.348   0.575  0.4379  0.5819  0.7663
 6680TIP3    H141599   5.228   4.410   0.550  0.0865  0.3313  1.1124
 6680TIP3    H241600   5.302   4.354   0.670 -0.7087 -1.0874  0.9498
 6681TIP3   OH241601   1.039   5.699   8.135  0.1385  0.1442  0.1655
 6681TIP3    H141602   1.046   5.788   8.169 -0.4589  0.3245 -0.1632
 6681TIP3    H241603   1.105   5.694   8.066 -0.4890  0.6587 -0.4855
 6682TIP3   OH241604   3.159   0.872   8.210 -0.0447  0.0720 -0.0889
 6682TIP3    H141605   3.130   0.948   8.159  1.9376 -0.7665 -2.6974
 6682TIP3    H241606   3.220   0.909   8.274 -0.5491  0.8819 -0.0630
 6683TIP3   OH241607   4.182   1.907   7.549 -0.0845  0.0984 -0.4815
 6683TIP3    H141608   4.227   1.950   7.477  0.7544  0.4865  0.2428
 6683TIP3    H241609   4.243   1.838   7.577 -0.4235 -0.0847 -0.1864
 6684TIP3   OH241610   3.943   4.553   7.281 -0.3439  0.2060  0.2304
 6684TIP3    H141611   3.952   4.529   7.373  1.2903  0.6547  0.2266
 6684TIP3    H241612   4.032   4.544   7.245 -1.1701 -1.2955 -1.6466
 6685TIP3   OH241613   5.786   0.978   7.684 -0.0242  0.4743 -0.1246
 6685TIP3    H141614   5.812   1.068   7.704  0.0894  0.2757  0.6496
 6685TIP3    H241615   5.761   0.980   7.592 -1.0222  1.5360  0.1501
 6686TIP3   OH241616   1.991   2.255   0.353 -0.3943  0.3688 -0.0749
 6686TIP3    H141617   1.911   2.298   0.384 -0.4902  0.3642 -0.3130
 6686TIP3    H241618   1.964   2.209   0.274  0.2939  2.0877 -1.3789
 6687TIP3   OH241619   3.813   0.135   7.111 -0.0439  0.1386  0.4257
 6687TIP3    H141620   3.719   0.148   7.099 -0.0726 -0.9864 -0.7811
 6687TIP3    H241621   3.851   0.147   7.024  1.1569  2.0601  1.1571
 6688TIP3   OH241622   1.815   2.360   1.549 -0.5958  0.0475  0.7751
 6688TIP3    H141623   1.731   2.324   1.579 -1.3210  0.5449 -0.5865
 6688TIP3    H241624   1.880   2.314   1.601 -1.6800 -0.7728  1.4584
 6689TIP3   OH241625   4.885   1.421   8.018  0.3474 -0.3172  0.2699
 6689TIP3    H141626   4.956   1.364   7.990 -0.8705 -1.6006 -0.3119
 6689TIP3    H241627   4.918   1.464   8.097  1.1060 -2.2596  1.0519
 6690TIP3   OH241628   5.944   0.428   7.652  0.2245  0.3397  0.0415
 6690TIP3    H141629   5.892   0.409   7.574  0.3262  2.2019 -0.5372
 6690TIP3    H241630   5.958   0.343   7.694 -0.3213 -0.6201 -1.6553
 6691TIP3   OH241631   4.303   4.809   0.575 -0.4363  0.5173 -0.7979
 6691TIP3    H141632   4.270   4.887   0.619  0.8217  0.0815  1.0446
 6691TIP3    H241633   4.342   4.757   0.645 -0.2447 -1.2455 -2.1480
 6692TIP3   OH241634   0.896   1.357   1.837 -0.0302 -0.3430 -0.2108
 6692TIP3    H141635   0.847   1.284   1.874 -1.4168  0.9609  0.6057
 6692TIP3    H241636   0.899   1.338   1.743 -0.6282 -1.2960 -0.0496
 6693TIP3   OH241637   3.634   4.851   0.982 -0.1830 -0.2166 -0.7075
 6693TIP3    H141638   3.572   4.845   1.054 -0.0206 -2.9400 -0.6910
 6693TIP3    H241639   3.720   4.858   1.024 -0.1487 -0.9677 -0.6544
 6694TIP3   OH241640   0.627   1.323   7.373 -0.5520 -0.2334  0.3386
 6694TIP3    H141641   0.666   1.367   7.297 -0.3145 -1.2560 -0.1553
 6694TIP3    H241642   0.557   1.269   7.336 -0.8776 -0.2310  0.9364
 6695TIP3   OH241643   4.757   0.727   2.155 -0.1884  0.2416 -0.1765
 6695TIP3    H141644   4.739   0.804   2.208 -2.1890 -0.0212 -0.3930
 6695TIP3    H241645   4.671   0.686   2.142  0.9355 -2.8859  1.2444
 6696TIP3   OH241646   4.068   5.953   1.466 -0.0606 -0.1421  0.0836
 6696TIP3    H141647   4.154   5.917   1.490  0.6075  0.9889 -0.5173
 6696TIP3    H241648   4.045   6.009   1.539 -0.1280 -0.1795  0.0907
 6697TIP3   OH241649   3.916   5.280   1.321 -0.6162  0.1388  0.8293
 6697TIP3    H141650   3.922   5.366   1.281 -1.9406  0.4417  1.2254
 6697TIP3    H241651   4.002   5.266   1.361  0.1185  0.6050 -0.5136
 6698TIP3   OH241652   6.829   2.370   6.926 -1.0632 -0.0278  0.7813
 6698TIP3    H141653   6.902   2.307   6.922 -1.1411 -0.1087  0.6519
 6698TIP3    H241654   6.793   2.371   6.838 -0.0299  1.4270  0.3346
 6699TIP3   OH241655   2.439   0.144   1.332 -0.4833 -0.5053 -0.4506
 6699TIP3    H141656   2.466   0.061   1.371  0.4204  0.4005  0.9814
 6699TIP3    H241657   2.478   0.145   1.245 -0.8552 -1.7439 -0.6393
 6700TIP3   OH241658   6.480   6.284   7.413 -0.0519 -0.0233 -0.2576
 6700TIP3    H141659   6.516   6.234   7.486 -0.6225  0.0983  0.1182
 6700TIP3    H241660   6.501   6.233   7.335  2.1052  0.7125 -0.2022
 6701TIP3   OH241661   3.883   5.798   6.849 -0.0395  0.8804  0.5194
 6701TIP3    H141662   3.976   5.779   6.832 -0.4940 -0.4616 -0.6280
 6701TIP3    H241663   3.879   5.894   6.849  1.6465  1.0292  2.4807
 6702TIP3   OH241664   6.014   2.949   8.019  0.0853 -0.3497 -0.0457
 6702TIP3    H141665   6.085   2.885   8.019  0.1208 -0.3218 -0.6758
 6702TIP3    H241666   5.963   2.927   7.941 -1.1798 -1.0067  0.9203
 6703TIP3   OH241667   1.316   4.453   0.223 -0.2856 -0.2939  0.2978
 6703TIP3    H141668   1.309   4.533   0.170  0.8889 -0.1862  0.2959
 6703TIP3    H241669   1.288   4.383   0.163 -1.0516  0.0757  0.2137
 6704TIP3   OH241670   4.744   2.233   1.388  0.1367 -0.2401 -0.2153
 6704TIP3    H141671   4.729   2.282   1.307 -0.1055 -2.4938 -1.6283
 6704TIP3    H241672   4.689   2.277   1.453 -2.3135 -0.2981 -2.0929
 6705TIP3   OH241673   4.813   1.401   1.225  0.1353  0.2114  0.6976
 6705TIP3    H141674   4.822   1.477   1.166  1.7975  0.1195  0.7740
 6705TIP3    H241675   4.791   1.328   1.167  1.7469  0.1246  0.1515
 6706TIP3   OH241676   0.946   1.459   8.645  0.0172 -0.3019  0.3924
 6706TIP3    H141677   0.975   1.394   8.710  1.1988  0.4635  0.6646
 6706TIP3    H241678   0.991   1.433   8.564  2.7834  1.6779  1.1306
 6707TIP3   OH241679   5.547   0.890   8.368  0.2478  0.1698  0.0370
 6707TIP3    H141680   5.584   0.918   8.284  0.4630 -0.4242 -0.0702
 6707TIP3    H241681   5.623   0.868   8.422  0.0889 -0.9195 -0.1390
 6708TIP3   OH241682   0.263   4.773   7.639  0.1892  0.7474  0.0378
 6708TIP3    H141683   0.305   4.694   7.606  1.2562  0.8762  1.0584
 6708TIP3    H241684   0.169   4.757   7.625  0.4278 -0.3982 -0.3900
 6709TIP3   OH241685   4.998   6.804   1.946 -0.2701  0.2382  0.1806
 6709TIP3    H141686   4.906   6.786   1.924 -0.5369  1.2932  0.3806
 6709TIP3    H241687   5.001   6.797   2.042 -0.2092  0.4975  0.1972
 6710TIP3   OH241688   3.259   5.628   1.862 -0.9359  0.3182  0.0064
 6710TIP3    H141689   3.272   5.585   1.947 -3.2157  1.2892  0.9073
 6710TIP3    H241690   3.164   5.630   1.850 -0.7245  1.6830 -1.8052
 6711TIP3   OH241691   2.996   5.083   8.102  0.2360 -0.3673  0.1001
 6711TIP3    H141692   2.923   5.122   8.151  0.6513 -1.7297  1.8839
 6711TIP3    H241693   3.004   4.995   8.138  2.4426 -0.4229 -0.4364
 6712TIP3   OH241694   5.364   3.315   0.621 -0.2385 -1.1028 -0.4709
 6712TIP3    H141695   5.270   3.322   0.604 -0.0213 -0.6666 -1.5078
 6712TIP3    H241696   5.406   3.367   0.553  0.6657  1.0221  1.5616
 6713TIP3   OH241697   6.217   3.461   1.911 -0.1096 -0.0117  0.4035
 6713TIP3    H141698   6.238   3.432   2.000  1.3280 -0.7279 -0.1432
 6713TIP3    H241699   6.248   3.390   1.855 -1.2425  0.3037 -0.6783
 6714TIP3   OH241700   6.015   4.897   6.916 -0.1787 -0.4497  0.3228
 6714TIP3    H141701   5.979   4.836   6.851 -0.3896 -0.6354  0.6060
 6714TIP3    H241702   5.939   4.944   6.949  0.0590  0.3773 -0.3073
 6715TIP3   OH241703   5.884   2.057   0.738 -0.1336 -0.7667 -1.0096
 6715TIP3    H141704   5.861   1.970   0.704 -1.7417 -0.1897 -1.4993
 6715TIP3    H241705   5.917   2.040   0.826  0.5853 -1.9669 -1.4819
 6716TIP3   OH241706   2.871   6.226   7.729  0.0425 -0.0060 -0.6880
 6716TIP3    H141707   2.944   6.219   7.790  1.5853 -0.1162 -2.4752
 6716TIP3    H241708   2.800   6.263   7.781  1.4009  0.2569  1.0671
 6717TIP3   OH241709   2.528   0.113   1.679  0.0868  0.2517  0.2706
 6717TIP3    H141710   2.600   0.159   1.637  0.3694 -0.2238  0.2262
 6717TIP3    H241711   2.518   0.032   1.628  0.9632 -0.7173  1.5786
 6718TIP3   OH241712   6.454   2.306   8.577  0.3270  0.0091  0.3050
 6718TIP3    H141713   6.476   2.397   8.599  0.6384 -0.1215  0.5429
 6718TIP3    H241714   6.405   2.312   8.495  0.0861  0.4164  0.4767
 6719TIP3   OH241715   6.548   1.671   1.397  0.5760 -0.2266 -0.6019
 6719TIP3    H141716   6.577   1.724   1.471  1.2678  0.0454 -1.0545
 6719TIP3    H241717   6.522   1.736   1.331 -1.2044 -0.4524 -0.1876
 6720TIP3   OH241718   1.083   3.151   1.950  0.2715 -0.9683 -0.2576
 6720TIP3    H141719   1.059   3.059   1.942  1.5057 -1.3490  0.2567
 6720TIP3    H241720   1.123   3.159   2.036  0.7307 -0.0768 -0.5344
 6721TIP3   OH241721   4.906   0.413   7.345  0.0167 -0.0204  0.2644
 6721TIP3    H141722   4.850   0.398   7.268 -0.5677 -0.3996  0.7575
 6721TIP3    H241723   4.893   0.335   7.399  1.1451 -0.1830  0.3159
 6722TIP3   OH241724   5.488   5.607   6.740  0.1112  0.3527  0.1237
 6722TIP3    H141725   5.402   5.581   6.707 -0.2884 -0.3006  1.6233
 6722TIP3    H241726   5.534   5.524   6.755  0.2253  0.6226  1.3383
 6723TIP3   OH241727   2.438   3.567   1.843  0.0218 -0.0703  0.3207
 6723TIP3    H141728   2.344   3.570   1.831  0.0391  0.5945  0.2868
 6723TIP3    H241729   2.453   3.495   1.904 -0.5826  0.4209  1.0556
 6724TIP3   OH241730   5.017   6.290   7.683 -0.4341 -0.3011  0.0552
 6724TIP3    H141731   4.950   6.347   7.719  0.5993 -0.4118  2.3189
 6724TIP3    H241732   5.100   6.327   7.715  0.6093 -0.3692 -2.3474
 6725TIP3   OH241733   2.898   4.518   1.286  0.2107  0.1790 -0.5991
 6725TIP3    H141734   2.836   4.470   1.340  0.5864 -0.7486 -0.9831
 6725TIP3    H241735   2.934   4.453   1.227  0.4952  0.9955 -1.3476
 6726TIP3   OH241736   2.021   4.561   0.023  0.0382  0.3654  0.2666
 6726TIP3    H141737   1.929   4.536   0.028  0.1106 -0.2817 -1.2537
 6726TIP3    H241738   2.021   4.656   0.030 -0.7421  0.3730  0.2063
 6727TIP3   OH241739   0.584   4.169   6.718 -0.3936 -0.2830  0.7711
 6727TIP3    H141740   0.534   4.199   6.642  0.7945 -1.1205 -0.3883
 6727TIP3    H241741   0.641   4.243   6.740  0.5314 -0.6515 -0.3081
 6728TIP3   OH241742   4.539   2.703   1.314  0.2806  0.1271  0.5643
 6728TIP3    H141743   4.628   2.677   1.289  0.5265  0.8950  0.6213
 6728TIP3    H241744   4.483   2.633   1.281  0.9306 -0.4832  0.7390
 6729TIP3   OH241745   2.408   3.374   8.546  0.0888  0.1641 -0.2703
 6729TIP3    H141746   2.489   3.326   8.525 -0.2455 -0.0420 -1.1621
 6729TIP3    H241747   2.412   3.388   8.640  0.2582 -1.5519  0.0224
 6730TIP3   OH241748   5.157   4.567   7.511 -0.0270 -0.8665 -0.0634
 6730TIP3    H141749   5.249   4.567   7.483 -0.0414 -2.0992 -0.1644
 6730TIP3    H241750   5.108   4.555   7.430 -0.1935 -1.7927  0.1657
 6731TIP3   OH241751   2.317   4.912   1.123  0.1201 -0.3574 -0.1875
 6731TIP3    H141752   2.410   4.897   1.103 -0.4494 -1.2273 -2.5441
 6731TIP3    H241753   2.290   4.978   1.059 -1.2106 -1.1859 -0.5048
 6732TIP3   OH241754   5.172   0.040   6.536  0.1636 -0.3487 -0.2389
 6732TIP3    H141755   5.198   0.123   6.576  0.0126 -0.3900 -0.0570
 6732TIP3    H241756   5.150  -0.017   6.610  0.9811 -0.7923 -0.3176
 6733TIP3   OH241757   6.741   0.714   6.497 -0.5627  0.2548  0.0934
 6733TIP3    H141758   6.659   0.742   6.537  0.1429  0.4253  1.4675
 6733TIP3    H241759   6.726   0.622   6.474 -0.7033 -0.1167  1.5813
 6734TIP3   OH241760   4.526   3.222   1.163  0.0574 -0.1207  0.4835
 6734TIP3    H141761   4.621   3.210   1.164  0.0283 -0.5021 -0.6474
 6734TIP3    H241762   4.491   3.137   1.188 -0.0073 -0.4179 -0.5849
 6735TIP3   OH241763   5.170   6.322   8.318  0.7892  0.1004  0.1099
 6735TIP3    H141764   5.236   6.303   8.384 -0.5672 -2.0597  0.9592
 6735TIP3    H241765   5.179   6.251   8.253 -0.1372  0.2265 -0.1807
 6736TIP3   OH241766   6.088   5.060   6.706 -0.4607  0.0559  0.3819
 6736TIP3    H141767   6.096   5.001   6.780 -0.5552  1.2673  1.3892
 6736TIP3    H241768   6.014   5.117   6.727 -0.0957  0.8365 -0.3295
 6737TIP3   OH241769   4.634   2.451   0.754  0.6918 -0.1516 -0.0546
 6737TIP3    H141770   4.588   2.437   0.837  0.0401 -2.9084 -0.7853
 6737TIP3    H241771   4.569   2.492   0.697  0.2354 -0.8363 -0.0354
 6738TIP3   OH241772   0.634   0.565   0.511  0.5078 -0.5266  0.2207
 6738TIP3    H141773   0.597   0.507   0.444 -0.8727  0.8945 -0.3208
 6738TIP3    H241774   0.595   0.535   0.593 -1.9782  0.8917 -0.3279
 6739TIP3   OH241775   6.676   1.501   0.676 -0.0675  0.0164 -0.0233
 6739TIP3    H141776   6.626   1.501   0.758  1.2750 -1.5923  0.8567
 6739TIP3    H241777   6.699   1.593   0.663  0.0969  0.2511  1.6781
 6740TIP3   OH241778   0.981   3.090   0.891 -0.0638 -0.4644  0.2994
 6740TIP3    H141779   0.955   3.015   0.838  0.9940 -0.2895 -0.4949
 6740TIP3    H241780   0.977   3.165   0.832  2.7348 -0.5176 -0.0780
 6741TIP3   OH241781   0.496   5.803   0.299  0.5546 -0.0185  0.1578
 6741TIP3    H141782   0.556   5.732   0.324  1.3753  0.4638 -0.4105
 6741TIP3    H241783   0.520   5.876   0.356 -1.5840 -0.7389  2.1221
 6742TIP3   OH241784   3.970   0.281   0.808  0.5152  0.0149 -0.4670
 6742TIP3    H141785   3.937   0.199   0.846  0.6674  0.0571 -0.2427
 6742TIP3    H241786   3.930   0.285   0.721 -1.4162  0.8918  0.4115
 6743TIP3   OH241787   5.301   6.287   0.722  0.1459  0.2321 -0.3887
 6743TIP3    H141788   5.334   6.372   0.691 -0.7280  0.2209 -1.4289
 6743TIP3    H241789   5.226   6.309   0.777  2.1232  0.2929  2.5087
 6744TIP3   OH241790   2.788   5.399   0.511  0.0781 -0.4427  0.3577
 6744TIP3    H141791   2.752   5.389   0.423 -0.7623 -0.8751  0.7390
 6744TIP3    H241792   2.722   5.360   0.568  0.4439  0.1714  1.2132
 6745TIP3   OH241793   5.068   2.960   1.580  0.4643 -0.3259 -0.9050
 6745TIP3    H141794   5.060   2.865   1.588  1.7715 -0.3741  0.1647
 6745TIP3    H241795   5.160   2.978   1.595  0.2896  1.1066 -1.3591
 6746TIP3   OH241796   6.339   1.840   7.852 -0.0255 -0.2558 -0.3780
 6746TIP3    H141797   6.321   1.933   7.864 -0.7970 -0.5100  0.6339
 6746TIP3    H241798   6.307   1.820   7.764  2.1496  0.8692 -1.4864
 6747TIP3   OH241799   0.904   2.303   1.208 -0.1704  0.3580  0.0104
 6747TIP3    H141800   0.904   2.268   1.119  0.9035 -0.0179  0.1417
 6747TIP3    H241801   0.944   2.390   1.200  2.9056 -0.8891  0.5158
 6748TIP3   OH241802   5.188   2.845   8.214  0.4989 -0.0405  0.9242
 6748TIP3    H141803   5.188   2.883   8.302 -0.7522  0.0975  0.8866
 6748TIP3    H241804   5.150   2.758   8.226  0.5070 -0.0949  0.5520
 6749TIP3   OH241805   5.381   3.069   7.612  0.0032  0.1985  0.3711
 6749TIP3    H141806   5.459   3.113   7.646  0.6881 -0.4820 -0.2950
 6749TIP3    H241807   5.309   3.126   7.639  0.7872  1.2539  0.3276
 6750TIP3   OH241808   6.535   0.535   7.757  0.0992 -0.4377  0.5358
 6750TIP3    H141809   6.621   0.562   7.722  0.2037 -2.5525 -0.9963
 6750TIP3    H241810   6.538   0.440   7.758 -2.5404 -0.5993 -0.3274
 6751TIP3   OH241811   0.990   2.563   1.236  0.9318  0.4873 -0.5428
 6751TIP3    H141812   0.971   2.657   1.233  0.6229  0.4881  0.6639
 6751TIP3    H241813   1.084   2.559   1.256  0.8779  0.5462 -0.2727
 6752TIP3   OH241814   4.154   1.862   0.236  1.1830 -0.1210  0.6157
 6752TIP3    H141815   4.148   1.942   0.184  0.7115  0.6197  1.7524
 6752TIP3    H241816   4.075   1.865   0.291  2.1666 -0.3425  2.0763
 6753TIP3   OH241817   4.349   5.864   7.598  0.0749 -0.4691 -0.2061
 6753TIP3    H141818   4.400   5.871   7.679  0.1632  0.9526 -0.3621
 6753TIP3    H241819   4.414   5.873   7.528  0.0168 -1.8103 -0.4624
 6754TIP3   OH241820   1.581   5.847   1.212  0.0479 -0.2339  0.0792
 6754TIP3    H141821   1.512   5.882   1.268  0.5768  1.5328 -0.3136
 6754TIP3    H241822   1.539   5.776   1.164 -1.0337 -0.2669  1.0309
 6755TIP3   OH241823   3.893   4.183   7.553 -0.1639 -0.8710 -0.0841
 6755TIP3    H141824   3.944   4.183   7.634  1.8982  0.4653 -1.3062
 6755TIP3    H241825   3.890   4.091   7.527 -0.1225 -1.2101  1.0347
 6756TIP3   OH241826   4.754   5.832   1.388  0.1580 -0.1419 -0.3081
 6756TIP3    H141827   4.833   5.885   1.386  1.4092 -1.7277  2.1750
 6756TIP3    H241828   4.684   5.893   1.366  1.9876  1.3669 -2.3315
 6757TIP3   OH241829   1.399   1.191   7.438  0.6846 -0.3324 -0.6393
 6757TIP3    H141830   1.434   1.186   7.350 -0.6136 -0.4476 -1.1758
 6757TIP3    H241831   1.305   1.176   7.427  0.4630 -0.0795  0.7270
 6758TIP3   OH241832   1.305   3.147   7.359 -0.7093  0.3604 -0.1757
 6758TIP3    H141833   1.355   3.069   7.336  0.5764  1.1509 -0.1631
 6758TIP3    H241834   1.352   3.219   7.317 -0.1909  1.4745  2.1356
 6759TIP3   OH241835   3.337   2.508   6.995 -0.3779 -0.7353 -0.3382
 6759TIP3    H141836   3.315   2.424   6.956 -1.8739 -0.7560  0.4711
 6759TIP3    H241837   3.386   2.486   7.074  0.0686 -0.8054 -0.6331
 6760TIP3   OH241838   1.251   6.070   6.622 -0.5393  0.2986 -0.1814
 6760TIP3    H141839   1.341   6.056   6.653 -1.3975 -0.0337  2.3765
 6760TIP3    H241840   1.258   6.066   6.526  2.1179  0.0679 -0.0512
 6761TIP3   OH241841   4.441   4.547   8.274 -0.0502 -0.2742 -0.3472
 6761TIP3    H141842   4.346   4.529   8.275  0.0660 -0.9113 -0.1015
 6761TIP3    H241843   4.461   4.562   8.182 -0.5382  0.6795 -0.3057
 6762TIP3   OH241844   1.697   6.030   7.969  0.3468 -0.0769 -0.2188
 6762TIP3    H141845   1.673   5.941   7.944  1.6890  0.1214 -2.5398
 6762TIP3    H241846   1.778   6.020   8.019  0.6606 -0.1564 -0.7358
 6763TIP3   OH241847   5.847   6.481   1.496 -0.4894 -0.1331  0.1378
 6763TIP3    H141848   5.865   6.528   1.578 -0.6139 -1.2673  0.8299
 6763TIP3    H241849   5.822   6.393   1.523  2.1923 -1.4314 -1.1875
 6764TIP3   OH241850   4.213   3.417   7.986 -0.6055 -0.4061 -0.4799
 6764TIP3    H141851   4.299   3.440   7.951 -0.3214 -0.9521 -0.1483
 6764TIP3    H241852   4.212   3.322   7.988 -0.2526 -0.4080  1.8569
 6765TIP3   OH241853   1.454   0.312   1.339  0.3258 -0.1170  0.0138
 6765TIP3    H141854   1.525   0.304   1.276 -0.2564 -1.6469 -0.5034
 6765TIP3    H241855   1.453   0.227   1.385 -0.5517  0.2284  0.6685
 6766TIP3   OH241856   0.434   3.390   1.414  0.0513  0.0633  0.3966
 6766TIP3    H141857   0.464   3.352   1.497  0.9227 -1.1040 -0.4262
 6766TIP3    H241858   0.490   3.350   1.347 -0.3382  1.3186 -0.7237
 6767TIP3   OH241859   3.200   2.965   0.810 -0.1582 -0.2082 -0.1975
 6767TIP3    H141860   3.234   3.032   0.869  0.6444  0.0527 -0.9376
 6767TIP3    H241861   3.204   2.884   0.861 -0.2344  0.1465  0.3784
 6768TIP3   OH241862   0.879   6.647   8.701  0.2407 -0.0052  0.2926
 6768TIP3    H141863   0.966   6.680   8.725  0.8207 -0.4747 -1.0933
 6768TIP3    H241864   0.861   6.579   8.766  0.3561  0.9039  1.3207
 6769TIP3   OH241865   6.750   3.450   1.686 -0.7166  0.0470  0.3978
 6769TIP3    H141866   6.759   3.531   1.737 -1.1883  0.5312 -0.2605
 6769TIP3    H241867   6.672   3.465   1.631  0.0178 -0.2786 -0.7744
 6770TIP3   OH241868   3.776   5.820   0.106  0.1259 -0.1795 -0.0728
 6770TIP3    H141869   3.763   5.912   0.131  1.5386 -0.1172  0.4808
 6770TIP3    H241870   3.726   5.811   0.024  0.4618  1.2433 -0.4705
 6771TIP3   OH241871   2.954   2.545   6.567 -0.3987  0.6702  0.4315
 6771TIP3    H141872   3.038   2.590   6.580  0.6955 -0.9426 -0.6779
 6771TIP3    H241873   2.937   2.553   6.473  0.3999 -2.0205 -0.0471
 6772TIP3   OH241874   2.767   3.443   1.158  0.6404  0.2706 -0.3510
 6772TIP3    H141875   2.692   3.475   1.207  0.6788 -0.2345  0.0424
 6772TIP3    H241876   2.772   3.500   1.081  0.6081  1.0878  0.2493
 6773TIP3   OH241877   2.799   5.752   0.229  0.0988 -0.3806  0.2551
 6773TIP3    H141878   2.749   5.766   0.309  0.6013  3.5583  0.0937
 6773TIP3    H241879   2.891   5.752   0.258  0.2436 -0.0131 -0.1947
 6774TIP3   OH241880   0.558   5.084   1.868  0.4563 -0.4774  0.1092
 6774TIP3    H141881   0.468   5.061   1.890 -0.0619 -0.4462 -1.8078
 6774TIP3    H241882   0.611   5.043   1.936 -0.9779 -0.6397  1.1711
 6775TIP3   OH241883   5.282   2.078   8.674  0.3166  0.1388  1.0237
 6775TIP3    H141884   5.363   2.050   8.718  0.4058  0.7863  1.2878
 6775TIP3    H241885   5.258   2.160   8.718  1.4133  1.8533 -1.3326
 6776TIP3   OH241886   0.785   2.926   1.768  0.5170  0.0781 -0.4194
 6776TIP3    H141887   0.761   2.935   1.860  0.4533 -0.7529 -0.3499
 6776TIP3    H241888   0.776   3.015   1.732 -2.0237 -0.0595 -0.2610
 6777TIP3   OH241889   1.374   3.204   1.443  0.1377 -0.2121  0.4528
 6777TIP3    H141890   1.307   3.246   1.389 -0.1104 -1.1198  0.0287
 6777TIP3    H241891   1.356   3.235   1.531  1.8350  2.9589 -0.1928
 6778TIP3   OH241892   3.404   6.561   0.291 -0.4560 -0.7081 -0.1853
 6778TIP3    H141893   3.407   6.488   0.353 -1.2810 -1.6995 -1.2642
 6778TIP3    H241894   3.368   6.523   0.211 -1.3123  0.9822 -0.6486
 6779TIP3   OH241895   3.120   0.349   0.077  0.5418 -0.5424 -0.3194
 6779TIP3    H141896   3.106   0.426   0.132 -0.1819 -1.0936  0.3070
 6779TIP3    H241897   3.202   0.366   0.032  0.1486  0.8024 -0.5717
 6780TIP3   OH241898   5.737   0.894   8.157 -0.1743 -0.5063  0.2076
 6780TIP3    H141899   5.830   0.914   8.143 -0.7384  2.2273 -0.1388
 6780TIP3    H241900   5.700   0.889   8.069 -0.1629 -3.0861  0.2732
 6781TIP3   OH241901   6.141   3.895   7.642 -0.3757  0.8263  0.3147
 6781TIP3    H141902   6.123   3.821   7.699 -0.2036  2.2237  2.2856
 6781TIP3    H241903   6.195   3.859   7.572 -0.5942 -0.9493  1.0071
 6782TIP3   OH241904   1.386   5.084   8.161  1.5450 -0.1563  0.6109
 6782TIP3    H141905   1.361   5.078   8.069  0.1331 -0.7775  1.0120
 6782TIP3    H241906   1.470   5.131   8.160  0.2493  2.3433 -0.7888
 6783TIP3   OH241907   5.821   5.616   8.642 -0.5652  0.6960  0.0402
 6783TIP3    H141908   5.846   5.582   8.556  0.3627  2.3875 -0.4136
 6783TIP3    H241909   5.884   5.687   8.658  0.9995 -1.2025  3.2900
 6784TIP3   OH241910   4.306   1.171   2.002  0.4025 -0.0451  0.3141
 6784TIP3    H141911   4.266   1.243   1.953  2.3035  0.6993 -0.2474
 6784TIP3    H241912   4.233   1.114   2.025 -0.7804  0.4974 -1.8453
 6785TIP3   OH241913   3.147   6.576   6.458  0.1637 -0.1012 -0.8473
 6785TIP3    H141914   3.170   6.626   6.380  0.1067 -1.1068 -1.5358
 6785TIP3    H241915   3.165   6.485   6.434  0.5068 -0.3948  0.4535
 6786TIP3   OH241916   1.417   5.346   6.482  0.6986 -0.8330 -0.4052
 6786TIP3    H141917   1.478   5.330   6.410  1.8443 -1.8992  0.7627
 6786TIP3    H241918   1.472   5.362   6.558 -0.4947  1.3561  0.0668
 6787TIP3   OH241919   0.956   5.440   8.157  0.0156 -0.7522 -0.2227
 6787TIP3    H141920   1.001   5.524   8.158 -2.9745  0.9831  1.1421
 6787TIP3    H241921   0.886   5.450   8.091 -0.5350 -2.0932  0.1079
 6788TIP3   OH241922   5.205   3.361   1.429 -0.3087 -0.2683  0.2847
 6788TIP3    H141923   5.208   3.450   1.465 -2.1086  0.6175 -1.5446
 6788TIP3    H241924   5.125   3.323   1.465  0.4771 -1.1938  1.0974
 6789TIP3   OH241925   0.404   1.180   6.289 -0.3562  0.2362  0.3967
 6789TIP3    H141926   0.363   1.093   6.294  0.6511 -0.1734  3.1795
 6789TIP3    H241927   0.497   1.161   6.280 -0.3478  1.1287 -2.0370
 6790TIP3   OH241928   1.618   4.482   2.348  0.1313 -0.6082 -0.7243
 6790TIP3    H141929   1.637   4.545   2.278  1.0916  1.0862  0.9803
 6790TIP3    H241930   1.703   4.445   2.371  0.1433  0.2848  0.8086
 6791TIP3   OH241931   0.757   3.653   1.974  0.1751  0.8969 -0.0824
 6791TIP3    H141932   0.774   3.574   1.922 -2.0816  0.4538 -0.2812
 6791TIP3    H241933   0.843   3.684   2.000  1.1852 -1.0814 -0.8351
 6792TIP3   OH241934   3.798   1.069   7.610  0.0459 -0.3980  0.0986
 6792TIP3    H141935   3.745   1.125   7.553 -2.6618 -0.4050  2.3811
 6792TIP3    H241936   3.861   1.129   7.650 -0.8892  0.4777  0.3015
 6793TIP3   OH241937   1.227   0.452   7.158  0.2707  0.4909  0.2395
 6793TIP3    H141938   1.220   0.442   7.253  0.1753  0.6620  0.2506
 6793TIP3    H241939   1.139   0.432   7.125  0.7081 -1.2513  0.0350
 6794TIP3   OH241940   1.848   0.653   7.203 -0.1744  0.5736 -0.4379
 6794TIP3    H141941   1.766   0.639   7.249  0.3016 -1.0823 -0.0252
 6794TIP3    H241942   1.832   0.622   7.114  0.4730 -1.5305  0.1117
 6795TIP3   OH241943   0.500   0.132   6.750 -0.2621  0.5602 -0.0808
 6795TIP3    H141944   0.482   0.144   6.657 -0.1160 -1.7984 -0.4806
 6795TIP3    H241945   0.592   0.153   6.760 -0.0635 -0.0124 -0.6613
 6796TIP3   OH241946   3.163   0.611   8.082  0.0374  0.3522 -0.0369
 6796TIP3    H141947   3.157   0.680   8.148 -0.9613 -0.7130  1.0562
 6796TIP3    H241948   3.079   0.565   8.088 -0.3078  0.5200 -2.4456
 6797TIP3   OH241949   4.691   4.251   0.369 -0.2723  0.3279 -0.2059
 6797TIP3    H141950   4.655   4.184   0.427  0.7856  0.4566  0.6457
 6797TIP3    H241951   4.637   4.247   0.290 -1.7389  0.1175  0.7717
 6798TIP3   OH241952   0.929   1.738   8.553 -0.1623  0.3820 -0.3577
 6798TIP3    H141953   0.937   1.644   8.568 -1.4645  0.4446  0.8701
 6798TIP3    H241954   0.905   1.746   8.461  1.0602 -0.4084 -0.7621
 6799TIP3   OH241955   1.616   5.144   1.181 -0.8023  0.5824  0.0780
 6799TIP3    H141956   1.581   5.227   1.215 -1.1799 -0.4936  2.5540
 6799TIP3    H241957   1.568   5.076   1.230  0.0891 -1.0846 -1.2544
 6800TIP3   OH241958   1.576   0.806   0.622 -0.3810  0.1015 -0.5112
 6800TIP3    H141959   1.620   0.840   0.700  0.8599  0.2356 -1.2364
 6800TIP3    H241960   1.612   0.718   0.610 -0.3042  0.2087 -1.1162
 6801TIP3   OH241961   5.363   2.840   7.069  0.4186 -0.0011 -0.0289
 6801TIP3    H141962   5.450   2.863   7.102  0.1616  0.8870  0.0502
 6801TIP3    H241963   5.303   2.882   7.130 -0.0737 -1.2272  0.3420
 6802TIP3   OH241964   3.832   3.338   0.328  0.0220  0.2813 -0.6199
 6802TIP3    H141965   3.741   3.337   0.297  0.5638  0.7503 -2.3127
 6802TIP3    H241966   3.884   3.351   0.249  1.5782 -0.0208  0.3238
 6803TIP3   OH241967   2.057   3.284   7.817 -0.1994 -0.2647  0.2904
 6803TIP3    H141968   1.962   3.273   7.815 -0.2870  0.4934 -0.3230
 6803TIP3    H241969   2.091   3.210   7.767 -0.5309  0.0005 -0.3400
 6804TIP3   OH241970   4.712   1.160   1.090 -0.0855 -0.2423  0.6748
 6804TIP3    H141971   4.804   1.133   1.090  0.3625  1.1399 -0.9499
 6804TIP3    H241972   4.663   1.078   1.089  1.1408 -0.9967  0.4113
 6805TIP3   OH241973   4.586   6.032   1.285  0.3081  0.0428 -0.1348
 6805TIP3    H141974   4.521   6.092   1.324  1.4635  0.9073  0.5306
 6805TIP3    H241975   4.542   5.997   1.208 -1.2220  0.0504  0.6744
 6806TIP3   OH241976   4.022   3.907   7.095  0.2506 -0.8923  0.0834
 6806TIP3    H141977   4.054   3.997   7.089  1.6636 -1.0190  3.3474
 6806TIP3    H241978   4.042   3.868   7.010  0.4343  1.6217 -1.0935
 6807TIP3   OH241979   0.231   4.431   7.721 -0.2018  0.0464 -0.0444
 6807TIP3    H141980   0.145   4.397   7.696  0.5044 -0.8076 -1.4921
 6807TIP3    H241981   0.292   4.386   7.662  1.1127  1.5339  0.1146
 6808TIP3   OH241982   1.049   4.159   1.526  0.0059  0.0626 -0.1228
 6808TIP3    H141983   1.105   4.145   1.450  3.2505 -0.6157  2.1675
 6808TIP3    H241984   1.043   4.072   1.567  0.2088  0.7892  1.5284
 6809TIP3   OH241985   6.224   6.720   6.405  0.4181 -0.4539  0.8602
 6809TIP3    H141986   6.237   6.743   6.313 -0.2243  0.0119  0.8788
 6809TIP3    H241987   6.312   6.725   6.444  1.0231 -2.5328 -0.1158
 6810TIP3   OH241988   4.898   4.568   0.357 -0.1916 -0.1959  0.5342
 6810TIP3    H141989   4.854   4.501   0.410 -1.4047 -0.8707 -1.2269
 6810TIP3    H241990   4.859   4.558   0.270  0.9990  1.5437 -0.2360
 6811TIP3   OH241991   5.880   6.824   6.393 -0.1700  0.1809 -0.1649
 6811TIP3    H141992   5.893   6.844   6.300 -0.3910 -1.8777 -0.6960
 6811TIP3    H241993   5.809   6.882   6.420  0.1814  1.1241 -1.1467
 6812TIP3   OH241994   1.855   6.132   2.307  0.2441 -0.1399  0.3579
 6812TIP3    H141995   1.790   6.061   2.302  0.1019  0.0585 -1.4016
 6812TIP3    H241996   1.828   6.184   2.383 -1.4464 -0.2964 -0.0783
 6813TIP3   OH241997   1.217   1.142   8.160  0.0774 -0.6788 -0.3793
 6813TIP3    H141998   1.208   1.223   8.110 -1.7934  0.2610  1.3696
 6813TIP3    H241999   1.180   1.074   8.103  0.4417 -0.1002 -1.3203
 6814TIP3   OH242000   4.702   2.430   1.585 -0.3239 -0.4958  0.7646
 6814TIP3    H142001   4.695   2.361   1.651  0.8227  0.1125  1.5544
 6814TIP3    H242002   4.638   2.496   1.611  1.5300  0.7117  2.5269
 6815TIP3   OH242003   2.911   5.895   7.326  0.1630  0.4118 -0.3864
 6815TIP3    H142004   2.996   5.868   7.289 -0.5429 -0.4952 -1.3938
 6815TIP3    H242005   2.924   5.888   7.421  0.7977 -1.1393 -0.5385
 6816TIP3   OH242006   1.801   6.813   7.890 -0.8622  0.2702  0.3015
 6816TIP3    H142007   1.755   6.890   7.857  1.1418  2.2190  1.7719
 6816TIP3    H242008   1.753   6.788   7.969  0.2269  1.9885  1.5559
 6817TIP3   OH242009   0.399   4.221   1.068 -0.1892 -0.3008  0.0938
 6817TIP3    H142010   0.314   4.252   1.099 -0.3239 -0.6621  0.0801
 6817TIP3    H242011   0.462   4.277   1.114 -0.3868 -0.7670  0.9723
 6818TIP3   OH242012   0.450   0.981   0.680  0.2235  0.4759  0.5234
 6818TIP3    H142013   0.411   1.047   0.623  0.0730  0.2066  0.3145
 6818TIP3    H242014   0.490   0.918   0.621  1.2509  0.9103  0.7450
 6819TIP3   OH242015   4.939   6.668   1.268  0.1437  0.0082 -0.0733
 6819TIP3    H142016   4.961   6.756   1.238  1.8197 -0.1927  0.4636
 6819TIP3    H242017   4.881   6.683   1.343 -0.0592  0.6315 -0.3435
 6820TIP3   OH242018   3.034   1.110   8.133  0.1976 -0.1073 -0.5780
 6820TIP3    H142019   2.941   1.127   8.145 -0.4143 -2.7758 -1.0135
 6820TIP3    H242020   3.074   1.197   8.132 -2.1000  1.0539  0.8561
 6821TIP3   OH242021   3.417   6.316   0.478  0.2493  0.4244 -0.2188
 6821TIP3    H142022   3.508   6.334   0.503  0.6805 -0.3591 -1.1809
 6821TIP3    H242023   3.406   6.222   0.495  0.6805 -0.2521 -3.1787
 6822TIP3   OH242024   2.710   6.617   2.676  0.0755 -0.0166  0.2883
 6822TIP3    H142025   2.747   6.666   2.749  1.2319  1.2457 -1.0627
 6822TIP3    H242026   2.780   6.556   2.650  0.2345  0.5469 -0.6445
 6823TIP3   OH242027   4.777   5.635   0.295 -0.6961 -0.1001 -0.1636
 6823TIP3    H142028   4.849   5.596   0.345 -0.7083 -1.6115 -1.2607
 6823TIP3    H242029   4.716   5.667   0.362  0.5807  0.4770  0.7785
 6824TIP3   OH242030   0.953   0.838   7.234 -0.4551  0.8755 -0.3461
 6824TIP3    H142031   0.893   0.767   7.258 -0.1010  0.8523  0.5333
 6824TIP3    H242032   0.896   0.912   7.213 -0.8181  0.4644 -0.8103
 6825TIP3   OH242033   2.337   5.820   0.930  0.1025  0.5118  0.4194
 6825TIP3    H142034   2.306   5.764   1.001 -0.3386  0.1695 -0.0388
 6825TIP3    H242035   2.331   5.765   0.852  0.1084  1.0480  0.0388
 6826TIP3   OH242036   5.471   1.365   1.301 -0.6582  0.1148  0.2020
 6826TIP3    H142037   5.432   1.438   1.252 -3.1682 -2.0180 -1.2083
 6826TIP3    H242038   5.484   1.297   1.236 -1.4628 -1.8462  1.9965
 6827TIP3   OH242039   5.604   4.133   8.478 -0.5110 -0.0153 -0.8100
 6827TIP3    H142040   5.632   4.111   8.389  0.7078 -2.3794  0.0693
 6827TIP3    H242041   5.529   4.077   8.494 -1.7127  1.5343 -0.8440
 6828TIP3   OH242042   0.754   0.625   2.679  0.4721 -0.2701  0.6490
 6828TIP3    H142043   0.846   0.612   2.705  0.5070 -0.5386  0.3902
 6828TIP3    H242044   0.736   0.553   2.619 -0.1851 -0.7565  1.4100
 6829TIP3   OH242045   3.607   3.191   0.359 -0.2258  0.0038 -0.4562
 6829TIP3    H142046   3.681   3.170   0.416 -1.6150 -1.7840  0.7819
 6829TIP3    H242047   3.568   3.270   0.397 -1.3708 -1.3887  1.3617
 6830TIP3   OH242048   1.446   6.700   6.897  0.1379 -0.1902 -0.0895
 6830TIP3    H142049   1.424   6.790   6.922  1.1077 -0.2409  1.0785
 6830TIP3    H242050   1.382   6.646   6.941 -1.1161 -0.0518 -1.6582
 6831TIP3   OH242051   0.906   5.183   7.786 -0.4955  0.4429 -0.2114
 6831TIP3    H142052   0.861   5.131   7.852  0.7529 -0.1920  0.1723
 6831TIP3    H242053   0.906   5.127   7.708  1.5809 -0.5859  0.4307
 6832TIP3   OH242054   6.735   5.065   8.144 -0.3752  0.2780 -0.1553
 6832TIP3    H142055   6.764   5.035   8.230 -1.7719 -2.1766 -0.4257
 6832TIP3    H242056   6.814   5.066   8.091  0.4592  1.5477  1.0609
 6833TIP3   OH242057   5.267   3.704   1.815 -0.3645 -0.2561  0.1101
 6833TIP3    H142058   5.333   3.772   1.798 -0.2104 -0.4416 -0.0429
 6833TIP3    H242059   5.221   3.735   1.893 -0.1909 -0.0531  0.1352
 6834TIP3   OH242060   4.900   1.937   0.140 -0.1433 -0.5353  0.1535
 6834TIP3    H142061   4.852   1.921   0.059 -0.4668 -2.0898  0.6199
 6834TIP3    H242062   4.843   1.903   0.209  2.0102 -3.5078  0.6487
 6835TIP3   OH242063   2.041   6.286   7.821 -0.1613  0.8194  0.1269
 6835TIP3    H142064   1.966   6.344   7.810 -1.6342 -0.7920  1.1632
 6835TIP3    H242065   2.076   6.308   7.908  0.3771  1.3193 -0.2054
 6836TIP3   OH242066   2.210   3.205   1.347 -0.9161  0.3868 -0.0701
 6836TIP3    H142067   2.163   3.232   1.268 -1.3323 -1.7251 -0.6032
 6836TIP3    H242068   2.146   3.155   1.397  0.4553 -1.9047 -0.4429
 6837TIP3   OH242069   1.692   2.847   0.826  0.5945 -0.3341 -0.4453
 6837TIP3    H142070   1.750   2.857   0.901  0.3058 -0.1311 -0.2424
 6837TIP3    H242071   1.690   2.934   0.785  1.2531 -0.6007 -1.0713
 6838TIP3   OH242072   4.142   4.309   1.627  0.3237  0.1446  0.0158
 6838TIP3    H142073   4.149   4.221   1.663  4.5370  0.3044  0.0131
 6838TIP3    H242074   4.157   4.299   1.533 -1.9853  0.6837 -0.4909
 6839TIP3   OH242075   0.577   6.726   0.795  0.0330  0.1032 -0.3678
 6839TIP3    H142076   0.507   6.767   0.846 -0.7851 -0.0476 -1.3248
 6839TIP3    H242077   0.658   6.752   0.839 -0.4855  2.1879 -0.5593
 6840TIP3   OH242078   2.113   6.847   0.302 -0.4141  0.0564  0.5289
 6840TIP3    H142079   2.049   6.861   0.372 -1.5139 -0.2426 -0.4014
 6840TIP3    H242080   2.134   6.935   0.271 -0.7942  0.1230  0.4596
 6841TIP3   OH242081   2.889   2.398   0.373  0.4142  0.2405 -0.1581
 6841TIP3    H142082   2.853   2.455   0.441 -1.9244 -2.3566  0.9533
 6841TIP3    H242083   2.934   2.458   0.314 -1.5052  3.1888  1.1136
 6842TIP3   OH242084   5.721   4.655   7.573 -0.0945 -0.1764 -0.2294
 6842TIP3    H142085   5.634   4.617   7.583 -0.2834  0.1568 -0.5654
 6842TIP3    H242086   5.759   4.652   7.660 -1.1352  1.3230  0.3193
 6843TIP3   OH242087   0.587   2.488   0.265  0.4837 -0.2412  0.5233
 6843TIP3    H142088   0.566   2.404   0.223  0.9907 -0.6509  1.0734
 6843TIP3    H242089   0.614   2.545   0.193  1.5750 -1.0029  0.3002
 6844TIP3   OH242090   3.661   1.149   1.519  0.9886  0.6651 -0.7244
 6844TIP3    H142091   3.580   1.171   1.565  1.9240 -0.7135  1.7813
 6844TIP3    H242092   3.677   1.223   1.461  0.0357  2.8691  1.6743
 6845TIP3   OH242093   1.924   3.368   6.102 -0.0739 -0.4395  0.0574
 6845TIP3    H142094   1.943   3.449   6.055 -1.5861  0.9142  1.6010
 6845TIP3    H242095   1.865   3.319   6.044 -3.1424  1.8696  0.9385
 6846TIP3   OH242096   2.607   5.714   1.083  0.3962 -0.2214  0.9058
 6846TIP3    H142097   2.623   5.639   1.140 -0.0124  0.5784  2.1219
 6846TIP3    H242098   2.603   5.677   0.995 -0.1954 -1.6690  1.5111
 6847TIP3   OH242099   2.805   6.318   2.341  0.1129 -0.1020  0.7246
 6847TIP3    H142100   2.875   6.316   2.275  0.7424 -0.4163  1.3885
 6847TIP3    H242101   2.725   6.300   2.292  0.4873  0.3205 -0.0589
 6848TIP3   OH242102   4.426   4.568   7.347  0.1649  0.4330 -0.1084
 6848TIP3    H142103   4.365   4.580   7.419 -3.5700  0.6885 -2.9986
 6848TIP3    H242104   4.434   4.655   7.308  1.5214  0.1646 -0.4704
 6849TIP3   OH242105   0.733   1.981   7.917 -0.2622 -0.5008 -0.0461
 6849TIP3    H142106   0.710   2.072   7.935 -1.5731 -0.5886 -1.1782
 6849TIP3    H242107   0.650   1.933   7.922  0.1938 -1.4096 -0.8351
 6850TIP3   OH242108   3.826   6.547   7.333  0.3593  0.7946 -0.1646
 6850TIP3    H142109   3.917   6.569   7.313  0.3811  2.3208  1.3360
 6850TIP3    H242110   3.829   6.507   7.420 -0.1434 -1.8196 -1.2631
 6851TIP3   OH242111   3.912   4.689   8.333 -0.4633 -0.1643 -0.0332
 6851TIP3    H142112   3.850   4.624   8.301  0.5606 -1.1353 -0.0756
 6851TIP3    H242113   3.980   4.639   8.378  0.0378  0.9115  0.4487
 6852TIP3   OH242114   0.613   6.424   6.863 -0.0907  0.1439 -0.1205
 6852TIP3    H142115   0.519   6.411   6.870 -0.1302  0.6459  0.3537
 6852TIP3    H242116   0.623   6.481   6.786 -0.3244  1.4854  0.7976
 6853TIP3   OH242117   4.793   3.807   7.161  0.2708 -0.6423 -0.0137
 6853TIP3    H142118   4.866   3.746   7.165 -0.2585 -1.4096 -1.4988
 6853TIP3    H242119   4.823   3.878   7.104  0.0182 -0.7324 -0.2609
 6854TIP3   OH242120   3.994   5.561   8.202  0.9163 -0.0506 -0.4295
 6854TIP3    H142121   4.068   5.522   8.156  1.1829 -1.2109  0.9202
 6854TIP3    H242122   4.013   5.547   8.295 -1.8110 -2.0524 -0.0229
 6855TIP3   OH242123   0.809   5.997   7.064  0.0421  0.2019  0.4676
 6855TIP3    H142124   0.894   5.956   7.047 -0.4836 -0.6823 -0.0770
 6855TIP3    H242125   0.799   6.062   6.995 -1.5323 -2.5313 -2.1164
 6856TIP3   OH242126   2.693   1.646   6.369  0.3729 -0.4491  0.6706
 6856TIP3    H142127   2.637   1.724   6.376  1.4547  0.3113  1.0071
 6856TIP3    H242128   2.639   1.575   6.407 -0.6617  0.0932  0.2581
 6857TIP3   OH242129   2.588   4.618   1.370  0.4262  0.3446  0.6112
 6857TIP3    H142130   2.506   4.629   1.322  1.1772  3.9236 -0.1529
 6857TIP3    H242131   2.562   4.577   1.453 -2.0617  0.9670  0.2140
 6858TIP3   OH242132   3.554   0.125   8.079 -0.5352  0.1632  0.5448
 6858TIP3    H142133   3.612   0.074   8.136  0.3574 -0.9492 -1.2942
 6858TIP3    H242134   3.466   0.101   8.108 -0.1701  1.3852  2.9410
 6859TIP3   OH242135   4.241   2.079   1.359  1.1419 -0.5531 -0.2858
 6859TIP3    H142136   4.208   2.072   1.448 -0.4334 -1.0842 -0.8755
 6859TIP3    H242137   4.241   1.989   1.326  1.3559 -0.3229 -0.9259
 6860TIP3   OH242138   0.590   6.169   0.580 -0.2374 -0.5805 -0.1573
 6860TIP3    H142139   0.600   6.225   0.657 -0.8431 -0.2155 -0.3349
 6860TIP3    H242140   0.576   6.081   0.615  2.1749 -0.9218  0.1162
 6861TIP3   OH242141   2.677   3.704   1.849 -0.3018  0.4001  0.6286
 6861TIP3    H142142   2.582   3.691   1.849 -0.0824 -1.5601  0.9612
 6861TIP3    H242143   2.706   3.671   1.934  0.7367  0.4765  0.3223
 6862TIP3   OH242144   1.699   5.190   1.596  0.0972 -0.0489  0.0990
 6862TIP3    H142145   1.754   5.269   1.600 -0.0667  0.0736 -0.0792
 6862TIP3    H242146   1.621   5.213   1.647 -0.3188  0.1947 -0.6328
 6863TIP3   OH242147   2.547   5.301   0.616  0.0901  0.0020  0.5144
 6863TIP3    H142148   2.530   5.250   0.694  1.1152 -1.6619 -0.3023
 6863TIP3    H242149   2.462   5.308   0.573 -0.2871  0.0797  1.2580
 6864TIP3   OH242150   4.136   5.478   0.357 -0.0823 -0.3285  0.1343
 6864TIP3    H142151   4.104   5.398   0.397 -1.4529 -0.3735 -0.9869
 6864TIP3    H242152   4.057   5.527   0.333  0.6915  0.3774 -1.1118
 6865TIP3   OH242153   3.459   0.309   0.705 -0.1185 -0.7131 -0.5148
 6865TIP3    H142154   3.443   0.399   0.676  0.9926 -0.1073  0.6378
 6865TIP3    H242155   3.496   0.265   0.628  1.6594  0.5189 -0.4245
 6866TIP3   OH242156   1.450   3.370   8.000 -0.6739  0.2248 -0.5330
 6866TIP3    H142157   1.399   3.331   7.929  0.4552 -0.9611 -0.7478
 6866TIP3    H242158   1.523   3.414   7.956  1.1008 -2.1128 -0.1283
 6867TIP3   OH242159   0.759   0.427   1.753 -0.6356 -0.5058 -0.1780
 6867TIP3    H142160   0.744   0.521   1.747 -0.0315 -0.4657 -1.2175
 6867TIP3    H242161   0.838   0.412   1.702 -0.4905 -1.5227  0.3272
 6868TIP3   OH242162   0.176   5.314   1.638  0.1577 -0.1225  1.2580
 6868TIP3    H142163   0.088   5.325   1.602  0.2089  1.3494  1.5227
 6868TIP3    H242164   0.209   5.235   1.596 -0.6837  0.2083 -0.0995
 6869TIP3   OH242165   5.142   3.997   0.374 -0.5099 -0.1627 -0.2417
 6869TIP3    H142166   5.168   3.961   0.290 -0.4793 -0.1144 -0.2528
 6869TIP3    H242167   5.083   4.069   0.352  1.1050  1.2071 -0.2993
 6870TIP3   OH242168   5.797   0.068   7.623 -0.3987  0.2081 -0.5236
 6870TIP3    H142169   5.868   0.132   7.632 -1.0139  0.8505 -0.0199
 6870TIP3    H242170   5.840  -0.012   7.593  0.3917  0.8662 -1.2162
 6871TIP3   OH242171   0.187   2.922   7.338  0.4023  0.1406  0.2422
 6871TIP3    H142172   0.185   2.860   7.265 -1.1651  0.4276  0.0066
 6871TIP3    H242173   0.279   2.927   7.362  0.9210 -0.1960 -1.5044
 6872TIP3   OH242174   2.672   4.960   1.275  0.2465 -0.3406  0.3570
 6872TIP3    H142175   2.601   4.992   1.331 -1.2399  1.2198 -2.2238
 6872TIP3    H242176   2.733   5.034   1.270 -1.2541  0.8676 -2.4991
 6873TIP3   OH242177   6.211   5.378   7.202 -0.8615  0.5861  0.5303
 6873TIP3    H142178   6.209   5.327   7.283  1.7397  0.5920  0.6641
 6873TIP3    H242179   6.185   5.466   7.229  1.6150  1.0118  1.7859
 6874TIP3   OH242180   5.098   1.633   0.068  0.7039 -0.7529 -0.1718
 6874TIP3    H142181   5.127   1.661   0.155 -1.9930 -1.5715  1.0924
 6874TIP3    H242182   5.147   1.689   0.007  2.1589  0.3254  1.8852
 6875TIP3   OH242183   6.380   6.644   0.553  0.1347  0.2795 -0.3077
 6875TIP3    H142184   6.374   6.710   0.484 -0.5749  0.9146  0.3506
 6875TIP3    H242185   6.336   6.567   0.516 -1.7043  1.1302  0.0200
 6876TIP3   OH242186   0.419   4.306   8.482 -0.6257 -0.0638  0.5469
 6876TIP3    H142187   0.362   4.382   8.484 -1.1538 -0.4754  2.0536
 6876TIP3    H242188   0.363   4.235   8.451  0.3628  0.4821 -2.9222
 6877TIP3   OH242189   3.691   4.548   2.094  0.0892  0.3610  0.4935
 6877TIP3    H142190   3.620   4.490   2.121 -0.2624 -0.1215 -1.3306
 6877TIP3    H242191   3.656   4.636   2.106 -0.8529  0.1278 -0.4427
 6878TIP3   OH242192   3.508   2.433   0.858  0.0427  0.1158 -0.5178
 6878TIP3    H142193   3.592   2.465   0.888  0.8623 -0.4878 -2.0604
 6878TIP3    H242194   3.529   2.369   0.790 -1.5507 -2.1935  0.9843
 6879TIP3   OH242195   4.850   4.111   7.320  0.0825  0.2793 -0.1850
 6879TIP3    H142196   4.840   4.176   7.250  0.7940  0.7753  0.1639
 6879TIP3    H242197   4.931   4.065   7.298  0.2744  0.3939  0.2759
 6880TIP3   OH242198   2.926   2.376   1.309 -0.4493  0.3470 -0.2402
 6880TIP3    H142199   2.996   2.335   1.258  0.1655 -1.9749  2.2668
 6880TIP3    H242200   2.869   2.304   1.334 -1.4491  1.5864  1.2568
 6881TIP3   OH242201   4.905   4.480   7.312  0.0036  1.0550  0.1430
 6881TIP3    H142202   4.845   4.469   7.385  0.6936  1.8035  0.8478
 6881TIP3    H242203   4.913   4.393   7.274 -1.8038  1.0151 -0.2085
 6882TIP3   OH242204   0.922   6.035   0.725  0.1642 -0.3824  0.0182
 6882TIP3    H142205   0.958   5.956   0.766  1.5844  0.3652  0.2726
 6882TIP3    H242206   0.888   6.006   0.641  0.4356 -1.3009  0.2222
 6883TIP3   OH242207   5.840   2.243   7.072 -0.0613 -0.0289 -0.2594
 6883TIP3    H142208   5.754   2.235   7.031 -0.3513  0.4584  0.2436
 6883TIP3    H242209   5.862   2.336   7.064  0.1186 -0.0304  0.1985
 6884TIP3   OH242210   0.868   6.299   8.138  0.0755  0.3199 -0.1764
 6884TIP3    H142211   0.812   6.270   8.210  1.0277 -1.9592 -0.2741
 6884TIP3    H242212   0.807   6.316   8.066 -0.9212  2.8900  1.1258
 6885TIP3   OH242213   4.797   2.249   8.122 -0.4572  0.1695 -0.0026
 6885TIP3    H142214   4.715   2.289   8.093 -1.5566 -2.8122 -1.3835
 6885TIP3    H242215   4.859   2.268   8.052 -0.5607  0.6046  0.0201
 6886TIP3   OH242216   5.538   4.734   1.261 -0.3767 -0.5033  0.2260
 6886TIP3    H142217   5.595   4.810   1.268 -0.9913  0.0460 -0.5597
 6886TIP3    H242218   5.563   4.679   1.335  0.7268  0.0128  0.2602
 6887TIP3   OH242219   3.696   0.037   7.409  0.1279 -0.0560  0.1822
 6887TIP3    H142220   3.723   0.124   7.437  0.1053 -0.3216  1.0542
 6887TIP3    H242221   3.770   0.004   7.357  0.5951  0.0587  0.7628
 6888TIP3   OH242222   6.701   4.452   7.137  0.0549  0.1414 -0.3304
 6888TIP3    H142223   6.641   4.408   7.197 -0.5012 -2.2132 -2.4140
 6888TIP3    H242224   6.646   4.480   7.064  1.0748  0.4208 -1.0089
 6889TIP3   OH242225   0.019   5.726   7.878 -0.7328  0.1183  0.6621
 6889TIP3    H142226   0.068   5.650   7.908 -0.2787 -0.2834 -0.9572
 6889TIP3    H242227   0.048   5.798   7.934 -0.6636 -0.7565  1.7693
 6890TIP3   OH242228   1.937   6.521   1.655  0.4224  0.4394 -0.2750
 6890TIP3    H142229   1.850   6.482   1.669  0.2688  0.3673 -1.3470
 6890TIP3    H242230   1.996   6.465   1.705 -0.2864  1.2352  1.5215
 6891TIP3   OH242231   5.275   6.257   0.329 -0.1365 -0.1614  0.1613
 6891TIP3    H142232   5.317   6.331   0.372  0.3199 -0.7321  0.7229
 6891TIP3    H242233   5.198   6.238   0.382 -0.3464  0.0164 -0.0786
 6892TIP3   OH242234   6.115   3.452   0.868 -0.2300  0.0542 -0.7345
 6892TIP3    H142235   6.190   3.424   0.816 -0.4246  1.4074 -1.7853
 6892TIP3    H242236   6.120   3.548   0.869 -1.5732  0.1486 -0.2579
 6893TIP3   OH242237   4.978   3.664   6.911  0.0407 -0.9225 -0.0904
 6893TIP3    H142238   4.950   3.611   6.836 -0.1820  0.5795 -1.1181
 6893TIP3    H242239   4.910   3.730   6.920  0.9759  0.0296  0.2580
 6894TIP3   OH242240   2.506   3.236   1.123  0.2357 -0.3585  0.0159
 6894TIP3    H142241   2.455   3.315   1.143  0.3824 -0.6279  1.5611
 6894TIP3    H242242   2.580   3.239   1.183  1.5339 -0.4976 -1.5226
 6895TIP3   OH242243   0.184   2.726   0.547  0.2849  0.2939 -0.5028
 6895TIP3    H142244   0.133   2.785   0.491  0.0963  0.7159  0.1003
 6895TIP3    H242245   0.261   2.704   0.495 -0.8626 -0.9680 -1.7353
 6896TIP3   OH242246   1.186   3.256   8.675 -0.3845 -0.6662  0.3049
 6896TIP3    H142247   1.189   3.341   8.718  0.8852 -0.5813  0.0711
 6896TIP3    H242248   1.221   3.272   8.587  0.3233 -1.5164  0.4178
 6897TIP3   OH242249   1.092   5.405   1.471  0.0262  0.1958 -0.1635
 6897TIP3    H142250   1.175   5.358   1.467 -0.4240 -0.6008 -0.5320
 6897TIP3    H242251   1.052   5.376   1.553 -0.0410  0.2909 -0.1631
 6898TIP3   OH242252   4.977   1.281   7.669  0.2800  0.4036  0.5148
 6898TIP3    H142253   5.018   1.354   7.715  0.6372  0.9548 -0.6392
 6898TIP3    H242254   4.998   1.204   7.723  1.4332  0.9012  0.8028
 6899TIP3   OH242255   6.543   1.955   1.487 -0.1104 -0.1865 -0.0519
 6899TIP3    H142256   6.469   1.898   1.464 -0.8586  1.6189 -2.7013
 6899TIP3    H242257   6.516   1.998   1.568 -0.4376 -1.9990  0.8390
 6900TIP3   OH242258   5.646   2.457   7.938 -0.1969 -0.0047 -0.1762
 6900TIP3    H142259   5.729   2.496   7.911 -1.3936  1.4090 -2.0417
 6900TIP3    H242260   5.618   2.509   8.013  0.8226 -0.8455  0.8245
 6901TIP3   OH242261   1.085   1.259   0.701  0.4511 -0.1391 -0.1594
 6901TIP3    H142262   1.035   1.333   0.737  0.4528  0.6649 -1.7053
 6901TIP3    H242263   1.172   1.295   0.684  0.5345 -0.5657 -0.6672
 6902TIP3   OH242264   2.720   3.659   7.896  0.5380 -0.2073  0.0303
 6902TIP3    H142265   2.744   3.711   7.972  2.0745  0.2695 -0.7195
 6902TIP3    H242266   2.792   3.596   7.887 -0.0786 -0.8492 -0.4948
 6903TIP3   OH242267   2.985   5.554   6.705 -0.0695 -0.3026 -0.2057
 6903TIP3    H142268   2.891   5.563   6.723 -0.3252 -2.1002 -0.4946
 6903TIP3    H242269   3.026   5.621   6.760 -1.4686  0.0174  0.5005
 6904TIP3   OH242270   6.553   2.269   7.706  0.3446 -0.8688 -0.3840
 6904TIP3    H142271   6.503   2.252   7.626 -0.0978 -1.2614 -0.0376
 6904TIP3    H242272   6.643   2.248   7.683  0.2908 -0.5348 -0.9103
 6905TIP3   OH242273   1.316   2.853   7.944  0.0687  0.5378  0.0835
 6905TIP3    H142274   1.287   2.937   7.980  1.2578  0.6463  0.8704
 6905TIP3    H242275   1.329   2.798   8.020 -0.7246 -0.3920 -0.4339
 6906TIP3   OH242276   5.369   5.723   0.633  0.2911 -0.7365 -0.5391
 6906TIP3    H142277   5.306   5.689   0.570  0.4740 -1.4393 -0.3532
 6906TIP3    H242278   5.445   5.748   0.581  0.4500 -1.3366 -0.6053
 6907TIP3   OH242279   4.947   6.614   0.033  0.1080 -0.0713  0.1802
 6907TIP3    H142280   5.003   6.566  -0.028  0.0183 -1.6174  1.2742
 6907TIP3    H242281   4.960   6.706   0.009  3.3627 -0.3150  0.5539
 6908TIP3   OH242282   0.500   0.517   1.012 -0.1216  0.4354 -0.3896
 6908TIP3    H142283   0.531   0.479   0.930  2.2051 -0.8061  0.9412
 6908TIP3    H242284   0.552   0.596   1.024  0.9787 -0.4284  0.7714
 6909TIP3   OH242285   6.113   6.776   1.672 -0.0895 -0.4092 -0.0404
 6909TIP3    H142286   6.019   6.774   1.657 -0.4475  0.6896  1.7563
 6909TIP3    H242287   6.136   6.869   1.669  0.2192 -0.2771  3.1217
 6910TIP3   OH242288   2.826   2.966   1.772  0.1500  0.0812  0.0183
 6910TIP3    H142289   2.814   3.042   1.829 -1.3535 -1.0205  1.2594
 6910TIP3    H242290   2.872   2.902   1.827  1.2959  0.0312 -0.9743
 6911TIP3   OH242291   3.046   5.169   7.079  0.6066 -0.0725  0.1374
 6911TIP3    H142292   3.061   5.195   7.170 -0.4308 -1.9841  0.9218
 6911TIP3    H242293   3.091   5.085   7.070 -1.7102 -1.3884 -0.1467
 6912TIP3   OH242294   6.212   1.040   0.811  0.0392  0.0126 -0.7768
 6912TIP3    H142295   6.267   0.991   0.872 -1.9540 -1.3296  0.0705
 6912TIP3    H242296   6.152   0.975   0.775  0.0816  1.0890 -2.9506
 6913TIP3   OH242297   3.295   6.129   1.003  0.3567 -0.3321 -0.1494
 6913TIP3    H142298   3.243   6.057   0.967 -0.7088 -0.3010  1.2314
 6913TIP3    H242299   3.236   6.204   1.003  1.0399  0.2126 -0.3697
 6914TIP3   OH242300   4.732   5.741   7.174  0.5050  0.2493  0.4167
 6914TIP3    H142301   4.639   5.764   7.171  0.6302  0.6759 -0.2967
 6914TIP3    H242302   4.769   5.779   7.095  0.8368 -1.9006 -0.5380
 6915TIP3   OH242303   6.421   5.605   6.737  0.0603  0.2932 -0.1871
 6915TIP3    H142304   6.484   5.549   6.690 -0.0719  0.2664 -0.3326
 6915TIP3    H242305   6.434   5.692   6.699  0.7897  0.5203  0.5564
 6916TIP3   OH242306   6.106   3.745   1.275 -0.1333 -0.4270  0.0037
 6916TIP3    H142307   6.018   3.733   1.239 -0.9675  0.8090  1.5366
 6916TIP3    H242308   6.127   3.661   1.316 -0.0300 -1.1515 -1.4592
 6917TIP3   OH242309   6.479   2.988   0.248 -0.3015  0.3725  0.5011
 6917TIP3    H142310   6.525   2.965   0.329  2.0720  2.1446 -0.2180
 6917TIP3    H242311   6.444   3.075   0.264 -1.0393  0.1610  0.0808
 6918TIP3   OH242312   1.234   6.393   7.374  0.0946 -0.5160  0.6413
 6918TIP3    H142313   1.201   6.417   7.287  1.6112  0.0914  0.2022
 6918TIP3    H242314   1.264   6.303   7.364  2.5260  0.2805 -0.2398
 6919TIP3   OH242315   0.324   3.864   1.967 -0.0364 -0.2975  0.2530
 6919TIP3    H142316   0.282   3.856   2.053 -0.8686 -0.3499 -0.1446
 6919TIP3    H242317   0.417   3.870   1.986 -0.0965 -1.5472  1.1090
 6920TIP3   OH242318   1.661   3.848   2.741  0.0959 -0.2532  0.1031
 6920TIP3    H142319   1.734   3.874   2.797  0.6012 -1.2598 -0.0746
 6920TIP3    H242320   1.628   3.767   2.779 -0.2062 -0.4102 -0.4693
 6921TIP3   OH242321   2.553   2.786   6.902 -0.0434 -0.1452 -0.2304
 6921TIP3    H142322   2.628   2.821   6.854 -1.0487  0.3563 -1.5007
 6921TIP3    H242323   2.521   2.714   6.847 -0.5910 -0.2459  0.2093
 6922TIP3   OH242324   4.992   3.850   1.619  0.2083 -0.4977 -0.4760
 6922TIP3    H142325   5.013   3.757   1.615  1.1083 -0.3575  0.5926
 6922TIP3    H242326   4.908   3.853   1.666  0.4728 -0.7344  0.0142
 6923TIP3   OH242327   2.059   1.949   0.810  0.2981 -0.2245 -0.5369
 6923TIP3    H142328   2.137   1.895   0.799 -0.7392 -1.6998 -0.9641
 6923TIP3    H242329   2.082   2.010   0.881  2.0578 -0.1478 -1.1212
 6924TIP3   OH242330   1.977   2.731   8.224 -0.4148 -0.6077 -0.4194
 6924TIP3    H142331   1.901   2.777   8.189 -0.6830 -1.1942 -0.6066
 6924TIP3    H242332   2.027   2.799   8.269 -1.9393 -0.5086  1.2556
 6925TIP3   OH242333   2.131   4.952   7.979 -0.1204  0.3105  0.1605
 6925TIP3    H142334   2.059   4.899   7.946  0.2450 -0.7168  0.9631
 6925TIP3    H242335   2.103   4.979   8.066  0.2804  0.2574  0.3069
 6926TIP3   OH242336   1.944   2.591   1.449 -0.4177  0.0346 -0.5098
 6926TIP3    H142337   1.941   2.497   1.465  1.6103 -0.1927 -1.0758
 6926TIP3    H242338   1.861   2.612   1.407 -1.3350 -1.2925  0.5845
 6927TIP3   OH242339   6.046   6.231   0.479 -0.5869 -0.5655 -0.1245
 6927TIP3    H142340   6.027   6.260   0.389  0.5071  0.1718 -0.1317
 6927TIP3    H242341   5.972   6.265   0.531 -0.3613  0.5080 -0.4734
 6928TIP3   OH242342   5.888   3.793   7.203  0.0495 -0.1465 -0.4712
 6928TIP3    H142343   5.881   3.864   7.266 -0.6577  0.3562 -1.0992
 6928TIP3    H242344   5.918   3.834   7.123 -1.2235 -0.3834 -1.0928
 6929TIP3   OH242345   5.214   3.593   7.949  0.0057 -0.9328 -0.5385
 6929TIP3    H142346   5.264   3.668   7.982 -0.0434 -0.6981 -0.9936
 6929TIP3    H242347   5.281   3.529   7.924  0.1185 -3.0079  4.1057
 6930TIP3   OH242348   6.440   6.393   6.846 -0.5075  0.1591  0.5414
 6930TIP3    H142349   6.433   6.488   6.857  0.0590  0.1925  0.6292
 6930TIP3    H242350   6.466   6.381   6.754 -2.3594  0.0005 -0.0195
 6931TIP3   OH242351   1.670   0.018   7.259 -0.4075  0.3660  0.5053
 6931TIP3    H142352   1.715  -0.034   7.192  0.1024  0.6329  0.6383
 6931TIP3    H242353   1.713   0.104   7.255 -0.3038  0.3515  1.2495
 6932TIP3   OH242354   2.085   1.449   1.905  0.3586  0.1865 -0.7172
 6932TIP3    H142355   2.126   1.535   1.899 -0.7534  0.6714 -1.8232
 6932TIP3    H242356   2.158   1.388   1.906  1.2156  1.1399  0.9926
 6933TIP3   OH242357   2.864   6.145   8.416 -0.2824 -0.1840  0.2614
 6933TIP3    H142358   2.909   6.230   8.421  0.2534 -0.4412 -0.0722
 6933TIP3    H242359   2.828   6.143   8.327 -0.5263 -0.1956  0.3590
 6934TIP3   OH242360   1.311   2.308   1.227  0.0299  0.1723  0.4603
 6934TIP3    H142361   1.326   2.376   1.294  0.7963  1.2492 -0.7506
 6934TIP3    H242362   1.317   2.355   1.144 -0.8748 -1.1414 -0.3865
 6935TIP3   OH242363   3.042   1.776   8.420  0.4243  0.1676  0.0944
 6935TIP3    H142364   3.022   1.762   8.513  1.2988 -1.1762  0.1085
 6935TIP3    H242365   3.103   1.850   8.420  1.6151 -0.7809  0.7581
 6936TIP3   OH242366   2.028   3.570   7.842 -0.0671 -0.1466 -0.2645
 6936TIP3    H142367   2.045   3.481   7.873 -1.5304 -0.6394 -0.8059
 6936TIP3    H242368   1.986   3.614   7.916 -1.1550 -0.5306 -0.6295
 6937TIP3   OH242369   2.221   2.878   8.679 -0.8396 -0.8592 -0.2598
 6937TIP3    H142370   2.197   2.790   8.708 -0.8766 -0.6171  0.4523
 6937TIP3    H242371   2.138   2.926   8.674 -0.5664  0.0270  2.3664
 6938TIP3   OH242372   4.849   2.533   0.898  0.3627 -0.3094 -0.0398
 6938TIP3    H142373   4.802   2.489   0.827 -1.5793  1.0570  0.3084
 6938TIP3    H242374   4.938   2.545   0.864 -0.0131 -1.3609 -1.4811
 6939TIP3   OH242375   0.284   5.386   7.541 -0.3823  0.2549 -0.4342
 6939TIP3    H142376   0.358   5.340   7.503  0.0433 -1.3019  2.0369
 6939TIP3    H242377   0.214   5.379   7.476  0.6186 -1.2680 -1.3867
 6940TIP3   OH242378   2.320   6.054   6.651 -0.2710 -0.4530 -0.8126
 6940TIP3    H142379   2.386   6.099   6.598  0.2781 -0.0588  0.1889
 6940TIP3    H242380   2.342   5.961   6.642  2.1014 -0.2317  1.5884
 6941TIP3   OH242381   3.633   4.377   1.471  0.1807  0.0482  0.9119
 6941TIP3    H142382   3.602   4.422   1.550 -0.9325 -0.7504  0.9598
 6941TIP3    H242383   3.726   4.399   1.465 -0.0043  1.1383  1.7452
 6942TIP3   OH242384   4.670   3.613   2.812  0.1018 -0.3367 -0.1346
 6942TIP3    H142385   4.677   3.702   2.776  0.0001 -0.1068  0.4006
 6942TIP3    H242386   4.760   3.581   2.812  0.0891 -0.3654 -0.6656
 6943TIP3   OH242387   4.715   0.774   0.251 -0.3166 -0.2072 -0.9659
 6943TIP3    H142388   4.749   0.858   0.219  0.6071 -0.2578 -0.1880
 6943TIP3    H242389   4.711   0.786   0.346 -2.8444 -0.0976 -1.0088
 6944TIP3   OH242390   0.928   2.628   0.634 -0.6088  0.2523 -0.2858
 6944TIP3    H142391   0.979   2.670   0.565 -0.2293  0.4538  0.1136
 6944TIP3    H242392   0.844   2.608   0.593 -0.5365  0.7513 -0.6845
 6945TIP3   OH242393   3.389   3.658   0.810 -0.3238 -0.1223 -0.5621
 6945TIP3    H142394   3.316   3.600   0.835  1.0903 -1.9087 -0.3627
 6945TIP3    H242395   3.394   3.722   0.881  0.0266 -1.6881  0.8982
 6946TIP3   OH242396   3.909   6.786   6.645 -0.2155 -0.3174 -0.0488
 6946TIP3    H142397   3.958   6.851   6.595 -0.1091  0.4097  0.9876
 6946TIP3    H242398   3.835   6.762   6.587 -1.8623  2.7603  0.5905
 6947TIP3   OH242399   4.749   2.860   2.569 -0.2254 -0.2860  0.3877
 6947TIP3    H142400   4.756   2.808   2.488  1.0287  0.7034 -0.1853
 6947TIP3    H242401   4.658   2.850   2.597 -0.1898 -2.2151 -0.0760
 6948TIP3   OH242402   4.930   2.624   7.632 -0.0332  0.2348 -0.7582
 6948TIP3    H142403   4.957   2.586   7.548  0.2649 -0.6617 -0.2680
 6948TIP3    H242404   5.011   2.659   7.670  0.3182 -1.5783  0.2660
 6949TIP3   OH242405   2.837   3.845   1.671  0.4100 -0.4292  0.5233
 6949TIP3    H142406   2.850   3.936   1.696 -1.9269  0.0501  0.2145
 6949TIP3    H242407   2.793   3.805   1.746  1.1058 -1.2367  0.5186
 6950TIP3   OH242408   6.400   3.405   2.152  0.6134 -0.5345  0.0856
 6950TIP3    H142409   6.485   3.362   2.164  0.6747 -0.5253 -0.3068
 6950TIP3    H242410   6.371   3.425   2.241  1.2334 -0.1282  0.2080
 6951TIP3   OH242411   1.996   2.640   0.390  0.2210 -0.4344 -0.4662
 6951TIP3    H142412   1.996   2.577   0.462 -0.1832  0.3250  0.2137
 6951TIP3    H242413   2.063   2.607   0.329  0.4090 -1.2055  0.1425
 6952TIP3   OH242414   4.008   4.540   1.645  0.1652  0.3273  0.5281
 6952TIP3    H142415   4.008   4.585   1.560 -0.6162  0.5926  0.6667
 6952TIP3    H242416   4.056   4.459   1.628 -0.6989 -0.0225 -0.3928
 6953TIP3   OH242417   5.719   1.418   1.757 -0.1396 -0.0311 -0.6514
 6953TIP3    H142418   5.775   1.492   1.736 -1.7838  1.4797  0.0454
 6953TIP3    H242419   5.654   1.417   1.687 -1.8829  1.1062  0.8557
 6954TIP3   OH242420   2.579   0.043   6.286 -0.2701 -0.2685 -0.1454
 6954TIP3    H142421   2.666   0.083   6.285 -0.7906  0.8987 -0.2275
 6954TIP3    H242422   2.519   0.116   6.270 -1.3276 -0.8918  0.8408
 6955TIP3   OH242423   0.603   5.622   0.960  0.1789  0.2015  0.9872
 6955TIP3    H142424   0.599   5.551   1.024  0.8270 -1.0855 -0.3253
 6955TIP3    H242425   0.512   5.638   0.935  0.1322 -2.4039 -0.9626
 6956TIP3   OH242426   2.440   6.427   8.600  0.3787  0.3649  0.2023
 6956TIP3    H142427   2.536   6.419   8.605  0.2727 -1.7919 -0.0002
 6956TIP3    H242428   2.422   6.433   8.507  0.2778 -0.2295  0.1801
 6957TIP3   OH242429   5.244   1.313   8.292 -0.0712  0.9955 -0.1165
 6957TIP3    H142430   5.335   1.334   8.270  0.1121  0.7713  0.4141
 6957TIP3    H242431   5.237   1.219   8.277  0.4264  0.5790  1.9868
 6958TIP3   OH242432   4.734   0.800   2.628  0.4224 -0.2184 -0.2697
 6958TIP3    H142433   4.800   0.741   2.593  1.1877  0.4345  0.0573
 6958TIP3    H242434   4.743   0.794   2.723  0.1277 -0.0007 -0.2261
 6959TIP3   OH242435   1.680   5.550   8.119  0.9217  0.1710  0.2871
 6959TIP3    H142436   1.707   5.500   8.042  1.2263  0.9067 -0.0929
 6959TIP3    H242437   1.588   5.529   8.131  0.5156  1.0827 -1.0873
 6960TIP3   OH242438   6.743   5.133   6.618 -0.2153  0.1208  0.0177
 6960TIP3    H142439   6.663   5.154   6.665 -0.4038  0.9116 -0.6300
 6960TIP3    H242440   6.714   5.077   6.545 -0.0495 -0.3365  0.2970
 6961TIP3   OH242441   2.439   0.348   1.517 -0.3371 -0.1649  0.4024
 6961TIP3    H142442   2.356   0.352   1.470  0.0726  2.1338 -0.2425
 6961TIP3    H242443   2.491   0.284   1.468 -1.2755 -0.7230  0.0986
 6962TIP3   OH242444   1.114   2.852   0.692  0.2191 -0.3925 -0.1717
 6962TIP3    H142445   1.022   2.869   0.710  0.5322 -0.3378  1.5769
 6962TIP3    H242446   1.149   2.818   0.774  2.1213  1.1878 -0.2424
 6963TIP3   OH242447   5.474   5.009   0.318 -0.7250 -0.1161  0.1714
 6963TIP3    H142448   5.505   5.097   0.338 -1.3159  0.3392 -0.8795
 6963TIP3    H242449   5.382   5.009   0.343 -0.4110 -0.8651  1.4295
 6964TIP3   OH242450   0.689   5.328   1.534 -0.2576  0.8516  0.1670
 6964TIP3    H142451   0.622   5.261   1.521  0.2537  0.4932 -0.7246
 6964TIP3    H242452   0.660   5.402   1.481  0.6078  0.2759 -1.1572
 6965TIP3   OH242453   4.260   3.372   6.637  0.0279 -0.2558 -0.3490
 6965TIP3    H142454   4.351   3.394   6.616  0.2922 -0.4995  0.5029
 6965TIP3    H242455   4.211   3.452   6.620  0.4168 -0.0918 -0.7065
 6966TIP3   OH242456   3.398   6.410   0.743  0.0447 -0.1975  0.8048
 6966TIP3    H142457   3.378   6.317   0.747  1.2363 -0.4852  0.5256
 6966TIP3    H242458   3.359   6.439   0.660  0.6270 -0.7001  0.3481
 6967TIP3   OH242459   4.358   5.681   0.276  0.0602  0.0309 -0.0772
 6967TIP3    H142460   4.351   5.705   0.184  1.7956 -1.4282 -0.6429
 6967TIP3    H242461   4.278   5.631   0.294  0.9005 -2.0043 -1.6060
 6968TIP3   OH242462   5.677   0.304   0.571  0.2492 -0.4952  0.9604
 6968TIP3    H142463   5.722   0.224   0.543 -0.3479  0.0045 -1.6168
 6968TIP3    H242464   5.585   0.278   0.577  0.2843 -0.4439  2.0925
 6969TIP3   OH242465   0.397   1.576   1.070  0.0266 -0.0886  0.1828
 6969TIP3    H142466   0.314   1.585   1.117  0.3710  0.1993  0.7552
 6969TIP3    H242467   0.460   1.622   1.126  0.5432 -0.1970 -0.3105
 6970TIP3   OH242468   0.255   4.064   7.359 -0.1980  0.4030 -0.0558
 6970TIP3    H142469   0.285   4.101   7.276 -2.1297  1.6961 -0.2424
 6970TIP3    H242470   0.161   4.048   7.345 -0.2915 -0.5152  1.4818
 6971TIP3   OH242471   3.260   2.183   1.794  0.1127  0.4391 -0.1202
 6971TIP3    H142472   3.172   2.150   1.775  0.3712  0.4695 -1.4776
 6971TIP3    H242473   3.304   2.184   1.709  1.3975  0.5255  0.5237
 6972TIP3   OH242474   6.384   4.944   6.693 -0.5996 -0.4662 -0.4188
 6972TIP3    H142475   6.433   5.026   6.686  0.0366 -0.7641  0.3054
 6972TIP3    H242476   6.328   4.957   6.770  0.7481 -1.3110  0.7481
 6973TIP3   OH242477   4.731   2.968   0.517  0.1519  0.7056 -0.0587
 6973TIP3    H142478   4.782   3.033   0.566  1.3623  1.8528 -2.6783
 6973TIP3    H242479   4.642   3.002   0.518  0.3703  1.2909  0.3559
 6974TIP3   OH242480   1.401   1.738   0.516  0.0484 -0.0674  0.5586
 6974TIP3    H142481   1.421   1.654   0.557  1.6417 -0.9421 -1.8107
 6974TIP3    H242482   1.326   1.772   0.566 -0.2304 -2.5586  1.9945
 6975TIP3   OH242483   3.435   4.075   8.188 -0.3211 -0.0508  0.1702
 6975TIP3    H142484   3.486   4.120   8.255 -0.5959 -0.5552  0.7297
 6975TIP3    H242485   3.380   4.143   8.150  0.6319  0.4643 -0.3201
 6976TIP3   OH242486   6.760   0.662   2.435  0.6948  0.1663 -0.1267
 6976TIP3    H142487   6.757   0.644   2.529  1.1957  1.1949  0.1027
 6976TIP3    H242488   6.853   0.676   2.416  0.8028 -1.6731 -1.1210
 6977TIP3   OH242489   4.122   2.499   7.807 -0.4593  0.1243  0.2541
 6977TIP3    H142490   4.099   2.592   7.811 -0.7179  0.0130  1.8810
 6977TIP3    H242491   4.216   2.499   7.789 -0.6991  0.6604 -1.1017
 6978TIP3   OH242492   3.693   2.696   1.437  0.8217  0.2646  0.1869
 6978TIP3    H142493   3.739   2.648   1.506 -1.6049 -1.6613  0.6365
 6978TIP3    H242494   3.600   2.678   1.454  0.0577  0.9677 -2.7148
 6979TIP3   OH242495   3.694   6.208   1.499 -0.6531  0.7128  0.0225
 6979TIP3    H142496   3.692   6.304   1.505  2.0584  0.8310  0.4910
 6979TIP3    H242497   3.706   6.179   1.589 -1.0300 -0.0617 -0.1708
 6980TIP3   OH242498   5.781   4.704   7.046 -0.2079  0.0613 -0.2600
 6980TIP3    H142499   5.871   4.734   7.034 -0.0156  1.1095  2.7450
 6980TIP3    H242500   5.726   4.779   7.019 -0.0929  0.0675 -0.4736
 6981TIP3   OH242501   2.820   0.777   7.345 -0.3184  0.6697  0.2630
 6981TIP3    H142502   2.826   0.866   7.379  0.6920  0.4690  0.6258
 6981TIP3    H242503   2.850   0.721   7.417 -1.5558 -0.0245  0.2762
 6982TIP3   OH242504   6.671   6.498   7.364 -0.9393  0.6397  0.1421
 6982TIP3    H142505   6.583   6.473   7.394 -0.8889  1.7700  1.3238
 6982TIP3    H242506   6.675   6.468   7.273 -1.4636 -2.0994  0.9080
 6983TIP3   OH242507   4.692   3.367   7.022 -0.3161  0.1715 -0.0006
 6983TIP3    H142508   4.716   3.323   7.104  0.8854 -0.7270 -0.8052
 6983TIP3    H242509   4.601   3.342   7.007 -1.0380  1.5128  1.7748
 6984TIP3   OH242510   6.340   0.652   0.475 -0.1749 -0.0092  0.7002
 6984TIP3    H142511   6.422   0.668   0.428 -0.8356 -2.1942 -1.3947
 6984TIP3    H242512   6.287   0.730   0.456  0.8663  0.7879  0.9134
 6985TIP3   OH242513   1.687   5.651   0.703 -0.2137 -0.3102  0.1490
 6985TIP3    H142514   1.604   5.631   0.660 -1.5482  1.7392  1.5995
 6985TIP3    H242515   1.707   5.741   0.676 -0.4072  0.5472  2.6135
 6986TIP3   OH242516   3.801   2.868   2.211 -0.3006  0.0684 -0.0872
 6986TIP3    H142517   3.822   2.797   2.271  3.7264  0.7777 -0.3907
 6986TIP3    H242518   3.880   2.923   2.210 -2.3761  3.3432 -1.5691
 6987TIP3   OH242519   5.886   1.705   1.217 -0.2686  0.0758  0.1667
 6987TIP3    H142520   5.920   1.623   1.253 -0.6780  0.2141  0.8797
 6987TIP3    H242521   5.960   1.742   1.168  0.1092 -0.4084  0.3596
 6988TIP3   OH242522   0.885   3.990   1.010 -0.4387 -0.2775 -0.1225
 6988TIP3    H142523   0.907   3.981   1.103 -0.3342  1.1194  0.0096
 6988TIP3    H242524   0.790   3.988   1.007 -0.4300 -0.8970 -0.0571
 6989TIP3   OH242525   3.193   2.542   0.635 -0.2319 -0.3602 -0.5954
 6989TIP3    H142526   3.168   2.519   0.546 -0.5396  0.2616 -0.6721
 6989TIP3    H242527   3.223   2.632   0.630  1.6247 -0.9395 -0.4122
 6990TIP3   OH242528   0.627   0.173   0.197 -0.1705 -0.1160 -0.2633
 6990TIP3    H142529   0.671   0.124   0.128 -0.7088  1.0673 -1.4782
 6990TIP3    H242530   0.548   0.123   0.216  0.2148 -0.6909 -0.1555
 6991TIP3   OH242531   6.554   2.107   6.501  0.2084 -0.0192 -0.4323
 6991TIP3    H142532   6.476   2.081   6.452  2.0876 -2.7037 -2.3308
 6991TIP3    H242533   6.604   2.160   6.440  1.8021 -1.9936 -0.9726
 6992TIP3   OH242534   4.048   1.675   7.778 -0.0627 -0.3102 -0.4579
 6992TIP3    H142535   4.110   1.731   7.826  0.0766 -1.3039  0.5776
 6992TIP3    H242536   4.103   1.610   7.736 -0.3862 -1.5411  0.9252
 6993TIP3   OH242537   6.640   0.248   7.713 -0.2345  0.1543  0.4240
 6993TIP3    H142538   6.709   0.194   7.751 -0.8374 -0.2376  0.9925
 6993TIP3    H242539   6.686   0.319   7.668  0.5373 -0.2548  0.5581
 6994TIP3   OH242540   5.613   4.126   1.350 -0.1762 -0.3643 -0.0032
 6994TIP3    H142541   5.703   4.151   1.330  0.1552 -0.9917  0.6461
 6994TIP3    H242542   5.603   4.038   1.313 -0.5204 -0.2964 -0.0774
 6995TIP3   OH242543   3.450   5.458   7.228  0.7186 -0.1581 -0.5482
 6995TIP3    H142544   3.533   5.503   7.214 -0.0858  1.2411 -0.9949
 6995TIP3    H242545   3.384   5.521   7.202 -0.4894 -1.3597 -0.4842
 6996TIP3   OH242546   4.346   5.821   1.685  0.1872  0.2250 -0.0233
 6996TIP3    H142547   4.276   5.758   1.702 -0.0288  0.5150  0.1730
 6996TIP3    H242548   4.382   5.794   1.601 -0.9801  0.7910 -0.7436
 6997TIP3   OH242549   4.780   4.611   1.342  0.0876 -0.1991  0.1268
 6997TIP3    H142550   4.861   4.568   1.369  0.5646  0.2353 -0.5625
 6997TIP3    H242551   4.800   4.705   1.345 -0.3711 -0.0860 -0.0922
 6998TIP3   OH242552   3.853   6.011   8.049 -0.1237 -0.4957 -0.2783
 6998TIP3    H142553   3.765   5.976   8.037  0.1204 -0.9711 -0.7487
 6998TIP3    H242554   3.906   5.934   8.071 -0.6041  0.2687  4.6126
 6999TIP3   OH242555   6.321   2.144   6.367  0.5517 -0.0268  0.5838
 6999TIP3    H142556   6.277   2.226   6.343  0.2366  0.6110  3.0915
 6999TIP3    H242557   6.250   2.086   6.393  0.8759 -0.6422  0.1051
 7000TIP3   OH242558   0.051   4.422   1.322  0.2239 -0.0355  1.0215
 7000TIP3    H142559  -0.027   4.396   1.273  1.7422 -2.2023 -0.4413
 7000TIP3    H242560   0.018   4.475   1.394 -2.4321  0.4775 -0.4494
 7001TIP3   OH242561   1.845   5.143   1.330 -0.1734 -0.0780 -0.1716
 7001TIP3    H142562   1.812   5.202   1.397 -1.0008  1.4330 -1.8109
 7001TIP3    H242563   1.785   5.154   1.256  0.5331 -1.8629 -1.0866
 7002TIP3   OH242564   2.642   3.224   0.527 -0.0327 -0.0240 -0.2049
 7002TIP3    H142565   2.669   3.304   0.483  1.6101 -0.2671  0.3056
 7002TIP3    H242566   2.635   3.249   0.620 -0.4239 -0.2601 -0.1673
 7003TIP3   OH242567   6.361   6.015   7.918  0.2199  0.4635  0.2167
 7003TIP3    H142568   6.453   5.989   7.904  0.3745 -1.0131  3.1655
 7003TIP3    H242569   6.311   5.934   7.906 -0.3135  0.5829  1.4847
 7004TIP3   OH242570   6.441   4.690   1.704 -0.3115  0.1358 -0.2261
 7004TIP3    H142571   6.359   4.651   1.736 -0.4566  0.4019 -0.2664
 7004TIP3    H242572   6.507   4.661   1.766  0.1367 -2.5199 -1.7981
 7005TIP3   OH242573   2.220   3.779   6.395 -0.1681 -0.6926 -0.1327
 7005TIP3    H142574   2.180   3.811   6.477 -1.6916 -1.8090 -0.3957
 7005TIP3    H242575   2.176   3.829   6.326  0.0199 -0.8245 -0.3488
 7006TIP3   OH242576   5.013   0.420   7.023 -0.1072 -0.6979  0.6187
 7006TIP3    H142577   5.014   0.379   6.936  0.2258  0.1496  0.2078
 7006TIP3    H242578   5.101   0.405   7.058  0.3718  0.5742  0.0127
 7007TIP3   OH242579   2.949   4.162   0.256  0.1579 -0.0667  0.1676
 7007TIP3    H142580   2.934   4.237   0.198  0.9392 -0.8295 -1.0796
 7007TIP3    H242581   3.039   4.174   0.287  1.9423 -2.4891 -3.3362
 7008TIP3   OH242582   2.907   6.726   7.545 -0.6929 -0.6204  0.8772
 7008TIP3    H142583   2.943   6.779   7.617  0.5900  0.4416 -0.4895
 7008TIP3    H242584   2.949   6.640   7.555 -0.7293 -0.5680  1.5329
 7009TIP3   OH242585   0.140   0.952   7.572  0.4341 -0.3779 -0.3003
 7009TIP3    H142586   0.204   1.022   7.588  0.4786 -0.2397 -1.0352
 7009TIP3    H242587   0.159   0.923   7.482  0.8689 -1.7980  0.2149
 7010TIP3   OH242588   3.638   0.128   1.394 -0.2488 -0.5364  0.5232
 7010TIP3    H142589   3.595   0.209   1.365 -0.5547 -1.0622 -0.5638
 7010TIP3    H242590   3.575   0.089   1.456 -0.1302  0.0121  0.9988
 7011TIP3   OH242591   5.986   3.418   0.403  0.4695 -0.0994  0.3940
 7011TIP3    H142592   5.894   3.400   0.382  0.6874 -0.2420 -0.4781
 7011TIP3    H242593   6.026   3.331   0.410  0.2495 -0.1015  2.2495
 7012TIP3   OH242594   1.430   1.140   1.272 -0.3825  0.0639 -0.5696
 7012TIP3    H142595   1.378   1.174   1.198 -0.3769  1.3574 -0.0102
 7012TIP3    H242596   1.387   1.176   1.349  0.8724  0.5071 -0.0533
 7013TIP3   OH242597   1.520   6.846   1.093 -0.6507 -0.0562  0.0545
 7013TIP3    H142598   1.458   6.863   1.163 -0.5134  0.0451  0.1498
 7013TIP3    H242599   1.605   6.871   1.128 -0.4303 -1.0078  0.2355
 7014TIP3   OH242600   4.758   5.843   8.288 -0.2646 -0.1996  0.0147
 7014TIP3    H142601   4.830   5.810   8.342 -1.4973 -2.9992  0.1431
 7014TIP3    H242602   4.758   5.786   8.211 -0.2738  1.9592 -1.6618
 7015TIP3   OH242603   4.138   4.124   2.324 -0.1526  0.2783  0.0666
 7015TIP3    H142604   4.106   4.077   2.400  0.2907  0.8798  0.6445
 7015TIP3    H242605   4.150   4.057   2.256  1.1216 -0.5690  1.0785
 7016TIP3   OH242606   5.402   4.775   1.704 -0.0672 -0.3580  0.2337
 7016TIP3    H142607   5.343   4.703   1.727  0.8157 -1.1012  0.2001
 7016TIP3    H242608   5.473   4.769   1.767 -0.0105  0.5204  0.2571
 7017TIP3   OH242609   4.128   5.372   1.858 -0.1884 -0.4254 -0.2582
 7017TIP3    H142610   4.126   5.405   1.948  2.4199 -0.4985 -0.0854
 7017TIP3    H242611   4.113   5.277   1.867  1.5353 -0.6779  0.3250
 7018TIP3   OH242612   1.663   5.278   7.520 -0.0771 -0.2936 -0.3456
 7018TIP3    H142613   1.616   5.342   7.573 -0.9802 -1.0884 -0.1497
 7018TIP3    H242614   1.727   5.239   7.579  0.0599 -0.0070 -0.3037
 7019TIP3   OH242615   6.729   2.668   0.172  0.4739  0.3149  0.0115
 7019TIP3    H142616   6.677   2.589   0.183  2.5764 -1.7471 -3.1695
 7019TIP3    H242617   6.665   2.739   0.173 -1.7707 -1.5900  0.9508
 7020TIP3   OH242618   4.944   6.465   0.516  0.1057 -0.6004 -0.1241
 7020TIP3    H142619   4.965   6.539   0.458  2.8942 -2.3366 -1.5483
 7020TIP3    H242620   4.975   6.492   0.602  0.5171  0.1349 -0.4933
 7021TIP3   OH242621   0.598   0.843   8.422  0.1956 -0.1918 -0.0996
 7021TIP3    H142622   0.569   0.858   8.332 -0.6784  0.1464  0.2313
 7021TIP3    H242623   0.521   0.863   8.476  0.6575 -0.5548  0.7122
 7022TIP3   OH242624   5.608   3.761   1.502  0.3258  0.3164  0.1855
 7022TIP3    H142625   5.643   3.772   1.414  0.0500  2.7153  0.3149
 7022TIP3    H242626   5.532   3.704   1.491  0.7566 -0.0489 -0.9956
 7023TIP3   OH242627   4.607   3.632   0.149  0.2812  0.3652 -0.8112
 7023TIP3    H142628   4.547   3.674   0.211  0.2893 -1.8184  0.8161
 7023TIP3    H242629   4.626   3.699   0.084 -0.5676  2.4604  0.9777
 7024TIP3   OH242630   3.338   6.247   1.952 -0.1101 -0.2655  0.6507
 7024TIP3    H142631   3.268   6.183   1.944  0.9270 -1.1799 -3.6795
 7024TIP3    H242632   3.333   6.300   1.872  2.2136  1.7142  1.6565
 7025TIP3   OH242633   6.793   6.121   0.313 -0.1844  0.7285  0.2616
 7025TIP3    H142634   6.818   6.176   0.238 -0.7146  1.4459  0.6079
 7025TIP3    H242635   6.702   6.143   0.330  0.3134  1.6287  2.0140
 7026TIP3   OH242636   5.722   2.300   0.685 -0.3598 -0.5660 -0.6611
 7026TIP3    H142637   5.635   2.277   0.719 -0.2931 -0.3192 -0.3199
 7026TIP3    H242638   5.772   2.219   0.691 -0.2497 -0.4467  0.1447
 7027TIP3   OH242639   2.332   2.009   7.180 -0.2146  0.6272  0.0010
 7027TIP3    H142640   2.427   2.002   7.189 -0.3867 -0.1888  1.4844
 7027TIP3    H242641   2.314   2.103   7.185  0.4767  0.7619  0.0890
 7028TIP3   OH242642   5.581   3.444   1.816  0.0394  0.1657  0.0931
 7028TIP3    H142643   5.644   3.414   1.881  1.4501  1.9715 -0.3482
 7028TIP3    H242644   5.496   3.418   1.850  0.9220 -1.0379  1.4492
 7029TIP3   OH242645   5.450   6.809   1.312  0.4958  0.5678  0.9451
 7029TIP3    H142646   5.399   6.854   1.379 -0.3548  0.1025  0.6311
 7029TIP3    H242647   5.395   6.735   1.286  0.3771  1.2647 -0.9370
 7030TIP3   OH242648   1.625   2.159   0.380  0.8669  0.0247 -0.3110
 7030TIP3    H142649   1.676   2.238   0.393 -0.4635  0.7356  0.8794
 7030TIP3    H242650   1.605   2.128   0.469 -0.6547 -0.2820 -0.7292
 7031TIP3   OH242651   6.803   2.159   1.168 -0.1219 -0.3265  0.0094
 7031TIP3    H142652   6.843   2.079   1.200 -0.7450 -1.8118 -2.6146
 7031TIP3    H242653   6.709   2.139   1.163 -0.4923  1.1090  0.7271
 7032TIP3   OH242654   4.433   2.138   1.895  0.0333 -0.0385  0.3791
 7032TIP3    H142655   4.386   2.221   1.893  0.2311  0.0681 -0.4350
 7032TIP3    H242656   4.428   2.109   1.986 -0.5824  0.5501  0.5403
 7033TIP3   OH242657   4.312   1.708   0.548  0.1647 -0.1566  0.3795
 7033TIP3    H142658   4.313   1.629   0.493  0.8202 -0.8238  1.3270
 7033TIP3    H242659   4.224   1.745   0.535 -0.3526 -1.3476  0.3567
 7034TIP3   OH242660   1.440   3.336   8.510  0.1814  0.6420  0.0016
 7034TIP3    H142661   1.458   3.266   8.448 -0.2291 -0.4817  1.1029
 7034TIP3    H242662   1.440   3.416   8.457 -1.4359 -0.3882 -1.6840
 7035TIP3   OH242663   2.991   4.236   1.409 -0.0539  0.1908  0.0936
 7035TIP3    H142664   2.912   4.289   1.412 -0.9763 -1.0034 -1.6002
 7035TIP3    H242665   2.973   4.170   1.343  2.2100 -0.3810 -0.0260
 7036TIP3   OH242666   6.119   1.714   7.340  0.1821  0.3880 -0.4497
 7036TIP3    H142667   6.213   1.732   7.347  0.5066 -1.3444 -0.0073
 7036TIP3    H242668   6.081   1.758   7.416  0.6417  1.0147 -0.5741
 7037TIP3   OH242669   5.552   0.377   2.147  0.6631 -0.3485 -0.8233
 7037TIP3    H142670   5.569   0.360   2.054 -1.3918 -2.4894 -0.8889
 7037TIP3    H242671   5.611   0.317   2.193 -1.9431 -3.2288 -0.9451
 7038TIP3   OH242672   5.934   2.452   0.836  0.8295 -0.2828  0.6459
 7038TIP3    H142673   6.000   2.510   0.799  1.6374 -1.8077 -0.4238
 7038TIP3    H242674   5.872   2.438   0.765  1.8332 -2.4022  0.0888
 7039TIP3   OH242675   0.398   1.532   6.758  0.3935 -0.7631  0.0803
 7039TIP3    H142676   0.395   1.451   6.809 -0.3442 -1.0593 -0.4125
 7039TIP3    H242677   0.468   1.518   6.694 -0.2481 -1.3391 -0.5169
 7040TIP3   OH242678   1.004   2.823   7.589 -0.1294  0.1549 -0.3919
 7040TIP3    H142679   0.913   2.797   7.570  0.1250 -1.0948 -0.0100
 7040TIP3    H242680   1.042   2.747   7.632  0.4451  1.4984  1.5953
 7041TIP3   OH242681   6.788   2.979   7.433  0.2235  0.0050 -0.3047
 7041TIP3    H142682   6.881   2.979   7.410  0.5175 -0.2580  0.8018
 7041TIP3    H242683   6.786   2.942   7.521 -0.9119  0.2324 -0.2254
 7042TIP3   OH242684   2.785   1.007   0.582 -0.1460  0.2140  0.6158
 7042TIP3    H142685   2.868   0.986   0.624 -0.3535 -0.1930  0.8185
 7042TIP3    H242686   2.805   1.083   0.527  0.8033 -1.0213 -0.7926
 7043TIP3   OH242687   5.847   3.046   1.678 -0.3271 -0.3380  0.3733
 7043TIP3    H142688   5.871   3.040   1.770 -0.1085  0.3551  0.3658
 7043TIP3    H242689   5.758   3.010   1.675 -0.7261  0.5487  1.0290
 7044TIP3   OH242690   5.435   3.899   8.531 -0.2843 -0.2696 -0.2100
 7044TIP3    H142691   5.403   3.948   8.606  0.3784  1.3777 -0.9511
 7044TIP3    H242692   5.407   3.809   8.547  0.7219 -0.1926  2.4975
 7045TIP3   OH242693   3.532   4.365   0.475  0.1556  0.1676 -0.2364
 7045TIP3    H142694   3.505   4.366   0.383 -0.1189  0.6189 -0.1554
 7045TIP3    H242695   3.530   4.273   0.500  1.5559 -0.1049 -1.0576
 7046TIP3   OH242696   1.321   5.272   1.056 -0.3208 -0.5019  0.1400
 7046TIP3    H142697   1.270   5.351   1.038 -0.3040 -0.6294 -0.4834
 7046TIP3    H242698   1.368   5.292   1.137  0.3223  0.4352 -0.4537
 7047TIP3   OH242699   3.813   4.020   0.174  0.4492  0.0735  0.3046
 7047TIP3    H142700   3.831   4.063   0.257 -0.0471 -0.8693  0.9157
 7047TIP3    H242701   3.725   3.984   0.184  0.4653 -0.2375 -0.5513
 7048TIP3   OH242702   5.304   0.019   7.137  0.2432  0.0628  0.2643
 7048TIP3    H142703   5.300  -0.058   7.195 -1.4100  0.3135  0.5439
 7048TIP3    H242704   5.299   0.094   7.197 -1.6655  0.3225 -0.1624
 7049TIP3   OH242705   4.862   6.638   7.050 -0.5081  0.0393  0.1361
 7049TIP3    H142706   4.907   6.557   7.024  0.6761  0.7005  0.0322
 7049TIP3    H242707   4.797   6.609   7.114  0.0926 -0.9682  0.3310
 7050TIP3   OH242708   1.538   1.653   8.584  0.3234  0.4149  0.1316
 7050TIP3    H142709   1.481   1.716   8.539  2.0057  0.8852 -1.4849
 7050TIP3    H242710   1.626   1.675   8.553  1.0081 -2.5462 -0.2903
 7051TIP3   OH242711   5.930   3.187   0.950  0.1056 -0.4640 -0.4511
 7051TIP3    H142712   5.949   3.184   1.044  0.5352 -1.2314 -0.5559
 7051TIP3    H242713   5.999   3.242   0.914 -1.1545  1.4637 -0.0821
 7052TIP3   OH242714   2.178   5.554   8.027 -0.1547 -0.4111 -0.3339
 7052TIP3    H142715   2.254   5.496   8.036  0.4329  0.3890  0.0290
 7052TIP3    H242716   2.176   5.575   7.933 -0.6737 -1.3994 -0.5552
 7053TIP3   OH242717   1.816   1.523   1.175 -0.3028 -0.9861 -0.5564
 7053TIP3    H142718   1.746   1.577   1.213  0.7760 -0.1088  0.2452
 7053TIP3    H242719   1.882   1.518   1.244  1.2050 -0.3308 -1.9000
 7054TIP3   OH242720   0.373   0.185   0.887 -0.1687 -0.2516 -0.2015
 7054TIP3    H142721   0.281   0.191   0.915 -0.5053 -1.7524 -0.8782
 7054TIP3    H242722   0.417   0.139   0.958 -0.2403 -0.7748 -0.4939
 7055TIP3   OH242723   6.572   6.149   7.154  0.7277  0.0559 -0.8518
 7055TIP3    H142724   6.603   6.103   7.232  0.8756 -1.4436 -1.7401
 7055TIP3    H242725   6.649   6.192   7.119  0.4598  1.6200  0.3472
 7056TIP3   OH242726   4.638   5.497   8.440 -0.0617  0.1616  0.0049
 7056TIP3    H142727   4.642   5.457   8.353 -1.7137  1.1854 -0.5883
 7056TIP3    H242728   4.582   5.438   8.490  0.0654  0.0989  0.0727
 7057TIP3   OH242729   2.395   5.505   1.013 -0.0912  0.5573  0.1825
 7057TIP3    H142730   2.365   5.579   1.066  1.9605  1.2185  0.5018
 7057TIP3    H242731   2.349   5.429   1.049 -0.9629  1.4214  0.9498
 7058TIP3   OH242732   6.500   0.676   2.332 -0.4333 -0.6557  0.0301
 7058TIP3    H142733   6.576   0.700   2.385 -1.2780  0.9674  0.5563
 7058TIP3    H242734   6.505   0.580   2.325  2.2343 -0.5265 -0.8731
 7059TIP3   OH242735   0.289   5.264   7.211 -0.2985 -0.7957 -0.2137
 7059TIP3    H142736   0.381   5.260   7.184 -0.0443 -1.0849  0.6842
 7059TIP3    H242737   0.260   5.173   7.213 -0.8622 -0.6584 -1.3210
 7060TIP3   OH242738   5.633   6.386   0.857 -0.7957 -0.2234  0.8295
 7060TIP3    H142739   5.699   6.435   0.906 -0.0765 -0.6917  0.3607
 7060TIP3    H242740   5.667   6.384   0.768 -2.4976  1.3652  0.0813
 7061TIP3   OH242741   6.045   1.651   7.874 -0.2677 -0.1782  0.4450
 7061TIP3    H142742   6.114   1.591   7.844  0.5039  0.7642  0.2812
 7061TIP3    H242743   5.973   1.637   7.812  1.3994  1.9694 -2.2499
 7062TIP3   OH242744   4.425   3.984   8.602 -0.2195 -0.1407 -0.2571
 7062TIP3    H142745   4.374   3.920   8.552 -1.9305  1.3766 -0.5525
 7062TIP3    H242746   4.466   4.040   8.536  1.8126 -1.2447 -0.0213
 7063TIP3   OH242747   1.174   0.265   8.694  0.0210  0.3177  0.0908
 7063TIP3    H142748   1.229   0.290   8.620 -1.1445 -1.4419 -1.4524
 7063TIP3    H242749   1.235   0.255   8.767  1.3653  0.9607 -0.8905
 7064TIP3   OH242750   3.412   6.217   1.436  0.3796  0.1807  0.2529
 7064TIP3    H142751   3.331   6.233   1.388 -0.4320 -1.9849  0.7692
 7064TIP3    H242752   3.479   6.209   1.369  0.1965  1.8889 -0.1866
 7065TIP3   OH242753   4.075   3.299   1.514  0.1488 -0.2607 -0.0375
 7065TIP3    H142754   4.098   3.295   1.421 -0.1388  0.3480 -0.1343
 7065TIP3    H242755   4.090   3.390   1.539 -3.3392  0.5260 -0.4261
 7066TIP3   OH242756   0.071   5.367   1.896  0.2596 -0.0265 -0.3372
 7066TIP3    H142757   0.119   5.357   1.814  2.5044  0.8345  0.7788
 7066TIP3    H242758   0.112   5.304   1.955 -0.4456  0.2748  0.4904
 7067TIP3   OH242759   0.635   2.548   6.906  0.5005  0.3716  0.2540
 7067TIP3    H142760   0.701   2.525   6.840  1.0384 -0.0375  0.9177
 7067TIP3    H242761   0.568   2.480   6.897  1.7487 -1.1660  1.7388
 7068TIP3   OH242762   1.491   3.607   0.809  0.0888  0.1290 -0.1883
 7068TIP3    H142763   1.553   3.646   0.746  0.4064 -0.3612 -0.1797
 7068TIP3    H242764   1.482   3.517   0.780 -1.1934  0.3776 -0.6265
 7069TIP3   OH242765   1.464   1.872   8.195  0.0759  0.5044 -0.7106
 7069TIP3    H142766   1.506   1.954   8.168 -0.3240  0.6167 -0.9965
 7069TIP3    H242767   1.537   1.810   8.205  0.5469  1.2753  0.9549
 7070TIP3   OH242768   3.286   6.239   6.881  0.4981 -0.1750  0.4522
 7070TIP3    H142769   3.378   6.213   6.887  0.3686 -0.8557 -0.3482
 7070TIP3    H242770   3.247   6.175   6.821 -0.8518 -0.8334  1.9543
 7071TIP3   OH242771   0.060   2.089   8.328  0.5499 -0.3639 -0.2850
 7071TIP3    H142772   0.094   2.004   8.300  0.9230 -0.1684 -0.4422
 7071TIP3    H242773   0.088   2.149   8.258  0.0228 -0.1707 -0.3288
 7072LIG      O42774   3.727   4.293   0.982 -0.5976  0.0165  0.7963
 7072LIG     C142775   3.776   4.321   0.851 -0.6503 -0.4179  0.2728
 7072LIG     C242776   3.682   4.413   0.767 -0.0776  0.1386 -0.1155
 7072LIG     C342777   3.918   4.374   0.858 -0.0107 -0.3739  0.1567
 7072LIG     H142778   3.792   4.223   0.803  0.6088 -0.3255  0.4709
 7072LIG     H242779   3.681   4.518   0.805 -2.4804  0.1154  0.0409
 7072LIG     H342780   3.578   4.374   0.769  0.6189 -1.8742 -0.6549
 7072LIG     H442781   3.722   4.416   0.663  0.4948  0.9174  0.1179
 7072LIG     H542782   3.971   4.298   0.919 -0.2439 -2.0125 -1.5995
 7072LIG     H642783   3.914   4.472   0.911  0.2980 -0.7543  0.8967
 7072LIG     H742784   3.965   4.385   0.758  1.3207 -0.6832  0.7233
 7072LIG     H842785   3.772   4.219   1.025  1.9619  1.3916  0.6796
   6.85647   6.85647   8.70633
