Title
42788
    1SAPS     N    1   6.684   3.530   6.686 -0.3351 -0.5465 -0.1514
    1SAPS   HN1    2   6.785   3.531   6.710 -0.3077  2.1198 -0.0966
    1SAPS   HN2    3   6.669   3.468   6.604 -2.1821 -1.2219  0.6432
    1SAPS   HN3    4   6.652   3.626   6.663 -0.1488  0.0229  1.7875
    1SAPS   C12    5   6.617   3.472   6.798 -0.1370 -0.4278 -1.0017
    1SAPS  H12A    6   6.617   3.369   6.767  1.9340 -0.6953 -0.2152
    1SAPS   C13    7   6.697   3.489   6.929 -0.4384 -0.2324  0.2550
    1SAPS  O13A    8   6.816   3.529   6.920 -0.0940  1.0329 -0.3969
    1SAPS  O13B    9   6.651   3.446   7.038  0.4843 -0.1597 -0.1368
    1SAPS   C11   10   6.481   3.542   6.810  0.0185  0.5394  0.2215
    1SAPS  H11A   11   6.494   3.651   6.829  2.2991  0.6742 -1.6330
    1SAPS  H11B   12   6.424   3.495   6.893  1.8769 -0.4337  1.0058
    1SAPS     P   13   6.271   3.588   6.670  0.6708  0.3738  0.0111
    1SAPS   O13   14   6.182   3.515   6.769  0.1810 -0.0115 -0.2255
    1SAPS   O14   15   6.273   3.734   6.672 -0.4720  0.0870  0.0743
    1SAPS   O12   16   6.417   3.537   6.683 -0.2763  0.8625 -0.4653
    1SAPS   O11   17   6.238   3.547   6.519 -0.4201 -0.4549  0.5239
    1SAPS    C1   18   6.323   3.549   6.409 -0.0960 -0.2707 -0.0392
    1SAPS    HA   19   6.414   3.488   6.429  0.1888  0.3881  0.7576
    1SAPS    HB   20   6.264   3.504   6.327 -0.1894 -1.6280  0.7319
    1SAPS    C2   21   6.375   3.691   6.369  0.5355 -0.1927  0.2544
    1SAPS    HS   22   6.423   3.736   6.459  4.3457  0.8698 -2.0579
    1SAPS   O21   23   6.258   3.768   6.334 -0.0712 -0.4068  0.3386
    1SAPS   C21   24   6.278   3.894   6.323 -0.1914 -0.2924 -0.0968
    1SAPS   O22   25   6.375   3.957   6.366  0.3308  0.4718 -0.2993
    1SAPS   C22   26   6.171   3.952   6.241 -0.1730 -0.0460  0.3482
    1SAPS   H2R   27   6.159   3.882   6.156  0.6114 -1.1003  1.0906
    1SAPS   H2S   28   6.078   3.965   6.301 -1.3325 -0.7429 -1.2070
    1SAPS    C3   29   6.474   3.690   6.252  0.3128  0.1987  0.7065
    1SAPS    HX   30   6.563   3.642   6.298  1.8123  1.8100 -0.3699
    1SAPS    HY   31   6.516   3.783   6.207 -0.8476  0.3305 -0.1502
    1SAPS   O31   32   6.423   3.604   6.151 -0.7357  0.5911 -0.3342
    1SAPS   C31   33   6.373   3.666   6.043 -0.2174 -0.4115  0.3807
    1SAPS   O32   34   6.346   3.784   6.037 -0.1059 -0.5154 -0.0845
    1SAPS   C32   35   6.342   3.562   5.936 -0.4856  0.1519 -0.0888
    1SAPS   H2X   36   6.234   3.533   5.931  0.2244 -2.5885 -1.7142
    1SAPS   H2Y   37   6.396   3.468   5.960 -0.0654  0.2387 -0.6652
    1SAPS   C23   38   6.215   4.096   6.208  0.3495 -0.1466 -0.5002
    1SAPS   H3R   39   6.321   4.100   6.177  0.9475 -2.1415  1.0637
    1SAPS   H3S   40   6.234   4.153   6.302  1.6986 -1.9268  0.3701
    1SAPS   C24   41   6.117   4.162   6.111 -0.3929 -0.1536 -0.1384
    1SAPS   H4R   42   6.138   4.270   6.097 -0.9328  0.1510  1.2095
    1SAPS   H4S   43   6.020   4.159   6.166 -0.3786 -0.7864 -0.1423
    1SAPS   C25   44   6.114   4.086   5.983  0.8303  0.0138  0.6361
    1SAPS   H5R   45   6.211   4.047   5.947  0.2551 -0.9007  0.0242
    1SAPS   C26   46   6.004   4.054   5.908  0.3266 -0.2928  0.0534
    1SAPS   H6R   47   6.015   3.998   5.815 -1.9336 -0.6921 -0.0182
    1SAPS   C27   48   5.861   4.079   5.950 -0.4472 -0.4921 -0.5208
    1SAPS   H7R   49   5.794   4.032   5.875  1.3773  0.3121 -2.7529
    1SAPS   H7S   50   5.837   4.187   5.943 -0.4876 -0.3594  1.1492
    1SAPS   C28   51   5.818   4.025   6.085  0.0287 -0.9394 -0.4105
    1SAPS   H8R   52   5.879   3.963   6.152 -2.0994 -0.3187  2.3436
    1SAPS   C29   53   5.691   4.045   6.134 -0.0569 -0.2210  0.6160
    1SAPS   H9R   54   5.675   4.016   6.239 -2.2269 -2.6182 -0.2799
    1SAPS  C210   55   5.580   4.124   6.075  0.0029  0.2399 -0.0268
    1SAPS  H10R   56   5.611   4.160   5.975 -3.4741  0.0039 -1.3225
    1SAPS  H10S   57   5.561   4.212   6.140  1.7634  0.7403 -0.1223
    1SAPS  C211   58   5.449   4.050   6.040 -0.3563 -0.4504  0.2470
    1SAPS  H11R   59   5.435   3.947   6.077 -1.1199  0.1420  1.7024
    1SAPS  C212   60   5.348   4.107   5.969 -0.3266 -0.5252 -0.3373
    1SAPS  H12R   61   5.254   4.050   5.963  0.0757 -1.0599 -2.2214
    1SAPS  C213   62   5.339   4.251   5.914 -0.2774  0.5355 -0.1053
    1SAPS  H13R   63   5.370   4.228   5.810 -0.3035  3.7876 -0.9398
    1SAPS  H13S   64   5.422   4.319   5.945  2.3157 -2.7134  0.7149
    1SAPS  C214   65   5.204   4.321   5.921  0.1276 -0.3697 -1.1573
    1SAPS  H14R   66   5.172   4.349   6.023  2.0953  2.7796 -1.2531
    1SAPS  C215   67   5.127   4.355   5.822 -0.2496 -1.0304  0.7819
    1SAPS  H15R   68   5.024   4.388   5.840  0.3948  1.1511  0.7537
    1SAPS  C216   69   5.169   4.345   5.678  0.1497 -0.1153 -0.0727
    1SAPS  H16R   70   5.276   4.358   5.654 -0.4973  2.1371 -2.1657
    1SAPS  H16S   71   5.126   4.427   5.616  0.7391 -0.4116 -0.8867
    1SAPS  C217   72   5.122   4.208   5.620  0.6454  0.2499 -0.0332
    1SAPS  H17R   73   5.167   4.125   5.679  0.9796 -0.6575 -1.5076
    1SAPS  H17S   74   5.149   4.189   5.514 -0.6811 -0.8982 -0.2034
    1SAPS  C218   75   4.972   4.185   5.630  0.2953  0.7140  0.1053
    1SAPS  H18R   76   4.923   4.284   5.618  1.0068  0.9198 -1.3147
    1SAPS  H18S   77   4.951   4.157   5.736  0.5696  4.0928  1.1907
    1SAPS  C219   78   4.919   4.089   5.523 -0.3132  0.9693 -0.4623
    1SAPS  H19R   79   4.957   3.985   5.536  0.7415  1.2515 -1.1498
    1SAPS  H19S   80   4.952   4.117   5.421  0.1639 -1.7313 -1.1335
    1SAPS  C220   81   4.770   4.070   5.527  0.2149  0.0695 -0.1211
    1SAPS  H20R   82   4.744   4.003   5.612 -1.8706  0.9335 -0.0219
    1SAPS  H20S   83   4.737   4.012   5.438 -0.7691 -0.1476  0.3779
    1SAPS  H20T   84   4.715   4.166   5.536  0.2268 -0.0471  1.3031
    1SAPS   C33   85   6.393   3.591   5.789 -0.4126 -0.6179  0.0026
    1SAPS   H3X   86   6.503   3.609   5.787 -0.4954 -0.0934  0.1226
    1SAPS   H3Y   87   6.338   3.682   5.759 -2.2844 -0.4325  3.4565
    1SAPS   C34   88   6.349   3.494   5.688  0.6377  0.0974  1.5759
    1SAPS   H4X   89   6.240   3.485   5.672  0.8956 -0.2252 -0.2919
    1SAPS   H4Y   90   6.384   3.392   5.712 -0.3980 -0.7218 -0.1562
    1SAPS   C35   91   6.411   3.513   5.543  0.0926 -0.1222  0.0793
    1SAPS   H5X   92   6.392   3.415   5.493  1.0592 -0.5920  0.5890
    1SAPS   H5Y   93   6.522   3.508   5.544  0.1261  0.3677 -0.5222
    1SAPS   C36   94   6.360   3.621   5.458 -0.2786 -0.3484  1.2254
    1SAPS   H6X   95   6.378   3.726   5.490  0.1006  0.1729 -0.5585
    1SAPS   H6Y   96   6.252   3.603   5.439  0.0607  1.0244 -3.2907
    1SAPS   C37   97   6.427   3.615   5.321  0.4221 -0.9950 -0.7861
    1SAPS   H7X   98   6.538   3.625   5.328  0.6123 -3.6362  1.7975
    1SAPS   H7Y   99   6.388   3.710   5.278 -0.7579 -1.7336 -1.3865
    1SAPS   C38  100   6.381   3.499   5.228 -0.3177 -0.0226  0.1637
    1SAPS   H8X  101   6.270   3.499   5.239 -0.4485 -1.2110 -0.9068
    1SAPS   H8Y  102   6.433   3.405   5.254  0.6723  0.1932 -0.9401
    1SAPS   C39  103   6.420   3.534   5.085 -0.1546  0.0865  0.6620
    1SAPS   H9X  104   6.519   3.585   5.080 -1.0967  1.9159 -0.4172
    1SAPS   H9Y  105   6.343   3.599   5.038 -0.0343 -1.8336 -2.5360
    1SAPS  C310  106   6.414   3.405   4.996  0.2971  0.5614  0.0618
    1SAPS  H10X  107   6.385   3.321   5.062  0.2679  1.2390  0.9308
    1SAPS  H10Y  108   6.516   3.381   4.960 -0.6250 -2.2617 -0.9557
    1SAPS  C311  109   6.336   3.422   4.865 -0.3529 -0.0932 -0.0953
    1SAPS  H11X  110   6.353   3.525   4.828 -0.7015 -0.7261 -2.2034
    1SAPS  H11Y  111   6.230   3.417   4.900 -0.5699  0.3840 -0.6652
    1SAPS  C312  112   6.361   3.312   4.752 -0.3308  0.3763  0.5133
    1SAPS  H12X  113   6.297   3.336   4.664  0.3673  3.1490  0.6550
    1SAPS  H12Y  114   6.329   3.213   4.790  0.7615 -1.1149 -2.1802
    1SAPS  C313  115   6.505   3.311   4.698 -0.2527 -0.0495  0.2216
    1SAPS  H13X  116   6.569   3.247   4.764 -1.2030 -0.9472  0.3019
    1SAPS  H13Y  117   6.543   3.413   4.676 -0.0137 -0.4751 -1.4807
    1SAPS  C314  118   6.498   3.261   4.549  0.2194 -0.6349 -0.6289
    1SAPS  H14X  119   6.446   3.336   4.485 -0.8326 -1.1438 -0.3912
    1SAPS  H14Y  120   6.434   3.172   4.562 -0.8351 -0.0729 -1.7497
    1SAPS  C315  121   6.619   3.219   4.472  0.0271 -0.7904  0.3289
    1SAPS  H15X  122   6.689   3.146   4.518  1.6418  0.5470  0.1331
    1SAPS  H15Y  123   6.681   3.311   4.456 -1.3236  0.1857  0.5684
    1SAPS  C316  124   6.588   3.150   4.332 -0.2397 -0.7555  0.8428
    1SAPS  H16X  125   6.491   3.190   4.293  0.2192 -0.5257 -0.0945
    1SAPS  H16Y  126   6.583   3.040   4.338 -0.3215 -0.7470  0.9476
    1SAPS  C317  127   6.688   3.186   4.215 -0.4533  0.6347 -0.1236
    1SAPS  H17X  128   6.786   3.149   4.250  0.3594  2.1525 -0.6836
    1SAPS  H17Y  129   6.691   3.297   4.227 -1.9246  0.8119 -1.0245
    1SAPS  C318  130   6.655   3.144   4.073  0.1080  0.1456 -0.2188
    1SAPS  H18X  131   6.628   3.037   4.059  0.7554  0.1020 -1.2965
    1SAPS  H18Y  132   6.744   3.171   4.012  0.1031  1.3190  0.2697
    1SAPS  H18Z  133   6.569   3.199   4.029  1.4154  1.5460 -1.1363
    2SAPS     N  134   5.831   0.180   7.156  0.5213 -0.3669  0.2757
    2SAPS   HN1  135   5.798   0.276   7.133 -2.5411 -1.0180  1.5329
    2SAPS   HN2  136   5.742   0.127   7.157 -0.3966  1.1017  0.0198
    2SAPS   HN3  137   5.855   0.173   7.257  0.3056 -2.2993  0.2229
    2SAPS   C12  138   5.940   0.134   7.070 -0.5597  0.3235  0.1193
    2SAPS  H12A  139   6.004   0.215   7.036 -0.1650  1.1563  2.6493
    2SAPS   C13  140   6.036   0.037   7.132 -0.4661  0.1514  0.8876
    2SAPS  O13A  141   6.012  -0.010   7.244  0.1743 -0.3732  0.1046
    2SAPS  O13B  142   6.149   0.022   7.070  0.1055 -0.2146  0.3192
    2SAPS   C11  143   5.875   0.073   6.941 -0.6145  0.2418  0.5563
    2SAPS  H11A  144   5.802  -0.007   6.964  0.4912 -1.1164 -0.4922
    2SAPS  H11B  145   5.965   0.035   6.888  0.2346  1.2696  1.2234
    2SAPS     P  146   5.666   0.169   6.817 -0.0789  0.3338 -0.0019
    2SAPS   O13  147   5.582   0.119   6.929 -0.8942 -0.0415  0.4453
    2SAPS   O14  148   5.634   0.303   6.759  0.8271 -0.5244 -0.1297
    2SAPS   O12  149   5.813   0.170   6.859  0.0924 -0.0251  0.1281
    2SAPS   O11  150   5.655   0.061   6.700  0.1045 -0.0080 -0.5510
    2SAPS    C1  151   5.750   0.033   6.602 -0.2322 -0.1786 -0.5392
    2SAPS    HA  152   5.826   0.113   6.593  0.3777 -0.8630 -1.6782
    2SAPS    HB  153   5.817  -0.054   6.617  4.3370  3.2670  1.2314
    2SAPS    C2  154   5.673   0.011   6.473 -0.7254 -0.0726  0.8197
    2SAPS    HS  155   5.745  -0.010   6.391 -0.8901 -0.7999  0.8540
    2SAPS   O21  156   5.592   0.126   6.441 -0.1725  0.1462 -0.3141
    2SAPS   C21  157   5.660   0.237   6.418 -0.1147 -0.1839  0.2672
    2SAPS   O22  158   5.779   0.245   6.387  0.1200 -0.2404  0.0057
    2SAPS   C22  159   5.562   0.357   6.405  0.0063 -0.3898  0.0386
    2SAPS   H2R  160   5.496   0.365   6.494  0.5393 -0.9911  0.5058
    2SAPS   H2S  161   5.624   0.448   6.418  0.3794 -0.6384  0.0291
    2SAPS    C3  162   5.584  -0.116   6.472  0.5384  0.4862  0.2612
    2SAPS    HX  163   5.503  -0.111   6.547  1.7936 -2.8035  2.0353
    2SAPS    HY  164   5.639  -0.204   6.512 -0.9598 -0.1015  1.1331
    2SAPS   O31  165   5.545  -0.134   6.336 -0.4834 -0.5207  0.0395
    2SAPS   C31  166   5.412  -0.131   6.314  0.3495 -0.5226 -0.1274
    2SAPS   O32  167   5.328  -0.114   6.397  0.3174 -0.0465 -1.0980
    2SAPS   C32  168   5.386  -0.156   6.164  0.1391  0.0427  0.0801
    2SAPS   H2X  169   5.293  -0.216   6.164 -1.1344  1.8955  1.8879
    2SAPS   H2Y  170   5.470  -0.219   6.126 -1.3607 -1.9153 -0.1439
    2SAPS   C23  171   5.464   0.340   6.284  1.0634  0.4218 -0.6141
    2SAPS   H3R  172   5.388   0.262   6.305  0.7939  1.1835  1.4629
    2SAPS   H3S  173   5.516   0.332   6.186 -0.3413 -1.2574 -1.2708
    2SAPS   C24  174   5.370   0.468   6.258 -0.0757  0.4484  0.3110
    2SAPS   H4R  175   5.440   0.552   6.279 -1.6925  1.6717  1.0510
    2SAPS   H4S  176   5.306   0.472   6.349 -2.0762 -1.6293 -0.8949
    2SAPS   C25  177   5.277   0.487   6.137  0.0566 -0.4239 -0.5664
    2SAPS   H5R  178   5.172   0.469   6.165  0.9379  0.6367  4.1738
    2SAPS   C26  179   5.306   0.539   6.020  0.2524  0.0385  0.1511
    2SAPS   H6R  180   5.227   0.551   5.944  0.8454  0.9575 -0.3480
    2SAPS   C27  181   5.443   0.573   5.972  0.2742 -0.4538  0.3530
    2SAPS   H7R  182   5.519   0.540   6.047  1.6291  2.5454  0.4363
    2SAPS   H7S  183   5.451   0.683   5.960 -0.1349 -0.6515 -2.1451
    2SAPS   C28  184   5.484   0.503   5.852 -0.2635  0.8383  0.0446
    2SAPS   H8R  185   5.517   0.401   5.879  0.1619  0.4611 -1.7194
    2SAPS   C29  186   5.500   0.547   5.729  0.7944 -0.2464 -0.4830
    2SAPS   H9R  187   5.536   0.478   5.651  1.6575 -0.2224 -0.1096
    2SAPS  C210  188   5.463   0.682   5.665 -0.0903 -0.8153  0.9094
    2SAPS  H10R  189   5.544   0.713   5.595 -0.6439 -0.4609  0.4191
    2SAPS  H10S  190   5.458   0.764   5.739  1.3133  2.0944 -1.9367
    2SAPS  C211  191   5.324   0.687   5.603 -0.2314  0.4077 -0.2229
    2SAPS  H11R  192   5.240   0.704   5.671 -1.7222 -0.8169 -1.6564
    2SAPS  C212  193   5.298   0.668   5.470  0.3995 -0.6308 -0.3427
    2SAPS  H12R  194   5.193   0.661   5.439 -0.1383  1.0788  0.9369
    2SAPS  C213  195   5.406   0.634   5.367 -1.1175 -0.2217 -0.2500
    2SAPS  H13R  196   5.451   0.535   5.389  1.3981  1.1214  1.1943
    2SAPS  H13S  197   5.485   0.711   5.382 -1.0843 -0.1374 -0.8355
    2SAPS  C214  198   5.368   0.617   5.225 -0.4528  0.0999  0.4465
    2SAPS  H14R  199   5.279   0.555   5.208 -1.8087  2.2255 -0.5865
    2SAPS  C215  200   5.416   0.695   5.122  0.1908 -0.8403 -0.3851
    2SAPS  H15R  201   5.377   0.663   5.025  1.1031 -0.3588 -0.9212
    2SAPS  C216  202   5.524   0.802   5.121  0.5596 -0.8277  0.0712
    2SAPS  H16R  203   5.560   0.835   5.221  0.2062  0.0669 -0.0958
    2SAPS  H16S  204   5.487   0.893   5.070  0.4298 -0.5138  0.7192
    2SAPS  C217  205   5.635   0.754   5.030  0.3403  0.0575  0.8166
    2SAPS  H17R  206   5.700   0.678   5.081  2.6087  1.4112  0.0877
    2SAPS  H17S  207   5.716   0.827   5.006  0.9795 -1.1183 -0.7971
    2SAPS  C218  208   5.587   0.698   4.895 -0.0232  0.1324 -0.5532
    2SAPS  H18R  209   5.507   0.762   4.852  0.8373  0.9493 -0.9409
    2SAPS  H18S  210   5.538   0.598   4.903 -1.4160  0.6082 -2.4209
    2SAPS  C219  211   5.694   0.688   4.789 -0.1511 -0.3185 -0.9935
    2SAPS  H19R  212   5.758   0.599   4.804 -0.1983 -0.5860 -2.2595
    2SAPS  H19S  213   5.770   0.769   4.792 -0.1110 -0.3757 -0.0129
    2SAPS  C220  214   5.639   0.691   4.640 -0.7022  0.3624  0.0687
    2SAPS  H20R  215   5.725   0.690   4.571 -0.0861 -1.7392  0.7871
    2SAPS  H20S  216   5.572   0.780   4.634 -1.1180  0.2558  2.2082
    2SAPS  H20T  217   5.587   0.594   4.630  3.4371 -1.9732 -0.9473
    2SAPS   C33  218   5.362  -0.019   6.104  0.2348 -0.4996  0.8863
    2SAPS   H3X  219   5.292   0.046   6.161 -1.0358 -1.1114  0.0706
    2SAPS   H3Y  220   5.311  -0.040   6.008  0.4793 -2.9822  1.2242
    2SAPS   C34  221   5.491   0.067   6.077  0.1161 -0.5602  0.7366
    2SAPS   H4X  222   5.541   0.093   6.172 -0.2565  0.5277  0.6554
    2SAPS   H4Y  223   5.455   0.165   6.038  0.4289 -0.5583  0.4460
    2SAPS   C35  224   5.601   0.001   5.994 -0.5258  0.7734 -0.2451
    2SAPS   H5X  225   5.564  -0.037   5.896 -0.4103 -1.2993  0.4736
    2SAPS   H5Y  226   5.635  -0.080   6.061 -2.4294  0.3889  0.3335
    2SAPS   C36  227   5.726   0.088   5.967  0.5860  0.5623  0.4253
    2SAPS   H6X  228   5.705   0.181   5.910 -0.7492  0.2908  0.4252
    2SAPS   H6Y  229   5.788   0.024   5.902  0.6448  0.2823  0.7542
    2SAPS   C37  230   5.806   0.128   6.088  0.6712  0.4955 -0.3927
    2SAPS   H7X  231   5.853   0.040   6.136 -1.1175 -1.1256 -1.4340
    2SAPS   H7Y  232   5.749   0.165   6.176 -0.1865 -1.9990  0.1737
    2SAPS   C38  233   5.903   0.242   6.060  0.4196  0.1455  0.5849
    2SAPS   H8X  234   5.957   0.266   6.154  3.0579  1.3395 -1.0935
    2SAPS   H8Y  235   5.842   0.326   6.020  1.4123 -0.1297 -1.6680
    2SAPS   C39  236   6.019   0.224   5.959  0.8395  0.3047 -0.1941
    2SAPS   H9X  237   6.029   0.114   5.959 -0.2072  0.1970  0.2009
    2SAPS   H9Y  238   6.112   0.269   6.000  1.4324  0.9545 -2.1555
    2SAPS  C310  239   5.986   0.268   5.814 -0.2970  0.0046 -1.1736
    2SAPS  H10X  240   6.028   0.369   5.796 -0.1205 -0.0176 -0.8980
    2SAPS  H10Y  241   5.878   0.259   5.788 -0.5809 -1.4537  0.2810
    2SAPS  C311  242   6.058   0.176   5.706 -0.3166  0.1640  0.5073
    2SAPS  H11X  243   6.039   0.071   5.738 -0.4587  0.2968  0.8607
    2SAPS  H11Y  244   6.166   0.200   5.716 -0.2671  0.6279 -0.9292
    2SAPS  C312  245   6.012   0.217   5.567 -0.1336 -0.1624  0.4844
    2SAPS  H12X  246   6.046   0.323   5.559  0.4960 -0.4376 -0.7361
    2SAPS  H12Y  247   5.901   0.224   5.563 -0.1852 -1.0984  0.0770
    2SAPS  C313  248   6.065   0.131   5.453  0.7429 -0.3623  0.6768
    2SAPS  H13X  249   5.986   0.116   5.376  0.5044  1.3719  0.5461
    2SAPS  H13Y  250   6.070   0.028   5.495 -0.6541 -1.5828 -1.8732
    2SAPS  C314  251   6.199   0.175   5.399  0.1940  0.1651  0.0497
    2SAPS  H14X  252   6.271   0.164   5.483  0.3862  0.2341 -0.1049
    2SAPS  H14Y  253   6.197   0.283   5.372  0.5063  0.6734  1.8905
    2SAPS  C315  254   6.266   0.107   5.279  0.5643 -0.4186  0.1232
    2SAPS  H15X  255   6.258  -0.004   5.279  0.7429 -0.4412 -0.8161
    2SAPS  H15Y  256   6.373   0.133   5.262  0.2512  1.0174  0.2018
    2SAPS  C316  257   6.199   0.144   5.144 -0.0981 -0.0855  0.0441
    2SAPS  H16X  258   6.211   0.253   5.128  2.0323 -0.3868 -0.7630
    2SAPS  H16Y  259   6.088   0.131   5.147 -0.3368  1.5506 -0.4405
    2SAPS  C317  260   6.249   0.072   5.027 -0.3255  0.1712 -0.8930
    2SAPS  H17X  261   6.241  -0.036   5.049 -1.5146  0.6579  1.2710
    2SAPS  H17Y  262   6.359   0.090   5.021 -0.4525  1.4009  0.1163
    2SAPS  C318  263   6.185   0.105   4.889  0.5225 -0.1675  0.5078
    2SAPS  H18X  264   6.166   0.213   4.872 -1.1002 -0.6044 -0.7432
    2SAPS  H18Y  265   6.088   0.050   4.891  1.3416 -1.6422  1.0710
    2SAPS  H18Z  266   6.243   0.069   4.801 -0.6490  1.6029 -1.0648
    3SAPS     N  267   0.990   0.576   6.841 -0.3579  0.3711  0.6178
    3SAPS   HN1  268   1.042   0.663   6.863  2.5069 -0.4957 -1.9978
    3SAPS   HN2  269   1.046   0.518   6.775 -1.0128  0.4442 -0.0061
    3SAPS   HN3  270   0.898   0.598   6.799 -0.8463  0.3379  1.6431
    3SAPS   C12  271   0.978   0.509   6.976 -0.2734  0.1277  0.0794
    3SAPS  H12A  272   1.080   0.475   6.991  0.5559  1.8202 -1.2441
    3SAPS   C13  273   0.922   0.592   7.096  0.2367 -0.1685 -0.2760
    3SAPS  O13A  274   0.895   0.712   7.085 -0.5969  0.1754 -0.3893
    3SAPS  O13B  275   0.906   0.542   7.207  0.0317  0.1441  0.2003
    3SAPS   C11  276   0.902   0.376   6.953 -0.1711 -0.5956 -0.2154
    3SAPS  H11A  277   0.912   0.339   7.057  1.1153 -0.3192 -0.2349
    3SAPS  H11B  278   0.940   0.299   6.883  2.0466 -0.1417  0.4127
    3SAPS     P  279   0.664   0.278   6.916  0.2707  0.0348 -0.1396
    3SAPS   O13  280   0.687   0.187   7.035  0.3377 -0.1311  0.0282
    3SAPS   O14  281   0.531   0.335   6.899 -0.9326 -0.4140  0.7666
    3SAPS   O12  282   0.768   0.398   6.923 -0.1076  0.1642  0.2171
    3SAPS   O11  283   0.706   0.196   6.791 -0.3360 -0.0037 -0.4174
    3SAPS    C1  284   0.716   0.252   6.665  0.9357 -0.4695 -0.1126
    3SAPS    HA  285   0.722   0.362   6.660  0.3649 -0.4408 -0.2735
    3SAPS    HB  286   0.799   0.210   6.603  1.0699  0.5070 -0.6118
    3SAPS    C2  287   0.596   0.209   6.577 -0.1722  0.6914  0.6061
    3SAPS    HS  288   0.503   0.224   6.636 -0.4200  0.2840  0.3295
    3SAPS   O21  289   0.612   0.079   6.522  0.0259 -0.3694  0.2666
    3SAPS   C21  290   0.539  -0.014   6.583 -0.3942 -0.1080  0.3203
    3SAPS   O22  291   0.456   0.004   6.670  0.7288 -0.0842  0.1001
    3SAPS   C22  292   0.583  -0.151   6.539 -0.5225  0.0194 -0.3872
    3SAPS   H2R  293   0.674  -0.171   6.599 -0.5722 -2.5284 -1.0115
    3SAPS   H2S  294   0.502  -0.219   6.573  0.3129 -1.7043 -1.6460
    3SAPS    C3  295   0.572   0.301   6.454 -0.0990  0.0354  0.4070
    3SAPS    HX  296   0.489   0.268   6.388  0.4177  1.2147 -0.8808
    3SAPS    HY  297   0.661   0.304   6.388 -1.0970 -0.6095 -1.0410
    3SAPS   O31  298   0.553   0.435   6.494  0.2087 -0.2209  0.6426
    3SAPS   C31  299   0.428   0.473   6.520  0.0168 -0.6367 -0.3609
    3SAPS   O32  300   0.338   0.404   6.553  0.5191  0.2574 -0.0072
    3SAPS   C32  301   0.411   0.616   6.482 -0.0208 -0.4188 -0.1911
    3SAPS   H2X  302   0.474   0.640   6.394  0.8799  2.2373  1.0748
    3SAPS   H2Y  303   0.469   0.677   6.555 -0.3475 -0.3078 -0.0192
    3SAPS   C23  304   0.618  -0.162   6.390 -0.0573 -0.2298 -0.5517
    3SAPS   H3R  305   0.630  -0.271   6.371  0.5250 -0.2355 -0.1683
    3SAPS   H3S  306   0.713  -0.114   6.357 -0.3793  0.2240 -0.8329
    3SAPS   C24  307   0.506  -0.104   6.298 -0.3387  0.0195 -0.0717
    3SAPS   H4R  308   0.550  -0.109   6.196  0.6531  0.7149  0.2988
    3SAPS   H4S  309   0.493   0.005   6.318 -2.0900  0.4695 -3.0408
    3SAPS   C25  310   0.380  -0.182   6.321 -0.1716  0.1573  0.8447
    3SAPS   H5R  311   0.326  -0.175   6.416 -1.5078  0.4483  0.0912
    3SAPS   C26  312   0.315  -0.261   6.226  1.1143 -0.0735 -0.3283
    3SAPS   H6R  313   0.221  -0.305   6.263  1.0888 -0.9541 -1.3777
    3SAPS   C27  314   0.367  -0.289   6.089  0.3328  0.2367  0.0332
    3SAPS   H7R  315   0.418  -0.203   6.040 -1.0227  1.0497 -0.0216
    3SAPS   H7S  316   0.278  -0.305   6.025 -0.2284  2.0919  0.2824
    3SAPS   C28  317   0.450  -0.414   6.095 -0.6776 -1.2901 -0.5548
    3SAPS   H8R  318   0.459  -0.471   6.188  0.5714 -0.2686 -0.0197
    3SAPS   C29  319   0.526  -0.466   5.996 -0.4972  0.3016 -0.2956
    3SAPS   H9R  320   0.596  -0.544   6.029  1.1698  2.3574  1.2614
    3SAPS  C210  321   0.540  -0.414   5.854  0.3743 -0.1960 -0.6809
    3SAPS  H10R  322   0.553  -0.304   5.859  0.6713 -0.2610  0.4666
    3SAPS  H10S  323   0.444  -0.423   5.800  0.4605 -0.3653 -0.8086
    3SAPS  C211  324   0.656  -0.468   5.772  0.3651 -0.2300  0.2232
    3SAPS  H11R  325   0.750  -0.418   5.802  0.2398 -0.3541  0.8556
    3SAPS  C212  326   0.663  -0.574   5.695  0.4672  0.6916 -0.0853
    3SAPS  H12R  327   0.757  -0.603   5.646  0.8950  0.1985  0.9870
    3SAPS  C213  328   0.546  -0.671   5.654 -0.0875 -0.3351 -0.6229
    3SAPS  H13R  329   0.457  -0.608   5.631 -0.8822 -1.1215  0.2354
    3SAPS  H13S  330   0.514  -0.722   5.748  0.7201  2.4860  1.3315
    3SAPS  C214  331   0.578  -0.764   5.542  0.1690  0.6741 -0.3047
    3SAPS  H14R  332   0.597  -0.870   5.563 -1.8902  0.5443  1.1892
    3SAPS  C215  333   0.602  -0.724   5.416  0.1918  0.5893 -0.5601
    3SAPS  H15R  334   0.629  -0.797   5.339  0.1772  1.4299 -1.3771
    3SAPS  C216  335   0.580  -0.589   5.360 -0.8214  0.7043 -0.2077
    3SAPS  H16R  336   0.526  -0.524   5.432 -0.2346 -1.3632  2.2445
    3SAPS  H16S  337   0.499  -0.602   5.285 -1.9227 -0.5037  1.1489
    3SAPS  C217  338   0.702  -0.522   5.285  0.0787 -0.0805  0.6573
    3SAPS  H17R  339   0.665  -0.427   5.242 -2.1633  0.3604  3.2571
    3SAPS  H17S  340   0.738  -0.593   5.208  1.2453  0.5714  0.5664
    3SAPS  C218  341   0.822  -0.490   5.376 -0.5276 -0.3867  0.0063
    3SAPS  H18R  342   0.862  -0.590   5.404 -1.6174 -0.8973 -0.2129
    3SAPS  H18S  343   0.786  -0.435   5.465  0.0603  0.6782 -0.3875
    3SAPS  C219  344   0.946  -0.406   5.337 -0.6106 -1.3015 -0.1462
    3SAPS  H19R  345   1.026  -0.424   5.412 -1.8233 -0.9251  1.2698
    3SAPS  H19S  346   0.994  -0.449   5.246 -0.0734 -0.3694 -0.3195
    3SAPS  C220  347   0.932  -0.253   5.328 -0.3817 -0.3444 -0.5400
    3SAPS  H20R  348   0.916  -0.210   5.429 -1.0192  1.5858 -1.4146
    3SAPS  H20S  349   0.848  -0.229   5.259  0.8246 -1.3071 -2.4382
    3SAPS  H20T  350   1.021  -0.212   5.277  0.8826 -1.2952  0.8119
    3SAPS   C33  351   0.265   0.665   6.474  0.4136 -0.0406 -0.6779
    3SAPS   H3X  352   0.264   0.773   6.450 -1.2471  0.3168  0.8161
    3SAPS   H3Y  353   0.233   0.658   6.580  0.8141  3.5300 -0.2069
    3SAPS   C34  354   0.168   0.605   6.370  0.0739  0.2516  0.0693
    3SAPS   H4X  355   0.078   0.669   6.382  0.6263  1.3834 -1.5223
    3SAPS   H4Y  356   0.137   0.499   6.384  0.8788 -0.3113 -2.0483
    3SAPS   C35  357   0.213   0.615   6.224 -0.2351  0.2887  0.3784
    3SAPS   H5X  358   0.249   0.718   6.201 -2.7323  1.4185  1.1514
    3SAPS   H5Y  359   0.301   0.549   6.210  0.1763  0.5541  1.5152
    3SAPS   C36  360   0.099   0.590   6.130  0.2659  0.1533 -0.5945
    3SAPS   H6X  361   0.015   0.660   6.154 -0.5387 -1.1701  0.6079
    3SAPS   H6Y  362   0.054   0.491   6.154  0.0532  0.3608 -0.1202
    3SAPS   C37  363   0.137   0.593   5.981 -0.6415  0.1040  0.3853
    3SAPS   H7X  364   0.212   0.512   5.967 -1.9147 -1.1940  0.7237
    3SAPS   H7Y  365   0.175   0.689   5.942 -1.9469  0.5977  0.2683
    3SAPS   C38  366   0.009   0.565   5.900  0.0102  0.2796  0.1248
    3SAPS   H8X  367  -0.079   0.626   5.925 -0.9127 -1.3505  1.0269
    3SAPS   H8Y  368  -0.018   0.463   5.934 -1.1947  0.8850  1.0269
    3SAPS   C39  369   0.038   0.564   5.749  0.5540  0.0601  0.1631
    3SAPS   H9X  370   0.066   0.666   5.716  1.1127 -0.3857 -0.7749
    3SAPS   H9Y  371  -0.057   0.553   5.692  0.0272  1.9331  0.6272
    3SAPS  C310  372   0.144   0.470   5.703  0.2573  0.2328 -0.9747
    3SAPS  H10X  373   0.115   0.366   5.728 -0.6650 -0.0798 -3.1198
    3SAPS  H10Y  374   0.237   0.490   5.761  0.2141 -0.2314 -0.7386
    3SAPS  C311  375   0.166   0.494   5.555  0.2239  0.4168  0.8235
    3SAPS  H11X  376   0.260   0.438   5.533  0.5389  0.8445  1.0484
    3SAPS  H11Y  377   0.184   0.602   5.538  0.8428  0.2959  0.6798
    3SAPS  C312  378   0.065   0.452   5.451  0.2281 -0.1898  1.1547
    3SAPS  H12X  379  -0.034   0.484   5.491 -0.4909 -1.3015  0.3276
    3SAPS  H12Y  380   0.056   0.342   5.435 -1.3549 -0.2980  2.5298
    3SAPS  C313  381   0.083   0.514   5.314 -0.5697  0.2222 -0.1303
    3SAPS  H13X  382   0.084   0.625   5.318  2.5727  0.2614  0.2518
    3SAPS  H13Y  383  -0.006   0.488   5.253 -2.0366  2.1171  1.0990
    3SAPS  C314  384   0.219   0.469   5.249 -0.4328  0.6011 -0.7537
    3SAPS  H14X  385   0.308   0.509   5.301 -1.8976  2.1802  0.6616
    3SAPS  H14Y  386   0.227   0.522   5.151 -2.5751  1.9619 -0.2761
    3SAPS  C315  387   0.219   0.318   5.224 -0.3310  0.5516  0.3438
    3SAPS  H15X  388   0.118   0.285   5.192 -0.3147  1.8014 -1.0868
    3SAPS  H15Y  389   0.246   0.263   5.317  0.8284  0.9290  0.2420
    3SAPS  C316  390   0.318   0.282   5.112 -0.2628 -0.2817 -0.1957
    3SAPS  H16X  391   0.300   0.341   5.019  0.9010 -0.3615 -0.4904
    3SAPS  H16Y  392   0.302   0.174   5.091 -1.6436 -0.0962 -0.1758
    3SAPS  C317  393   0.462   0.296   5.154 -0.1087  0.2265  0.4949
    3SAPS  H17X  394   0.484   0.226   5.238  0.3302 -0.2993 -0.0527
    3SAPS  H17Y  395   0.490   0.394   5.198 -1.3908  0.8851 -0.1156
    3SAPS  C318  396   0.549   0.270   5.031  0.0257  0.0111  0.0607
    3SAPS  H18X  397   0.551   0.363   4.970  2.0344  0.5742  0.8590
    3SAPS  H18Y  398   0.493   0.201   4.965 -3.7647  1.3044  1.6485
    3SAPS  H18Z  399   0.652   0.233   5.052  0.7666  0.9453 -1.6996
    4SAPS     N  400   5.183   4.788   6.991 -0.4280 -1.0268  0.2346
    4SAPS   HN1  401   5.249   4.850   6.939  1.0088 -3.6291 -1.2862
    4SAPS   HN2  402   5.220   4.779   7.088  2.7162  3.4247 -0.2366
    4SAPS   HN3  403   5.187   4.700   6.935  1.0276 -0.5091 -0.5401
    4SAPS   C12  404   5.049   4.848   6.995  0.5197  0.4768  0.5356
    4SAPS  H12A  405   4.994   4.811   6.909  0.0242 -1.6415  1.6999
    4SAPS   C13  406   4.955   4.805   7.105 -0.1304 -0.2413  0.1706
    4SAPS  O13A  407   5.001   4.746   7.202  0.1533  0.4563 -0.0917
    4SAPS  O13B  408   4.835   4.836   7.093  0.7487 -0.1541  0.2685
    4SAPS   C11  409   5.050   5.000   6.988  0.0458 -0.4072 -0.3699
    4SAPS  H11A  410   5.086   5.039   7.086 -0.8688 -1.5295  0.4446
    4SAPS  H11B  411   4.948   5.042   6.976  0.5032  0.0426 -3.6124
    4SAPS     P  412   5.067   5.114   6.756 -0.0317  0.3026  0.0518
    4SAPS   O13  413   5.005   5.241   6.797  0.2876  0.4058 -0.1107
    4SAPS   O14  414   5.163   5.123   6.643  0.3221 -0.3211 -0.0326
    4SAPS   O12  415   5.134   5.052   6.882  0.2718  0.2254 -0.1189
    4SAPS   O11  416   4.949   5.006   6.716  0.0912 -0.3917 -0.1410
    4SAPS    C1  417   4.985   4.888   6.644  0.0848  0.1883  0.2116
    4SAPS    HA  418   5.075   4.833   6.679  0.1612  0.0710 -0.1640
    4SAPS    HB  419   4.912   4.811   6.676  0.8683 -0.8618 -0.4525
    4SAPS    C2  420   4.971   4.903   6.492  0.4666 -0.1092  0.6408
    4SAPS    HS  421   5.065   4.947   6.452 -1.3229  1.7435 -1.8569
    4SAPS   O21  422   4.852   4.992   6.458  0.0076 -0.0689 -0.4959
    4SAPS   C21  423   4.858   5.039   6.331 -0.2603 -0.0568 -0.3690
    4SAPS   O22  424   4.959   5.074   6.275 -0.0987 -0.1394 -0.0247
    4SAPS   C22  425   4.722   5.033   6.267 -0.1748 -0.4244 -0.5467
    4SAPS   H2R  426   4.704   4.924   6.252 -1.4274 -0.1996 -0.7931
    4SAPS   H2S  427   4.639   5.073   6.330  0.6117 -1.1799  1.0198
    4SAPS    C3  428   4.958   4.763   6.427  0.2171 -0.8703 -0.4185
    4SAPS    HX  429   4.870   4.709   6.468 -0.3510 -1.2484 -2.0987
    4SAPS    HY  430   5.046   4.704   6.461  0.6609 -1.5653 -2.6242
    4SAPS   O31  431   4.946   4.770   6.285 -0.2489 -0.4435  0.2569
    4SAPS   C31  432   5.056   4.773   6.217 -0.5868  0.5464  0.1777
    4SAPS   O32  433   5.171   4.764   6.262  0.3254  0.2238  0.4571
    4SAPS   C32  434   5.012   4.762   6.064  0.0436 -0.0557  0.1372
    4SAPS   H2X  435   4.965   4.862   6.050 -1.0615 -0.8456 -2.3571
    4SAPS   H2Y  436   4.936   4.681   6.062  1.8496 -1.8500  1.3288
    4SAPS   C23  437   4.704   5.117   6.135 -0.1554 -0.6769  0.2435
    4SAPS   H3R  438   4.764   5.059   6.062 -0.3315 -1.4200  0.6705
    4SAPS   H3S  439   4.755   5.214   6.153  1.6502 -1.6750  0.8421
    4SAPS   C24  440   4.562   5.138   6.085 -0.3510  0.3835 -0.7121
    4SAPS   H4R  441   4.569   5.203   5.995  2.1338 -0.4381 -1.1861
    4SAPS   H4S  442   4.489   5.185   6.154  1.3193  2.4766 -0.2609
    4SAPS   C25  443   4.520   5.002   6.042  1.0438  0.0190 -0.3153
    4SAPS   H5R  444   4.484   4.934   6.120  0.6807  0.6983  0.1144
    4SAPS   C26  445   4.545   4.942   5.923 -0.0822  0.1793 -0.0548
    4SAPS   H6R  446   4.490   4.847   5.917 -1.1246  0.7744 -0.1046
    4SAPS   C27  447   4.626   5.015   5.809  0.2459 -0.0983  0.0385
    4SAPS   H7R  448   4.728   4.971   5.817  0.0203 -0.4126  1.6260
    4SAPS   H7S  449   4.639   5.124   5.824 -1.0393 -0.1031  1.5399
    4SAPS   C28  450   4.569   4.963   5.684 -0.6742 -0.3709 -0.0223
    4SAPS   H8R  451   4.516   4.867   5.688  0.9234 -1.2489  1.5235
    4SAPS   C29  452   4.590   5.019   5.562  0.0171  0.1313  0.5598
    4SAPS   H9R  453   4.550   4.963   5.476 -1.4850 -0.8403  1.8203
    4SAPS  C210  454   4.678   5.139   5.532 -0.6677 -0.5279  0.1477
    4SAPS  H10R  455   4.750   5.112   5.452 -2.4005 -1.7696 -1.0709
    4SAPS  H10S  456   4.738   5.158   5.623 -1.3072  1.0574  0.2657
    4SAPS  C211  457   4.597   5.267   5.503 -0.1315  0.2108  0.0335
    4SAPS  H11R  458   4.545   5.320   5.584  0.3079 -1.2974  1.3564
    4SAPS  C212  459   4.586   5.319   5.376 -0.8053  0.4400  0.1796
    4SAPS  H12R  460   4.528   5.412   5.363  1.1102  2.2219  3.1494
    4SAPS  C213  461   4.642   5.261   5.246  0.4069 -0.0188 -0.7334
    4SAPS  H13R  462   4.568   5.264   5.163 -1.3157  1.9225  0.7840
    4SAPS  H13S  463   4.662   5.152   5.260  1.5965  0.2497 -0.2853
    4SAPS  C214  464   4.769   5.334   5.211  0.8485  0.5958 -0.0953
    4SAPS  H14R  465   4.807   5.407   5.285  0.8257  0.5416 -0.0305
    4SAPS  C215  466   4.832   5.324   5.092 -0.3258  0.4915  0.1818
    4SAPS  H15R  467   4.924   5.379   5.066 -0.6157 -0.2677 -2.6847
    4SAPS  C216  468   4.791   5.231   4.983 -0.1835 -0.7063 -0.5148
    4SAPS  H16R  469   4.680   5.217   4.983 -0.6704  2.1572 -2.1789
    4SAPS  H16S  470   4.838   5.133   5.004  0.4694 -0.3642 -0.3780
    4SAPS  C217  471   4.837   5.275   4.843 -0.4674  0.2696  0.2770
    4SAPS  H17R  472   4.799   5.189   4.784 -1.8344  0.1578  1.2873
    4SAPS  H17S  473   4.948   5.272   4.831 -0.4001  0.4044  0.8600
    4SAPS  C218  474   4.809   5.421   4.809  0.2260  0.6621 -0.2617
    4SAPS  H18R  475   4.861   5.482   4.886 -1.4222 -0.3618  1.7958
    4SAPS  H18S  476   4.700   5.424   4.834 -0.0120 -1.2413 -0.9361
    4SAPS  C219  477   4.826   5.468   4.663 -0.1807  0.1546  0.5409
    4SAPS  H19R  478   4.757   5.407   4.601  2.1217 -1.2089 -0.8722
    4SAPS  H19S  479   4.926   5.429   4.631 -0.3687 -2.2487  2.5124
    4SAPS  C220  480   4.809   5.613   4.637 -0.0788 -0.6326 -0.1911
    4SAPS  H20R  481   4.828   5.640   4.530 -3.1657  0.2790 -0.6266
    4SAPS  H20S  482   4.873   5.681   4.697 -2.4163  1.8361 -0.3183
    4SAPS  H20T  483   4.703   5.644   4.648  0.4512  1.5037 -0.5635
    4SAPS   C33  484   5.124   4.734   5.957  0.3275 -0.0211  0.4068
    4SAPS   H3X  485   5.182   4.643   5.984  0.6338  0.2474  0.6630
    4SAPS   H3Y  486   5.197   4.817   5.949 -0.1791  0.4689  0.8682
    4SAPS   C34  487   5.069   4.717   5.814 -0.5200 -0.6891  0.7295
    4SAPS   H4X  488   5.007   4.624   5.816 -1.1452 -0.2696  0.9976
    4SAPS   H4Y  489   5.156   4.694   5.749 -1.7256 -0.4914 -1.0322
    4SAPS   C35  490   5.000   4.841   5.756  0.5986 -0.6829  0.2513
    4SAPS   H5X  491   5.070   4.925   5.742 -1.0234  0.4555 -1.7068
    4SAPS   H5Y  492   4.920   4.877   5.824  1.2332  1.9498 -0.2806
    4SAPS   C36  493   4.940   4.820   5.614  0.3889 -0.0073  0.3202
    4SAPS   H6X  494   4.872   4.907   5.603  1.8035  1.3990  2.0827
    4SAPS   H6Y  495   4.874   4.731   5.619  0.3061  0.0528  5.2258
    4SAPS   C37  496   5.037   4.819   5.494  0.1576  0.3432  0.1256
    4SAPS   H7X  497   5.103   4.729   5.488  0.6691  0.8123 -2.5276
    4SAPS   H7Y  498   5.095   4.912   5.509 -2.2885  1.5064  3.3251
    4SAPS   C38  499   4.952   4.816   5.362  0.1512 -0.4360  0.5643
    4SAPS   H8X  500   4.881   4.902   5.360 -0.2058 -0.7002 -1.8861
    4SAPS   H8Y  501   4.895   4.721   5.365  0.9726 -1.0103 -0.8776
    4SAPS   C39  502   5.028   4.828   5.233 -0.0418 -0.8590 -0.0365
    4SAPS   H9X  503   5.090   4.738   5.210 -2.1238 -2.3988  0.0527
    4SAPS   H9Y  504   5.093   4.915   5.253 -0.4436 -0.4624 -0.4410
    4SAPS  C310  505   4.941   4.849   5.108 -0.2859  0.1530  0.4479
    4SAPS  H10X  506   4.890   4.947   5.126 -2.2038 -0.6208 -0.4682
    4SAPS  H10Y  507   4.857   4.777   5.107 -0.1426 -0.0118  0.3276
    4SAPS  C311  508   5.034   4.848   4.988 -0.1616 -0.4780 -0.1589
    4SAPS  H11X  509   5.106   4.764   4.981 -0.0649 -0.4921  0.8910
    4SAPS  H11Y  510   5.102   4.935   4.997  0.8237 -1.1946 -0.5369
    4SAPS  C312  511   4.953   4.845   4.859 -0.2208  0.7178  0.5924
    4SAPS  H12X  512   4.883   4.931   4.864 -1.0059  0.2136 -1.0067
    4SAPS  H12Y  513   4.897   4.750   4.842  0.4940 -0.0704  2.4102
    4SAPS  C313  514   5.041   4.874   4.736  0.3987  0.1922 -0.2705
    4SAPS  H13X  515   4.968   4.867   4.653 -1.4040  0.2423  1.2448
    4SAPS  H13Y  516   5.133   4.812   4.729  0.7519  0.1785  3.0636
    4SAPS  C314  517   5.081   5.019   4.726  0.4298 -0.8932  0.7868
    4SAPS  H14X  518   5.138   5.054   4.815  1.4380 -2.2927  0.7138
    4SAPS  H14Y  519   4.989   5.082   4.722  1.3144  0.4286  0.6279
    4SAPS  C315  520   5.137   5.058   4.591 -0.5932 -0.1182 -0.3248
    4SAPS  H15X  521   5.150   5.168   4.587 -1.1839  0.0119  0.8484
    4SAPS  H15Y  522   5.078   5.030   4.501  0.3883 -3.5394 -0.0613
    4SAPS  C316  523   5.267   4.987   4.562  0.9003  0.2204 -0.1343
    4SAPS  H16X  524   5.241   4.894   4.507 -2.0737  2.8330 -3.6141
    4SAPS  H16Y  525   5.321   4.967   4.658  1.8394  2.1895 -0.1920
    4SAPS  C317  526   5.365   5.061   4.465  0.1940 -0.3466  0.5018
    4SAPS  H17X  527   5.376   5.165   4.502 -0.4619  0.1413 -0.6671
    4SAPS  H17Y  528   5.329   5.054   4.360 -0.0524  1.9727  0.3982
    4SAPS  C318  529   5.499   4.996   4.473  0.3741  1.0630 -0.4698
    4SAPS  H18X  530   5.534   4.996   4.579 -0.2477  1.8311 -0.2574
    4SAPS  H18Y  531   5.570   5.045   4.403  0.8214  3.3407  1.4291
    4SAPS  H18Z  532   5.491   4.889   4.444  0.7524  1.1277 -0.8372
    5SAPS     N  533   5.735   0.668   6.945 -0.7269 -0.4936  0.3356
    5SAPS   HN1  534   5.662   0.611   6.991 -0.4466 -1.0384  0.1177
    5SAPS   HN2  535   5.714   0.770   6.951  1.0270 -0.1667  1.5483
    5SAPS   HN3  536   5.730   0.638   6.845 -0.6353 -0.8958  0.4514
    5SAPS   C12  537   5.870   0.624   7.004 -0.0817  0.1330 -0.1088
    5SAPS  H12A  538   5.889   0.703   7.075  1.2732  0.5074 -0.8547
    5SAPS   C13  539   5.866   0.495   7.089 -0.2629 -0.0045  0.0535
    5SAPS  O13A  540   5.755   0.440   7.115  0.2912 -0.4626  0.2115
    5SAPS  O13B  541   5.969   0.450   7.155 -0.2390  1.2133  0.3151
    5SAPS   C11  542   5.980   0.613   6.895  0.0894  0.2526 -0.4299
    5SAPS  H11A  543   5.937   0.548   6.816 -0.7096 -1.1080  1.0624
    5SAPS  H11B  544   6.074   0.566   6.931  0.2270 -0.0204 -1.1336
    5SAPS     P  545   6.096   0.854   6.892 -0.5431 -0.3580  0.3723
    5SAPS   O13  546   6.032   0.983   6.873 -0.5420 -0.3584 -0.2417
    5SAPS   O14  547   6.146   0.821   7.029  0.3231  0.1757 -0.3656
    5SAPS   O12  548   5.991   0.744   6.840  0.2389 -0.3154  0.6052
    5SAPS   O11  549   6.215   0.848   6.798 -0.6321 -0.1040 -0.0630
    5SAPS    C1  550   6.240   0.733   6.719  0.1113  0.3725  1.2461
    5SAPS    HA  551   6.342   0.693   6.734  0.1873 -0.3595 -0.8999
    5SAPS    HB  552   6.168   0.650   6.735 -1.0938  0.8338 -1.2710
    5SAPS    C2  553   6.239   0.769   6.569 -0.0628 -0.4275  0.0292
    5SAPS    HS  554   6.286   0.687   6.511 -3.1788 -1.6747 -0.9740
    5SAPS   O21  555   6.316   0.894   6.549 -0.3295  0.2008 -0.0481
    5SAPS   C21  556   6.451   0.866   6.539  0.5046  0.3013 -0.1929
    5SAPS   O22  557   6.495   0.752   6.544  0.1991 -0.0304 -0.0097
    5SAPS   C22  558   6.532   0.999   6.539 -0.0521 -0.2557 -1.1273
    5SAPS   H2R  559   6.494   1.054   6.450  0.8687  1.1800 -0.6492
    5SAPS   H2S  560   6.510   1.057   6.631 -1.1022  2.4677 -2.9573
    5SAPS    C3  561   6.094   0.781   6.503 -0.5664 -0.0636 -0.0050
    5SAPS    HX  562   6.029   0.824   6.582 -0.9008 -2.2395  0.9772
    5SAPS    HY  563   6.055   0.680   6.479 -0.2763  0.1200 -1.3542
    5SAPS   O31  564   6.105   0.853   6.379 -1.0985 -0.4294 -0.5255
    5SAPS   C31  565   6.042   0.967   6.365  0.0678 -0.3195  0.1883
    5SAPS   O32  566   5.965   1.020   6.442  0.0992 -0.1622 -0.0187
    5SAPS   C32  567   6.072   1.031   6.229  0.4529  0.2625  0.6779
    5SAPS   H2X  568   6.007   1.121   6.221  0.5350  0.4816  2.1197
    5SAPS   H2Y  569   6.044   0.960   6.149 -2.0486  0.7228  1.0481
    5SAPS   C23  570   6.685   0.990   6.507 -0.1174  0.7530  0.5576
    5SAPS   H3R  571   6.742   0.970   6.601  0.8773 -2.5799 -0.6186
    5SAPS   H3S  572   6.717   1.091   6.476  0.3864  0.5145  0.2856
    5SAPS   C24  573   6.744   0.886   6.407  1.2405 -0.1882 -0.5063
    5SAPS   H4R  574   6.720   0.784   6.443  0.7707 -0.6572 -2.0485
    5SAPS   H4S  575   6.855   0.893   6.408  1.3710 -1.3729 -2.3893
    5SAPS   C25  576   6.688   0.905   6.268  0.0622  0.1579  0.4782
    5SAPS   H5R  577   6.589   0.865   6.241  0.4445 -0.3882 -0.1253
    5SAPS   C26  578   6.757   0.970   6.169  0.0333  1.4162 -0.0087
    5SAPS   H6R  579   6.712   0.968   6.068  0.9667 -0.1666 -0.4379
    5SAPS   C27  580   6.893   1.025   6.180  0.3323  0.0681  0.2120
    5SAPS   H7R  581   6.964   0.946   6.146 -1.3846 -1.1166 -0.7631
    5SAPS   H7S  582   6.916   1.061   6.283 -0.6776  0.1395  0.4230
    5SAPS   C28  583   6.915   1.139   6.082 -0.0733 -0.3231 -0.5673
    5SAPS   H8R  584   6.904   1.235   6.134 -3.9099 -0.2000 -1.3726
    5SAPS   C29  585   6.920   1.142   5.951 -0.4982  0.1955 -0.2491
    5SAPS   H9R  586   6.942   1.241   5.908  2.0271  1.6265  3.7680
    5SAPS  C210  587   6.910   1.033   5.857  0.0795  0.4574  0.0594
    5SAPS  H10R  588   6.918   0.936   5.911  1.0297  1.2409  1.3686
    5SAPS  H10S  589   6.994   1.029   5.784 -0.7747  1.6556 -1.0467
    5SAPS  C211  590   6.777   1.022   5.791  0.0999  0.0771  0.1535
    5SAPS  H11R  591   6.696   1.032   5.865  0.9546 -0.9696  1.2728
    5SAPS  C212  592   6.750   0.999   5.660  0.1173  0.6616  0.2845
    5SAPS  H12R  593   6.645   0.996   5.626  0.6705 -1.2651 -1.4533
    5SAPS  C213  594   6.846   0.981   5.544 -0.0614  0.6750  0.1503
    5SAPS  H13R  595   6.951   0.973   5.581  1.1106 -1.9867 -3.1686
    5SAPS  H13S  596   6.845   1.069   5.476 -1.8865 -0.4911 -1.4586
    5SAPS  C214  597   6.827   0.856   5.459  0.3247  0.1173  0.7119
    5SAPS  H14R  598   6.869   0.761   5.494  0.0531 -1.1997 -2.2312
    5SAPS  C215  599   6.762   0.852   5.344 -0.2594 -0.9643  0.6914
    5SAPS  H15R  600   6.754   0.753   5.296 -0.6692 -1.1037  1.0416
    5SAPS  C216  601   6.707   0.959   5.261  0.3761 -0.5131 -0.5268
    5SAPS  H16R  602   6.724   1.063   5.298 -3.1545  0.5673 -1.6090
    5SAPS  H16S  603   6.597   0.959   5.252  0.3447 -1.1166 -0.2044
    5SAPS  C217  604   6.763   0.954   5.122  0.4859 -0.4019 -0.6314
    5SAPS  H17R  605   6.874   0.963   5.124  0.4290  0.2527 -0.1414
    5SAPS  H17S  606   6.731   1.047   5.069 -0.1709  0.0764  0.5704
    5SAPS  C218  607   6.700   0.841   5.036 -1.5301  0.5362  0.3630
    5SAPS  H18R  608   6.589   0.852   5.034 -1.4641  1.2204  0.3749
    5SAPS  H18S  609   6.719   0.742   5.083 -2.0551 -1.4469 -3.2539
    5SAPS  C219  610   6.742   0.848   4.886  0.4532  0.1922 -0.1535
    5SAPS  H19R  611   6.713   0.950   4.853 -0.3818 -0.5203 -1.7234
    5SAPS  H19S  612   6.694   0.770   4.823  1.7288 -2.1144  1.5419
    5SAPS  C220  613   6.896   0.848   4.862 -0.2019 -0.3427  0.2256
    5SAPS  H20R  614   6.909   0.848   4.752 -0.2556  0.8470  0.2050
    5SAPS  H20S  615   6.950   0.759   4.902 -0.3499 -1.4742 -1.9416
    5SAPS  H20T  616   6.944   0.941   4.900  1.9787 -0.8315 -1.1676
    5SAPS   C33  617   6.218   1.080   6.223  0.9874 -0.0256  0.0237
    5SAPS   H3X  618   6.250   1.137   6.312 -1.0856  0.8338  0.2857
    5SAPS   H3Y  619   6.214   1.156   6.142 -1.5628 -1.3170 -1.2002
    5SAPS   C34  620   6.324   0.979   6.191  0.0174  0.0834 -0.1376
    5SAPS   H4X  621   6.322   0.898   6.267  0.4507  1.1471  1.0468
    5SAPS   H4Y  622   6.425   1.025   6.197  0.9351 -1.1389 -3.7567
    5SAPS   C35  623   6.306   0.913   6.055  0.1762 -0.9573 -1.1501
    5SAPS   H5X  624   6.216   0.849   6.052 -1.0531  0.6656 -0.2182
    5SAPS   H5Y  625   6.400   0.866   6.018 -0.0456 -0.0048 -3.0839
    5SAPS   C36  626   6.280   1.010   5.933  0.6380 -0.1458 -0.4431
    5SAPS   H6X  627   6.374   1.069   5.935  1.1616 -0.9665 -0.2182
    5SAPS   H6Y  628   6.199   1.086   5.939  0.9531  0.2189 -0.7860
    5SAPS   C37  629   6.266   0.930   5.800 -0.5079  0.1889 -0.2384
    5SAPS   H7X  630   6.175   0.867   5.808  0.4768 -1.7359 -3.0016
    5SAPS   H7Y  631   6.359   0.870   5.786  0.6075  1.9836 -0.9840
    5SAPS   C38  632   6.256   1.023   5.682  0.6008 -0.1588  0.3344
    5SAPS   H8X  633   6.337   1.099   5.673  0.0558  0.2279 -2.4775
    5SAPS   H8Y  634   6.158   1.075   5.688 -0.0993 -0.5915 -4.1160
    5SAPS   C39  635   6.257   0.959   5.546 -0.2896 -0.5405  0.3650
    5SAPS   H9X  636   6.189   0.872   5.547  0.1879 -0.9216  0.0705
    5SAPS   H9Y  637   6.355   0.911   5.528 -0.9740 -2.4739  1.4794
    5SAPS  C310  638   6.213   1.054   5.435 -0.0174 -0.0007 -0.6817
    5SAPS  H10X  639   6.288   1.136   5.430 -0.0728  0.0464 -0.7258
    5SAPS  H10Y  640   6.122   1.112   5.462  2.3999  3.2523  1.2171
    5SAPS  C311  641   6.211   0.983   5.298  0.1739  0.5384 -0.0377
    5SAPS  H11X  642   6.183   0.876   5.293  0.9638  0.2103  1.7879
    5SAPS  H11Y  643   6.316   0.978   5.264  0.7120 -2.0114  1.7237
    5SAPS  C312  644   6.132   1.071   5.195  0.4179  0.3258  0.7391
    5SAPS  H12X  645   6.148   1.179   5.213 -0.2816  1.0292 -2.2888
    5SAPS  H12Y  646   6.023   1.055   5.213  0.0049 -2.5417 -2.9283
    5SAPS  C313  647   6.167   1.032   5.050 -0.1094 -0.7322 -0.8602
    5SAPS  H13X  648   6.278   1.035   5.050 -0.0711 -1.7374 -0.6802
    5SAPS  H13Y  649   6.130   1.106   4.976 -2.3174 -2.0518 -1.1764
    5SAPS  C314  650   6.124   0.901   5.004  0.2479  0.0842 -0.0862
    5SAPS  H14X  651   6.016   0.884   5.026 -0.1598 -0.5971 -2.3270
    5SAPS  H14Y  652   6.180   0.826   5.063 -0.2602 -1.4214 -1.4701
    5SAPS  C315  653   6.135   0.884   4.849 -0.8154  0.1772 -0.1073
    5SAPS  H15X  654   6.101   0.977   4.799  2.3252  2.0042  0.8603
    5SAPS  H15Y  655   6.082   0.791   4.821  2.0394 -1.4385 -0.5596
    5SAPS  C316  656   6.284   0.871   4.803  0.4318 -0.2120  0.4532
    5SAPS  H16X  657   6.323   0.789   4.866  1.6288 -0.7742 -0.9710
    5SAPS  H16Y  658   6.327   0.973   4.818 -2.0435  1.2232 -1.3792
    5SAPS  C317  659   6.306   0.819   4.660  0.0591 -0.0315  0.1093
    5SAPS  H17X  660   6.234   0.739   4.636  0.5635 -0.7150  0.8217
    5SAPS  H17Y  661   6.410   0.786   4.636  0.3954  1.7008 -1.0150
    5SAPS  C318  662   6.279   0.933   4.565  0.2690  0.5396  0.1542
    5SAPS  H18X  663   6.277   0.904   4.458 -0.7241 -2.1435  0.8246
    5SAPS  H18Y  664   6.351   1.015   4.585  1.0553  0.1576 -1.0507
    5SAPS  H18Z  665   6.176   0.968   4.590  0.5386  1.0214  0.6186
    6SAPS     N  666   4.163   0.418   6.781  0.4155  0.2400  0.6764
    6SAPS   HN1  667   4.122   0.436   6.687 -0.6198 -1.5826  0.7267
    6SAPS   HN2  668   4.137   0.483   6.858 -0.4154 -0.8776  1.3755
    6SAPS   HN3  669   4.263   0.433   6.757 -0.9277  2.6881 -5.3840
    6SAPS   C12  670   4.133   0.276   6.817 -0.6713  0.0353  0.1710
    6SAPS  H12A  671   4.196   0.247   6.899 -0.5880 -0.4597 -0.0629
    6SAPS   C13  672   3.990   0.252   6.872  0.8965 -0.2994  0.6117
    6SAPS  O13A  673   3.915   0.348   6.900 -0.6254 -0.3504  0.3867
    6SAPS  O13B  674   3.975   0.141   6.932 -0.2320 -0.3045  0.3507
    6SAPS   C11  675   4.153   0.189   6.692  0.0511 -0.0523  0.0222
    6SAPS  H11A  676   4.061   0.203   6.631 -0.1311  0.8582  0.5017
    6SAPS  H11B  677   4.149   0.081   6.718 -1.2348  0.2127  1.0241
    6SAPS     P  678   4.280   0.166   6.470 -0.0304  0.6375 -0.1952
    6SAPS   O13  679   4.258   0.280   6.377 -0.0740  0.5048  0.3213
    6SAPS   O14  680   4.417   0.104   6.454  0.4470  0.6477  0.3726
    6SAPS   O12  681   4.271   0.219   6.619 -0.2002  0.0776 -0.0365
    6SAPS   O11  682   4.168   0.052   6.446 -0.0546  0.4969  0.1375
    6SAPS    C1  683   4.114   0.031   6.313  0.0167 -0.4002 -0.3478
    6SAPS    HA  684   4.035   0.107   6.296  1.5606  1.2921 -0.3542
    6SAPS    HB  685   4.187   0.044   6.230 -0.4378  2.5550 -0.3872
    6SAPS    C2  686   4.056  -0.111   6.311  0.1548  0.6708 -0.0235
    6SAPS    HS  687   4.133  -0.191   6.318 -1.3939 -1.1308 -2.3495
    6SAPS   O21  688   3.983  -0.119   6.184 -0.7093 -0.2300  0.0896
    6SAPS   C21  689   4.017  -0.209   6.106 -0.9469  0.2566  0.5574
    6SAPS   O22  690   4.109  -0.293   6.122  0.1255 -0.8679 -0.2988
    6SAPS   C22  691   3.932  -0.196   5.978  0.8467  0.2096  0.7461
    6SAPS   H2R  692   3.831  -0.229   6.011 -0.2485  2.4351 -0.1883
    6SAPS   H2S  693   3.929  -0.089   5.950 -0.8223  0.0404  0.1231
    6SAPS    C3  694   3.954  -0.144   6.425  0.6895 -0.4448  0.0024
    6SAPS    HX  695   3.897  -0.051   6.447  1.3463 -0.2647  0.9854
    6SAPS    HY  696   4.011  -0.172   6.517  3.6423  0.0720 -1.5508
    6SAPS   O31  697   3.863  -0.250   6.390 -0.5742  0.3135 -0.0024
    6SAPS   C31  698   3.904  -0.370   6.422  0.2184 -0.1594  0.0750
    6SAPS   O32  699   4.000  -0.408   6.481 -0.1092 -0.4083 -0.1365
    6SAPS   C32  700   3.805  -0.466   6.354  0.4048  0.2916 -0.8899
    6SAPS   H2X  701   3.746  -0.410   6.278  0.6146  1.9297  0.1100
    6SAPS   H2Y  702   3.736  -0.493   6.437  1.1956  0.0620 -0.2877
    6SAPS   C23  703   3.970  -0.295   5.865 -0.4203 -0.4568 -0.4226
    6SAPS   H3R  704   3.943  -0.391   5.913  0.5812 -0.9537 -0.8344
    6SAPS   H3S  705   4.079  -0.285   5.846  0.1458  1.1962  2.9459
    6SAPS   C24  706   3.888  -0.293   5.732  0.2679 -0.0027  0.4919
    6SAPS   H4R  707   3.785  -0.316   5.764  0.0737 -0.0375 -0.1463
    6SAPS   H4S  708   3.922  -0.384   5.678 -1.7053  0.4332 -1.6100
    6SAPS   C25  709   3.890  -0.160   5.656 -0.4012  0.2048 -0.6479
    6SAPS   H5R  710   3.863  -0.076   5.721  0.9141  1.8378 -2.1242
    6SAPS   C26  711   3.942  -0.147   5.537 -0.0756  0.0216  0.6566
    6SAPS   H6R  712   3.947  -0.044   5.497  2.9772  0.7734  2.6223
    6SAPS   C27  713   4.008  -0.248   5.452 -0.1375 -0.6841 -0.4196
    6SAPS   H7R  714   3.993  -0.225   5.344  1.2540 -1.1380 -0.7291
    6SAPS   H7S  715   3.969  -0.352   5.451  0.1685 -0.8987 -4.1994
    6SAPS   C28  716   4.152  -0.252   5.485  0.4889 -0.2697  0.2298
    6SAPS   H8R  717   4.176  -0.236   5.591 -0.8384  2.2631  0.2192
    6SAPS   C29  718   4.255  -0.255   5.400  0.1704  0.9377  0.0008
    6SAPS   H9R  719   4.358  -0.238   5.432  0.1391 -0.2529  0.8307
    6SAPS  C210  720   4.243  -0.273   5.254 -0.1189  0.2288 -0.0474
    6SAPS  H10R  721   4.152  -0.229   5.209 -0.8571 -1.7130 -0.5782
    6SAPS  H10S  722   4.236  -0.382   5.234 -0.9611  0.1095  0.8452
    6SAPS  C211  723   4.349  -0.211   5.169  0.1367 -0.0607  0.7155
    6SAPS  H11R  724   4.438  -0.173   5.221  0.9099 -1.6579  0.6104
    6SAPS  C212  725   4.349  -0.212   5.034 -1.0839  0.4133 -0.0305
    6SAPS  H12R  726   4.438  -0.169   4.985  1.4233 -1.5684  2.4549
    6SAPS  C213  727   4.247  -0.250   4.924 -0.1167 -0.2470 -0.3205
    6SAPS  H13R  728   4.158  -0.297   4.971 -0.0430  1.4055  1.6032
    6SAPS  H13S  729   4.292  -0.335   4.868 -2.1976 -3.5953  2.6026
    6SAPS  C214  730   4.186  -0.136   4.849  0.0337  0.1368 -0.3599
    6SAPS  H14R  731   4.118  -0.077   4.913 -0.9584 -1.5290  0.1910
    6SAPS  C215  732   4.213  -0.102   4.719 -0.0852 -0.2444 -0.6517
    6SAPS  H15R  733   4.149  -0.027   4.671  2.6484  1.5382 -1.7288
    6SAPS  C216  734   4.299  -0.174   4.612  0.0327  1.2106 -0.3532
    6SAPS  H16R  735   4.344  -0.273   4.635  1.8330  2.0462 -0.1353
    6SAPS  H16S  736   4.380  -0.109   4.572  1.0262  0.2074 -0.0432
    6SAPS  C217  737   4.208  -0.208   4.494 -0.1366  1.0213 -0.0172
    6SAPS  H17R  738   4.112  -0.252   4.529 -0.4713  1.2198 -0.6582
    6SAPS  H17S  739   4.255  -0.284   4.427 -0.0745  0.9484  0.1098
    6SAPS  C218  740   4.152  -0.096   4.396 -0.7920  0.4775  0.5705
    6SAPS  H18R  741   4.241  -0.038   4.363 -0.6913 -0.9538 -2.0125
    6SAPS  H18S  742   4.083  -0.029   4.451 -2.8285 -1.6508  0.7243
    6SAPS  C219  743   4.096  -0.137   4.263 -0.2104 -0.8338  0.3465
    6SAPS  H19R  744   3.990  -0.166   4.280 -0.8515  1.0242 -0.2989
    6SAPS  H19S  745   4.156  -0.225   4.233  0.4601 -1.0731  2.2473
    6SAPS  C220  746   4.097  -0.022   4.158 -0.4713  0.2052 -0.2563
    6SAPS  H20R  747   4.201   0.014   4.145 -0.5465  1.4537  2.1270
    6SAPS  H20S  748   4.026   0.058   4.191 -2.1759 -1.0400 -0.7390
    6SAPS  H20T  749   4.055  -0.063   4.063 -1.1319 -0.3394  0.2608
    6SAPS   C33  750   3.875  -0.592   6.303 -0.0981  0.0086 -0.1735
    6SAPS   H3X  751   3.800  -0.672   6.285 -0.8618  0.9554 -1.2681
    6SAPS   H3Y  752   3.925  -0.650   6.384 -1.2566  0.6808  1.0640
    6SAPS   C34  753   3.965  -0.567   6.183 -0.4196 -0.0201 -0.5945
    6SAPS   H4X  754   4.036  -0.485   6.206 -2.1099  1.7964 -1.6720
    6SAPS   H4Y  755   3.894  -0.523   6.111 -0.7022  1.1171  0.3559
    6SAPS   C35  756   4.044  -0.687   6.131  0.4912 -0.1524  0.5440
    6SAPS   H5X  757   3.971  -0.769   6.117 -0.6118  0.7266  1.0321
    6SAPS   H5Y  758   4.121  -0.727   6.201  0.6763 -1.3185 -0.2988
    6SAPS   C36  759   4.116  -0.641   5.997 -0.0864 -0.4551  0.0784
    6SAPS   H6X  760   4.162  -0.545   6.029  0.5424 -0.2995 -1.2364
    6SAPS   H6Y  761   4.057  -0.638   5.903 -0.2407 -2.1895  0.1005
    6SAPS   C37  762   4.238  -0.730   5.972  0.1496  0.4126  1.6574
    6SAPS   H7X  763   4.188  -0.829   5.968 -0.2516  0.6282 -1.3089
    6SAPS   H7Y  764   4.302  -0.721   6.062  2.6277 -0.9074  0.1156
    6SAPS   C38  765   4.332  -0.697   5.846 -0.3188 -0.8058 -0.0109
    6SAPS   H8X  766   4.430  -0.749   5.854  0.5181  0.2835 -2.1350
    6SAPS   H8Y  767   4.357  -0.589   5.861 -0.5188 -0.7625  0.0039
    6SAPS   C39  768   4.290  -0.731   5.705 -0.1506  0.2557 -0.8397
    6SAPS   H9X  769   4.215  -0.812   5.720  0.1243  0.1842  0.1619
    6SAPS   H9Y  770   4.369  -0.795   5.660 -0.8012  0.3027 -2.0995
    6SAPS  C310  771   4.252  -0.627   5.613  0.8358  0.1025  0.2337
    6SAPS  H10X  772   4.322  -0.541   5.628  1.3862 -0.5930  1.9642
    6SAPS  H10Y  773   4.151  -0.596   5.647 -0.1386 -1.7790 -0.7869
    6SAPS  C311  774   4.245  -0.668   5.465  0.9970  0.2523 -0.3656
    6SAPS  H11X  775   4.256  -0.779   5.463 -1.2167 -0.0256 -0.6943
    6SAPS  H11Y  776   4.336  -0.626   5.418  2.3980  0.3520  2.2457
    6SAPS  C312  777   4.104  -0.631   5.419 -0.9426 -0.1966 -0.0829
    6SAPS  H12X  778   4.090  -0.521   5.426  0.0077 -0.1540  1.8298
    6SAPS  H12Y  779   4.037  -0.703   5.471  0.5538 -0.7871  1.1098
    6SAPS  C313  780   4.094  -0.662   5.265  0.0585 -0.0252 -0.1485
    6SAPS  H13X  781   4.103  -0.766   5.226  0.1600  0.2378 -0.8440
    6SAPS  H13Y  782   4.180  -0.605   5.224 -0.3501 -1.0182 -2.5370
    6SAPS  C314  783   3.966  -0.608   5.201  0.3641 -0.1816  0.0381
    6SAPS  H14X  784   3.954  -0.503   5.234 -0.2309 -0.8493  2.1435
    6SAPS  H14Y  785   3.875  -0.669   5.217 -0.6377  1.1539 -0.4344
    6SAPS  C315  786   3.990  -0.612   5.051  0.3120 -0.3627 -0.1977
    6SAPS  H15X  787   4.007  -0.714   5.012  0.6834 -0.8098  1.0646
    6SAPS  H15Y  788   4.082  -0.551   5.040  0.9859 -1.1671  0.7672
    6SAPS  C316  789   3.862  -0.566   4.971 -0.1655 -0.0658 -0.3153
    6SAPS  H16X  790   3.798  -0.657   4.966  0.2555 -0.3494 -0.7471
    6SAPS  H16Y  791   3.873  -0.544   4.862 -4.5101  2.7795 -0.4429
    6SAPS  C317  792   3.802  -0.438   5.028 -0.2662 -0.2634  0.4814
    6SAPS  H17X  793   3.767  -0.458   5.131 -0.6947 -0.1166  0.3661
    6SAPS  H17Y  794   3.715  -0.405   4.967  1.1860  2.0286 -0.4859
    6SAPS  C318  795   3.898  -0.324   5.020 -0.1793  0.0041  0.3934
    6SAPS  H18X  796   3.995  -0.355   5.064  0.4540 -0.0532 -0.9876
    6SAPS  H18Y  797   3.865  -0.243   5.089 -2.1595 -0.7172  0.3622
    6SAPS  H18Z  798   3.906  -0.293   4.913  0.2880  0.8818  0.6732
    7SAPS     N  799   4.657   2.207   6.957  0.1485 -0.8649  0.1445
    7SAPS   HN1  800   4.740   2.236   6.901 -0.5887  2.1769  0.4544
    7SAPS   HN2  801   4.681   2.138   7.030 -0.0526  2.3831  3.5462
    7SAPS   HN3  802   4.582   2.173   6.893 -1.5465 -0.1286  1.6396
    7SAPS   C12  803   4.619   2.338   7.012 -0.1763 -0.3271  0.1787
    7SAPS  H12A  804   4.522   2.320   7.056  0.0219  1.9875  1.7431
    7SAPS   C13  805   4.714   2.386   7.124 -0.2737  0.3759 -0.3536
    7SAPS  O13A  806   4.830   2.337   7.145 -0.0154  0.4389  0.3109
    7SAPS  O13B  807   4.680   2.480   7.202 -0.3514 -0.4778 -0.0604
    7SAPS   C11  808   4.610   2.448   6.905  0.2689 -0.8800 -0.1965
    7SAPS  H11A  809   4.713   2.471   6.869 -0.7736  1.0548 -2.2165
    7SAPS  H11B  810   4.570   2.538   6.957  1.1004  0.4033 -1.6469
    7SAPS     P  811   4.539   2.489   6.662 -0.1006  0.0670  0.1208
    7SAPS   O13  812   4.424   2.464   6.575  0.0819 -0.5353 -0.6844
    7SAPS   O14  813   4.573   2.630   6.680  0.1778  0.2838 -0.4317
    7SAPS   O12  814   4.527   2.408   6.800  0.4452  0.1328  0.0173
    7SAPS   O11  815   4.659   2.411   6.604  0.0855 -0.1727  0.2627
    7SAPS    C1  816   4.744   2.451   6.499 -0.0602  0.2092  0.2620
    7SAPS    HA  817   4.741   2.561   6.485 -0.1644  0.4643  1.9988
    7SAPS    HB  818   4.853   2.432   6.514 -0.1269 -0.8649 -0.5628
    7SAPS    C2  819   4.688   2.389   6.368  0.7700 -0.5328  0.4414
    7SAPS    HS  820   4.579   2.406   6.374  0.9634  0.6190  0.8086
    7SAPS   O21  821   4.720   2.249   6.373  0.1836 -0.2159  0.1832
    7SAPS   C21  822   4.631   2.159   6.332  0.7366 -0.2998  0.2518
    7SAPS   O22  823   4.513   2.185   6.306 -0.9042 -0.3861 -0.0499
    7SAPS   C22  824   4.690   2.016   6.322  0.3726 -0.7881 -0.2481
    7SAPS   H2R  825   4.764   2.005   6.405  0.9829 -1.2821 -0.8494
    7SAPS   H2S  826   4.603   1.948   6.337  0.8017 -1.4947 -0.9007
    7SAPS    C3  827   4.748   2.453   6.236  0.2438  0.3189 -1.3234
    7SAPS    HX  828   4.856   2.429   6.247 -0.4379 -3.0455 -0.6287
    7SAPS    HY  829   4.731   2.562   6.237  1.8152  0.6227  1.0924
    7SAPS   O31  830   4.698   2.386   6.117  0.4019 -0.2463  0.9228
    7SAPS   C31  831   4.565   2.417   6.088 -0.6641  0.0450 -0.6290
    7SAPS   O32  832   4.484   2.470   6.165  0.1655  0.2323  0.1596
    7SAPS   C32  833   4.547   2.389   5.932  0.2131  0.1053 -0.1013
    7SAPS   H2X  834   4.453   2.331   5.921 -0.6472  1.5966 -0.8749
    7SAPS   H2Y  835   4.631   2.331   5.888 -1.7666 -2.1768 -1.0521
    7SAPS   C23  836   4.751   1.994   6.189 -0.0567  0.2303  0.4651
    7SAPS   H3R  837   4.713   2.051   6.101 -0.4415  0.2990  0.6755
    7SAPS   H3S  838   4.743   1.891   6.148  0.5068 -0.4161  1.9003
    7SAPS   C24  839   4.902   2.030   6.197  0.0971  0.1195  0.1412
    7SAPS   H4R  840   4.949   1.989   6.289  2.6293  2.5507  0.0712
    7SAPS   H4S  841   4.909   2.140   6.212  0.8479  0.3106 -1.4786
    7SAPS   C25  842   4.985   1.985   6.072  0.3048  0.0997  0.2030
    7SAPS   H5R  843   5.065   1.914   6.094 -0.6117 -0.8813  0.4756
    7SAPS   C26  844   4.969   2.027   5.945 -0.4246 -0.1276  0.5910
    7SAPS   H6R  845   5.045   1.989   5.875  1.8562  1.4125  2.0728
    7SAPS   C27  846   4.868   2.126   5.899 -0.1896  1.1629 -0.4484
    7SAPS   H7R  847   4.914   2.197   5.827  1.6611 -1.4693 -2.0558
    7SAPS   H7S  848   4.823   2.181   5.985 -1.2634 -0.8387  0.3221
    7SAPS   C28  849   4.761   2.055   5.824  0.0143  0.6058  0.4749
    7SAPS   H8R  850   4.670   2.023   5.878 -1.0323  1.8941 -0.4599
    7SAPS   C29  851   4.758   2.029   5.693  0.1190  0.0994  0.2780
    7SAPS   H9R  852   4.672   1.980   5.644 -0.7302 -0.0692  1.8839
    7SAPS  C210  853   4.862   2.077   5.597 -0.3520 -0.6648 -0.6828
    7SAPS  H10R  854   4.877   2.014   5.507  0.6161  0.8461 -1.6229
    7SAPS  H10S  855   4.964   2.081   5.639  1.4223  2.4637 -4.6749
    7SAPS  C211  856   4.836   2.220   5.551 -0.1621  0.2523 -0.0356
    7SAPS  H11R  857   4.801   2.279   5.636 -0.2785 -2.3058  1.8063
    7SAPS  C212  858   4.868   2.269   5.428 -0.6781 -0.3543 -0.4121
    7SAPS  H12R  859   4.842   2.373   5.409  0.5594 -0.1201 -0.9710
    7SAPS  C213  860   4.912   2.188   5.304  0.4493 -0.3712  0.4106
    7SAPS  H13R  861   4.851   2.096   5.293 -0.9655  0.5706  0.1798
    7SAPS  H13S  862   5.014   2.144   5.316  0.5180 -1.2499 -2.4811
    7SAPS  C214  863   4.905   2.271   5.183  0.2711  0.1005 -0.3974
    7SAPS  H14R  864   4.831   2.352   5.187 -0.1348 -0.1443 -2.1506
    7SAPS  C215  865   4.971   2.255   5.062 -0.1839 -0.2794  0.5024
    7SAPS  H15R  866   4.957   2.328   4.981 -1.6139  0.5733  1.4690
    7SAPS  C216  867   5.065   2.138   5.037 -0.5924 -0.5476  0.0219
    7SAPS  H16R  868   5.105   2.089   5.129  0.5579 -1.9526 -1.1676
    7SAPS  H16S  869   5.152   2.184   4.986  0.3192 -0.7270  1.3387
    7SAPS  C217  870   4.996   2.028   4.946 -0.4557 -0.4716  0.9191
    7SAPS  H17R  871   4.900   1.997   4.991  1.0196 -0.0620  4.7656
    7SAPS  H17S  872   5.060   1.939   4.964  0.1340  0.0410  1.4004
    7SAPS  C218  873   4.993   2.052   4.797 -0.7786 -0.1746  0.1835
    7SAPS  H18R  874   4.962   1.950   4.766  1.6243 -2.2833  3.8816
    7SAPS  H18S  875   5.094   2.080   4.760 -2.2240  2.8802 -1.8055
    7SAPS  C219  876   4.896   2.167   4.760 -0.4936 -0.5944  0.1288
    7SAPS  H19R  877   4.946   2.256   4.802  1.9544 -2.7121  2.0706
    7SAPS  H19S  878   4.800   2.138   4.808 -1.5915  0.7777 -1.1334
    7SAPS  C220  879   4.891   2.173   4.615 -0.0653 -0.1395 -0.8676
    7SAPS  H20R  880   4.811   2.238   4.573  1.2537  0.1178 -3.1642
    7SAPS  H20S  881   4.874   2.073   4.568 -1.8568 -0.2860  0.0146
    7SAPS  H20T  882   4.980   2.209   4.560  0.7541 -3.4503 -1.9840
    7SAPS   C33  883   4.529   2.521   5.858  0.2695  0.5863  0.2251
    7SAPS   H3X  884   4.603   2.599   5.885 -0.0571  0.7513  0.6538
    7SAPS   H3Y  885   4.431   2.560   5.891 -0.8328 -1.1700 -0.8031
    7SAPS   C34  886   4.525   2.505   5.702  0.9473  0.1444 -0.5132
    7SAPS   H4X  887   4.443   2.436   5.672  1.3233 -0.4220 -0.2601
    7SAPS   H4Y  888   4.617   2.446   5.683  1.0208 -0.4782  1.4975
    7SAPS   C35  889   4.525   2.637   5.630  0.0076  0.3416  0.3077
    7SAPS   H5X  890   4.627   2.678   5.646  1.1237 -2.4312  0.8510
    7SAPS   H5Y  891   4.444   2.700   5.671  1.3749  0.3551  3.2101
    7SAPS   C36  892   4.508   2.628   5.480  0.5926  0.4195  0.6635
    7SAPS   H6X  893   4.506   2.731   5.439 -2.0214  0.7506  1.4255
    7SAPS   H6Y  894   4.407   2.589   5.457 -0.2215  1.9328  1.5155
    7SAPS   C37  895   4.622   2.555   5.407 -0.0609  0.1656  0.0905
    7SAPS   H7X  896   4.652   2.466   5.467 -1.9240 -0.9591 -0.5776
    7SAPS   H7Y  897   4.704   2.625   5.382 -0.7904  0.4060 -1.7859
    7SAPS   C38  898   4.564   2.501   5.275  0.0742  0.4812  0.1265
    7SAPS   H8X  899   4.470   2.448   5.300 -0.4372  1.0141 -0.6251
    7SAPS   H8Y  900   4.635   2.429   5.229 -0.0562 -0.2250  1.0071
    7SAPS   C39  901   4.531   2.601   5.161  0.6275  0.4622  0.5470
    7SAPS   H9X  902   4.452   2.675   5.186 -0.8262 -0.7491 -0.3321
    7SAPS   H9Y  903   4.486   2.539   5.081 -0.0744 -0.0707  1.3338
    7SAPS  C310  904   4.646   2.670   5.102 -0.0266  0.4561 -0.1257
    7SAPS  H10X  905   4.725   2.605   5.059 -1.0469 -1.9836  1.4639
    7SAPS  H10Y  906   4.696   2.738   5.174 -0.4220  1.1086 -0.4455
    7SAPS  C311  907   4.614   2.768   4.989 -0.2620  0.0384 -1.1828
    7SAPS  H11X  908   4.704   2.824   4.957 -0.3620  1.8963  1.3970
    7SAPS  H11Y  909   4.542   2.843   5.029 -0.0154 -0.6709  0.6950
    7SAPS  C312  910   4.561   2.704   4.867  0.1935 -0.9728 -0.5672
    7SAPS  H12X  911   4.538   2.786   4.795 -0.4383  0.4068  1.1355
    7SAPS  H12Y  912   4.464   2.655   4.891 -0.8710  0.8551 -0.8824
    7SAPS  C313  913   4.659   2.617   4.795  0.0457 -0.1609  0.7319
    7SAPS  H13X  914   4.671   2.531   4.863 -1.8887  0.2609  1.6632
    7SAPS  H13Y  915   4.756   2.669   4.779  0.3086 -0.5820  0.9337
    7SAPS  C314  916   4.607   2.570   4.656  0.0861  0.0146 -0.3842
    7SAPS  H14X  917   4.573   2.659   4.599 -1.9389 -0.3442  0.1764
    7SAPS  H14Y  918   4.526   2.497   4.677  2.1330 -1.3514  3.8032
    7SAPS  C315  919   4.723   2.499   4.582 -0.8586 -0.5394  0.3286
    7SAPS  H15X  920   4.683   2.414   4.525 -0.2070 -2.3334  2.4079
    7SAPS  H15Y  921   4.788   2.454   4.660  0.4120  0.5362 -0.0509
    7SAPS  C316  922   4.807   2.591   4.489  0.1170  0.5745 -0.3780
    7SAPS  H16X  923   4.865   2.668   4.545  0.1986  0.3783 -0.1919
    7SAPS  H16Y  924   4.741   2.638   4.413  1.9386 -0.6378 -2.8622
    7SAPS  C317  925   4.925   2.522   4.416  0.5161  0.2560  0.6182
    7SAPS  H17X  926   4.900   2.417   4.389  0.1985  0.8765 -1.7686
    7SAPS  H17Y  927   5.015   2.523   4.481  1.7040 -3.3575 -0.6984
    7SAPS  C318  928   4.943   2.593   4.276 -0.2572  0.4266 -0.2237
    7SAPS  H18X  929   4.959   2.703   4.285 -0.9171  0.4551  0.7064
    7SAPS  H18Y  930   4.855   2.578   4.211  0.4869  0.9250 -1.3758
    7SAPS  H18Z  931   5.019   2.536   4.218 -0.5808 -0.8716  0.5982
    8SAPS     N  932   5.815   2.439   6.843  0.1478 -0.4198 -0.0375
    8SAPS   HN1  933   5.754   2.356   6.831 -1.6748  0.8937 -0.2459
    8SAPS   HN2  934   5.885   2.424   6.767  0.1102  0.7190 -0.3168
    8SAPS   HN3  935   5.867   2.438   6.933 -1.0774  0.2279  0.7078
    8SAPS   C12  936   5.747   2.566   6.833  0.1567 -0.3172  0.6864
    8SAPS  H12A  937   5.654   2.537   6.787  0.5003 -1.0024  0.4081
    8SAPS   C13  938   5.704   2.615   6.968 -0.0911  0.0569  0.0289
    8SAPS  O13A  939   5.721   2.551   7.081 -0.4576  0.3032  0.1234
    8SAPS  O13B  940   5.637   2.724   6.964  0.6234  0.3207 -0.0412
    8SAPS   C11  941   5.826   2.677   6.752  0.5340 -0.3834  0.1272
    8SAPS  H11A  942   5.927   2.697   6.794  0.6531  0.5096 -0.5548
    8SAPS  H11B  943   5.769   2.772   6.764  0.4922 -0.1736 -1.4248
    8SAPS     P  944   5.956   2.675   6.529 -0.0351  0.3868  0.2345
    8SAPS   O13  945   6.082   2.700   6.603 -0.0050  0.1471  0.3190
    8SAPS   O14  946   5.980   2.571   6.431 -0.1933  0.6604  0.7215
    8SAPS   O12  947   5.835   2.638   6.618 -0.0566  0.4483  0.1242
    8SAPS   O11  948   5.896   2.806   6.462  0.0301  0.5760 -0.2008
    8SAPS    C1  949   5.759   2.816   6.412  0.0759  0.5467 -0.0205
    8SAPS    HA  950   5.702   2.722   6.425 -2.6797  1.6077 -3.2379
    8SAPS    HB  951   5.713   2.899   6.471 -0.3267  0.3439 -0.0478
    8SAPS    C2  952   5.747   2.842   6.260 -0.0321  0.3053 -0.2617
    8SAPS    HS  953   5.754   2.747   6.202  0.0617  0.4006 -0.4068
    8SAPS   O21  954   5.854   2.934   6.230 -0.0149 -0.2320 -0.5167
    8SAPS   C21  955   5.904   2.916   6.102 -0.5401 -0.1951  0.1290
    8SAPS   O22  956   5.886   2.818   6.032  0.2757  0.7480 -0.2451
    8SAPS   C22  957   5.985   3.038   6.067 -1.0516 -0.6070  0.9917
    8SAPS   H2R  958   6.083   3.030   6.119 -0.7314 -1.6488  0.2583
    8SAPS   H2S  959   6.011   3.022   5.960  0.4639 -2.9281  1.6333
    8SAPS    C3  960   5.616   2.921   6.237  0.0382  0.0036  0.4603
    8SAPS    HX  961   5.630   3.019   6.286  1.8880  0.1741 -0.3173
    8SAPS    HY  962   5.526   2.875   6.283 -0.8930  0.3252 -0.9558
    8SAPS   O31  963   5.590   2.933   6.092  0.2778 -0.3446 -0.5268
    8SAPS   C31  964   5.529   2.825   6.039 -0.4267  0.4255 -0.4334
    8SAPS   O32  965   5.485   2.731   6.100 -0.1556 -0.3421 -0.7859
    8SAPS   C32  966   5.516   2.843   5.889 -0.0743 -0.5624  0.5064
    8SAPS   H2X  967   5.606   2.898   5.855 -0.4524 -0.3826 -0.2262
    8SAPS   H2Y  968   5.423   2.902   5.874 -1.9634 -3.4744 -0.0153
    8SAPS   C23  969   5.914   3.172   6.082 -0.2517  0.0329  0.8311
    8SAPS   H3R  970   5.972   3.240   6.148 -1.2570  0.2362  1.5300
    8SAPS   H3S  971   5.818   3.151   6.135 -1.4285 -1.1258 -1.5551
    8SAPS   C24  972   5.886   3.241   5.940  0.2637 -0.2003  0.2308
    8SAPS   H4R  973   5.828   3.332   5.967 -3.3011 -2.4092  0.6700
    8SAPS   H4S  974   5.822   3.168   5.886  0.6938 -0.8337  0.5685
    8SAPS   C25  975   6.010   3.285   5.861 -0.1698  0.3577  0.1166
    8SAPS   H5R  976   6.096   3.331   5.912 -0.2191  0.8471 -0.2339
    8SAPS   C26  977   6.031   3.272   5.729 -0.2775 -0.0723  0.6050
    8SAPS   H6R  978   6.127   3.311   5.693 -1.1482  0.5621 -1.1054
    8SAPS   C27  979   5.932   3.213   5.634  0.2351 -1.1521  0.3808
    8SAPS   H7R  980   5.827   3.249   5.642 -0.4459 -2.1921 -2.3879
    8SAPS   H7S  981   5.917   3.105   5.655 -1.3799 -0.9656  0.2608
    8SAPS   C28  982   5.963   3.219   5.484 -0.1410  0.0361  0.4947
    8SAPS   H8R  983   5.904   3.292   5.427  1.4345  0.0315 -1.2427
    8SAPS   C29  984   6.056   3.152   5.424 -0.1375  0.4322 -0.6056
    8SAPS   H9R  985   6.064   3.162   5.314  0.2135 -1.9739 -0.8403
    8SAPS  C210  986   6.160   3.059   5.493  0.0433  0.7568 -0.0812
    8SAPS  H10R  987   6.150   2.961   5.443 -3.1597  0.6098  0.6183
    8SAPS  H10S  988   6.125   3.030   5.594  3.2179 -2.5007  0.2862
    8SAPS  C211  989   6.294   3.127   5.484  0.1886 -0.1265  0.4316
    8SAPS  H11R  990   6.312   3.212   5.552 -2.2976  0.4071  0.5151
    8SAPS  C212  991   6.395   3.084   5.410 -0.0934 -0.2971 -0.5428
    8SAPS  H12R  992   6.489   3.141   5.409 -0.3059  0.1055  0.8162
    8SAPS  C213  993   6.402   2.965   5.323 -0.0823  0.0989  0.3652
    8SAPS  H13R  994   6.362   2.882   5.386 -1.4996 -1.3299 -2.2626
    8SAPS  H13S  995   6.506   2.940   5.293 -0.8763 -2.5581 -0.4171
    8SAPS  C214  996   6.310   2.982   5.202 -0.0022  0.3431 -0.2166
    8SAPS  H14R  997   6.203   2.981   5.225  0.7685 -1.6540  4.4108
    8SAPS  C215  998   6.350   3.004   5.073 -1.1107  0.1342  0.1488
    8SAPS  H15R  999   6.271   2.988   4.998 -0.7641  1.9308 -0.6456
    8SAPS  C216 1000   6.491   3.052   5.032  0.1243  0.0467 -0.2941
    8SAPS  H16R 1001   6.544   3.105   5.114 -3.9290  1.8308  1.4588
    8SAPS  H16S 1002   6.481   3.110   4.938 -2.8127  0.3704  0.1368
    8SAPS  C217 1003   6.583   2.931   4.985  0.1751  0.0632  1.2071
    8SAPS  H17R 1004   6.595   2.867   5.075  0.2917  1.8414  2.4999
    8SAPS  H17S 1005   6.682   2.977   4.962 -0.7396  1.3825 -0.2046
    8SAPS  C218 1006   6.535   2.862   4.861 -0.2708  0.5397 -0.0799
    8SAPS  H18R 1007   6.472   2.935   4.806 -0.2248  0.0409 -0.8048
    8SAPS  H18S 1008   6.475   2.775   4.895  0.7522  0.0360  0.4839
    8SAPS  C219 1009   6.654   2.815   4.772  0.3982 -0.5478 -0.3218
    8SAPS  H19R 1010   6.735   2.891   4.763  0.3628 -0.1953  1.9060
    8SAPS  H19S 1011   6.602   2.801   4.675  0.1109 -1.0781 -0.0928
    8SAPS  C220 1012   6.696   2.677   4.830 -0.1455 -0.8762  0.3816
    8SAPS  H20R 1013   6.749   2.696   4.927  0.9043 -1.2228 -0.1055
    8SAPS  H20S 1014   6.772   2.626   4.768 -1.1446 -3.1497  0.9309
    8SAPS  H20T 1015   6.611   2.606   4.836 -0.0241 -1.1293 -0.7318
    8SAPS   C33 1016   5.494   2.713   5.804 -0.1975 -0.3702 -0.0026
    8SAPS   H3X 1017   5.436   2.633   5.856 -2.0732  0.9944  0.0782
    8SAPS   H3Y 1018   5.593   2.668   5.782  0.1570  0.1441  0.5198
    8SAPS   C34 1019   5.420   2.736   5.667 -0.4576 -0.4580 -0.4576
    8SAPS   H4X 1020   5.318   2.772   5.688  0.5793  2.9302 -0.6584
    8SAPS   H4Y 1021   5.427   2.637   5.617  1.6082  0.5120 -2.3108
    8SAPS   C35 1022   5.499   2.837   5.588 -0.5440 -1.2024  0.9217
    8SAPS   H5X 1023   5.607   2.818   5.609 -0.1245  1.3582  1.3923
    8SAPS   H5Y 1024   5.487   2.941   5.623  0.3371 -0.4536 -0.8704
    8SAPS   C36 1025   5.463   2.824   5.435  0.3565  0.2516  0.0184
    8SAPS   H6X 1026   5.360   2.865   5.425 -0.3181 -0.6324  2.6704
    8SAPS   H6Y 1027   5.470   2.719   5.401 -1.2331  0.0697  0.2079
    8SAPS   C37 1028   5.549   2.911   5.343  0.0794 -0.3391 -0.3415
    8SAPS   H7X 1029   5.577   2.861   5.248 -0.7728  1.7250 -1.7605
    8SAPS   H7Y 1030   5.649   2.917   5.390  1.1968 -0.5155 -2.6041
    8SAPS   C38 1031   5.494   3.048   5.326  0.0145 -0.2831  0.2316
    8SAPS   H8X 1032   5.578   3.121   5.325  0.0314 -0.2316  2.0918
    8SAPS   H8Y 1033   5.426   3.075   5.409  1.7061  0.2897  1.4969
    8SAPS   C39 1034   5.425   3.058   5.181  0.3414  1.0896 -0.6188
    8SAPS   H9X 1035   5.338   2.989   5.170 -0.2420  1.6204  0.5591
    8SAPS   H9Y 1036   5.500   3.026   5.105 -0.0150  0.6253 -0.7805
    8SAPS  C310 1037   5.377   3.202   5.151 -0.6277  0.2055  0.5353
    8SAPS  H10X 1038   5.298   3.235   5.222 -1.3036  1.2571 -0.6788
    8SAPS  H10Y 1039   5.338   3.204   5.047  0.5312  1.5205  0.0848
    8SAPS  C311 1040   5.486   3.314   5.160 -0.2470 -0.0362 -0.5723
    8SAPS  H11X 1041   5.576   3.272   5.109  1.0067  1.5622  0.2464
    8SAPS  H11Y 1042   5.514   3.336   5.265 -1.7596 -1.4394  0.1772
    8SAPS  C312 1043   5.440   3.441   5.086  0.2004 -1.3174 -0.4235
    8SAPS  H12X 1044   5.487   3.527   5.138 -3.7928  1.1235 -0.4249
    8SAPS  H12Y 1045   5.329   3.445   5.084  0.2256  1.5272  0.2815
    8SAPS  C313 1046   5.482   3.465   4.934 -0.0859 -0.0838 -0.8935
    8SAPS  H13X 1047   5.441   3.373   4.887 -0.5764 -2.4364  3.6401
    8SAPS  H13Y 1048   5.593   3.463   4.936 -0.1081 -1.2986 -0.2977
    8SAPS  C314 1049   5.430   3.594   4.882  0.2858 -1.1130 -0.3219
    8SAPS  H14X 1050   5.479   3.674   4.942 -0.2472  0.4531 -1.8958
    8SAPS  H14Y 1051   5.321   3.612   4.893  0.1340 -1.8975 -0.5334
    8SAPS  C315 1052   5.470   3.640   4.742 -0.7079  0.8945 -0.1407
    8SAPS  H15X 1053   5.441   3.561   4.669  0.9365  0.6647 -0.5803
    8SAPS  H15Y 1054   5.580   3.653   4.739 -0.3028 -0.1927  3.9015
    8SAPS  C316 1055   5.399   3.778   4.705 -0.5170 -0.1828 -0.1981
    8SAPS  H16X 1056   5.439   3.861   4.767 -1.0402  1.0797 -1.5087
    8SAPS  H16Y 1057   5.289   3.773   4.714 -0.6575  1.9969 -0.2474
    8SAPS  C317 1058   5.434   3.810   4.557  0.0715 -0.3652  0.3501
    8SAPS  H17X 1059   5.385   3.907   4.534 -0.3475 -0.9322 -1.2747
    8SAPS  H17Y 1060   5.388   3.731   4.494 -0.5379  0.0470  0.2713
    8SAPS  C318 1061   5.583   3.817   4.521  0.0092 -0.9482 -0.0258
    8SAPS  H18X 1062   5.590   3.846   4.414 -1.5016  0.1140  0.1307
    8SAPS  H18Y 1063   5.645   3.733   4.557  2.0477  1.6176  2.9736
    8SAPS  H18Z 1064   5.631   3.903   4.572 -1.0145  0.6794 -1.6908
    9SAPS     N 1065   4.671   0.753   6.966 -0.0766 -0.0756 -0.6247
    9SAPS   HN1 1066   4.713   0.715   6.879  0.2754 -0.8519 -0.1275
    9SAPS   HN2 1067   4.677   0.857   6.966 -1.2052  0.0132  0.5725
    9SAPS   HN3 1068   4.725   0.727   7.050 -0.7719 -0.7338 -0.3693
    9SAPS   C12 1069   4.526   0.724   6.973  0.1579  0.1220  1.2173
    9SAPS  H12A 1070   4.510   0.619   6.990 -0.1079 -0.2094 -0.8544
    9SAPS   C13 1071   4.446   0.798   7.084  0.2851 -0.0287  0.4580
    9SAPS  O13A 1072   4.500   0.873   7.168 -0.3304 -0.1631  0.1781
    9SAPS  O13B 1073   4.320   0.769   7.098  0.4154 -0.2606  0.2080
    9SAPS   C11 1074   4.474   0.759   6.828  0.1685 -0.4069 -0.2095
    9SAPS  H11A 1075   4.457   0.867   6.807  3.3976 -0.2516 -2.7454
    9SAPS  H11B 1076   4.374   0.711   6.836 -0.0106 -0.2445 -1.2814
    9SAPS     P 1077   4.549   0.536   6.714  0.2574 -0.3122 -0.1991
    9SAPS   O13 1078   4.665   0.489   6.794  0.2091 -0.0061 -0.0235
    9SAPS   O14 1079   4.418   0.492   6.759 -0.1548  0.1549 -0.1482
    9SAPS   O12 1080   4.546   0.696   6.716  0.0361  0.3778  0.2442
    9SAPS   O11 1081   4.566   0.488   6.566  0.2342  0.0788  0.7035
    9SAPS    C1 1082   4.489   0.554   6.468 -0.3765  0.0975 -0.2428
    9SAPS    HA 1083   4.381   0.532   6.478 -0.0608 -1.3286  0.2474
    9SAPS    HB 1084   4.519   0.661   6.474 -1.2531  0.4605 -1.9175
    9SAPS    C2 1085   4.520   0.494   6.323  0.4119 -0.4430  0.7552
    9SAPS    HS 1086   4.478   0.391   6.330 -0.3940 -0.0760  1.5867
    9SAPS   O21 1087   4.663   0.489   6.295 -0.3569  0.1500 -0.5340
    9SAPS   C21 1088   4.691   0.431   6.178  0.4268 -0.5304  0.2426
    9SAPS   O22 1089   4.621   0.353   6.114 -0.3215 -0.9430 -0.4339
    9SAPS   C22 1090   4.830   0.474   6.134 -0.2347  0.1963 -0.6616
    9SAPS   H2R 1091   4.860   0.562   6.195 -0.4412 -1.2382  1.6232
    9SAPS   H2S 1092   4.894   0.394   6.177 -0.7435 -0.1065 -0.4596
    9SAPS    C3 1093   4.445   0.582   6.220 -0.2602  0.0161  0.4861
    9SAPS    HX 1094   4.341   0.576   6.258 -0.3463 -0.4330  0.1892
    9SAPS    HY 1095   4.451   0.550   6.113  0.1828  1.5905  0.0071
    9SAPS   O31 1096   4.492   0.718   6.219  0.1160 -0.5237 -0.3423
    9SAPS   C31 1097   4.402   0.812   6.222 -0.3584  0.0063 -0.0133
    9SAPS   O32 1098   4.286   0.792   6.259 -0.6538 -0.4224  0.1824
    9SAPS   C32 1099   4.454   0.941   6.169 -0.2979  0.2161  0.3495
    9SAPS   H2X 1100   4.555   0.927   6.126  1.0038 -0.3067  3.3724
    9SAPS   H2Y 1101   4.478   1.009   6.254  0.3464  0.1295  0.2433
    9SAPS   C23 1102   4.841   0.513   5.982  0.0185 -0.1525  0.6281
    9SAPS   H3R 1103   4.785   0.435   5.926  0.0665  2.7676 -4.1018
    9SAPS   H3S 1104   4.946   0.505   5.944 -0.6983  1.6983 -2.0409
    9SAPS   C24 1105   4.784   0.655   5.946 -0.0262  0.3499  0.3615
    9SAPS   H4R 1106   4.699   0.672   6.015 -0.3423 -0.0909  0.0850
    9SAPS   H4S 1107   4.739   0.649   5.845 -0.7122  0.7028  0.6408
    9SAPS   C25 1108   4.890   0.763   5.961 -0.0268 -0.5258  0.4905
    9SAPS   H5R 1109   4.938   0.778   6.059  1.9774 -0.6230 -0.4268
    9SAPS   C26 1110   4.965   0.817   5.859 -0.2623 -0.0168 -0.0946
    9SAPS   H6R 1111   5.027   0.904   5.885  0.2215 -0.4435  0.2002
    9SAPS   C27 1112   4.949   0.783   5.709 -0.0800 -0.5447  0.1905
    9SAPS   H7R 1113   4.840   0.770   5.688 -0.1867  1.5544 -0.8281
    9SAPS   H7S 1114   4.987   0.680   5.696 -1.2247 -1.1523  1.3814
    9SAPS   C28 1115   5.018   0.887   5.623  0.6552  0.1664 -0.6862
    9SAPS   H8R 1116   5.090   0.953   5.674  1.4856 -1.0643 -0.2403
    9SAPS   C29 1117   4.992   0.908   5.491  0.1540  0.2619 -0.3091
    9SAPS   H9R 1118   5.052   0.985   5.439  2.7037 -0.5823  1.2537
    9SAPS  C210 1119   4.900   0.836   5.401  0.5020  0.1620  0.3019
    9SAPS  H10R 1120   4.803   0.889   5.391 -0.1294 -1.2326 -1.6651
    9SAPS  H10S 1121   4.878   0.742   5.456  0.4962  0.0027  0.0308
    9SAPS  C211 1122   4.954   0.818   5.266  0.0119 -0.4735 -0.3239
    9SAPS  H11R 1123   5.056   0.857   5.246  0.6286 -2.4783 -1.4183
    9SAPS  C212 1124   4.890   0.760   5.163 -0.8958 -0.8561 -1.0066
    9SAPS  H12R 1125   4.948   0.759   5.069  1.7287 -2.5191  0.5061
    9SAPS  C213 1126   4.759   0.693   5.150  0.6123  0.5890  0.6478
    9SAPS  H13R 1127   4.686   0.765   5.109  0.2413  0.8942  1.7994
    9SAPS  H13S 1128   4.721   0.663   5.250  0.5004 -3.1842 -0.3382
    9SAPS  C214 1129   4.761   0.568   5.072  1.0539 -0.6089 -0.1157
    9SAPS  H14R 1130   4.786   0.481   5.134 -2.7224 -0.3850  2.0334
    9SAPS  C215 1131   4.711   0.545   4.947  0.0705  0.2171 -0.3979
    9SAPS  H15R 1132   4.716   0.441   4.912 -2.5625  0.2706 -1.1971
    9SAPS  C216 1133   4.661   0.637   4.845  0.0240 -0.2316 -0.4245
    9SAPS  H16R 1134   4.600   0.721   4.885  1.6741  1.4470 -1.3181
    9SAPS  H16S 1135   4.586   0.587   4.780  1.2879 -0.6255 -1.6347
    9SAPS  C217 1136   4.768   0.682   4.741  0.4918  0.0103  0.1207
    9SAPS  H17R 1137   4.854   0.726   4.795 -0.8308  1.1345  1.3642
    9SAPS  H17S 1138   4.719   0.764   4.685  0.6254  0.2623  0.3737
    9SAPS  C218 1139   4.806   0.568   4.651 -0.3029  0.1148 -0.4337
    9SAPS  H18R 1140   4.721   0.538   4.587 -0.1459  0.7424 -0.9378
    9SAPS  H18S 1141   4.836   0.482   4.715 -0.3393  0.0404 -0.5170
    9SAPS  C219 1142   4.927   0.602   4.560  0.2144  0.1200  0.1196
    9SAPS  H19R 1143   4.950   0.513   4.497  1.8522  0.7880 -0.2934
    9SAPS  H19S 1144   5.017   0.614   4.624 -0.0109  0.6456  0.3404
    9SAPS  C220 1145   4.919   0.729   4.474  0.1704 -0.6118 -0.1147
    9SAPS  H20R 1146   5.012   0.732   4.413 -0.6891 -1.8851 -1.5566
    9SAPS  H20S 1147   4.930   0.817   4.541  0.7212 -0.0601 -0.9074
    9SAPS  H20T 1148   4.836   0.754   4.404  1.0804  1.2207 -0.5964
    9SAPS   C33 1149   4.357   0.997   6.062 -0.1860  0.6229  0.1983
    9SAPS   H3X 1150   4.404   1.095   6.039 -2.2281  1.5319 -0.3604
    9SAPS   H3Y 1151   4.259   1.018   6.111  0.1476  0.4581  0.9434
    9SAPS   C34 1152   4.342   0.915   5.929 -0.0231  0.0548 -0.1411
    9SAPS   H4X 1153   4.261   0.964   5.871 -0.4411 -0.2853  0.1445
    9SAPS   H4Y 1154   4.313   0.809   5.946 -2.0359 -0.1273 -3.7478
    9SAPS   C35 1155   4.469   0.902   5.846  0.6750  0.5409 -0.5637
    9SAPS   H5X 1156   4.535   0.822   5.885 -0.7912 -0.8756 -0.9035
    9SAPS   H5Y 1157   4.529   0.995   5.834  0.7954  0.2837 -2.1235
    9SAPS   C36 1158   4.436   0.860   5.705 -0.3175 -0.1070  0.2957
    9SAPS   H6X 1159   4.383   0.943   5.653 -1.6181 -0.3684  1.1498
    9SAPS   H6Y 1160   4.366   0.776   5.685  0.5012  0.0677 -4.3137
    9SAPS   C37 1161   4.567   0.816   5.626 -0.0283  0.0657  0.0806
    9SAPS   H7X 1162   4.615   0.738   5.689  2.6033 -0.1383 -2.0175
    9SAPS   H7Y 1163   4.639   0.900   5.627  1.2338 -0.9829  1.3645
    9SAPS   C38 1164   4.536   0.782   5.481 -0.0427  0.1582  0.6677
    9SAPS   H8X 1165   4.459   0.702   5.477 -0.5169  0.6688 -1.3716
    9SAPS   H8Y 1166   4.621   0.731   5.431 -0.6313 -0.1555 -0.0319
    9SAPS   C39 1167   4.491   0.907   5.409 -0.0302  0.2655 -0.1098
    9SAPS   H9X 1168   4.582   0.966   5.383 -1.0699  1.0897 -2.0805
    9SAPS   H9Y 1169   4.417   0.973   5.458  0.4809  0.6003  0.2118
    9SAPS  C310 1170   4.429   0.867   5.273  0.7058 -0.8329  0.8931
    9SAPS  H10X 1171   4.343   0.801   5.293  0.8140 -1.0267  0.7274
    9SAPS  H10Y 1172   4.499   0.805   5.212 -0.1159 -0.6365 -0.2810
    9SAPS  C311 1173   4.387   0.987   5.183 -0.5358  0.1986  0.2445
    9SAPS  H11X 1174   4.472   1.046   5.142 -0.4675  0.9783  1.4450
    9SAPS  H11Y 1175   4.337   1.068   5.241  1.8412  1.7285  0.3391
    9SAPS  C312 1176   4.311   0.930   5.063 -0.0837 -0.5599  0.7590
    9SAPS  H12X 1177   4.214   0.889   5.100  0.5947 -1.1074  1.9698
    9SAPS  H12Y 1178   4.361   0.845   5.012  0.5172  0.9545 -1.3565
    9SAPS  C313 1179   4.287   1.043   4.961  0.4986 -1.3624  0.3298
    9SAPS  H13X 1180   4.387   1.080   4.932  0.7643 -1.6460  0.8700
    9SAPS  H13Y 1181   4.228   1.127   5.004  2.3141  0.5061 -0.6437
    9SAPS  C314 1182   4.205   0.999   4.831 -0.3657 -0.4576  0.0546
    9SAPS  H14X 1183   4.183   1.094   4.777 -1.0477 -1.5916 -1.7530
    9SAPS  H14Y 1184   4.104   0.959   4.851 -2.2024  3.2231 -0.9848
    9SAPS  C315 1185   4.273   0.905   4.734 -0.7441  0.5642  0.4275
    9SAPS  H15X 1186   4.306   0.810   4.781 -1.2475  0.4843  0.6324
    9SAPS  H15Y 1187   4.365   0.950   4.692  0.8661  0.1123  3.2386
    9SAPS  C316 1188   4.178   0.848   4.619 -0.6752  0.5671  0.0289
    9SAPS  H16X 1189   4.150   0.930   4.550 -0.1052  2.1109  1.5623
    9SAPS  H16Y 1190   4.082   0.830   4.671 -1.4338  1.5366 -0.9859
    9SAPS  C317 1191   4.232   0.731   4.539  0.2214  0.5830 -0.2773
    9SAPS  H17X 1192   4.152   0.703   4.468  1.6535 -0.6056 -1.4799
    9SAPS  H17Y 1193   4.234   0.638   4.600 -0.4580  0.7783  0.0532
    9SAPS  C318 1194   4.361   0.750   4.457 -0.7853  0.7743 -0.4594
    9SAPS  H18X 1195   4.351   0.845   4.401 -1.7002 -0.3333 -2.3037
    9SAPS  H18Y 1196   4.377   0.676   4.375 -2.0662  0.3835 -0.3930
    9SAPS  H18Z 1197   4.450   0.747   4.523  0.5697  0.1410 -2.2372
   10SAPS     N 1198   2.188   0.044   7.197 -0.4528 -0.2151  0.6893
   10SAPS   HN1 1199   2.185   0.057   7.301  2.0822 -0.7961  0.8839
   10SAPS   HN2 1200   2.283   0.072   7.167 -0.2204  0.3686  1.8820
   10SAPS   HN3 1201   2.116   0.110   7.160  0.3830 -0.2734 -1.1367
   10SAPS   C12 1202   2.141  -0.098   7.167 -0.4292 -0.3626 -0.1293
   10SAPS  H12A 1203   2.205  -0.152   7.236 -1.0351 -1.1251 -0.1520
   10SAPS   C13 1204   1.995  -0.111   7.213 -0.2303 -0.1938 -0.0160
   10SAPS  O13A 1205   1.938  -0.018   7.274  0.3339 -0.4149 -0.5461
   10SAPS  O13B 1206   1.934  -0.222   7.208  0.0540 -0.5270 -0.0630
   10SAPS   C11 1207   2.147  -0.129   7.015  0.1401  0.7023  0.5078
   10SAPS  H11A 1208   2.089  -0.042   6.980 -0.0942  1.1933  2.0271
   10SAPS  H11B 1209   2.099  -0.221   6.975 -1.0724  1.2302  0.7021
   10SAPS     P 1210   2.370  -0.231   6.908  0.2811 -0.2059  0.4111
   10SAPS   O13 1211   2.506  -0.202   6.956  0.0295  0.1070  0.9160
   10SAPS   O14 1212   2.314  -0.362   6.947 -0.9357  0.6795  0.5184
   10SAPS   O12 1213   2.279  -0.120   6.954  0.4781 -0.3865  0.1419
   10SAPS   O11 1214   2.372  -0.221   6.750  0.4234 -0.7140  0.2580
   10SAPS    C1 1215   2.256  -0.246   6.676 -0.7909  0.3004  0.3666
   10SAPS    HA 1216   2.178  -0.299   6.734 -0.3128  3.3920  4.2213
   10SAPS    HB 1217   2.210  -0.153   6.635 -3.6198 -1.4954 -0.8186
   10SAPS    C2 1218   2.283  -0.342   6.554 -0.4704 -0.0145 -0.6879
   10SAPS    HS 1219   2.348  -0.425   6.587 -0.1122  0.2653 -0.6816
   10SAPS   O21 1220   2.365  -0.273   6.462  0.2604 -0.2191  0.2378
   10SAPS   C21 1221   2.415  -0.350   6.372 -0.1946  0.2483  0.6985
   10SAPS   O22 1222   2.404  -0.474   6.361  0.1247 -1.1052 -0.1651
   10SAPS   C22 1223   2.458  -0.265   6.247  0.3380  0.3296 -0.0884
   10SAPS   H2R 1224   2.372  -0.283   6.179 -0.0214 -0.4766  0.5693
   10SAPS   H2S 1225   2.453  -0.158   6.276 -1.9793  0.1222  0.4884
   10SAPS    C3 1226   2.144  -0.382   6.494 -0.6475  1.0957 -0.2710
   10SAPS    HX 1227   2.077  -0.434   6.567 -0.9586  0.4271 -1.0212
   10SAPS    HY 1228   2.177  -0.459   6.422  1.5511 -0.4148  2.1993
   10SAPS   O31 1229   2.081  -0.268   6.434 -0.2627 -0.9924 -0.3080
   10SAPS   C31 1230   1.979  -0.302   6.381  0.3011  0.8563 -0.4882
   10SAPS   O32 1231   1.907  -0.404   6.407 -0.2148 -0.3495  0.9172
   10SAPS   C32 1232   1.927  -0.198   6.281  0.0352 -0.0356  0.3847
   10SAPS   H2X 1233   1.876  -0.113   6.332  0.6898  2.6112 -3.0274
   10SAPS   H2Y 1234   1.859  -0.246   6.209  1.0644  0.7439 -1.1812
   10SAPS   C23 1235   2.589  -0.296   6.178 -0.2628 -0.1513 -0.1390
   10SAPS   H3R 1236   2.596  -0.404   6.150 -0.1645 -0.0913 -0.3450
   10SAPS   H3S 1237   2.672  -0.282   6.251  0.1037 -0.6107 -0.4640
   10SAPS   C24 1238   2.608  -0.213   6.052 -0.1748 -0.6718  0.1498
   10SAPS   H4R 1239   2.605  -0.109   6.090 -1.7028 -1.1631  1.4882
   10SAPS   H4S 1240   2.516  -0.228   5.992  0.0832 -0.8372 -0.2087
   10SAPS   C25 1241   2.735  -0.235   5.980 -0.5558  0.0101  0.0968
   10SAPS   H5R 1242   2.807  -0.302   6.029 -0.7979  0.1498  0.6384
   10SAPS   C26 1243   2.747  -0.215   5.850  0.7545 -0.0769  0.0247
   10SAPS   H6R 1244   2.844  -0.229   5.800  0.7991 -0.1040  0.1183
   10SAPS   C27 1245   2.645  -0.148   5.763 -0.3764  0.7299  0.0948
   10SAPS   H7R 1246   2.541  -0.173   5.793 -0.9319  0.9950 -1.5134
   10SAPS   H7S 1247   2.648  -0.171   5.654  1.6605 -0.5995  0.3867
   10SAPS   C28 1248   2.648   0.005   5.780 -0.0502  0.0200  1.1508
   10SAPS   H8R 1249   2.626   0.039   5.882  0.2466  0.5874  1.0295
   10SAPS   C29 1250   2.672   0.086   5.677 -0.4547  0.3224  0.3098
   10SAPS   H9R 1251   2.652   0.194   5.689 -0.5758  0.2434  0.8122
   10SAPS  C210 1252   2.729   0.047   5.544  0.1758 -0.2252  0.5484
   10SAPS  H10R 1253   2.659   0.058   5.458  0.2106 -2.7672  0.1333
   10SAPS  H10S 1254   2.753  -0.060   5.534 -0.1134 -0.3647  1.2987
   10SAPS  C211 1255   2.836   0.139   5.495 -1.1421 -0.3483  0.4987
   10SAPS  H11R 1256   2.832   0.240   5.540  1.7045 -0.0510  0.2965
   10SAPS  C212 1257   2.926   0.110   5.397 -0.8762 -0.2794 -0.1354
   10SAPS  H12R 1258   2.999   0.190   5.378 -0.3961 -0.1974  1.8312
   10SAPS  C213 1259   2.953  -0.012   5.316 -0.2563  0.1310 -0.1707
   10SAPS  H13R 1260   2.967   0.022   5.211  1.3858  1.5096  0.4444
   10SAPS  H13S 1261   2.869  -0.085   5.317  2.0277 -2.7595 -1.5635
   10SAPS  C214 1262   3.080  -0.088   5.352  0.1489  0.0882 -0.0537
   10SAPS  H14R 1263   3.117  -0.088   5.456  1.5234 -1.6719 -0.4849
   10SAPS  C215 1264   3.165  -0.160   5.271  0.1089  0.2396 -0.2992
   10SAPS  H15R 1265   3.263  -0.203   5.294 -0.3987 -2.1118 -2.1702
   10SAPS  C216 1266   3.138  -0.191   5.122  0.2054  0.0740  0.4664
   10SAPS  H16R 1267   3.035  -0.166   5.088 -0.0811 -0.6245  0.7982
   10SAPS  H16S 1268   3.154  -0.300   5.106  1.9863  0.4146 -0.2947
   10SAPS  C217 1269   3.224  -0.122   5.015  0.0306 -0.1406 -0.0453
   10SAPS  H17R 1270   3.312  -0.185   4.989 -1.4421 -1.6479 -1.6437
   10SAPS  H17S 1271   3.261  -0.022   5.047 -0.8476 -0.8258  3.4613
   10SAPS  C218 1272   3.149  -0.097   4.884  0.7937  0.0652 -0.1541
   10SAPS  H18R 1273   3.071  -0.020   4.903  0.6570  0.0759 -0.7231
   10SAPS  H18S 1274   3.105  -0.191   4.844 -0.8572  0.3784  0.8457
   10SAPS  C219 1275   3.254  -0.039   4.783 -0.3617 -0.5957  0.3410
   10SAPS  H19R 1276   3.307   0.040   4.840 -1.2618  0.7120 -0.5964
   10SAPS  H19S 1277   3.196   0.009   4.702 -1.0149 -0.3332  0.9536
   10SAPS  C220 1278   3.350  -0.136   4.719 -0.3156  0.6807 -0.0834
   10SAPS  H20R 1279   3.296  -0.218   4.667  1.6440  0.1990 -1.4711
   10SAPS  H20S 1280   3.411  -0.192   4.793 -1.1094 -2.4947 -1.6397
   10SAPS  H20T 1281   3.421  -0.095   4.644  0.3856 -0.4165 -0.0608
   10SAPS   C33 1282   2.053  -0.139   6.200 -0.0040 -0.2357 -0.1805
   10SAPS   H3X 1283   2.145  -0.143   6.262  0.4739  1.8552 -0.7015
   10SAPS   H3Y 1284   2.034  -0.030   6.207 -1.6276 -0.5771  2.4783
   10SAPS   C34 1285   2.073  -0.205   6.062 -0.0190  0.3468 -0.5939
   10SAPS   H4X 1286   1.981  -0.185   6.003  1.2903 -0.4617 -3.0556
   10SAPS   H4Y 1287   2.074  -0.315   6.080  1.7719  0.3968 -0.1821
   10SAPS   C35 1288   2.191  -0.157   5.978 -0.6664 -0.7858  0.6678
   10SAPS   H5X 1289   2.280  -0.217   6.007 -0.1208  0.3446  1.4349
   10SAPS   H5Y 1290   2.218  -0.050   5.996 -0.2193 -0.5118 -1.3587
   10SAPS   C36 1291   2.164  -0.157   5.826 -0.4469 -0.1301  0.6002
   10SAPS   H6X 1292   2.249  -0.103   5.778 -1.5228  0.7988 -0.3172
   10SAPS   H6Y 1293   2.066  -0.109   5.807  0.1514  0.3091 -1.6892
   10SAPS   C37 1294   2.178  -0.300   5.764  0.6179  0.2238 -0.4547
   10SAPS   H7X 1295   2.118  -0.375   5.821  0.9134 -1.1315 -1.8555
   10SAPS   H7Y 1296   2.283  -0.334   5.775 -0.1125 -1.8865  0.7760
   10SAPS   C38 1297   2.132  -0.317   5.620  0.7431 -0.7097  0.7281
   10SAPS   H8X 1298   2.025  -0.291   5.605  0.0612 -1.5100  3.5317
   10SAPS   H8Y 1299   2.135  -0.425   5.595 -2.3952 -0.8881  0.8044
   10SAPS   C39 1300   2.221  -0.245   5.508  0.2018 -0.6297 -0.1895
   10SAPS   H9X 1301   2.328  -0.258   5.535 -0.0146  0.5393  1.3606
   10SAPS   H9Y 1302   2.189  -0.139   5.511  0.6984 -0.4826  0.0320
   10SAPS  C310 1303   2.197  -0.301   5.364 -0.8783 -0.5158 -0.7172
   10SAPS  H10X 1304   2.088  -0.294   5.341 -0.8628 -0.4686 -0.7801
   10SAPS  H10Y 1305   2.217  -0.410   5.359 -2.6838 -0.8714 -0.8284
   10SAPS  C311 1306   2.295  -0.233   5.263  0.1138 -0.2220  0.3506
   10SAPS  H11X 1307   2.401  -0.227   5.295  0.5286  2.0258 -1.2121
   10SAPS  H11Y 1308   2.270  -0.125   5.258 -0.8573 -0.4976 -1.5762
   10SAPS  C312 1309   2.278  -0.278   5.113  0.1489  0.3398 -0.3342
   10SAPS  H12X 1310   2.170  -0.284   5.089  0.4728 -0.4392 -1.7113
   10SAPS  H12Y 1311   2.323  -0.380   5.108 -0.3751  0.0588  0.4731
   10SAPS  C313 1312   2.323  -0.190   4.995 -0.5460 -0.2948 -0.2122
   10SAPS  H13X 1313   2.261  -0.098   4.997 -1.6047 -0.9259 -1.9467
   10SAPS  H13Y 1314   2.291  -0.242   4.903 -1.0717  0.1499 -0.2850
   10SAPS  C314 1315   2.472  -0.169   5.000 -0.8884 -0.2380 -1.0226
   10SAPS  H14X 1316   2.512  -0.268   5.030 -0.1050  0.1158 -0.8910
   10SAPS  H14Y 1317   2.490  -0.096   5.082 -1.0466 -0.3209 -0.9127
   10SAPS  C315 1318   2.534  -0.117   4.869  0.2871  0.3963  0.1119
   10SAPS  H15X 1319   2.472  -0.037   4.823  0.6953 -0.3140 -1.7874
   10SAPS  H15Y 1320   2.526  -0.206   4.802 -0.0672 -0.1322  0.8484
   10SAPS  C316 1321   2.670  -0.060   4.868  0.1671 -0.3457  0.8961
   10SAPS  H16X 1322   2.689  -0.009   4.772  0.0669  1.7437  1.9239
   10SAPS  H16Y 1323   2.742  -0.143   4.885  0.4429  0.3247  3.6039
   10SAPS  C317 1324   2.700   0.040   4.984 -0.2919 -0.1883  0.2620
   10SAPS  H17X 1325   2.682  -0.006   5.083  0.4976  0.2439  0.6166
   10SAPS  H17Y 1326   2.635   0.130   4.985 -0.7513 -0.4006 -2.5534
   10SAPS  C318 1327   2.845   0.099   4.994  0.2502 -0.3126  0.1975
   10SAPS  H18X 1328   2.908   0.011   5.017 -0.0250 -0.6180 -0.1970
   10SAPS  H18Y 1329   2.862   0.184   5.064  3.5267 -1.2127  0.6552
   10SAPS  H18Z 1330   2.871   0.137   4.893 -1.6737  0.2721 -0.1366
   11SAPS     N 1331   1.740   4.881   1.778  0.3059 -0.3149  0.1306
   11SAPS   HN1 1332   1.729   4.777   1.781  3.7282 -0.7648  0.7695
   11SAPS   HN2 1333   1.737   4.910   1.678 -1.0170  1.2688  0.5909
   11SAPS   HN3 1334   1.831   4.911   1.818  0.9895 -1.0603 -0.8093
   11SAPS   C12 1335   1.628   4.951   1.846  0.1159 -0.1673 -0.0631
   11SAPS  H12A 1336   1.623   5.042   1.789 -1.6566 -0.8783 -1.1261
   11SAPS   C13 1337   1.497   4.870   1.832  0.6200  0.2531  0.1903
   11SAPS  O13A 1338   1.497   4.770   1.752 -0.1101  0.1321  0.0259
   11SAPS  O13B 1339   1.390   4.918   1.878 -0.5679  0.3467  0.6377
   11SAPS   C11 1340   1.653   4.970   2.000 -0.1538 -1.1099 -0.2801
   11SAPS  H11A 1341   1.642   4.878   2.062  3.0195 -1.1599  0.3870
   11SAPS  H11B 1342   1.581   5.053   2.021  1.1862  0.0281 -0.0549
   11SAPS     P 1343   1.834   5.135   2.117 -0.2038 -0.2000  0.3286
   11SAPS   O13 1344   1.807   5.265   2.043  0.2625  0.0092 -0.7465
   11SAPS   O14 1345   1.762   5.118   2.243  0.0552 -0.6077 -0.1015
   11SAPS   O12 1346   1.787   5.020   2.020  0.5988 -0.2156  0.0286
   11SAPS   O11 1347   1.989   5.120   2.142 -0.1078  0.2811 -0.0349
   11SAPS    C1 1348   2.050   4.999   2.189 -0.0680  0.2889  0.8975
   11SAPS    HA 1349   2.046   4.911   2.121  3.9879  0.6043  0.0070
   11SAPS    HB 1350   2.158   5.024   2.194  0.6865 -2.1670 -0.9558
   11SAPS    C2 1351   2.024   4.956   2.338  0.3288 -0.0265  0.4507
   11SAPS    HS 1352   1.915   4.934   2.348  0.9101 -2.2387  3.0486
   11SAPS   O21 1353   2.058   5.063   2.432  0.4582  0.5377 -0.3280
   11SAPS   C21 1354   1.973   5.077   2.534  0.0940 -0.3417 -1.1535
   11SAPS   O22 1355   1.886   4.999   2.576  0.4275  0.0898  0.5800
   11SAPS   C22 1356   1.985   5.222   2.587 -0.3968 -0.3904 -0.1626
   11SAPS   H2R 1357   2.094   5.242   2.593 -0.4682 -0.0529  0.0890
   11SAPS   H2S 1358   1.954   5.282   2.498 -1.5536 -2.2747 -1.1095
   11SAPS    C3 1359   2.112   4.828   2.378  0.9725  0.3571 -0.0962
   11SAPS    HX 1360   2.218   4.852   2.356  1.1164  0.0696  0.2739
   11SAPS    HY 1361   2.091   4.739   2.315 -0.5088  0.9446 -0.4605
   11SAPS   O31 1362   2.098   4.800   2.523  0.5089 -0.2216 -0.1857
   11SAPS   C31 1363   1.993   4.725   2.569 -0.6662  0.5202 -0.1581
   11SAPS   O32 1364   1.914   4.664   2.497  0.4050  0.5586 -0.3810
   11SAPS   C32 1365   2.001   4.721   2.723 -0.1325 -0.4401 -0.3742
   11SAPS   H2X 1366   2.014   4.830   2.741 -1.4248  0.2398 -2.9743
   11SAPS   H2Y 1367   2.090   4.664   2.757  0.6353  0.9200 -0.0518
   11SAPS   C23 1368   1.919   5.252   2.722  0.3428 -0.3192  0.4087
   11SAPS   H3R 1369   1.810   5.230   2.720  0.6995 -3.0252  3.1960
   11SAPS   H3S 1370   1.939   5.359   2.742  0.5529 -0.1654 -0.5494
   11SAPS   C24 1371   1.982   5.177   2.845  0.1874  0.6918  0.1469
   11SAPS   H4R 1372   1.956   5.069   2.850 -0.0338  0.7073 -0.5133
   11SAPS   H4S 1373   1.929   5.211   2.937  3.5944 -1.7096  3.2886
   11SAPS   C25 1374   2.133   5.202   2.863 -0.0529 -0.3935  0.2851
   11SAPS   H5R 1375   2.193   5.154   2.784 -0.0474 -1.9945  1.2311
   11SAPS   C26 1376   2.191   5.274   2.957 -0.1158  0.9443  0.6742
   11SAPS   H6R 1377   2.300   5.284   2.943  0.2807 -0.7007  2.1882
   11SAPS   C27 1378   2.118   5.327   3.076  0.3970 -0.6167  0.1380
   11SAPS   H7R 1379   2.095   5.237   3.138  0.9243  0.2837  1.7007
   11SAPS   H7S 1380   2.029   5.368   3.024  1.6442  0.8749 -0.8957
   11SAPS   C28 1381   2.203   5.425   3.159  0.6055  0.0476 -0.4374
   11SAPS   H8R 1382   2.269   5.489   3.099  0.1909  3.0248  2.0526
   11SAPS   C29 1383   2.176   5.457   3.288  0.4957  0.8034 -0.6938
   11SAPS   H9R 1384   2.257   5.515   3.335  2.3047 -0.9204 -1.5413
   11SAPS  C210 1385   2.086   5.384   3.387 -0.1318  0.5301  0.3884
   11SAPS  H10R 1386   2.127   5.283   3.410 -1.7621 -0.2895 -0.1391
   11SAPS  H10S 1387   1.983   5.371   3.346 -0.4550  2.5234  0.4841
   11SAPS  C211 1388   2.075   5.478   3.508 -0.0105 -0.4364 -0.1313
   11SAPS  H11R 1389   2.016   5.570   3.495 -2.0283 -1.6475  0.0826
   11SAPS  C212 1390   2.109   5.456   3.638  0.3736 -0.6631  0.4795
   11SAPS  H12R 1391   2.098   5.542   3.706 -2.2404 -0.9941  0.5558
   11SAPS  C213 1392   2.178   5.339   3.699 -0.2294 -0.6043  0.1132
   11SAPS  H13R 1393   2.251   5.382   3.772  1.5022 -2.3512 -0.4880
   11SAPS  H13S 1394   2.245   5.293   3.623  0.5236 -1.6181  1.3490
   11SAPS  C214 1395   2.094   5.235   3.760  0.4151 -0.0460  0.7262
   11SAPS  H14R 1396   2.074   5.144   3.700  0.0708 -0.2406  1.1331
   11SAPS  C215 1397   2.040   5.239   3.885 -0.1131 -0.5298 -0.4497
   11SAPS  H15R 1398   1.971   5.156   3.911 -0.3688  0.0708  0.8908
   11SAPS  C216 1399   2.051   5.341   3.992  0.1334 -0.2095  0.4578
   11SAPS  H16R 1400   1.950   5.385   4.003 -0.8689 -0.9789 -3.8567
   11SAPS  H16S 1401   2.127   5.418   3.967 -0.4265  0.2048  0.0123
   11SAPS  C217 1402   2.075   5.289   4.134 -0.0737  0.3946 -0.4071
   11SAPS  H17R 1403   2.182   5.263   4.147 -0.0833  0.2253 -0.6564
   11SAPS  H17S 1404   1.997   5.215   4.161  0.8655  0.0551  1.5278
   11SAPS  C218 1405   2.075   5.399   4.243 -0.6997 -0.6937  0.3015
   11SAPS  H18R 1406   2.095   5.345   4.338 -1.5274 -0.7161  0.4688
   11SAPS  H18S 1407   1.977   5.449   4.259 -0.2809  0.0522  0.5600
   11SAPS  C219 1408   2.175   5.514   4.216 -0.0711 -0.5715 -0.1014
   11SAPS  H19R 1409   2.169   5.585   4.301  0.2950 -0.1315 -0.4377
   11SAPS  H19S 1410   2.145   5.567   4.123  0.1840 -0.4454 -0.1126
   11SAPS  C220 1411   2.322   5.481   4.191 -0.0703  0.7995  0.1305
   11SAPS  H20R 1412   2.371   5.575   4.156  0.5933 -0.1938 -1.8032
   11SAPS  H20S 1413   2.338   5.413   4.104 -1.0040 -1.1474  1.4221
   11SAPS  H20T 1414   2.373   5.455   4.286 -0.6197  3.1083  1.1371
   11SAPS   C33 1415   1.867   4.662   2.782  0.1505  0.0448  0.5528
   11SAPS   H3X 1416   1.855   4.559   2.742 -1.6302  0.9824 -1.5463
   11SAPS   H3Y 1417   1.781   4.715   2.735 -1.1549  0.3180  3.1012
   11SAPS   C34 1418   1.874   4.653   2.933 -0.1274 -0.9611  0.1419
   11SAPS   H4X 1419   1.940   4.568   2.958  0.9472 -0.3371 -0.4972
   11SAPS   H4Y 1420   1.771   4.625   2.964 -0.5643 -1.4055 -1.6045
   11SAPS   C35 1421   1.922   4.787   2.995  0.1847 -0.7994 -0.4892
   11SAPS   H5X 1422   1.828   4.845   2.980  0.3034 -0.2128  0.9354
   11SAPS   H5Y 1423   2.009   4.840   2.950 -0.6757  0.7266 -0.4356
   11SAPS   C36 1424   1.944   4.786   3.142 -0.0718  0.2041  0.0810
   11SAPS   H6X 1425   2.033   4.729   3.176 -1.1912 -1.4378  0.3433
   11SAPS   H6Y 1426   1.854   4.740   3.189 -0.4802  2.3278  1.5699
   11SAPS   C37 1427   1.950   4.928   3.203 -0.1031 -0.2550 -0.2077
   11SAPS   H7X 1428   1.877   5.007   3.177  0.8672  0.3949 -1.0317
   11SAPS   H7Y 1429   2.050   4.960   3.167  0.1905 -1.0343 -0.1093
   11SAPS   C38 1430   1.960   4.912   3.357  0.6004 -0.8974  0.0434
   11SAPS   H8X 1431   1.859   4.893   3.398  0.4046  0.2589  0.1487
   11SAPS   H8Y 1432   1.992   5.012   3.396 -0.0700 -0.3810 -0.6970
   11SAPS   C39 1433   2.061   4.814   3.407 -0.4823  0.4068  0.4934
   11SAPS   H9X 1434   2.155   4.811   3.347 -1.2914  0.3154 -0.8012
   11SAPS   H9Y 1435   2.048   4.704   3.392  3.3160 -0.0197 -0.8191
   11SAPS  C310 1436   2.128   4.841   3.548 -0.3202 -0.3631  0.5577
   11SAPS  H10X 1437   2.192   4.932   3.551 -1.7794  0.6815  1.1239
   11SAPS  H10Y 1438   2.205   4.763   3.570  0.9220  0.8997  0.8120
   11SAPS  C311 1439   2.031   4.836   3.664 -0.6284 -0.3925  0.5461
   11SAPS  H11X 1440   1.986   4.735   3.655  1.3340 -1.2752  0.2138
   11SAPS  H11Y 1441   1.960   4.920   3.646 -0.7405 -0.8638 -1.4079
   11SAPS  C312 1442   2.111   4.847   3.802 -0.2401 -0.2226 -0.0459
   11SAPS  H12X 1443   2.181   4.933   3.793 -1.2905  0.9567  2.2224
   11SAPS  H12Y 1444   2.170   4.754   3.815  2.4402  1.3465 -0.2314
   11SAPS  C313 1445   2.015   4.853   3.922 -0.6658  0.3133 -0.0726
   11SAPS  H13X 1446   1.967   4.755   3.941 -0.4950 -0.3479 -2.7110
   11SAPS  H13Y 1447   1.934   4.925   3.900 -0.0661  0.7607 -0.8895
   11SAPS  C314 1448   2.072   4.896   4.061  0.1247 -0.0992 -0.5543
   11SAPS  H14X 1449   2.066   5.005   4.081 -3.2997 -0.0811 -1.1262
   11SAPS  H14Y 1450   2.178   4.862   4.060  0.6288  1.3967 -1.0991
   11SAPS  C315 1451   2.000   4.818   4.174 -1.0208  0.4120 -0.5107
   11SAPS  H15X 1452   1.997   4.711   4.144  1.0351  0.6154 -1.5855
   11SAPS  H15Y 1453   1.900   4.864   4.187 -0.8217  0.4762  0.9340
   11SAPS  C316 1454   2.078   4.828   4.307 -0.4069 -0.7261 -0.1060
   11SAPS  H16X 1455   2.057   4.924   4.358  2.8791  0.4719 -0.7276
   11SAPS  H16Y 1456   2.186   4.852   4.293 -0.8350  1.1135 -0.6031
   11SAPS  C317 1457   2.058   4.717   4.408 -0.1970 -0.0586  0.5007
   11SAPS  H17X 1458   1.953   4.681   4.405  0.5798 -2.3632 -1.8787
   11SAPS  H17Y 1459   2.081   4.753   4.511 -2.4730 -0.1453  1.1028
   11SAPS  C318 1460   2.146   4.595   4.377 -0.5036  0.1597 -0.4214
   11SAPS  H18X 1461   2.151   4.528   4.465  0.6439  0.1975 -0.4439
   11SAPS  H18Y 1462   2.252   4.622   4.359 -0.2292 -1.5180 -1.6255
   11SAPS  H18Z 1463   2.095   4.538   4.297 -0.8546  0.1419 -0.1842
   12SAPS     N 1464   2.808   4.199   1.680 -0.0519  0.4702 -0.0977
   12SAPS   HN1 1465   2.810   4.202   1.576 -2.0998  0.3432 -0.1840
   12SAPS   HN2 1466   2.715   4.233   1.712 -1.5710 -4.3273  1.4237
   12SAPS   HN3 1467   2.881   4.262   1.720  0.8042 -0.6505  0.1451
   12SAPS   C12 1468   2.800   4.059   1.726 -0.0535  0.2683 -1.0908
   12SAPS  H12A 1469   2.707   4.009   1.700 -0.5142 -0.6888  1.9818
   12SAPS   C13 1470   2.904   3.970   1.653  0.0142  0.4771  0.4647
   12SAPS  O13A 1471   2.939   4.010   1.539 -0.0575  0.7019 -0.1866
   12SAPS  O13B 1472   2.915   3.847   1.676 -0.1177 -0.1785  0.2158
   12SAPS   C11 1473   2.817   4.046   1.880 -0.7414  0.8652  0.0099
   12SAPS  H11A 1474   2.924   4.068   1.900 -0.3598 -0.3934 -0.5291
   12SAPS  H11B 1475   2.803   3.937   1.896 -0.0401  0.4959 -1.6360
   12SAPS     P 1476   2.617   4.074   2.047  0.1796  0.4528  0.2403
   12SAPS   O13 1477   2.553   4.177   2.136 -0.3482 -0.1793 -0.3651
   12SAPS   O14 1478   2.529   3.995   1.961 -0.0738 -0.4188 -0.3547
   12SAPS   O12 1479   2.733   4.136   1.952  0.3315  0.0809 -0.7492
   12SAPS   O11 1480   2.707   3.978   2.139 -0.1528  0.3769 -0.8435
   12SAPS    C1 1481   2.636   3.867   2.206  0.3219 -0.3727  0.1870
   12SAPS    HA 1482   2.559   3.821   2.141 -1.4262  0.6793  1.4464
   12SAPS    HB 1483   2.708   3.786   2.230  2.2462  1.5894  1.4007
   12SAPS    C2 1484   2.576   3.918   2.335 -0.3891  0.0707 -0.1458
   12SAPS    HS 1485   2.528   4.017   2.320 -2.8831 -0.5771  2.6353
   12SAPS   O21 1486   2.686   3.933   2.424  0.0810 -0.2829  0.0309
   12SAPS   C21 1487   2.689   4.035   2.510  0.2366  0.1262  0.9027
   12SAPS   O22 1488   2.601   4.117   2.521  0.6701 -0.8073  0.7657
   12SAPS   C22 1489   2.817   4.025   2.592 -0.9399  0.0365 -0.1941
   12SAPS   H2R 1490   2.879   3.943   2.550 -2.5147  0.1232 -2.8355
   12SAPS   H2S 1491   2.858   4.127   2.575 -2.9803  0.7796 -0.9656
   12SAPS    C3 1492   2.483   3.820   2.412 -0.2327  0.9288  0.3055
   12SAPS    HX 1493   2.547   3.734   2.441 -2.2331 -1.7446 -2.4592
   12SAPS    HY 1494   2.420   3.778   2.330  1.9443 -1.1358 -0.4320
   12SAPS   O31 1495   2.422   3.891   2.522  0.3120  0.3475  0.2893
   12SAPS   C31 1496   2.294   3.916   2.500 -0.2547  0.3088 -0.3169
   12SAPS   O32 1497   2.236   3.885   2.398 -0.2501 -0.0043 -0.1841
   12SAPS   C32 1498   2.230   3.977   2.620  0.6442 -0.1503 -0.2002
   12SAPS   H2X 1499   2.208   4.086   2.611 -1.2206 -0.3351  1.4118
   12SAPS   H2Y 1500   2.301   3.969   2.705  0.0688 -2.8931  0.1027
   12SAPS   C23 1501   2.784   4.004   2.739 -0.0379  0.9952 -0.0256
   12SAPS   H3R 1502   2.715   4.077   2.785 -0.6810 -0.4214  1.3280
   12SAPS   H3S 1503   2.879   4.018   2.796 -0.5899  1.9441  0.6798
   12SAPS   C24 1504   2.740   3.860   2.760 -0.3639 -0.5187 -0.0282
   12SAPS   H4R 1505   2.804   3.819   2.840  1.0974  0.2183 -0.7851
   12SAPS   H4S 1506   2.751   3.794   2.671  2.6290  0.1124 -0.2203
   12SAPS   C25 1507   2.597   3.857   2.805 -0.4171 -0.0322  0.7632
   12SAPS   H5R 1508   2.521   3.863   2.727 -0.7738  3.1028  1.2208
   12SAPS   C26 1509   2.561   3.842   2.932 -0.8000  0.2718 -0.2191
   12SAPS   H6R 1510   2.456   3.823   2.955  0.1099 -2.2757  2.5391
   12SAPS   C27 1511   2.658   3.831   3.048  0.0644  1.0103  0.2363
   12SAPS   H7R 1512   2.751   3.774   3.027  0.9711  2.0013  1.3951
   12SAPS   H7S 1513   2.607   3.773   3.128 -1.3449 -0.4103 -1.6085
   12SAPS   C28 1514   2.702   3.962   3.099  0.1729  0.1890  0.1458
   12SAPS   H8R 1515   2.764   4.016   3.026 -2.0236 -0.2729 -2.1939
   12SAPS   C29 1516   2.696   4.008   3.227 -0.4723 -0.3011 -0.3782
   12SAPS   H9R 1517   2.734   4.109   3.251  0.5456 -0.4506 -1.2736
   12SAPS  C210 1518   2.638   3.941   3.349  0.0749  0.6350 -0.0794
   12SAPS  H10R 1519   2.531   3.919   3.327  0.6443 -2.6396  0.0056
   12SAPS  H10S 1520   2.641   4.014   3.433  1.2593  1.8059 -1.0801
   12SAPS  C211 1521   2.711   3.807   3.385  0.6047 -0.4006 -0.1721
   12SAPS  H11R 1522   2.778   3.767   3.307 -0.4004 -2.6247  0.0234
   12SAPS  C212 1523   2.721   3.766   3.518  0.8330  0.0783  0.2816
   12SAPS  H12R 1524   2.770   3.672   3.547  0.0636  0.3295  2.6474
   12SAPS  C213 1525   2.636   3.829   3.624  0.5079 -0.4017 -0.1042
   12SAPS  H13R 1526   2.540   3.848   3.571 -0.0215 -1.3226  0.5048
   12SAPS  H13S 1527   2.666   3.933   3.649 -2.7277  0.7671 -0.4724
   12SAPS  C214 1528   2.592   3.740   3.742  0.0884  1.0716  0.9293
   12SAPS  H14R 1529   2.642   3.643   3.727 -0.6671  0.5745  1.5709
   12SAPS  C215 1530   2.527   3.778   3.849 -0.5688 -0.4033 -0.2468
   12SAPS  H15R 1531   2.484   3.699   3.913  1.9402 -1.8967 -0.2669
   12SAPS  C216 1532   2.469   3.917   3.864 -0.5358  0.0106 -0.6742
   12SAPS  H16R 1533   2.358   3.924   3.869 -0.4241  1.5352  0.4053
   12SAPS  H16S 1534   2.491   3.978   3.773  2.1366 -1.1007 -0.8604
   12SAPS  C217 1535   2.527   3.981   3.987 -0.1674  0.1924  0.2049
   12SAPS  H17R 1536   2.499   4.089   3.989 -1.9126 -0.2183 -0.4303
   12SAPS  H17S 1537   2.635   3.979   3.964 -0.4081  1.6920 -1.3032
   12SAPS  C218 1538   2.502   3.915   4.128 -0.6874 -0.4959 -0.3682
   12SAPS  H18R 1539   2.518   3.806   4.120 -0.3020 -0.4268 -0.5436
   12SAPS  H18S 1540   2.400   3.934   4.168 -1.1294 -1.4636 -0.9935
   12SAPS  C219 1541   2.597   3.963   4.240 -0.0076 -0.3250 -0.2568
   12SAPS  H19R 1542   2.573   4.069   4.263  2.5211  0.1916  0.2257
   12SAPS  H19S 1543   2.700   3.953   4.200  0.8318 -1.9143  2.0765
   12SAPS  C220 1544   2.598   3.889   4.374  0.1935 -0.4449  0.3565
   12SAPS  H20R 1545   2.631   3.785   4.353  1.0180 -0.3540  1.1484
   12SAPS  H20S 1546   2.497   3.889   4.419 -0.2720  1.5937 -0.5724
   12SAPS  H20T 1547   2.665   3.931   4.452  0.6522 -0.7746  0.1504
   12SAPS   C33 1548   2.092   3.910   2.672 -0.1121  0.0809 -0.6807
   12SAPS   H3X 1549   2.016   3.907   2.591 -2.2156 -3.9455  1.1696
   12SAPS   H3Y 1550   2.067   3.982   2.753  1.2655  0.3148 -0.4446
   12SAPS   C34 1551   2.125   3.781   2.740 -0.4452 -0.5424  0.1779
   12SAPS   H4X 1552   2.216   3.796   2.802 -0.4685 -1.2509  0.4009
   12SAPS   H4Y 1553   2.137   3.697   2.667 -0.4052  0.4813 -1.0252
   12SAPS   C35 1554   2.010   3.721   2.825  0.2060 -1.0135  0.2048
   12SAPS   H5X 1555   2.036   3.615   2.847  1.7081 -1.1113 -1.7330
   12SAPS   H5Y 1556   1.923   3.720   2.756  1.1189  0.8986 -1.0720
   12SAPS   C36 1557   1.980   3.792   2.959  0.7152  0.3809 -0.0439
   12SAPS   H6X 1558   1.903   3.733   3.013 -0.5877 -0.8784 -3.0041
   12SAPS   H6Y 1559   1.936   3.893   2.946  0.6386  0.3785  0.2061
   12SAPS   C37 1560   2.106   3.781   3.046 -0.3626 -0.1302 -0.2243
   12SAPS   H7X 1561   2.186   3.848   3.006 -1.8209  2.0116  0.2364
   12SAPS   H7Y 1562   2.150   3.680   3.056  2.9826  1.3942  2.4243
   12SAPS   C38 1563   2.082   3.835   3.191  0.4816 -0.9210 -0.3767
   12SAPS   H8X 1564   2.018   3.758   3.239  0.2555 -0.3646  0.2292
   12SAPS   H8Y 1565   2.030   3.932   3.179  2.4407  0.2992  0.4649
   12SAPS   C39 1566   2.205   3.856   3.269  0.0904 -0.1829 -0.3672
   12SAPS   H9X 1567   2.256   3.944   3.225  1.1849 -0.8189 -0.4217
   12SAPS   H9Y 1568   2.269   3.765   3.264 -0.7760 -1.0574  2.5084
   12SAPS  C310 1569   2.186   3.880   3.422  0.3676  0.0712  0.2768
   12SAPS  H10X 1570   2.106   3.956   3.440 -0.8993 -1.6344  2.4593
   12SAPS  H10Y 1571   2.274   3.932   3.467 -1.4760  2.5658  1.2511
   12SAPS  C311 1572   2.158   3.748   3.493 -0.9397 -0.3061 -0.3877
   12SAPS  H11X 1573   2.250   3.686   3.482  1.9017  3.7480 -2.3301
   12SAPS  H11Y 1574   2.068   3.700   3.449 -3.4762  3.5291  0.1100
   12SAPS  C312 1575   2.132   3.769   3.642 -0.1771  0.0471 -0.4588
   12SAPS  H12X 1576   2.049   3.841   3.661  0.6056  0.8908 -0.2021
   12SAPS  H12Y 1577   2.221   3.823   3.680 -1.6050  1.2987  1.2524
   12SAPS  C313 1578   2.107   3.640   3.712 -0.3725 -0.2146  0.4993
   12SAPS  H13X 1579   2.129   3.544   3.660 -0.3365 -0.2545  0.5877
   12SAPS  H13Y 1580   1.997   3.632   3.723 -0.1868 -2.9121  1.1925
   12SAPS  C314 1581   2.165   3.637   3.847  0.0494  0.1738 -0.8392
   12SAPS  H14X 1582   2.165   3.732   3.906 -0.9201 -1.0928  1.3005
   12SAPS  H14Y 1583   2.268   3.595   3.842 -0.3574 -0.8738 -0.6687
   12SAPS  C315 1584   2.089   3.537   3.936 -0.5394  0.5859  0.1890
   12SAPS  H15X 1585   2.104   3.435   3.895 -0.7781  0.3312  0.7379
   12SAPS  H15Y 1586   1.981   3.565   3.934 -1.1969 -1.8020 -1.3587
   12SAPS  C316 1587   2.123   3.547   4.087  0.2181  0.4869  0.8771
   12SAPS  H16X 1588   2.094   3.642   4.136 -3.2418  0.1297 -0.2542
   12SAPS  H16Y 1589   2.231   3.529   4.107  1.1203  1.2908 -2.6164
   12SAPS  C317 1590   2.043   3.441   4.157 -0.4168 -0.1126 -0.4798
   12SAPS  H17X 1591   2.049   3.341   4.108 -0.2396  0.4207 -1.5850
   12SAPS  H17Y 1592   1.938   3.476   4.153  0.1068  1.4132 -2.2396
   12SAPS  C318 1593   2.083   3.415   4.306  0.4158 -0.0925  0.8379
   12SAPS  H18X 1594   2.188   3.377   4.304 -0.5071 -2.7674  0.6072
   12SAPS  H18Y 1595   2.028   3.326   4.342 -0.0119 -0.4667 -0.6980
   12SAPS  H18Z 1596   2.089   3.502   4.376  0.1917  1.0863 -0.5539
   13SAPS     N 1597   3.203   4.343   1.719 -0.0803 -0.2497 -0.0735
   13SAPS   HN1 1598   3.184   4.261   1.658 -0.1118 -0.8659  0.7437
   13SAPS   HN2 1599   3.266   4.300   1.790  1.5300  0.2583 -1.1501
   13SAPS   HN3 1600   3.115   4.377   1.763 -1.4250 -1.0516 -2.0438
   13SAPS   C12 1601   3.280   4.454   1.646  0.6033 -0.1844  0.0009
   13SAPS  H12A 1602   3.378   4.412   1.628 -0.1941 -2.3101  0.2712
   13SAPS   C13 1603   3.222   4.492   1.510  0.2940  0.4281 -0.1376
   13SAPS  O13A 1604   3.142   4.418   1.448  0.0105  0.3046 -0.4943
   13SAPS  O13B 1605   3.272   4.590   1.448 -0.0320  0.4003  0.3996
   13SAPS   C11 1606   3.266   4.585   1.731  0.2335  0.1365 -0.0711
   13SAPS  H11A 1607   3.159   4.597   1.758  0.2136 -0.2286  0.0124
   13SAPS  H11B 1608   3.297   4.682   1.685  0.2351 -0.1623 -0.7151
   13SAPS     P 1609   3.486   4.606   1.882  0.5386  0.3386 -0.1811
   13SAPS   O13 1610   3.505   4.534   2.014  0.1864 -0.6963 -0.2225
   13SAPS   O14 1611   3.575   4.565   1.769  0.5067 -0.1873 -0.0566
   13SAPS   O12 1612   3.331   4.570   1.856  0.1753 -0.0375 -0.2492
   13SAPS   O11 1613   3.482   4.764   1.891  0.2363  0.1397  0.2326
   13SAPS    C1 1614   3.361   4.831   1.938 -0.4379 -0.7356  0.2132
   13SAPS    HA 1615   3.351   4.926   1.881 -0.0088 -1.4604 -1.1059
   13SAPS    HB 1616   3.263   4.780   1.927 -0.3689 -1.0768  1.0606
   13SAPS    C2 1617   3.378   4.866   2.092 -0.7393 -0.0994  0.2289
   13SAPS    HS 1618   3.485   4.880   2.119 -0.5793 -0.3517 -0.2737
   13SAPS   O21 1619   3.317   4.754   2.158 -0.0855 -0.1134 -0.7081
   13SAPS   C21 1620   3.390   4.692   2.248  0.1606 -0.0868  0.2643
   13SAPS   O22 1621   3.499   4.725   2.287  0.3404 -0.0104 -0.1502
   13SAPS   C22 1622   3.318   4.576   2.303  0.2639 -0.3006  0.1460
   13SAPS   H2R 1623   3.214   4.561   2.267  0.7161 -1.8564 -0.5929
   13SAPS   H2S 1624   3.370   4.485   2.267 -1.6132 -0.2242 -3.1247
   13SAPS    C3 1625   3.310   4.999   2.131 -0.6008  0.1208  0.3057
   13SAPS    HX 1626   3.202   4.981   2.114 -0.6623 -0.0593  0.8523
   13SAPS    HY 1627   3.327   5.087   2.066 -2.6120 -0.0096 -0.4524
   13SAPS   O31 1628   3.316   5.032   2.272  0.1277  0.2469  0.1719
   13SAPS   C31 1629   3.409   5.127   2.301 -0.5845  0.2145  0.4305
   13SAPS   O32 1630   3.490   5.171   2.218 -0.0863  0.2405  0.1433
   13SAPS   C32 1631   3.401   5.157   2.453  0.5576  0.1951 -0.2415
   13SAPS   H2X 1632   3.498   5.181   2.502  1.6883 -2.5357 -0.9201
   13SAPS   H2Y 1633   3.368   5.057   2.488 -1.7080 -0.3015 -3.3829
   13SAPS   C23 1634   3.299   4.582   2.453 -0.2894 -0.6869  0.5864
   13SAPS   H3R 1635   3.206   4.526   2.476 -0.9188 -0.6621 -1.5922
   13SAPS   H3S 1636   3.278   4.689   2.475 -0.4122 -0.5094 -0.3534
   13SAPS   C24 1637   3.416   4.527   2.531 -0.2271 -0.3801  0.2112
   13SAPS   H4R 1638   3.499   4.593   2.498 -1.3795  2.1868  1.9973
   13SAPS   H4S 1639   3.442   4.427   2.492  2.1366  0.8235 -1.5629
   13SAPS   C25 1640   3.390   4.511   2.676 -0.2150  0.0013 -0.5614
   13SAPS   H5R 1641   3.344   4.415   2.705  2.4331 -1.6080 -1.3431
   13SAPS   C26 1642   3.402   4.609   2.768 -0.1900 -0.4478 -0.1762
   13SAPS   H6R 1643   3.366   4.585   2.870 -0.9833  0.0581 -0.3302
   13SAPS   C27 1644   3.458   4.746   2.738 -0.0286  0.3123  0.0357
   13SAPS   H7R 1645   3.449   4.763   2.629 -2.0191  0.2453  0.1378
   13SAPS   H7S 1646   3.563   4.743   2.774 -0.2414 -2.1859  0.6387
   13SAPS   C28 1647   3.377   4.858   2.798  0.6233  0.6031  0.0517
   13SAPS   H8R 1648   3.292   4.892   2.736  0.1931 -1.4756 -0.5789
   13SAPS   C29 1649   3.383   4.914   2.916  0.0979  0.3243  0.4102
   13SAPS   H9R 1650   3.323   5.006   2.929 -1.7158 -0.9731  1.6987
   13SAPS  C210 1651   3.487   4.907   3.026 -0.0151 -0.1830 -0.6920
   13SAPS  H10R 1652   3.515   5.004   3.073  1.4391 -1.0665  0.3557
   13SAPS  H10S 1653   3.584   4.876   2.983 -0.2948 -0.7752 -0.8965
   13SAPS  C211 1654   3.453   4.793   3.121  0.1123 -0.1492 -0.6587
   13SAPS  H11R 1655   3.392   4.723   3.062 -0.4076  0.4569 -0.8486
   13SAPS  C212 1656   3.470   4.780   3.253 -0.3188  0.4650 -0.2736
   13SAPS  H12R 1657   3.452   4.681   3.296  0.4970  1.1139  1.6852
   13SAPS  C213 1658   3.548   4.873   3.344  0.0762 -0.9420  0.4918
   13SAPS  H13R 1659   3.565   4.976   3.306 -1.0332 -0.6515  0.7469
   13SAPS  H13S 1660   3.652   4.837   3.355  0.9724  1.5795  0.9590
   13SAPS  C214 1661   3.478   4.874   3.474 -0.0995 -0.2365 -0.2489
   13SAPS  H14R 1662   3.373   4.906   3.485  0.3730  0.8869  1.3504
   13SAPS  C215 1663   3.535   4.842   3.592 -0.3974 -0.2421 -0.6839
   13SAPS  H15R 1664   3.475   4.842   3.684  1.4586  0.1433  0.5864
   13SAPS  C216 1665   3.680   4.794   3.625  0.3861  0.3315  0.2301
   13SAPS  H16R 1666   3.695   4.844   3.723 -1.3350  0.4543  0.4661
   13SAPS  H16S 1667   3.752   4.820   3.544  0.9578 -1.7966  0.0072
   13SAPS  C217 1668   3.679   4.639   3.651  0.1441  0.1562 -0.3720
   13SAPS  H17R 1669   3.637   4.585   3.564 -0.4273 -0.2255  0.1325
   13SAPS  H17S 1670   3.614   4.615   3.738  1.4461 -0.0055  0.6005
   13SAPS  C218 1671   3.818   4.583   3.686  0.5862 -0.0395  0.0789
   13SAPS  H18R 1672   3.869   4.651   3.757  1.7424 -0.5274 -0.2514
   13SAPS  H18S 1673   3.874   4.583   3.589 -0.9039  3.1011 -0.8888
   13SAPS  C219 1674   3.806   4.430   3.732  0.1022 -0.1441  0.0752
   13SAPS  H19R 1675   3.904   4.379   3.740  0.8676  1.1290 -0.8618
   13SAPS  H19S 1676   3.741   4.372   3.663 -0.3998 -2.5527  2.4073
   13SAPS  C220 1677   3.741   4.418   3.878 -0.4523 -0.1151 -0.3166
   13SAPS  H20R 1678   3.818   4.440   3.955 -1.1947  0.8334  0.1820
   13SAPS  H20S 1679   3.710   4.314   3.897 -1.4991  0.5536  1.8584
   13SAPS  H20T 1680   3.649   4.477   3.897  0.4428  0.8459  1.2868
   13SAPS   C33 1681   3.290   5.259   2.470 -0.0429 -0.6910  0.3411
   13SAPS   H3X 1682   3.189   5.225   2.439  0.0807 -0.6204 -0.1417
   13SAPS   H3Y 1683   3.318   5.358   2.428  1.7472 -0.9229  0.9235
   13SAPS   C34 1684   3.264   5.277   2.623 -0.1422  0.7268  0.2717
   13SAPS   H4X 1685   3.348   5.292   2.693 -0.6396  0.3907  0.9573
   13SAPS   H4Y 1686   3.230   5.175   2.653 -2.2565  0.8776 -1.3696
   13SAPS   C35 1687   3.152   5.375   2.656 -0.8968  0.4850  0.2861
   13SAPS   H5X 1688   3.127   5.371   2.765 -1.2290  0.6048  0.2151
   13SAPS   H5Y 1689   3.060   5.331   2.610  0.1566  0.4651 -1.9198
   13SAPS   C36 1690   3.167   5.513   2.599 -0.2757  0.9559 -0.7298
   13SAPS   H6X 1691   3.169   5.513   2.488  1.8312 -0.6673 -0.7545
   13SAPS   H6Y 1692   3.265   5.554   2.632  0.4237 -0.8644 -0.4848
   13SAPS   C37 1693   3.057   5.605   2.654  0.1483  0.5614  1.1536
   13SAPS   H7X 1694   2.958   5.563   2.626  1.0600  0.1401 -1.7978
   13SAPS   H7Y 1695   3.076   5.705   2.609 -1.8909  1.1808  1.5483
   13SAPS   C38 1696   3.070   5.642   2.804  0.3921 -0.3328 -0.0084
   13SAPS   H8X 1697   3.022   5.558   2.859 -0.3152  0.4144  0.5442
   13SAPS   H8Y 1698   3.014   5.737   2.822 -2.1283 -1.7214 -0.0241
   13SAPS   C39 1699   3.208   5.658   2.866 -0.0388  0.4749  0.1733
   13SAPS   H9X 1700   3.250   5.749   2.818  0.1471  0.7685  0.8678
   13SAPS   H9Y 1701   3.273   5.573   2.834  4.6417  3.0973  1.6932
   13SAPS  C310 1702   3.210   5.664   3.017  0.0119 -0.2414  0.3129
   13SAPS  H10X 1703   3.309   5.624   3.047  0.4854 -0.4345 -1.4336
   13SAPS  H10Y 1704   3.134   5.593   3.058  0.0820  0.2656  1.3513
   13SAPS  C311 1705   3.180   5.802   3.090  0.7328 -0.8004  0.3897
   13SAPS  H11X 1706   3.073   5.831   3.079  1.1146  0.4406 -0.2790
   13SAPS  H11Y 1707   3.248   5.875   3.041 -0.4422 -0.4283 -0.7379
   13SAPS  C312 1708   3.227   5.805   3.232  0.1075 -0.3626 -0.1865
   13SAPS  H12X 1709   3.203   5.899   3.285  0.0976 -0.0241 -0.7853
   13SAPS  H12Y 1710   3.335   5.784   3.247 -0.2681 -1.8751  0.6363
   13SAPS  C313 1711   3.162   5.693   3.318  0.1371  0.7193  0.1185
   13SAPS  H13X 1712   3.173   5.591   3.275 -1.7896  0.6296 -0.2315
   13SAPS  H13Y 1713   3.052   5.702   3.323  0.1099  0.0178  1.5185
   13SAPS  C314 1714   3.202   5.681   3.472 -0.6223 -0.1612  0.6099
   13SAPS  H14X 1715   3.188   5.777   3.526 -0.5889 -0.8388  1.8614
   13SAPS  H14Y 1716   3.311   5.660   3.474 -0.3799  1.0345  1.7761
   13SAPS  C315 1717   3.127   5.574   3.541 -0.9530  0.0807  0.1004
   13SAPS  H15X 1718   3.160   5.476   3.499  0.8900  1.0197 -0.7545
   13SAPS  H15Y 1719   3.018   5.581   3.519 -0.8087 -1.4713 -1.3539
   13SAPS  C316 1720   3.144   5.583   3.693  0.7832  0.5838 -0.0968
   13SAPS  H16X 1721   3.092   5.676   3.723  0.4154  1.6006 -3.4179
   13SAPS  H16Y 1722   3.250   5.593   3.721  0.6518  0.8516  0.3072
   13SAPS  C317 1723   3.083   5.474   3.780  0.0423  0.5397  0.3338
   13SAPS  H17X 1724   3.131   5.376   3.759  0.3508  0.7329  0.1269
   13SAPS  H17Y 1725   2.978   5.447   3.757  0.7461 -1.8088 -0.4055
   13SAPS  C318 1726   3.112   5.501   3.929 -0.0142  0.2828 -0.6333
   13SAPS  H18X 1727   3.223   5.503   3.938 -0.0582 -1.1601  0.6652
   13SAPS  H18Y 1728   3.068   5.415   3.983 -0.5428 -0.8489 -2.7729
   13SAPS  H18Z 1729   3.063   5.595   3.965 -0.2247  0.0447 -0.2919
   14SAPS     N 1730   4.151   3.419   2.060 -0.3577 -0.1585 -0.7822
   14SAPS   HN1 1731   4.168   3.350   2.135  1.9016  1.9203  0.7972
   14SAPS   HN2 1732   4.191   3.510   2.090 -0.3900 -0.2680 -0.4074
   14SAPS   HN3 1733   4.053   3.434   2.029  0.1292 -1.2830 -3.0460
   14SAPS   C12 1734   4.229   3.380   1.936  0.1616  0.5205  0.3860
   14SAPS  H12A 1735   4.219   3.461   1.865 -0.6877  2.0137  2.1352
   14SAPS   C13 1736   4.379   3.339   1.949 -0.6979 -0.6605 -0.6101
   14SAPS  O13A 1737   4.424   3.331   2.066  0.0804  0.0048  0.1568
   14SAPS  O13B 1738   4.453   3.319   1.849  0.2803  0.1062  0.3072
   14SAPS   C11 1739   4.144   3.259   1.878 -0.4241 -0.2908  0.5590
   14SAPS  H11A 1740   4.195   3.240   1.781  1.3687 -0.8232  1.5667
   14SAPS  H11B 1741   4.040   3.291   1.856 -0.7451 -1.2750  0.6292
   14SAPS     P 1742   4.159   2.997   1.890 -0.4197  0.1613 -0.1769
   14SAPS   O13 1743   4.050   2.970   1.802  0.3005  0.4758 -0.1257
   14SAPS   O14 1744   4.300   2.974   1.849 -0.7710  0.2677  0.0617
   14SAPS   O12 1745   4.147   3.135   1.958  0.3244 -0.5750 -0.6344
   14SAPS   O11 1746   4.132   2.901   2.017  0.2558  0.0740 -0.0639
   14SAPS    C1 1747   4.035   2.918   2.125 -0.3867 -0.7144 -0.0008
   14SAPS    HA 1748   3.934   2.933   2.082  0.3280 -1.7078 -2.1390
   14SAPS    HB 1749   4.033   2.820   2.177 -1.2370 -1.0537 -0.6597
   14SAPS    C2 1750   4.063   3.024   2.235 -0.1325  0.1569 -0.0079
   14SAPS    HS 1751   4.035   3.124   2.195  1.3267  0.7267  0.3158
   14SAPS   O21 1752   4.203   3.040   2.276  0.1355 -0.6466 -0.0744
   14SAPS   C21 1753   4.256   3.159   2.296 -0.6533  0.4127  1.2800
   14SAPS   O22 1754   4.204   3.266   2.274 -0.3411 -0.1302  0.7302
   14SAPS   C22 1755   4.398   3.148   2.349  0.0066  0.4441 -0.0539
   14SAPS   H2R 1756   4.391   3.061   2.417  1.2271 -0.0933 -0.5908
   14SAPS   H2S 1757   4.476   3.130   2.272 -1.2850  0.2753 -1.3719
   14SAPS    C3 1758   3.972   3.007   2.362 -0.2707  0.0840 -0.9210
   14SAPS    HX 1759   3.987   2.901   2.392 -1.2312  0.4212  0.9001
   14SAPS    HY 1760   3.868   3.036   2.337 -0.2749  1.1221  0.1865
   14SAPS   O31 1761   4.018   3.084   2.477 -0.3948 -0.2816  0.6262
   14SAPS   C31 1762   3.940   3.068   2.582 -0.1287 -0.0022  0.4185
   14SAPS   O32 1763   3.836   3.007   2.596  0.2315  0.2383 -0.2417
   14SAPS   C32 1764   3.985   3.168   2.693 -0.0706 -0.8115 -0.4958
   14SAPS   H2X 1765   3.962   3.271   2.660 -0.5712 -1.1815 -1.3433
   14SAPS   H2Y 1766   4.095   3.156   2.706 -0.1092  0.3306  1.1901
   14SAPS   C23 1767   4.444   3.274   2.432 -0.4983  0.3232 -0.3608
   14SAPS   H3R 1768   4.426   3.355   2.358 -1.4213  0.2243 -0.2505
   14SAPS   H3S 1769   4.553   3.270   2.455 -0.8305  2.0209  1.8370
   14SAPS   C24 1770   4.371   3.307   2.559 -0.0270 -1.1608  0.2870
   14SAPS   H4R 1771   4.387   3.214   2.617  0.0474 -0.3069  1.6731
   14SAPS   H4S 1772   4.265   3.304   2.526 -0.3946 -1.8177  1.4703
   14SAPS   C25 1773   4.410   3.429   2.635  0.5043 -0.5111 -0.7875
   14SAPS   H5R 1774   4.406   3.518   2.571  1.5701 -1.8664 -2.8676
   14SAPS   C26 1775   4.438   3.449   2.769  0.6162 -0.8304  0.2331
   14SAPS   H6R 1776   4.471   3.550   2.800  1.1449 -0.4813 -1.3339
   14SAPS   C27 1777   4.425   3.352   2.883 -0.3535  0.9528  0.0549
   14SAPS   H7R 1778   4.521   3.346   2.938  0.2130 -1.5950 -1.0622
   14SAPS   H7S 1779   4.406   3.245   2.859  1.2310 -0.3571  3.9407
   14SAPS   C28 1780   4.315   3.391   2.974 -0.3778 -0.5488  0.2149
   14SAPS   H8R 1781   4.215   3.387   2.930 -0.4195  1.4426  0.0162
   14SAPS   C29 1782   4.323   3.448   3.103  0.5594  0.8522  0.5689
   14SAPS   H9R 1783   4.233   3.479   3.159  1.1090  0.7390  1.5475
   14SAPS  C210 1784   4.448   3.490   3.179 -0.2843  0.1500 -0.2935
   14SAPS  H10R 1785   4.535   3.442   3.129  2.1591  2.3389  1.5972
   14SAPS  H10S 1786   4.447   3.462   3.286 -1.0617  0.2907 -0.2539
   14SAPS  C211 1787   4.464   3.640   3.156  0.5862  0.2132 -0.1041
   14SAPS  H11R 1788   4.461   3.667   3.050 -1.4515 -1.0382 -0.4162
   14SAPS  C212 1789   4.497   3.729   3.253  0.4814  0.0679  0.2211
   14SAPS  H12R 1790   4.496   3.836   3.230  0.1717  0.0405  0.0918
   14SAPS  C213 1791   4.501   3.712   3.403  0.2565  0.1118 -0.5721
   14SAPS  H13R 1792   4.603   3.730   3.443  1.6286 -1.9624 -2.8116
   14SAPS  H13S 1793   4.489   3.606   3.436 -2.5590  1.0711  1.9172
   14SAPS  C214 1794   4.398   3.783   3.484 -1.1030 -0.5497  0.2377
   14SAPS  H14R 1795   4.300   3.797   3.435 -0.3596 -0.6092 -1.3154
   14SAPS  C215 1796   4.416   3.834   3.606  0.1802 -0.4662 -0.0312
   14SAPS  H15R 1797   4.321   3.878   3.639 -2.3618 -1.3682 -5.2037
   14SAPS  C216 1798   4.535   3.837   3.697  0.2928 -0.4091  0.1954
   14SAPS  H16R 1799   4.556   3.938   3.738 -0.8584 -0.1948  0.2918
   14SAPS  H16S 1800   4.628   3.805   3.646 -0.5434 -1.8099 -0.5154
   14SAPS  C217 1801   4.507   3.749   3.816  0.0696  0.2097 -0.0922
   14SAPS  H17R 1802   4.480   3.644   3.790 -0.0753  0.3819 -0.6366
   14SAPS  H17S 1803   4.424   3.800   3.869  0.5491  0.4382  0.4571
   14SAPS  C218 1804   4.627   3.734   3.910 -0.5536 -0.1321 -0.4825
   14SAPS  H18R 1805   4.714   3.686   3.860  0.7322  2.1050 -0.5149
   14SAPS  H18S 1806   4.601   3.681   4.004 -0.0942  1.8872  0.8502
   14SAPS  C219 1807   4.681   3.866   3.975 -0.1175  0.8343 -0.5296
   14SAPS  H19R 1808   4.718   3.934   3.895  0.1580  1.2772 -0.0332
   14SAPS  H19S 1809   4.766   3.844   4.042 -2.3920 -1.0713  1.9225
   14SAPS  C220 1810   4.575   3.937   4.060 -0.7308 -0.4111  0.5042
   14SAPS  H20R 1811   4.534   4.032   4.019  0.6949  0.6984  1.5597
   14SAPS  H20S 1812   4.641   3.978   4.139 -0.5472  0.4730 -0.0897
   14SAPS  H20T 1813   4.497   3.864   4.089  0.1803 -1.3521  0.6242
   14SAPS   C33 1814   3.913   3.147   2.829  0.0841 -0.1225  0.7327
   14SAPS   H3X 1815   3.913   3.038   2.853 -0.4629 -0.1205  0.7417
   14SAPS   H3Y 1816   3.806   3.175   2.827  0.1502  0.1037  0.3188
   14SAPS   C34 1817   3.983   3.227   2.943  0.1675  0.0382 -0.9287
   14SAPS   H4X 1818   3.997   3.335   2.918 -1.4797  0.4808 -0.1226
   14SAPS   H4Y 1819   4.082   3.182   2.966  0.1380 -0.5645 -1.9186
   14SAPS   C35 1820   3.891   3.228   3.075 -0.5283 -0.1059  0.9591
   14SAPS   H5X 1821   3.890   3.128   3.123 -0.4426  0.4090  2.0583
   14SAPS   H5Y 1822   3.787   3.247   3.041  0.8152  0.1834 -3.7000
   14SAPS   C36 1823   3.943   3.330   3.179  0.5410 -0.3958  0.2322
   14SAPS   H6X 1824   3.867   3.325   3.260 -0.5438 -0.3989 -0.7629
   14SAPS   H6Y 1825   3.955   3.434   3.141  1.3822 -0.6032 -0.1038
   14SAPS   C37 1826   4.068   3.276   3.247 -0.1395  0.3210  0.1037
   14SAPS   H7X 1827   4.159   3.282   3.183  0.0865 -0.0577  0.3855
   14SAPS   H7Y 1828   4.047   3.169   3.266  0.7459  0.1995  0.4579
   14SAPS   C38 1829   4.089   3.350   3.377  0.5728  0.3680 -0.3404
   14SAPS   H8X 1830   4.008   3.312   3.443  0.7496  0.8420  0.1578
   14SAPS   H8Y 1831   4.088   3.460   3.369  0.8936  0.3080 -1.3885
   14SAPS   C39 1832   4.220   3.334   3.457  0.1969 -0.5260 -1.1613
   14SAPS   H9X 1833   4.307   3.372   3.400  0.5395  1.6821  0.6999
   14SAPS   H9Y 1834   4.238   3.224   3.463 -0.8166 -0.6277  1.5334
   14SAPS  C310 1835   4.218   3.405   3.593  0.0012  1.2288 -0.8467
   14SAPS  H10X 1836   4.203   3.514   3.581 -2.3885  1.4081  2.6188
   14SAPS  H10Y 1837   4.316   3.400   3.646 -1.6811 -2.1561  2.4012
   14SAPS  C311 1838   4.123   3.347   3.701  0.2361  0.6157 -0.2437
   14SAPS  H11X 1839   4.139   3.239   3.720 -0.4541  1.1908  5.1639
   14SAPS  H11Y 1840   4.025   3.364   3.652  0.7657  1.2079 -1.1400
   14SAPS  C312 1841   4.139   3.425   3.837 -0.0001  0.3597  0.1697
   14SAPS  H12X 1842   4.244   3.401   3.867 -0.0874  1.9969  1.9932
   14SAPS  H12Y 1843   4.069   3.391   3.917  1.5900 -0.0801  1.4359
   14SAPS  C313 1844   4.122   3.574   3.846 -0.2533  0.0051 -0.1593
   14SAPS  H13X 1845   4.023   3.601   3.804  0.5219 -0.2633 -2.3262
   14SAPS  H13Y 1846   4.199   3.605   3.772  1.4937 -0.6176  1.3173
   14SAPS  C314 1847   4.151   3.636   3.984  0.4512  0.0611 -0.1046
   14SAPS  H14X 1848   4.242   3.587   4.025  0.7882  0.6236 -0.1714
   14SAPS  H14Y 1849   4.067   3.611   4.053 -0.5065  0.6778 -1.0150
   14SAPS  C315 1850   4.168   3.783   3.987  0.3366 -0.4127  0.3512
   14SAPS  H15X 1851   4.073   3.839   3.971  0.8714  0.2812 -0.4999
   14SAPS  H15Y 1852   4.240   3.836   3.921  0.4034  0.5247  1.1578
   14SAPS  C316 1853   4.217   3.820   4.133 -0.1136  0.8227  0.3564
   14SAPS  H16X 1854   4.309   3.761   4.153 -2.4737 -2.5891  2.0492
   14SAPS  H16Y 1855   4.139   3.777   4.199  0.4300 -1.5084 -0.4255
   14SAPS  C317 1856   4.230   3.973   4.166  0.1345 -0.0074  0.1878
   14SAPS  H17X 1857   4.130   4.022   4.161 -1.1588 -2.4246  0.6717
   14SAPS  H17Y 1858   4.290   4.015   4.083  0.2726 -3.5855 -1.6963
   14SAPS  C318 1859   4.299   4.009   4.303 -0.6370 -0.3380  0.7007
   14SAPS  H18X 1860   4.407   3.984   4.294 -1.0687 -1.9683 -0.4526
   14SAPS  H18Y 1861   4.257   3.958   4.392  0.4789  0.0005  1.4360
   14SAPS  H18Z 1862   4.298   4.119   4.315  0.5545 -0.4216  1.7042
   15SAPS     N 1863   2.371   4.387   1.884  1.1564  0.0368 -0.3457
   15SAPS   HN1 1864   2.410   4.292   1.899 -0.3740 -0.5329  0.3270
   15SAPS   HN2 1865   2.302   4.415   1.957  2.0045  0.9533  0.1257
   15SAPS   HN3 1866   2.319   4.385   1.794 -0.9676 -0.3389  0.8160
   15SAPS   C12 1867   2.481   4.484   1.876  0.3886  0.0954  0.3376
   15SAPS  H12A 1868   2.529   4.480   1.972  0.6739 -1.0499  0.1598
   15SAPS   C13 1869   2.589   4.422   1.778 -0.3195 -0.2444 -0.0483
   15SAPS  O13A 1870   2.559   4.313   1.716 -0.3431  0.3360  0.3717
   15SAPS  O13B 1871   2.700   4.484   1.773 -0.3249 -0.3341 -0.0769
   15SAPS   C11 1872   2.430   4.627   1.824  0.0324  0.4288  0.0836
   15SAPS  H11A 1873   2.384   4.605   1.726  0.3404 -0.0839  0.0514
   15SAPS  H11B 1874   2.522   4.690   1.818  0.2473  0.1291  0.1997
   15SAPS     P 1875   2.300   4.834   1.916  0.0985  0.0443  0.1689
   15SAPS   O13 1876   2.381   4.901   1.814 -0.0116  0.7170  0.3187
   15SAPS   O14 1877   2.154   4.844   1.900  0.6726  0.2031  0.4352
   15SAPS   O12 1878   2.338   4.680   1.921  0.0817 -0.3010  0.2546
   15SAPS   O11 1879   2.349   4.882   2.053 -0.4272 -0.0797  0.1039
   15SAPS    C1 1880   2.486   4.880   2.101  0.6515  0.0231  0.6361
   15SAPS    HA 1881   2.519   4.774   2.105  2.8108  0.6551  1.2091
   15SAPS    HB 1882   2.549   4.940   2.032 -1.6969  2.2774  0.3012
   15SAPS    C2 1883   2.504   4.942   2.238 -0.4324 -0.4625  0.0054
   15SAPS    HS 1884   2.612   4.959   2.255 -0.0885 -0.6152 -1.7930
   15SAPS   O21 1885   2.445   4.865   2.349 -0.6695  0.0784 -0.3233
   15SAPS   C21 1886   2.519   4.761   2.379  0.0445 -0.3655 -0.4983
   15SAPS   O22 1887   2.632   4.735   2.335  0.4880 -0.2818 -0.2006
   15SAPS   C22 1888   2.451   4.683   2.489 -0.3616  0.3921  0.2305
   15SAPS   H2R 1889   2.347   4.712   2.512  0.3848  3.6252  0.0579
   15SAPS   H2S 1890   2.447   4.580   2.448 -0.9771  0.8926 -1.0508
   15SAPS    C3 1891   2.444   5.093   2.252  0.2926 -0.1325  0.7607
   15SAPS    HX 1892   2.336   5.106   2.232  0.2418 -1.3827  0.0890
   15SAPS    HY 1893   2.492   5.160   2.178  0.4518 -0.0626  0.9248
   15SAPS   O31 1894   2.460   5.155   2.383  0.7833  0.6719  0.4756
   15SAPS   C31 1895   2.582   5.171   2.419 -0.4985 -0.7686  0.1945
   15SAPS   O32 1896   2.684   5.147   2.360 -0.6516  0.7015 -0.4099
   15SAPS   C32 1897   2.585   5.229   2.559  0.4837  0.0238 -0.0258
   15SAPS   H2X 1898   2.566   5.139   2.623  1.7726 -0.9053 -0.9012
   15SAPS   H2Y 1899   2.504   5.304   2.573 -2.7562 -3.2729  0.4840
   15SAPS   C23 1900   2.539   4.676   2.619  0.7906  0.7299  1.0189
   15SAPS   H3R 1901   2.647   4.674   2.595  0.5617  1.3571 -0.1509
   15SAPS   H3S 1902   2.511   4.588   2.681 -1.6482  0.7141  0.0051
   15SAPS   C24 1903   2.533   4.808   2.696 -0.0491  0.9432 -0.8909
   15SAPS   H4R 1904   2.554   4.895   2.629 -0.9613  1.8346 -0.0533
   15SAPS   H4S 1905   2.619   4.804   2.766 -0.8774 -0.9522  0.0806
   15SAPS   C25 1906   2.402   4.832   2.767 -0.1110 -0.0353 -0.0795
   15SAPS   H5R 1907   2.316   4.872   2.712 -0.6035  2.8620  2.5123
   15SAPS   C26 1908   2.383   4.835   2.902 -0.5324  0.1545 -0.2255
   15SAPS   H6R 1909   2.286   4.867   2.940  0.3568 -1.9080  4.4532
   15SAPS   C27 1910   2.488   4.807   3.011 -0.1793  0.2661  0.2265
   15SAPS   H7R 1911   2.572   4.742   2.979 -2.2146 -1.8002 -1.2405
   15SAPS   H7S 1912   2.440   4.750   3.093 -0.5445 -0.6003 -0.5776
   15SAPS   C28 1913   2.535   4.938   3.069  0.7441  0.7377  0.9367
   15SAPS   H8R 1914   2.619   4.984   3.014 -0.6397 -1.1011 -3.0869
   15SAPS   C29 1915   2.504   4.998   3.182 -0.3758  0.5830 -0.7727
   15SAPS   H9R 1916   2.539   5.101   3.198  1.8380 -0.4702  2.0646
   15SAPS  C210 1917   2.407   4.939   3.281 -0.0472  0.3691 -0.7420
   15SAPS  H10R 1918   2.427   4.834   3.310  0.2251  0.9478  1.3811
   15SAPS  H10S 1919   2.309   4.943   3.229  0.5884  0.7366 -1.9585
   15SAPS  C211 1920   2.395   5.022   3.412  0.3444  0.8301  0.3222
   15SAPS  H11R 1921   2.329   5.109   3.404  1.4286  1.5906 -0.6633
   15SAPS  C212 1922   2.489   5.020   3.513  0.1178 -0.4977  0.3831
   15SAPS  H12R 1923   2.479   5.100   3.588  3.1782 -0.0762  0.4798
   15SAPS  C213 1924   2.618   4.937   3.532 -0.0114  0.5379  1.5006
   15SAPS  H13R 1925   2.707   5.001   3.515 -0.1303  0.1399 -0.9857
   15SAPS  H13S 1926   2.613   4.859   3.453 -4.8157  0.0448  2.0012
   15SAPS  C214 1927   2.620   4.870   3.666 -0.5001 -0.0357 -0.3250
   15SAPS  H14R 1928   2.568   4.773   3.666 -1.1128  0.2791  0.3662
   15SAPS  C215 1929   2.680   4.914   3.774 -0.3099  0.1210 -0.3094
   15SAPS  H15R 1930   2.667   4.848   3.862 -0.4992 -0.6725 -0.9202
   15SAPS  C216 1931   2.747   5.045   3.790  0.4069 -0.4394 -0.1480
   15SAPS  H16R 1932   2.686   5.108   3.859  0.9696  0.8684 -0.8129
   15SAPS  H16S 1933   2.749   5.106   3.697  1.0310  0.6908  0.5902
   15SAPS  C217 1934   2.888   5.050   3.846 -0.8996 -0.7045  0.1758
   15SAPS  H17R 1935   2.897   5.154   3.884 -1.5582 -1.3307  2.1539
   15SAPS  H17S 1936   2.960   5.024   3.765 -0.5589  0.9215 -0.0713
   15SAPS  C218 1937   2.921   4.960   3.967  0.2821  0.5230  0.3493
   15SAPS  H18R 1938   3.027   4.979   3.997  0.2988  3.6325 -1.3354
   15SAPS  H18S 1939   2.908   4.853   3.939  0.8990  0.1919  1.2662
   15SAPS  C219 1940   2.842   4.981   4.099 -0.8090  0.2846  0.1658
   15SAPS  H19R 1941   2.735   4.977   4.069 -0.2554  0.0279 -1.9740
   15SAPS  H19S 1942   2.857   5.085   4.135  1.3539  0.7054 -1.6988
   15SAPS  C220 1943   2.882   4.882   4.205  0.3069 -0.0558  0.1699
   15SAPS  H20R 1944   2.982   4.902   4.249 -0.3015 -1.1792  2.1594
   15SAPS  H20S 1945   2.882   4.776   4.173  1.5323  0.0944 -0.4056
   15SAPS  H20T 1946   2.804   4.884   4.285  0.0192  2.8568 -0.0549
   15SAPS   C33 1947   2.728   5.286   2.601  0.4386  0.2647 -0.2656
   15SAPS   H3X 1948   2.749   5.375   2.539  2.2812 -1.9812 -3.0898
   15SAPS   H3Y 1949   2.806   5.211   2.576 -0.6821 -0.2737 -2.3226
   15SAPS   C34 1950   2.746   5.332   2.749 -0.0535 -0.1797  0.1952
   15SAPS   H4X 1951   2.850   5.367   2.765 -0.3512  1.4077 -1.0889
   15SAPS   H4Y 1952   2.737   5.244   2.816  2.9058 -1.7132 -1.2605
   15SAPS   C35 1953   2.651   5.447   2.787  0.1032 -0.1747  0.4351
   15SAPS   H5X 1954   2.541   5.436   2.797  0.0538  0.3422  0.4486
   15SAPS   H5Y 1955   2.659   5.523   2.706 -2.7028  1.1721  1.3036
   15SAPS   C36 1956   2.689   5.512   2.920  0.5111 -0.4491  0.6091
   15SAPS   H6X 1957   2.637   5.608   2.935  0.9646 -0.1483  0.2830
   15SAPS   H6Y 1958   2.799   5.529   2.920  0.6338 -1.1746  0.5936
   15SAPS   C37 1959   2.670   5.417   3.039 -0.2086  0.3035  0.2908
   15SAPS   H7X 1960   2.754   5.344   3.039 -0.3304  0.1473 -0.8124
   15SAPS   H7Y 1961   2.582   5.352   3.022  1.4220 -1.7858 -0.7872
   15SAPS   C38 1962   2.668   5.492   3.170  0.2803  0.2902 -0.4760
   15SAPS   H8X 1963   2.588   5.569   3.170 -1.9545 -1.8788 -0.6655
   15SAPS   H8Y 1964   2.769   5.538   3.179 -0.3914  1.4333  2.6073
   15SAPS   C39 1965   2.661   5.406   3.290 -0.1916  0.3745 -0.7910
   15SAPS   H9X 1966   2.746   5.339   3.312  1.3995  2.6882  0.5071
   15SAPS   H9Y 1967   2.568   5.345   3.286 -2.9457  4.0042  0.9632
   15SAPS  C310 1968   2.657   5.484   3.424 -0.2557  0.2330 -0.2342
   15SAPS  H10X 1969   2.570   5.552   3.417  0.3206  0.9142 -1.0200
   15SAPS  H10Y 1970   2.740   5.552   3.454 -0.2322  0.5573 -1.0120
   15SAPS  C311 1971   2.640   5.392   3.546  0.0279 -0.1275 -0.5396
   15SAPS  H11X 1972   2.715   5.309   3.552  2.7292  2.2311  0.5798
   15SAPS  H11Y 1973   2.550   5.330   3.524 -1.2635  1.8576 -1.0490
   15SAPS  C312 1974   2.633   5.468   3.674 -0.1901 -0.1247 -0.7233
   15SAPS  H12X 1975   2.543   5.533   3.672  0.2448  0.4903 -0.6030
   15SAPS  H12Y 1976   2.724   5.532   3.675  0.5042 -1.0507 -1.7668
   15SAPS  C313 1977   2.630   5.391   3.811 -0.0811 -0.1121 -0.1351
   15SAPS  H13X 1978   2.724   5.331   3.811  0.0547  0.0925  0.4577
   15SAPS  H13Y 1979   2.542   5.323   3.805 -0.6063  0.4219  1.1756
   15SAPS  C314 1980   2.604   5.475   3.941  0.2007 -0.0723  0.2077
   15SAPS  H14X 1981   2.600   5.397   4.020  1.1535 -1.4883 -1.0658
   15SAPS  H14Y 1982   2.512   5.536   3.945  1.1447  1.4293 -0.1901
   15SAPS  C315 1983   2.716   5.580   3.972 -0.5422 -0.1656  0.5510
   15SAPS  H15X 1984   2.709   5.666   3.903 -0.0631 -2.2332 -2.2564
   15SAPS  H15Y 1985   2.817   5.535   3.960  0.4074  2.0181 -0.1504
   15SAPS  C316 1986   2.699   5.633   4.114 -0.1181  0.2657 -0.4702
   15SAPS  H16X 1987   2.605   5.690   4.129 -1.2485 -1.9905  1.5983
   15SAPS  H16Y 1988   2.777   5.711   4.128 -1.3833  1.0065  4.1946
   15SAPS  C317 1989   2.720   5.522   4.223 -0.0822 -1.1578 -0.1084
   15SAPS  H17X 1990   2.812   5.462   4.211  2.1246  1.6451  1.4299
   15SAPS  H17Y 1991   2.620   5.473   4.226 -1.2271  1.0116 -0.4544
   15SAPS  C318 1992   2.733   5.578   4.365  0.4218 -0.5797 -0.0526
   15SAPS  H18X 1993   2.827   5.637   4.378 -0.4605  1.1563 -1.1883
   15SAPS  H18Y 1994   2.725   5.500   4.444 -1.5500 -0.9682 -0.5813
   15SAPS  H18Z 1995   2.654   5.651   4.390  0.6593 -0.7990  1.4507
   16SAPS     N 1996   3.936   5.877   2.168 -0.0856  0.2863 -0.3765
   16SAPS   HN1 1997   4.010   5.891   2.240  0.1168  1.0312 -0.7133
   16SAPS   HN2 1998   3.847   5.873   2.222 -0.4615  0.1101 -1.0005
   16SAPS   HN3 1999   3.945   5.793   2.108 -3.8056 -0.9287  0.5319
   16SAPS   C12 2000   3.918   6.002   2.089  0.0054  0.8653  0.9241
   16SAPS  H12A 2001   4.022   6.026   2.069  1.0863 -3.9761 -0.7007
   16SAPS   C13 2002   3.833   5.981   1.963  0.6188 -0.5038  0.5720
   16SAPS  O13A 2003   3.783   5.868   1.938 -0.1353 -0.2894  0.3613
   16SAPS  O13B 2004   3.825   6.078   1.884  0.6188  0.3904  0.0050
   16SAPS   C11 2005   3.866   6.112   2.170 -0.0757 -0.0680 -0.6433
   16SAPS  H11A 2006   3.759   6.102   2.198  0.4089 -1.5030  0.8626
   16SAPS  H11B 2007   3.866   6.202   2.105  1.7543 -0.1147 -0.7762
   16SAPS     P 2008   4.030   6.250   2.319 -0.3063  0.0785  0.5101
   16SAPS   O13 2009   4.171   6.197   2.336 -0.1996 -0.4280 -0.1742
   16SAPS   O14 2010   4.009   6.360   2.226  0.1422 -0.2027  0.0172
   16SAPS   O12 2011   3.938   6.128   2.292  0.1732 -0.0292 -0.0438
   16SAPS   O11 2012   3.988   6.304   2.462 -0.2579  0.0302 -0.3941
   16SAPS    C1 2013   3.860   6.282   2.514 -0.6185 -0.1111  0.2689
   16SAPS    HA 2014   3.819   6.385   2.521  1.1714  0.6062  0.6940
   16SAPS    HB 2015   3.797   6.209   2.458 -0.4211 -2.9379  3.3982
   16SAPS    C2 2016   3.875   6.229   2.656  0.6386 -0.3637  0.2081
   16SAPS    HS 2017   3.776   6.197   2.695 -0.3285 -0.7480 -2.3372
   16SAPS   O21 2018   3.941   6.317   2.749 -0.6477 -0.2642 -0.4436
   16SAPS   C21 2019   3.864   6.403   2.817 -0.1237 -0.4403 -0.3747
   16SAPS   O22 2020   3.744   6.408   2.806  0.3307  0.3916 -0.3612
   16SAPS   C22 2021   3.953   6.486   2.914  0.2353  0.6766  1.2938
   16SAPS   H2R 2022   4.027   6.540   2.852 -0.5306 -0.5552 -0.7916
   16SAPS   H2S 2023   3.884   6.562   2.958 -0.3521  1.0204 -0.1532
   16SAPS    C3 2024   3.956   6.095   2.654 -0.2993  0.2758  0.2312
   16SAPS    HX 2025   4.059   6.127   2.629  0.8621 -1.7243  2.0494
   16SAPS    HY 2026   3.922   6.026   2.574  1.1871  0.9612 -1.0335
   16SAPS   O31 2027   3.968   6.036   2.790  0.7182  0.3689  0.0722
   16SAPS   C31 2028   3.873   5.942   2.818 -0.9428 -0.1913 -0.2117
   16SAPS   O32 2029   3.782   5.911   2.749 -0.0490  0.1024  0.5516
   16SAPS   C32 2030   3.892   5.893   2.963  0.2036  0.7631 -0.8359
   16SAPS   H2X 2031   3.875   5.980   3.029 -0.0895  0.3111 -0.3106
   16SAPS   H2Y 2032   3.990   5.843   2.981 -0.3721  0.0347  0.3703
   16SAPS   C23 2033   4.023   6.397   3.021 -0.0682 -0.3233 -0.3075
   16SAPS   H3R 2034   4.086   6.322   2.970 -0.6231  0.6671 -2.5464
   16SAPS   H3S 2035   3.953   6.337   3.083 -1.1681  0.5963 -0.6173
   16SAPS   C24 2036   4.119   6.480   3.109 -1.0185 -0.3783  0.4078
   16SAPS   H4R 2037   4.184   6.535   3.036  0.6896 -0.7650  1.5653
   16SAPS   H4S 2038   4.180   6.405   3.164 -0.4573  0.6757  1.2705
   16SAPS   C25 2039   4.061   6.570   3.212  0.7016 -0.7070  0.4623
   16SAPS   H5R 2040   3.997   6.529   3.292  0.6160  0.6774  1.1422
   16SAPS   C26 2041   4.080   6.705   3.221 -0.1961 -0.4725  0.1555
   16SAPS   H6R 2042   4.033   6.758   3.306  1.6920 -0.1812  1.0888
   16SAPS   C27 2043   4.158   6.789   3.121  0.2701  0.1614  0.0395
   16SAPS   H7R 2044   4.148   6.755   3.016 -0.8809 -1.0741  0.5120
   16SAPS   H7S 2045   4.267   6.787   3.144  0.5735  1.3053 -1.1581
   16SAPS   C28 2046   4.115   6.931   3.120 -0.7151  0.1969  0.1587
   16SAPS   H8R 2047   4.021   6.948   3.066 -0.0141  0.8844 -0.8731
   16SAPS   C29 2048   4.165   7.035   3.187 -0.5593 -0.1996 -0.5243
   16SAPS   H9R 2049   4.125   7.134   3.162 -0.7959 -1.3399 -6.1955
   16SAPS  C210 2050   4.288   7.028   3.277  0.1525 -0.3640  0.1118
   16SAPS  H10R 2051   4.298   6.932   3.333 -0.2960  0.5565  1.8341
   16SAPS  H10S 2052   4.252   7.096   3.357 -4.3927 -1.3237 -0.7972
   16SAPS  C211 2053   4.420   7.065   3.219 -0.1477  0.3454  0.7104
   16SAPS  H11R 2054   4.426   7.046   3.111  0.7265  2.3975  0.3571
   16SAPS  C212 2055   4.527   7.104   3.292 -0.3363  0.2136 -0.1186
   16SAPS  H12R 2056   4.617   7.117   3.230 -1.1916  0.6836 -1.2984
   16SAPS  C213 2057   4.554   7.136   3.439  0.0946  0.2963  1.1824
   16SAPS  H13R 2058   4.659   7.129   3.474  0.7525 -0.1645 -0.7911
   16SAPS  H13S 2059   4.502   7.064   3.505 -0.6836  1.3203  1.7111
   16SAPS  C214 2060   4.519   7.275   3.483  0.3639 -0.2068 -0.4162
   16SAPS  H14R 2061   4.444   7.323   3.419  1.3209  0.5957 -0.9669
   16SAPS  C215 2062   4.566   7.356   3.582  0.7397  0.7340  0.7627
   16SAPS  H15R 2063   4.503   7.440   3.614 -0.2417  1.3505 -2.4321
   16SAPS  C216 2064   4.666   7.308   3.686 -0.3230 -0.4351 -0.2276
   16SAPS  H16R 2065   4.742   7.389   3.693 -2.1688  1.2792  1.3920
   16SAPS  H16S 2066   4.711   7.207   3.676  1.4568  0.3408 -0.5164
   16SAPS  C217 2067   4.612   7.304   3.834  0.0710  0.2978  0.2291
   16SAPS  H17R 2068   4.533   7.226   3.832  0.5478 -0.2384  1.4584
   16SAPS  H17S 2069   4.558   7.401   3.848 -0.2407  0.1370  0.1585
   16SAPS  C218 2070   4.717   7.279   3.946  0.2429  0.1488 -0.2277
   16SAPS  H18R 2071   4.813   7.332   3.935 -1.3393  3.0458 -1.0599
   16SAPS  H18S 2072   4.741   7.171   3.939  2.9311  0.6423  0.2969
   16SAPS  C219 2073   4.660   7.305   4.084 -0.2621 -0.1582 -0.0681
   16SAPS  H19R 2074   4.558   7.263   4.092 -0.5950  0.6098 -0.2130
   16SAPS  H19S 2075   4.656   7.416   4.089  1.1717 -0.1532  2.2722
   16SAPS  C220 2076   4.755   7.256   4.197 -0.4948 -0.4731 -0.0444
   16SAPS  H20R 2077   4.861   7.282   4.180 -1.3248  1.8021 -2.3248
   16SAPS  H20S 2078   4.755   7.145   4.210 -2.6638 -0.3135  2.1965
   16SAPS  H20T 2079   4.713   7.311   4.284 -2.8235 -0.2238 -1.2476
   16SAPS   C33 2080   3.787   5.785   3.004 -0.0624 -0.0649 -0.3729
   16SAPS   H3X 2081   3.779   5.697   2.936  2.4203 -1.9771  1.5748
   16SAPS   H3Y 2082   3.688   5.831   3.024  0.9278  2.0697 -0.1863
   16SAPS   C34 2083   3.841   5.725   3.145 -0.2101  0.7559 -0.4783
   16SAPS   H4X 2084   3.862   5.807   3.217 -1.2024  0.7802 -0.2044
   16SAPS   H4Y 2085   3.944   5.684   3.136  0.0973  1.4779 -0.3418
   16SAPS   C35 2086   3.736   5.616   3.197 -0.1949 -0.9782  1.3380
   16SAPS   H5X 2087   3.745   5.527   3.132  1.7192  1.1032 -1.5168
   16SAPS   H5Y 2088   3.632   5.653   3.186 -0.2409 -1.2052  1.0072
   16SAPS   C36 2089   3.777   5.575   3.341  0.6485 -0.2290 -0.3240
   16SAPS   H6X 2090   3.888   5.579   3.347  0.5933  2.1436 -0.0684
   16SAPS   H6Y 2091   3.742   5.472   3.366  0.3225  0.2289  1.1816
   16SAPS   C37 2092   3.712   5.654   3.456 -0.1028 -0.5715  0.3471
   16SAPS   H7X 2093   3.602   5.659   3.442 -0.2546 -2.0417  0.8006
   16SAPS   H7Y 2094   3.750   5.757   3.471 -0.4377 -0.4357  0.2626
   16SAPS   C38 2095   3.722   5.591   3.603 -0.4429  0.0693  0.3644
   16SAPS   H8X 2096   3.832   5.578   3.616 -0.4706  1.6728  3.1018
   16SAPS   H8Y 2097   3.681   5.488   3.599  1.7042 -0.8409  0.1740
   16SAPS   C39 2098   3.655   5.683   3.714 -0.2045 -0.4273  0.0228
   16SAPS   H9X 2099   3.558   5.726   3.682  1.6692  4.1067 -0.3341
   16SAPS   H9Y 2100   3.732   5.759   3.740 -0.7615  0.6353 -1.3338
   16SAPS  C310 2101   3.648   5.600   3.846  0.2172 -0.8544  0.3219
   16SAPS  H10X 2102   3.554   5.542   3.837 -0.3353  0.3242 -2.8096
   16SAPS  H10Y 2103   3.634   5.663   3.937 -2.1293  1.6578 -1.5972
   16SAPS  C311 2104   3.765   5.510   3.869 -0.4654 -0.1148 -0.4719
   16SAPS  H11X 2105   3.856   5.568   3.895  0.3784 -1.3142 -0.6540
   16SAPS  H11Y 2106   3.792   5.449   3.780 -1.2278 -1.3710  0.1275
   16SAPS  C312 2107   3.744   5.400   3.974  0.5679  0.3358  0.7339
   16SAPS  H12X 2108   3.657   5.344   3.934 -0.3499  0.8251  1.9575
   16SAPS  H12Y 2109   3.714   5.441   4.073  0.6859 -1.5569  1.5836
   16SAPS  C313 2110   3.870   5.312   3.978  0.5387  0.2150 -0.7518
   16SAPS  H13X 2111   3.959   5.371   4.008  0.6441 -0.8642  1.2152
   16SAPS  H13Y 2112   3.875   5.267   3.876 -1.9206 -1.3202 -0.2692
   16SAPS  C314 2113   3.843   5.190   4.064 -0.4591 -0.0464 -0.1738
   16SAPS  H14X 2114   3.788   5.219   4.155  0.7695  2.1289 -0.0461
   16SAPS  H14Y 2115   3.934   5.139   4.103 -0.0013  0.3104 -0.7507
   16SAPS  C315 2116   3.760   5.085   3.990 -0.9626 -0.3888 -0.2670
   16SAPS  H15X 2117   3.802   5.071   3.888 -0.9597  0.7637 -0.4320
   16SAPS  H15Y 2118   3.662   5.129   3.966 -0.7654 -0.4725 -1.2598
   16SAPS  C316 2119   3.736   4.961   4.075 -0.0970 -0.3104  0.0038
   16SAPS  H16X 2120   3.672   4.887   4.023 -0.6369 -0.1628  0.4456
   16SAPS  H16Y 2121   3.692   4.981   4.175 -0.4697 -1.5495  0.1066
   16SAPS  C317 2122   3.873   4.893   4.095 -1.2713  0.1501 -0.3123
   16SAPS  H17X 2123   3.937   4.936   4.176  1.0690 -0.9157 -1.5001
   16SAPS  H17Y 2124   3.927   4.914   4.001 -2.2966  0.4179 -0.8575
   16SAPS  C318 2125   3.858   4.744   4.105  0.2683  0.8479  0.2598
   16SAPS  H18X 2126   3.771   4.706   4.048 -1.0408  0.1451  2.5972
   16SAPS  H18Y 2127   3.846   4.692   4.203 -0.9073 -1.2988 -0.9563
   16SAPS  H18Z 2128   3.953   4.697   4.072  1.2334  0.2259  3.5399
   17SAPS     N 2129   4.924   0.889   2.100 -0.4294  0.0325  0.3548
   17SAPS   HN1 2130   5.012   0.886   2.045 -0.5634  0.0813  0.1353
   17SAPS   HN2 2131   4.868   0.811   2.061  0.7097 -0.7743  0.3039
   17SAPS   HN3 2132   4.870   0.977   2.086 -0.1009 -0.0402 -1.7550
   17SAPS   C12 2133   4.950   0.867   2.241 -0.2703  0.2865 -0.8778
   17SAPS  H12A 2134   4.861   0.885   2.300  0.0610 -0.2380 -0.2035
   17SAPS   C13 2135   4.988   0.715   2.260 -0.2051 -0.3081 -0.6734
   17SAPS  O13A 2136   4.988   0.638   2.162 -0.5486  0.0911  0.3002
   17SAPS  O13B 2137   5.025   0.679   2.377  0.1520 -0.0530 -0.2733
   17SAPS   C11 2138   5.058   0.960   2.285 -0.1766  0.0636 -0.7025
   17SAPS  H11A 2139   5.150   0.931   2.231  0.6236 -0.4255  0.8488
   17SAPS  H11B 2140   5.070   0.935   2.393 -2.5563 -1.7487 -0.7639
   17SAPS     P 2141   5.087   1.216   2.315  0.1325 -0.1025  0.7706
   17SAPS   O13 2142   5.227   1.215   2.278 -0.0253 -0.1998  0.1514
   17SAPS   O14 2143   5.019   1.340   2.262 -0.8285 -0.3850 -0.4005
   17SAPS   O12 2144   5.014   1.091   2.254  0.0236  0.3508  0.5086
   17SAPS   O11 2145   5.068   1.213   2.470  0.1994  0.0625  0.3768
   17SAPS    C1 2146   4.942   1.235   2.527  0.0770 -0.1451 -0.4116
   17SAPS    HA 2147   4.917   1.344   2.523  1.0720  0.0566 -2.2002
   17SAPS    HB 2148   4.860   1.179   2.478 -0.9557  0.7361  0.2494
   17SAPS    C2 2149   4.950   1.180   2.673  0.6283  0.3631 -0.0378
   17SAPS    HS 2150   4.848   1.164   2.714  0.7454 -0.4470 -0.0543
   17SAPS   O21 2151   5.021   1.258   2.774 -0.3469 -0.4113 -0.5437
   17SAPS   C21 2152   4.950   1.359   2.830 -0.4828  0.5570 -0.2044
   17SAPS   O22 2153   4.844   1.395   2.792  0.4406 -0.8074  0.3838
   17SAPS   C22 2154   5.035   1.422   2.942  0.4958  0.8191  0.3261
   17SAPS   H2R 2155   5.130   1.458   2.897  1.5998  0.4884  2.2503
   17SAPS   H2S 2156   4.983   1.501   2.999 -1.1269  0.1215 -0.1388
   17SAPS    C3 2157   5.005   1.039   2.672  0.0856 -0.5735  0.0014
   17SAPS    HX 2158   5.100   1.027   2.615  1.0171  0.2902  1.3208
   17SAPS    HY 2159   4.927   0.975   2.626  1.2676 -1.8030 -0.3840
   17SAPS   O31 2160   5.015   0.986   2.804  0.6594 -0.1953 -0.7614
   17SAPS   C31 2161   5.124   1.004   2.875  0.4744 -0.4762  0.3727
   17SAPS   O32 2162   5.224   1.059   2.829 -0.2697  0.0870 -0.4044
   17SAPS   C32 2163   5.109   0.943   3.015 -0.2133 -0.6927 -0.1054
   17SAPS   H2X 2164   5.110   0.833   3.003 -1.6040 -0.8245  0.8423
   17SAPS   H2Y 2165   5.018   0.988   3.059 -0.8920 -1.8779 -0.2878
   17SAPS   C23 2166   5.093   1.313   3.033  0.1633  0.4647  0.4935
   17SAPS   H3R 2167   5.161   1.248   2.973  0.5712  0.3101  1.1161
   17SAPS   H3S 2168   5.015   1.247   3.077 -1.4913  0.4997 -2.1527
   17SAPS   C24 2169   5.179   1.376   3.142 -1.2258  0.4746 -0.5391
   17SAPS   H4R 2170   5.242   1.455   3.097  0.7622  0.1956  1.5355
   17SAPS   H4S 2171   5.265   1.310   3.169 -0.5464  1.3214 -0.5970
   17SAPS   C25 2172   5.105   1.427   3.258  0.6945  0.0992  0.0501
   17SAPS   H5R 2173   5.001   1.445   3.229  0.5645 -0.8809 -0.1209
   17SAPS   C26 2174   5.154   1.457   3.380  0.7475 -0.1875 -0.8118
   17SAPS   H6R 2175   5.080   1.480   3.457 -2.1586 -2.0037 -2.8405
   17SAPS   C27 2176   5.294   1.437   3.432 -0.3894 -0.1832 -0.2499
   17SAPS   H7R 2177   5.325   1.542   3.452 -1.4140 -0.0187  0.5110
   17SAPS   H7S 2178   5.351   1.401   3.343 -0.1087  2.5248 -1.2774
   17SAPS   C28 2179   5.313   1.350   3.554  0.0558  1.2770  0.0331
   17SAPS   H8R 2180   5.326   1.246   3.519  2.4112  1.4719  0.1446
   17SAPS   C29 2181   5.303   1.376   3.685  0.3005 -0.0283  0.2587
   17SAPS   H9R 2182   5.318   1.289   3.751  1.0688 -1.0047 -1.1476
   17SAPS  C210 2183   5.260   1.512   3.740 -0.0743  0.1537 -0.5170
   17SAPS  H10R 2184   5.211   1.576   3.665  1.0466  0.9818 -0.5622
   17SAPS  H10S 2185   5.340   1.564   3.797 -0.3191  0.5798 -0.5653
   17SAPS  C211 2186   5.147   1.486   3.841  0.4099  0.2415 -0.2682
   17SAPS  H11R 2187   5.056   1.441   3.797 -0.1136 -0.0353  1.0631
   17SAPS  C212 2188   5.147   1.520   3.972  0.0596 -0.1161  0.0297
   17SAPS  H12R 2189   5.056   1.486   4.024  0.6253 -1.6643  0.0563
   17SAPS  C213 2190   5.259   1.584   4.048 -0.4007 -0.1604 -0.6611
   17SAPS  H13R 2191   5.248   1.692   4.026  1.3714  0.3334  0.6596
   17SAPS  H13S 2192   5.356   1.560   3.998 -1.1654  2.1481 -3.5578
   17SAPS  C214 2193   5.259   1.534   4.191 -0.4479  0.5172  0.1189
   17SAPS  H14R 2194   5.273   1.426   4.211  1.7234  0.8729  0.8191
   17SAPS  C215 2195   5.236   1.615   4.297  0.0449  0.1536  0.3866
   17SAPS  H15R 2196   5.240   1.576   4.400 -1.4476 -1.6830 -0.1765
   17SAPS  C216 2197   5.198   1.761   4.297 -0.4924 -0.4552 -0.2595
   17SAPS  H16R 2198   5.093   1.769   4.262 -0.6997 -0.1279  0.4119
   17SAPS  H16S 2199   5.261   1.814   4.223  2.3309 -1.4604  1.2607
   17SAPS  C217 2200   5.204   1.835   4.434 -0.5287  1.0167  0.7512
   17SAPS  H17R 2201   5.139   1.787   4.510 -0.0250  0.8566  1.0812
   17SAPS  H17S 2202   5.189   1.945   4.422 -0.1692  0.8637 -1.5556
   17SAPS  C218 2203   5.351   1.820   4.481  0.4906 -0.4817 -0.3534
   17SAPS  H18R 2204   5.415   1.877   4.411 -0.5195 -0.6815 -1.4670
   17SAPS  H18S 2205   5.383   1.714   4.483 -1.2923 -1.1539 -2.8232
   17SAPS  C219 2206   5.371   1.885   4.620 -0.4345  0.0609 -0.6756
   17SAPS  H19R 2207   5.301   1.850   4.698 -0.1421  0.4357 -0.2435
   17SAPS  H19S 2208   5.359   1.995   4.606 -0.9597  0.3317  1.6196
   17SAPS  C220 2209   5.514   1.869   4.679 -0.6415 -1.2378  0.4615
   17SAPS  H20R 2210   5.526   1.937   4.765 -2.0538 -0.7273  0.2792
   17SAPS  H20S 2211   5.601   1.891   4.614 -0.6326  0.0375  0.8805
   17SAPS  H20T 2212   5.517   1.771   4.731 -0.9287 -0.6312  1.6557
   17SAPS   C33 2213   5.211   0.983   3.117 -0.2888  0.2765  0.1002
   17SAPS   H3X 2214   5.222   1.093   3.117  0.2528  0.2408 -1.6017
   17SAPS   H3Y 2215   5.308   0.954   3.073  0.7731  0.2958  2.3052
   17SAPS   C34 2216   5.176   0.922   3.255 -0.6212 -0.8557 -0.2514
   17SAPS   H4X 2217   5.146   0.816   3.243  0.7229 -1.4300  1.2021
   17SAPS   H4Y 2218   5.090   0.977   3.298 -1.6309 -2.0292 -0.6924
   17SAPS   C35 2219   5.295   0.938   3.345 -0.6463  0.1343 -0.5021
   17SAPS   H5X 2220   5.317   1.046   3.354 -1.0623  0.2305 -0.6211
   17SAPS   H5Y 2221   5.377   0.882   3.295 -2.7949 -2.1527 -1.6855
   17SAPS   C36 2222   5.272   0.874   3.480  0.1473  0.2457 -0.6047
   17SAPS   H6X 2223   5.259   0.765   3.497 -0.0279  0.3660  0.0569
   17SAPS   H6Y 2224   5.169   0.911   3.505  0.7663  0.9416  1.1159
   17SAPS   C37 2225   5.372   0.929   3.590 -0.2416 -0.1161 -0.6950
   17SAPS   H7X 2226   5.370   1.040   3.583  2.8374  0.2683  2.1445
   17SAPS   H7Y 2227   5.471   0.899   3.547 -0.6107  0.1917 -1.7994
   17SAPS   C38 2228   5.351   0.876   3.731 -0.2521  0.2074  0.0692
   17SAPS   H8X 2229   5.363   0.766   3.739 -2.1526  0.1076  4.0978
   17SAPS   H8Y 2230   5.243   0.893   3.752 -0.6175 -0.3641 -1.2085
   17SAPS   C39 2231   5.449   0.942   3.828  0.8657  0.6187  0.1039
   17SAPS   H9X 2232   5.411   1.039   3.866  2.8726  1.2862  0.5271
   17SAPS   H9Y 2233   5.542   0.970   3.773 -1.0539  0.9857 -3.2181
   17SAPS  C310 2234   5.489   0.849   3.948  0.2847 -0.3527 -0.1656
   17SAPS  H10X 2235   5.501   0.743   3.919 -0.6416 -0.2366 -1.0215
   17SAPS  H10Y 2236   5.413   0.847   4.029  0.2832 -0.2647 -0.1650
   17SAPS  C311 2237   5.619   0.890   4.020  0.4304 -0.2400  0.5325
   17SAPS  H11X 2238   5.608   0.986   4.074  1.7402 -0.8095  1.8725
   17SAPS  H11Y 2239   5.702   0.897   3.946  1.4670  1.3600  1.7727
   17SAPS  C312 2240   5.645   0.779   4.126 -0.1608  0.8663  0.6161
   17SAPS  H12X 2241   5.661   0.681   4.075 -2.1486  0.0590  1.4587
   17SAPS  H12Y 2242   5.546   0.768   4.175 -0.1224 -0.3048  0.4521
   17SAPS  C313 2243   5.759   0.816   4.230 -0.2193 -0.0397  0.1695
   17SAPS  H13X 2244   5.857   0.804   4.180  0.1777 -0.0411  0.9305
   17SAPS  H13Y 2245   5.747   0.744   4.314 -0.7641  2.8808  2.7912
   17SAPS  C314 2246   5.759   0.962   4.287 -0.4369 -0.3458  0.3929
   17SAPS  H14X 2247   5.658   0.989   4.323 -0.8164  0.8926 -1.4280
   17SAPS  H14Y 2248   5.778   1.023   4.196  2.5301  1.1095  1.8593
   17SAPS  C315 2249   5.873   0.987   4.385 -0.3766 -0.1854  0.2686
   17SAPS  H15X 2250   5.968   0.975   4.329 -0.7178 -3.3965  0.1993
   17SAPS  H15Y 2251   5.881   0.896   4.448  1.3269 -0.5986 -0.4605
   17SAPS  C316 2252   5.874   1.122   4.462 -0.0399 -0.3227  0.3108
   17SAPS  H16X 2253   5.876   1.202   4.385  4.6309 -1.0979 -0.6659
   17SAPS  H16Y 2254   5.973   1.126   4.513  0.4444  0.1698 -0.6382
   17SAPS  C317 2255   5.750   1.127   4.558 -0.2636  0.3782  0.0481
   17SAPS  H17X 2256   5.668   1.076   4.503  2.1142 -0.8245 -2.6522
   17SAPS  H17Y 2257   5.723   1.232   4.580 -1.9999  0.2486 -1.2371
   17SAPS  C318 2258   5.796   1.073   4.687  0.4695  0.7533 -0.7064
   17SAPS  H18X 2259   5.852   0.979   4.664  0.2635  1.1727 -3.1837
   17SAPS  H18Y 2260   5.709   1.039   4.748 -0.0745 -1.8706 -2.7333
   17SAPS  H18Z 2261   5.858   1.140   4.751  0.1143 -0.0393  0.5075
   18SAPS     N 2262   3.621   3.891   1.723  0.1048  0.3678  0.3435
   18SAPS   HN1 2263   3.702   3.944   1.759  1.7083 -2.1291  0.6179
   18SAPS   HN2 2264   3.656   3.830   1.647 -0.6301  2.0401 -1.4325
   18SAPS   HN3 2265   3.553   3.954   1.675  0.2623  1.3901  1.4177
   18SAPS   C12 2266   3.573   3.827   1.849 -0.3286  0.2055  0.1661
   18SAPS  H12A 2267   3.564   3.900   1.928  1.1191 -1.2107  1.7031
   18SAPS   C13 2268   3.437   3.761   1.845  0.3729 -0.0722 -0.2016
   18SAPS  O13A 2269   3.365   3.787   1.745  0.2163 -0.3489  0.2098
   18SAPS  O13B 2270   3.379   3.704   1.949 -0.3570 -1.2061  0.4887
   18SAPS   C11 2271   3.678   3.725   1.896  0.7616  0.0850 -0.0953
   18SAPS  H11A 2272   3.686   3.634   1.833  1.1759 -0.1795  0.3279
   18SAPS  H11B 2273   3.645   3.690   1.996  1.1901 -2.8184 -0.8878
   18SAPS     P 2274   3.941   3.716   1.932  0.0451  0.1498  0.1779
   18SAPS   O13 2275   3.922   3.585   2.001 -0.2441 -0.7890 -0.1050
   18SAPS   O14 2276   4.010   3.706   1.800 -0.4857 -0.1442 -0.3870
   18SAPS   O12 2277   3.801   3.792   1.912 -0.6976  0.5093  0.0329
   18SAPS   O11 2278   4.022   3.815   2.031 -0.0098  0.0773 -0.5770
   18SAPS    C1 2279   4.024   3.959   2.029 -0.1750 -0.4422  0.3129
   18SAPS    HA 2280   4.126   4.001   2.031 -0.4280  0.1974  0.0234
   18SAPS    HB 2281   3.973   4.005   1.942 -0.5431 -0.3611  0.5698
   18SAPS    C2 2282   3.966   4.028   2.152 -0.5288 -0.5338  0.4577
   18SAPS    HS 2283   3.968   4.137   2.134  0.2402 -1.0053 -3.0923
   18SAPS   O21 2284   4.042   3.985   2.263  0.1905 -0.4039  0.1014
   18SAPS   C21 2285   4.160   4.057   2.286  0.8341  0.3961 -0.5421
   18SAPS   O22 2286   4.197   4.152   2.217 -0.1861 -0.1548 -0.1384
   18SAPS   C22 2287   4.235   4.017   2.415 -1.1028 -0.1525  0.3901
   18SAPS   H2R 2288   4.271   3.914   2.394  0.8651  0.7384 -0.9582
   18SAPS   H2S 2289   4.330   4.074   2.417 -0.6760 -0.5633 -2.8333
   18SAPS    C3 2290   3.825   3.982   2.179  0.4045  0.1466  0.2267
   18SAPS    HX 2291   3.830   3.872   2.194 -0.4667  0.3129  1.9073
   18SAPS    HY 2292   3.764   3.990   2.087  0.0007  1.9389  0.6117
   18SAPS   O31 2293   3.758   4.052   2.290 -0.1328 -0.5250 -0.1044
   18SAPS   C31 2294   3.643   4.005   2.321 -0.1897 -1.5976 -0.1703
   18SAPS   O32 2295   3.600   3.904   2.274 -0.3891  0.7180 -0.2304
   18SAPS   C32 2296   3.568   4.106   2.408  0.0215 -0.0803 -0.4789
   18SAPS   H2X 2297   3.555   4.199   2.349  0.9144 -0.3981 -1.1999
   18SAPS   H2Y 2298   3.635   4.118   2.496 -0.6702 -3.0101  0.5495
   18SAPS   C23 2299   4.169   4.032   2.554  0.4892 -0.5240  0.6178
   18SAPS   H3R 2300   4.060   4.007   2.551  0.0013  1.4379  0.2211
   18SAPS   H3S 2301   4.176   4.140   2.580 -2.1657  0.2747 -1.4650
   18SAPS   C24 2302   4.227   3.950   2.667 -0.7308  0.6654 -0.5420
   18SAPS   H4R 2303   4.220   3.844   2.636  1.8285  1.3076 -3.8223
   18SAPS   H4S 2304   4.166   3.956   2.760  0.2321 -1.1375  0.2708
   18SAPS   C25 2305   4.372   4.000   2.700  0.1946 -0.4966  0.3367
   18SAPS   H5R 2306   4.438   4.011   2.612 -0.8029  0.0249 -0.3699
   18SAPS   C26 2307   4.427   4.023   2.821 -0.1267 -0.1475 -0.4071
   18SAPS   H6R 2308   4.529   4.064   2.828  0.4292 -1.5658  0.1842
   18SAPS   C27 2309   4.341   4.030   2.949 -0.0090  0.1826 -0.4681
   18SAPS   H7R 2310   4.350   3.926   2.986 -0.1096  0.4967  0.4746
   18SAPS   H7S 2311   4.236   4.057   2.927 -0.3130 -0.2716  0.3786
   18SAPS   C28 2312   4.385   4.131   3.060 -0.1168  0.0633  0.7909
   18SAPS   H8R 2313   4.483   4.178   3.045 -0.1958  0.3008  1.0115
   18SAPS   C29 2314   4.300   4.173   3.149  0.2221 -1.0381 -0.1543
   18SAPS   H9R 2315   4.330   4.257   3.215 -1.0950  0.2886 -1.1713
   18SAPS  C210 2316   4.166   4.114   3.184  0.1990  0.9255 -1.0303
   18SAPS  H10R 2317   4.146   4.013   3.144  1.5661  0.3753 -0.3741
   18SAPS  H10S 2318   4.084   4.175   3.140 -0.6334 -0.0860 -0.9047
   18SAPS  C211 2319   4.134   4.116   3.334 -0.7476  0.2460  0.5626
   18SAPS  H11R 2320   4.178   4.027   3.380  0.2396  0.0999 -0.5988
   18SAPS  C212 2321   4.093   4.218   3.411  0.4973 -0.0092  0.2383
   18SAPS  H12R 2322   4.102   4.197   3.519  5.1688  0.7096  0.2048
   18SAPS  C213 2323   4.043   4.359   3.378 -0.8243  0.4880  0.3133
   18SAPS  H13R 2324   4.097   4.403   3.293 -2.7045  1.4877 -0.4238
   18SAPS  H13S 2325   4.068   4.419   3.468  0.1172 -2.4228  2.1520
   18SAPS  C214 2326   3.906   4.366   3.317  0.4333  0.5702 -0.4798
   18SAPS  H14R 2327   3.847   4.274   3.317 -0.3252  1.0466 -0.3582
   18SAPS  C215 2328   3.843   4.470   3.254  0.0678 -0.2383 -0.0551
   18SAPS  H15R 2329   3.753   4.449   3.194 -0.4063 -0.1723  0.6170
   18SAPS  C216 2330   3.898   4.607   3.252 -0.1255 -0.0748  0.9621
   18SAPS  H16R 2331   4.007   4.607   3.270  0.0767  1.8689  0.0363
   18SAPS  H16S 2332   3.853   4.674   3.328 -0.6831  0.3869  0.2460
   18SAPS  C217 2333   3.868   4.653   3.106  0.1146  0.0383 -0.0507
   18SAPS  H17R 2334   3.886   4.760   3.084 -0.8350 -0.2112 -2.4123
   18SAPS  H17S 2335   3.757   4.650   3.101 -0.0695  3.4835 -0.0266
   18SAPS  C218 2336   3.942   4.566   2.992  0.4805 -0.8067 -0.0172
   18SAPS  H18R 2337   3.884   4.599   2.903 -1.7359  0.5031  1.7921
   18SAPS  H18S 2338   3.919   4.459   3.011  2.7100 -1.0997  1.5138
   18SAPS  C219 2339   4.088   4.597   2.957  0.5416  0.5052 -0.2955
   18SAPS  H19R 2340   4.154   4.551   3.033 -0.0999  2.3378  1.4529
   18SAPS  H19S 2341   4.106   4.706   2.970  1.6418  0.3245 -0.2195
   18SAPS  C220 2342   4.127   4.549   2.819  0.2603 -0.0422  0.8517
   18SAPS  H20R 2343   4.100   4.442   2.807  1.1151 -0.2311  0.5393
   18SAPS  H20S 2344   4.237   4.561   2.814  0.1309  3.1830  2.6866
   18SAPS  H20T 2345   4.063   4.595   2.741  0.7283 -0.3942  0.2528
   18SAPS   C33 2346   3.430   4.041   2.449 -0.5070 -0.6923  0.5795
   18SAPS   H3X 2347   3.439   3.955   2.520 -2.8772 -0.1986  1.5772
   18SAPS   H3Y 2348   3.367   4.022   2.360 -0.5026  1.2299  0.1285
   18SAPS   C34 2349   3.354   4.149   2.527 -0.6351 -0.4716 -0.3060
   18SAPS   H4X 2350   3.334   4.234   2.458  0.4652  0.0939  0.0484
   18SAPS   H4Y 2351   3.429   4.188   2.600 -1.2599 -1.5723  0.9494
   18SAPS   C35 2352   3.232   4.113   2.606  0.2683  0.4846  0.9525
   18SAPS   H5X 2353   3.150   4.072   2.543 -0.6081  0.3890  2.1365
   18SAPS   H5Y 2354   3.193   4.206   2.653  1.3613  0.6805  1.4996
   18SAPS   C36 2355   3.260   4.019   2.718  0.0012  0.4657 -0.6305
   18SAPS   H6X 2356   3.350   4.053   2.773  0.2168 -1.1714  0.0755
   18SAPS   H6Y 2357   3.289   3.917   2.686  2.8030  0.7722  0.6669
   18SAPS   C37 2358   3.146   4.011   2.819  0.0608 -0.6170  0.3083
   18SAPS   H7X 2359   3.061   3.975   2.757  0.9956 -0.3910 -1.1359
   18SAPS   H7Y 2360   3.134   4.114   2.858  0.4773 -1.2861  2.3538
   18SAPS   C38 2361   3.165   3.918   2.937  0.4244  0.7513 -0.5768
   18SAPS   H8X 2362   3.270   3.942   2.966 -0.1507  3.3421 -0.4703
   18SAPS   H8Y 2363   3.168   3.809   2.916 -0.1155  0.1970  1.8959
   18SAPS   C39 2364   3.068   3.942   3.053  0.2102 -0.2312  0.7072
   18SAPS   H9X 2365   2.965   3.907   3.030 -0.9019  2.3827  1.3505
   18SAPS   H9Y 2366   3.071   4.052   3.068  0.8904 -0.2123  0.4635
   18SAPS  C310 2367   3.108   3.866   3.188 -0.7492 -0.2296  0.0580
   18SAPS  H10X 2368   3.120   3.758   3.168 -3.4260 -0.3690 -1.2560
   18SAPS  H10Y 2369   3.018   3.876   3.251  0.5641  1.5506  1.7726
   18SAPS  C311 2370   3.226   3.933   3.275  0.9072 -0.7922  0.5671
   18SAPS  H11X 2371   3.200   4.040   3.292  2.1176 -0.8230  3.0488
   18SAPS  H11Y 2372   3.316   3.945   3.211  0.4493  0.5006  0.1118
   18SAPS  C312 2373   3.259   3.862   3.403  0.4636  0.0528  0.2492
   18SAPS  H12X 2374   3.313   3.930   3.471 -1.0047  0.7586  0.7355
   18SAPS  H12Y 2375   3.325   3.775   3.382 -1.1375 -0.9767 -0.7744
   18SAPS  C313 2376   3.137   3.789   3.458 -0.4239  1.0033 -0.4512
   18SAPS  H13X 2377   3.106   3.707   3.390  2.8573 -2.9296  2.2362
   18SAPS  H13Y 2378   3.060   3.867   3.472  0.2275  1.7573 -0.9785
   18SAPS  C314 2379   3.180   3.703   3.578 -0.1963 -0.6527 -0.2682
   18SAPS  H14X 2380   3.276   3.653   3.551 -0.4331 -0.3653 -1.7675
   18SAPS  H14Y 2381   3.104   3.624   3.592 -0.7335  0.1097  1.2339
   18SAPS  C315 2382   3.197   3.789   3.703  0.0420 -0.0387  0.2007
   18SAPS  H15X 2383   3.134   3.759   3.790  2.4743  0.5218  2.2899
   18SAPS  H15Y 2384   3.160   3.892   3.686 -2.3805  0.0933  4.6421
   18SAPS  C316 2385   3.346   3.790   3.755 -0.8424  0.1118 -0.6012
   18SAPS  H16X 2386   3.371   3.881   3.813 -0.5095  0.1760 -0.8404
   18SAPS  H16Y 2387   3.404   3.789   3.660 -0.1303 -1.7141 -0.1720
   18SAPS  C317 2388   3.397   3.673   3.838 -0.2931 -0.2293 -0.2075
   18SAPS  H17X 2389   3.507   3.687   3.840 -0.5221  1.7428  0.4443
   18SAPS  H17Y 2390   3.375   3.583   3.776 -1.8403 -0.0647  0.0702
   18SAPS  C318 2391   3.342   3.668   3.986 -0.3486 -0.1742 -0.1416
   18SAPS  H18X 2392   3.379   3.590   4.055 -0.3696  0.5151  0.6621
   18SAPS  H18Y 2393   3.231   3.661   3.973 -0.2776  0.2664 -1.1329
   18SAPS  H18Z 2394   3.359   3.765   4.038 -0.3168 -0.6075  0.6572
   19SAPS     N 2395   3.050   0.402   2.385 -0.3548 -0.0649 -0.1928
   19SAPS   HN1 2396   3.026   0.361   2.477 -0.7452  2.5408  0.9508
   19SAPS   HN2 2397   2.961   0.411   2.331  0.1407 -1.5159 -1.3264
   19SAPS   HN3 2398   3.108   0.336   2.329  0.6574  1.5981 -1.1926
   19SAPS   C12 2399   3.135   0.524   2.397 -0.1206  0.0205  1.2258
   19SAPS  H12A 2400   3.206   0.506   2.476 -0.8504  1.5958  2.2823
   19SAPS   C13 2401   3.215   0.555   2.267 -0.0259 -0.1201  0.1996
   19SAPS  O13A 2402   3.222   0.469   2.175  0.2118  0.2273 -0.6087
   19SAPS  O13B 2403   3.305   0.645   2.278  0.3193  0.0094 -0.0375
   19SAPS   C11 2404   3.042   0.644   2.437 -0.1716  0.5742 -0.2265
   19SAPS  H11A 2405   3.114   0.728   2.441  0.6853 -0.0990 -0.9282
   19SAPS  H11B 2406   3.004   0.628   2.541 -1.0474 -0.8417 -0.7333
   19SAPS     P 2407   2.881   0.806   2.320 -0.2604 -0.1002  0.4676
   19SAPS   O13 2408   2.929   0.910   2.416  0.0883  0.0421  0.0465
   19SAPS   O14 2409   2.896   0.842   2.178 -0.1074  0.3457  0.1788
   19SAPS   O12 2410   2.936   0.661   2.348  0.0463  0.3750  0.4126
   19SAPS   O11 2411   2.729   0.793   2.339 -0.3270 -0.0128 -0.3806
   19SAPS    C1 2412   2.672   0.747   2.466  0.4801 -0.2297  0.0529
   19SAPS    HA 2413   2.583   0.683   2.447  1.5218 -1.7947  0.2742
   19SAPS    HB 2414   2.741   0.678   2.520  1.1979 -0.9752 -1.7298
   19SAPS    C2 2415   2.620   0.860   2.560  0.7082 -0.1157 -0.3159
   19SAPS    HS 2416   2.701   0.924   2.600  0.2467 -0.7462  1.7706
   19SAPS   O21 2417   2.548   0.789   2.656  1.0230 -0.1857 -0.2426
   19SAPS   C21 2418   2.617   0.774   2.774  0.1514  0.2501  0.1211
   19SAPS   O22 2419   2.726   0.824   2.798 -0.3653  0.3862  0.0147
   19SAPS   C22 2420   2.538   0.691   2.873  0.0178 -0.3426 -0.0997
   19SAPS   H2R 2421   2.441   0.745   2.878  0.5438  1.4251 -4.4872
   19SAPS   H2S 2422   2.526   0.591   2.827  0.3327  1.1156 -3.6611
   19SAPS    C3 2423   2.524   0.945   2.484  0.2663  0.1788  0.2376
   19SAPS    HX 2424   2.434   0.883   2.464  1.3455 -1.5337  0.5116
   19SAPS    HY 2425   2.570   0.966   2.385 -0.2597 -2.2069 -0.5856
   19SAPS   O31 2426   2.487   1.064   2.555 -0.4056 -0.1155  0.1248
   19SAPS   C31 2427   2.387   1.049   2.630  0.2747  0.7426  0.2150
   19SAPS   O32 2428   2.306   0.959   2.627  0.0332  0.0849  0.0578
   19SAPS   C32 2429   2.409   1.151   2.747  0.2906 -0.5231 -0.9387
   19SAPS   H2X 2430   2.414   1.248   2.693 -1.2151 -1.4199 -2.8472
   19SAPS   H2Y 2431   2.503   1.121   2.797 -0.6071 -2.2713 -0.2236
   19SAPS   C23 2432   2.592   0.686   3.015  0.6103 -0.7327 -0.1949
   19SAPS   H3R 2433   2.516   0.652   3.088  0.0851 -0.2718 -0.5106
   19SAPS   H3S 2434   2.612   0.790   3.049  2.2885 -1.4823  1.2226
   19SAPS   C24 2435   2.719   0.607   3.032 -0.0593  0.0381 -0.5980
   19SAPS   H4R 2436   2.743   0.605   3.140 -1.0987 -2.9715 -0.3224
   19SAPS   H4S 2437   2.799   0.665   2.982  0.0476 -1.2818 -2.0388
   19SAPS   C25 2438   2.721   0.462   2.983 -0.0170 -0.1006  0.6113
   19SAPS   H5R 2439   2.749   0.449   2.878 -0.7407 -3.0383  0.6993
   19SAPS   C26 2440   2.692   0.349   3.051 -0.1853 -0.0774 -0.1599
   19SAPS   H6R 2441   2.711   0.254   2.998 -3.1039 -1.1906  0.5966
   19SAPS   C27 2442   2.676   0.341   3.202  1.1943  0.0130  0.4672
   19SAPS   H7R 2443   2.620   0.246   3.217  0.8434  0.4290  1.8484
   19SAPS   H7S 2444   2.602   0.420   3.225  0.9253  0.1132 -0.6853
   19SAPS   C28 2445   2.793   0.351   3.296  0.1793  0.3543  0.2390
   19SAPS   H8R 2446   2.888   0.332   3.245 -1.7434 -1.6690 -2.9246
   19SAPS   C29 2447   2.788   0.353   3.435  0.7301  0.2050  0.5491
   19SAPS   H9R 2448   2.876   0.344   3.500  1.1754  1.1125  0.0919
   19SAPS  C210 2449   2.653   0.343   3.507  0.0391 -0.0072 -0.1633
   19SAPS  H10R 2450   2.649   0.245   3.559 -1.1604  1.2398  2.2642
   19SAPS  H10S 2451   2.568   0.359   3.438 -0.3860 -0.2671  0.2939
   19SAPS  C211 2452   2.659   0.456   3.605  0.7669 -0.2149  0.1216
   19SAPS  H11R 2453   2.683   0.555   3.562 -1.8150 -0.1980 -1.4509
   19SAPS  C212 2454   2.619   0.456   3.741 -0.1934 -0.1873  0.2154
   19SAPS  H12R 2455   2.642   0.550   3.793  0.7953 -0.1516 -0.2746
   19SAPS  C213 2456   2.559   0.336   3.810 -0.2043  0.5211 -0.1600
   19SAPS  H13R 2457   2.622   0.314   3.899 -0.1509 -0.8141 -0.5020
   19SAPS  H13S 2458   2.562   0.245   3.746  1.4277  0.1888  0.3472
   19SAPS  C214 2459   2.420   0.366   3.847  0.1135 -0.0845  0.3718
   19SAPS  H14R 2460   2.418   0.407   3.949  0.8553  2.1813 -0.4575
   19SAPS  C215 2461   2.303   0.314   3.795 -0.0519 -0.2029 -0.1726
   19SAPS  H15R 2462   2.205   0.338   3.840 -0.8884 -2.8832 -0.3501
   19SAPS  C216 2463   2.290   0.240   3.661  0.1712 -0.0366  0.4516
   19SAPS  H16R 2464   2.227   0.149   3.668 -2.3763  1.4171 -1.5483
   19SAPS  H16S 2465   2.391   0.199   3.642  0.3128 -0.2130  1.5643
   19SAPS  C217 2466   2.223   0.317   3.542 -0.1568  0.3928  0.0795
   19SAPS  H17R 2467   2.289   0.405   3.526 -0.5002  0.5644 -0.4053
   19SAPS  H17S 2468   2.117   0.337   3.567 -2.0828 -1.6353 -5.0833
   19SAPS  C218 2469   2.225   0.234   3.414 -0.1875 -0.6503  0.0863
   19SAPS  H18R 2470   2.137   0.167   3.407  0.5584 -1.5798 -0.5052
   19SAPS  H18S 2471   2.306   0.158   3.409 -2.1150 -2.8334  0.3274
   19SAPS  C219 2472   2.211   0.314   3.282 -0.2067 -0.8971  0.4012
   19SAPS  H19R 2473   2.211   0.238   3.201  1.8268 -1.3211  0.7658
   19SAPS  H19S 2474   2.287   0.395   3.280  0.1438 -1.1980  1.2131
   19SAPS  C220 2475   2.076   0.385   3.274 -0.3952 -0.5021  0.1964
   19SAPS  H20R 2476   1.996   0.319   3.311  1.8075 -2.4677  1.7025
   19SAPS  H20S 2477   2.051   0.425   3.173 -0.1379  2.0731  1.0684
   19SAPS  H20T 2478   2.076   0.475   3.339 -0.4790 -0.2341 -0.1704
   19SAPS   C33 2479   2.292   1.143   2.845  0.2857  0.7165  0.5576
   19SAPS   H3X 2480   2.272   1.035   2.865  0.1503  0.5214 -0.5568
   19SAPS   H3Y 2481   2.203   1.184   2.792  1.4818  0.9716 -1.3847
   19SAPS   C34 2482   2.311   1.223   2.972  0.6259  0.5414  0.4472
   19SAPS   H4X 2483   2.213   1.209   3.021 -0.1119  2.5498 -0.3444
   19SAPS   H4Y 2484   2.319   1.332   2.951  1.3734  0.1582 -1.4923
   19SAPS   C35 2485   2.411   1.168   3.068 -0.0770 -0.2312  0.0434
   19SAPS   H5X 2486   2.511   1.201   3.031  0.4120 -3.2955 -1.7622
   19SAPS   H5Y 2487   2.419   1.057   3.061 -1.3559 -0.4432  1.4132
   19SAPS   C36 2488   2.391   1.207   3.218  0.5528 -1.0286 -0.2971
   19SAPS   H6X 2489   2.291   1.176   3.255  0.9567 -1.8703  0.1015
   19SAPS   H6Y 2490   2.381   1.318   3.225  1.9018 -0.9001 -0.1861
   19SAPS   C37 2491   2.494   1.153   3.319  0.0151  0.2458 -0.1529
   19SAPS   H7X 2492   2.594   1.189   3.286  0.7865  0.9972  2.7524
   19SAPS   H7Y 2493   2.493   1.042   3.319 -0.4007  0.2325 -1.5572
   19SAPS   C38 2494   2.468   1.200   3.461  0.4990  0.5492 -0.6095
   19SAPS   H8X 2495   2.362   1.180   3.489  0.5883 -2.0907 -1.8836
   19SAPS   H8Y 2496   2.494   1.308   3.455  0.0652  0.7005  0.0944
   19SAPS   C39 2497   2.568   1.130   3.568  0.4183 -0.5644  0.5965
   19SAPS   H9X 2498   2.668   1.143   3.521  0.2453 -0.5107  0.2386
   19SAPS   H9Y 2499   2.552   1.020   3.563  1.4161 -0.6662 -0.9884
   19SAPS  C310 2500   2.546   1.180   3.707  0.4342 -0.1612 -0.7424
   19SAPS  H10X 2501   2.442   1.150   3.732 -0.7718  2.8436 -1.6702
   19SAPS  H10Y 2502   2.560   1.291   3.711 -0.7732 -0.0306  1.4702
   19SAPS  C311 2503   2.651   1.121   3.799 -0.3748  0.3347  0.3427
   19SAPS  H11X 2504   2.751   1.143   3.755  0.6186 -3.5308  0.2749
   19SAPS  H11Y 2505   2.626   1.016   3.774 -1.9582  0.9625 -0.9087
   19SAPS  C312 2506   2.635   1.153   3.945 -0.2668 -0.4557 -0.0907
   19SAPS  H12X 2507   2.532   1.122   3.975  0.1239 -3.1802 -1.1998
   19SAPS  H12Y 2508   2.650   1.260   3.971 -1.5418 -1.0014  3.4727
   19SAPS  C313 2509   2.712   1.063   4.041  0.5785 -0.2644  0.3107
   19SAPS  H13X 2510   2.821   1.067   4.023  0.7418 -0.5802  1.1893
   19SAPS  H13Y 2511   2.683   0.957   4.021  2.0010 -0.2255 -2.5538
   19SAPS  C314 2512   2.695   1.085   4.188  0.6000 -0.0193  0.2428
   19SAPS  H14X 2513   2.590   1.055   4.204  0.5075  0.9947  1.6975
   19SAPS  H14Y 2514   2.727   1.184   4.227  2.4032 -1.1900  1.8984
   19SAPS  C315 2515   2.775   0.986   4.275 -0.2234 -0.6600  0.4182
   19SAPS  H15X 2516   2.883   0.982   4.249 -0.3600  0.9339 -0.5639
   19SAPS  H15Y 2517   2.727   0.887   4.259  1.1272 -0.9438 -2.6169
   19SAPS  C316 2518   2.770   1.018   4.430 -0.0903  0.8440  0.2518
   19SAPS  H16X 2519   2.664   1.037   4.459 -0.6180 -1.4956  0.1009
   19SAPS  H16Y 2520   2.816   1.115   4.456 -0.2375  0.8900  0.3402
   19SAPS  C317 2521   2.820   0.894   4.504  0.2401 -0.0009 -0.4538
   19SAPS  H17X 2522   2.927   0.879   4.478  0.7359  2.3658 -0.0139
   19SAPS  H17Y 2523   2.773   0.802   4.462 -0.0610 -0.9329  1.8113
   19SAPS  C318 2524   2.798   0.907   4.655  0.6543  0.1144  0.2493
   19SAPS  H18X 2525   2.832   1.008   4.688 -0.2188  1.1656 -1.8749
   19SAPS  H18Y 2526   2.853   0.827   4.710 -1.2848 -1.6240 -0.2429
   19SAPS  H18Z 2527   2.691   0.895   4.683  0.4277  0.9741 -0.2236
   20SAPS     N 2528   3.458   0.438   2.067 -0.3496 -0.4479 -0.8585
   20SAPS   HN1 2529   3.454   0.523   2.008 -1.2916 -0.3399 -0.6523
   20SAPS   HN2 2530   3.377   0.426   2.130 -1.2011  0.0260 -1.8420
   20SAPS   HN3 2531   3.543   0.442   2.128 -0.1953 -0.8385 -1.0373
   20SAPS   C12 2532   3.475   0.311   1.986 -0.3025  0.1859 -0.0701
   20SAPS  H12A 2533   3.383   0.281   1.938 -0.2467 -3.7282  1.8036
   20SAPS   C13 2534   3.591   0.323   1.882 -0.4560 -1.4151 -0.0042
   20SAPS  O13A 2535   3.645   0.437   1.853 -0.4018  0.1106 -0.6687
   20SAPS  O13B 2536   3.613   0.235   1.803  0.5392  0.2574  0.3883
   20SAPS   C11 2537   3.511   0.199   2.097  0.2120  0.4742 -0.0053
   20SAPS  H11A 2538   3.613   0.224   2.134  0.2441 -0.2267  0.4030
   20SAPS  H11B 2539   3.511   0.101   2.044 -1.3540  1.2817 -1.5617
   20SAPS     P 2540   3.291   0.117   2.223 -0.4509 -0.0863 -0.0281
   20SAPS   O13 2541   3.180   0.197   2.257 -0.3468 -0.4166 -0.2006
   20SAPS   O14 2542   3.281   0.027   2.105  0.1692 -0.6910 -0.1276
   20SAPS   O12 2543   3.412   0.198   2.197 -0.3123  0.0800  0.0195
   20SAPS   O11 2544   3.337   0.029   2.351  0.3631  0.1602 -0.1776
   20SAPS    C1 2545   3.460   0.052   2.416  0.4007 -0.4773 -0.3710
   20SAPS    HA 2546   3.516  -0.038   2.450  0.6329 -0.5223 -0.8518
   20SAPS    HB 2547   3.542   0.092   2.352  0.9204 -1.5072 -0.3692
   20SAPS    C2 2548   3.435   0.145   2.541  0.5993 -0.7736  0.2947
   20SAPS    HS 2549   3.529   0.131   2.598 -0.0166 -2.2176  1.0045
   20SAPS   O21 2550   3.316   0.113   2.623 -0.2114  0.3866 -0.1443
   20SAPS   C21 2551   3.326  -0.002   2.681 -0.1019 -0.5297  0.9869
   20SAPS   O22 2552   3.422  -0.074   2.674  0.4471  0.3144 -0.1608
   20SAPS   C22 2553   3.202  -0.032   2.759  0.3990  0.7164  0.3679
   20SAPS   H2R 2554   3.142   0.059   2.784 -1.9129 -0.2416 -1.3344
   20SAPS   H2S 2555   3.138  -0.099   2.698 -0.6219  2.8604 -1.0871
   20SAPS    C3 2556   3.421   0.294   2.494  0.2247 -1.1426  0.1083
   20SAPS    HX 2557   3.322   0.312   2.446  1.7158 -1.1689 -3.2084
   20SAPS    HY 2558   3.493   0.324   2.416  0.9273 -2.9138  0.0292
   20SAPS   O31 2559   3.448   0.381   2.612  0.6798  0.0668 -0.0636
   20SAPS   C31 2560   3.565   0.400   2.638  0.4056 -0.4609  0.0117
   20SAPS   O32 2561   3.665   0.360   2.579  0.5568 -0.5165 -0.1196
   20SAPS   C32 2562   3.585   0.492   2.764  0.0636  0.1838  0.1876
   20SAPS   H2X 2563   3.522   0.441   2.839 -0.1280  0.6116  0.3215
   20SAPS   H2Y 2564   3.543   0.591   2.737 -0.5897 -0.6763 -2.2413
   20SAPS   C23 2565   3.242  -0.102   2.891  0.4272  0.0282 -0.1213
   20SAPS   H3R 2566   3.311  -0.046   2.958  0.8243  0.9442 -1.2766
   20SAPS   H3S 2567   3.299  -0.193   2.867 -0.6075 -0.9022  0.8117
   20SAPS   C24 2568   3.112  -0.156   2.962  0.5018  0.1853  0.9675
   20SAPS   H4R 2569   3.139  -0.238   3.032 -2.7480 -3.6497 -1.7794
   20SAPS   H4S 2570   3.043  -0.195   2.884  1.1948  2.2126 -0.7669
   20SAPS   C25 2571   3.027  -0.046   3.019  0.6637  0.8110 -0.7671
   20SAPS   H5R 2572   3.031   0.046   2.959  0.5765  0.6761 -0.9787
   20SAPS   C26 2573   2.994  -0.042   3.151 -0.4571  0.2063 -0.2058
   20SAPS   H6R 2574   2.929   0.038   3.190  0.8880  1.2084  0.0749
   20SAPS   C27 2575   3.035  -0.146   3.263  0.0930  0.2007  0.3967
   20SAPS   H7R 2576   3.110  -0.099   3.330  1.5697 -0.5616 -0.6864
   20SAPS   H7S 2577   3.068  -0.243   3.221  1.1103  0.2032  1.1608
   20SAPS   C28 2578   2.914  -0.174   3.351  0.1183 -0.2958  0.6791
   20SAPS   H8R 2579   2.848  -0.251   3.308 -0.7497  1.2327 -0.8822
   20SAPS   C29 2580   2.861  -0.102   3.454 -0.7847 -0.4956 -0.3249
   20SAPS   H9R 2581   2.774  -0.142   3.509  0.7170 -0.2897  2.3890
   20SAPS  C210 2582   2.924   0.019   3.528  0.2566  0.4053  0.5001
   20SAPS  H10R 2583   2.835   0.062   3.578 -0.1392  0.6837 -0.4319
   20SAPS  H10S 2584   2.949   0.092   3.448 -4.4058 -0.3894 -2.0230
   20SAPS  C211 2585   3.034   0.004   3.625  0.4323  0.5161 -1.1577
   20SAPS  H11R 2586   3.104  -0.076   3.595  2.0296  0.5219  2.0369
   20SAPS  C212 2587   3.057   0.075   3.737  0.4341  0.1647  0.1447
   20SAPS  H12R 2588   3.150   0.054   3.791 -0.4253 -1.2691  1.1361
   20SAPS  C213 2589   2.960   0.182   3.784  0.4991  0.6673 -0.1969
   20SAPS  H13R 2590   2.863   0.137   3.815  1.1493 -1.0745 -0.5876
   20SAPS  H13S 2591   2.931   0.242   3.696 -1.0158  0.9022  0.4385
   20SAPS  C214 2592   3.022   0.260   3.899  0.0671  0.0292  1.1992
   20SAPS  H14R 2593   3.097   0.332   3.865 -2.5488  1.3502 -2.3609
   20SAPS  C215 2594   2.994   0.267   4.027 -0.1426 -0.0566 -0.1456
   20SAPS  H15R 2595   3.048   0.328   4.101 -0.8285 -0.6974  0.8972
   20SAPS  C216 2596   2.895   0.190   4.106  0.3039 -0.6780 -0.2172
   20SAPS  H16R 2597   2.877   0.092   4.058  1.1500 -0.4372 -1.0564
   20SAPS  H16S 2598   2.799   0.246   4.109  0.8616  0.3204 -0.2598
   20SAPS  C217 2599   2.917   0.165   4.256  0.6099  0.4169  0.2567
   20SAPS  H17R 2600   3.024   0.139   4.274  0.4249 -1.6608 -1.3025
   20SAPS  H17S 2601   2.852   0.083   4.295 -0.9326  0.6284 -1.7369
   20SAPS  C218 2602   2.879   0.268   4.362  0.1881 -0.2185 -0.8712
   20SAPS  H18R 2603   2.774   0.302   4.354  0.8204  1.5906 -2.1648
   20SAPS  H18S 2604   2.934   0.362   4.341  1.3082 -0.2440  1.5082
   20SAPS  C219 2605   2.928   0.217   4.504  0.4300 -0.5058  0.4628
   20SAPS  H19R 2606   2.907   0.298   4.577  0.2071  1.7619 -1.9744
   20SAPS  H19S 2607   3.037   0.196   4.501  0.7208  0.6397  1.8586
   20SAPS  C220 2608   2.862   0.091   4.557 -0.5919  0.4090 -0.0117
   20SAPS  H20R 2609   2.903   0.056   4.654 -2.8371 -0.0451  0.8467
   20SAPS  H20S 2610   2.871   0.004   4.489  0.2600  1.9129 -1.9409
   20SAPS  H20T 2611   2.757   0.117   4.583 -0.1756  0.4585  1.7177
   20SAPS   C33 2612   3.731   0.498   2.807 -0.0339 -1.0733  0.4960
   20SAPS   H3X 2613   3.782   0.519   2.710 -2.5966  1.2168 -0.4983
   20SAPS   H3Y 2614   3.773   0.401   2.842 -0.1615 -1.1435  0.4558
   20SAPS   C34 2615   3.750   0.621   2.902 -0.1915  0.2434 -0.7417
   20SAPS   H4X 2616   3.672   0.605   2.980  0.3835  0.1433 -0.1780
   20SAPS   H4Y 2617   3.742   0.713   2.839 -1.3110 -0.7138 -2.0553
   20SAPS   C35 2618   3.880   0.626   2.980 -0.1510 -0.1040  0.1871
   20SAPS   H5X 2619   3.869   0.716   3.043 -2.3616 -0.1717 -0.0302
   20SAPS   H5Y 2620   3.962   0.630   2.905  0.7660 -1.1756  1.1082
   20SAPS   C36 2621   3.898   0.508   3.073 -0.3770 -0.3083  0.0561
   20SAPS   H6X 2622   4.004   0.511   3.106 -0.5470 -2.4737  0.9480
   20SAPS   H6Y 2623   3.881   0.412   3.019 -0.1409 -0.0849 -0.4190
   20SAPS   C37 2624   3.811   0.504   3.196 -0.7749  0.2911  0.3333
   20SAPS   H7X 2625   3.713   0.477   3.149 -0.4136 -0.7176  0.1305
   20SAPS   H7Y 2626   3.810   0.605   3.240 -1.0375 -0.7266  2.8030
   20SAPS   C38 2627   3.844   0.410   3.309 -1.2738  0.5550  0.3122
   20SAPS   H8X 2628   3.872   0.315   3.260  0.2327  0.3106  1.5860
   20SAPS   H8Y 2629   3.752   0.381   3.363 -0.0500 -1.1574  1.5636
   20SAPS   C39 2630   3.943   0.452   3.419  0.6591 -0.3187  0.1746
   20SAPS   H9X 2631   3.901   0.527   3.489  1.0529 -2.1096  2.4517
   20SAPS   H9Y 2632   4.025   0.514   3.378 -0.4734  1.9139  1.1248
   20SAPS  C310 2633   4.009   0.342   3.509 -0.2980  0.0204 -0.6404
   20SAPS  H10X 2634   4.031   0.254   3.444 -0.2526  1.0912 -2.1306
   20SAPS  H10Y 2635   3.933   0.313   3.585 -0.2817  0.7720 -0.3286
   20SAPS  C311 2636   4.136   0.387   3.576 -0.4677 -0.3688 -0.3729
   20SAPS  H11X 2637   4.220   0.421   3.511  0.7248  0.3219  1.4727
   20SAPS  H11Y 2638   4.182   0.305   3.634  1.0971  2.0689  2.0553
   20SAPS  C312 2639   4.113   0.496   3.681 -0.6271 -0.4549 -0.4624
   20SAPS  H12X 2640   4.044   0.574   3.643 -1.4159  0.8993  3.3113
   20SAPS  H12Y 2641   4.214   0.541   3.691 -0.0416 -1.4492 -1.6378
   20SAPS  C313 2642   4.046   0.450   3.811  1.0407 -0.7855  0.4957
   20SAPS  H13X 2643   4.101   0.367   3.860 -0.6572 -3.3125 -1.6685
   20SAPS  H13Y 2644   3.943   0.420   3.782  0.6121 -0.7172  1.8676
   20SAPS  C314 2645   4.022   0.557   3.921 -0.0922 -0.1095 -0.7430
   20SAPS  H14X 2646   3.936   0.620   3.889 -0.4231  0.0187  0.3605
   20SAPS  H14Y 2647   4.113   0.620   3.929  0.6801 -1.0972 -1.4642
   20SAPS  C315 2648   3.987   0.491   4.052 -0.6769  0.5180 -1.8474
   20SAPS  H15X 2649   4.063   0.412   4.068 -2.0403 -0.4339  0.3612
   20SAPS  H15Y 2650   3.887   0.443   4.048 -0.4048 -0.2218 -0.4430
   20SAPS  C316 2651   3.986   0.597   4.175 -0.4976  0.1688  0.0050
   20SAPS  H16X 2652   3.924   0.686   4.151  0.3491  0.2741 -2.0659
   20SAPS  H16Y 2653   4.092   0.626   4.192 -0.4825 -0.9452  2.0590
   20SAPS  C317 2654   3.935   0.525   4.302 -0.1724  0.4266  0.3303
   20SAPS  H17X 2655   3.829   0.505   4.277  0.6996 -2.1238 -1.8506
   20SAPS  H17Y 2656   3.935   0.595   4.388 -0.6888  0.5407  0.2427
   20SAPS  C318 2657   4.007   0.398   4.326  0.0807  0.0612  0.1124
   20SAPS  H18X 2658   3.991   0.369   4.431  0.6672  1.3804  0.5937
   20SAPS  H18Y 2659   4.117   0.412   4.312 -0.0766  1.9305  0.4289
   20SAPS  H18Z 2660   3.960   0.309   4.280 -2.3409  1.1234  0.3894
   21CHL1    C3 2661   3.555   5.354   5.913  0.6751 -0.0708  0.9021
   21CHL1    H3 2662   3.540   5.458   5.876  2.3964 -0.5378 -1.2771
   21CHL1    O3 2663   3.546   5.363   6.049  0.3831  0.4042  0.0878
   21CHL1   H3' 2664   3.460   5.326   6.066  1.1681 -1.7395 -0.2582
   21CHL1    C4 2665   3.454   5.245   5.866 -0.7672 -0.5507  0.3364
   21CHL1   H4A 2666   3.488   5.148   5.908  1.8820  0.1282 -0.0848
   21CHL1   H4B 2667   3.351   5.279   5.893 -1.1776 -1.6858  0.2613
   21CHL1    C5 2668   3.461   5.245   5.715  0.8319 -0.1246  0.0843
   21CHL1    C6 2669   3.348   5.269   5.641 -0.1176  0.6173  0.3348
   21CHL1    H6 2670   3.256   5.298   5.693 -0.6137 -1.7181  0.8560
   21CHL1    C7 2671   3.344   5.247   5.489 -0.2395 -0.7674 -0.0602
   21CHL1   H7A 2672   3.257   5.181   5.467 -0.7215  0.3396 -1.6314
   21CHL1   H7B 2673   3.322   5.349   5.449  0.5508  0.0305  1.4238
   21CHL1    C8 2674   3.470   5.183   5.436  0.0716  0.1954  0.6642
   21CHL1    H8 2675   3.464   5.074   5.456  2.1689  0.1358  1.2316
   21CHL1   C14 2676   3.485   5.220   5.284 -0.4191 -0.3050  0.1724
   21CHL1   H14 2677   3.492   5.331   5.284  1.4729 -0.3891 -0.8035
   21CHL1   C15 2678   3.366   5.194   5.191 -0.2394 -0.1607 -0.0257
   21CHL1  H15A 2679   3.324   5.094   5.215  2.3517 -1.7062 -1.5168
   21CHL1  H15B 2680   3.284   5.269   5.188 -0.9630 -0.9772 -1.9491
   21CHL1   C16 2681   3.423   5.187   5.049  0.0815 -0.4267  0.0135
   21CHL1  H16A 2682   3.389   5.087   5.015 -0.4295 -1.2980  2.8577
   21CHL1  H16B 2683   3.380   5.277   4.999  2.2802  0.6613 -0.0075
   21CHL1   C17 2684   3.574   5.200   5.063 -0.8836  0.2098 -0.3190
   21CHL1   H17 2685   3.594   5.306   5.039  0.9440 -0.6384 -3.0220
   21CHL1   C13 2686   3.603   5.164   5.215 -0.5419  0.4175 -0.7122
   21CHL1   C18 2687   3.597   5.009   5.234  0.0980 -0.6128  1.0411
   21CHL1  H18A 2688   3.586   4.988   5.342  0.4016  0.5633  1.3107
   21CHL1  H18B 2689   3.504   4.969   5.188 -0.6535  1.6736  0.4574
   21CHL1  H18C 2690   3.687   4.951   5.202  0.2260 -0.9817  2.0397
   21CHL1   C12 2691   3.723   5.231   5.278 -0.5699  0.6165  0.1139
   21CHL1  H12A 2692   3.808   5.182   5.227 -0.2435  3.5899 -2.4697
   21CHL1  H12B 2693   3.737   5.336   5.244  0.4328  0.3296 -0.3960
   21CHL1   C11 2694   3.735   5.202   5.426 -0.1085 -0.5494 -0.1622
   21CHL1  H11A 2695   3.763   5.095   5.436 -0.6117 -0.8204 -1.5302
   21CHL1  H11B 2696   3.819   5.265   5.464 -1.0544  0.7712 -0.1950
   21CHL1    C9 2697   3.603   5.241   5.502 -0.0412 -0.6669  0.4484
   21CHL1    H9 2698   3.590   5.349   5.477 -1.3514 -1.1921 -1.3088
   21CHL1   C10 2699   3.601   5.212   5.655  0.6275 -0.3820  0.5974
   21CHL1   C19 2700   3.634   5.057   5.692  0.4282 -0.9641  0.7228
   21CHL1  H19A 2701   3.558   4.991   5.647 -1.3020  0.6748  1.1342
   21CHL1  H19B 2702   3.735   5.025   5.658  0.1836 -0.3279 -0.6851
   21CHL1  H19C 2703   3.631   5.059   5.803  1.3290 -1.3735  0.7682
   21CHL1    C1 2704   3.707   5.293   5.721 -0.1288 -0.0739 -0.1527
   21CHL1   H1A 2705   3.808   5.250   5.702  0.6797  0.5934  2.2210
   21CHL1   H1B 2706   3.694   5.392   5.671 -0.7226 -0.3854 -0.6250
   21CHL1    C2 2707   3.691   5.315   5.873 -0.6914 -0.3758 -0.0667
   21CHL1   H2A 2708   3.752   5.404   5.899 -1.4696  1.1242 -3.0249
   21CHL1   H2B 2709   3.727   5.225   5.929 -0.9757 -1.4961 -1.6242
   21CHL1   C20 2710   3.645   5.118   4.954 -0.4703 -0.1222 -0.5540
   21CHL1   H20 2711   3.630   5.009   4.968  0.0677 -0.0712  0.4545
   21CHL1   C21 2712   3.806   5.143   4.956 -0.0483 -0.2305 -0.3579
   21CHL1  H21A 2713   3.816   5.253   4.969 -2.7762  0.1884 -1.3067
   21CHL1  H21B 2714   3.860   5.115   4.863 -0.8010 -1.9315 -0.3191
   21CHL1  H21C 2715   3.845   5.090   5.046 -0.6470 -0.2737 -0.1183
   21CHL1   C22 2716   3.594   5.158   4.813  0.3636  0.1058 -0.0631
   21CHL1  H22A 2717   3.657   5.097   4.744  2.3715  1.2509  0.6969
   21CHL1  H22B 2718   3.489   5.122   4.803  1.2000 -3.2143  1.7289
   21CHL1   C23 2719   3.619   5.304   4.766 -0.4232 -0.4702 -0.2182
   21CHL1  H23A 2720   3.559   5.366   4.835 -0.1654 -0.0547 -0.3645
   21CHL1  H23B 2721   3.729   5.320   4.764 -0.5422  0.5296  0.6238
   21CHL1   C24 2722   3.568   5.332   4.622 -0.4242  0.4484 -0.2016
   21CHL1  H24A 2723   3.657   5.350   4.557  1.7864 -1.6265  2.0316
   21CHL1  H24B 2724   3.522   5.236   4.590 -1.0599  0.6995 -0.0487
   21CHL1   C25 2725   3.456   5.432   4.599  0.4065 -0.2878  0.4476
   21CHL1   H25 2726   3.386   5.427   4.685 -2.2816  0.7650 -1.5132
   21CHL1   C26 2727   3.493   5.581   4.608 -0.5136 -1.0315 -0.0608
   21CHL1  H26A 2728   3.540   5.609   4.511  0.1847 -0.7454  0.3582
   21CHL1  H26B 2729   3.403   5.646   4.608 -0.1650 -0.5423  1.1310
   21CHL1  H26C 2730   3.565   5.599   4.690  0.6775 -2.0494 -0.8398
   21CHL1   C27 2731   3.367   5.394   4.476 -0.3532 -0.4947 -0.0227
   21CHL1  H27A 2732   3.281   5.464   4.467  0.7193  0.7189 -1.2082
   21CHL1  H27B 2733   3.424   5.387   4.380 -1.1615  0.5380 -0.6030
   21CHL1  H27C 2734   3.334   5.289   4.491 -0.6746 -0.1411  1.9161
   22CHL1    C3 2735   0.307   2.819   5.980  0.6621 -0.3306 -0.5383
   22CHL1    H3 2736   0.340   2.925   5.977 -0.8156  0.1864  0.5509
   22CHL1    O3 2737   0.294   2.769   6.113 -0.0239  0.0352 -0.9592
   22CHL1   H3' 2738   0.379   2.787   6.154 -0.0154 -1.2181 -0.3799
   22CHL1    C4 2739   0.170   2.813   5.917  0.6512 -1.0700 -0.6054
   22CHL1   H4A 2740   0.119   2.721   5.955 -0.2701  0.6853  2.8479
   22CHL1   H4B 2741   0.110   2.891   5.969 -0.2171 -2.1544  0.0840
   22CHL1    C5 2742   0.168   2.836   5.765  0.5152  1.0253  0.8258
   22CHL1    C6 2743   0.104   2.942   5.710  0.2630  0.1995 -0.1719
   22CHL1    H6 2744   0.038   3.006   5.771 -0.5306  0.8912 -1.7245
   22CHL1    C7 2745   0.092   2.959   5.562 -0.1347  0.0238  0.0439
   22CHL1   H7A 2746  -0.015   2.969   5.534  0.4910  3.4744 -1.4946
   22CHL1   H7B 2747   0.142   3.054   5.535 -2.5274  1.1048 -0.8452
   22CHL1    C8 2748   0.146   2.836   5.478  0.1928 -0.0448 -0.3690
   22CHL1    H8 2749   0.062   2.762   5.475  0.5462 -0.4857  0.3296
   22CHL1   C14 2750   0.172   2.876   5.325  1.1424 -0.7587 -0.2207
   22CHL1   H14 2751   0.259   2.945   5.328  1.7247 -1.4706 -0.0890
   22CHL1   C15 2752   0.064   2.945   5.246  0.3397  0.3719 -0.1497
   22CHL1  H15A 2753  -0.036   2.901   5.266 -0.4178  1.8776 -0.4873
   22CHL1  H15B 2754   0.054   3.054   5.265  0.9162  0.1451  1.6942
   22CHL1   C16 2755   0.114   2.916   5.099  0.3711 -0.0764  0.4395
   22CHL1  H16A 2756   0.052   2.848   5.036  1.1801  0.4575 -0.9684
   22CHL1  H16B 2757   0.138   3.009   5.044  0.1889  0.4452  1.2237
   22CHL1   C17 2758   0.247   2.833   5.111  0.7434 -0.6177 -0.1671
   22CHL1   H17 2759   0.324   2.909   5.133 -1.8763  2.0583  0.4021
   22CHL1   C13 2760   0.225   2.759   5.244 -0.3662 -0.4521 -0.0241
   22CHL1   C18 2761   0.117   2.656   5.228  0.4428 -0.0704 -0.3447
   22CHL1  H18A 2762   0.019   2.692   5.190 -0.1082  0.9997  1.9142
   22CHL1  H18B 2763   0.153   2.563   5.178 -0.7578 -0.7524  0.0075
   22CHL1  H18C 2764   0.084   2.625   5.330  0.9351 -0.7398 -0.3776
   22CHL1   C12 2765   0.347   2.706   5.309  0.2871  1.1935 -0.1886
   22CHL1  H12A 2766   0.386   2.614   5.259  1.4101  0.5548  1.7505
   22CHL1  H12B 2767   0.438   2.770   5.310 -0.2190  1.9277  1.5920
   22CHL1   C11 2768   0.323   2.658   5.452  0.2483 -0.9097 -0.1179
   22CHL1  H11A 2769   0.260   2.567   5.452  0.8459 -1.3287  0.1762
   22CHL1  H11B 2770   0.413   2.612   5.496  0.4230 -1.0913 -0.6539
   22CHL1    C9 2771   0.273   2.775   5.540  0.4370 -0.0267 -0.3912
   22CHL1    H9 2772   0.350   2.855   5.535  1.2624 -0.8253 -0.7682
   22CHL1   C10 2773   0.265   2.739   5.696 -0.6365 -0.0054  0.5624
   22CHL1   C19 2774   0.202   2.596   5.704 -0.2110 -0.4919 -0.2709
   22CHL1  H19A 2775   0.168   2.563   5.804 -1.0798 -0.4608 -0.5439
   22CHL1  H19B 2776   0.121   2.600   5.627 -1.0547  1.6259  0.6577
   22CHL1  H19C 2777   0.271   2.515   5.674  0.1063 -1.1113  2.0195
   22CHL1    C1 2778   0.411   2.748   5.760 -0.3614 -0.1935  0.5298
   22CHL1   H1A 2779   0.483   2.673   5.722 -1.2304 -1.4441  1.2478
   22CHL1   H1B 2780   0.452   2.848   5.738  0.7899 -0.3808  1.7234
   22CHL1    C2 2781   0.407   2.730   5.912 -0.1132  0.2695 -0.3974
   22CHL1   H2A 2782   0.510   2.754   5.946 -0.1176  2.3449 -1.6671
   22CHL1   H2B 2783   0.392   2.622   5.934 -0.8322  0.3948 -0.2383
   22CHL1   C20 2784   0.302   2.754   4.991 -0.3968 -0.5335  0.2104
   22CHL1   H20 2785   0.380   2.685   5.032  0.0718 -0.2961 -0.2771
   22CHL1   C21 2786   0.377   2.860   4.902 -0.4126  0.4503 -0.5214
   22CHL1  H21A 2787   0.316   2.930   4.840  2.1640  2.5175 -0.8694
   22CHL1  H21B 2788   0.429   2.802   4.823 -0.8154 -1.0172  0.2548
   22CHL1  H21C 2789   0.445   2.922   4.964 -0.6230  0.2096 -0.0451
   22CHL1   C22 2790   0.206   2.671   4.909  0.4732  0.4299 -0.3973
   22CHL1  H22A 2791   0.174   2.589   4.977 -0.3886 -0.0694 -1.3680
   22CHL1  H22B 2792   0.118   2.736   4.891  0.2808  0.2996  0.0723
   22CHL1   C23 2793   0.255   2.595   4.786  0.3371  0.3020  0.3075
   22CHL1  H23A 2794   0.171   2.536   4.743  1.6004 -1.6614  0.4282
   22CHL1  H23B 2795   0.286   2.670   4.711  0.3775  0.5429  0.5635
   22CHL1   C24 2796   0.378   2.502   4.804  0.5699 -0.0906 -0.1575
   22CHL1  H24A 2797   0.462   2.560   4.849  0.2013 -0.5714  1.1796
   22CHL1  H24B 2798   0.351   2.425   4.879 -0.3042 -0.0492 -0.4205
   22CHL1   C25 2799   0.439   2.429   4.682  0.0042 -0.0958  0.2522
   22CHL1   H25 2800   0.538   2.388   4.712  0.6946  0.8947 -0.6115
   22CHL1   C26 2801   0.351   2.302   4.644 -0.1132 -0.0458  0.5444
   22CHL1  H26A 2802   0.352   2.236   4.733 -0.8097 -0.1475  0.4822
   22CHL1  H26B 2803   0.249   2.344   4.632  0.0342  0.6944  1.7559
   22CHL1  H26C 2804   0.391   2.245   4.557  2.4436  1.4542  0.6490
   22CHL1   C27 2805   0.459   2.521   4.558  0.7020  0.1300  0.7664
   22CHL1  H27A 2806   0.359   2.542   4.513  1.5533 -1.2137 -1.9835
   22CHL1  H27B 2807   0.503   2.615   4.597  0.3281  1.1422 -1.1514
   22CHL1  H27C 2808   0.524   2.477   4.480 -0.0591 -0.6992  0.5858
   23CHL1    C3 2809   3.205   4.434   5.768  0.4789  0.4241  0.1141
   23CHL1    H3 2810   3.254   4.525   5.727  2.1390 -0.6224 -0.3063
   23CHL1    O3 2811   3.213   4.431   5.910  0.2656  0.0083 -0.3538
   23CHL1   H3' 2812   3.122   4.416   5.937  0.1437 -0.5687 -1.0473
   23CHL1    C4 2813   3.053   4.448   5.720 -0.0699  0.3151  0.9521
   23CHL1   H4A 2814   2.996   4.369   5.773 -1.5850 -0.5716 -1.8019
   23CHL1   H4B 2815   3.019   4.546   5.760  1.0142  2.5292 -2.9282
   23CHL1    C5 2816   3.050   4.431   5.570  0.5504 -0.6625 -0.0549
   23CHL1    C6 2817   2.994   4.532   5.503 -0.0477  0.3784 -0.5072
   23CHL1    H6 2818   2.964   4.621   5.559 -0.3654  0.5529 -0.9453
   23CHL1    C7 2819   2.965   4.528   5.354 -0.1656 -0.1147 -0.1376
   23CHL1   H7A 2820   2.856   4.541   5.339 -0.4291 -1.5195  0.4251
   23CHL1   H7B 2821   3.031   4.602   5.303 -2.5231  2.4775  0.3026
   23CHL1    C8 2822   2.992   4.396   5.284 -0.8749  1.2199  0.1034
   23CHL1    H8 2823   2.903   4.330   5.282  1.6209 -2.4276 -1.7041
   23CHL1   C14 2824   3.031   4.416   5.136  0.3854 -0.4586  0.3313
   23CHL1   H14 2825   3.129   4.468   5.134  0.0516  0.2066  0.8878
   23CHL1   C15 2826   2.930   4.498   5.050 -0.5611  0.7346 -0.3766
   23CHL1  H15A 2827   2.832   4.448   5.069  0.8076 -1.7940  0.5244
   23CHL1  H15B 2828   2.924   4.603   5.084  0.2780  0.7527 -0.2614
   23CHL1   C16 2829   2.984   4.468   4.905  0.0381 -0.0005 -0.0347
   23CHL1  H16A 2830   2.893   4.441   4.846 -0.9375 -2.9726  2.5534
   23CHL1  H16B 2831   3.044   4.555   4.871 -0.7550  0.1541 -1.1165
   23CHL1   C17 2832   3.076   4.346   4.916  0.4362 -0.0552 -0.2766
   23CHL1   H17 2833   3.177   4.391   4.925  0.8090 -1.1902  1.8994
   23CHL1   C13 2834   3.057   4.282   5.055  0.1925  0.2366 -0.4572
   23CHL1   C18 2835   2.927   4.190   5.057 -0.2554 -0.2187 -1.0410
   23CHL1  H18A 2836   2.899   4.164   5.162 -3.5337 -0.2003 -1.7922
   23CHL1  H18B 2837   2.841   4.238   5.007 -2.4023 -1.0549  1.5550
   23CHL1  H18C 2838   2.959   4.098   5.004 -1.0171 -0.5681 -0.9115
   23CHL1   C12 2839   3.171   4.205   5.127  0.4032 -0.6781  0.8223
   23CHL1  H12A 2840   3.180   4.113   5.065  0.6381  0.2794 -0.6168
   23CHL1  H12B 2841   3.261   4.269   5.117 -1.6670  2.0780 -2.9149
   23CHL1   C11 2842   3.144   4.180   5.280 -0.0471 -0.3281  0.2881
   23CHL1  H11A 2843   3.057   4.111   5.293  1.0262 -2.0214 -0.9751
   23CHL1  H11B 2844   3.236   4.128   5.314  0.2486 -0.9339 -1.3088
   23CHL1    C9 2845   3.114   4.316   5.354 -0.4450 -0.3214 -0.3915
   23CHL1    H9 2846   3.199   4.382   5.327  0.2754 -0.5364  1.2267
   23CHL1   C10 2847   3.108   4.304   5.511  0.6718  0.0999  0.4715
   23CHL1   C19 2848   3.012   4.189   5.566  0.2014  0.8091  0.3210
   23CHL1  H19A 2849   3.056   4.093   5.531  1.0841  1.4758 -0.4599
   23CHL1  H19B 2850   3.005   4.194   5.677  0.0225  3.6569  0.2648
   23CHL1  H19C 2851   2.904   4.199   5.539  0.7738 -2.8030 -4.6642
   23CHL1    C1 2852   3.252   4.296   5.560  0.2757  0.0514 -0.3405
   23CHL1   H1A 2853   3.300   4.201   5.530  0.0678  0.0604 -0.7094
   23CHL1   H1B 2854   3.312   4.376   5.512  1.0862 -0.3648 -0.0407
   23CHL1    C2 2855   3.268   4.308   5.709 -0.0947 -0.1562  0.1323
   23CHL1   H2A 2856   3.378   4.314   5.726 -0.1561  1.1474  0.1626
   23CHL1   H2B 2857   3.227   4.215   5.755  1.2672 -0.3571  1.0245
   23CHL1   C20 2858   3.070   4.272   4.782  0.4664 -0.4268  0.0553
   23CHL1   H20 2859   2.967   4.234   4.768  0.8753 -3.0601  2.9675
   23CHL1   C21 2860   3.161   4.152   4.788 -0.2099  0.1009 -0.9185
   23CHL1  H21A 2861   3.131   4.078   4.865  1.3240  0.1451 -0.2531
   23CHL1  H21B 2862   3.264   4.184   4.813 -0.8074  1.4975 -0.1695
   23CHL1  H21C 2863   3.145   4.090   4.696 -1.7006 -1.9535  0.6163
   23CHL1   C22 2864   3.127   4.355   4.655  0.4102 -0.6755 -0.3879
   23CHL1  H22A 2865   3.112   4.464   4.649  2.3334 -0.4161 -1.6337
   23CHL1  H22B 2866   3.237   4.341   4.646  0.3917 -0.6710 -0.6178
   23CHL1   C23 2867   3.047   4.304   4.530 -0.2385  0.6438  0.1349
   23CHL1  H23A 2868   3.093   4.206   4.503 -0.3848  0.2915  1.1489
   23CHL1  H23B 2869   2.941   4.301   4.562 -0.9425 -0.5646 -2.0825
   23CHL1   C24 2870   3.060   4.391   4.405  0.2571 -0.6604  0.4003
   23CHL1  H24A 2871   3.006   4.482   4.438 -1.2668 -1.4095  0.0932
   23CHL1  H24B 2872   3.165   4.419   4.387  0.7250 -1.8095  1.2027
   23CHL1   C25 2873   2.986   4.334   4.281  0.0869  0.2138  0.3051
   23CHL1   H25 2874   3.050   4.253   4.239  0.1378  0.5961 -0.3677
   23CHL1   C26 2875   2.851   4.273   4.324 -0.3457 -0.4748 -0.8520
   23CHL1  H26A 2876   2.782   4.243   4.242 -0.6469 -0.4378 -0.6117
   23CHL1  H26B 2877   2.869   4.179   4.379 -3.3148 -0.8501 -0.3653
   23CHL1  H26C 2878   2.802   4.347   4.389 -0.7831 -0.3134 -1.3581
   23CHL1   C27 2879   2.966   4.429   4.165  0.1000  0.2610 -0.4095
   23CHL1  H27A 2880   2.909   4.377   4.085 -1.2439  2.5735 -1.0761
   23CHL1  H27B 2881   2.906   4.517   4.197  1.5893 -0.1264  4.1069
   23CHL1  H27C 2882   3.069   4.453   4.134  0.2510  0.2764  0.0949
   24CHL1    C3 2883   3.105   6.160   5.840 -0.2619  0.4385 -0.7615
   24CHL1    H3 2884   3.176   6.245   5.832  0.8249 -0.4040 -0.3470
   24CHL1    O3 2885   3.091   6.117   5.974 -0.0362  0.0290 -0.2110
   24CHL1   H3' 2886   3.175   6.078   6.000  0.6733  0.1818 -2.1230
   24CHL1    C4 2887   2.964   6.196   5.778 -0.8547  0.4474  0.2720
   24CHL1   H4A 2888   2.902   6.106   5.797 -0.8698  0.5932  0.9442
   24CHL1   H4B 2889   2.913   6.265   5.849  1.6863  2.5244  0.2255
   24CHL1    C5 2890   2.969   6.227   5.627 -0.3722  0.4727  0.6315
   24CHL1    C6 2891   2.926   6.347   5.579 -0.1274 -0.4121 -0.1860
   24CHL1    H6 2892   2.877   6.425   5.639  1.9772  1.9150 -1.2986
   24CHL1    C7 2893   2.921   6.385   5.430  0.3187 -0.8009  0.6657
   24CHL1   H7A 2894   2.826   6.439   5.409 -0.3592 -0.8220  3.3073
   24CHL1   H7B 2895   3.010   6.446   5.404 -1.0682  0.6620 -0.9447
   24CHL1    C8 2896   2.943   6.259   5.344  0.1251 -0.0568  0.8120
   24CHL1    H8 2897   2.849   6.199   5.339  0.7756 -1.0306 -0.5618
   24CHL1   C14 2898   2.974   6.304   5.199 -0.1175  0.2248 -0.4271
   24CHL1   H14 2899   3.077   6.344   5.209  0.9886 -2.1737 -1.4462
   24CHL1   C15 2900   2.887   6.407   5.132 -0.3044  0.0977 -0.2032
   24CHL1  H15A 2901   2.779   6.393   5.157  0.1056 -0.3643  1.4527
   24CHL1  H15B 2902   2.916   6.504   5.178 -0.6900  0.3393 -0.4637
   24CHL1   C16 2903   2.917   6.390   4.980 -0.3515 -0.8481  0.4905
   24CHL1  H16A 2904   2.820   6.365   4.930 -0.4803 -1.5199  1.0555
   24CHL1  H16B 2905   2.964   6.479   4.933  1.5553 -2.9945 -1.9673
   24CHL1   C17 2906   3.003   6.258   4.973 -0.0917  0.6968 -0.5722
   24CHL1   H17 2907   3.108   6.290   4.992 -0.1593 -0.1477  1.5101
   24CHL1   C13 2908   2.978   6.186   5.107 -0.4502 -0.0068 -0.4959
   24CHL1   C18 2909   2.843   6.109   5.093  0.2832  0.0030  0.1860
   24CHL1  H18A 2910   2.792   6.067   5.182 -1.6609  0.3804 -0.6931
   24CHL1  H18B 2911   2.766   6.167   5.037 -0.9574 -1.2762  0.5134
   24CHL1  H18C 2912   2.847   6.014   5.035 -0.4161  0.2656 -0.3061
   24CHL1   C12 2913   3.093   6.101   5.153 -0.6976 -0.1842 -0.2425
   24CHL1  H12A 2914   3.089   6.010   5.089 -0.2351  0.2289 -0.8740
   24CHL1  H12B 2915   3.189   6.154   5.135 -2.3448  3.6021  1.1492
   24CHL1   C11 2916   3.074   6.046   5.300  0.2825 -0.0385  0.0722
   24CHL1  H11A 2917   2.984   5.981   5.288 -0.3743  1.0916 -1.6123
   24CHL1  H11B 2918   3.164   5.987   5.327  1.2441  0.2885 -2.1375
   24CHL1    C9 2919   3.052   6.166   5.396 -0.1395  0.3600 -0.7503
   24CHL1    H9 2920   3.145   6.227   5.396 -0.3310  0.6608  0.4701
   24CHL1   C10 2921   3.034   6.119   5.541 -0.3776  0.0595 -0.1031
   24CHL1   C19 2922   2.948   5.990   5.549  0.8673 -0.3597 -0.1634
   24CHL1  H19A 2923   2.849   6.019   5.507 -0.0090  0.0440  2.0423
   24CHL1  H19B 2924   2.980   5.904   5.487  1.4372 -0.4563  0.2544
   24CHL1  H19C 2925   2.924   5.943   5.647  1.2783 -0.8935 -0.3100
   24CHL1    C1 2926   3.178   6.085   5.608  0.2659  0.3987 -0.1592
   24CHL1   H1A 2927   3.233   5.997   5.570 -1.7068 -1.0966  0.2789
   24CHL1   H1B 2928   3.238   6.178   5.599 -2.3957  2.7258  3.3178
   24CHL1    C2 2929   3.172   6.052   5.757  0.3344 -0.9615  0.4535
   24CHL1   H2A 2930   3.279   6.044   5.786  0.4253 -0.0496  0.3964
   24CHL1   H2B 2931   3.108   5.961   5.765 -0.2132 -0.9569 -2.7974
   24CHL1   C20 2932   3.011   6.177   4.847  0.1565 -0.0009  0.1101
   24CHL1   H20 2933   3.037   6.075   4.882  1.7233  0.2757 -0.1776
   24CHL1   C21 2934   3.134   6.228   4.761  0.3231 -0.0698 -0.2598
   24CHL1  H21A 2935   3.231   6.235   4.814  0.7593 -0.4556 -0.9932
   24CHL1  H21B 2936   3.111   6.325   4.711  1.1179  0.3549  0.1700
   24CHL1  H21C 2937   3.153   6.155   4.680  0.1414 -2.2528  1.5840
   24CHL1   C22 2938   2.886   6.162   4.758  0.8930 -0.3080  0.4418
   24CHL1  H22A 2939   2.793   6.139   4.815  0.3966  1.1260  0.2672
   24CHL1  H22B 2940   2.869   6.255   4.699  0.5444 -0.4577  0.2983
   24CHL1   C23 2941   2.914   6.048   4.657  0.6169  0.6237 -0.2327
   24CHL1  H23A 2942   2.984   6.092   4.583 -0.7306  2.6141 -0.3916
   24CHL1  H23B 2943   2.956   5.965   4.720 -1.7422 -0.1236  0.4420
   24CHL1   C24 2944   2.788   5.998   4.579 -0.9606  0.5457 -0.9191
   24CHL1  H24A 2945   2.806   5.903   4.526 -0.5737 -0.2988  0.6588
   24CHL1  H24B 2946   2.701   5.986   4.648 -2.1120 -1.5925 -2.6169
   24CHL1   C25 2947   2.737   6.107   4.481 -0.0062  0.1703  0.3126
   24CHL1   H25 2948   2.820   6.172   4.445  0.0759  0.0302  0.2495
   24CHL1   C26 2949   2.686   6.035   4.353 -0.0582  0.1806  1.0377
   24CHL1  H26A 2950   2.765   5.970   4.309 -1.3749 -0.0100 -1.1688
   24CHL1  H26B 2951   2.606   5.962   4.379  0.1281 -1.1599 -1.7713
   24CHL1  H26C 2952   2.651   6.101   4.272  0.6234 -1.1472 -0.3903
   24CHL1   C27 2953   2.618   6.194   4.550  0.3089 -0.3718  0.0402
   24CHL1  H27A 2954   2.582   6.272   4.479 -1.9914 -2.6403 -1.4997
   24CHL1  H27B 2955   2.541   6.125   4.590 -0.1687 -1.1367 -2.0615
   24CHL1  H27C 2956   2.660   6.222   4.649  0.9809 -1.9799  0.2290
   25CHL1    C3 2957   6.533   6.382   6.295 -0.6544  0.1687 -0.4883
   25CHL1    H3 2958   6.574   6.292   6.346  0.1156  1.3833  1.1478
   25CHL1    O3 2959   6.470   6.449   6.404  0.4676  0.0032 -0.2929
   25CHL1   H3' 2960   6.473   6.542   6.383 -2.1812  0.4178  0.7457
   25CHL1    C4 2961   6.652   6.458   6.250  0.2995 -0.5268 -0.1617
   25CHL1   H4A 2962   6.621   6.559   6.216  0.7385  0.0717  1.1554
   25CHL1   H4B 2963   6.719   6.483   6.336 -2.8920  1.9119  1.8216
   25CHL1    C5 2964   6.712   6.397   6.124  0.1865  0.2556  0.5358
   25CHL1    C6 2965   6.841   6.354   6.114  0.1635  0.6630  0.1923
   25CHL1    H6 2966   6.904   6.356   6.204  0.0957 -1.6348  0.3502
   25CHL1    C7 2967   6.900   6.303   5.993 -0.0297  0.0951  0.6580
   25CHL1   H7A 2968   7.003   6.345   5.988 -0.7462  2.6063  3.7343
   25CHL1   H7B 2969   6.891   6.193   6.000  0.3968  0.1347  2.0144
   25CHL1    C8 2970   6.818   6.339   5.871 -0.1549  0.5520  0.2619
   25CHL1    H8 2971   6.836   6.447   5.854 -1.3352  1.0412  1.8620
   25CHL1   C14 2972   6.870   6.261   5.748 -0.9062 -0.4878 -0.2938
   25CHL1   H14 2973   6.846   6.153   5.753 -0.9863 -0.4741 -0.3692
   25CHL1   C15 2974   7.025   6.281   5.712  0.2977  0.3966 -0.0850
   25CHL1  H15A 2975   7.041   6.388   5.737 -1.5025  0.6628  0.0795
   25CHL1  H15B 2976   7.085   6.214   5.777 -2.6863 -2.5775 -0.0962
   25CHL1   C16 2977   7.031   6.249   5.563 -0.0285 -0.0461  0.1253
   25CHL1  H16A 2978   7.077   6.334   5.510  0.5264 -0.0038  0.6546
   25CHL1  H16B 2979   7.091   6.157   5.547 -1.2428 -1.0044  0.8594
   25CHL1   C17 2980   6.882   6.225   5.516  0.5210  0.4053 -0.2786
   25CHL1   H17 2981   6.864   6.116   5.525 -0.6275  0.4018 -2.0250
   25CHL1   C13 2982   6.798   6.296   5.619  0.6234  0.6737  0.2052
   25CHL1   C18 2983   6.802   6.451   5.587 -0.0503  0.3576  0.4757
   25CHL1  H18A 2984   6.742   6.469   5.495  1.8152  2.4194 -0.4047
   25CHL1  H18B 2985   6.749   6.513   5.663 -1.5774  0.7219 -0.8197
   25CHL1  H18C 2986   6.903   6.490   5.566 -0.9997  3.2797  0.9149
   25CHL1   C12 2987   6.656   6.246   5.641  0.4118 -0.6568 -0.2435
   25CHL1  H12A 2988   6.592   6.265   5.552 -1.2332 -1.0990  0.8040
   25CHL1  H12B 2989   6.674   6.137   5.656  0.2146 -0.6919 -0.2532
   25CHL1   C11 2990   6.590   6.303   5.763 -0.3956 -0.3979  0.9495
   25CHL1  H11A 2991   6.567   6.408   5.736 -1.0765 -0.4053  1.4509
   25CHL1  H11B 2992   6.488   6.258   5.768 -1.0975  1.1780  1.2623
   25CHL1    C9 2993   6.673   6.298   5.895  0.9546  0.2394  0.4023
   25CHL1    H9 2994   6.676   6.195   5.934 -3.2218 -0.7097 -1.2136
   25CHL1   C10 2995   6.614   6.380   6.012 -0.2778  0.1271 -0.1204
   25CHL1   C19 2996   6.570   6.521   5.969 -0.1436 -0.6921  0.1788
   25CHL1  H19A 2997   6.512   6.518   5.875 -1.2418  1.0173  0.7616
   25CHL1  H19B 2998   6.514   6.576   6.047 -0.6057  0.2228 -0.7776
   25CHL1  H19C 2999   6.660   6.583   5.944  0.2175 -1.0060  0.6762
   25CHL1    C1 3000   6.499   6.289   6.069 -0.0630  0.0723  0.6771
   25CHL1   H1A 3001   6.430   6.267   5.985 -1.1053 -0.2185  1.5896
   25CHL1   H1B 3002   6.545   6.190   6.087  0.7326  0.1492 -0.7523
   25CHL1    C2 3003   6.431   6.344   6.192 -0.6190  1.0336 -0.4500
   25CHL1   H2A 3004   6.361   6.266   6.230  0.3830  0.0453 -0.5662
   25CHL1   H2B 3005   6.371   6.431   6.159 -2.2020  0.1713  0.0644
   25CHL1   C20 3006   6.857   6.267   5.369  0.7009 -0.4021 -0.5568
   25CHL1   H20 3007   6.880   6.374   5.355  0.1696 -0.2716 -0.4412
   25CHL1   C21 3008   6.712   6.251   5.327 -0.1951 -0.4408  0.2341
   25CHL1  H21A 3009   6.655   6.338   5.364  1.2190  1.0554 -0.9117
   25CHL1  H21B 3010   6.663   6.158   5.362 -0.5632 -0.3374  0.0004
   25CHL1  H21C 3011   6.697   6.265   5.217 -0.4517  2.5568  0.5681
   25CHL1   C22 3012   6.943   6.190   5.273 -0.9718  0.0630  0.4185
   25CHL1  H22A 3013   7.044   6.185   5.319  0.0800  0.3211 -1.6973
   25CHL1  H22B 3014   6.903   6.086   5.265  1.5497 -0.8810 -1.6045
   25CHL1   C23 3015   6.968   6.248   5.131  0.0399 -0.1259  0.4496
   25CHL1  H23A 3016   6.883   6.273   5.064  1.0830  1.2462 -0.4149
   25CHL1  H23B 3017   7.006   6.348   5.162 -0.6515 -0.4243  2.4174
   25CHL1   C24 3018   7.072   6.161   5.055 -1.0926  0.1209  0.3989
   25CHL1  H24A 3019   7.156   6.143   5.126 -0.7828  0.5107  0.1329
   25CHL1  H24B 3020   7.030   6.063   5.025  1.8590 -0.7711 -1.2416
   25CHL1   C25 3021   7.141   6.226   4.931  0.1822 -0.4858 -0.0451
   25CHL1   H25 3022   7.153   6.333   4.960 -2.2211 -0.0789 -0.3818
   25CHL1   C26 3023   7.276   6.169   4.891  0.0544  0.3067  0.1750
   25CHL1  H26A 3024   7.309   6.210   4.794  3.3057 -1.6222  0.3287
   25CHL1  H26B 3025   7.348   6.195   4.971  0.3990 -0.6357  0.1846
   25CHL1  H26C 3026   7.262   6.059   4.881  1.0463  0.0823  1.0982
   25CHL1   C27 3027   7.043   6.228   4.818  0.1506  0.3453 -0.0461
   25CHL1  H27A 3028   7.069   6.280   4.723 -0.2490  0.5435 -0.0508
   25CHL1  H27B 3029   7.018   6.124   4.788 -0.9140  0.8016 -0.8156
   25CHL1  H27C 3030   6.950   6.272   4.859 -0.4570 -0.5755 -0.3839
   26CHL1    C3 3031   5.434   5.165   6.082  0.4378 -0.0274 -0.5012
   26CHL1    H3 3032   5.325   5.181   6.090  0.5829  0.6574  0.1303
   26CHL1    O3 3033   5.484   5.121   6.209 -0.5547  0.3476  0.2060
   26CHL1   H3' 3034   5.571   5.087   6.190 -0.5460 -0.8645  2.1301
   26CHL1    C4 3035   5.475   5.057   5.981 -0.2549  0.1011 -0.8263
   26CHL1   H4A 3036   5.583   5.030   5.980 -0.0621  0.8017 -0.2564
   26CHL1   H4B 3037   5.418   4.966   6.007  0.7040 -0.0720  0.8151
   26CHL1    C5 3038   5.434   5.107   5.851 -0.3839  0.3840  0.8075
   26CHL1    C6 3039   5.349   5.042   5.775  1.1137 -0.2332  0.5743
   26CHL1    H6 3040   5.313   4.942   5.803  0.2628 -0.0291  0.2284
   26CHL1    C7 3041   5.309   5.070   5.632  0.5324  0.0310 -0.0950
   26CHL1   H7A 3042   5.318   4.986   5.560  1.6064  0.8169 -0.9190
   26CHL1   H7B 3043   5.201   5.096   5.625  0.5043 -0.4267 -2.2208
   26CHL1    C8 3044   5.395   5.190   5.573  0.0305  0.8779  0.1697
   26CHL1    H8 3045   5.490   5.152   5.531 -0.7028 -0.9882  0.0778
   26CHL1   C14 3046   5.316   5.251   5.456  0.0753  0.0200  0.3954
   26CHL1   H14 3047   5.221   5.287   5.500 -0.1466 -1.0352  0.7978
   26CHL1   C15 3048   5.280   5.161   5.339  0.3730 -0.2598  0.3020
   26CHL1  H15A 3049   5.371   5.102   5.315 -0.3028 -1.4314  0.5379
   26CHL1  H15B 3050   5.183   5.112   5.361 -0.9290  2.2554  0.4373
   26CHL1   C16 3051   5.266   5.263   5.217 -0.2328  0.5215  0.9793
   26CHL1  H16A 3052   5.345   5.249   5.139 -1.4816 -0.4523 -0.1624
   26CHL1  H16B 3053   5.168   5.256   5.164 -0.3782  3.0484  0.7937
   26CHL1   C17 3054   5.284   5.408   5.276 -0.0987  0.0726  0.4492
   26CHL1   H17 3055   5.187   5.434   5.321 -0.2513  1.8114 -0.7825
   26CHL1   C13 3056   5.376   5.382   5.397 -0.4829  0.2764  0.1260
   26CHL1   C18 3057   5.524   5.369   5.345 -1.1396 -0.2219  0.3818
   26CHL1  H18A 3058   5.567   5.461   5.301 -2.5140 -0.0047 -0.5718
   26CHL1  H18B 3059   5.596   5.332   5.421  1.8457 -1.6730 -2.8698
   26CHL1  H18C 3060   5.527   5.295   5.262 -1.3601 -0.7396  0.8274
   26CHL1   C12 3061   5.372   5.486   5.514 -0.5296 -0.1522  0.0301
   26CHL1  H12A 3062   5.414   5.582   5.475 -1.1563 -0.1653 -0.6870
   26CHL1  H12B 3063   5.266   5.495   5.544 -0.9966 -1.3859 -1.1453
   26CHL1   C11 3064   5.458   5.436   5.633  0.1982  0.0230  0.2355
   26CHL1  H11A 3065   5.562   5.411   5.605 -0.9990 -2.9793 -2.1051
   26CHL1  H11B 3066   5.450   5.512   5.714  0.5086  1.9913 -1.4872
   26CHL1    C9 3067   5.410   5.299   5.685 -0.7104  0.3961  0.0169
   26CHL1    H9 3068   5.308   5.310   5.726  0.1746 -1.9129  3.1878
   26CHL1   C10 3069   5.491   5.245   5.802  0.2146 -0.3024 -0.0368
   26CHL1   C19 3070   5.642   5.219   5.762  0.8926 -0.4041 -0.6878
   26CHL1  H19A 3071   5.651   5.158   5.669 -0.6947 -1.3925 -0.2298
   26CHL1  H19B 3072   5.678   5.320   5.734  1.6081 -0.4961 -0.1074
   26CHL1  H19C 3073   5.703   5.171   5.841 -1.6778  0.7680  2.1691
   26CHL1    C1 3074   5.486   5.347   5.915 -0.0793  0.4272 -0.4504
   26CHL1   H1A 3075   5.558   5.429   5.894  0.8512  0.0049  0.9565
   26CHL1   H1B 3076   5.386   5.395   5.913 -0.3963 -0.1122  1.3605
   26CHL1    C2 3077   5.512   5.297   6.058 -0.4135  0.1309  0.4713
   26CHL1   H2A 3078   5.498   5.371   6.139  0.9964 -0.0942  0.9464
   26CHL1   H2B 3079   5.616   5.259   6.068 -1.5650 -3.1219  1.2350
   26CHL1   C20 3080   5.322   5.516   5.177  0.3684  0.3804 -0.5421
   26CHL1   H20 3081   5.431   5.514   5.159  0.0846 -0.2336 -2.3527
   26CHL1   C21 3082   5.289   5.652   5.240  0.2493 -0.6957 -0.1142
   26CHL1  H21A 3083   5.188   5.660   5.287 -0.4733 -0.0771 -1.6915
   26CHL1  H21B 3084   5.286   5.727   5.159 -2.6988 -0.3619  0.1644
   26CHL1  H21C 3085   5.357   5.692   5.318  0.2655  1.1825 -1.0288
   26CHL1   C22 3086   5.260   5.503   5.030 -0.7299  0.4598  0.4159
   26CHL1  H22A 3087   5.283   5.401   4.994  0.3977 -0.4858  3.4664
   26CHL1  H22B 3088   5.149   5.510   5.034 -0.9987 -2.6550  0.3560
   26CHL1   C23 3089   5.316   5.591   4.915 -0.5540 -0.0384  0.0834
   26CHL1  H23A 3090   5.323   5.698   4.942 -2.9614  0.1377  0.3098
   26CHL1  H23B 3091   5.419   5.550   4.915 -0.5081  0.0762  0.0691
   26CHL1   C24 3092   5.247   5.569   4.776  0.2521  0.0273 -0.0896
   26CHL1  H24A 3093   5.271   5.469   4.734 -0.0832  0.8970 -2.4784
   26CHL1  H24B 3094   5.138   5.580   4.796  0.5455  1.1351  1.0650
   26CHL1   C25 3095   5.283   5.688   4.684 -0.8599 -0.4743  0.6652
   26CHL1   H25 3096   5.289   5.784   4.740  3.4379  0.2918 -0.7019
   26CHL1   C26 3097   5.414   5.664   4.608  0.2827  0.5347  0.0826
   26CHL1  H26A 3098   5.497   5.664   4.682 -0.6596 -0.3445  1.1817
   26CHL1  H26B 3099   5.409   5.569   4.551  4.2431  1.0282 -1.3663
   26CHL1  H26C 3100   5.441   5.740   4.533  0.4936  1.2115  0.8308
   26CHL1   C27 3101   5.173   5.716   4.579 -0.2749 -0.9433 -0.1268
   26CHL1  H27A 3102   5.088   5.761   4.635 -0.3444 -0.8888 -0.2761
   26CHL1  H27B 3103   5.197   5.790   4.500 -2.6415 -0.5375 -0.5616
   26CHL1  H27C 3104   5.138   5.620   4.536  2.1381 -1.3229 -1.3961
   27CHL1    C3 3105   4.177   4.703   5.954 -0.5000  0.4534 -1.0921
   27CHL1    H3 3106   4.255   4.779   5.929 -2.5283  2.3052 -2.0664
   27CHL1    O3 3107   4.159   4.689   6.095  0.1025  0.0171  0.5900
   27CHL1   H3' 3108   4.096   4.617   6.090 -0.9475  0.9864 -1.2696
   27CHL1    C4 3109   4.040   4.755   5.896 -0.3312  0.3443 -0.1892
   27CHL1   H4A 3110   3.957   4.694   5.937  1.4386 -0.3456  2.5980
   27CHL1   H4B 3111   4.014   4.856   5.932 -3.0782  0.6693 -2.6685
   27CHL1    C5 3112   4.033   4.749   5.747  0.3480 -0.1571  0.5705
   27CHL1    C6 3113   4.007   4.857   5.672 -0.6413 -0.1706  0.1743
   27CHL1    H6 3114   3.988   4.952   5.725 -0.2326  1.0400 -1.7539
   27CHL1    C7 3115   3.996   4.856   5.528 -0.2565 -0.0722 -0.1871
   27CHL1   H7A 3116   3.910   4.908   5.481 -0.7743 -1.1208 -0.4422
   27CHL1   H7B 3117   4.088   4.896   5.481 -1.0277  0.6406 -1.1259
   27CHL1    C8 3118   3.978   4.717   5.468 -0.8725 -0.8438 -0.6394
   27CHL1    H8 3119   3.874   4.691   5.496 -0.8937  1.2431  1.4770
   27CHL1   C14 3120   3.998   4.718   5.314  0.6166 -0.3610 -0.0042
   27CHL1   H14 3121   4.099   4.753   5.284  0.5711  0.7059  1.0233
   27CHL1   C15 3122   3.901   4.811   5.237 -0.5324  1.1397 -0.5458
   27CHL1  H15A 3123   3.801   4.802   5.285  0.6991  0.2879  2.0617
   27CHL1  H15B 3124   3.936   4.916   5.245 -0.3587  0.9928  0.8476
   27CHL1   C16 3125   3.891   4.764   5.096  0.4205  0.1107  0.1675
   27CHL1  H16A 3126   3.788   4.736   5.066  0.8320 -0.4751 -0.7710
   27CHL1  H16B 3127   3.952   4.829   5.029  1.4361 -1.3439 -0.3823
   27CHL1   C17 3128   3.973   4.625   5.092 -0.1855  0.3969  0.4275
   27CHL1   H17 3129   4.080   4.639   5.069 -0.1918 -0.7539 -0.3774
   27CHL1   C13 3130   3.971   4.581   5.244 -0.8304  0.3132 -0.0803
   27CHL1   C18 3131   3.828   4.518   5.279 -0.3926 -0.2507  0.3905
   27CHL1  H18A 3132   3.796   4.418   5.244  0.0254 -1.2008  2.5919
   27CHL1  H18B 3133   3.799   4.518   5.386  0.3308 -1.6032  0.6050
   27CHL1  H18C 3134   3.755   4.594   5.243  1.9900  1.4720 -1.1762
   27CHL1   C12 3135   4.089   4.493   5.288  0.9774  0.5446 -0.2520
   27CHL1  H12A 3136   4.081   4.385   5.266 -1.7372  0.7311 -0.5080
   27CHL1  H12B 3137   4.181   4.541   5.248 -0.4863  1.6890 -2.4195
   27CHL1   C11 3138   4.089   4.484   5.445  0.5639 -0.2217 -0.1807
   27CHL1  H11A 3139   3.999   4.420   5.464  0.7452 -0.7781 -1.1232
   27CHL1  H11B 3140   4.172   4.422   5.486 -0.9553 -0.4076  2.9720
   27CHL1    C9 3141   4.073   4.614   5.529  0.5386 -0.5560  0.9472
   27CHL1    H9 3142   4.170   4.666   5.509  0.6740 -1.9824 -3.0143
   27CHL1   C10 3143   4.060   4.612   5.682  0.1003  0.1881  0.4823
   27CHL1   C19 3144   3.942   4.519   5.725  0.1200 -0.7149 -0.5940
   27CHL1  H19A 3145   3.955   4.413   5.698 -1.6893 -0.8582 -1.0313
   27CHL1  H19B 3146   3.925   4.517   5.835  2.3797  1.3395 -0.1149
   27CHL1  H19C 3147   3.851   4.560   5.676  0.3118  2.5822  1.4206
   27CHL1    C1 3148   4.200   4.573   5.734  0.7449  0.1135 -0.1173
   27CHL1   H1A 3149   4.223   4.479   5.678  2.6167 -1.0820  2.4413
   27CHL1   H1B 3150   4.276   4.649   5.705 -0.1407  1.6156  1.2880
   27CHL1    C2 3151   4.205   4.569   5.889  0.4682  0.5917  0.2515
   27CHL1   H2A 3152   4.294   4.519   5.931 -1.1709 -0.4256  2.7500
   27CHL1   H2B 3153   4.123   4.500   5.919  0.4608 -0.4614 -1.9965
   27CHL1   C20 3154   3.929   4.521   4.983  0.1908 -0.5489  0.5940
   27CHL1   H20 3155   3.832   4.478   5.018 -0.1581 -0.9714 -0.8115
   27CHL1   C21 3156   4.020   4.403   4.982  0.0058  0.6910  0.0167
   27CHL1  H21A 3157   4.125   4.439   4.985 -0.1518  1.1736 -0.2380
   27CHL1  H21B 3158   4.003   4.331   4.899  2.6239  2.1997 -1.9701
   27CHL1  H21C 3159   4.014   4.335   5.069  0.1030 -0.5473 -0.9109
   27CHL1   C22 3160   3.903   4.597   4.851  0.5214 -0.1753  0.1401
   27CHL1  H22A 3161   3.849   4.535   4.776 -1.9898  1.3321  0.6091
   27CHL1  H22B 3162   3.822   4.669   4.872 -2.1432 -2.5254 -1.3759
   27CHL1   C23 3163   4.024   4.671   4.793  0.6583  0.4419  0.1740
   27CHL1  H23A 3164   4.051   4.769   4.838  2.0869  1.0218 -1.7927
   27CHL1  H23B 3165   4.114   4.607   4.802  0.7224  0.4513 -0.3387
   27CHL1   C24 3166   4.015   4.703   4.643  0.8805 -0.3751  0.0301
   27CHL1  H24A 3167   4.110   4.749   4.609  1.3330 -2.0589 -1.0953
   27CHL1  H24B 3168   4.009   4.605   4.593  1.5021 -1.0895  1.3002
   27CHL1   C25 3169   3.910   4.810   4.605  0.2381 -0.7522  0.1924
   27CHL1   H25 3170   3.816   4.781   4.655  0.3190  0.3067  0.9818
   27CHL1   C26 3171   3.939   4.946   4.671 -0.3473  0.3212  0.7627
   27CHL1  H26A 3172   3.934   4.939   4.781 -0.3996 -1.5561  0.6706
   27CHL1  H26B 3173   4.042   4.982   4.648 -0.0199 -0.8660  0.3236
   27CHL1  H26C 3174   3.868   5.023   4.632  2.2907  1.6679 -1.8318
   27CHL1   C27 3175   3.894   4.828   4.453 -0.1473  0.3369  0.6271
   27CHL1  H27A 3176   3.796   4.879   4.444 -0.4279 -0.4359 -1.2399
   27CHL1  H27B 3177   3.879   4.728   4.407 -2.7372 -0.1234  2.2973
   27CHL1  H27C 3178   3.981   4.881   4.407 -1.1202  0.3096 -1.3518
   28CHL1    C3 3179   0.481   5.365   6.227 -0.3193 -0.3510 -0.0495
   28CHL1    H3 3180   0.371   5.378   6.218 -0.1545 -0.0879 -1.9574
   28CHL1    O3 3181   0.512   5.356   6.362  0.6008 -0.4567 -0.3524
   28CHL1   H3' 3182   0.603   5.326   6.363 -0.0493 -2.6833  1.6231
   28CHL1    C4 3183   0.516   5.245   6.146  0.2096  0.0757  0.1335
   28CHL1   H4A 3184   0.619   5.223   6.179  1.0248  3.3996  0.1757
   28CHL1   H4B 3185   0.458   5.162   6.190 -1.8606  1.1938 -0.3125
   28CHL1    C5 3186   0.504   5.252   5.997  0.9669 -0.2532  0.2121
   28CHL1    C6 3187   0.427   5.170   5.925 -0.3482  0.5990 -0.6381
   28CHL1    H6 3188   0.389   5.077   5.970  0.4095  1.0354  0.9430
   28CHL1    C7 3189   0.412   5.176   5.778  0.2927  0.0477  0.4467
   28CHL1   H7A 3190   0.434   5.080   5.726  1.8768  0.5157  0.2205
   28CHL1   H7B 3191   0.308   5.204   5.750  0.1893 -0.8231 -0.0883
   28CHL1    C8 3192   0.506   5.274   5.699  0.1154  0.2427  0.5143
   28CHL1    H8 3193   0.599   5.214   5.688 -0.6149 -1.0314  0.9515
   28CHL1   C14 3194   0.463   5.313   5.558  0.4797  0.5466  0.6885
   28CHL1   H14 3195   0.375   5.379   5.575  1.0153  1.0415  1.6455
   28CHL1   C15 3196   0.429   5.200   5.464  0.1028  0.0729  0.1215
   28CHL1  H15A 3197   0.510   5.124   5.472  0.5275  0.3886 -0.9984
   28CHL1  H15B 3198   0.329   5.159   5.492  0.0163  0.2227  0.0295
   28CHL1   C16 3199   0.426   5.268   5.327 -0.2874 -0.1249  0.2573
   28CHL1  H16A 3200   0.471   5.206   5.247  0.5919 -0.7617  1.2242
   28CHL1  H16B 3201   0.317   5.284   5.310  0.2119  1.4669 -1.8522
   28CHL1   C17 3202   0.492   5.410   5.342 -0.0413  0.5033 -0.0680
   28CHL1   H17 3203   0.399   5.470   5.350 -0.5754 -0.2899 -0.1495
   28CHL1   C13 3204   0.560   5.401   5.479  0.9587 -0.1870  0.3266
   28CHL1   C18 3205   0.696   5.342   5.456 -0.6766  0.6180 -0.5780
   28CHL1  H18A 3206   0.690   5.270   5.372 -1.4944  1.4935 -1.2896
   28CHL1  H18B 3207   0.767   5.423   5.429 -2.1123  2.2455  0.3146
   28CHL1  H18C 3208   0.725   5.285   5.547 -2.4964 -1.8764 -1.4529
   28CHL1   C12 3209   0.560   5.529   5.566 -0.1874  0.4817  0.1099
   28CHL1  H12A 3210   0.627   5.600   5.512  2.7249 -1.1956  1.3112
   28CHL1  H12B 3211   0.458   5.573   5.561  1.0212  3.4218 -1.3527
   28CHL1   C11 3212   0.593   5.514   5.711 -0.0524  0.1623  0.1857
   28CHL1  H11A 3213   0.704   5.504   5.715  0.1508  1.9644 -0.0269
   28CHL1  H11B 3214   0.559   5.604   5.766 -0.2649  1.2265 -1.6062
   28CHL1    C9 3215   0.531   5.400   5.783 -0.5067  0.4856 -0.3370
   28CHL1    H9 3216   0.422   5.421   5.790 -1.2931 -3.3989  3.2176
   28CHL1   C10 3217   0.574   5.376   5.935  0.8045 -0.0365  0.0443
   28CHL1   C19 3218   0.724   5.350   5.937 -0.0785  0.2969 -0.2255
   28CHL1  H19A 3219   0.740   5.290   5.845  0.7309 -0.2678  0.2695
   28CHL1  H19B 3220   0.774   5.448   5.919  2.1702 -1.2291 -3.1806
   28CHL1  H19C 3221   0.763   5.296   6.026 -0.3375  0.8261  0.2185
   28CHL1    C1 3222   0.538   5.503   6.015 -0.0968 -0.0310  0.4098
   28CHL1   H1A 3223   0.620   5.576   5.995  0.9663 -1.2215  0.2375
   28CHL1   H1B 3224   0.440   5.550   5.996  0.4873  0.8570 -0.5586
   28CHL1    C2 3225   0.546   5.490   6.169  0.5209  1.1010  0.2894
   28CHL1   H2A 3226   0.513   5.586   6.214 -2.8066 -0.2771  1.1060
   28CHL1   H2B 3227   0.651   5.480   6.203  0.3112 -2.3768  0.3644
   28CHL1   C20 3228   0.570   5.461   5.218  0.8439  0.0154 -0.0385
   28CHL1   H20 3229   0.649   5.387   5.194 -1.1765 -1.5188 -2.3700
   28CHL1   C21 3230   0.631   5.600   5.252  0.0955  0.7671  0.6631
   28CHL1  H21A 3231   0.680   5.637   5.159  1.3799 -1.5870  0.3229
   28CHL1  H21B 3232   0.712   5.584   5.326  0.7656 -0.8843 -0.3744
   28CHL1  H21C 3233   0.551   5.664   5.297 -2.6929 -0.1189 -2.6099
   28CHL1   C22 3234   0.490   5.471   5.091 -0.5152 -0.0855 -0.7714
   28CHL1  H22A 3235   0.426   5.380   5.091 -1.5167  0.5959 -0.4651
   28CHL1  H22B 3236   0.434   5.567   5.089  3.8842  3.0996  3.6653
   28CHL1   C23 3237   0.570   5.458   4.961  0.0501  0.2113  0.0193
   28CHL1  H23A 3238   0.626   5.551   4.938  2.4522 -0.5761  2.1998
   28CHL1  H23B 3239   0.645   5.378   4.978 -1.4846 -1.2490  0.1581
   28CHL1   C24 3240   0.485   5.415   4.838 -0.5124  0.1008  0.0200
   28CHL1  H24A 3241   0.459   5.311   4.868  2.2153 -0.5615  0.3372
   28CHL1  H24B 3242   0.386   5.466   4.837 -1.2632 -1.3401 -0.4216
   28CHL1   C25 3243   0.558   5.409   4.702 -0.3017  0.4623  0.0771
   28CHL1   H25 3244   0.659   5.364   4.718  0.0050  0.7764 -0.9268
   28CHL1   C26 3245   0.480   5.316   4.611  0.2189  0.4187  0.1935
   28CHL1  H26A 3246   0.544   5.271   4.532  1.1983  0.5304  0.9067
   28CHL1  H26B 3247   0.431   5.233   4.666 -0.3104  1.2043  0.9354
   28CHL1  H26C 3248   0.392   5.369   4.568 -1.1161 -0.1583  2.0975
   28CHL1   C27 3249   0.575   5.550   4.639 -0.4576  0.8061 -0.3203
   28CHL1  H27A 3250   0.629   5.619   4.707  0.0233 -0.7760  0.9754
   28CHL1  H27B 3251   0.629   5.552   4.542 -0.7493  0.4001 -0.4935
   28CHL1  H27C 3252   0.471   5.583   4.616 -0.8092  0.8048  1.1648
   29CHL1    C3 3253   2.139   5.788   5.889 -0.4578  0.1459 -0.2147
   29CHL1    H3 3254   2.126   5.896   5.864  1.8098 -0.1384 -2.9750
   29CHL1    O3 3255   2.144   5.784   6.029  0.5573 -0.1338  0.3228
   29CHL1   H3' 3256   2.148   5.690   6.046  0.8135 -0.0860  0.5375
   29CHL1    C4 3257   2.015   5.712   5.855 -0.3536  0.0622 -0.9506
   29CHL1   H4A 3258   2.034   5.608   5.888  1.6079  0.6003 -0.2334
   29CHL1   H4B 3259   1.924   5.752   5.905  0.6700  1.3185 -0.0191
   29CHL1    C5 3260   1.995   5.704   5.705  0.4449  0.7227  0.1196
   29CHL1    C6 3261   1.888   5.745   5.642  0.0784  0.9391 -1.2423
   29CHL1    H6 3262   1.803   5.779   5.704 -0.7855  1.7188 -2.7925
   29CHL1    C7 3263   1.856   5.727   5.500 -0.0385  0.2853  0.5482
   29CHL1   H7A 3264   1.751   5.695   5.488  0.4068 -1.1796  0.3618
   29CHL1   H7B 3265   1.857   5.823   5.445 -0.2921 -1.0976 -2.0234
   29CHL1    C8 3266   1.950   5.624   5.435  0.0014  0.6110 -0.2250
   29CHL1    H8 3267   1.917   5.524   5.469 -0.5421  1.0690  0.6502
   29CHL1   C14 3268   1.930   5.635   5.288 -0.3147 -0.5314  0.1182
   29CHL1   H14 3269   1.953   5.741   5.266  0.5297 -0.4223  1.4213
   29CHL1   C15 3270   1.784   5.608   5.237  0.9028 -0.4744  0.3129
   29CHL1  H15A 3271   1.743   5.514   5.278 -1.8055 -0.0800 -1.2609
   29CHL1  H15B 3272   1.708   5.685   5.264  0.0536 -0.5079 -1.7696
   29CHL1   C16 3273   1.819   5.581   5.085  0.1494  0.2310 -0.5302
   29CHL1  H16A 3274   1.763   5.491   5.055 -0.5891 -0.5360  2.7094
   29CHL1  H16B 3275   1.790   5.667   5.021  2.6679  0.3188 -1.6723
   29CHL1   C17 3276   1.965   5.569   5.071 -0.5455  0.2064 -0.3024
   29CHL1   H17 3277   2.010   5.669   5.055 -1.7805  0.5669 -1.7842
   29CHL1   C13 3278   2.016   5.536   5.213 -0.3648  0.1187  0.1211
   29CHL1   C18 3279   1.990   5.387   5.249 -0.0959 -0.8009  0.4590
   29CHL1  H18A 3280   2.025   5.356   5.349  0.7988 -1.7417 -0.1206
   29CHL1  H18B 3281   1.881   5.363   5.245 -0.0955 -0.8380  0.6688
   29CHL1  H18C 3282   2.050   5.326   5.178 -0.0081  0.0344 -0.1990
   29CHL1   C12 3283   2.162   5.569   5.239 -0.0461 -0.4680 -0.1248
   29CHL1  H12A 3284   2.230   5.492   5.198 -2.1724 -2.2117 -0.5926
   29CHL1  H12B 3285   2.182   5.666   5.189 -1.2156 -1.2753 -2.3026
   29CHL1   C11 3286   2.203   5.584   5.389  0.4600 -0.2853 -0.3910
   29CHL1  H11A 3287   2.243   5.486   5.423  0.1702  0.0305  0.9209
   29CHL1  H11B 3288   2.294   5.647   5.397  1.5630 -1.9107  0.2568
   29CHL1    C9 3289   2.097   5.651   5.478 -0.0379  0.0169 -0.0828
   29CHL1    H9 3290   2.105   5.761   5.462 -1.7639  0.3130  0.7433
   29CHL1   C10 3291   2.112   5.641   5.627 -1.2261  0.2789 -0.2519
   29CHL1   C19 3292   2.115   5.488   5.664  0.2086  0.3717  0.6003
   29CHL1  H19A 3293   2.188   5.422   5.613  0.3210  0.7434  0.2826
   29CHL1  H19B 3294   2.144   5.479   5.772  0.2327  0.9923  0.6481
   29CHL1  H19C 3295   2.014   5.444   5.651 -0.0762  1.5355 -1.4699
   29CHL1    C1 3296   2.253   5.705   5.678  0.0377  0.5599 -1.0903
   29CHL1   H1A 3297   2.335   5.640   5.642  1.1459  0.3061  1.6588
   29CHL1   H1B 3298   2.258   5.803   5.624  0.6646  1.3144  0.3030
   29CHL1    C2 3299   2.262   5.730   5.832 -0.3465 -0.1416  0.0104
   29CHL1   H2A 3300   2.345   5.802   5.849 -0.9402  0.7959 -0.8849
   29CHL1   H2B 3301   2.289   5.637   5.886 -1.6630 -0.8445 -0.4769
   29CHL1   C20 3302   2.008   5.483   4.945  0.5900 -0.0702 -0.3158
   29CHL1   H20 3303   2.016   5.378   4.980 -2.1899 -0.7710 -1.5097
   29CHL1   C21 3304   2.151   5.531   4.898 -0.0099 -0.1338 -0.1832
   29CHL1  H21A 3305   2.189   5.468   4.815 -1.4630  1.3903 -2.0723
   29CHL1  H21B 3306   2.217   5.509   4.985 -1.1074 -1.2397  0.4033
   29CHL1  H21C 3307   2.153   5.640   4.878  0.5748  0.0862  0.9611
   29CHL1   C22 3308   1.907   5.472   4.820  0.2718 -0.2008  0.3262
   29CHL1  H22A 3309   1.806   5.444   4.856 -0.6903  1.5625 -0.8599
   29CHL1  H22B 3310   1.885   5.570   4.773 -3.8044 -0.7128  0.8090
   29CHL1   C23 3311   1.950   5.367   4.716 -0.0880  0.0432 -0.7066
   29CHL1  H23A 3312   2.035   5.401   4.652 -0.8822 -2.1321 -3.0593
   29CHL1  H23B 3313   1.988   5.279   4.771 -0.3764 -1.3176 -2.6027
   29CHL1   C24 3314   1.837   5.332   4.624 -0.4141  0.2077  0.3480
   29CHL1  H24A 3315   1.743   5.311   4.678 -1.5085  1.9314 -0.7782
   29CHL1  H24B 3316   1.805   5.417   4.560  3.4312  0.2137 -1.9250
   29CHL1   C25 3317   1.866   5.201   4.546  0.0192 -0.7885  1.0806
   29CHL1   H25 3318   1.959   5.223   4.490 -0.1159  2.1853  1.8383
   29CHL1   C26 3319   1.897   5.081   4.630 -0.5657  0.0430  0.1333
   29CHL1  H26A 3320   1.894   4.990   4.568 -1.1334 -0.6793  1.1877
   29CHL1  H26B 3321   1.993   5.095   4.685  0.2673  2.2133 -1.6899
   29CHL1  H26C 3322   1.814   5.069   4.704 -1.5736  0.2830 -0.9324
   29CHL1   C27 3323   1.758   5.169   4.439  0.1194  0.1185 -0.1611
   29CHL1  H27A 3324   1.745   5.242   4.357 -3.3861  0.9167  0.8906
   29CHL1  H27B 3325   1.773   5.070   4.391  0.0657 -0.3023  0.6713
   29CHL1  H27C 3326   1.660   5.176   4.491 -0.4579  2.7900 -1.4470
   30CHL1    C3 3327   3.760   5.849   5.840 -0.5543  0.3888  0.2272
   30CHL1    H3 3328   3.669   5.897   5.797 -0.1437 -0.5347 -1.8208
   30CHL1    O3 3329   3.761   5.854   5.981 -0.1213  0.0985 -0.2602
   30CHL1   H3' 3330   3.827   5.793   6.014 -1.1082 -0.7540  0.1904
   30CHL1    C4 3331   3.740   5.703   5.797  0.1104  0.0813  1.0838
   30CHL1   H4A 3332   3.825   5.642   5.834  2.7654  3.9421  1.9565
   30CHL1   H4B 3333   3.646   5.661   5.839 -1.0156  1.9760  0.5886
   30CHL1    C5 3334   3.731   5.692   5.647  0.2770 -0.4447 -0.3847
   30CHL1    C6 3335   3.621   5.648   5.585  0.2618 -0.2255  0.1331
   30CHL1    H6 3336   3.531   5.611   5.637  0.3695  0.3965  0.7786
   30CHL1    C7 3337   3.610   5.651   5.434  0.2868 -0.1659 -0.0747
   30CHL1   H7A 3338   3.548   5.562   5.408 -0.2066  0.5489 -1.4886
   30CHL1   H7B 3339   3.551   5.741   5.405  0.4067 -0.3037 -0.7611
   30CHL1    C8 3340   3.748   5.657   5.360 -0.1114  0.2576 -0.2235
   30CHL1    H8 3341   3.793   5.556   5.368 -2.8795 -0.9266  2.0930
   30CHL1   C14 3342   3.742   5.695   5.206  0.0280  0.4755 -0.0362
   30CHL1   H14 3343   3.689   5.793   5.203 -1.5139 -0.2741  1.3350
   30CHL1   C15 3344   3.659   5.599   5.126  0.0015 -0.7078  0.6567
   30CHL1  H15A 3345   3.680   5.495   5.158 -0.3624 -0.1729  2.7796
   30CHL1  H15B 3346   3.550   5.619   5.138  0.4898  1.8941  1.2912
   30CHL1   C16 3347   3.699   5.619   4.982  0.0390 -0.3334 -0.2217
   30CHL1  H16A 3348   3.724   5.523   4.933 -0.2682 -0.8853  0.6896
   30CHL1  H16B 3349   3.627   5.684   4.926 -0.0682  1.9980  2.3973
   30CHL1   C17 3350   3.826   5.698   4.990  0.0051 -0.2208  0.1898
   30CHL1   H17 3351   3.792   5.803   4.979 -1.0488 -0.6953 -1.5627
   30CHL1   C13 3352   3.877   5.694   5.139  0.0178 -0.7105  0.1848
   30CHL1   C18 3353   3.956   5.567   5.154  0.0538 -0.5564 -0.2065
   30CHL1  H18A 3354   3.901   5.485   5.103  0.4114 -0.1792 -1.2101
   30CHL1  H18B 3355   4.058   5.574   5.110  0.2375 -1.1154  0.1141
   30CHL1  H18C 3356   3.978   5.538   5.259 -0.3324 -3.7004 -0.8785
   30CHL1   C12 3357   3.949   5.819   5.194 -0.4849 -1.1529  0.1595
   30CHL1  H12A 3358   4.053   5.839   5.163 -0.9279 -0.9464 -1.2504
   30CHL1  H12B 3359   3.882   5.903   5.168 -0.0764 -1.0761 -0.6710
   30CHL1   C11 3360   3.958   5.816   5.352  0.0530 -0.0402  0.3254
   30CHL1  H11A 3361   4.040   5.742   5.367 -1.3472 -1.7669 -0.2952
   30CHL1  H11B 3362   3.992   5.918   5.379  1.1627  0.0591 -1.3274
   30CHL1    C9 3363   3.833   5.769   5.424 -0.4553  0.5891  0.1187
   30CHL1    H9 3364   3.770   5.859   5.404 -0.2318  0.3792 -1.6876
   30CHL1   C10 3365   3.857   5.742   5.582  0.1917 -0.1901  0.4717
   30CHL1   C19 3366   3.952   5.622   5.606 -0.5645 -0.1060 -0.9469
   30CHL1  H19A 3367   4.043   5.634   5.542  1.4481 -0.2208  1.7112
   30CHL1  H19B 3368   3.998   5.613   5.706 -0.9393  0.7639 -0.6861
   30CHL1  H19C 3369   3.898   5.530   5.575 -1.5949 -0.1247  0.8086
   30CHL1    C1 3370   3.911   5.876   5.639  0.2005  0.4755 -0.2536
   30CHL1   H1A 3371   4.014   5.878   5.598  0.2841 -1.2048 -0.1827
   30CHL1   H1B 3372   3.860   5.961   5.590  0.9086  0.7547 -0.5227
   30CHL1    C2 3373   3.896   5.902   5.783  0.0207  0.3968  1.0792
   30CHL1   H2A 3374   3.924   6.009   5.799  0.1069  1.2100 -3.2518
   30CHL1   H2B 3375   3.974   5.847   5.840 -0.0858  0.0129  0.8531
   30CHL1   C20 3376   3.929   5.672   4.878  0.2812  0.5955  0.5515
   30CHL1   H20 3377   3.967   5.569   4.894 -1.5093 -0.0985  0.5590
   30CHL1   C21 3378   4.045   5.778   4.883  0.0365  0.0376  0.1553
   30CHL1  H21A 3379   3.997   5.877   4.896  0.1925  0.1325  0.0098
   30CHL1  H21B 3380   4.106   5.772   4.791  0.5465  0.1054  0.4821
   30CHL1  H21C 3381   4.106   5.768   4.976  1.5706  0.5709 -0.7619
   30CHL1   C22 3382   3.865   5.679   4.738  0.6123  0.4812 -0.5540
   30CHL1  H22A 3383   3.811   5.583   4.719 -0.3338  1.5719 -4.2376
   30CHL1  H22B 3384   3.791   5.760   4.724  1.3217  0.8701 -2.3556
   30CHL1   C23 3385   3.966   5.686   4.617  0.6362 -0.7932  0.9752
   30CHL1  H23A 3386   4.017   5.784   4.605 -1.3665  0.0972 -0.8942
   30CHL1  H23B 3387   4.044   5.607   4.617  1.5600  0.0052 -1.5388
   30CHL1   C24 3388   3.868   5.662   4.491 -0.5689 -0.1427 -0.1540
   30CHL1  H24A 3389   3.795   5.587   4.530  0.9303 -1.2211  0.6608
   30CHL1  H24B 3390   3.808   5.754   4.470 -0.6438 -0.5974 -2.1627
   30CHL1   C25 3391   3.935   5.620   4.355 -0.4635 -0.8128  0.1176
   30CHL1   H25 3392   3.957   5.511   4.362  0.5872 -0.5483  1.1019
   30CHL1   C26 3393   3.832   5.643   4.242 -0.1095  0.2959  0.2778
   30CHL1  H26A 3394   3.866   5.619   4.139 -0.0149 -2.4545  0.8650
   30CHL1  H26B 3395   3.754   5.566   4.262 -0.1842 -0.1373 -1.5102
   30CHL1  H26C 3396   3.787   5.744   4.246 -0.7955  0.1384 -2.2604
   30CHL1   C27 3397   4.061   5.693   4.328 -0.0849 -0.1728 -0.4118
   30CHL1  H27A 3398   4.056   5.803   4.345 -1.2384  0.7090 -5.1563
   30CHL1  H27B 3399   4.139   5.650   4.395  0.2077  0.3378 -0.4182
   30CHL1  H27C 3400   4.106   5.663   4.231 -1.0916  1.2274 -1.3631
   31CHL1    C3 3401   1.420   4.626   6.143 -0.4701  0.1889  0.0178
   31CHL1    H3 3402   1.336   4.553   6.143 -0.9443  0.7288 -0.3865
   31CHL1    O3 3403   1.471   4.627   6.279 -0.1181  0.1049  0.1664
   31CHL1   H3' 3404   1.552   4.676   6.264 -0.7682  0.3446 -3.6465
   31CHL1    C4 3405   1.534   4.575   6.052  0.0026 -0.1405  0.3567
   31CHL1   H4A 3406   1.623   4.639   6.073  0.8832 -1.3980  0.6046
   31CHL1   H4B 3407   1.551   4.466   6.071  1.3644 -0.0364 -0.1281
   31CHL1    C5 3408   1.481   4.584   5.912 -0.0185 -0.2475 -0.8889
   31CHL1    C6 3409   1.463   4.475   5.838 -0.0802  0.1076 -0.0855
   31CHL1    H6 3410   1.498   4.379   5.879  1.0574  1.1896  1.5971
   31CHL1    C7 3411   1.426   4.480   5.691 -0.7204  0.2482 -0.3533
   31CHL1   H7A 3412   1.500   4.418   5.635  0.5219  0.2324  1.2324
   31CHL1   H7B 3413   1.323   4.442   5.673 -0.3704  0.0246 -1.9639
   31CHL1    C8 3414   1.442   4.619   5.631 -0.0562 -0.8213 -0.5763
   31CHL1    H8 3415   1.551   4.635   5.631  0.0654 -1.0229  2.6409
   31CHL1   C14 3416   1.368   4.620   5.495  0.3762 -0.6480 -0.3956
   31CHL1   H14 3417   1.259   4.625   5.513  0.3083  3.1962 -1.0386
   31CHL1   C15 3418   1.398   4.516   5.392 -0.7378  0.7106  0.2980
   31CHL1  H15A 3419   1.506   4.491   5.391 -0.3003  2.3625 -1.8590
   31CHL1  H15B 3420   1.337   4.426   5.415  0.7837 -0.2132  0.8470
   31CHL1   C16 3421   1.356   4.582   5.259  0.6783  0.3622  0.5163
   31CHL1  H16A 3422   1.443   4.574   5.191 -1.0284  0.3464 -1.8032
   31CHL1  H16B 3423   1.282   4.517   5.208 -0.1205 -0.5003  2.6637
   31CHL1   C17 3424   1.310   4.723   5.298  0.3842  0.0952  0.0667
   31CHL1   H17 3425   1.203   4.714   5.327  0.2555 -1.3828 -0.7553
   31CHL1   C13 3426   1.387   4.758   5.431  0.0988 -0.5371  0.5456
   31CHL1   C18 3427   1.531   4.806   5.388  0.5734  0.2978 -0.1759
   31CHL1  H18A 3428   1.526   4.911   5.351 -0.3707 -0.2567 -1.6922
   31CHL1  H18B 3429   1.609   4.804   5.467  1.7007  0.7100 -1.2354
   31CHL1  H18C 3430   1.561   4.751   5.296  0.5898  2.4958 -1.5709
   31CHL1   C12 3431   1.320   4.867   5.519 -0.0476 -0.1767 -0.7966
   31CHL1  H12A 3432   1.330   4.964   5.464 -0.8298 -0.3428 -1.2476
   31CHL1  H12B 3433   1.212   4.842   5.523 -0.1077 -0.3258 -2.4380
   31CHL1   C11 3434   1.379   4.871   5.658  0.3124 -0.4727  0.1897
   31CHL1  H11A 3435   1.481   4.911   5.640  0.2800 -0.3335  0.3157
   31CHL1  H11B 3436   1.320   4.945   5.716 -0.9840  1.1547 -2.9474
   31CHL1    C9 3437   1.388   4.727   5.725 -0.4684 -0.5041  0.5564
   31CHL1    H9 3438   1.281   4.703   5.744 -0.8216  0.1583 -0.4931
   31CHL1   C10 3439   1.448   4.726   5.867 -0.1134  0.0815  0.4188
   31CHL1   C19 3440   1.579   4.811   5.863  0.8901 -0.1488 -0.1950
   31CHL1  H19A 3441   1.647   4.780   5.781  0.5290 -1.0756 -0.1543
   31CHL1  H19B 3442   1.543   4.916   5.859 -3.3518 -1.4060 -0.4917
   31CHL1  H19C 3443   1.624   4.803   5.964  1.0812 -1.6882 -0.3885
   31CHL1    C1 3444   1.347   4.792   5.974  1.0761  0.3878 -0.3806
   31CHL1   H1A 3445   1.348   4.902   5.958  1.5516  0.2359 -1.4591
   31CHL1   H1B 3446   1.244   4.755   5.954  0.5899  0.4850  1.6683
   31CHL1    C2 3447   1.391   4.771   6.116 -0.1099 -0.8877 -0.4656
   31CHL1   H2A 3448   1.320   4.821   6.185 -0.9643 -0.9531 -1.2901
   31CHL1   H2B 3449   1.486   4.826   6.136 -0.6100 -0.8011  1.9486
   31CHL1   C20 3450   1.315   4.821   5.180  0.3420 -0.3057  0.5289
   31CHL1   H20 3451   1.422   4.848   5.175  1.1869 -2.6995  3.0294
   31CHL1   C21 3452   1.232   4.948   5.216 -0.1278  0.1947 -0.0632
   31CHL1  H21A 3453   1.131   4.913   5.248  0.2605 -0.8129  0.1003
   31CHL1  H21B 3454   1.233   5.017   5.129 -0.3288  0.4590  0.1450
   31CHL1  H21C 3455   1.276   5.007   5.300  1.2188 -1.3675  0.3902
   31CHL1   C22 3456   1.261   4.768   5.045 -0.8824  0.2487  0.2090
   31CHL1  H22A 3457   1.269   4.658   5.034  2.3572  0.3264  0.8784
   31CHL1  H22B 3458   1.152   4.792   5.046 -0.6923  1.1501 -0.0446
   31CHL1   C23 3459   1.330   4.842   4.930  0.0649  0.5753 -0.1109
   31CHL1  H23A 3460   1.292   4.946   4.930 -0.0956  0.5362  1.1248
   31CHL1  H23B 3461   1.439   4.836   4.952 -0.2640 -0.3837  1.4089
   31CHL1   C24 3462   1.298   4.774   4.788  0.6354 -0.1586 -0.8324
   31CHL1  H24A 3463   1.347   4.676   4.775 -1.6642 -1.6904  1.1777
   31CHL1  H24B 3464   1.190   4.748   4.782  0.3249  0.7925  0.2200
   31CHL1   C25 3465   1.337   4.861   4.674 -0.4450 -0.5377  0.4119
   31CHL1   H25 3466   1.310   4.801   4.585  1.8104  1.1712 -1.5674
   31CHL1   C26 3467   1.245   4.988   4.667 -0.5374  0.1604  0.2821
   31CHL1  H26A 3468   1.254   5.037   4.568 -3.7471  1.3262  0.4529
   31CHL1  H26B 3469   1.140   4.971   4.698 -0.2298 -1.5752  0.4773
   31CHL1  H26C 3470   1.286   5.056   4.744  1.1845 -1.0806  0.5236
   31CHL1   C27 3471   1.486   4.896   4.652 -0.2278  0.0679 -1.0152
   31CHL1  H27A 3472   1.523   4.961   4.734 -2.6346 -1.7504  1.6960
   31CHL1  H27B 3473   1.546   4.805   4.670 -2.4012 -1.8558 -2.7932
   31CHL1  H27C 3474   1.510   4.930   4.549  0.9409 -0.0209 -0.7811
   32CHL1    C3 3475   5.809   4.628   6.057  0.0903  0.7903  0.6391
   32CHL1    H3 3476   5.902   4.634   5.996  0.7515  1.1755  1.6607
   32CHL1    O3 3477   5.844   4.630   6.197 -0.2152  0.0061 -0.7959
   32CHL1   H3' 3478   5.768   4.663   6.246  1.8894  1.2682  1.8538
   32CHL1    C4 3479   5.715   4.746   6.017 -0.2102  0.5680 -0.3782
   32CHL1   H4A 3480   5.625   4.730   6.081  1.5222 -2.4224  1.5362
   32CHL1   H4B 3481   5.772   4.838   6.043  1.4206 -1.0181  2.0716
   32CHL1    C5 3482   5.687   4.752   5.872 -0.7020 -0.7165  0.3825
   32CHL1    C6 3483   5.736   4.846   5.783  0.1730 -0.1660  0.1948
   32CHL1    H6 3484   5.789   4.932   5.825 -0.1251  0.0485  0.1348
   32CHL1    C7 3485   5.729   4.840   5.633 -0.2565 -0.0621 -0.1423
   32CHL1   H7A 3486   5.725   4.944   5.593  0.3294  0.0629  0.1196
   32CHL1   H7B 3487   5.823   4.804   5.585  1.3834  4.4922 -0.8618
   32CHL1    C8 3488   5.606   4.747   5.596 -0.0211  0.0310 -0.2889
   32CHL1    H8 3489   5.512   4.795   5.628  1.2113  0.0823  3.8640
   32CHL1   C14 3490   5.605   4.722   5.444 -0.0678 -1.1515 -0.4865
   32CHL1   H14 3491   5.708   4.682   5.433  0.0485 -1.7906  2.1566
   32CHL1   C15 3492   5.584   4.846   5.355  0.7887 -0.0115 -0.5199
   32CHL1  H15A 3493   5.503   4.910   5.396  1.1751  0.4511 -0.4661
   32CHL1  H15B 3494   5.676   4.908   5.348  1.5545 -1.0688 -0.1007
   32CHL1   C16 3495   5.551   4.789   5.218 -0.0822  0.0420 -0.3302
   32CHL1  H16A 3496   5.456   4.822   5.170 -2.0488 -1.5335  2.2239
   32CHL1  H16B 3497   5.632   4.805   5.143  0.5192 -0.2272  0.2529
   32CHL1   C17 3498   5.535   4.631   5.234  0.8944  0.2527  0.0372
   32CHL1   H17 3499   5.633   4.584   5.211  0.2863 -0.5511 -1.0173
   32CHL1   C13 3500   5.500   4.624   5.387 -0.0348 -0.6642 -0.0620
   32CHL1   C18 3501   5.351   4.680   5.408 -0.8105  0.4173 -0.0493
   32CHL1  H18A 3502   5.326   4.782   5.370 -0.0014  1.4994  2.1196
   32CHL1  H18B 3503   5.274   4.604   5.384 -0.7689  0.9405 -2.0282
   32CHL1  H18C 3504   5.340   4.698   5.517 -1.0027  1.2148 -0.1919
   32CHL1   C12 3505   5.534   4.487   5.448  0.5380  0.2050  0.0039
   32CHL1  H12A 3506   5.445   4.424   5.427 -0.5122  1.9911 -1.2212
   32CHL1  H12B 3507   5.621   4.434   5.404 -0.4900 -2.6151  1.1641
   32CHL1   C11 3508   5.531   4.506   5.605 -0.0845 -0.2614  0.0012
   32CHL1  H11A 3509   5.425   4.528   5.630  0.1315  1.5638 -0.4954
   32CHL1  H11B 3510   5.558   4.406   5.645 -1.5792 -0.3895  0.7454
   32CHL1    C9 3511   5.624   4.614   5.667  1.0245  0.3196  0.0510
   32CHL1    H9 3512   5.727   4.578   5.644  0.5848  0.5105 -2.4287
   32CHL1   C10 3513   5.620   4.622   5.831  0.4551  0.0544  0.1839
   32CHL1   C19 3514   5.472   4.651   5.869  0.0931  0.5180  0.0341
   32CHL1  H19A 3515   5.413   4.558   5.851  0.5725  0.3920 -0.9849
   32CHL1  H19B 3516   5.456   4.670   5.977  0.9123 -3.1062  0.9108
   32CHL1  H19C 3517   5.436   4.737   5.808  2.5083  2.5094  1.2267
   32CHL1    C1 3518   5.667   4.488   5.887  0.3007 -0.0866  0.4333
   32CHL1   H1A 3519   5.592   4.407   5.881 -0.0946  0.2285  0.9725
   32CHL1   H1B 3520   5.752   4.453   5.825  0.1128  1.3912 -0.7251
   32CHL1    C2 3521   5.727   4.502   6.029  0.4896  0.7113 -0.0930
   32CHL1   H2A 3522   5.781   4.408   6.051 -0.3903  0.0484 -0.7043
   32CHL1   H2B 3523   5.643   4.503   6.102  0.9520  2.3080  0.4643
   32CHL1   C20 3524   5.425   4.573   5.134 -0.3277  0.2668  0.5784
   32CHL1   H20 3525   5.335   4.638   5.140  0.7834  1.8751  0.6165
   32CHL1   C21 3526   5.371   4.431   5.179  0.2592 -0.0527  0.4327
   32CHL1  H21A 3527   5.311   4.429   5.273 -0.6584 -2.8572 -0.1151
   32CHL1  H21B 3528   5.450   4.354   5.192  0.3852 -0.0534 -0.3215
   32CHL1  H21C 3529   5.303   4.392   5.100 -0.9420  0.3306  1.2419
   32CHL1   C22 3530   5.481   4.563   4.989  0.1417  0.3666 -0.2054
   32CHL1  H22A 3531   5.536   4.660   4.982 -0.0176  0.5077  0.3781
   32CHL1  H22B 3532   5.551   4.478   4.977  2.4197  1.8765  1.5491
   32CHL1   C23 3533   5.372   4.572   4.884 -0.2271  0.1246 -0.0526
   32CHL1  H23A 3534   5.300   4.494   4.915  0.7927 -0.6459  0.4030
   32CHL1  H23B 3535   5.325   4.673   4.881  0.1255  0.2689 -1.4275
   32CHL1   C24 3536   5.412   4.548   4.740  0.7062  1.2364 -0.1881
   32CHL1  H24A 3537   5.317   4.541   4.683  0.5662 -0.8353  0.2078
   32CHL1  H24B 3538   5.455   4.643   4.702  1.9108  0.6998 -0.2065
   32CHL1   C25 3539   5.502   4.431   4.702 -0.7095 -0.2605 -0.7623
   32CHL1   H25 3540   5.600   4.458   4.746 -0.8856  1.5543 -1.4273
   32CHL1   C26 3541   5.472   4.291   4.754  0.6174 -0.3248 -0.4465
   32CHL1  H26A 3542   5.565   4.234   4.733 -0.9677 -3.3925  0.3591
   32CHL1  H26B 3543   5.467   4.284   4.865  0.7338 -1.7104 -0.5174
   32CHL1  H26C 3544   5.378   4.253   4.709 -1.7953  1.4758  2.6488
   32CHL1   C27 3545   5.530   4.427   4.553  0.1100  0.1156 -0.3679
   32CHL1  H27A 3546   5.581   4.331   4.531  0.5258 -0.0450  1.1542
   32CHL1  H27B 3547   5.436   4.432   4.495 -0.7241 -0.4514  0.8807
   32CHL1  H27C 3548   5.595   4.513   4.523  2.3589 -0.7261  1.6894
   33CHL1    C3 3549   2.531   3.235   5.902 -0.2909  0.5489  0.3676
   33CHL1    H3 3550   2.456   3.153   5.896  0.5783 -0.4782  2.4371
   33CHL1    O3 3551   2.551   3.260   6.044 -0.2861  0.1286  0.7056
   33CHL1   H3' 3552   2.585   3.349   6.057  2.5845 -0.7808  0.2580
   33CHL1    C4 3553   2.662   3.186   5.831  0.2001  0.0800  0.1424
   33CHL1   H4A 3554   2.742   3.262   5.841  1.2625 -0.7216 -1.7870
   33CHL1   H4B 3555   2.698   3.092   5.879  0.6009  1.5012  2.7943
   33CHL1    C5 3556   2.640   3.155   5.683 -0.1384 -0.1120  0.4937
   33CHL1    C6 3557   2.679   3.040   5.623  0.2907  1.0787  0.0817
   33CHL1    H6 3558   2.732   2.966   5.686 -0.0335  0.6434 -0.1548
   33CHL1    C7 3559   2.676   3.015   5.477  0.6357  0.1311 -0.0769
   33CHL1   H7A 3560   2.777   2.984   5.440 -0.8821  0.6287 -5.6133
   33CHL1   H7B 3561   2.606   2.930   5.464  1.7378 -0.9754  0.8463
   33CHL1    C8 3562   2.635   3.143   5.387  0.8574 -0.1468  0.4900
   33CHL1    H8 3563   2.730   3.196   5.366  1.0058 -0.9008 -0.8217
   33CHL1   C14 3564   2.569   3.104   5.258 -0.2022 -0.5832  0.2716
   33CHL1   H14 3565   2.470   3.061   5.284 -1.1572  0.6616 -1.0861
   33CHL1   C15 3566   2.641   2.998   5.177  0.4925  0.7510  0.0951
   33CHL1  H15A 3567   2.750   3.013   5.188  0.4156  0.6159  1.1286
   33CHL1  H15B 3568   2.610   2.897   5.211 -1.5026  1.1275 -0.4576
   33CHL1   C16 3569   2.579   3.016   5.042 -0.2938  0.4372 -0.2224
   33CHL1  H16A 3570   2.650   3.044   4.962 -1.7936  0.9166 -1.4431
   33CHL1  H16B 3571   2.523   2.924   5.013  0.7724 -0.2607 -0.1420
   33CHL1   C17 3572   2.491   3.141   5.034  0.1356  0.1991 -1.0321
   33CHL1   H17 3573   2.387   3.112   5.059  0.2840  0.6135  0.1025
   33CHL1   C13 3574   2.537   3.219   5.155  0.2837  0.9950 -0.0006
   33CHL1   C18 3575   2.663   3.293   5.113 -0.2338 -0.2926 -0.4354
   33CHL1  H18A 3576   2.738   3.224   5.069 -0.6047 -0.8483 -0.2015
   33CHL1  H18B 3577   2.637   3.372   5.038  0.4307  0.9900  0.6346
   33CHL1  H18C 3578   2.714   3.337   5.201 -1.1839 -0.4717  0.2220
   33CHL1   C12 3579   2.442   3.312   5.226  0.2973 -0.0938 -0.2960
   33CHL1  H12A 3580   2.413   3.405   5.171  0.8131  1.1650  1.4555
   33CHL1  H12B 3581   2.348   3.255   5.242  0.2850 -0.1921 -0.7201
   33CHL1   C11 3582   2.497   3.357   5.366  0.2858  0.1058  0.3906
   33CHL1  H11A 3583   2.589   3.418   5.356  1.9544 -2.4952 -1.4520
   33CHL1  H11B 3584   2.423   3.424   5.416  0.5335  2.4610 -2.2101
   33CHL1    C9 3585   2.536   3.233   5.460 -1.3974 -0.6279 -0.3035
   33CHL1    H9 3586   2.442   3.174   5.471 -0.8104 -1.7731 -1.2119
   33CHL1   C10 3587   2.580   3.275   5.605 -0.5271 -0.2760  0.3593
   33CHL1   C19 3588   2.692   3.387   5.602 -0.6006 -0.4557 -0.5967
   33CHL1  H19A 3589   2.785   3.339   5.564  1.9078 -0.1494  4.3738
   33CHL1  H19B 3590   2.668   3.470   5.533  1.4583  0.3274 -0.4434
   33CHL1  H19C 3591   2.714   3.434   5.700 -1.3203 -0.4099 -0.4539
   33CHL1    C1 3592   2.458   3.333   5.690 -0.4506  0.8390  0.8206
   33CHL1   H1A 3593   2.420   3.427   5.643 -1.4200  0.7055  1.3072
   33CHL1   H1B 3594   2.382   3.253   5.675 -0.3094  0.8363  0.0894
   33CHL1    C2 3595   2.482   3.359   5.832  0.1405 -0.6261 -1.2136
   33CHL1   H2A 3596   2.396   3.400   5.888  0.8582  0.7752 -1.1046
   33CHL1   H2B 3597   2.559   3.436   5.856 -1.5734  1.0037 -0.7404
   33CHL1   C20 3598   2.483   3.210   4.890  0.2843 -0.4228  0.3176
   33CHL1   H20 3599   2.587   3.246   4.870 -0.1727 -0.0792 -1.6507
   33CHL1   C21 3600   2.377   3.322   4.904 -0.0211  0.4160 -1.2163
   33CHL1  H21A 3601   2.351   3.354   4.801 -0.8067  0.2966 -1.0661
   33CHL1  H21B 3602   2.419   3.407   4.960  0.6183 -1.1741  0.8453
   33CHL1  H21C 3603   2.279   3.287   4.944 -0.7200 -0.1617 -3.2577
   33CHL1   C22 3604   2.458   3.110   4.773 -0.5698 -0.3311  0.3230
   33CHL1  H22A 3605   2.465   3.162   4.675  1.0878  0.1771  0.6774
   33CHL1  H22B 3606   2.538   3.034   4.763  1.1305  1.2553  1.2536
   33CHL1   C23 3607   2.323   3.039   4.778 -0.0048  0.0303  0.0260
   33CHL1  H23A 3608   2.308   2.982   4.872 -2.0607 -1.3924 -1.0892
   33CHL1  H23B 3609   2.236   3.107   4.781  0.7550  1.0419 -0.4102
   33CHL1   C24 3610   2.305   2.942   4.667 -0.4671 -0.0498  0.7146
   33CHL1  H24A 3611   2.389   2.870   4.654  1.0059  2.0471 -2.9489
   33CHL1  H24B 3612   2.211   2.883   4.680 -2.1649  1.5433 -2.9309
   33CHL1   C25 3613   2.302   3.003   4.525  0.1186 -0.0507 -0.4522
   33CHL1   H25 3614   2.387   3.070   4.499 -0.3899 -0.3235 -3.1213
   33CHL1   C26 3615   2.319   2.884   4.430  0.0849 -0.1148  0.2692
   33CHL1  H26A 3616   2.240   2.806   4.438 -0.0120 -0.1107 -0.5637
   33CHL1  H26B 3617   2.328   2.908   4.322 -0.6121 -0.6369  0.0912
   33CHL1  H26C 3618   2.417   2.840   4.459 -0.3735  0.2326  2.5497
   33CHL1   C27 3619   2.172   3.076   4.500 -0.0878 -0.0911  0.3029
   33CHL1  H27A 3620   2.084   3.010   4.518 -0.9585  0.8748 -0.3069
   33CHL1  H27B 3621   2.163   3.156   4.577  1.0856 -2.3049  2.9466
   33CHL1  H27C 3622   2.165   3.116   4.397 -0.1279  0.1551  0.3999
   34CHL1    C3 3623   2.456   6.255   5.933  0.4620 -0.4665 -0.7469
   34CHL1    H3 3624   2.382   6.336   5.919 -0.2525 -0.8063  0.7837
   34CHL1    O3 3625   2.478   6.238   6.072  0.3560  0.2422 -0.2620
   34CHL1   H3' 3626   2.573   6.233   6.080  0.7615  3.5018 -1.5427
   34CHL1    C4 3627   2.394   6.124   5.881 -0.1979  0.0740  0.0671
   34CHL1   H4A 3628   2.450   6.031   5.902  0.2991  0.6249  1.2436
   34CHL1   H4B 3629   2.304   6.106   5.944  0.4196  0.2586  1.0229
   34CHL1    C5 3630   2.358   6.129   5.737 -0.7766 -0.2425 -0.5501
   34CHL1    C6 3631   2.232   6.113   5.698  0.0481 -0.0350 -0.2923
   34CHL1    H6 3632   2.145   6.090   5.761  0.6687 -2.6348 -0.2539
   34CHL1    C7 3633   2.203   6.107   5.550 -0.0645  0.6464  0.3060
   34CHL1   H7A 3634   2.144   6.015   5.532  0.3824 -0.2371  3.0084
   34CHL1   H7B 3635   2.155   6.203   5.523  0.8482  1.4089  1.3208
   34CHL1    C8 3636   2.332   6.086   5.457  0.7098 -0.4958  0.3199
   34CHL1    H8 3637   2.360   5.978   5.464 -2.7817 -1.4945  0.6640
   34CHL1   C14 3638   2.294   6.098   5.311  0.0275  0.2179 -0.8484
   34CHL1   H14 3639   2.246   6.198   5.307 -3.9273 -1.4027  0.6913
   34CHL1   C15 3640   2.188   6.003   5.247 -0.0021 -0.1038  0.3714
   34CHL1  H15A 3641   2.217   5.899   5.275 -0.5695  0.2326  2.3628
   34CHL1  H15B 3642   2.088   6.019   5.294 -0.9066  1.2938 -1.8524
   34CHL1   C16 3643   2.205   6.028   5.096 -0.5032 -0.5442 -0.1756
   34CHL1  H16A 3644   2.246   5.932   5.057 -3.1675 -1.3970 -1.0541
   34CHL1  H16B 3645   2.116   6.054   5.035 -1.4919 -2.4318  0.4016
   34CHL1   C17 3646   2.325   6.131   5.084  0.3001  0.1967 -0.1907
   34CHL1   H17 3647   2.278   6.230   5.101  0.9475  0.3657  0.6951
   34CHL1   C13 3648   2.407   6.109   5.210 -0.2363  0.1738  0.2253
   34CHL1   C18 3649   2.484   5.980   5.208  0.3634 -0.6267 -0.1216
   34CHL1  H18A 3650   2.529   5.961   5.308  0.4166 -2.2609 -0.4338
   34CHL1  H18B 3651   2.418   5.891   5.199  1.7034 -1.5058 -1.8608
   34CHL1  H18C 3652   2.568   5.965   5.136 -0.8821 -1.8941 -1.3697
   34CHL1   C12 3653   2.495   6.229   5.249  0.6004 -0.1966 -0.1122
   34CHL1  H12A 3654   2.576   6.241   5.174  0.3542 -0.6076 -0.4470
   34CHL1  H12B 3655   2.428   6.317   5.239  0.9157  0.1152  0.4729
   34CHL1   C11 3656   2.555   6.216   5.395 -0.0878 -0.1979  0.5211
   34CHL1  H11A 3657   2.631   6.136   5.396  0.7190  0.4320 -1.9913
   34CHL1  H11B 3658   2.601   6.314   5.422  0.8183 -0.8092  1.2367
   34CHL1    C9 3659   2.439   6.189   5.499  0.0220  0.4154  0.9202
   34CHL1    H9 3660   2.378   6.281   5.492 -1.1349 -0.4459 -1.6281
   34CHL1   C10 3661   2.479   6.165   5.651 -0.7543  0.2367  0.1649
   34CHL1   C19 3662   2.566   6.034   5.666 -0.3670 -0.1883  0.0892
   34CHL1  H19A 3663   2.644   6.025   5.587 -0.5300 -0.7997 -0.0035
   34CHL1  H19B 3664   2.620   6.033   5.763 -1.5074  0.0548  0.7528
   34CHL1  H19C 3665   2.499   5.946   5.654  1.3310 -1.2799 -2.2496
   34CHL1    C1 3666   2.555   6.291   5.701 -0.0263 -0.5222 -0.2946
   34CHL1   H1A 3667   2.652   6.311   5.652 -0.4556 -0.2443 -1.0467
   34CHL1   H1B 3668   2.492   6.379   5.672 -1.3431 -1.4095 -0.2343
   34CHL1    C2 3669   2.576   6.289   5.854 -0.0983  0.1995  0.0500
   34CHL1   H2A 3670   2.629   6.377   5.897 -0.8662  0.0070  1.4594
   34CHL1   H2B 3671   2.645   6.204   5.874  1.9723  1.3290 -1.8386
   34CHL1   C20 3672   2.388   6.143   4.942 -0.1007  0.3369  0.0045
   34CHL1   H20 3673   2.440   6.045   4.937 -0.2873  0.3052 -2.2680
   34CHL1   C21 3674   2.501   6.246   4.920 -0.2731  0.6031 -0.3082
   34CHL1  H21A 3675   2.457   6.341   4.957  0.3954 -0.5656  4.0245
   34CHL1  H21B 3676   2.538   6.249   4.815 -2.6615 -0.9963 -1.3040
   34CHL1  H21C 3677   2.583   6.225   4.991 -1.3716  1.6531  1.3594
   34CHL1   C22 3678   2.276   6.147   4.832 -0.0769  0.2325  0.1549
   34CHL1  H22A 3679   2.324   6.160   4.732 -0.6721 -2.6544 -0.5934
   34CHL1  H22B 3680   2.224   6.049   4.838  2.2612 -1.2385 -1.5753
   34CHL1   C23 3681   2.176   6.268   4.848  0.0845  1.0038 -0.0377
   34CHL1  H23A 3682   2.129   6.251   4.948  0.9538  0.3946  0.2762
   34CHL1  H23B 3683   2.234   6.362   4.859  0.1481  1.0299 -0.5590
   34CHL1   C24 3684   2.070   6.267   4.742  0.2952  0.2825 -0.8073
   34CHL1  H24A 3685   2.127   6.299   4.652  2.8845  2.2005  1.3488
   34CHL1  H24B 3686   2.022   6.169   4.716  1.1092 -0.0227 -1.2028
   34CHL1   C25 3687   1.964   6.371   4.755  0.8955 -0.9508 -0.3681
   34CHL1   H25 3688   1.900   6.356   4.845 -0.6770  0.2851 -1.2366
   34CHL1   C26 3689   2.017   6.517   4.753  0.4631 -0.0528 -1.0373
   34CHL1  H26A 3690   1.933   6.585   4.729 -1.1017 -1.1383  0.9769
   34CHL1  H26B 3691   2.072   6.551   4.843 -2.3928  1.4967  0.2182
   34CHL1  H26C 3692   2.084   6.526   4.664 -2.0499  0.2296 -3.0108
   34CHL1   C27 3693   1.877   6.355   4.630  0.0727 -0.1119 -0.0342
   34CHL1  H27A 3694   1.852   6.248   4.614  3.3169 -1.1150  0.7525
   34CHL1  H27B 3695   1.785   6.416   4.637 -0.0777 -0.4639  1.1931
   34CHL1  H27C 3696   1.929   6.383   4.535 -0.9183  2.6275  0.1376
   35CHL1    C3 3697   6.319   5.958   6.270 -0.4907 -0.1766  0.2164
   35CHL1    H3 3698   6.381   6.049   6.256 -2.4454  1.5998  2.3094
   35CHL1    O3 3699   6.320   5.911   6.407 -0.8030 -0.0080  0.1496
   35CHL1   H3' 3700   6.240   5.859   6.419  0.8564 -2.6885  0.3351
   35CHL1    C4 3701   6.174   5.991   6.223  0.4806  0.5351 -0.5948
   35CHL1   H4A 3702   6.107   5.904   6.240  1.3282 -0.3200 -1.5035
   35CHL1   H4B 3703   6.141   6.074   6.289  1.2484  1.6603 -1.5789
   35CHL1    C5 3704   6.174   6.029   6.077  0.3167  0.1225  0.3555
   35CHL1    C6 3705   6.122   6.146   6.027  0.1684 -0.1509  0.1712
   35CHL1    H6 3706   6.080   6.219   6.097 -1.1764 -0.5754 -0.1768
   35CHL1    C7 3707   6.121   6.203   5.883  0.6237 -0.1695 -0.2454
   35CHL1   H7A 3708   6.026   6.258   5.869  0.9269  0.0983 -1.3433
   35CHL1   H7B 3709   6.205   6.276   5.883  1.3371 -0.9225  2.0197
   35CHL1    C8 3710   6.145   6.085   5.791  0.2663 -0.0315  0.0721
   35CHL1    H8 3711   6.060   6.013   5.790  0.1546  0.0912  0.4181
   35CHL1   C14 3712   6.157   6.126   5.651  0.6576 -0.0417 -0.1628
   35CHL1   H14 3713   6.235   6.204   5.649 -1.0586  1.8108  0.9880
   35CHL1   C15 3714   6.040   6.202   5.595 -0.3908  0.5734 -0.6483
   35CHL1  H15A 3715   5.943   6.154   5.621  1.2522 -1.3505  2.6072
   35CHL1  H15B 3716   6.039   6.306   5.634 -0.3661 -0.1948  1.5215
   35CHL1   C16 3717   6.074   6.207   5.443  0.3605  0.1123  0.9964
   35CHL1  H16A 3718   5.984   6.170   5.388 -0.2624 -1.5807  3.0480
   35CHL1  H16B 3719   6.107   6.309   5.412 -1.8753  0.5366 -0.2936
   35CHL1   C17 3720   6.198   6.111   5.420 -0.2555 -0.0612  0.4579
   35CHL1   H17 3721   6.285   6.180   5.423 -0.8236  0.6537  2.0912
   35CHL1   C13 3722   6.199   6.026   5.551  0.4985 -0.0549 -0.1887
   35CHL1   C18 3723   6.102   5.906   5.528 -0.0386  0.2713 -0.4695
   35CHL1  H18A 3724   6.058   5.884   5.628 -2.2096 -0.8503 -1.5812
   35CHL1  H18B 3725   6.015   5.926   5.460  0.9068  2.0055 -1.2412
   35CHL1  H18C 3726   6.157   5.818   5.487 -0.3407 -0.5715  0.8647
   35CHL1   C12 3727   6.342   5.979   5.596  0.3966  0.2142 -0.1926
   35CHL1  H12A 3728   6.393   5.918   5.518 -0.3033  0.3172 -0.7489
   35CHL1  H12B 3729   6.410   6.067   5.606  2.0635 -1.0606  0.2281
   35CHL1   C11 3730   6.336   5.914   5.734 -0.4198 -0.5640  0.7623
   35CHL1  H11A 3731   6.300   5.809   5.734  0.2464 -0.8023  1.3482
   35CHL1  H11B 3732   6.438   5.894   5.773  0.6813  0.1282 -1.5780
   35CHL1    C9 3733   6.263   6.000   5.847  0.3041 -0.5540  0.0734
   35CHL1    H9 3734   6.343   6.072   5.874 -0.4298  0.7843 -1.1750
   35CHL1   C10 3735   6.242   5.928   5.984 -0.1554 -0.3041 -0.6993
   35CHL1   C19 3736   6.147   5.807   5.966 -0.4568  0.0347 -0.2057
   35CHL1  H19A 3737   6.202   5.731   5.906  0.1702 -0.4774  0.9790
   35CHL1  H19B 3738   6.134   5.761   6.067 -0.2319 -1.8618 -0.9877
   35CHL1  H19C 3739   6.045   5.826   5.925 -2.8799 -1.7896  4.2790
   35CHL1    C1 3740   6.380   5.883   6.037  0.5392  0.2774 -0.4452
   35CHL1   H1A 3741   6.404   5.795   5.975 -1.6081 -0.7379  0.0620
   35CHL1   H1B 3742   6.439   5.977   6.030  0.3509  0.7902  2.9702
   35CHL1    C2 3743   6.392   5.850   6.188  0.6642  0.3365 -0.1344
   35CHL1   H2A 3744   6.496   5.838   6.223  0.9545  1.3998 -0.5856
   35CHL1   H2B 3745   6.347   5.752   6.214  1.0719  0.0515 -0.4879
   35CHL1   C20 3746   6.192   6.052   5.281  0.0133 -0.0624  0.7307
   35CHL1   H20 3747   6.100   5.995   5.259  0.9381 -1.0373 -0.7381
   35CHL1   C21 3748   6.308   5.951   5.275 -0.1578 -0.0799  0.2146
   35CHL1  H21A 3749   6.318   5.911   5.172  1.5092  0.7942 -0.0041
   35CHL1  H21B 3750   6.294   5.863   5.341 -1.2400 -0.8150 -0.9565
   35CHL1  H21C 3751   6.402   6.006   5.296  0.0635  0.5645 -2.1544
   35CHL1   C22 3752   6.200   6.159   5.165  0.2114  0.6329 -0.0169
   35CHL1  H22A 3753   6.159   6.259   5.189 -1.0285  1.2522 -3.9885
   35CHL1  H22B 3754   6.310   6.171   5.158  0.8762 -1.7258  3.4552
   35CHL1   C23 3755   6.154   6.116   5.032  0.0778 -0.2298  0.0816
   35CHL1  H23A 3756   6.195   6.017   5.002  1.6437 -0.2150  1.9725
   35CHL1  H23B 3757   6.043   6.109   5.034  0.0440 -0.5945 -1.4695
   35CHL1   C24 3758   6.189   6.223   4.924 -0.5910  0.0443 -0.0509
   35CHL1  H24A 3759   6.160   6.320   4.970 -0.6601 -1.3426  3.1206
   35CHL1  H24B 3760   6.297   6.226   4.899 -0.3724 -1.5957  0.5774
   35CHL1   C25 3761   6.112   6.191   4.789  0.2153  0.0772  0.3843
   35CHL1   H25 3762   6.004   6.204   4.814 -0.9680 -1.9892 -2.9083
   35CHL1   C26 3763   6.149   6.289   4.681  0.1484  1.0793  0.2825
   35CHL1  H26A 3764   6.252   6.281   4.640 -0.1204  0.9176 -0.3785
   35CHL1  H26B 3765   6.080   6.267   4.597 -0.9397  1.3142  1.0939
   35CHL1  H26C 3766   6.149   6.393   4.720  1.7725  2.2425 -2.5159
   35CHL1   C27 3767   6.141   6.040   4.741  0.4796 -0.0975 -0.0091
   35CHL1  H27A 3768   6.081   6.023   4.649  0.0839  3.7829 -0.6055
   35CHL1  H27B 3769   6.250   6.025   4.725  0.5742 -1.3604  1.4648
   35CHL1  H27C 3770   6.113   5.970   4.823  2.0946  1.2876  1.8321
   36CHL1    C3 3771   2.135   4.432   6.197  0.1306  0.3254  0.3489
   36CHL1    H3 3772   2.110   4.540   6.196 -2.7040 -0.2352 -1.3807
   36CHL1    O3 3773   2.158   4.401   6.333  0.0882  0.5302  0.4006
   36CHL1   H3' 3774   2.239   4.449   6.354  0.8554 -0.7307  0.4073
   36CHL1    C4 3775   2.006   4.363   6.144 -0.5086  0.0198 -0.5991
   36CHL1   H4A 3776   2.008   4.258   6.180  0.4131  0.3125  0.2335
   36CHL1   H4B 3777   1.922   4.408   6.202 -1.1952 -0.5092 -1.1540
   36CHL1    C5 3778   1.979   4.380   5.994 -0.1807  0.5392 -0.0905
   36CHL1    C6 3779   1.865   4.424   5.943  0.3799  0.2311  0.1926
   36CHL1    H6 3780   1.784   4.443   6.015 -0.5450 -0.5535 -0.6088
   36CHL1    C7 3781   1.845   4.458   5.797  0.6009  0.1538 -0.3417
   36CHL1   H7A 3782   1.744   4.425   5.765  0.3398  0.1011  0.5001
   36CHL1   H7B 3783   1.829   4.567   5.778 -0.6488  0.5108  2.2865
   36CHL1    C8 3784   1.947   4.399   5.695  0.2518 -0.3814  0.0196
   36CHL1    H8 3785   1.936   4.288   5.688 -1.1642 -0.2581  0.0516
   36CHL1   C14 3786   1.929   4.467   5.554 -0.7467  0.7656 -0.3740
   36CHL1   H14 3787   1.950   4.576   5.553 -0.7468  0.8188 -3.0858
   36CHL1   C15 3788   1.789   4.458   5.481  0.4090  0.2084 -0.0654
   36CHL1  H15A 3789   1.738   4.359   5.488 -2.8193  1.7285 -0.5546
   36CHL1  H15B 3790   1.717   4.536   5.514  0.2751 -0.5258  1.4585
   36CHL1   C16 3791   1.832   4.489   5.336 -0.0610 -0.0291  0.5623
   36CHL1  H16A 3792   1.785   4.409   5.274  2.3061 -1.3637  0.3658
   36CHL1  H16B 3793   1.790   4.581   5.291 -0.6685 -1.1139 -1.1960
   36CHL1   C17 3794   1.980   4.480   5.325 -0.3644 -0.2234 -0.2999
   36CHL1   H17 3795   2.017   4.585   5.326  0.5329 -0.4189 -3.5194
   36CHL1   C13 3796   2.028   4.408   5.452  0.1432 -0.3715  0.2832
   36CHL1   C18 3797   2.004   4.255   5.428  0.9291 -0.4150  0.2466
   36CHL1  H18A 3798   2.037   4.195   5.516 -0.7673 -0.0915  1.1610
   36CHL1  H18B 3799   1.901   4.218   5.408  0.1925 -0.0257  2.8804
   36CHL1  H18C 3800   2.074   4.216   5.351  2.5595 -2.4948  2.5944
   36CHL1   C12 3801   2.174   4.439   5.502  0.5804  0.6903  0.7918
   36CHL1  H12A 3802   2.247   4.403   5.427 -1.1759  0.6908 -0.9963
   36CHL1  H12B 3803   2.176   4.550   5.507  1.3347  1.0655 -3.8069
   36CHL1   C11 3804   2.197   4.391   5.642  0.5138 -0.3500  0.1585
   36CHL1  H11A 3805   2.210   4.281   5.639 -4.5430 -1.1635 -0.6921
   36CHL1  H11B 3806   2.285   4.443   5.686  0.5943 -1.2938  1.1512
   36CHL1    C9 3807   2.089   4.420   5.751  0.6061  0.4066  0.2480
   36CHL1    H9 3808   2.087   4.531   5.760 -0.0821  0.4441 -0.2492
   36CHL1   C10 3809   2.105   4.373   5.904 -0.0166  0.4763 -0.2973
   36CHL1   C19 3810   2.135   4.220   5.897 -0.2032 -0.2330  0.1176
   36CHL1  H19A 3811   2.147   4.171   5.996 -0.4890  0.5702  0.5601
   36CHL1  H19B 3812   2.050   4.168   5.848 -0.6253 -0.9490  1.5619
   36CHL1  H19C 3813   2.224   4.197   5.834 -0.0550  1.5491 -0.3816
   36CHL1    C1 3814   2.235   4.440   5.958 -0.7268 -0.1557 -0.2746
   36CHL1   H1A 3815   2.325   4.395   5.910 -1.7573 -0.1747 -2.2880
   36CHL1   H1B 3816   2.213   4.547   5.939 -1.3275 -0.0501  0.9604
   36CHL1    C2 3817   2.254   4.405   6.110 -0.2984  0.5181  0.2188
   36CHL1   H2A 3818   2.341   4.464   6.147  0.5667  1.4130 -2.9104
   36CHL1   H2B 3819   2.277   4.297   6.111 -1.1415  0.3373  0.5383
   36CHL1   C20 3820   2.022   4.433   5.178  0.0407  0.2840 -0.7743
   36CHL1   H20 3821   1.973   4.333   5.173  2.0621 -0.8068  0.0025
   36CHL1   C21 3822   2.175   4.409   5.163  0.4126 -0.3587  0.2326
   36CHL1  H21A 3823   2.199   4.373   5.061 -0.9468 -0.6776  0.0068
   36CHL1  H21B 3824   2.223   4.332   5.227  1.8992 -0.7712 -1.3049
   36CHL1  H21C 3825   2.228   4.504   5.184 -0.1113  0.4866 -2.0287
   36CHL1   C22 3826   1.965   4.518   5.061 -0.4888 -0.1814 -0.1215
   36CHL1  H22A 3827   1.874   4.575   5.091 -0.8637 -0.4644 -0.7009
   36CHL1  H22B 3828   2.047   4.591   5.049  1.0599 -1.8255  0.0939
   36CHL1   C23 3829   1.954   4.442   4.934  0.2276  0.3285  0.4441
   36CHL1  H23A 3830   2.039   4.375   4.909  0.8701  0.0742  3.0544
   36CHL1  H23B 3831   1.866   4.376   4.948  1.2756 -1.5812 -1.3246
   36CHL1   C24 3832   1.926   4.518   4.804  0.3715 -1.0240 -0.4731
   36CHL1  H24A 3833   2.023   4.553   4.763  0.1110  3.0368  1.9104
   36CHL1  H24B 3834   1.883   4.446   4.731  0.6522  1.6936 -3.5679
   36CHL1   C25 3835   1.825   4.642   4.816 -0.5507 -0.4648 -0.1902
   36CHL1   H25 3836   1.861   4.707   4.898 -1.2532 -1.7430  1.1892
   36CHL1   C26 3837   1.844   4.721   4.688 -0.8547 -0.7444 -0.0037
   36CHL1  H26A 3838   1.826   4.662   4.595  1.2131 -0.4454 -0.6542
   36CHL1  H26B 3839   1.770   4.803   4.704  2.0437  1.4219  4.2509
   36CHL1  H26C 3840   1.949   4.757   4.678 -0.9429 -0.3760  0.3796
   36CHL1   C27 3841   1.680   4.598   4.837 -0.4262 -0.3834  0.3271
   36CHL1  H27A 3842   1.616   4.689   4.834  2.7580  2.0531 -0.6412
   36CHL1  H27B 3843   1.649   4.528   4.757 -2.0187 -0.1943  0.7604
   36CHL1  H27C 3844   1.667   4.543   4.932  1.5407 -1.2369  0.1483
   37CHL1    C3 3845   3.598   2.684   5.894 -0.8500  0.3228 -0.2744
   37CHL1    H3 3846   3.678   2.759   5.881 -1.4651  0.9080 -0.7368
   37CHL1    O3 3847   3.586   2.657   6.035  0.2008  0.1598  0.0273
   37CHL1   H3' 3848   3.553   2.567   6.043  0.9332  0.0467  3.1860
   37CHL1    C4 3849   3.461   2.719   5.844  0.8186 -0.8029  0.4290
   37CHL1   H4A 3850   3.397   2.635   5.878 -0.3050 -1.0521 -2.1034
   37CHL1   H4B 3851   3.434   2.805   5.909  0.9289 -0.4170 -0.0265
   37CHL1    C5 3852   3.455   2.744   5.694  0.6395 -0.2343 -0.0039
   37CHL1    C6 3853   3.424   2.865   5.647  0.1142  0.3307 -0.2776
   37CHL1    H6 3854   3.410   2.945   5.721 -0.1154 -0.4169  0.4933
   37CHL1    C7 3855   3.424   2.902   5.505  0.5048  0.5191  0.6758
   37CHL1   H7A 3856   3.343   2.976   5.484  0.0275  0.4138  2.0313
   37CHL1   H7B 3857   3.521   2.950   5.482 -0.4387  1.6880 -1.1154
   37CHL1    C8 3858   3.416   2.772   5.416  0.2115 -0.1121 -0.0682
   37CHL1    H8 3859   3.315   2.726   5.413 -0.6250  1.6547 -0.3323
   37CHL1   C14 3860   3.453   2.803   5.275  0.2316  0.0293  0.4058
   37CHL1   H14 3861   3.553   2.851   5.269  0.9073 -1.5168 -1.8991
   37CHL1   C15 3862   3.355   2.901   5.207  0.3685  0.6938  0.0974
   37CHL1  H15A 3863   3.250   2.866   5.214  0.1694  0.7470 -1.8968
   37CHL1  H15B 3864   3.374   2.996   5.261  0.7818  1.0596 -0.6632
   37CHL1   C16 3865   3.405   2.896   5.061  0.1612 -1.1004  0.1386
   37CHL1  H16A 3866   3.315   2.886   4.997  1.0347  0.4941 -1.4214
   37CHL1  H16B 3867   3.458   2.987   5.025 -2.5341  1.5865  2.3817
   37CHL1   C17 3868   3.495   2.769   5.047 -0.3929  0.4556  0.1493
   37CHL1   H17 3869   3.600   2.804   5.048 -0.5520  1.1958 -2.2243
   37CHL1   C13 3870   3.473   2.687   5.175  0.7108 -0.1696  0.7499
   37CHL1   C18 3871   3.343   2.609   5.153 -0.3213  0.3756 -0.3314
   37CHL1  H18A 3872   3.253   2.663   5.117 -2.0420 -1.8917  0.3264
   37CHL1  H18B 3873   3.358   2.520   5.088  1.5737 -0.9537  1.7735
   37CHL1  H18C 3874   3.307   2.562   5.247  2.6438  0.0377  0.7410
   37CHL1   C12 3875   3.585   2.601   5.230  0.0011  0.2634 -0.0210
   37CHL1  H12A 3876   3.609   2.512   5.167 -2.5724 -1.0280  0.6478
   37CHL1  H12B 3877   3.674   2.666   5.229  0.6611 -0.6225 -0.4487
   37CHL1   C11 3878   3.552   2.552   5.378  0.0903  0.1710  0.1455
   37CHL1  H11A 3879   3.476   2.472   5.370 -1.0500  1.3991 -2.2703
   37CHL1  H11B 3880   3.644   2.501   5.415  0.1784 -0.4297 -0.8527
   37CHL1    C9 3881   3.525   2.675   5.469  0.4113  0.2729  0.2511
   37CHL1    H9 3882   3.617   2.738   5.469  1.0172 -0.5663  1.4135
   37CHL1   C10 3883   3.512   2.628   5.612  0.6730 -0.8857  0.9243
   37CHL1   C19 3884   3.408   2.514   5.628 -0.1493 -0.2056  0.3544
   37CHL1  H19A 3885   3.367   2.487   5.727  1.4114  0.9062  1.3583
   37CHL1  H19B 3886   3.319   2.534   5.565  0.6838  2.8769 -0.0277
   37CHL1  H19C 3887   3.446   2.416   5.592  1.8078  0.1351  1.3112
   37CHL1    C1 3888   3.649   2.578   5.668 -0.1479  0.0049 -0.4575
   37CHL1   H1A 3889   3.670   2.485   5.609  3.5432  1.5336 -1.8941
   37CHL1   H1B 3890   3.736   2.645   5.651  2.1680 -2.5945  0.2615
   37CHL1    C2 3891   3.644   2.556   5.824 -0.4612 -0.1411 -0.1539
   37CHL1   H2A 3892   3.749   2.528   5.849 -0.4056  0.1586 -0.0386
   37CHL1   H2B 3893   3.577   2.469   5.844  0.4009 -0.8337 -0.2056
   37CHL1   C20 3894   3.469   2.697   4.911  0.4205 -0.0783 -0.6684
   37CHL1   H20 3895   3.364   2.661   4.908 -0.2265  1.4756  0.9149
   37CHL1   C21 3896   3.553   2.571   4.890  0.6157 -0.0865  0.0325
   37CHL1  H21A 3897   3.544   2.519   4.792  2.7016  0.8343 -0.7218
   37CHL1  H21B 3898   3.527   2.493   4.964  0.2960  0.6686  0.7239
   37CHL1  H21C 3899   3.661   2.596   4.903  0.5463 -0.1416  0.7614
   37CHL1   C22 3900   3.492   2.793   4.791  0.1850 -0.2693  0.5153
   37CHL1  H22A 3901   3.514   2.901   4.807  1.2596 -0.2596 -0.7834
   37CHL1  H22B 3902   3.584   2.755   4.740  0.8532 -0.0924  1.5621
   37CHL1   C23 3903   3.374   2.789   4.687 -0.9518 -0.6178 -0.4248
   37CHL1  H23A 3904   3.348   2.681   4.682 -0.1011 -1.0535  2.5688
   37CHL1  H23B 3905   3.281   2.842   4.715 -0.6105 -0.0007 -0.4519
   37CHL1   C24 3906   3.408   2.841   4.552  0.1789 -0.0930  0.9720
   37CHL1  H24A 3907   3.506   2.803   4.515 -0.4533  0.2992 -1.2536
   37CHL1  H24B 3908   3.335   2.795   4.482  0.7849  0.9984 -0.4273
   37CHL1   C25 3909   3.422   2.986   4.528 -0.6229  0.3122 -0.4945
   37CHL1   H25 3910   3.504   3.028   4.590 -1.2878  1.8741 -0.6167
   37CHL1   C26 3911   3.452   3.026   4.380 -0.0839  0.2863 -0.3114
   37CHL1  H26A 3912   3.361   3.002   4.321  0.0239  0.1083 -0.4090
   37CHL1  H26B 3913   3.484   3.132   4.378  0.1996  0.3327 -5.1685
   37CHL1  H26C 3914   3.543   2.969   4.352  0.2508  0.2340  0.8129
   37CHL1   C27 3915   3.297   3.067   4.564  0.1102 -0.4828  0.4817
   37CHL1  H27A 3916   3.315   3.175   4.543 -0.4566 -0.2944  0.9420
   37CHL1  H27B 3917   3.210   3.040   4.500 -0.0897  1.0660  0.0506
   37CHL1  H27C 3918   3.273   3.051   4.671  2.4374  1.2817  1.3686
   38CHL1    C3 3919   4.844   2.808   6.204 -0.6128 -0.0551  1.0388
   38CHL1    H3 3920   4.890   2.713   6.169  0.0531  0.2776  1.0114
   38CHL1    O3 3921   4.833   2.807   6.347 -0.4689  0.4076  0.2145
   38CHL1   H3' 3922   4.786   2.884   6.380 -1.0716 -0.3030  1.0576
   38CHL1    C4 3923   4.942   2.926   6.163  0.0137  0.0739 -0.7587
   38CHL1   H4A 3924   4.927   3.022   6.217  0.2624  0.1543 -0.8310
   38CHL1   H4B 3925   5.040   2.894   6.205 -0.5381  1.0737  1.4478
   38CHL1    C5 3926   4.960   2.953   6.018 -0.3313 -0.3213  1.1489
   38CHL1    C6 3927   5.083   2.966   5.960 -0.2190  0.7088  0.6185
   38CHL1    H6 3928   5.177   2.945   6.013  0.7921  2.0076 -0.6006
   38CHL1    C7 3929   5.103   2.998   5.816 -0.1849 -0.4651 -0.2393
   38CHL1   H7A 3930   5.174   3.083   5.808  1.5311 -1.8614 -0.5516
   38CHL1   H7B 3931   5.145   2.908   5.767 -0.5963  0.2010 -1.8950
   38CHL1    C8 3932   4.973   3.045   5.745 -0.1029 -0.5188 -0.3384
   38CHL1    H8 3933   4.955   3.149   5.780 -0.8791 -1.0919  1.0522
   38CHL1   C14 3934   4.998   3.045   5.598 -0.5269 -0.1217  0.5544
   38CHL1   H14 3935   5.013   2.939   5.570 -0.2108 -0.7443  2.8521
   38CHL1   C15 3936   5.111   3.136   5.547  0.3299  0.0555 -0.0850
   38CHL1  H15A 3937   5.112   3.232   5.602  2.2000  0.2830 -0.4434
   38CHL1  H15B 3938   5.212   3.095   5.569 -0.0308 -0.4679  0.6799
   38CHL1   C16 3939   5.070   3.148   5.398  0.2908  0.4046  0.5737
   38CHL1  H16A 3940   5.082   3.253   5.364  0.3417  0.2725  0.1667
   38CHL1  H16B 3941   5.138   3.083   5.339  1.9601  1.8887  0.8009
   38CHL1   C17 3942   4.922   3.104   5.379 -0.0735  0.1106  0.8803
   38CHL1   H17 3943   4.915   3.004   5.331 -0.3596  1.0592 -1.1631
   38CHL1   C13 3944   4.873   3.100   5.520  0.7281 -0.3703  0.1823
   38CHL1   C18 3945   4.835   3.245   5.570  1.0511  0.3059  0.2443
   38CHL1  H18A 3946   4.905   3.322   5.530  1.9897 -0.6996 -0.1066
   38CHL1  H18B 3947   4.731   3.264   5.538 -0.0023 -0.6425  2.8357
   38CHL1  H18C 3948   4.831   3.256   5.681 -0.4921  1.8484  0.0692
   38CHL1   C12 3949   4.764   2.993   5.548 -0.0634 -0.8242 -0.0777
   38CHL1  H12A 3950   4.670   3.004   5.490  1.1250 -1.7011 -2.2931
   38CHL1  H12B 3951   4.808   2.899   5.509 -1.3238 -1.3477 -0.2959
   38CHL1   C11 3952   4.731   2.981   5.696 -0.0805 -0.2382  0.2151
   38CHL1  H11A 3953   4.684   3.078   5.721 -1.5505 -0.6369 -0.8486
   38CHL1  H11B 3954   4.654   2.905   5.723 -1.0850  1.0799  1.2050
   38CHL1    C9 3955   4.855   2.953   5.781  0.1346 -0.0953 -0.3506
   38CHL1    H9 3956   4.889   2.849   5.762 -0.7046 -1.2160  3.3771
   38CHL1   C10 3957   4.834   2.960   5.932 -0.7478  0.2813 -0.8415
   38CHL1   C19 3958   4.749   3.086   5.976 -0.2465  0.1022  0.2233
   38CHL1  H19A 3959   4.647   3.080   5.933  0.2873  2.6602 -1.6052
   38CHL1  H19B 3960   4.742   3.098   6.086  1.5425  2.3498  0.1637
   38CHL1  H19C 3961   4.793   3.179   5.935  0.3494 -0.1730  0.2162
   38CHL1    C1 3962   4.742   2.844   5.979 -0.5735 -0.3135 -0.3161
   38CHL1   H1A 3963   4.642   2.848   5.931 -0.5671  1.5806 -0.2205
   38CHL1   H1B 3964   4.787   2.755   5.930  0.6856  1.4214 -2.5239
   38CHL1    C2 3965   4.709   2.826   6.129 -0.3094 -0.5721  0.9806
   38CHL1   H2A 3966   4.647   2.736   6.142  0.5421 -1.3744 -0.3382
   38CHL1   H2B 3967   4.662   2.918   6.170 -0.6070 -0.5811  0.6612
   38CHL1   C20 3968   4.857   3.186   5.266 -0.3598 -0.1944 -0.7652
   38CHL1   H20 3969   4.864   3.290   5.304  1.1407 -0.6921  0.4428
   38CHL1   C21 3970   4.712   3.145   5.242  0.5416  0.4063 -0.1283
   38CHL1  H21A 3971   4.650   3.178   5.328 -1.6390  1.5234 -2.0375
   38CHL1  H21B 3972   4.707   3.034   5.239 -1.5016  0.4697 -0.2801
   38CHL1  H21C 3973   4.665   3.200   5.158  0.0740  1.1204  0.5954
   38CHL1   C22 3974   4.929   3.165   5.132 -0.2533  0.4578 -0.5334
   38CHL1  H22A 3975   5.039   3.166   5.146 -0.0106  0.3588 -2.2226
   38CHL1  H22B 3976   4.886   3.071   5.091 -0.4415  0.5771 -0.6139
   38CHL1   C23 3977   4.906   3.275   5.023  0.2738  0.5933 -0.2097
   38CHL1  H23A 3978   4.798   3.291   5.003 -0.5464 -3.2598  0.3361
   38CHL1  H23B 3979   4.948   3.376   5.044  2.5379 -0.5128  0.8753
   38CHL1   C24 3980   4.987   3.248   4.893 -0.3264  0.1553  0.5091
   38CHL1  H24A 3981   5.090   3.218   4.922 -0.0982  2.7364  2.8251
   38CHL1  H24B 3982   4.938   3.154   4.859 -3.4012  2.6622 -2.7092
   38CHL1   C25 3983   4.978   3.365   4.786  0.6352  0.3071  0.3017
   38CHL1   H25 3984   4.870   3.384   4.766  0.5838  0.3191  0.5805
   38CHL1   C26 3985   5.041   3.496   4.823 -0.3188  0.3662 -0.4964
   38CHL1  H26A 3986   5.050   3.572   4.743  0.6374  3.1493  2.0725
   38CHL1  H26B 3987   4.998   3.548   4.911  2.2208  1.6823  0.0468
   38CHL1  H26C 3988   5.139   3.466   4.867 -0.4131  0.6879 -0.0658
   38CHL1   C27 3989   5.030   3.311   4.653 -0.7360  0.1529 -0.0921
   38CHL1  H27A 3990   5.008   3.391   4.579 -0.9435  0.4569  0.2908
   38CHL1  H27B 3991   5.140   3.299   4.657 -0.2242  3.9325  2.1809
   38CHL1  H27C 3992   4.985   3.211   4.633  1.7706 -1.4254  1.6092
   39CHL1    C3 3993   6.785   1.717   6.000  0.2926 -0.6129 -0.2753
   39CHL1    H3 3994   6.710   1.638   6.017 -3.4019  1.8661 -3.3814
   39CHL1    O3 3995   6.796   1.799   6.110 -0.0671  0.6803 -0.3922
   39CHL1   H3' 3996   6.709   1.796   6.151 -1.3323 -0.4862 -2.9298
   39CHL1    C4 3997   6.924   1.680   5.949 -0.0385  0.1747  0.3238
   39CHL1   H4A 3998   6.995   1.765   5.949  1.7081 -1.2340  0.1990
   39CHL1   H4B 3999   6.968   1.604   6.017  1.3014  1.4620  0.9362
   39CHL1    C5 4000   6.911   1.631   5.801 -0.1513 -0.3691 -0.3859
   39CHL1    C6 4001   6.969   1.516   5.769 -0.1818  0.1628 -0.4045
   39CHL1    H6 4002   7.037   1.466   5.839  1.0840  1.7994 -0.4089
   39CHL1    C7 4003   6.981   1.452   5.634  0.7268 -0.5535 -1.5539
   39CHL1   H7A 4004   7.081   1.410   5.609  1.5563 -0.1400  0.7979
   39CHL1   H7B 4005   6.892   1.385   5.628  0.3963 -0.5311  1.5140
   39CHL1    C8 4006   6.933   1.548   5.526 -0.2371 -0.2250  0.3376
   39CHL1    H8 4007   7.019   1.617   5.515  0.8535 -1.4841  0.7729
   39CHL1   C14 4008   6.901   1.463   5.397  0.2535 -0.1452  0.8173
   39CHL1   H14 4009   6.809   1.403   5.413  1.2109 -1.5915  1.1003
   39CHL1   C15 4010   7.007   1.366   5.347 -0.7393  0.5056  0.3410
   39CHL1  H15A 4011   7.108   1.411   5.354 -0.7436  0.8191 -1.2892
   39CHL1  H15B 4012   7.002   1.273   5.408 -2.2915  0.2988 -0.0621
   39CHL1   C16 4013   6.978   1.339   5.202  0.1099  0.3212  0.7135
   39CHL1  H16A 4014   7.055   1.382   5.134  0.1970 -1.8864 -0.7109
   39CHL1  H16B 4015   6.963   1.231   5.179  0.3129  0.6894 -1.3234
   39CHL1   C17 4016   6.861   1.439   5.167  0.4186  0.5952  0.3405
   39CHL1   H17 4017   6.773   1.378   5.198  0.2308  0.4567 -0.4463
   39CHL1   C13 4018   6.865   1.552   5.273  0.0087 -0.3122 -0.1076
   39CHL1   C18 4019   6.989   1.646   5.240 -0.3350  0.7075  0.1319
   39CHL1  H18A 4020   7.027   1.692   5.334  1.7694 -2.9556  1.2800
   39CHL1  H18B 4021   7.073   1.593   5.192 -0.7770 -0.3711  0.5062
   39CHL1  H18C 4022   6.963   1.714   5.156  0.2381 -1.4700 -1.9347
   39CHL1   C12 4023   6.735   1.634   5.311 -0.7938  0.6912  0.1299
   39CHL1  H12A 4024   6.723   1.713   5.234  0.2704 -0.1009 -0.8727
   39CHL1  H12B 4025   6.643   1.571   5.316 -0.4057  0.0572 -0.5253
   39CHL1   C11 4026   6.750   1.704   5.447 -0.0175 -0.6717  0.2759
   39CHL1  H11A 4027   6.824   1.785   5.431  0.8971 -1.0172  2.4133
   39CHL1  H11B 4028   6.650   1.734   5.484 -0.0134 -0.2469 -0.0470
   39CHL1    C9 4029   6.807   1.622   5.568 -0.0759 -0.0498 -0.4172
   39CHL1    H9 4030   6.726   1.549   5.585 -0.4680  0.8090  1.7035
   39CHL1   C10 4031   6.828   1.706   5.700 -0.2758  0.4163  0.0550
   39CHL1   C19 4032   6.901   1.833   5.662 -0.3132 -0.2218  0.7927
   39CHL1  H19A 4033   6.933   1.896   5.747  2.5116 -3.4605  2.3865
   39CHL1  H19B 4034   6.988   1.811   5.596 -0.6844  0.6800 -0.0162
   39CHL1  H19C 4035   6.836   1.902   5.604  0.9300 -0.1491 -0.5595
   39CHL1    C1 4036   6.692   1.741   5.762  0.0506  0.0305 -0.0195
   39CHL1   H1A 4037   6.640   1.812   5.695 -1.3446  0.2659  1.2671
   39CHL1   H1B 4038   6.631   1.648   5.761 -0.4308  0.0909  4.5080
   39CHL1    C2 4039   6.702   1.801   5.903 -1.0839  0.3071  0.0621
   39CHL1   H2A 4040   6.601   1.825   5.943 -0.9847  1.3129 -0.2625
   39CHL1   H2B 4041   6.738   1.903   5.876 -1.3780  0.3483 -0.1895
   39CHL1   C20 4042   6.854   1.466   5.021  0.1153  0.2309  0.0451
   39CHL1   H20 4043   6.946   1.521   4.990 -0.9437  1.4174 -1.1200
   39CHL1   C21 4044   6.733   1.563   4.991  0.0072  0.0828  0.0002
   39CHL1  H21A 4045   6.739   1.654   5.055  1.8182  0.7684 -1.0552
   39CHL1  H21B 4046   6.637   1.513   5.015  1.8807 -3.3636  1.0618
   39CHL1  H21C 4047   6.734   1.596   4.885  0.5288 -0.2315 -0.0965
   39CHL1   C22 4048   6.852   1.339   4.935 -0.7065 -0.3829  0.6658
   39CHL1  H22A 4049   6.941   1.273   4.941 -1.5282 -1.8328 -1.5592
   39CHL1  H22B 4050   6.756   1.298   4.973 -0.6005 -1.1715  0.1136
   39CHL1   C23 4051   6.837   1.362   4.782  0.3995  0.0103 -0.2457
   39CHL1  H23A 4052   6.744   1.418   4.760  0.7550  0.6832 -0.0644
   39CHL1  H23B 4053   6.918   1.427   4.741 -0.3808  0.6859 -0.7470
   39CHL1   C24 4054   6.828   1.231   4.710  0.4861 -0.0567  0.1546
   39CHL1  H24A 4055   6.932   1.194   4.709 -0.6705 -3.7563 -0.4843
   39CHL1  H24B 4056   6.765   1.167   4.776  1.6157  0.3769  1.6983
   39CHL1   C25 4057   6.764   1.225   4.566  0.1476 -0.2471 -0.1972
   39CHL1   H25 4058   6.656   1.250   4.578  0.3913 -0.1801  2.8303
   39CHL1   C26 4059   6.830   1.326   4.472 -0.5586  0.0147 -0.4640
   39CHL1  H26A 4060   6.795   1.330   4.367  2.9105 -3.3001 -1.9508
   39CHL1  H26B 4061   6.828   1.424   4.526  0.7685 -1.1308  1.7974
   39CHL1  H26C 4062   6.936   1.297   4.459 -0.6154  0.1908 -1.3894
   39CHL1   C27 4063   6.768   1.078   4.517  0.5163 -0.2341  0.4539
   39CHL1  H27A 4064   6.741   1.065   4.410 -0.0451  0.8238  0.4523
   39CHL1  H27B 4065   6.868   1.031   4.529  0.3357 -0.9077 -0.5553
   39CHL1  H27C 4066   6.693   1.023   4.579 -2.3760  0.3931 -2.2240
   40CHL1    C3 4067   4.457   6.625   6.075  0.4343 -0.2576 -0.1867
   40CHL1    H3 4068   4.550   6.654   6.127  0.7112 -1.0175 -0.2405
   40CHL1    O3 4069   4.373   6.559   6.164  0.1625 -0.4450 -0.5926
   40CHL1   H3' 4070   4.287   6.538   6.127  0.4169  0.2041 -1.5649
   40CHL1    C4 4071   4.383   6.746   6.009 -0.0896 -0.3309 -0.1068
   40CHL1   H4A 4072   4.286   6.709   5.969 -1.2098 -0.5934  2.5989
   40CHL1   H4B 4073   4.362   6.805   6.101 -2.1947 -0.8193 -0.2207
   40CHL1    C5 4074   4.470   6.817   5.912 -0.1962 -0.3276 -0.0487
   40CHL1    C6 4075   4.510   6.947   5.918 -0.8020  0.3539  0.0610
   40CHL1    H6 4076   4.484   7.008   6.005  2.6234  0.4004  1.2021
   40CHL1    C7 4077   4.596   7.007   5.814  0.2051  0.1682  0.4826
   40CHL1   H7A 4078   4.566   7.112   5.797  1.5588  0.4569 -0.2459
   40CHL1   H7B 4079   4.695   7.026   5.859 -0.0092  5.3914 -0.6596
   40CHL1    C8 4080   4.605   6.926   5.681 -0.2355  0.4195  0.1875
   40CHL1    H8 4081   4.510   6.937   5.624 -0.1727 -1.3900 -0.3160
   40CHL1   C14 4082   4.724   6.977   5.588 -0.1413 -0.2354 -0.9960
   40CHL1   H14 4083   4.809   6.956   5.657 -0.5780  2.1491  0.3803
   40CHL1   C15 4084   4.730   7.127   5.568  0.0603  0.3692 -0.1450
   40CHL1  H15A 4085   4.629   7.173   5.560 -0.0807 -0.1558 -1.5039
   40CHL1  H15B 4086   4.777   7.179   5.655 -1.8531  1.0092  0.5785
   40CHL1   C16 4087   4.822   7.138   5.444 -0.0356 -0.5796  0.4241
   40CHL1  H16A 4088   4.764   7.183   5.361 -2.4557 -2.2286  1.1180
   40CHL1  H16B 4089   4.912   7.201   5.465  0.0157 -0.3986 -0.3118
   40CHL1   C17 4090   4.859   6.992   5.410 -0.1125  0.2301  0.6452
   40CHL1   H17 4091   4.947   6.977   5.476 -0.2580  1.7922  1.2377
   40CHL1   C13 4092   4.746   6.901   5.463  0.4869  0.1737  0.3981
   40CHL1   C18 4093   4.630   6.908   5.355 -0.0512 -0.5184 -0.3439
   40CHL1  H18A 4094   4.657   6.830   5.280 -0.3948 -0.1178 -0.8895
   40CHL1  H18B 4095   4.539   6.873   5.410  0.8735  1.0771  2.4180
   40CHL1  H18C 4096   4.620   7.008   5.309  2.2599 -1.2349 -2.6208
   40CHL1   C12 4097   4.770   6.754   5.491  0.7014  0.4987  0.3782
   40CHL1  H12A 4098   4.772   6.693   5.398  2.9061 -2.1512  1.9913
   40CHL1  H12B 4099   4.876   6.741   5.522  0.9318 -2.1536 -1.2593
   40CHL1   C11 4100   4.670   6.689   5.586  0.3883 -0.6221  0.0619
   40CHL1  H11A 4101   4.575   6.668   5.531  0.8909 -1.6333 -0.4320
   40CHL1  H11B 4102   4.703   6.586   5.608 -0.5492 -0.7185  1.1012
   40CHL1    C9 4103   4.631   6.775   5.710  0.3003 -0.4144 -0.0200
   40CHL1    H9 4104   4.723   6.765   5.772  0.3547  1.4347  0.2374
   40CHL1   C10 4105   4.525   6.717   5.804 -0.3592  0.2245  0.9127
   40CHL1   C19 4106   4.401   6.672   5.716  0.1487  0.3869 -0.2024
   40CHL1  H19A 4107   4.309   6.649   5.773  0.6310 -2.8689 -0.5695
   40CHL1  H19B 4108   4.384   6.746   5.634  0.4100 -0.7978 -1.3582
   40CHL1  H19C 4109   4.416   6.578   5.660  1.3682  1.4469 -1.7370
   40CHL1    C1 4110   4.576   6.581   5.866 -0.0395 -0.6225  0.0303
   40CHL1   H1A 4111   4.602   6.502   5.792  1.7281  1.0825 -1.2833
   40CHL1   H1B 4112   4.668   6.602   5.925 -0.3459 -2.8034  1.4142
   40CHL1    C2 4113   4.477   6.524   5.968 -0.9145 -0.4735  0.0343
   40CHL1   H2A 4114   4.525   6.433   6.011 -0.2038  0.6382  1.7236
   40CHL1   H2B 4115   4.381   6.500   5.919 -1.4181  2.9496 -0.9169
   40CHL1   C20 4116   4.912   6.971   5.268  0.2767 -0.8366  0.6186
   40CHL1   H20 4117   4.833   6.998   5.195 -0.1891 -0.8632  1.1090
   40CHL1   C21 4118   4.973   6.835   5.250 -0.1695  0.2314  0.0925
   40CHL1  H21A 4119   4.887   6.765   5.253 -0.5122  0.5750 -1.1686
   40CHL1  H21B 4120   5.047   6.811   5.329 -1.7264 -1.5925  1.0751
   40CHL1  H21C 4121   5.014   6.828   5.147 -1.8169  1.5301 -0.7020
   40CHL1   C22 4122   5.025   7.079   5.245  0.4285  0.4849 -0.4900
   40CHL1  H22A 4123   4.973   7.177   5.241  0.4769  0.5437  0.2698
   40CHL1  H22B 4124   5.087   7.077   5.337 -0.8580  0.7010  0.4134
   40CHL1   C23 4125   5.105   7.066   5.123 -0.4956 -0.3268 -0.6690
   40CHL1  H23A 4126   5.181   7.146   5.134 -2.2216  1.2743  0.1915
   40CHL1  H23B 4127   5.160   6.970   5.110 -0.8162 -0.7525  0.9300
   40CHL1   C24 4128   5.030   7.093   4.987 -0.5412  0.8158 -0.2805
   40CHL1  H24A 4129   4.962   7.010   4.962 -0.3132  1.0034 -1.5817
   40CHL1  H24B 4130   4.973   7.188   5.001 -0.4714  0.8929 -0.5259
   40CHL1   C25 4131   5.126   7.107   4.867 -0.5489  0.1616 -0.9357
   40CHL1   H25 4132   5.056   7.100   4.780 -1.3341 -0.0993 -0.3000
   40CHL1   C26 4133   5.198   7.239   4.864 -0.1014  0.4755 -0.5596
   40CHL1  H26A 4134   5.251   7.255   4.767 -0.5910  1.6029 -0.6679
   40CHL1  H26B 4135   5.122   7.319   4.875 -0.9219 -0.3770  0.1425
   40CHL1  H26C 4136   5.275   7.248   4.943 -1.0963 -0.3284  0.5399
   40CHL1   C27 4137   5.223   6.983   4.852  0.2528 -0.0668 -0.0285
   40CHL1  H27A 4138   5.294   6.994   4.937 -0.4366 -1.3078  0.7243
   40CHL1  H27B 4139   5.161   6.891   4.850 -1.7232  1.1935  0.1573
   40CHL1  H27C 4140   5.281   6.989   4.757 -1.7732 -0.4033 -1.3349
   41CHL1    C3 4141   6.191   1.513   6.321  0.1037 -0.4235 -0.4491
   41CHL1    H3 4142   6.272   1.437   6.322 -1.0087 -1.7005  2.2730
   41CHL1    O3 4143   6.165   1.552   6.458  0.1584  0.3880  0.1051
   41CHL1   H3' 4144   6.184   1.647   6.459  0.9581  0.2352  0.2699
   41CHL1    C4 4145   6.221   1.640   6.240  0.1851 -0.0292  0.2446
   41CHL1   H4A 4146   6.145   1.716   6.269 -1.0539 -0.2468 -2.1476
   41CHL1   H4B 4147   6.322   1.679   6.262 -0.1373  0.8739  0.1538
   41CHL1    C5 4148   6.213   1.626   6.094 -0.1994  0.4037  0.1710
   41CHL1    C6 4149   6.300   1.686   6.011 -0.4268  1.0175 -0.4894
   41CHL1    H6 4150   6.372   1.751   6.060 -0.6640 -0.1182  1.4607
   41CHL1    C7 4151   6.301   1.670   5.864 -0.4024  0.7647  0.0342
   41CHL1   H7A 4152   6.328   1.772   5.827  0.3425  0.6647  0.2711
   41CHL1   H7B 4153   6.383   1.597   5.845  0.0138  1.2475 -0.0632
   41CHL1    C8 4154   6.172   1.627   5.802  0.8925  1.2641 -0.5929
   41CHL1    H8 4155   6.100   1.711   5.801 -2.1376 -1.0774 -3.7474
   41CHL1   C14 4156   6.197   1.586   5.663  0.1023 -1.0456  0.1382
   41CHL1   H14 4157   6.266   1.499   5.654  3.5239  1.5553 -1.0693
   41CHL1   C15 4158   6.278   1.688   5.583  0.5615  0.3452  0.1177
   41CHL1  H15A 4159   6.246   1.788   5.618 -3.2298 -0.4471 -0.6209
   41CHL1  H15B 4160   6.385   1.692   5.611  0.3099  1.0139  1.0235
   41CHL1   C16 4161   6.235   1.658   5.439  0.1711  0.0589  0.0980
   41CHL1  H16A 4162   6.189   1.752   5.401 -0.7554 -0.7330 -0.7885
   41CHL1  H16B 4163   6.323   1.623   5.380  0.2397 -1.2134  0.9290
   41CHL1   C17 4164   6.135   1.539   5.445  0.8994 -0.0093 -0.5571
   41CHL1   H17 4165   6.194   1.445   5.446  2.0968  0.7167  0.6717
   41CHL1   C13 4166   6.071   1.549   5.588 -0.0084 -0.9712 -0.0414
   41CHL1   C18 4167   5.967   1.665   5.583  0.4205  0.1024  0.0576
   41CHL1  H18A 4168   5.875   1.632   5.531 -1.8308  0.3139  3.5624
   41CHL1  H18B 4169   5.936   1.688   5.687  0.0478 -3.6233  0.9048
   41CHL1  H18C 4170   6.011   1.760   5.546 -1.8794  1.7967  1.4208
   41CHL1   C12 4171   6.016   1.422   5.659 -0.0852 -0.2902  0.2582
   41CHL1  H12A 4172   5.925   1.394   5.603 -2.2167  3.7596  1.2756
   41CHL1  H12B 4173   6.088   1.338   5.650 -0.0458 -0.3317  0.8841
   41CHL1   C11 4174   5.979   1.450   5.813  0.1837 -0.0328 -0.5743
   41CHL1  H11A 4175   5.894   1.521   5.820 -1.7874 -2.3085 -0.1589
   41CHL1  H11B 4176   5.936   1.365   5.869  0.9258 -0.6340 -0.8934
   41CHL1    C9 4177   6.105   1.513   5.885 -0.2296 -0.1913  0.1525
   41CHL1    H9 4178   6.176   1.428   5.873  0.9910  0.7388  0.6536
   41CHL1   C10 4179   6.089   1.548   6.037 -0.2997 -0.4995 -0.2697
   41CHL1   C19 4180   5.964   1.636   6.049  0.3401  0.3827 -0.1291
   41CHL1  H19A 4181   5.862   1.591   6.048 -1.2743  3.7346 -0.7424
   41CHL1  H19B 4182   5.972   1.695   6.142  2.1912  1.2797 -0.8034
   41CHL1  H19C 4183   5.967   1.706   5.963  0.9011  0.7289  0.1718
   41CHL1    C1 4184   6.076   1.422   6.118  0.8235  0.8596 -0.2423
   41CHL1   H1A 4185   5.974   1.390   6.087  1.7351 -0.3592 -2.2066
   41CHL1   H1B 4186   6.168   1.365   6.094  0.7554  0.6001  0.1150
   41CHL1    C2 4187   6.062   1.443   6.269 -0.1879 -0.0812 -0.0833
   41CHL1   H2A 4188   6.046   1.348   6.325  1.2351  0.7858  1.9109
   41CHL1   H2B 4189   5.972   1.504   6.292 -0.3882 -1.2692  2.6043
   41CHL1   C20 4190   6.042   1.533   5.320  0.0499  0.2257 -0.4572
   41CHL1   H20 4191   5.979   1.624   5.314 -1.2343 -0.6875 -1.3351
   41CHL1   C21 4192   5.938   1.416   5.330 -0.5840 -0.1239  0.2047
   41CHL1  H21A 4193   5.985   1.324   5.372 -0.3823  0.4519  1.2747
   41CHL1  H21B 4194   5.887   1.398   5.233 -1.9573  2.6366  0.3188
   41CHL1  H21C 4195   5.865   1.442   5.409  0.3095  0.9895  0.6838
   41CHL1   C22 4196   6.110   1.538   5.173  0.7495  0.4067 -0.2279
   41CHL1  H22A 4197   6.181   1.623   5.177  0.2851  0.7574  1.1367
   41CHL1  H22B 4198   6.170   1.445   5.164 -0.3800 -0.3557 -0.1136
   41CHL1   C23 4199   6.009   1.569   5.058 -0.0132  0.1616 -0.0711
   41CHL1  H23A 4200   6.057   1.553   4.959 -1.8879  0.8972 -1.1522
   41CHL1  H23B 4201   5.927   1.495   5.053  0.0427  0.0914  0.0619
   41CHL1   C24 4202   5.954   1.718   5.054 -0.5791  1.2913 -0.2847
   41CHL1  H24A 4203   5.876   1.710   5.133 -0.8383 -2.8904 -0.7460
   41CHL1  H24B 4204   6.016   1.803   5.091 -1.3476  1.2664  1.1371
   41CHL1   C25 4205   5.889   1.764   4.922  0.2418  1.1116  0.1420
   41CHL1   H25 4206   5.965   1.777   4.842 -0.6852 -0.7445 -1.1160
   41CHL1   C26 4207   5.782   1.657   4.869 -0.3389  0.3888 -0.1251
   41CHL1  H26A 4208   5.733   1.698   4.778  1.2976 -1.3499 -1.8849
   41CHL1  H26B 4209   5.844   1.568   4.844 -0.3590  0.2067  0.4770
   41CHL1  H26C 4210   5.713   1.616   4.946  1.2395 -0.7304  0.7525
   41CHL1   C27 4211   5.823   1.897   4.942 -0.3854 -0.0154 -0.2116
   41CHL1  H27A 4212   5.737   1.881   5.010  0.4955  0.6213  1.1003
   41CHL1  H27B 4213   5.889   1.966   5.000  0.1881 -1.1268  0.4758
   41CHL1  H27C 4214   5.788   1.954   4.853  1.7254  3.2443  0.8552
   42CHL1    C3 4215   0.045   0.061   6.328  0.1291  0.0463  0.1776
   42CHL1    H3 4216   0.127  -0.010   6.353  0.1209  0.9154  2.9681
   42CHL1    O3 4217  -0.013   0.104   6.447 -0.2270  0.1607 -0.4591
   42CHL1   H3' 4218  -0.061   0.186   6.430 -1.0685 -0.3675 -0.6816
   42CHL1    C4 4219   0.104   0.189   6.265  0.4208 -0.4648  0.1744
   42CHL1   H4A 4220   0.027   0.268   6.250 -0.8129 -1.4797  0.9451
   42CHL1   H4B 4221   0.183   0.223   6.336 -0.5209 -0.6082  1.3182
   42CHL1    C5 4222   0.173   0.138   6.139 -0.9916 -0.3893  1.0120
   42CHL1    C6 4223   0.300   0.170   6.108  0.2548  0.3830  0.0242
   42CHL1    H6 4224   0.367   0.228   6.173  1.5288 -1.4307  0.3963
   42CHL1    C7 4225   0.365   0.135   5.978 -0.1312 -0.0764 -0.0670
   42CHL1   H7A 4226   0.425   0.220   5.939 -2.9235  2.0153 -0.1613
   42CHL1   H7B 4227   0.426   0.045   5.998 -1.5526 -0.7915  1.2420
   42CHL1    C8 4228   0.270   0.097   5.867  0.6994 -0.5044 -0.1189
   42CHL1    H8 4229   0.218   0.189   5.833 -1.7550 -1.8742 -0.2438
   42CHL1   C14 4230   0.354   0.032   5.763 -0.4972 -0.4902 -0.2058
   42CHL1   H14 4231   0.407  -0.050   5.815  0.4012  1.2208  1.6887
   42CHL1   C15 4232   0.465   0.123   5.699 -0.1882  0.5599  0.1863
   42CHL1  H15A 4233   0.420   0.221   5.671 -1.9492 -0.0869  0.6168
   42CHL1  H15B 4234   0.559   0.130   5.757  1.7332  2.0852 -2.8011
   42CHL1   C16 4235   0.505   0.048   5.567  0.0341  0.0173 -0.1107
   42CHL1  H16A 4236   0.499   0.125   5.487  1.0374  0.5512  0.3135
   42CHL1  H16B 4237   0.611   0.017   5.566  0.1073  0.1519  1.3031
   42CHL1   C17 4238   0.402  -0.064   5.555  0.4910 -0.7460  0.4553
   42CHL1   H17 4239   0.442  -0.151   5.611 -1.6142 -0.2942  2.7902
   42CHL1   C13 4240   0.279  -0.017   5.639 -0.4578  0.4078  0.0152
   42CHL1   C18 4241   0.207   0.102   5.571  0.2910  0.2049  0.6416
   42CHL1  H18A 4242   0.145   0.058   5.490 -0.4661 -0.6185  1.6457
   42CHL1  H18B 4243   0.143   0.166   5.636  1.7082  0.8972  1.4109
   42CHL1  H18C 4244   0.278   0.173   5.524 -0.4415  1.8286  1.8592
   42CHL1   C12 4245   0.167  -0.121   5.691 -0.0992 -0.0464  1.4301
   42CHL1  H12A 4246   0.100  -0.138   5.604  0.9359  0.4571  0.5025
   42CHL1  H12B 4247   0.216  -0.218   5.711  3.0828  0.6593 -1.6837
   42CHL1   C11 4248   0.088  -0.057   5.809  0.5739 -1.2593  0.7274
   42CHL1  H11A 4249   0.020   0.022   5.771  3.1835  0.8328  0.0319
   42CHL1  H11B 4250   0.023  -0.140   5.844 -0.4415 -0.4793  0.7377
   42CHL1    C9 4251   0.169   0.000   5.918 -0.2488  0.3540 -0.6019
   42CHL1    H9 4252   0.220  -0.081   5.974 -1.2122 -0.7081 -1.2217
   42CHL1   C10 4253   0.082   0.061   6.036 -0.3959  0.3065 -0.3897
   42CHL1   C19 4254  -0.024   0.160   5.990 -0.8141  0.1872  1.6273
   42CHL1  H19A 4255  -0.091   0.199   6.069 -0.1470  3.2261  0.8439
   42CHL1  H19B 4256   0.015   0.249   5.935 -2.5331 -0.6106 -1.1093
   42CHL1  H19C 4257  -0.090   0.104   5.920  1.8253 -1.9762  0.6737
   42CHL1    C1 4258   0.005  -0.054   6.102 -0.2532  0.5789 -0.2362
   42CHL1   H1A 4259  -0.080  -0.094   6.043 -0.2357 -0.0574  0.1509
   42CHL1   H1B 4260   0.069  -0.142   6.125 -1.7973 -0.9674 -1.5708
   42CHL1    C2 4261  -0.053  -0.012   6.238 -0.3670 -0.1385  0.0441
   42CHL1   H2A 4262  -0.085  -0.109   6.282 -0.7528 -0.4763 -0.9544
   42CHL1   H2B 4263  -0.147   0.047   6.235 -0.8083 -0.7618  1.0947
   42CHL1   C20 4264   0.377  -0.101   5.403 -0.5492 -0.3709  0.0548
   42CHL1   H20 4265   0.300  -0.030   5.367  0.1097  0.4969  0.3129
   42CHL1   C21 4266   0.328  -0.244   5.415 -0.3389 -0.2041  0.6618
   42CHL1  H21A 4267   0.295  -0.282   5.316  0.5961  1.3214 -0.2807
   42CHL1  H21B 4268   0.239  -0.256   5.481 -0.8365 -1.8144 -0.2335
   42CHL1  H21C 4269   0.417  -0.311   5.428 -0.1258 -0.0669 -0.0622
   42CHL1   C22 4270   0.507  -0.094   5.309  0.0957  1.0816 -0.9171
   42CHL1  H22A 4271   0.535   0.013   5.314 -0.8848  1.3377 -0.8115
   42CHL1  H22B 4272   0.592  -0.158   5.342 -0.7138 -0.3613 -1.5398
   42CHL1   C23 4273   0.480  -0.127   5.158  0.6509  0.5627 -0.1508
   42CHL1  H23A 4274   0.458  -0.235   5.166  1.0191  0.6224  2.3754
   42CHL1  H23B 4275   0.393  -0.068   5.123  0.8030  1.5321  1.0014
   42CHL1   C24 4276   0.601  -0.101   5.067  0.0524 -0.1242 -0.0106
   42CHL1  H24A 4277   0.611   0.009   5.055 -0.9875 -0.0187 -0.0065
   42CHL1  H24B 4278   0.693  -0.135   5.119 -0.4009  1.4512  1.9516
   42CHL1   C25 4279   0.593  -0.158   4.924  0.9421 -0.4301  0.6628
   42CHL1   H25 4280   0.488  -0.157   4.888  1.5756  1.9048 -1.3797
   42CHL1   C26 4281   0.663  -0.065   4.823 -0.2965  0.4472 -0.0099
   42CHL1  H26A 4282   0.767  -0.058   4.860  0.2614  3.0344 -1.8775
   42CHL1  H26B 4283   0.653  -0.093   4.716 -3.0196  0.6628  0.1136
   42CHL1  H26C 4284   0.610   0.033   4.831 -1.3765 -0.0651 -0.6052
   42CHL1   C27 4285   0.646  -0.300   4.931 -0.9048  0.0080  0.3462
   42CHL1  H27A 4286   0.755  -0.296   4.953 -0.9076  0.6648  0.2464
   42CHL1  H27B 4287   0.582  -0.359   5.001 -0.0367 -0.6521  0.6049
   42CHL1  H27C 4288   0.645  -0.339   4.827  0.2996 -1.9603  1.0043
   43CHL1    C3 4289   3.618   4.030   5.876 -0.5600 -0.2672 -0.4042
   43CHL1    H3 4290   3.521   3.978   5.864 -0.3679 -0.3973 -1.5040
   43CHL1    O3 4291   3.644   4.053   6.011 -0.3176 -0.1658  0.1149
   43CHL1   H3' 4292   3.625   3.973   6.061  0.3131 -0.3793  0.0275
   43CHL1    C4 4293   3.725   3.947   5.814 -0.3844  0.5310  0.2036
   43CHL1   H4A 4294   3.827   3.985   5.835  1.2582 -4.1433  2.0086
   43CHL1   H4B 4295   3.716   3.843   5.852  3.3355  0.2436  0.5914
   43CHL1    C5 4296   3.715   3.941   5.665 -0.5541  0.6750 -0.3575
   43CHL1    C6 4297   3.706   3.826   5.599 -0.3103  0.1035 -0.3253
   43CHL1    H6 4298   3.707   3.736   5.663 -0.8536 -0.6346 -1.3363
   43CHL1    C7 4299   3.686   3.804   5.454  0.3734  0.5467  0.1271
   43CHL1   H7A 4300   3.756   3.730   5.409 -0.3281  1.5029 -2.7830
   43CHL1   H7B 4301   3.579   3.771   5.448 -0.1798  1.8845  1.9543
   43CHL1    C8 4302   3.704   3.928   5.368 -0.1388  0.2580  0.7652
   43CHL1    H8 4303   3.813   3.945   5.367 -0.0917  0.2821 -2.0556
   43CHL1   C14 4304   3.645   3.913   5.228  0.6459  0.0354  0.1965
   43CHL1   H14 4305   3.539   3.917   5.259  1.0432 -0.9745  1.8443
   43CHL1   C15 4306   3.677   3.795   5.136  0.6380 -0.2204  0.5656
   43CHL1  H15A 4307   3.787   3.782   5.126  1.2477  3.9732  0.0305
   43CHL1  H15B 4308   3.642   3.700   5.182  1.1563  0.3810  2.2547
   43CHL1   C16 4309   3.606   3.822   5.006  0.7936  0.3550  0.2979
   43CHL1  H16A 4310   3.680   3.800   4.927  1.4833 -2.7364  1.6329
   43CHL1  H16B 4311   3.522   3.749   4.998  0.8657 -0.2440  3.4295
   43CHL1   C17 4312   3.568   3.977   5.012  0.1517  0.4931 -1.1599
   43CHL1   H17 4313   3.462   3.984   5.043 -0.1851 -3.4809 -0.9005
   43CHL1   C13 4314   3.650   4.033   5.142  0.7130 -0.3638  0.6933
   43CHL1   C18 4315   3.797   4.061   5.093 -0.7312  0.1714 -0.3065
   43CHL1  H18A 4316   3.834   3.980   5.027 -0.5167  0.1458 -0.1552
   43CHL1  H18B 4317   3.810   4.161   5.046 -0.5638  1.3901  2.1398
   43CHL1  H18C 4318   3.861   4.056   5.184 -1.3637 -0.4864  0.1166
   43CHL1   C12 4319   3.587   4.152   5.216  0.0753 -0.0065  0.3982
   43CHL1  H12A 4320   3.613   4.240   5.154  2.0113 -0.3156  0.6971
   43CHL1  H12B 4321   3.479   4.137   5.240  0.4029 -0.1324  1.8696
   43CHL1   C11 4322   3.648   4.174   5.348 -0.3393 -0.1833 -0.2925
   43CHL1  H11A 4323   3.750   4.215   5.339  0.3304 -1.3045  1.7082
   43CHL1  H11B 4324   3.608   4.261   5.405  0.2118 -1.0259  1.4112
   43CHL1    C9 4325   3.640   4.049   5.442  0.6175 -0.8444  0.1775
   43CHL1    H9 4326   3.536   4.012   5.446 -0.0526  0.9070  0.0362
   43CHL1   C10 4327   3.693   4.072   5.592  0.2489  0.0715 -0.2949
   43CHL1   C19 4328   3.828   4.141   5.592 -0.1915  0.6506 -0.4810
   43CHL1  H19A 4329   3.891   4.084   5.520  0.4760  2.7731 -1.6747
   43CHL1  H19B 4330   3.831   4.243   5.547  2.1018  1.9044  2.1494
   43CHL1  H19C 4331   3.878   4.137   5.691 -2.0415 -0.4030  0.4431
   43CHL1    C1 4332   3.580   4.158   5.665 -0.3838  0.3742  0.0243
   43CHL1   H1A 4333   3.577   4.262   5.628 -1.7063  0.1466 -0.5856
   43CHL1   H1B 4334   3.480   4.109   5.654  0.2452 -1.2908  1.2771
   43CHL1    C2 4335   3.615   4.170   5.813  1.1406 -0.0031  0.1606
   43CHL1   H2A 4336   3.532   4.226   5.862 -0.4388 -0.6896 -1.6051
   43CHL1   H2B 4337   3.711   4.225   5.823  1.0644  0.0299  0.7311
   43CHL1   C20 4338   3.586   4.059   4.883  0.0745 -0.1980  0.0815
   43CHL1   H20 4339   3.693   4.052   4.853 -0.1345 -0.3412 -0.6487
   43CHL1   C21 4340   3.564   4.211   4.896  0.0255  0.1399  0.4495
   43CHL1  H21A 4341   3.467   4.250   4.933  0.0848  1.0350 -0.3281
   43CHL1  H21B 4342   3.580   4.251   4.794  1.4468 -0.2152  0.5205
   43CHL1  H21C 4343   3.639   4.244   4.971  0.9904 -0.9896  0.0116
   43CHL1   C22 4344   3.497   3.995   4.771  0.2733 -0.0680 -0.1005
   43CHL1  H22A 4345   3.505   3.884   4.767 -0.9565 -0.1315 -1.8308
   43CHL1  H22B 4346   3.391   4.008   4.799  0.6909 -2.9742  3.6376
   43CHL1   C23 4347   3.515   4.067   4.634  0.0572  0.2780  0.3128
   43CHL1  H23A 4348   3.460   4.163   4.640 -1.2232 -0.4253  0.0141
   43CHL1  H23B 4349   3.625   4.082   4.629  0.0774  0.0471 -0.0143
   43CHL1   C24 4350   3.454   3.989   4.516  0.4998 -0.0379  0.2355
   43CHL1  H24A 4351   3.499   3.888   4.514  0.9804  0.1217  1.8667
   43CHL1  H24B 4352   3.344   3.992   4.535 -0.0567  0.8467 -2.5671
   43CHL1   C25 4353   3.462   4.034   4.365 -0.1556  0.1033  0.3057
   43CHL1   H25 4354   3.414   3.956   4.302  0.7195  0.0143 -0.2681
   43CHL1   C26 4355   3.379   4.169   4.347  0.2892  0.2136  0.0838
   43CHL1  H26A 4356   3.437   4.249   4.399  0.3972  1.0957 -1.3335
   43CHL1  H26B 4357   3.386   4.201   4.241  0.5586 -0.4049 -0.0892
   43CHL1  H26C 4358   3.275   4.150   4.383 -0.0575 -0.1384 -1.0793
   43CHL1   C27 4359   3.608   4.057   4.312 -0.2207  0.3555 -0.1244
   43CHL1  H27A 4360   3.645   4.145   4.369 -2.7850  2.2246 -1.1388
   43CHL1  H27B 4361   3.670   3.969   4.337 -2.4242 -1.2055  0.1310
   43CHL1  H27C 4362   3.610   4.095   4.207  0.4635 -0.6555 -0.4867
   44CHL1    C3 4363   4.154   4.052   5.877 -0.6549 -0.0615  0.1036
   44CHL1    H3 4364   4.049   4.082   5.857 -0.3134  1.5518  0.6503
   44CHL1    O3 4365   4.161   4.042   6.017 -0.0157 -0.7970 -0.4526
   44CHL1   H3' 4366   4.251   4.015   6.036 -0.1577 -0.3964  0.8436
   44CHL1    C4 4367   4.188   3.923   5.805 -0.1666 -0.4739  0.2150
   44CHL1   H4A 4368   4.290   3.892   5.836  0.4356  0.9140 -0.2849
   44CHL1   H4B 4369   4.116   3.844   5.835 -0.8979 -0.3514 -1.1245
   44CHL1    C5 4370   4.202   3.949   5.654  0.9654  0.5845  0.7588
   44CHL1    C6 4371   4.122   3.882   5.570  0.1960 -0.0056  0.0405
   44CHL1    H6 4372   4.065   3.795   5.606 -1.6771 -0.0518 -2.7797
   44CHL1    C7 4373   4.125   3.903   5.424 -0.3867 -0.1611  1.1831
   44CHL1   H7A 4374   4.119   3.803   5.375 -1.1704  0.1140  0.6958
   44CHL1   H7B 4375   4.037   3.958   5.386 -0.4078 -0.0371  1.4110
   44CHL1    C8 4376   4.258   3.973   5.382  0.2063 -0.2002  0.4855
   44CHL1    H8 4377   4.349   3.911   5.397  0.9956  1.0237  0.9528
   44CHL1   C14 4378   4.254   4.017   5.235  0.3748 -0.9289 -0.4124
   44CHL1   H14 4379   4.165   4.084   5.229  1.0367 -0.1360 -1.8138
   44CHL1   C15 4380   4.224   3.903   5.138 -0.3140 -0.0258 -0.1025
   44CHL1  H15A 4381   4.263   3.812   5.190  1.8310  1.1243  0.4103
   44CHL1  H15B 4382   4.114   3.891   5.135 -0.4719  1.2496  0.0837
   44CHL1   C16 4383   4.277   3.942   5.003  0.1591  0.4660  0.5771
   44CHL1  H16A 4384   4.359   3.874   4.972 -1.5295 -0.1803 -3.0954
   44CHL1  H16B 4385   4.197   3.931   4.927  0.9736 -1.5593 -0.0402
   44CHL1   C17 4386   4.323   4.090   5.024  0.3269 -0.9590 -0.4693
   44CHL1   H17 4387   4.231   4.151   5.021 -0.1821 -1.7234 -0.5856
   44CHL1   C13 4388   4.370   4.088   5.168  0.3200  0.7642 -0.5038
   44CHL1   C18 4389   4.504   4.016   5.183  0.0237 -0.1154 -0.2223
   44CHL1  H18A 4390   4.495   3.907   5.163 -1.9380 -0.4642  2.1568
   44CHL1  H18B 4391   4.578   4.068   5.118  2.1890 -0.7496  1.6029
   44CHL1  H18C 4392   4.540   4.006   5.288  0.1461 -0.5931 -0.3050
   44CHL1   C12 4393   4.367   4.219   5.244 -0.8083 -0.7996  0.2904
   44CHL1  H12A 4394   4.455   4.282   5.220 -1.6407 -0.4314 -2.0044
   44CHL1  H12B 4395   4.271   4.267   5.215 -0.1140  0.1014 -0.5616
   44CHL1   C11 4396   4.375   4.200   5.402 -0.3717  0.1684  0.0120
   44CHL1  H11A 4397   4.478   4.163   5.425 -0.6937  0.3945  2.0666
   44CHL1  H11B 4398   4.375   4.298   5.454  0.8363  0.2685 -0.1344
   44CHL1    C9 4399   4.274   4.107   5.455 -0.3509 -0.6373  0.1816
   44CHL1    H9 4400   4.176   4.158   5.443 -0.8939 -1.6887  0.0522
   44CHL1   C10 4401   4.289   4.070   5.607  0.0622 -0.5678 -0.8811
   44CHL1   C19 4402   4.443   4.035   5.636  0.1604 -0.5398 -0.1420
   44CHL1  H19A 4403   4.464   3.955   5.561 -0.0831 -0.1992 -0.5816
   44CHL1  H19B 4404   4.508   4.125   5.631 -0.5421  0.0488  1.0976
   44CHL1  H19C 4405   4.457   3.987   5.735 -0.8669 -1.1332 -0.2707
   44CHL1    C1 4406   4.249   4.199   5.691 -0.1096 -0.4845  0.4154
   44CHL1   H1A 4407   4.320   4.279   5.663  0.6856 -1.7247 -1.2871
   44CHL1   H1B 4408   4.154   4.244   5.654  1.1001  0.0272 -2.2609
   44CHL1    C2 4409   4.242   4.168   5.844 -0.1572  0.5135 -0.8403
   44CHL1   H2A 4410   4.207   4.258   5.899 -0.1449 -0.7863  1.3670
   44CHL1   H2B 4411   4.345   4.141   5.876 -0.2835 -0.6695 -1.3723
   44CHL1   C20 4412   4.427   4.140   4.915 -0.1236  0.3540  0.4352
   44CHL1   H20 4413   4.512   4.069   4.917  0.2594  0.6149 -2.1504
   44CHL1   C21 4414   4.482   4.282   4.953  0.0968  0.3506  0.4714
   44CHL1  H21A 4415   4.564   4.277   5.027 -0.1268  1.3401  0.7976
   44CHL1  H21B 4416   4.407   4.348   5.002  1.7051  1.9374  0.9101
   44CHL1  H21C 4417   4.525   4.345   4.873  0.3490  1.5618  1.5291
   44CHL1   C22 4418   4.374   4.131   4.767  0.0560 -0.0518  0.6330
   44CHL1  H22A 4419   4.424   4.212   4.709 -1.4490  0.7496  0.3895
   44CHL1  H22B 4420   4.385   4.030   4.723  0.2735  0.6574 -1.0373
   44CHL1   C23 4421   4.230   4.167   4.744  0.0429  0.3592 -1.0642
   44CHL1  H23A 4422   4.163   4.089   4.785  1.0005  0.7469  1.4109
   44CHL1  H23B 4423   4.202   4.258   4.801 -0.4152  1.1658 -2.5217
   44CHL1   C24 4424   4.207   4.189   4.592 -1.1288  0.1761  0.7468
   44CHL1  H24A 4425   4.273   4.272   4.558 -1.5162  0.8717  1.6641
   44CHL1  H24B 4426   4.227   4.091   4.545  0.5063  0.7691  0.1018
   44CHL1   C25 4427   4.060   4.228   4.557 -0.2320 -0.0253  0.0899
   44CHL1   H25 4428   4.018   4.315   4.613  0.6082  0.3478  0.1456
   44CHL1   C26 4429   4.052   4.282   4.412 -0.0363 -0.5181 -0.4423
   44CHL1  H26A 4430   3.962   4.347   4.407 -0.6777 -0.9618  2.8426
   44CHL1  H26B 4431   4.145   4.340   4.393 -0.4185  0.0554 -0.5798
   44CHL1  H26C 4432   4.044   4.196   4.342  0.8296 -3.5463  2.8974
   44CHL1   C27 4433   3.965   4.106   4.584 -0.2225 -0.2044  0.7562
   44CHL1  H27A 4434   4.000   4.015   4.531 -0.6247  1.0666 -1.8396
   44CHL1  H27B 4435   3.960   4.071   4.690  1.5158 -1.1469  0.5692
   44CHL1  H27C 4436   3.859   4.122   4.553 -0.1976 -0.6572  0.4243
   45CHL1    C3 4437   3.046   5.043   6.046 -0.0586  0.2406 -0.9930
   45CHL1    H3 4438   3.115   5.129   6.034 -1.6055  1.6346 -0.1859
   45CHL1    O3 4439   3.028   5.018   6.185  0.3613 -0.4118 -0.1919
   45CHL1   H3' 4440   2.988   4.930   6.187 -1.3351  0.3282  1.7603
   45CHL1    C4 4441   2.914   5.084   5.977 -0.2620 -0.5412 -0.7239
   45CHL1   H4A 4442   2.835   5.006   5.989 -0.1780 -0.5688 -0.3261
   45CHL1   H4B 4443   2.879   5.168   6.040 -1.3908 -2.9678  2.1657
   45CHL1    C5 4444   2.922   5.108   5.833  0.2807  0.4360 -0.6694
   45CHL1    C6 4445   2.895   5.223   5.773 -0.0402 -0.6412 -0.1952
   45CHL1    H6 4446   2.868   5.308   5.837 -0.3555  0.9160 -2.2956
   45CHL1    C7 4447   2.917   5.250   5.626 -0.7488 -0.1557  0.0991
   45CHL1   H7A 4448   2.837   5.311   5.578  0.0797  0.9300  0.0758
   45CHL1   H7B 4449   3.010   5.308   5.613 -1.9192  1.3399 -2.4242
   45CHL1    C8 4450   2.922   5.120   5.538 -0.2850 -0.4779  0.1320
   45CHL1    H8 4451   2.823   5.070   5.531 -1.2617  1.6041 -2.7007
   45CHL1   C14 4452   2.957   5.145   5.396 -0.0684  0.2906  0.1769
   45CHL1   H14 4453   3.059   5.189   5.385  0.2650 -0.2726  0.9362
   45CHL1   C15 4454   2.870   5.245   5.323 -0.8802 -0.3372 -0.3533
   45CHL1  H15A 4455   2.778   5.214   5.376 -0.6536 -2.4834 -1.1011
   45CHL1  H15B 4456   2.893   5.348   5.356  0.3549 -1.1468  1.5213
   45CHL1   C16 4457   2.889   5.213   5.170 -0.4227 -0.1494 -0.2544
   45CHL1  H16A 4458   2.786   5.188   5.136 -0.0662 -0.5617 -1.0573
   45CHL1  H16B 4459   2.927   5.300   5.112 -0.7383  0.0804 -0.1137
   45CHL1   C17 4460   2.980   5.085   5.167  0.1286 -0.8450  0.5584
   45CHL1   H17 4461   3.086   5.117   5.170  0.2197 -1.1956  1.8041
   45CHL1   C13 4462   2.959   5.021   5.310 -0.4187 -0.1737 -0.0802
   45CHL1   C18 4463   2.826   4.949   5.300 -0.5374 -0.0252  0.2034
   45CHL1  H18A 4464   2.736   5.012   5.283  0.7856  1.8420 -0.2550
   45CHL1  H18B 4465   2.826   4.870   5.223 -1.2392 -0.9042  1.0814
   45CHL1  H18C 4466   2.814   4.890   5.393  0.3502  0.3277  0.5578
   45CHL1   C12 4467   3.074   4.940   5.366  0.1158  0.3560 -0.0725
   45CHL1  H12A 4468   3.087   4.846   5.308  2.0669 -0.6790  1.8810
   45CHL1  H12B 4469   3.165   5.003   5.369  0.7875 -0.1229 -4.5002
   45CHL1   C11 4470   3.046   4.903   5.514  0.4568  0.0753  0.0625
   45CHL1  H11A 4471   2.975   4.817   5.517 -1.2683  1.4342  0.0877
   45CHL1  H11B 4472   3.142   4.859   5.548 -0.1974  0.4709  2.6317
   45CHL1    C9 4473   3.012   5.020   5.603  0.1304  0.2509  0.1209
   45CHL1    H9 4474   3.112   5.069   5.615 -0.2263  1.0408 -0.0725
   45CHL1   C10 4475   2.974   4.983   5.750  0.2899  0.2660 -0.4008
   45CHL1   C19 4476   2.858   4.877   5.755 -0.6651 -0.1932  0.8999
   45CHL1  H19A 4477   2.841   4.852   5.862  3.9735  3.2140  2.7285
   45CHL1  H19B 4478   2.765   4.917   5.709  0.7519 -0.9388 -2.9472
   45CHL1  H19C 4479   2.887   4.783   5.702 -0.6003  0.4031 -0.1448
   45CHL1    C1 4480   3.107   4.932   5.825 -0.2416  0.0409 -0.1794
   45CHL1   H1A 4481   3.145   4.836   5.783 -1.7663 -1.0703  0.8806
   45CHL1   H1B 4482   3.186   5.010   5.813 -1.0374  0.8457 -0.3388
   45CHL1    C2 4483   3.102   4.918   5.973  0.0329 -0.2522  0.9621
   45CHL1   H2A 4484   3.206   4.914   6.013  1.0069  0.5988 -1.3029
   45CHL1   H2B 4485   3.045   4.824   5.992 -2.1039  0.4996 -1.2652
   45CHL1   C20 4486   2.959   5.010   5.037  0.0469 -0.4923  0.6331
   45CHL1   H20 4487   2.852   4.982   5.028 -0.0880  0.4792 -1.1025
   45CHL1   C21 4488   3.054   4.889   5.017  0.0551 -0.4743  0.0634
   45CHL1  H21A 4489   3.035   4.812   5.094  2.6374 -0.2022  1.0846
   45CHL1  H21B 4490   3.152   4.940   5.030 -1.1931  1.6574  1.7391
   45CHL1  H21C 4491   3.035   4.843   4.918 -0.9531  3.0134 -1.5430
   45CHL1   C22 4492   2.990   5.106   4.916 -0.2367  0.4168 -0.1577
   45CHL1  H22A 4493   2.901   5.172   4.909  0.8770  1.9410 -0.2843
   45CHL1  H22B 4494   3.091   5.152   4.923 -0.1306  0.7756 -2.9213
   45CHL1   C23 4495   2.989   5.041   4.778  0.0686 -0.2868 -0.6213
   45CHL1  H23A 4496   3.075   4.971   4.770 -1.0208 -1.6851 -0.4779
   45CHL1  H23B 4497   2.901   4.977   4.759 -0.6873  0.2895  0.7546
   45CHL1   C24 4498   3.017   5.143   4.663  0.0467  0.1318 -0.0596
   45CHL1  H24A 4499   2.936   5.220   4.665 -2.5927 -2.4038 -1.4040
   45CHL1  H24B 4500   3.120   5.183   4.675  0.1015 -0.2751  0.9110
   45CHL1   C25 4501   3.010   5.073   4.530 -0.2584 -0.9549 -0.2419
   45CHL1   H25 4502   2.921   5.006   4.528 -0.4672 -0.6704 -1.1948
   45CHL1   C26 4503   2.994   5.193   4.428  0.1289  0.1060  0.0618
   45CHL1  H26A 4504   2.985   5.154   4.324 -1.1329  0.5636 -0.0215
   45CHL1  H26B 4505   2.901   5.247   4.459  0.0020  1.0251 -1.7538
   45CHL1  H26C 4506   3.078   5.265   4.430 -0.2547  0.5445  0.6880
   45CHL1   C27 4507   3.134   4.990   4.506 -0.6137 -0.2203 -0.4889
   45CHL1  H27A 4508   3.160   4.931   4.597  0.7167 -0.0203 -0.7221
   45CHL1  H27B 4509   3.121   4.932   4.412  0.3585 -0.3738 -0.5332
   45CHL1  H27C 4510   3.218   5.061   4.490  1.0279 -1.7155  0.9805
   46CHL1    C3 4511   1.631   0.250   6.257  0.8545 -0.2295 -0.2915
   46CHL1    H3 4512   1.675   0.351   6.243  2.5507 -1.1206 -1.9075
   46CHL1    O3 4513   1.585   0.252   6.389  0.5783  0.3813 -0.0551
   46CHL1   H3' 4514   1.615   0.169   6.429 -1.8555 -0.3284  0.4656
   46CHL1    C4 4515   1.510   0.221   6.165 -0.5969 -0.1016 -0.3516
   46CHL1   H4A 4516   1.473   0.119   6.189  0.8022 -0.3023  1.1097
   46CHL1   H4B 4517   1.432   0.297   6.189 -0.7854 -0.9197  1.8272
   46CHL1    C5 4518   1.555   0.225   6.026  0.0594 -0.0042  0.1524
   46CHL1    C6 4519   1.496   0.310   5.939 -0.1171 -0.0751  0.0412
   46CHL1    H6 4520   1.404   0.360   5.972 -0.3843 -0.9226  0.5919
   46CHL1    C7 4521   1.527   0.324   5.797 -0.2725  0.3634  0.0567
   46CHL1   H7A 4522   1.435   0.311   5.736  0.2819 -3.3859 -0.2363
   46CHL1   H7B 4523   1.577   0.421   5.775  1.9999 -0.7152  0.2020
   46CHL1    C8 4524   1.626   0.224   5.748  0.5678  0.2939  0.3526
   46CHL1    H8 4525   1.558   0.138   5.730  0.2400  0.2197  1.7905
   46CHL1   C14 4526   1.686   0.268   5.618  0.2147 -0.1474  0.3113
   46CHL1   H14 4527   1.745   0.359   5.643 -1.1022  0.8816 -0.2174
   46CHL1   C15 4528   1.592   0.312   5.503  0.1678 -0.0629  0.5846
   46CHL1  H15A 4529   1.504   0.245   5.510 -2.7456  3.4598  0.4266
   46CHL1  H15B 4530   1.558   0.416   5.519  0.7659  0.1531  0.4934
   46CHL1   C16 4531   1.673   0.291   5.376  0.2488  0.4542 -0.2261
   46CHL1  H16A 4532   1.621   0.210   5.320  2.6037  0.3171 -2.3646
   46CHL1  H16B 4533   1.680   0.375   5.304 -3.5046 -1.0486 -2.6982
   46CHL1   C17 4534   1.811   0.230   5.422  0.6682 -0.3488 -0.1222
   46CHL1   H17 4535   1.877   0.317   5.442 -0.0108  0.0564  0.3904
   46CHL1   C13 4536   1.786   0.163   5.555 -0.5661  0.9517 -0.1842
   46CHL1   C18 4537   1.720   0.020   5.528 -0.2514 -0.0799 -0.0894
   46CHL1  H18A 4538   1.636   0.026   5.456 -1.5394 -2.4051  1.1178
   46CHL1  H18B 4539   1.787  -0.063   5.499 -1.0974  0.4765 -4.1757
   46CHL1  H18C 4540   1.668  -0.009   5.622  0.5850 -3.5929 -0.5765
   46CHL1   C12 4541   1.907   0.146   5.654  0.2671 -0.0202  0.2586
   46CHL1  H12A 4542   1.967   0.057   5.625 -1.3319 -1.5850  1.4712
   46CHL1  H12B 4543   1.968   0.239   5.657 -1.7023  1.3078  1.7996
   46CHL1   C11 4544   1.855   0.109   5.794  0.3125 -0.1720 -0.2914
   46CHL1  H11A 4545   1.824   0.003   5.783  0.0687 -0.1902  0.4983
   46CHL1  H11B 4546   1.937   0.113   5.868 -0.8108 -1.3822  1.0836
   46CHL1    C9 4547   1.731   0.194   5.852  0.3786  0.1100 -0.0434
   46CHL1    H9 4548   1.776   0.295   5.869  0.5285  0.2329 -1.0860
   46CHL1   C10 4549   1.684   0.143   5.995 -0.4179  0.2828  0.4865
   46CHL1   C19 4550   1.655  -0.015   5.984  0.5484 -0.2874 -0.1866
   46CHL1  H19A 4551   1.746  -0.074   5.959  0.8332 -0.1459  0.4997
   46CHL1  H19B 4552   1.611  -0.051   6.079  0.4169  1.6980  0.5301
   46CHL1  H19C 4553   1.580  -0.020   5.902  0.5603  2.0228 -0.3977
   46CHL1    C1 4554   1.797   0.170   6.099 -0.4209  0.6627 -1.1340
   46CHL1   H1A 4555   1.880   0.100   6.075 -1.1949 -1.0357  0.8578
   46CHL1   H1B 4556   1.841   0.271   6.088  0.1576  0.5891  0.2671
   46CHL1    C2 4557   1.746   0.155   6.240 -0.3301 -0.0765  0.1575
   46CHL1   H2A 4558   1.836   0.182   6.299 -0.0744  1.0737 -0.7151
   46CHL1   H2B 4559   1.723   0.050   6.267 -0.7549 -0.8516 -2.8060
   46CHL1   C20 4560   1.894   0.166   5.311 -0.1110 -0.5073 -0.5666
   46CHL1   H20 4561   1.868   0.058   5.300  0.0732 -0.4762 -1.3953
   46CHL1   C21 4562   2.038   0.179   5.350 -0.8782 -0.2531 -0.6329
   46CHL1  H21A 4563   2.093   0.125   5.270  0.3773  0.3219 -0.1766
   46CHL1  H21B 4564   2.065   0.140   5.450  1.5179 -0.2451 -1.2130
   46CHL1  H21C 4565   2.076   0.283   5.343  0.7329 -0.8099 -0.4896
   46CHL1   C22 4566   1.875   0.230   5.167 -0.6061  0.0102  0.1602
   46CHL1  H22A 4567   1.765   0.232   5.148 -1.0530  0.9512  2.4886
   46CHL1  H22B 4568   1.910   0.335   5.178  0.8423 -0.3721 -0.5776
   46CHL1   C23 4569   1.950   0.165   5.053 -0.3242  1.0660 -0.8719
   46CHL1  H23A 4570   2.059   0.151   5.071 -0.5329 -1.4934 -1.2383
   46CHL1  H23B 4571   1.913   0.061   5.037  0.3536  0.8605 -1.1465
   46CHL1   C24 4572   1.937   0.238   4.916  0.7757 -0.2211  0.0148
   46CHL1  H24A 4573   1.842   0.210   4.864  0.3113  3.5352 -1.4437
   46CHL1  H24B 4574   1.937   0.347   4.937 -0.7292 -0.4324  1.3522
   46CHL1   C25 4575   2.045   0.192   4.813 -0.2205  0.3911  0.3237
   46CHL1   H25 4576   2.143   0.227   4.852 -0.0815 -1.8029  2.1185
   46CHL1   C26 4577   2.056   0.040   4.793 -0.4518 -0.1191 -0.2398
   46CHL1  H26A 4578   2.136   0.027   4.718 -0.5188  1.6435 -0.6627
   46CHL1  H26B 4579   2.065  -0.018   4.887  1.0011 -1.2406 -1.0438
   46CHL1  H26C 4580   1.964  -0.004   4.749 -0.1623 -0.4096 -0.5580
   46CHL1   C27 4581   2.023   0.268   4.680  0.4694 -0.0415  0.5845
   46CHL1  H27A 4582   1.917   0.245   4.657  0.2571  0.5871  0.9367
   46CHL1  H27B 4583   2.033   0.376   4.702  0.7933  0.2175 -0.7290
   46CHL1  H27C 4584   2.090   0.246   4.594 -0.9225 -0.7744 -0.3578
   47CHL1    C3 4585   4.081   0.408   6.093 -0.0003  0.5765  0.5550
   47CHL1    H3 4586   3.982   0.361   6.076  0.4431 -0.3036  0.3078
   47CHL1    O3 4587   4.109   0.421   6.228  0.3971 -0.0485 -0.9993
   47CHL1   H3' 4588   4.164   0.350   6.261  3.2317  2.4690  0.2346
   47CHL1    C4 4589   4.191   0.304   6.036 -0.3519  0.2009  0.6558
   47CHL1   H4A 4590   4.291   0.348   6.053 -0.1293 -0.0203 -0.0451
   47CHL1   H4B 4591   4.182   0.209   6.093  0.8283  0.0518  0.6049
   47CHL1    C5 4592   4.176   0.278   5.889  0.2437 -0.1405  0.6197
   47CHL1    C6 4593   4.138   0.158   5.836 -0.4262 -0.6000  0.2703
   47CHL1    H6 4594   4.128   0.077   5.910  1.2418  0.0944  1.3138
   47CHL1    C7 4595   4.140   0.140   5.677 -0.3016  0.0701 -0.0841
   47CHL1   H7A 4596   4.175   0.043   5.635 -0.2897  0.4027 -0.8538
   47CHL1   H7B 4597   4.033   0.141   5.648  0.0577 -2.0995 -1.7151
   47CHL1    C8 4598   4.211   0.262   5.600  0.2094  0.2077  0.7563
   47CHL1    H8 4599   4.320   0.246   5.613  0.3199  0.5370  0.2665
   47CHL1   C14 4600   4.172   0.260   5.452 -0.2788  0.2455  0.2695
   47CHL1   H14 4601   4.063   0.278   5.455 -0.5320 -1.2664  1.6185
   47CHL1   C15 4602   4.195   0.128   5.382 -0.5041 -0.2960  0.4715
   47CHL1  H15A 4603   4.287   0.072   5.409  1.4346  1.9712 -1.1298
   47CHL1  H15B 4604   4.113   0.054   5.400 -0.6242 -0.6403 -1.3578
   47CHL1   C16 4605   4.192   0.170   5.230 -1.1633  0.1770 -0.9978
   47CHL1  H16A 4606   4.267   0.115   5.170  1.0571 -0.7911  2.3724
   47CHL1  H16B 4607   4.092   0.141   5.192 -1.4793 -2.1558  1.3399
   47CHL1   C17 4608   4.212   0.325   5.226  0.3042  0.1349 -0.4872
   47CHL1   H17 4609   4.115   0.372   5.202  1.5802  2.2793 -1.8590
   47CHL1   C13 4610   4.239   0.370   5.369 -1.2596  0.3792 -0.0858
   47CHL1   C18 4611   4.389   0.358   5.396 -0.1264  0.3042  0.2652
   47CHL1  H18A 4612   4.460   0.406   5.327  0.2099 -3.1508 -2.0390
   47CHL1  H18B 4613   4.420   0.382   5.500  0.2128  0.2718  0.1711
   47CHL1  H18C 4614   4.427   0.254   5.390  0.7949  0.6607 -0.1712
   47CHL1   C12 4615   4.194   0.503   5.415  0.4865 -0.4179  0.7721
   47CHL1  H12A 4616   4.236   0.588   5.356 -0.0124 -0.7490 -0.0758
   47CHL1  H12B 4617   4.086   0.504   5.389  0.5095  0.8334  0.6728
   47CHL1   C11 4618   4.205   0.522   5.566  0.1494 -0.2224 -0.5220
   47CHL1  H11A 4619   4.312   0.551   5.578  0.3690 -0.8639 -0.8619
   47CHL1  H11B 4620   4.137   0.600   5.606  0.9113  0.1917 -0.0140
   47CHL1    C9 4621   4.162   0.393   5.653  0.0598  0.6837 -0.6898
   47CHL1    H9 4622   4.053   0.401   5.637  0.2632  1.2090 -1.9249
   47CHL1   C10 4623   4.196   0.411   5.802 -0.0188 -0.4822 -0.2154
   47CHL1   C19 4624   4.337   0.458   5.815 -0.9040 -0.0609 -0.3534
   47CHL1  H19A 4625   4.410   0.383   5.779 -0.3286  0.8578 -1.1395
   47CHL1  H19B 4626   4.357   0.551   5.758 -3.1652 -0.2849 -1.6367
   47CHL1  H19C 4627   4.359   0.486   5.920 -0.0251 -0.4450 -0.4268
   47CHL1    C1 4628   4.097   0.517   5.866  0.3153 -0.5805  0.3609
   47CHL1   H1A 4629   4.112   0.618   5.823  0.1174 -0.5502  0.3614
   47CHL1   H1B 4630   3.989   0.492   5.852 -0.1061  0.5909  1.2994
   47CHL1    C2 4631   4.097   0.538   6.019  0.5126  0.2282  0.8311
   47CHL1   H2A 4632   4.017   0.611   6.041 -1.2697 -1.3785 -0.0692
   47CHL1   H2B 4633   4.193   0.585   6.051 -0.1731  0.4548  2.7091
   47CHL1   C20 4634   4.314   0.367   5.119 -0.1890  0.7213 -0.2540
   47CHL1   H20 4635   4.413   0.321   5.142 -1.5674 -3.0590 -1.2206
   47CHL1   C21 4636   4.330   0.523   5.120  0.1996 -0.7442 -0.1102
   47CHL1  H21A 4637   4.371   0.547   5.019  0.4290 -1.1863 -0.1252
   47CHL1  H21B 4638   4.399   0.570   5.194 -0.1305  1.8270 -1.3026
   47CHL1  H21C 4639   4.229   0.565   5.140 -0.4311 -2.3689  0.2047
   47CHL1   C22 4640   4.267   0.321   4.982  0.4188 -0.0032 -0.1174
   47CHL1  H22A 4641   4.216   0.222   4.987  1.3102 -0.4239  1.2324
   47CHL1  H22B 4642   4.201   0.403   4.948 -1.8218 -2.2589 -1.6217
   47CHL1   C23 4643   4.385   0.313   4.882  0.1410  0.3392 -0.2423
   47CHL1  H23A 4644   4.464   0.391   4.889  1.1784 -0.7790  0.8217
   47CHL1  H23B 4645   4.444   0.221   4.898 -3.9984 -2.8857 -1.6900
   47CHL1   C24 4646   4.339   0.306   4.741 -0.1273  0.3005 -0.0716
   47CHL1  H24A 4647   4.293   0.209   4.711 -0.1306  0.2933 -0.0429
   47CHL1  H24B 4648   4.266   0.389   4.731  1.7392  2.0018 -0.1512
   47CHL1   C25 4649   4.458   0.308   4.638  0.6536 -0.4403 -0.4668
   47CHL1   H25 4650   4.499   0.409   4.660 -0.0379 -0.4962  1.2500
   47CHL1   C26 4651   4.550   0.197   4.641 -0.2341  0.2397  0.9348
   47CHL1  H26A 4652   4.596   0.214   4.741 -2.4129  1.2942  1.8297
   47CHL1  H26B 4653   4.495   0.101   4.640 -0.7839  0.5462 -0.2519
   47CHL1  H26C 4654   4.631   0.197   4.565  0.4534  1.4877  1.6268
   47CHL1   C27 4655   4.405   0.309   4.492 -0.2479  0.4636  0.2493
   47CHL1  H27A 4656   4.494   0.319   4.425 -1.3338 -0.3691 -1.3902
   47CHL1  H27B 4657   4.353   0.217   4.456 -1.1072  0.5696  1.1916
   47CHL1  H27C 4658   4.350   0.402   4.469 -1.1704 -0.3471 -0.9352
   48CHL1    C3 4659   5.470   1.798   6.114 -0.0482  0.0809  0.4074
   48CHL1    H3 4660   5.382   1.731   6.113 -0.0455  0.0680 -0.5217
   48CHL1    O3 4661   5.495   1.823   6.249  0.1175  0.3905 -0.3135
   48CHL1   H3' 4662   5.410   1.853   6.281 -1.3301 -1.0915 -2.4706
   48CHL1    C4 4663   5.587   1.713   6.053  0.2304  0.1096  0.1854
   48CHL1   H4A 4664   5.680   1.771   6.074  0.1184  0.0461  0.8721
   48CHL1   H4B 4665   5.591   1.615   6.106  0.9321 -1.2742 -2.2324
   48CHL1    C5 4666   5.573   1.678   5.909  0.4405 -0.0156 -0.4203
   48CHL1    C6 4667   5.585   1.556   5.862  0.1236 -0.5032  0.1399
   48CHL1    H6 4668   5.612   1.467   5.920 -0.5470 -0.7265  0.1222
   48CHL1    C7 4669   5.571   1.524   5.715  0.5112 -0.1805  0.3950
   48CHL1   H7A 4670   5.656   1.456   5.689 -0.0119 -1.1919  1.2453
   48CHL1   H7B 4671   5.480   1.464   5.692 -0.0710  1.3281 -1.5256
   48CHL1    C8 4672   5.569   1.641   5.617  0.4278  0.3453 -0.2468
   48CHL1    H8 4673   5.673   1.679   5.610  0.5710 -0.1357 -0.8555
   48CHL1   C14 4674   5.509   1.609   5.486  0.0836  0.3931  0.3720
   48CHL1   H14 4675   5.404   1.589   5.518  0.0172  2.4326  1.6401
   48CHL1   C15 4676   5.558   1.483   5.412  0.5736 -0.5308 -0.3721
   48CHL1  H15A 4677   5.666   1.475   5.434  0.4057 -1.6001  0.1574
   48CHL1  H15B 4678   5.513   1.385   5.438 -0.7391 -0.1481 -1.1150
   48CHL1   C16 4679   5.533   1.510   5.263 -0.3915  0.9345  0.4927
   48CHL1  H16A 4680   5.629   1.526   5.210 -1.1789  2.0123 -0.6615
   48CHL1  H16B 4681   5.490   1.424   5.206  3.6880 -0.6825 -0.4960
   48CHL1   C17 4682   5.447   1.638   5.258  0.4773 -0.2387  0.1997
   48CHL1   H17 4683   5.344   1.613   5.291 -0.0270  1.0837 -0.2876
   48CHL1   C13 4684   5.501   1.721   5.379 -0.2397 -0.4243  0.3220
   48CHL1   C18 4685   5.643   1.766   5.347 -0.0045 -0.7492  0.7771
   48CHL1  H18A 4686   5.688   1.813   5.437  0.9873 -2.4502  1.2035
   48CHL1  H18B 4687   5.716   1.691   5.311  1.1155  0.4850  0.4104
   48CHL1  H18C 4688   5.643   1.842   5.266 -2.0409 -1.4998 -0.0033
   48CHL1   C12 4689   5.413   1.831   5.438 -0.2855  0.5683 -0.1161
   48CHL1  H12A 4690   5.416   1.918   5.369  0.4303 -0.8333 -1.9348
   48CHL1  H12B 4691   5.308   1.795   5.444  0.6525 -2.3852  0.1233
   48CHL1   C11 4692   5.452   1.869   5.581  0.4123  0.5107 -0.2566
   48CHL1  H11A 4693   5.548   1.925   5.573 -0.4951  2.4176  1.4838
   48CHL1  H11B 4694   5.383   1.938   5.634 -0.6530 -0.6239 -0.1206
   48CHL1    C9 4695   5.480   1.754   5.680  0.5810  0.1529 -0.0381
   48CHL1    H9 4696   5.381   1.707   5.698  0.1383  1.1365  0.1400
   48CHL1   C10 4697   5.531   1.795   5.817  0.1486 -0.0329  0.0669
   48CHL1   C19 4698   5.660   1.871   5.800  0.2642  0.5709  0.5113
   48CHL1  H19A 4699   5.659   1.966   5.743  0.3888  0.5740  0.5144
   48CHL1  H19B 4700   5.715   1.888   5.894  1.2015 -0.5467  0.1936
   48CHL1  H19C 4701   5.730   1.807   5.742 -1.2488 -0.5927 -0.1205
   48CHL1    C1 4702   5.425   1.898   5.886  0.2024 -0.0662  0.5058
   48CHL1   H1A 4703   5.411   2.001   5.848  0.0353 -0.1721  0.2818
   48CHL1   H1B 4704   5.327   1.848   5.870 -0.4087  0.5596  2.0695
   48CHL1    C2 4705   5.440   1.926   6.040  0.7572 -0.2101 -0.4209
   48CHL1   H2A 4706   5.348   1.977   6.075  1.1386  1.5657 -1.8183
   48CHL1   H2B 4707   5.515   2.007   6.056 -0.1715  0.3277  1.4023
   48CHL1   C20 4708   5.448   1.694   5.111 -0.2556  0.8843 -0.3090
   48CHL1   H20 4709   5.557   1.709   5.095 -0.1028  1.7593  1.3023
   48CHL1   C21 4710   5.379   1.834   5.099  0.3846 -0.1071 -0.2502
   48CHL1  H21A 4711   5.450   1.896   5.159  0.2712  0.8193 -1.0467
   48CHL1  H21B 4712   5.372   1.871   4.994  0.3613 -0.8131 -0.5030
   48CHL1  H21C 4713   5.274   1.825   5.134  0.7715  1.6515  1.5317
   48CHL1   C22 4714   5.392   1.604   4.992  0.2990  0.0271 -0.0607
   48CHL1  H22A 4715   5.414   1.662   4.900 -0.8650  1.9171  0.7936
   48CHL1  H22B 4716   5.450   1.509   4.993 -0.0687 -0.2040 -0.4091
   48CHL1   C23 4717   5.239   1.571   5.004 -0.4820 -0.5727 -0.0974
   48CHL1  H23A 4718   5.217   1.542   5.109 -0.0006  0.5547  0.3266
   48CHL1  H23B 4719   5.182   1.663   4.977  0.4485 -0.0387 -0.2714
   48CHL1   C24 4720   5.189   1.464   4.915  0.5556  0.1449 -0.9604
   48CHL1  H24A 4721   5.267   1.385   4.918 -0.4098 -0.8242 -0.7175
   48CHL1  H24B 4722   5.093   1.423   4.952  0.1786  1.3525 -0.5500
   48CHL1   C25 4723   5.172   1.494   4.770  0.3002 -0.4300  0.6660
   48CHL1   H25 4724   5.268   1.540   4.738  0.8370 -1.2393  1.0909
   48CHL1   C26 4725   5.168   1.365   4.687  0.3447  0.3437 -0.5124
   48CHL1  H26A 4726   5.178   1.403   4.582 -2.4251  3.2262  0.0939
   48CHL1  H26B 4727   5.256   1.300   4.705 -0.0090  0.4473  1.7845
   48CHL1  H26C 4728   5.078   1.300   4.687 -0.7375  1.6836 -2.7124
   48CHL1   C27 4729   5.044   1.578   4.738 -0.5738  0.6332  0.3342
   48CHL1  H27A 4730   4.950   1.528   4.770  0.7180 -1.4979  0.9230
   48CHL1  H27B 4731   5.054   1.676   4.790 -2.1876  0.8767  0.2482
   48CHL1  H27C 4732   5.039   1.597   4.629 -0.6153 -0.3202  0.1672
   49CHL1    C3 4733   3.139   0.460   3.012  0.1267 -0.8461  0.4384
   49CHL1    H3 4734   3.068   0.524   3.069  0.3411  0.0241 -0.2504
   49CHL1    O3 4735   3.099   0.457   2.880  0.5292  0.0963  0.2994
   49CHL1   H3' 4736   3.111   0.547   2.850  0.9975  0.6830  2.1521
   49CHL1    C4 4737   3.286   0.502   3.026  0.1752 -0.2715  0.5999
   49CHL1   H4A 4738   3.356   0.452   2.956 -0.1300  0.6614 -0.4078
   49CHL1   H4B 4739   3.291   0.610   2.997 -2.2452 -0.5524 -1.1515
   49CHL1    C5 4740   3.324   0.474   3.170  0.2881  0.1224 -0.2489
   49CHL1    C6 4741   3.364   0.581   3.253  1.0269 -0.5233 -0.5895
   49CHL1    H6 4742   3.352   0.682   3.212 -3.6609  0.2521  1.9513
   49CHL1    C7 4743   3.395   0.560   3.400 -0.7373  0.3273 -1.2163
   49CHL1   H7A 4744   3.478   0.628   3.430  0.2281 -1.2477 -0.1423
   49CHL1   H7B 4745   3.298   0.589   3.446 -0.4904 -0.7765  0.0748
   49CHL1    C8 4746   3.434   0.412   3.435  0.1627 -0.5202 -0.3512
   49CHL1    H8 4747   3.531   0.402   3.382  0.6733  0.9889  0.2297
   49CHL1   C14 4748   3.443   0.400   3.583 -0.3184  0.0138 -0.5907
   49CHL1   H14 4749   3.345   0.425   3.628 -1.2890 -0.2390 -2.4913
   49CHL1   C15 4750   3.536   0.491   3.667 -0.0818  0.4146 -0.0133
   49CHL1  H15A 4751   3.639   0.491   3.625 -0.4019  0.5552 -0.8160
   49CHL1  H15B 4752   3.501   0.597   3.672 -2.2377 -0.2667  0.4728
   49CHL1   C16 4753   3.547   0.428   3.802  0.8509  0.2812 -0.0631
   49CHL1  H16A 4754   3.650   0.443   3.838  0.7585  3.0420 -0.7240
   49CHL1  H16B 4755   3.477   0.479   3.872 -0.8761 -0.0318 -1.4823
   49CHL1   C17 4756   3.506   0.275   3.777 -0.2915 -0.2612 -0.7771
   49CHL1   H17 4757   3.407   0.256   3.823  0.3518 -0.1441  0.7209
   49CHL1   C13 4758   3.475   0.261   3.627 -0.0680 -0.8890 -0.3788
   49CHL1   C18 4759   3.608   0.222   3.562  0.8593 -0.1687  0.3322
   49CHL1  H18A 4760   3.605   0.243   3.453 -1.2338  1.9925  0.7311
   49CHL1  H18B 4761   3.688   0.289   3.598 -0.7784  1.6891  0.6527
   49CHL1  H18C 4762   3.649   0.119   3.570  0.2376 -0.3425  1.3323
   49CHL1   C12 4763   3.357   0.173   3.579  0.3250 -0.3559 -0.3202
   49CHL1  H12A 4764   3.383   0.073   3.618  0.9519 -0.7849 -1.7821
   49CHL1  H12B 4765   3.262   0.201   3.631  1.7665 -1.9203  3.4871
   49CHL1   C11 4766   3.326   0.177   3.432 -0.6498 -0.2023 -0.2911
   49CHL1  H11A 4767   3.418   0.134   3.386 -0.4327 -1.9773  1.6609
   49CHL1  H11B 4768   3.236   0.120   3.400 -0.5653 -0.0059 -0.9014
   49CHL1    C9 4769   3.321   0.326   3.381 -0.4345  0.5628 -0.1128
   49CHL1    H9 4770   3.227   0.373   3.417  0.7983  1.1973  2.4535
   49CHL1   C10 4771   3.310   0.329   3.225 -0.2676  0.2687  0.0628
   49CHL1   C19 4772   3.417   0.243   3.154 -0.0011  0.2419  0.5552
   49CHL1  H19A 4773   3.520   0.284   3.162  2.0024 -4.1569  0.0640
   49CHL1  H19B 4774   3.417   0.136   3.183  0.0061 -0.2980 -1.2990
   49CHL1  H19C 4775   3.399   0.250   3.045 -0.2370  1.8528  0.6675
   49CHL1    C1 4776   3.167   0.287   3.192  0.1793 -0.3391  0.2125
   49CHL1   H1A 4777   3.169   0.176   3.200 -0.4017 -0.3567  0.1270
   49CHL1   H1B 4778   3.088   0.346   3.243  0.5597  1.3014 -0.9995
   49CHL1    C2 4779   3.123   0.317   3.050 -0.1807  0.0895 -0.2728
   49CHL1   H2A 4780   3.016   0.294   3.034 -0.6243  1.3864  0.6142
   49CHL1   H2B 4781   3.190   0.246   2.997  0.2130 -0.7685  1.3092
   49CHL1   C20 4782   3.606   0.167   3.841  0.4085 -0.4167 -0.1671
   49CHL1   H20 4783   3.704   0.175   3.788  0.3455  0.8752 -0.1228
   49CHL1   C21 4784   3.555   0.027   3.821 -0.4565  0.0788 -0.4146
   49CHL1  H21A 4785   3.617  -0.053   3.866 -2.1092 -0.3368  1.2356
   49CHL1  H21B 4786   3.550  -0.003   3.714 -0.5750 -1.0458 -0.1013
   49CHL1  H21C 4787   3.453   0.015   3.863 -0.0399  0.5225  0.7696
   49CHL1   C22 4788   3.648   0.204   3.987 -0.3095  0.1023  0.1165
   49CHL1  H22A 4789   3.721   0.127   4.022 -0.7132 -1.0663 -1.4875
   49CHL1  H22B 4790   3.696   0.304   3.992  0.0793 -0.0940  0.4158
   49CHL1   C23 4791   3.534   0.201   4.087 -0.2263 -0.9282  0.0141
   49CHL1  H23A 4792   3.454   0.259   4.036  0.4297  0.1326  0.1758
   49CHL1  H23B 4793   3.504   0.094   4.093  3.3379 -1.9754  1.6282
   49CHL1   C24 4794   3.577   0.261   4.225 -0.5759 -0.0684 -0.8827
   49CHL1  H24A 4795   3.648   0.193   4.277 -1.1734 -0.4186 -0.5120
   49CHL1  H24B 4796   3.627   0.360   4.223  1.4810 -1.0494 -1.2756
   49CHL1   C25 4797   3.450   0.247   4.321 -0.5192  0.3364 -0.0721
   49CHL1   H25 4798   3.425   0.139   4.327  0.1626  0.1411 -0.6675
   49CHL1   C26 4799   3.488   0.296   4.461 -0.2890  0.6456 -0.8204
   49CHL1  H26A 4800   3.524   0.401   4.464  0.2700  0.4658 -1.0584
   49CHL1  H26B 4801   3.402   0.275   4.528 -0.1329  0.9069 -0.5372
   49CHL1  H26C 4802   3.573   0.234   4.497 -2.0219 -0.6457  1.2900
   49CHL1   C27 4803   3.329   0.321   4.278 -0.3561  0.5566 -0.4130
   49CHL1  H27A 4804   3.239   0.292   4.337  0.0612  1.4252  0.6803
   49CHL1  H27B 4805   3.358   0.428   4.279  1.3793  0.1206  0.1848
   49CHL1  H27C 4806   3.297   0.300   4.174  0.7238  3.0482 -1.3302
   50CHL1    C3 4807   2.274   4.420   2.708 -0.0354  0.3908  0.1095
   50CHL1    H3 4808   2.302   4.526   2.725 -1.4690  0.7477  0.3606
   50CHL1    O3 4809   2.243   4.405   2.571  0.3356 -0.1419  0.1365
   50CHL1   H3' 4810   2.323   4.365   2.535 -0.7483 -1.7120 -0.6161
   50CHL1    C4 4811   2.401   4.336   2.746  0.0249  0.2599  0.3332
   50CHL1   H4A 4812   2.380   4.229   2.724 -1.7616  0.3710  1.3145
   50CHL1   H4B 4813   2.490   4.377   2.693  1.6614 -0.5084  2.3302
   50CHL1    C5 4814   2.421   4.357   2.898  0.2750  0.0900 -0.1818
   50CHL1    C6 4815   2.533   4.403   2.951  0.3870  0.2517  0.1050
   50CHL1    H6 4816   2.611   4.439   2.882 -0.7987  0.2932 -1.2640
   50CHL1    C7 4817   2.557   4.435   3.095  0.2530  0.1203 -0.1344
   50CHL1   H7A 4818   2.660   4.405   3.126  0.4382  0.1063 -0.7514
   50CHL1   H7B 4819   2.556   4.542   3.124 -0.1324 -0.3252  1.6061
   50CHL1    C8 4820   2.455   4.371   3.183 -0.1617 -0.1242 -0.4627
   50CHL1    H8 4821   2.479   4.263   3.178  2.0704  0.3112 -0.6799
   50CHL1   C14 4822   2.455   4.410   3.330  0.0697 -0.1875  0.8102
   50CHL1   H14 4823   2.427   4.518   3.327  3.2463  0.7301 -0.3132
   50CHL1   C15 4824   2.580   4.394   3.412  1.2533  0.3614 -0.5576
   50CHL1  H15A 4825   2.620   4.291   3.397 -0.7021 -0.5166 -0.0266
   50CHL1  H15B 4826   2.664   4.465   3.393  2.5959 -1.1115 -0.3252
   50CHL1   C16 4827   2.537   4.418   3.553  0.1835  0.4960 -0.2026
   50CHL1  H16A 4828   2.581   4.343   3.621 -3.1490  0.7503  2.4948
   50CHL1  H16B 4829   2.573   4.515   3.593 -0.8836  0.5426  0.6921
   50CHL1   C17 4830   2.376   4.418   3.556 -0.3056 -0.3075 -0.0550
   50CHL1   H17 4831   2.360   4.527   3.541 -1.2544 -0.3635  0.4768
   50CHL1   C13 4832   2.340   4.361   3.422 -0.3125  0.2595 -0.5084
   50CHL1   C18 4833   2.354   4.207   3.445  0.1349 -0.3825  0.3734
   50CHL1  H18A 4834   2.276   4.166   3.514 -0.7271  2.7412  1.4269
   50CHL1  H18B 4835   2.341   4.144   3.354  3.1727 -0.3023 -0.2151
   50CHL1  H18C 4836   2.454   4.185   3.488  2.1176  2.5041 -2.3667
   50CHL1   C12 4837   2.206   4.392   3.374  0.2997  0.1343  0.3471
   50CHL1  H12A 4838   2.128   4.352   3.442  1.3319 -0.1338  1.4017
   50CHL1  H12B 4839   2.197   4.503   3.366  0.2501  0.0250 -1.3682
   50CHL1   C11 4840   2.192   4.340   3.232  0.3690 -0.2888 -0.3678
   50CHL1  H11A 4841   2.206   4.230   3.233  1.4292 -0.1767 -1.0226
   50CHL1  H11B 4842   2.090   4.365   3.195 -0.0412  0.9044  1.4496
   50CHL1    C9 4843   2.311   4.382   3.130 -0.1762 -0.1474  0.5088
   50CHL1    H9 4844   2.308   4.492   3.112 -1.4747 -0.3932 -1.0017
   50CHL1   C10 4845   2.294   4.329   2.983 -0.3872 -0.6614 -0.1021
   50CHL1   C19 4846   2.265   4.174   2.990 -0.4052 -0.4248  0.8045
   50CHL1  H19A 4847   2.255   4.131   2.887 -1.9029 -2.1764  1.6142
   50CHL1  H19B 4848   2.349   4.129   3.047 -0.7954 -0.0943  1.6380
   50CHL1  H19C 4849   2.170   4.149   3.043 -0.3662 -0.7435  0.7295
   50CHL1    C1 4850   2.171   4.402   2.933  0.2256  0.1158 -0.2011
   50CHL1   H1A 4851   2.079   4.364   2.982  1.4405 -0.8572  1.4569
   50CHL1   H1B 4852   2.176   4.512   2.947 -0.2392  0.0260  0.7626
   50CHL1    C2 4853   2.154   4.378   2.780  0.2152 -0.6797  0.2949
   50CHL1   H2A 4854   2.062   4.435   2.755  0.2315 -0.6045  0.4056
   50CHL1   H2B 4855   2.120   4.275   2.761 -0.9528 -0.0862 -1.0379
   50CHL1   C20 4856   2.310   4.377   3.692  0.3740 -0.3590  0.1003
   50CHL1   H20 4857   2.269   4.275   3.678 -0.4042  0.0556 -0.7981
   50CHL1   C21 4858   2.194   4.476   3.717 -0.4228  0.5637  0.2515
   50CHL1  H21A 4859   2.136   4.458   3.810 -0.4413  0.4181  0.2113
   50CHL1  H21B 4860   2.128   4.494   3.630  1.9228  2.1705 -1.3178
   50CHL1  H21C 4861   2.254   4.569   3.731  4.3077 -2.3078  1.1374
   50CHL1   C22 4862   2.412   4.366   3.814  0.2224  0.4656  0.0211
   50CHL1  H22A 4863   2.347   4.320   3.892  0.6347 -2.2487 -1.1308
   50CHL1  H22B 4864   2.499   4.299   3.798  0.2312  0.5625 -0.3427
   50CHL1   C23 4865   2.465   4.497   3.882 -0.2455 -0.2788  0.7754
   50CHL1  H23A 4866   2.534   4.551   3.813 -2.5473  1.7732 -0.0776
   50CHL1  H23B 4867   2.376   4.563   3.889  0.7430  1.0576  1.1216
   50CHL1   C24 4868   2.537   4.474   4.012  0.1080  0.4358  0.1395
   50CHL1  H24A 4869   2.522   4.366   4.031 -1.2892  0.3692 -1.1181
   50CHL1  H24B 4870   2.642   4.511   4.013 -0.3857  1.9092  0.4314
   50CHL1   C25 4871   2.473   4.543   4.132 -0.7648  0.5598 -0.1576
   50CHL1   H25 4872   2.370   4.507   4.154 -0.8537  1.8284  1.8119
   50CHL1   C26 4873   2.557   4.506   4.255  0.7725  0.0586  0.0523
   50CHL1  H26A 4874   2.667   4.522   4.246  0.6043  1.3121 -0.0107
   50CHL1  H26B 4875   2.524   4.570   4.340  2.5114 -1.2389  1.8104
   50CHL1  H26C 4876   2.534   4.399   4.270  2.6509 -0.7461 -2.1425
   50CHL1   C27 4877   2.459   4.703   4.118  0.6058 -0.1198 -0.3072
   50CHL1  H27A 4878   2.398   4.750   4.199  1.0285  0.1087 -0.1170
   50CHL1  H27B 4879   2.562   4.744   4.124  0.2444  0.7254  0.3601
   50CHL1  H27C 4880   2.403   4.738   4.029 -1.5236 -0.6284  0.7756
   51CHL1    C3 4881   1.168   4.751   2.694  0.4410 -0.1317  0.1104
   51CHL1    H3 4882   1.229   4.842   2.674  1.7985 -0.2008  3.2815
   51CHL1    O3 4883   1.086   4.712   2.583  0.3616 -0.3530  0.6417
   51CHL1   H3' 4884   1.039   4.629   2.589 -1.0163  0.1212 -2.0910
   51CHL1    C4 4885   1.251   4.635   2.744  0.7132  0.0424  0.0555
   51CHL1   H4A 4886   1.198   4.537   2.741  0.6253  0.0872 -3.2437
   51CHL1   H4B 4887   1.338   4.626   2.675  1.1891  0.3363  0.6080
   51CHL1    C5 4888   1.306   4.651   2.889 -0.4238  0.4331 -0.0695
   51CHL1    C6 4889   1.438   4.627   2.914  0.0584  0.2401 -0.5214
   51CHL1    H6 4890   1.501   4.581   2.836 -1.4150  0.4271 -1.8836
   51CHL1    C7 4891   1.500   4.634   3.058  0.2566  0.0107 -0.4873
   51CHL1   H7A 4892   1.565   4.548   3.087  0.1825 -0.7352 -2.4031
   51CHL1   H7B 4893   1.559   4.727   3.071 -2.5409  1.7716  0.3672
   51CHL1    C8 4894   1.386   4.645   3.163 -0.8058  0.1492  0.0802
   51CHL1    H8 4895   1.343   4.544   3.180 -0.6576 -0.1493 -1.2606
   51CHL1   C14 4896   1.453   4.695   3.290  0.4915  0.1104  0.2077
   51CHL1   H14 4897   1.505   4.792   3.275 -0.2608  0.4665 -0.1543
   51CHL1   C15 4898   1.558   4.611   3.361 -0.1322 -0.2045 -0.3522
   51CHL1  H15A 4899   1.519   4.507   3.363 -0.6285 -0.0415 -1.2087
   51CHL1  H15B 4900   1.660   4.614   3.317  0.3852 -2.9474  0.4846
   51CHL1   C16 4901   1.567   4.670   3.508  1.1411  0.0975  0.4054
   51CHL1  H16A 4902   1.556   4.593   3.588 -2.3507 -0.2988 -0.3049
   51CHL1  H16B 4903   1.663   4.723   3.524  0.8494  1.4954 -2.0129
   51CHL1   C17 4904   1.445   4.768   3.519  1.0539 -0.1431  0.0787
   51CHL1   H17 4905   1.487   4.867   3.491  0.3973  0.4390  1.0643
   51CHL1   C13 4906   1.351   4.723   3.402 -0.0271  0.0447 -0.5584
   51CHL1   C18 4907   1.276   4.589   3.453 -0.2246 -0.0416  0.4473
   51CHL1  H18A 4908   1.347   4.512   3.489  0.3277 -0.0266 -0.5839
   51CHL1  H18B 4909   1.191   4.615   3.520 -0.1191 -1.0002  0.9647
   51CHL1  H18C 4910   1.229   4.548   3.361  0.7735  0.0353 -0.1075
   51CHL1   C12 4911   1.258   4.836   3.350 -0.4554 -0.4448 -0.2753
   51CHL1  H12A 4912   1.189   4.876   3.428  0.9825  2.0287 -0.1906
   51CHL1  H12B 4913   1.317   4.921   3.311 -0.3690 -0.2535  0.2661
   51CHL1   C11 4914   1.174   4.791   3.233 -0.2745 -0.8848  0.9421
   51CHL1  H11A 4915   1.098   4.717   3.264 -1.3495 -0.4146 -0.4965
   51CHL1  H11B 4916   1.126   4.887   3.207  0.4367 -0.4714  1.1280
   51CHL1    C9 4917   1.277   4.745   3.125 -0.2494  0.3507 -0.0376
   51CHL1    H9 4918   1.332   4.839   3.104  0.1837  0.2747  0.7119
   51CHL1   C10 4919   1.208   4.700   2.992 -1.0453  0.5668 -0.4820
   51CHL1   C19 4920   1.100   4.595   3.032  0.1003 -0.0107  0.5869
   51CHL1  H19A 4921   1.005   4.641   3.063  0.7655  0.4979  1.9170
   51CHL1  H19B 4922   1.067   4.535   2.944 -0.6683 -0.9467  1.4950
   51CHL1  H19C 4923   1.135   4.518   3.104  0.1088  0.2429  0.8550
   51CHL1    C1 4924   1.129   4.827   2.930 -0.3411  0.5141  0.1425
   51CHL1   H1A 4925   1.047   4.856   2.999 -0.6066 -0.3258  0.1911
   51CHL1   H1B 4926   1.211   4.901   2.915  0.7864 -0.3466  1.7392
   51CHL1    C2 4927   1.060   4.795   2.794 -0.2429 -0.5260 -0.6287
   51CHL1   H2A 4928   1.009   4.886   2.755 -1.1915  0.3733  2.4191
   51CHL1   H2B 4929   0.981   4.721   2.816  1.5324 -1.7212  2.2812
   51CHL1   C20 4930   1.399   4.771   3.666 -0.0737  0.0369 -0.4393
   51CHL1   H20 4931   1.356   4.670   3.684 -0.0504  0.0340 -0.4010
   51CHL1   C21 4932   1.294   4.886   3.680  0.4301 -0.6138  0.5289
   51CHL1  H21A 4933   1.269   4.906   3.786  0.6447 -2.0890  0.8874
   51CHL1  H21B 4934   1.199   4.853   3.631  0.8662 -0.3415 -0.5139
   51CHL1  H21C 4935   1.340   4.972   3.628  0.4272 -1.8197 -1.5774
   51CHL1   C22 4936   1.504   4.787   3.775 -0.5293  1.0152 -0.5657
   51CHL1  H22A 4937   1.574   4.700   3.777 -0.1825  1.3059  0.0064
   51CHL1  H22B 4938   1.555   4.885   3.773  0.5810  0.6106  2.5091
   51CHL1   C23 4939   1.452   4.755   3.922 -0.2841 -0.5524 -0.1209
   51CHL1  H23A 4940   1.379   4.836   3.940  3.3631  2.3347  3.4997
   51CHL1  H23B 4941   1.404   4.655   3.915 -0.5007 -0.3278 -2.3171
   51CHL1   C24 4942   1.562   4.761   4.031  0.4184 -0.0002  0.4065
   51CHL1  H24A 4943   1.625   4.671   4.015 -0.0092 -0.0210 -1.3573
   51CHL1  H24B 4944   1.623   4.850   4.008  1.0847  0.2577  2.9411
   51CHL1   C25 4945   1.504   4.777   4.177 -0.8057 -0.5872  0.0510
   51CHL1   H25 4946   1.473   4.884   4.182  1.2430  0.0163  1.0552
   51CHL1   C26 4947   1.401   4.673   4.211 -0.0063 -0.5883  0.1989
   51CHL1  H26A 4948   1.354   4.697   4.308  0.8285  0.9003  0.2698
   51CHL1  H26B 4949   1.326   4.681   4.130 -0.7686  0.3206  0.9770
   51CHL1  H26C 4950   1.452   4.574   4.220  2.4160  0.6219  0.6950
   51CHL1   C27 4951   1.619   4.775   4.275 -0.2537  0.3851  0.3561
   51CHL1  H27A 4952   1.686   4.863   4.262  0.0624  0.0141 -0.6383
   51CHL1  H27B 4953   1.577   4.790   4.377 -0.7856 -0.6038  0.2933
   51CHL1  H27C 4954   1.685   4.687   4.266 -1.2475 -0.3038 -0.5499
   52CHL1    C3 4955   1.451   5.180   2.920 -0.6677  0.1964 -0.0679
   52CHL1    H3 4956   1.363   5.143   2.977  0.1256  0.6248  1.5122
   52CHL1    O3 4957   1.430   5.167   2.778  0.8291 -0.3627 -0.7734
   52CHL1   H3' 4958   1.501   5.113   2.742 -0.4271 -0.6295 -3.0214
   52CHL1    C4 4959   1.496   5.322   2.962  0.4371  0.5797 -0.0574
   52CHL1   H4A 4960   1.581   5.350   2.895 -1.6089  0.6237 -2.7910
   52CHL1   H4B 4961   1.420   5.398   2.933  1.2656  1.9487  1.1853
   52CHL1    C5 4962   1.531   5.346   3.103 -0.1426  0.1814 -0.5551
   52CHL1    C6 4963   1.472   5.448   3.167  0.6119  0.6344  0.3984
   52CHL1    H6 4964   1.401   5.514   3.115  1.7094  0.8653 -0.8715
   52CHL1    C7 4965   1.460   5.461   3.318 -0.2328  0.1130 -0.2924
   52CHL1   H7A 4966   1.498   5.559   3.353 -0.8705  0.7862 -1.4329
   52CHL1   H7B 4967   1.353   5.459   3.347  0.0480 -0.0094  0.7494
   52CHL1    C8 4968   1.554   5.368   3.395 -0.7119  0.7193 -1.0184
   52CHL1    H8 4969   1.658   5.407   3.388  0.1882 -0.6777  2.2727
   52CHL1   C14 4970   1.516   5.360   3.541 -0.0404  0.0254 -0.4635
   52CHL1   H14 4971   1.419   5.309   3.556  1.3472 -2.1678  1.9751
   52CHL1   C15 4972   1.502   5.501   3.621 -0.1542  0.2033 -0.5750
   52CHL1  H15A 4973   1.586   5.560   3.579  0.6317 -0.1499  0.4497
   52CHL1  H15B 4974   1.400   5.543   3.612  0.4818  1.5072 -2.2163
   52CHL1   C16 4975   1.528   5.460   3.766 -0.5155 -0.4047  0.7145
   52CHL1  H16A 4976   1.613   5.518   3.808 -0.5173 -0.8160  1.3028
   52CHL1  H16B 4977   1.438   5.472   3.830 -3.2378 -1.3968 -2.6528
   52CHL1   C17 4978   1.569   5.305   3.775 -0.2305 -0.5309  0.3236
   52CHL1   H17 4979   1.472   5.256   3.798 -1.9907  1.7589 -1.6738
   52CHL1   C13 4980   1.612   5.279   3.629 -0.4471 -0.5849 -0.2615
   52CHL1   C18 4981   1.763   5.325   3.623 -0.6073  0.1685  0.0001
   52CHL1  H18A 4982   1.835   5.248   3.659  0.4548  1.4789  0.8070
   52CHL1  H18B 4983   1.790   5.340   3.516 -0.1287  0.6786  0.1890
   52CHL1  H18C 4984   1.778   5.418   3.681  0.0438  0.4131 -0.5416
   52CHL1   C12 4985   1.600   5.135   3.577  0.3693 -0.5747 -0.0763
   52CHL1  H12A 4986   1.672   5.072   3.634  0.6307  1.2120  1.7092
   52CHL1  H12B 4987   1.497   5.105   3.604 -0.0678  1.0472  0.2089
   52CHL1   C11 4988   1.632   5.129   3.426  0.1784 -0.0346 -0.3152
   52CHL1  H11A 4989   1.737   5.157   3.402  0.2098 -0.1842 -0.3558
   52CHL1  H11B 4990   1.629   5.026   3.384  4.8772 -0.7202  0.4724
   52CHL1    C9 4991   1.556   5.231   3.337 -0.1870 -1.2763  0.1180
   52CHL1    H9 4992   1.449   5.202   3.349 -0.4377 -0.5304 -0.2563
   52CHL1   C10 4993   1.600   5.237   3.186  0.0840 -0.9883  0.5317
   52CHL1   C19 4994   1.746   5.275   3.173  0.0645  0.4936 -0.4838
   52CHL1  H19A 4995   1.803   5.192   3.220 -0.3114 -0.6543 -1.9720
   52CHL1  H19B 4996   1.785   5.278   3.069  0.4842 -0.7848 -0.3792
   52CHL1  H19C 4997   1.772   5.372   3.220  0.1509  0.9115 -1.3686
   52CHL1    C1 4998   1.570   5.100   3.121 -0.0986  0.5675 -0.3879
   52CHL1   H1A 4999   1.627   5.019   3.173 -1.1559  0.4363  0.6320
   52CHL1   H1B 5000   1.472   5.068   3.162  0.4032 -1.0627 -0.3742
   52CHL1    C2 5001   1.559   5.080   2.966 -0.0778  0.0124 -0.3232
   52CHL1   H2A 5002   1.527   4.977   2.938  1.1577 -1.2465  2.5126
   52CHL1   H2B 5003   1.658   5.088   2.916  0.6192 -2.2125  0.5499
   52CHL1   C20 5004   1.657   5.271   3.907 -0.1814 -0.9310 -0.7330
   52CHL1   H20 5005   1.742   5.341   3.896 -1.8090  1.2412 -0.1446
   52CHL1   C21 5006   1.694   5.123   3.905  0.2529 -0.3269 -0.2678
   52CHL1  H21A 5007   1.761   5.088   3.824 -0.6184 -1.6730 -0.4363
   52CHL1  H21B 5008   1.595   5.078   3.885 -0.6117  1.2288  0.3045
   52CHL1  H21C 5009   1.733   5.104   4.007  0.9432 -0.1176 -0.4809
   52CHL1   C22 5010   1.584   5.318   4.044  0.9026  0.3081 -0.7296
   52CHL1  H22A 5011   1.662   5.308   4.123  0.3385 -2.1487 -0.3866
   52CHL1  H22B 5012   1.558   5.426   4.047  0.0016  0.0862  0.8666
   52CHL1   C23 5013   1.461   5.231   4.084 -0.1587 -0.7303  0.0775
   52CHL1  H23A 5014   1.404   5.213   3.990 -2.6273  0.8062  1.2046
   52CHL1  H23B 5015   1.491   5.132   4.126 -1.5645 -0.1944  2.4723
   52CHL1   C24 5016   1.377   5.301   4.196  0.0636 -0.2584  0.4839
   52CHL1  H24A 5017   1.444   5.318   4.283 -0.6444  0.0704  0.9782
   52CHL1  H24B 5018   1.343   5.401   4.161  2.8379  0.2271 -1.0955
   52CHL1   C25 5019   1.254   5.232   4.245 -0.4311  0.1951  0.0548
   52CHL1   H25 5020   1.194   5.201   4.157 -0.4999  2.9971 -0.9803
   52CHL1   C26 5021   1.273   5.096   4.313 -0.2699 -0.1621 -0.1522
   52CHL1  H26A 5022   1.171   5.066   4.347  0.9465 -3.8612  0.7603
   52CHL1  H26B 5023   1.296   5.020   4.235 -0.0055  0.9133 -1.1498
   52CHL1  H26C 5024   1.343   5.087   4.399 -2.1587  1.7432  1.7190
   52CHL1   C27 5025   1.180   5.316   4.346 -0.5349 -0.0755 -0.1753
   52CHL1  H27A 5026   1.173   5.418   4.303 -0.2584 -0.4961 -1.2437
   52CHL1  H27B 5027   1.077   5.285   4.372 -0.8480  3.4743  3.8640
   52CHL1  H27C 5028   1.240   5.303   4.438 -0.5625  1.5070  0.0896
   53CHL1    C3 5029   0.606   5.297   2.857 -0.1446  0.4121  0.2911
   53CHL1    H3 5030   0.717   5.307   2.850 -0.2309  0.7667 -0.6752
   53CHL1    O3 5031   0.559   5.353   2.731 -0.1402  0.0943 -0.3790
   53CHL1   H3' 5032   0.568   5.291   2.658 -1.8954  1.1943 -1.6122
   53CHL1    C4 5033   0.562   5.153   2.869 -0.3442  0.6605 -0.6731
   53CHL1   H4A 5034   0.452   5.141   2.866 -0.2682 -0.1749 -0.3853
   53CHL1   H4B 5035   0.602   5.093   2.784 -0.6476 -1.9163  0.9217
   53CHL1    C5 5036   0.605   5.097   3.007 -0.4151 -0.1712  0.1137
   53CHL1    C6 5037   0.688   4.992   3.019 -0.0409  0.7694  0.5641
   53CHL1    H6 5038   0.713   4.943   2.923 -2.7722 -1.9452  1.0610
   53CHL1    C7 5039   0.734   4.926   3.146  0.0768  0.0306  0.0681
   53CHL1   H7A 5040   0.716   4.818   3.130  0.0567 -0.1947  1.4266
   53CHL1   H7B 5041   0.842   4.940   3.168  0.1929 -1.4299  0.5159
   53CHL1    C8 5042   0.652   4.972   3.274 -0.4618  0.0155  0.5356
   53CHL1    H8 5043   0.553   4.921   3.278 -0.3992 -0.3258 -1.3396
   53CHL1   C14 5044   0.734   4.940   3.400  1.3579  0.0612 -0.4060
   53CHL1   H14 5045   0.830   4.994   3.388  0.4174  1.5729 -1.5955
   53CHL1   C15 5046   0.767   4.793   3.426 -0.0827  0.4981 -0.1886
   53CHL1  H15A 5047   0.685   4.730   3.387  1.3999 -0.3287 -2.1699
   53CHL1  H15B 5048   0.860   4.756   3.378 -1.5955 -2.0709 -1.3274
   53CHL1   C16 5049   0.790   4.793   3.579  0.5607  0.1864  0.2151
   53CHL1  H16A 5050   0.720   4.716   3.620 -1.5255  1.0524 -1.4698
   53CHL1  H16B 5051   0.887   4.751   3.611 -0.6914 -1.7000  1.8053
   53CHL1   C17 5052   0.758   4.936   3.633  0.1160  0.6067 -0.5176
   53CHL1   H17 5053   0.853   4.991   3.617  0.2358  0.3900 -0.5649
   53CHL1   C13 5054   0.661   4.990   3.528 -0.0736  0.0247  0.3899
   53CHL1   C18 5055   0.531   4.914   3.534  0.5591 -0.1664  0.2032
   53CHL1  H18A 5056   0.478   4.960   3.620 -0.7005 -0.1941 -0.5318
   53CHL1  H18B 5057   0.465   4.939   3.448  1.8699 -0.2023 -0.8560
   53CHL1  H18C 5058   0.536   4.804   3.548 -0.2234 -0.2850 -0.3889
   53CHL1   C12 5059   0.646   5.140   3.510  0.1920 -0.1617  0.5921
   53CHL1  H12A 5060   0.589   5.192   3.590 -0.6778  2.1383 -1.3927
   53CHL1  H12B 5061   0.748   5.180   3.492  0.7919 -1.2702  1.4332
   53CHL1   C11 5062   0.562   5.176   3.390 -0.6166  0.1991 -0.3160
   53CHL1  H11A 5063   0.457   5.141   3.406 -1.4693  0.7068 -3.9191
   53CHL1  H11B 5064   0.558   5.287   3.380 -0.6519  0.3812  1.3861
   53CHL1    C9 5065   0.619   5.118   3.257 -0.2295 -0.0813 -0.2463
   53CHL1    H9 5066   0.720   5.162   3.254  0.3906 -1.4120  0.1814
   53CHL1   C10 5067   0.555   5.170   3.131 -0.7526  0.1436  0.7708
   53CHL1   C19 5068   0.397   5.164   3.145 -0.4881  0.0780  0.1320
   53CHL1  H19A 5069   0.373   5.232   3.229  0.9071  0.4864  0.2315
   53CHL1  H19B 5070   0.345   5.206   3.056 -1.2774 -0.8399  0.1452
   53CHL1  H19C 5071   0.369   5.057   3.152  1.8903 -0.5508  0.7045
   53CHL1    C1 5072   0.597   5.317   3.110  0.2956  0.2108  0.0467
   53CHL1   H1A 5073   0.564   5.390   3.188  2.2272  3.2891 -1.8017
   53CHL1   H1B 5074   0.707   5.327   3.113  0.2173  1.1549  0.3409
   53CHL1    C2 5075   0.549   5.379   2.974 -0.5645 -0.1473 -0.2638
   53CHL1   H2A 5076   0.572   5.488   2.971  0.3553 -0.3471 -0.9517
   53CHL1   H2B 5077   0.441   5.370   2.953 -0.5920  0.0701 -0.2210
   53CHL1   C20 5078   0.717   4.943   3.779 -0.1099 -0.0499 -0.2858
   53CHL1   H20 5079   0.607   4.930   3.783 -0.2189  0.1632 -1.7871
   53CHL1   C21 5080   0.746   5.086   3.832 -0.4681 -0.1605 -0.0094
   53CHL1  H21A 5081   0.854   5.112   3.824 -0.1448 -1.4659 -0.1585
   53CHL1  H21B 5082   0.721   5.093   3.940  1.7940  1.0938  0.5058
   53CHL1  H21C 5083   0.693   5.171   3.784 -0.6231 -0.4320 -0.3165
   53CHL1   C22 5084   0.775   4.838   3.886  0.2195 -0.0086  0.2565
   53CHL1  H22A 5085   0.725   4.852   3.984  1.6954 -1.7282  1.3023
   53CHL1  H22B 5086   0.743   4.736   3.858  0.1142 -0.0239  0.4349
   53CHL1   C23 5087   0.925   4.837   3.903 -0.0155  0.2519  0.0921
   53CHL1  H23A 5088   0.975   4.813   3.806 -1.9131 -0.6485 -0.7056
   53CHL1  H23B 5089   0.969   4.935   3.934  1.3629 -0.5422  0.7768
   53CHL1   C24 5090   0.969   4.751   4.020 -0.0427  0.4559 -0.8507
   53CHL1  H24A 5091   0.928   4.650   4.000 -0.8042  0.1217  2.0250
   53CHL1  H24B 5092   1.080   4.742   4.019 -0.0819 -0.2643  0.2322
   53CHL1   C25 5093   0.926   4.786   4.166  0.1417  0.1758  0.1317
   53CHL1   H25 5094   0.815   4.786   4.161  0.1612 -0.2946 -0.3823
   53CHL1   C26 5095   0.970   4.675   4.266 -0.8395 -0.5268 -0.0362
   53CHL1  H26A 5096   0.944   4.714   4.367  1.8484  3.6026 -0.7270
   53CHL1  H26B 5097   0.924   4.574   4.255 -1.8090 -0.3925  2.2738
   53CHL1  H26C 5098   1.079   4.654   4.265 -0.3877  1.5088  0.8684
   53CHL1   C27 5099   0.979   4.924   4.213  0.2680  0.5244  0.5113
   53CHL1  H27A 5100   0.933   5.003   4.151 -0.7004 -0.8924 -0.6458
   53CHL1  H27B 5101   0.938   4.925   4.316  0.2901 -0.5711  0.5477
   53CHL1  H27C 5102   1.090   4.918   4.211  0.4267  2.1271 -2.9804
   54CHL1    C3 5103   1.388   5.957   2.873 -0.3390 -0.0326 -0.5033
   54CHL1    H3 5104   1.469   5.883   2.890  1.8578  2.2225 -0.5678
   54CHL1    O3 5105   1.385   5.980   2.738  0.2202  0.1371 -0.1296
   54CHL1   H3' 5106   1.347   6.064   2.710  0.9517  0.1059 -1.2679
   54CHL1    C4 5107   1.252   5.888   2.921  0.1032 -0.2604 -1.0860
   54CHL1   H4A 5108   1.174   5.956   2.880  0.4709  0.1483 -1.1100
   54CHL1   H4B 5109   1.253   5.792   2.864 -0.8856 -0.1122 -1.3772
   54CHL1    C5 5110   1.242   5.874   3.071 -0.7187 -0.7548 -0.3565
   54CHL1    C6 5111   1.222   5.755   3.136  0.0895 -0.5631  0.0500
   54CHL1    H6 5112   1.224   5.663   3.075  0.3875 -0.9495  0.6308
   54CHL1    C7 5113   1.210   5.731   3.280 -0.1412  0.6721 -0.3876
   54CHL1   H7A 5114   1.120   5.677   3.316  1.2840 -0.1527  2.1607
   54CHL1   H7B 5115   1.295   5.670   3.316 -0.2491  1.3013  1.0405
   54CHL1    C8 5116   1.199   5.862   3.362 -0.1790  0.1676 -0.4785
   54CHL1    H8 5117   1.093   5.896   3.358  0.3406  1.8151 -2.2953
   54CHL1   C14 5118   1.239   5.833   3.510 -0.5006 -0.6172  0.0771
   54CHL1   H14 5119   1.347   5.811   3.505 -0.8319 -2.6372  0.8756
   54CHL1   C15 5120   1.159   5.723   3.587 -0.3207 -0.0868 -0.6988
   54CHL1  H15A 5121   1.051   5.722   3.561  0.1185 -3.4083 -3.1502
   54CHL1  H15B 5122   1.208   5.624   3.569 -0.5351 -0.1404 -0.9958
   54CHL1   C16 5123   1.183   5.754   3.740 -0.6620 -0.0161 -0.1862
   54CHL1  H16A 5124   1.083   5.770   3.784 -1.0446 -1.5507 -0.4329
   54CHL1  H16B 5125   1.235   5.670   3.791 -0.5840  0.0533 -0.1492
   54CHL1   C17 5126   1.273   5.878   3.735 -0.0688 -0.5841 -0.3966
   54CHL1   H17 5127   1.380   5.851   3.722  0.0087  0.2926 -1.8969
   54CHL1   C13 5128   1.237   5.947   3.606  0.6149 -0.8310  0.3414
   54CHL1   C18 5129   1.098   6.009   3.608 -1.4524 -0.4471  0.3133
   54CHL1  H18A 5130   1.068   6.049   3.509  0.4660 -2.0779 -0.9927
   54CHL1  H18B 5131   1.019   5.935   3.634  1.8109 -4.0403  0.8154
   54CHL1  H18C 5132   1.097   6.098   3.675  1.3328 -1.7469  2.2786
   54CHL1   C12 5133   1.330   6.058   3.554 -0.3874 -0.0873  0.3062
   54CHL1  H12A 5134   1.343   6.144   3.623 -0.1521  0.9089 -0.9299
   54CHL1  H12B 5135   1.435   6.021   3.557 -0.3341 -0.0513 -0.7442
   54CHL1   C11 5136   1.311   6.094   3.405  0.4141 -0.3558 -0.1416
   54CHL1  H11A 5137   1.221   6.159   3.404  0.7628  0.1575  0.5779
   54CHL1  H11B 5138   1.385   6.170   3.370 -1.2160  1.9682  1.1722
   54CHL1    C9 5139   1.290   5.975   3.307 -0.1371 -0.0238 -0.1243
   54CHL1    H9 5140   1.389   5.925   3.313 -0.9834 -1.6678  1.5496
   54CHL1   C10 5141   1.275   6.001   3.154 -0.1265 -0.2749  1.0266
   54CHL1   C19 5142   1.154   6.102   3.137 -0.0805  0.1967  0.2654
   54CHL1  H19A 5143   1.064   6.077   3.197  0.4198  0.4687  1.1413
   54CHL1  H19B 5144   1.193   6.200   3.173  1.6162  0.0025 -0.9038
   54CHL1  H19C 5145   1.113   6.123   3.036 -1.7203  0.8709  1.0368
   54CHL1    C1 5146   1.403   6.067   3.095  0.1445 -0.5964 -0.2900
   54CHL1   H1A 5147   1.409   6.159   3.157 -1.2796  0.0783 -1.1027
   54CHL1   H1B 5148   1.489   6.005   3.127  0.3669  0.2842  0.8757
   54CHL1    C2 5149   1.406   6.087   2.945  0.4749  0.8385 -0.7082
   54CHL1   H2A 5150   1.505   6.132   2.920  0.9090 -0.3885 -1.2704
   54CHL1   H2B 5151   1.321   6.152   2.914  2.0112  4.7600  2.3628
   54CHL1   C20 5152   1.275   5.964   3.869 -0.0175 -0.4464 -0.0426
   54CHL1   H20 5153   1.293   6.069   3.839 -4.1605  0.7997  1.1471
   54CHL1   C21 5154   1.391   5.911   3.953 -0.1851  0.5324  0.2257
   54CHL1  H21A 5155   1.485   5.925   3.894 -0.4303  1.2244 -0.0168
   54CHL1  H21B 5156   1.393   5.804   3.980  1.1990  0.4073 -0.2554
   54CHL1  H21C 5157   1.396   5.964   4.051 -2.3587  0.8184  0.2222
   54CHL1   C22 5158   1.147   5.976   3.940  0.3764 -0.7237 -0.4059
   54CHL1  H22A 5159   1.057   5.953   3.880 -0.5705 -0.5735  0.8963
   54CHL1  H22B 5160   1.142   5.906   4.027  1.0561  0.7158  0.8481
   54CHL1   C23 5161   1.133   6.115   4.009 -0.0188  0.0563 -0.2393
   54CHL1  H23A 5162   1.236   6.133   4.047  1.1824 -1.2755 -2.6223
   54CHL1  H23B 5163   1.117   6.198   3.937  1.0881  0.8593  0.4115
   54CHL1   C24 5164   1.035   6.115   4.126  0.0249  1.0085 -0.0529
   54CHL1  H24A 5165   0.952   6.184   4.099 -1.2133 -0.2821  0.3234
   54CHL1  H24B 5166   0.988   6.015   4.139 -0.3897  0.8452 -2.4224
   54CHL1   C25 5167   1.086   6.154   4.257 -0.3734 -0.3078 -0.2885
   54CHL1   H25 5168   1.161   6.234   4.240 -1.3619  1.3736  2.5914
   54CHL1   C26 5169   0.966   6.195   4.348 -0.7366 -0.1940  0.5383
   54CHL1  H26A 5170   0.896   6.112   4.370 -1.2632  0.1761  0.2783
   54CHL1  H26B 5171   1.004   6.236   4.444  0.6057 -1.4122  0.5560
   54CHL1  H26C 5172   0.908   6.269   4.288  0.8597  0.1846 -0.6054
   54CHL1   C27 5173   1.162   6.039   4.320 -0.1158 -0.0517 -0.2660
   54CHL1  H27A 5174   1.239   5.997   4.252 -0.3655  0.6080 -0.9726
   54CHL1  H27B 5175   1.207   6.084   4.411 -0.8422  1.3351 -0.5487
   54CHL1  H27C 5176   1.089   5.962   4.354 -0.7069  0.3360 -0.6307
   55CHL1    C3 5177   2.208   2.224   2.633  0.0691  0.1313 -0.3852
   55CHL1    H3 5178   2.298   2.158   2.634 -0.0235 -0.0078  0.9500
   55CHL1    O3 5179   2.198   2.247   2.497 -0.0169 -0.3218  1.0667
   55CHL1   H3' 5180   2.126   2.304   2.471  0.7143 -0.4226 -1.4262
   55CHL1    C4 5181   2.083   2.146   2.679 -0.0566  0.4918 -0.1424
   55CHL1   H4A 5182   1.993   2.209   2.660 -2.2974 -1.6612  2.4304
   55CHL1   H4B 5183   2.065   2.056   2.617  0.2329  0.7688 -0.6303
   55CHL1    C5 5184   2.078   2.111   2.827  0.3177 -0.0637 -0.4626
   55CHL1    C6 5185   2.057   1.990   2.881  0.6759  0.1484  0.0710
   55CHL1    H6 5186   2.019   1.913   2.812 -1.1573  2.2230 -1.3432
   55CHL1    C7 5187   2.052   1.964   3.028 -0.0044  0.1987 -0.4403
   55CHL1   H7A 5188   1.960   1.910   3.057  0.9149 -1.8485 -1.0985
   55CHL1   H7B 5189   2.131   1.890   3.056  1.0357  1.5589  0.3115
   55CHL1    C8 5190   2.068   2.082   3.121  0.6732 -0.5061 -0.0409
   55CHL1    H8 5191   1.968   2.128   3.137  1.2330  0.4957  0.7429
   55CHL1   C14 5192   2.115   2.029   3.264 -0.4220 -1.0442 -0.2622
   55CHL1   H14 5193   2.218   1.988   3.256  0.5436  0.7919  1.8419
   55CHL1   C15 5194   2.031   1.918   3.329  0.2499 -0.0834  0.5450
   55CHL1  H15A 5195   1.925   1.950   3.322  0.6842  1.7404  1.8243
   55CHL1  H15B 5196   2.049   1.820   3.279 -2.6289 -0.3218 -0.2442
   55CHL1   C16 5197   2.083   1.924   3.471  0.1404 -0.5217 -0.1638
   55CHL1  H16A 5198   2.009   1.915   3.553  3.0393 -1.3062  2.5825
   55CHL1  H16B 5199   2.157   1.843   3.487  0.5852  0.0102  0.5702
   55CHL1   C17 5200   2.168   2.060   3.491  0.3240 -0.2680 -1.0557
   55CHL1   H17 5201   2.274   2.027   3.480  0.5627 -0.8273  2.0427
   55CHL1   C13 5202   2.123   2.148   3.365  0.9677 -0.5076  0.0599
   55CHL1   C18 5203   1.984   2.216   3.394 -0.0878 -0.1247  0.5227
   55CHL1  H18A 5204   1.950   2.258   3.297  0.3981  0.0697  0.4321
   55CHL1  H18B 5205   1.911   2.139   3.426  0.4250 -1.9715 -2.4175
   55CHL1  H18C 5206   1.988   2.305   3.461 -0.5895  0.8864 -0.7420
   55CHL1   C12 5207   2.228   2.243   3.308 -0.4645  0.0202  0.1468
   55CHL1  H12A 5208   2.248   2.336   3.366  0.3399  0.5825 -0.9941
   55CHL1  H12B 5209   2.320   2.181   3.299 -1.1384 -0.9150 -0.4644
   55CHL1   C11 5210   2.189   2.300   3.175 -0.0784  0.0130  0.2916
   55CHL1  H11A 5211   2.100   2.364   3.194  1.4276  2.0538  0.8314
   55CHL1  H11B 5212   2.271   2.360   3.129 -0.2745  0.0974  0.0547
   55CHL1    C9 5213   2.166   2.190   3.069 -0.4396 -0.1152 -0.5282
   55CHL1    H9 5214   2.264   2.140   3.053 -0.6324 -0.3974 -0.8328
   55CHL1   C10 5215   2.129   2.230   2.925 -0.3486  0.1799  0.1473
   55CHL1   C19 5216   2.001   2.325   2.937 -0.2245 -0.3495  0.2928
   55CHL1  H19A 5217   1.930   2.285   3.013  0.0975 -0.9926  0.2564
   55CHL1  H19B 5218   2.026   2.428   2.972  3.0600 -0.6109 -0.9466
   55CHL1  H19C 5219   1.947   2.344   2.842 -2.2713  1.6652  1.7247
   55CHL1    C1 5220   2.239   2.321   2.859 -0.5081  0.2129 -0.6249
   55CHL1   H1A 5221   2.227   2.420   2.908 -2.1922 -0.8602  1.2826
   55CHL1   H1B 5222   2.340   2.277   2.870 -0.3223  0.0591 -2.5899
   55CHL1    C2 5223   2.232   2.350   2.712 -0.3733  0.4450  0.5234
   55CHL1   H2A 5224   2.329   2.397   2.686  0.5444 -1.4021  0.4426
   55CHL1   H2B 5225   2.147   2.416   2.686  1.2790  1.2654 -3.6844
   55CHL1   C20 5226   2.147   2.127   3.625  0.4312  0.4583  1.1380
   55CHL1   H20 5227   2.037   2.138   3.643  0.3459  0.8848  0.3771
   55CHL1   C21 5228   2.216   2.266   3.637 -0.1222  0.2434  0.1162
   55CHL1  H21A 5229   2.166   2.347   3.579  0.1754  0.9516  0.8285
   55CHL1  H21B 5230   2.321   2.264   3.600  0.8593  0.4986  2.6611
   55CHL1  H21C 5231   2.221   2.293   3.744  0.4580  1.4961 -0.2094
   55CHL1   C22 5232   2.184   2.031   3.738 -0.6302  0.1722 -0.6784
   55CHL1  H22A 5233   2.159   2.091   3.829  0.8122  0.2991 -0.3309
   55CHL1  H22B 5234   2.134   1.932   3.739 -0.2536 -0.2457 -5.0006
   55CHL1   C23 5235   2.339   2.008   3.762  0.2460 -0.3797 -0.0286
   55CHL1  H23A 5236   2.382   1.937   3.689  0.1961  0.5458 -0.9851
   55CHL1  H23B 5237   2.389   2.108   3.766 -0.3378  0.1193 -2.7796
   55CHL1   C24 5238   2.378   1.938   3.898  0.6337 -0.1991  0.1360
   55CHL1  H24A 5239   2.307   1.853   3.912 -1.6006  1.0953 -2.3112
   55CHL1  H24B 5240   2.474   1.883   3.888 -0.2958 -2.0050  0.6977
   55CHL1   C25 5241   2.377   2.029   4.023  0.0279  0.2613  0.0521
   55CHL1   H25 5242   2.289   2.095   4.033  2.8130  4.0063  2.2633
   55CHL1   C26 5243   2.388   1.938   4.156  0.4789  0.2626 -0.4029
   55CHL1  H26A 5244   2.298   1.874   4.163  0.3234  0.4185 -0.9316
   55CHL1  H26B 5245   2.479   1.874   4.147 -0.4099 -1.0673 -0.1899
   55CHL1  H26C 5246   2.398   2.015   4.236  0.0305  1.6834 -1.6547
   55CHL1   C27 5247   2.500   2.119   4.029  1.1843  0.4104 -0.0237
   55CHL1  H27A 5248   2.479   2.200   3.955  1.3813 -0.5203 -1.1212
   55CHL1  H27B 5249   2.515   2.159   4.132 -0.2321  0.4463  0.1975
   55CHL1  H27C 5250   2.585   2.057   3.995  2.1879  1.2152  0.9667
   56CHL1    C3 5251   3.732   3.433   2.232  0.5683  1.1405  0.3222
   56CHL1    H3 5252   3.661   3.356   2.268  0.2981  1.9234  1.5079
   56CHL1    O3 5253   3.755   3.432   2.093  0.2822  0.3515 -0.1789
   56CHL1   H3' 5254   3.825   3.498   2.081 -0.1479  1.0772  1.0959
   56CHL1    C4 5255   3.670   3.571   2.270 -0.3500  0.2039 -0.1016
   56CHL1   H4A 5256   3.730   3.651   2.223 -0.2808  0.7569  0.8978
   56CHL1   H4B 5257   3.567   3.577   2.231 -1.5266 -0.0861  2.7076
   56CHL1    C5 5258   3.665   3.600   2.420 -0.0007  0.2718  0.7592
   56CHL1    C6 5259   3.549   3.622   2.490  0.0005  0.0357 -0.1217
   56CHL1    H6 5260   3.454   3.639   2.437 -0.8125 -0.3167  1.1721
   56CHL1    C7 5261   3.548   3.641   2.638  0.1769  0.6702  0.3374
   56CHL1   H7A 5262   3.466   3.712   2.664 -1.7984 -1.1112 -0.7169
   56CHL1   H7B 5263   3.525   3.549   2.696  1.5510  0.5066  0.6610
   56CHL1    C8 5264   3.677   3.701   2.698  0.2637 -0.3005 -0.3501
   56CHL1    H8 5265   3.695   3.805   2.665 -2.3415  0.7523  1.2657
   56CHL1   C14 5266   3.664   3.707   2.847 -0.2552  0.0291 -0.4221
   56CHL1   H14 5267   3.646   3.604   2.882 -1.9721  0.7406  0.9373
   56CHL1   C15 5268   3.544   3.783   2.907  0.3133  0.1497  0.9311
   56CHL1  H15A 5269   3.525   3.880   2.858  1.0794  0.7260  1.7363
   56CHL1  H15B 5270   3.453   3.720   2.911 -0.4064  1.2250  2.4870
   56CHL1   C16 5271   3.592   3.810   3.054  0.1959  0.2921 -0.2681
   56CHL1  H16A 5272   3.587   3.921   3.059  0.3467  0.4405 -2.4157
   56CHL1  H16B 5273   3.523   3.775   3.133 -1.1923  1.4710 -0.9173
   56CHL1   C17 5274   3.738   3.765   3.072  0.2977 -0.5750  0.1850
   56CHL1   H17 5275   3.722   3.658   3.096 -0.9668 -0.3583  0.3887
   56CHL1   C13 5276   3.791   3.762   2.920 -0.4817 -0.0694 -0.3412
   56CHL1   C18 5277   3.824   3.904   2.881  0.8826  0.0686  0.1862
   56CHL1  H18A 5278   3.908   3.943   2.943 -0.9331  1.0451  2.1461
   56CHL1  H18B 5279   3.850   3.905   2.773 -0.4701  1.0751 -0.1531
   56CHL1  H18C 5280   3.740   3.973   2.899  1.7018  1.4226 -0.9313
   56CHL1   C12 5281   3.900   3.658   2.887 -0.2058 -1.0020  0.4911
   56CHL1  H12A 5282   4.000   3.671   2.932 -0.8670  0.9565  1.4777
   56CHL1  H12B 5283   3.855   3.563   2.924 -1.4425 -0.2804  0.8910
   56CHL1   C11 5284   3.924   3.652   2.728 -0.1405 -0.2068 -0.4591
   56CHL1  H11A 5285   3.973   3.746   2.694  1.4627 -0.2112  1.6087
   56CHL1  H11B 5286   3.997   3.573   2.700  1.1315  0.8368 -0.1722
   56CHL1    C9 5287   3.795   3.613   2.653 -0.1929  0.2862  0.4626
   56CHL1    H9 5288   3.754   3.516   2.691 -0.4187 -0.4671 -1.5737
   56CHL1   C10 5289   3.802   3.598   2.494 -0.5681  0.0851 -0.3126
   56CHL1   C19 5290   3.882   3.716   2.441 -0.6058  0.1283  0.0031
   56CHL1  H19A 5291   3.908   3.720   2.333  2.1374  0.6747  0.6185
   56CHL1  H19B 5292   3.843   3.816   2.471  0.1198  0.6332 -0.6879
   56CHL1  H19C 5293   3.986   3.709   2.479  0.1370  0.8520 -1.7630
   56CHL1    C1 5294   3.865   3.456   2.461  0.0964  0.1757  0.0235
   56CHL1   H1A 5295   3.969   3.456   2.501 -0.8427  1.0828  2.7102
   56CHL1   H1B 5296   3.813   3.376   2.518  1.2674 -0.1620  0.6527
   56CHL1    C2 5297   3.872   3.420   2.307 -0.2097 -0.0131 -0.8824
   56CHL1   H2A 5298   3.908   3.315   2.306 -0.1657 -0.0673  1.6208
   56CHL1   H2B 5299   3.952   3.489   2.272  0.7399 -1.1664 -1.0542
   56CHL1   C20 5300   3.817   3.836   3.178 -0.5681  0.4062 -0.1516
   56CHL1   H20 5301   3.819   3.945   3.158 -0.8754  0.5455  0.5407
   56CHL1   C21 5302   3.965   3.776   3.176  0.1757  0.3230  0.0230
   56CHL1  H21A 5303   4.018   3.804   3.270  1.0963  0.6970 -0.6011
   56CHL1  H21B 5304   4.016   3.819   3.087  1.1706  0.7183  0.7635
   56CHL1  H21C 5305   3.958   3.667   3.162  0.9470  0.5105 -2.1021
   56CHL1   C22 5306   3.744   3.830   3.324 -0.1775  0.1955  0.6586
   56CHL1  H22A 5307   3.638   3.843   3.292 -0.2486 -0.1809  0.7404
   56CHL1  H22B 5308   3.766   3.727   3.358  3.2608 -0.4454 -2.8872
   56CHL1   C23 5309   3.787   3.925   3.427  0.8288 -0.3616  0.0803
   56CHL1  H23A 5310   3.898   3.924   3.434  0.7831 -0.6422  0.8232
   56CHL1  H23B 5311   3.742   4.024   3.406 -1.7772 -1.3293  0.7446
   56CHL1   C24 5312   3.736   3.893   3.575 -0.2807 -0.1481  0.5156
   56CHL1  H24A 5313   3.626   3.881   3.583 -0.2276 -1.9163 -0.7460
   56CHL1  H24B 5314   3.788   3.797   3.598  0.8104  0.6152  1.3631
   56CHL1   C25 5315   3.793   3.990   3.686  1.1578 -0.1330  0.3335
   56CHL1   H25 5316   3.762   4.094   3.660  0.0291 -0.9635 -1.9402
   56CHL1   C26 5317   3.724   3.957   3.824  0.1819 -0.3004  0.2041
   56CHL1  H26A 5318   3.760   3.854   3.845  0.8892  0.4620  3.1101
   56CHL1  H26B 5319   3.761   4.030   3.899  2.2531 -2.3174  1.2742
   56CHL1  H26C 5320   3.615   3.965   3.806  0.4415  2.2650 -0.6757
   56CHL1   C27 5321   3.939   3.991   3.706 -0.0785 -0.5845  0.1713
   56CHL1  H27A 5322   3.966   3.885   3.723  2.1592  0.1431  1.7196
   56CHL1  H27B 5323   3.995   4.034   3.620  2.1661  1.3533  2.4105
   56CHL1  H27C 5324   3.967   4.053   3.794 -0.9069 -0.4327  0.3325
   57CHL1    C3 5325   3.177   1.646   2.828  0.0962 -0.1989  0.7346
   57CHL1    H3 5326   3.140   1.748   2.802 -0.2317 -0.6831 -0.8053
   57CHL1    O3 5327   3.171   1.577   2.713 -0.0940  0.4586 -0.1692
   57CHL1   H3' 5328   3.167   1.483   2.734  0.5262  0.7187  1.2774
   57CHL1    C4 5329   3.318   1.653   2.884  0.3028 -0.7394  0.2985
   57CHL1   H4A 5330   3.353   1.548   2.897 -0.2675 -0.8300  1.2393
   57CHL1   H4B 5331   3.380   1.704   2.807  1.2544 -1.9360  0.2364
   57CHL1    C5 5332   3.325   1.717   3.020 -0.0122  0.6323  0.3171
   57CHL1    C6 5333   3.401   1.819   3.043 -0.5854  0.0455 -0.0244
   57CHL1    H6 5334   3.474   1.849   2.966 -1.3977  2.9593  0.2272
   57CHL1    C7 5335   3.417   1.874   3.175 -0.3576  0.0928 -0.6482
   57CHL1   H7A 5336   3.525   1.892   3.191 -0.4091 -0.0054 -0.1960
   57CHL1   H7B 5337   3.368   1.974   3.186 -0.2493 -0.1216  2.8714
   57CHL1    C8 5338   3.373   1.776   3.285  0.0886 -0.1973 -0.5752
   57CHL1    H8 5339   3.445   1.691   3.281  0.9116  0.5257 -1.8142
   57CHL1   C14 5340   3.376   1.851   3.417 -0.3314  0.0169 -1.4359
   57CHL1   H14 5341   3.313   1.941   3.401 -0.2223 -0.0431 -2.2413
   57CHL1   C15 5342   3.516   1.912   3.466  0.7449  0.3861  0.2583
   57CHL1  H15A 5343   3.592   1.833   3.452  0.2477 -0.2948  1.2306
   57CHL1  H15B 5344   3.535   2.015   3.429  1.2197 -0.0494 -0.7573
   57CHL1   C16 5345   3.492   1.921   3.614  0.6624 -0.0528 -0.2316
   57CHL1  H16A 5346   3.564   1.854   3.666  1.4484  1.6224  0.9430
   57CHL1  H16B 5347   3.516   2.022   3.654  2.0062 -0.5940  0.3920
   57CHL1   C17 5348   3.346   1.870   3.651 -0.4297 -0.0047  0.7865
   57CHL1   H17 5349   3.286   1.962   3.637 -0.3412 -0.2987 -1.9563
   57CHL1   C13 5350   3.308   1.779   3.537 -0.1891 -0.1547  0.3127
   57CHL1   C18 5351   3.377   1.643   3.550 -0.6114  0.7051 -0.1047
   57CHL1  H18A 5352   3.369   1.583   3.456 -0.3470 -1.6174  1.2759
   57CHL1  H18B 5353   3.482   1.665   3.580 -1.0709  0.9029  1.4257
   57CHL1  H18C 5354   3.337   1.587   3.637  0.8677  2.0231  1.4840
   57CHL1   C12 5355   3.155   1.758   3.510  0.2456 -0.6037 -1.3339
   57CHL1  H12A 5356   3.109   1.708   3.598 -0.7132  1.0460 -0.8561
   57CHL1  H12B 5357   3.113   1.858   3.487 -1.3716 -0.7862  0.6139
   57CHL1   C11 5358   3.142   1.671   3.381  0.0440 -0.6930  0.5146
   57CHL1  H11A 5359   3.180   1.570   3.407 -0.1040 -0.2554  2.6134
   57CHL1  H11B 5360   3.038   1.655   3.344  0.3620 -0.8731 -0.3240
   57CHL1    C9 5361   3.225   1.728   3.262 -0.5181  0.0967  0.3490
   57CHL1    H9 5362   3.172   1.823   3.239  2.2262  1.5651 -0.3712
   57CHL1   C10 5363   3.225   1.643   3.127 -0.1287  1.0022  0.0583
   57CHL1   C19 5364   3.265   1.498   3.163 -0.3377 -0.2097  0.1317
   57CHL1  H19A 5365   3.200   1.462   3.245 -1.6088 -0.0960 -0.7913
   57CHL1  H19B 5366   3.266   1.426   3.078 -0.1237 -1.1671  0.9307
   57CHL1  H19C 5367   3.371   1.508   3.195 -0.3857  2.7672 -0.3825
   57CHL1    C1 5368   3.080   1.653   3.059 -0.1776  1.0411 -0.1944
   57CHL1   H1A 5369   3.019   1.608   3.140 -0.4232  0.5290 -0.6514
   57CHL1   H1B 5370   3.050   1.759   3.044 -0.3876  1.0156  0.0423
   57CHL1    C2 5371   3.078   1.580   2.927 -0.3224 -0.2243 -0.4045
   57CHL1   H2A 5372   2.976   1.586   2.883 -0.7657  1.2089  0.7148
   57CHL1   H2B 5373   3.112   1.475   2.933  0.0203 -0.0558  1.2967
   57CHL1   C20 5374   3.343   1.812   3.793  0.7245 -0.5951  0.0414
   57CHL1   H20 5375   3.416   1.730   3.808 -1.8531 -3.3750 -1.5200
   57CHL1   C21 5376   3.204   1.750   3.841  0.7085  0.3600 -0.2437
   57CHL1  H21A 5377   3.116   1.814   3.820 -1.1449 -2.0569 -0.2554
   57CHL1  H21B 5378   3.203   1.729   3.950  0.1283 -2.3287 -0.7075
   57CHL1  H21C 5379   3.198   1.651   3.792 -1.3959  0.5698 -0.4896
   57CHL1   C22 5380   3.380   1.920   3.900 -0.2842 -0.1229  0.1970
   57CHL1  H22A 5381   3.467   1.985   3.874 -2.2757  2.0591 -1.4094
   57CHL1  H22B 5382   3.298   1.994   3.902  0.3340  0.6141 -0.7781
   57CHL1   C23 5383   3.413   1.865   4.039  0.6181 -0.2223  0.2698
   57CHL1  H23A 5384   3.329   1.807   4.082 -1.0010  1.7372 -0.0745
   57CHL1  H23B 5385   3.501   1.797   4.034 -1.0197 -2.3815 -0.8741
   57CHL1   C24 5386   3.433   1.977   4.133  1.0627 -0.2205 -0.1343
   57CHL1  H24A 5387   3.530   2.030   4.120  1.3515 -0.1415  1.8769
   57CHL1  H24B 5388   3.346   2.045   4.120  0.7752 -0.5507  0.0490
   57CHL1   C25 5389   3.410   1.937   4.284  0.0483  0.0135  0.5648
   57CHL1   H25 5390   3.320   1.871   4.286 -1.9615  2.4270 -2.0778
   57CHL1   C26 5391   3.538   1.857   4.335  0.4759  0.4172 -0.1676
   57CHL1  H26A 5392   3.632   1.915   4.348  0.2239  0.3811  2.5045
   57CHL1  H26B 5393   3.509   1.823   4.437  0.5543 -0.3827 -0.4066
   57CHL1  H26C 5394   3.556   1.771   4.267 -0.5548 -1.6328  1.9815
   57CHL1   C27 5395   3.380   2.060   4.370  0.1234 -1.0091 -0.8747
   57CHL1  H27A 5396   3.275   2.096   4.364  0.2996  0.0039  1.2826
   57CHL1  H27B 5397   3.393   2.043   4.479  0.0383 -0.5426 -0.7873
   57CHL1  H27C 5398   3.441   2.148   4.340 -0.1821 -1.3737 -2.7220
   58CHL1    C3 5399   0.982   3.195   2.734  0.5231 -0.3593 -0.0850
   58CHL1    H3 5400   0.908   3.251   2.794  1.2558  1.6943 -0.9962
   58CHL1    O3 5401   0.933   3.195   2.601 -0.3794 -0.3187  0.1798
   58CHL1   H3' 5402   0.901   3.105   2.594  0.4861 -0.7086  0.9715
   58CHL1    C4 5403   1.118   3.273   2.748  0.4376  0.2979 -0.7622
   58CHL1   H4A 5404   1.187   3.233   2.671  1.3802 -0.1744  0.3034
   58CHL1   H4B 5405   1.092   3.377   2.716  0.3795  0.1838 -1.0817
   58CHL1    C5 5406   1.178   3.256   2.888 -0.4176  0.1232 -0.3589
   58CHL1    C6 5407   1.198   3.357   2.976  0.6049 -0.3505 -0.2582
   58CHL1    H6 5408   1.186   3.460   2.940 -1.5227 -0.9859 -1.5951
   58CHL1    C7 5409   1.259   3.345   3.110  0.3821  0.5815  0.0004
   58CHL1   H7A 5410   1.334   3.425   3.122  0.2494  1.3253 -3.1626
   58CHL1   H7B 5411   1.175   3.353   3.182 -0.2922 -1.3175 -0.5141
   58CHL1    C8 5412   1.323   3.205   3.136 -1.1974  0.8857 -0.1795
   58CHL1    H8 5413   1.415   3.198   3.073 -0.2227 -0.1444  1.3112
   58CHL1   C14 5414   1.359   3.184   3.288 -0.3627 -0.5832 -0.4917
   58CHL1   H14 5415   1.266   3.196   3.348  0.3524 -0.7666  0.6930
   58CHL1   C15 5416   1.458   3.284   3.363 -0.1543 -0.0383 -0.2110
   58CHL1  H15A 5417   1.551   3.296   3.303  0.7009 -0.1525  1.0500
   58CHL1  H15B 5418   1.400   3.379   3.371 -0.3163 -0.0674 -0.9928
   58CHL1   C16 5419   1.487   3.214   3.495  0.2819 -0.7381 -0.1616
   58CHL1  H16A 5420   1.594   3.212   3.525  0.6424  2.3531 -0.8906
   58CHL1  H16B 5421   1.422   3.254   3.576 -1.1991 -2.9677 -0.1640
   58CHL1   C17 5422   1.440   3.063   3.483  0.2953  0.0130 -0.3048
   58CHL1   H17 5423   1.342   3.043   3.533  0.6015 -1.1057 -0.1287
   58CHL1   C13 5424   1.414   3.050   3.333  0.8505  0.3474 -1.3112
   58CHL1   C18 5425   1.543   3.011   3.263 -0.1239 -0.1610  0.0398
   58CHL1  H18A 5426   1.527   3.031   3.155 -2.3277 -3.2449 -0.3608
   58CHL1  H18B 5427   1.630   3.070   3.297  0.3419 -1.8029  1.9049
   58CHL1  H18C 5428   1.578   2.905   3.260 -0.2847 -0.2746  1.4562
   58CHL1   C12 5429   1.307   2.937   3.295 -0.0547  0.2270 -0.7207
   58CHL1  H12A 5430   1.345   2.835   3.315  1.8907  0.4588 -2.8186
   58CHL1  H12B 5431   1.214   2.949   3.354  0.4543 -2.0321  0.6579
   58CHL1   C11 5432   1.256   2.950   3.142 -0.4245  0.5485 -0.4874
   58CHL1  H11A 5433   1.331   2.896   3.081 -1.5196 -1.9490  0.2308
   58CHL1  H11B 5434   1.161   2.893   3.135 -1.1124  1.5841  0.0641
   58CHL1    C9 5435   1.229   3.095   3.088 -0.9575  0.6800  0.1139
   58CHL1    H9 5436   1.142   3.126   3.150  0.3517  0.3528  2.1715
   58CHL1   C10 5437   1.198   3.106   2.939  0.9469 -0.0577  0.4589
   58CHL1   C19 5438   1.314   3.037   2.855  0.5325 -0.0273 -0.3290
   58CHL1  H19A 5439   1.315   2.929   2.884  1.2881 -0.6250 -2.4218
   58CHL1  H19B 5440   1.292   3.033   2.746 -2.2912 -2.2910  0.1937
   58CHL1  H19C 5441   1.419   3.064   2.880 -0.3646  2.2000  1.4125
   58CHL1    C1 5442   1.063   3.038   2.911 -0.0132  0.3618  0.0271
   58CHL1   H1A 5443   1.071   2.931   2.942 -0.4445  0.6832  1.2791
   58CHL1   H1B 5444   0.982   3.067   2.981  1.7216 -0.4565  2.4893
   58CHL1    C2 5445   1.008   3.050   2.770 -0.5165 -0.1449 -0.1345
   58CHL1   H2A 5446   0.921   2.986   2.743  1.5702 -2.4218 -2.0089
   58CHL1   H2B 5447   1.079   3.012   2.694 -1.3836 -2.6675  0.1981
   58CHL1   C20 5448   1.530   2.951   3.545  0.7669  0.9254 -0.0275
   58CHL1   H20 5449   1.627   2.962   3.493  0.5372 -1.0972 -0.9709
   58CHL1   C21 5450   1.473   2.808   3.527  0.2577  0.7239 -0.3068
   58CHL1  H21A 5451   1.514   2.768   3.432  2.3665 -1.5540  1.4261
   58CHL1  H21B 5452   1.362   2.806   3.535  0.3482 -1.2108  1.1082
   58CHL1  H21C 5453   1.508   2.735   3.603  0.0616  1.9995  1.0569
   58CHL1   C22 5454   1.553   2.981   3.695 -0.7272  0.1773 -0.3404
   58CHL1  H22A 5455   1.623   2.907   3.738 -0.9214 -0.6460 -1.3898
   58CHL1  H22B 5456   1.610   3.076   3.704  0.9641 -0.7824 -0.6759
   58CHL1   C23 5457   1.424   2.973   3.780  0.0511 -0.4153  0.0737
   58CHL1  H23A 5458   1.349   3.046   3.741 -0.4680 -0.7982  0.3434
   58CHL1  H23B 5459   1.388   2.868   3.778 -0.8920 -0.1147  0.4766
   58CHL1   C24 5460   1.445   3.016   3.925  0.1215  0.2447 -1.3248
   58CHL1  H24A 5461   1.511   2.942   3.976 -1.6743 -1.3006 -1.1050
   58CHL1  H24B 5462   1.513   3.103   3.935  0.1359  0.0828  0.3183
   58CHL1   C25 5463   1.312   3.037   4.003 -0.2384 -0.3372 -0.9226
   58CHL1   H25 5464   1.245   3.108   3.949 -0.0810  2.5056  2.2686
   58CHL1   C26 5465   1.241   2.910   4.045 -0.6044  0.0424  0.2648
   58CHL1  H26A 5466   1.300   2.827   4.089  0.3642  0.3271 -0.4497
   58CHL1  H26B 5467   1.154   2.936   4.108 -0.0173  1.1401  0.6391
   58CHL1  H26C 5468   1.198   2.875   3.948 -0.5823 -0.2354  0.3537
   58CHL1   C27 5469   1.347   3.112   4.131  1.1937 -0.0185 -0.0941
   58CHL1  H27A 5470   1.414   3.057   4.200 -0.3919 -2.5358 -0.4239
   58CHL1  H27B 5471   1.403   3.204   4.105  0.0916  0.9677  0.9003
   58CHL1  H27C 5472   1.257   3.142   4.188 -0.1540 -1.5738 -1.3006
   59CHL1    C3 5473   1.962   0.942   2.787 -0.1503 -0.1950 -0.0605
   59CHL1    H3 5474   2.058   0.995   2.770 -0.3908 -0.2693 -1.8295
   59CHL1    O3 5475   1.902   0.937   2.657  0.2532 -0.0583 -0.0349
   59CHL1   H3' 5476   1.808   0.921   2.667  0.5718 -0.8386  2.1880
   59CHL1    C4 5477   2.003   0.799   2.837  0.2805 -0.3947  0.6216
   59CHL1   H4A 5478   1.914   0.734   2.848 -1.3635  1.4373 -0.9138
   59CHL1   H4B 5479   2.067   0.752   2.760 -0.1756  0.0117 -0.0226
   59CHL1    C5 5480   2.066   0.809   2.972  0.0122  0.1273  0.7858
   59CHL1    C6 5481   2.189   0.761   2.988 -0.3557 -0.4893 -0.2134
   59CHL1    H6 5482   2.228   0.693   2.911  0.8042 -0.9800  0.7605
   59CHL1    C7 5483   2.266   0.758   3.123  0.4115  0.3386  0.6003
   59CHL1   H7A 5484   2.321   0.664   3.148 -0.9738  0.0411  2.9073
   59CHL1   H7B 5485   2.344   0.836   3.129  0.1332  0.5967  0.9349
   59CHL1    C8 5486   2.161   0.783   3.241  0.5370  0.7920  0.2190
   59CHL1    H8 5487   2.102   0.690   3.258  1.2693  0.4001  0.6685
   59CHL1   C14 5488   2.237   0.806   3.367 -0.3161 -0.4123  0.6256
   59CHL1   H14 5489   2.304   0.893   3.351 -0.9312  0.3372  1.9300
   59CHL1   C15 5490   2.331   0.692   3.405 -0.0408 -0.3153  0.1517
   59CHL1  H15A 5491   2.284   0.592   3.397  0.7444 -0.5997 -1.2911
   59CHL1  H15B 5492   2.424   0.687   3.345 -0.1228  0.9055 -0.1089
   59CHL1   C16 5493   2.368   0.737   3.551  0.8917  0.0725 -0.0412
   59CHL1  H16A 5494   2.359   0.639   3.602 -2.4944 -0.4421 -1.3133
   59CHL1  H16B 5495   2.471   0.776   3.539  1.3146 -0.4014  1.7970
   59CHL1   C17 5496   2.267   0.840   3.599 -1.0389  0.5269  0.5326
   59CHL1   H17 5497   2.315   0.939   3.592 -0.4575  0.2430  0.4155
   59CHL1   C13 5498   2.155   0.843   3.492 -0.1244  0.1261  1.0645
   59CHL1   C18 5499   2.056   0.724   3.517 -0.8039 -0.1263 -0.0373
   59CHL1  H18A 5500   2.116   0.637   3.553  1.0860  0.9645 -0.4045
   59CHL1  H18B 5501   1.985   0.739   3.601 -1.3445  1.4181 -0.7232
   59CHL1  H18C 5502   1.993   0.693   3.432  0.8261 -1.9226 -0.6809
   59CHL1   C12 5503   2.083   0.976   3.453 -0.1738  1.0525 -0.8150
   59CHL1  H12A 5504   2.028   1.013   3.542  1.5865 -1.8781  1.7166
   59CHL1  H12B 5505   2.166   1.042   3.421  0.6345 -0.4078 -1.8778
   59CHL1   C11 5506   1.993   0.963   3.326  0.5108  0.5896 -0.6309
   59CHL1  H11A 5507   1.912   0.889   3.346 -0.1477  0.5958 -2.9612
   59CHL1  H11B 5508   1.950   1.064   3.308 -0.0762  0.4016 -0.3286
   59CHL1    C9 5509   2.070   0.904   3.209  0.1542 -0.4504  0.0217
   59CHL1    H9 5510   2.145   0.982   3.188 -0.6278  0.5000  0.6784
   59CHL1   C10 5511   1.987   0.882   3.079  0.7195 -0.5488 -0.5279
   59CHL1   C19 5512   1.863   0.793   3.114  0.2672 -0.1474  0.2288
   59CHL1  H19A 5513   1.800   0.760   3.029 -0.5486  0.8891  0.4111
   59CHL1  H19B 5514   1.886   0.706   3.180 -0.8072  0.3712  1.3231
   59CHL1  H19C 5515   1.793   0.857   3.172 -0.5924  0.2320 -1.1957
   59CHL1    C1 5516   1.941   1.022   3.024  0.8275 -0.0180  0.2262
   59CHL1   H1A 5517   1.860   1.054   3.093  1.1523  0.2611  0.4826
   59CHL1   H1B 5518   2.030   1.089   3.028  2.7203 -2.3983  0.1258
   59CHL1    C2 5519   1.873   1.006   2.882 -0.0688 -0.1940 -0.4370
   59CHL1   H2A 5520   1.840   1.107   2.849 -0.9183 -0.2364  0.2296
   59CHL1   H2B 5521   1.787   0.940   2.907  1.2222 -1.6757  0.2765
   59CHL1   C20 5522   2.236   0.825   3.755 -0.1771  0.8205  0.3849
   59CHL1   H20 5523   2.173   0.734   3.767  0.7351  0.0533 -0.4740
   59CHL1   C21 5524   2.139   0.935   3.797 -0.4655  0.4446 -0.2114
   59CHL1  H21A 5525   2.193   1.032   3.806  0.9723 -0.5000  3.3538
   59CHL1  H21B 5526   2.109   0.904   3.900  0.3023 -0.4236 -0.2348
   59CHL1  H21C 5527   2.044   0.945   3.741 -0.0088  3.1303 -0.6739
   59CHL1   C22 5528   2.367   0.810   3.848 -0.4741  0.0066 -0.7917
   59CHL1  H22A 5529   2.446   0.750   3.798  2.1694  1.5994  1.1871
   59CHL1  H22B 5530   2.415   0.910   3.859  1.6754 -1.2816  3.8778
   59CHL1   C23 5531   2.334   0.769   3.995 -0.4294  0.4607  0.9627
   59CHL1  H23A 5532   2.268   0.847   4.039 -0.4033  0.4902  0.9496
   59CHL1  H23B 5533   2.271   0.680   3.976  0.8823 -0.4688  0.8681
   59CHL1   C24 5534   2.453   0.724   4.078 -0.0121  0.2659  0.3046
   59CHL1  H24A 5535   2.531   0.678   4.013 -1.5921 -0.2387 -1.2861
   59CHL1  H24B 5536   2.504   0.816   4.114 -2.3259  0.9917  1.9646
   59CHL1   C25 5537   2.427   0.637   4.199 -0.0011 -0.4395 -0.0540
   59CHL1   H25 5538   2.366   0.552   4.161 -2.9359  2.6041 -2.6916
   59CHL1   C26 5539   2.554   0.588   4.268 -0.6676 -0.1906  0.0009
   59CHL1  H26A 5540   2.611   0.520   4.202 -1.6193 -1.2603  0.2420
   59CHL1  H26B 5541   2.607   0.682   4.295 -1.2593 -0.1721  1.1543
   59CHL1  H26C 5542   2.534   0.529   4.361 -0.6539 -0.0787  0.0748
   59CHL1   C27 5543   2.346   0.720   4.306 -0.1147 -0.4499  0.2177
   59CHL1  H27A 5544   2.256   0.757   4.253 -2.1392 -0.3340  3.4829
   59CHL1  H27B 5545   2.322   0.660   4.397  0.1572  0.2628  0.7650
   59CHL1  H27C 5546   2.409   0.808   4.330  2.0862 -2.2572  1.6353
   60CHL1    C3 5547   2.930   1.008   3.105 -0.2176 -0.7498  0.3434
   60CHL1    H3 5548   2.947   1.114   3.134 -1.3249 -0.1158 -1.2081
   60CHL1    O3 5549   2.902   1.006   2.967  0.2612 -0.1735 -0.2696
   60CHL1   H3' 5550   2.882   0.914   2.948  1.6998 -0.9255  1.5624
   60CHL1    C4 5551   3.054   0.923   3.133  0.4433  0.0473 -0.6627
   60CHL1   H4A 5552   3.031   0.826   3.083 -3.5924  0.0861  0.7321
   60CHL1   H4B 5553   3.146   0.956   3.080 -0.0450  1.1809 -0.8353
   60CHL1    C5 5554   3.087   0.900   3.279  0.9481 -0.0435  0.2001
   60CHL1    C6 5555   3.204   0.919   3.339  0.5600  0.5401 -0.1928
   60CHL1    H6 5556   3.290   0.945   3.276  0.3497  2.9615  0.4074
   60CHL1    C7 5557   3.236   0.889   3.485 -0.1291 -0.3892  0.4032
   60CHL1   H7A 5558   3.330   0.832   3.498 -1.0425 -2.5367 -1.6511
   60CHL1   H7B 5559   3.258   0.989   3.528 -0.6472 -0.2604  0.3819
   60CHL1    C8 5560   3.120   0.811   3.559 -0.3410 -0.3101 -0.5422
   60CHL1    H8 5561   3.128   0.703   3.534  1.6713 -0.5004  0.7505
   60CHL1   C14 5562   3.134   0.823   3.709  0.5173 -0.2339  0.1772
   60CHL1   H14 5563   3.112   0.930   3.725 -2.3078 -0.6576 -0.3592
   60CHL1   C15 5564   3.275   0.787   3.767 -0.0235  0.0385  0.0581
   60CHL1  H15A 5565   3.303   0.689   3.723  1.5697  1.0917 -1.4130
   60CHL1  H15B 5566   3.359   0.853   3.737 -1.4697  1.4287 -1.1335
   60CHL1   C16 5567   3.250   0.785   3.913 -0.2388  0.1376  0.4874
   60CHL1  H16A 5568   3.310   0.706   3.962 -1.8890 -1.0488  0.6694
   60CHL1  H16B 5569   3.287   0.883   3.951 -0.2186 -0.0731  1.0108
   60CHL1   C17 5570   3.092   0.779   3.929 -0.0543  0.2760 -1.2237
   60CHL1   H17 5571   3.055   0.882   3.950 -2.2990 -0.5324 -1.0172
   60CHL1   C13 5572   3.027   0.749   3.788 -0.5746  0.6418  0.5605
   60CHL1   C18 5573   3.043   0.599   3.763  0.1028  0.4317 -0.0548
   60CHL1  H18A 5574   3.122   0.564   3.833 -0.0327  1.6169  0.7183
   60CHL1  H18B 5575   2.952   0.541   3.788 -0.9660  1.1515 -2.0720
   60CHL1  H18C 5576   3.075   0.563   3.663  3.5062 -1.9009  1.6786
   60CHL1   C12 5577   2.892   0.809   3.758  0.2184 -0.7047 -0.6961
   60CHL1  H12A 5578   2.805   0.754   3.799 -0.2467  0.3845 -0.1833
   60CHL1  H12B 5579   2.897   0.906   3.811  1.1077  0.1042 -2.1782
   60CHL1   C11 5580   2.869   0.811   3.605  0.8763 -0.4048 -0.3720
   60CHL1  H11A 5581   2.848   0.704   3.581  2.3106 -1.0753  1.1337
   60CHL1  H11B 5582   2.775   0.868   3.585  0.8086 -0.4993 -0.3271
   60CHL1    C9 5583   2.990   0.866   3.515  0.7033  0.1769 -0.2068
   60CHL1    H9 5584   2.994   0.974   3.537 -1.0197 -0.2465  2.6572
   60CHL1   C10 5585   2.964   0.852   3.363 -0.5700  0.6936 -0.5160
   60CHL1   C19 5586   2.941   0.703   3.332 -0.5580  0.2058 -0.2509
   60CHL1  H19A 5587   3.017   0.633   3.373 -0.4104  0.1930 -0.5428
   60CHL1  H19B 5588   2.844   0.667   3.374  0.4934  0.5577  2.7544
   60CHL1  H19C 5589   2.941   0.673   3.225  1.9080 -0.0444 -0.2325
   60CHL1    C1 5590   2.840   0.933   3.319 -0.4298 -0.0376 -0.3483
   60CHL1   H1A 5591   2.752   0.877   3.358  1.5476 -0.6943  3.7777
   60CHL1   H1B 5592   2.840   1.035   3.362 -1.1733 -0.0762 -0.2423
   60CHL1    C2 5593   2.808   0.950   3.172 -0.4659  0.5039 -0.4777
   60CHL1   H2A 5594   2.713   1.005   3.158 -0.5107  0.6641  0.3797
   60CHL1   H2B 5595   2.787   0.852   3.123  1.5606  0.2003 -0.8573
   60CHL1   C20 5596   3.045   0.704   4.056 -0.4931  0.2385 -0.3922
   60CHL1   H20 5597   3.066   0.597   4.035 -0.0831  0.6651 -2.4009
   60CHL1   C21 5598   2.893   0.721   4.066 -0.1188 -0.0335 -0.1852
   60CHL1  H21A 5599   2.863   0.827   4.052 -2.4254 -0.6973 -0.5708
   60CHL1  H21B 5600   2.859   0.693   4.168 -0.2398 -0.9271 -0.4641
   60CHL1  H21C 5601   2.848   0.649   3.995 -0.3444  1.0218 -1.1274
   60CHL1   C22 5602   3.128   0.757   4.180  0.1090  0.0884 -0.5180
   60CHL1  H22A 5603   3.236   0.771   4.157  0.3183  1.1450  0.9155
   60CHL1  H22B 5604   3.084   0.857   4.200  0.3191  0.2256 -0.7355
   60CHL1   C23 5605   3.116   0.677   4.315 -0.1736 -0.9202 -0.6364
   60CHL1  H23A 5606   3.007   0.673   4.338 -0.1188  0.0248 -0.1496
   60CHL1  H23B 5607   3.151   0.575   4.289 -1.0008 -1.6020  0.7963
   60CHL1   C24 5608   3.186   0.750   4.434  0.0434 -0.0414 -0.2183
   60CHL1  H24A 5609   3.297   0.741   4.429  0.1201 -0.0920  1.2149
   60CHL1  H24B 5610   3.182   0.860   4.427  3.1055  0.3448  1.9115
   60CHL1   C25 5611   3.146   0.703   4.572 -0.5666 -0.1620  0.2386
   60CHL1   H25 5612   3.039   0.724   4.589 -0.6424 -2.4885  3.5319
   60CHL1   C26 5613   3.162   0.546   4.591 -0.1212 -1.1567 -0.2186
   60CHL1  H26A 5614   3.092   0.507   4.514 -1.0638 -2.3005  1.1583
   60CHL1  H26B 5615   3.259   0.528   4.541 -0.5434  3.2232 -3.1669
   60CHL1  H26C 5616   3.145   0.504   4.693 -0.7454 -1.5328 -0.4708
   60CHL1   C27 5617   3.221   0.783   4.682 -0.2226  0.2722 -0.0489
   60CHL1  H27A 5618   3.211   0.747   4.787  1.0417  0.6739  0.2358
   60CHL1  H27B 5619   3.330   0.787   4.660 -0.4088 -0.2957 -1.0950
   60CHL1  H27C 5620   3.179   0.886   4.678  1.7437  1.0841 -1.2627
   61CHL1    C3 5621   2.500   3.453   2.594 -0.2097 -0.8469  0.0826
   61CHL1    H3 5622   2.604   3.481   2.618 -0.2167 -1.1927  0.5175
   61CHL1    O3 5623   2.482   3.475   2.454 -0.2514  0.2875  0.6613
   61CHL1   H3' 5624   2.397   3.431   2.447  1.3226 -3.1012  0.9712
   61CHL1    C4 5625   2.488   3.305   2.616 -0.2150  0.3937 -0.2437
   61CHL1   H4A 5626   2.392   3.270   2.573 -0.6688  0.1122  0.9506
   61CHL1   H4B 5627   2.574   3.256   2.565  0.3703  0.1979  0.8974
   61CHL1    C5 5628   2.490   3.275   2.764  0.2018  0.2205  0.3897
   61CHL1    C6 5629   2.583   3.186   2.813  0.6631 -0.4955  0.2884
   61CHL1    H6 5630   2.650   3.142   2.737 -0.9940 -1.2109 -0.8223
   61CHL1    C7 5631   2.588   3.136   2.951  0.0564  0.3258 -0.9707
   61CHL1   H7A 5632   2.598   3.026   2.962  0.2208  0.4050 -0.2911
   61CHL1   H7B 5633   2.685   3.170   2.994 -0.4231  0.3518  0.1205
   61CHL1    C8 5634   2.472   3.194   3.035  0.0979 -0.3005 -0.0457
   61CHL1    H8 5635   2.379   3.136   3.019  1.0031 -1.4518 -1.3112
   61CHL1   C14 5636   2.511   3.191   3.185 -0.5403 -0.6935 -0.2288
   61CHL1   H14 5637   2.603   3.252   3.191 -0.3753 -0.9458 -0.1856
   61CHL1   C15 5638   2.564   3.063   3.242  0.0241 -0.4424 -1.2206
   61CHL1  H15A 5639   2.502   2.973   3.221  1.1549 -1.4892 -0.2663
   61CHL1  H15B 5640   2.669   3.044   3.211  0.3050 -0.1386 -0.4876
   61CHL1   C16 5641   2.537   3.083   3.393 -1.3685 -0.0229  0.4681
   61CHL1  H16A 5642   2.483   2.994   3.431 -0.6831 -0.9380 -0.6220
   61CHL1  H16B 5643   2.643   3.080   3.427 -1.1800  1.8445  0.1326
   61CHL1   C17 5644   2.484   3.229   3.421  0.1809 -0.6874  0.2004
   61CHL1   H17 5645   2.575   3.293   3.424  1.8883 -3.0060  0.2348
   61CHL1   C13 5646   2.410   3.253   3.289 -0.3890  0.3916  0.8293
   61CHL1   C18 5647   2.277   3.180   3.288  0.4270  0.1460  0.5345
   61CHL1  H18A 5648   2.208   3.240   3.351  0.4175 -0.5277  1.1800
   61CHL1  H18B 5649   2.237   3.165   3.185  2.9435  0.5197 -0.5850
   61CHL1  H18C 5650   2.278   3.077   3.328 -0.3050  0.3745  1.1461
   61CHL1   C12 5651   2.394   3.398   3.249 -0.0199 -0.5262 -0.0449
   61CHL1  H12A 5652   2.315   3.444   3.313 -0.1411 -2.9057  1.6648
   61CHL1  H12B 5653   2.484   3.456   3.277  0.5772 -0.4416 -2.0121
   61CHL1   C11 5654   2.369   3.424   3.103  0.2197 -0.6260 -0.2585
   61CHL1  H11A 5655   2.264   3.395   3.083 -0.3490  0.6001  0.8412
   61CHL1  H11B 5656   2.377   3.532   3.081  1.4722 -0.9767 -1.7487
   61CHL1    C9 5657   2.451   3.339   3.003  0.7085 -0.5701  0.1255
   61CHL1    H9 5658   2.556   3.372   3.007  0.0225  1.7837  0.0474
   61CHL1   C10 5659   2.397   3.360   2.862 -0.4798  0.1660  0.1363
   61CHL1   C19 5660   2.249   3.324   2.830 -0.2612  0.4336  0.4547
   61CHL1  H19A 5661   2.250   3.218   2.866  3.0313 -0.3007 -1.4282
   61CHL1  H19B 5662   2.183   3.390   2.890  0.9129  1.2888  0.8451
   61CHL1  H19C 5663   2.232   3.333   2.721 -1.1665 -0.5700  0.5005
   61CHL1    C1 5664   2.406   3.513   2.823 -0.2857  1.0144  0.1457
   61CHL1   H1A 5665   2.327   3.574   2.873 -1.1512  0.3397 -0.3702
   61CHL1   H1B 5666   2.507   3.538   2.861 -0.7768 -0.3450  2.5158
   61CHL1    C2 5667   2.403   3.541   2.672  0.1413  0.1471  0.0449
   61CHL1   H2A 5668   2.401   3.648   2.643  2.0086  0.2622  0.2009
   61CHL1   H2B 5669   2.303   3.508   2.640 -0.0646  0.1587  0.6502
   61CHL1   C20 5670   2.406   3.242   3.560  0.3530  0.0236  0.4623
   61CHL1   H20 5671   2.313   3.183   3.548 -0.5632  0.8262  3.0332
   61CHL1   C21 5672   2.370   3.389   3.583 -0.0306  0.8730 -0.2759
   61CHL1  H21A 5673   2.333   3.391   3.688  3.0049 -0.5241  0.9440
   61CHL1  H21B 5674   2.288   3.418   3.515 -0.9572  0.6584  0.7209
   61CHL1  H21C 5675   2.458   3.456   3.579 -0.2420  1.1102 -1.0763
   61CHL1   C22 5676   2.489   3.196   3.679  0.2444 -0.1456 -0.0819
   61CHL1  H22A 5677   2.512   3.088   3.668  1.3484  0.0759 -0.0389
   61CHL1  H22B 5678   2.583   3.254   3.684  0.5102 -0.6559  1.0909
   61CHL1   C23 5679   2.421   3.195   3.813 -0.4572 -0.5809 -0.7087
   61CHL1  H23A 5680   2.405   3.302   3.841  1.5699 -0.5274  0.4608
   61CHL1  H23B 5681   2.315   3.164   3.824 -0.4460  0.0039  1.9960
   61CHL1   C24 5682   2.510   3.137   3.927 -0.3668 -0.0011 -0.1167
   61CHL1  H24A 5683   2.533   3.033   3.894  0.0853  0.7022 -2.1033
   61CHL1  H24B 5684   2.598   3.204   3.942 -2.2871  2.2671  1.7873
   61CHL1   C25 5685   2.453   3.106   4.062  0.2299 -0.1185  0.3408
   61CHL1   H25 5686   2.371   3.033   4.046 -0.8718  1.0371  0.5156
   61CHL1   C26 5687   2.562   3.058   4.159 -0.5236  0.1705 -0.4586
   61CHL1  H26A 5688   2.531   3.063   4.265 -0.9139  0.8466 -0.5992
   61CHL1  H26B 5689   2.590   2.951   4.142  1.9827  0.0906  3.1166
   61CHL1  H26C 5690   2.652   3.123   4.160  0.3555 -0.9223  2.3009
   61CHL1   C27 5691   2.386   3.229   4.130 -0.5345 -0.3568 -0.3831
   61CHL1  H27A 5692   2.327   3.196   4.218  0.9750  1.2975  1.3498
   61CHL1  H27B 5693   2.472   3.298   4.147 -0.4180 -0.3933 -0.8139
   61CHL1  H27C 5694   2.305   3.278   4.072  0.0134  1.4670  0.3033
   62CHL1    C3 5695   6.214   3.276   2.624  0.1206 -0.8314 -0.2138
   62CHL1    H3 5696   6.202   3.386   2.635 -1.7256 -1.1233  1.3798
   62CHL1    O3 5697   6.193   3.242   2.489  0.1681 -0.3080 -1.1149
   62CHL1   H3' 5698   6.231   3.154   2.496  0.0404 -0.3608 -1.0846
   62CHL1    C4 5699   6.362   3.246   2.658  0.6369 -0.6128 -0.1170
   62CHL1   H4A 5700   6.390   3.143   2.630 -2.9338 -1.4690 -1.0511
   62CHL1   H4B 5701   6.418   3.325   2.603  0.6602  1.0517  2.1404
   62CHL1    C5 5702   6.388   3.265   2.803  0.0160  0.6088  0.2208
   62CHL1    C6 5703   6.491   3.342   2.852  0.0407 -0.0423 -0.1006
   62CHL1    H6 5704   6.569   3.378   2.783  1.9858  1.8639  2.8846
   62CHL1    C7 5705   6.522   3.351   3.001 -0.4363  0.1907 -0.3413
   62CHL1   H7A 5706   6.629   3.339   3.026 -0.7851 -1.5657  0.3972
   62CHL1   H7B 5707   6.478   3.450   3.026 -1.4543  0.0724 -1.5569
   62CHL1    C8 5708   6.450   3.244   3.084  0.2754  0.7644 -0.9136
   62CHL1    H8 5709   6.507   3.149   3.083 -0.3461  0.3291  1.1286
   62CHL1   C14 5710   6.463   3.291   3.233  0.2121 -0.5742 -0.2694
   62CHL1   H14 5711   6.405   3.386   3.228  0.1850 -0.6411 -1.7666
   62CHL1   C15 5712   6.600   3.329   3.290 -0.1001 -0.1945 -0.2134
   62CHL1  H15A 5713   6.680   3.255   3.266  0.7061  0.8744 -0.9079
   62CHL1  H15B 5714   6.640   3.415   3.233  0.7259  0.9299  1.9510
   62CHL1   C16 5715   6.576   3.347   3.435 -0.0016  0.3275 -0.4462
   62CHL1  H16A 5716   6.660   3.297   3.487  0.1540  0.3594 -0.6648
   62CHL1  H16B 5717   6.570   3.455   3.463 -1.2418 -0.5162  3.1451
   62CHL1   C17 5718   6.438   3.276   3.468  0.3300  0.5927  0.4504
   62CHL1   H17 5719   6.368   3.361   3.482  0.0577  0.8159 -1.8977
   62CHL1   C13 5720   6.394   3.200   3.337  0.3216 -0.6015 -0.2640
   62CHL1   C18 5721   6.465   3.059   3.342  0.1377 -0.4023  0.7731
   62CHL1  H18A 5722   6.448   2.991   3.256  1.7256  0.4669 -0.2728
   62CHL1  H18B 5723   6.572   3.088   3.330 -0.9598  3.6824 -1.0612
   62CHL1  H18C 5724   6.439   3.002   3.434 -0.2529 -0.0040  0.9122
   62CHL1   C12 5725   6.241   3.200   3.304  0.8521  0.5057 -0.3421
   62CHL1  H12A 5726   6.181   3.144   3.379 -0.2048  0.7455 -0.9829
   62CHL1  H12B 5727   6.200   3.303   3.304  0.4745  0.3575 -0.1066
   62CHL1   C11 5728   6.218   3.146   3.163 -0.5153 -0.0731 -0.5707
   62CHL1  H11A 5729   6.246   3.039   3.162  0.6619  0.2260 -1.3775
   62CHL1  H11B 5730   6.113   3.163   3.131 -0.0981  0.4534 -1.6882
   62CHL1    C9 5731   6.304   3.226   3.050  0.0370 -0.3867 -0.2384
   62CHL1    H9 5732   6.263   3.328   3.066  1.7320  0.5079 -1.2905
   62CHL1   C10 5733   6.281   3.192   2.898 -0.4126  0.0500  0.1919
   62CHL1   C19 5734   6.310   3.040   2.879 -0.3228 -0.0564  0.8018
   62CHL1  H19A 5735   6.260   2.972   2.951 -1.7979 -2.9852 -2.6440
   62CHL1  H19B 5736   6.283   2.997   2.780 -1.0844 -2.0836  1.8280
   62CHL1  H19C 5737   6.419   3.019   2.875 -0.1859  0.7892 -0.5560
   62CHL1    C1 5738   6.134   3.233   2.860  0.3412 -0.7041 -0.0158
   62CHL1   H1A 5739   6.062   3.174   2.922  1.4542 -1.9662  0.1352
   62CHL1   H1B 5740   6.117   3.341   2.875  0.8406 -0.7420  0.9207
   62CHL1    C2 5741   6.111   3.205   2.712  0.0376 -0.8778 -0.2364
   62CHL1   H2A 5742   6.018   3.259   2.688  0.7121  0.3239 -0.2146
   62CHL1   H2B 5743   6.095   3.098   2.685  0.1069 -0.9050 -0.1732
   62CHL1   C20 5744   6.440   3.203   3.598 -0.2321  0.2975 -0.2677
   62CHL1   H20 5745   6.517   3.124   3.595  0.6030  1.1093 -1.3168
   62CHL1   C21 5746   6.298   3.158   3.637 -0.2327 -0.1603  0.5342
   62CHL1  H21A 5747   6.223   3.237   3.617 -0.6835 -0.2781  1.6925
   62CHL1  H21B 5748   6.277   3.138   3.744 -1.1330 -2.0410  0.0512
   62CHL1  H21C 5749   6.257   3.078   3.571 -1.2289  2.1454 -1.8449
   62CHL1   C22 5750   6.484   3.297   3.717  0.3180 -0.0043  0.6441
   62CHL1  H22A 5751   6.473   3.230   3.805  1.7669  1.3334  1.9078
   62CHL1  H22B 5752   6.591   3.326   3.706  0.3717 -1.0012 -2.3319
   62CHL1   C23 5753   6.404   3.426   3.726  0.2129  0.1620 -0.1241
   62CHL1  H23A 5754   6.433   3.492   3.642 -0.5516  1.5527  0.6619
   62CHL1  H23B 5755   6.293   3.418   3.726  0.1793  0.6161 -0.0024
   62CHL1   C24 5756   6.433   3.495   3.862 -0.4875  0.5084 -0.5150
   62CHL1  H24A 5757   6.391   3.598   3.863 -2.0468 -0.1002 -1.2824
   62CHL1  H24B 5758   6.381   3.450   3.950  1.6318  1.9226  1.5953
   62CHL1   C25 5759   6.583   3.526   3.896  0.3795  0.4815  1.0376
   62CHL1   H25 5760   6.639   3.430   3.904  2.5208  1.6296  0.8201
   62CHL1   C26 5761   6.652   3.605   3.784  0.3520  0.0230  0.6619
   62CHL1  H26A 5762   6.631   3.568   3.681  1.2388  1.2042  0.0253
   62CHL1  H26B 5763   6.619   3.711   3.787  0.6428  0.2743 -2.1562
   62CHL1  H26C 5764   6.763   3.601   3.793  0.3196  0.3777  1.2930
   62CHL1   C27 5765   6.602   3.597   4.034  0.5612 -0.2621 -0.1176
   62CHL1  H27A 5766   6.709   3.615   4.056  0.0893  1.3246  1.1041
   62CHL1  H27B 5767   6.545   3.692   4.030  0.3777 -0.3834 -0.4256
   62CHL1  H27C 5768   6.549   3.531   4.107  0.7939 -1.5341 -1.0581
   63CHL1    C3 5769   5.701   1.081   2.866  0.7404  0.2964 -0.2024
   63CHL1    H3 5770   5.760   1.172   2.844  2.8234 -1.4178 -2.1738
   63CHL1    O3 5771   5.611   1.065   2.756  0.0471 -0.0406  0.3691
   63CHL1   H3' 5772   5.540   1.008   2.785  1.1010 -1.6488 -0.1007
   63CHL1    C4 5773   5.803   0.965   2.869  0.4618 -0.2048 -0.4573
   63CHL1   H4A 5774   5.741   0.873   2.866 -1.4058  0.9387  0.8400
   63CHL1   H4B 5775   5.876   0.963   2.786  2.2313 -3.6430  1.0131
   63CHL1    C5 5776   5.872   0.956   3.003 -0.2818  1.1913  0.1037
   63CHL1    C6 5777   6.004   0.935   3.008 -0.4990  0.6473  0.5783
   63CHL1    H6 5778   6.055   0.926   2.911  2.0229  4.1188  1.3750
   63CHL1    C7 5779   6.080   0.927   3.135  0.3494 -0.7983  0.5111
   63CHL1   H7A 5780   6.157   0.847   3.135  1.5146  0.2738 -0.5142
   63CHL1   H7B 5781   6.133   1.025   3.142 -2.1057  0.5809  0.9304
   63CHL1    C8 5782   6.000   0.905   3.265  0.1363 -0.1128  1.0608
   63CHL1    H8 5783   5.964   0.800   3.268 -3.9294  0.9295 -1.9582
   63CHL1   C14 5784   6.073   0.952   3.393  0.2459 -0.0415 -0.1656
   63CHL1   H14 5785   6.096   1.061   3.392  1.6488 -0.3105  0.2740
   63CHL1   C15 5786   6.214   0.897   3.411 -0.3818 -0.0721 -0.2955
   63CHL1  H15A 5787   6.236   0.792   3.381  3.1377  0.9349 -1.8080
   63CHL1  H15B 5788   6.281   0.962   3.350  2.1059 -1.0975  1.2176
   63CHL1   C16 5789   6.241   0.921   3.555  0.1210 -0.2736 -0.1147
   63CHL1  H16A 5790   6.276   0.823   3.595  0.5536 -1.1429 -2.4701
   63CHL1  H16B 5791   6.327   0.990   3.572  0.4941 -0.7978  0.1684
   63CHL1   C17 5792   6.109   0.967   3.621 -0.6058 -0.0610  0.1241
   63CHL1   H17 5793   6.104   1.075   3.596  1.2876  0.0093 -0.0837
   63CHL1   C13 5794   5.998   0.922   3.523  0.6499  0.3594 -0.2729
   63CHL1   C18 5795   5.972   0.773   3.535  0.3009  0.1732 -0.0132
   63CHL1  H18A 5796   5.911   0.739   3.448 -1.1460  3.4115 -0.3977
   63CHL1  H18B 5797   6.072   0.724   3.543  1.9735  3.0819 -1.4725
   63CHL1  H18C 5798   5.914   0.755   3.628 -0.2244 -1.5597 -0.6329
   63CHL1   C12 5799   5.870   1.003   3.526 -0.1094 -0.6010  0.5998
   63CHL1  H12A 5800   5.815   0.978   3.619 -0.6087  1.7472  0.9971
   63CHL1  H12B 5801   5.889   1.112   3.520 -0.3281 -0.5101  1.4312
   63CHL1   C11 5802   5.792   0.980   3.391  0.0335  0.1780 -0.1903
   63CHL1  H11A 5803   5.750   0.877   3.398  1.0561 -0.1337  2.4326
   63CHL1  H11B 5804   5.713   1.058   3.396  0.4395  0.5258  1.4226
   63CHL1    C9 5805   5.873   0.988   3.258  0.2887  0.3600 -0.3995
   63CHL1    H9 5806   5.906   1.094   3.255  2.3384 -0.1941  0.5706
   63CHL1   C10 5807   5.785   0.965   3.134  0.0691  0.3848  0.0494
   63CHL1   C19 5808   5.691   0.840   3.154 -0.3907 -0.3039 -0.0168
   63CHL1  H19A 5809   5.620   0.858   3.238  1.5298  0.8810  1.4183
   63CHL1  H19B 5810   5.634   0.816   3.061 -1.7047 -1.9660  1.1442
   63CHL1  H19C 5811   5.741   0.745   3.181 -0.6640 -1.1916 -2.3835
   63CHL1    C1 5812   5.699   1.084   3.115  0.5587 -0.7498 -0.1009
   63CHL1   H1A 5813   5.637   1.074   3.207  1.8019  0.1174  0.8717
   63CHL1   H1B 5814   5.760   1.177   3.117  1.2763 -1.2075  2.1145
   63CHL1    C2 5815   5.611   1.090   2.993  0.2220 -0.1916 -0.2529
   63CHL1   H2A 5816   5.561   1.189   2.990  1.3350  0.3775 -0.3833
   63CHL1   H2B 5817   5.535   1.009   2.988  0.4467 -0.3357 -2.1104
   63CHL1   C20 5818   6.081   0.957   3.773 -0.1687 -0.1750  0.5829
   63CHL1   H20 5819   5.975   0.980   3.799  0.1620  2.0161  0.2083
   63CHL1   C21 5820   6.160   1.068   3.839 -0.0925  0.1678  0.2685
   63CHL1  H21A 5821   6.121   1.166   3.803 -0.2067  0.1627  0.3806
   63CHL1  H21B 5822   6.269   1.061   3.819  0.3378 -0.0152  2.4955
   63CHL1  H21C 5823   6.139   1.056   3.947 -0.3660  0.5496  0.2576
   63CHL1   C22 5824   6.119   0.818   3.828  0.9003  0.1165 -0.3651
   63CHL1  H22A 5825   6.086   0.735   3.763  0.9770 -0.6751  0.5940
   63CHL1  H22B 5826   6.229   0.806   3.844  0.5956 -1.8158  0.4774
   63CHL1   C23 5827   6.060   0.782   3.964 -0.9465  0.3315 -0.9122
   63CHL1  H23A 5828   6.095   0.861   4.034  1.1248  0.2760 -1.8024
   63CHL1  H23B 5829   5.951   0.795   3.947 -1.0935 -0.3696 -0.5235
   63CHL1   C24 5830   6.097   0.639   4.014  0.5515 -0.3514 -0.0958
   63CHL1  H24A 5831   6.011   0.587   4.062  1.3263 -2.0108 -0.4409
   63CHL1  H24B 5832   6.128   0.583   3.924 -0.5577 -0.3148 -0.5162
   63CHL1   C25 5833   6.215   0.634   4.115  0.1847  0.0994 -0.0038
   63CHL1   H25 5834   6.295   0.694   4.066 -0.1104  0.6207  0.1460
   63CHL1   C26 5835   6.186   0.698   4.257  0.9346  0.1667 -0.0022
   63CHL1  H26A 5836   6.280   0.685   4.315  0.8560 -0.2221  0.0394
   63CHL1  H26B 5837   6.153   0.804   4.256 -0.8896 -0.3388 -2.4500
   63CHL1  H26C 5838   6.099   0.640   4.295  1.8741 -1.4767 -0.2602
   63CHL1   C27 5839   6.270   0.489   4.138  0.3187 -0.5360  0.2583
   63CHL1  H27A 5840   6.187   0.423   4.170 -1.3103  2.1206  1.8211
   63CHL1  H27B 5841   6.302   0.455   4.037 -1.3532  0.8149 -0.7765
   63CHL1  H27C 5842   6.358   0.490   4.206  1.7323 -0.4263 -1.4975
   64CHL1    C3 5843   0.684   0.135   3.035  0.1451 -0.2730 -0.2715
   64CHL1    H3 5844   0.696   0.245   3.047  0.4145 -0.1145 -1.7648
   64CHL1    O3 5845   0.673   0.118   2.892 -0.1818  0.7386  0.0483
   64CHL1   H3' 5846   0.599   0.056   2.888  0.3899  0.1185 -1.7018
   64CHL1    C4 5847   0.790   0.048   3.092 -0.0032  1.1228  0.1748
   64CHL1   H4A 5848   0.770  -0.056   3.058  0.8148  0.8291  0.5690
   64CHL1   H4B 5849   0.893   0.065   3.055 -0.1624 -1.1095 -1.4723
   64CHL1    C5 5850   0.801   0.049   3.245 -0.0088 -0.4072  0.6859
   64CHL1    C6 5851   0.911   0.080   3.316  0.0862  0.1532 -0.0244
   64CHL1    H6 5852   1.002   0.098   3.256  1.2542 -2.0267  0.9678
   64CHL1    C7 5853   0.937   0.066   3.463 -0.2778  0.0434  0.1369
   64CHL1   H7A 5854   1.028   0.005   3.482 -0.6152 -1.3070 -2.2110
   64CHL1   H7B 5855   0.944   0.169   3.505  1.4928  0.4242 -0.9924
   64CHL1    C8 5856   0.818  -0.009   3.531 -0.0254 -0.7817 -0.0676
   64CHL1    H8 5857   0.833  -0.118   3.520  0.9285 -0.5887 -0.8138
   64CHL1   C14 5858   0.824   0.020   3.684  0.1019 -0.0902 -0.7448
   64CHL1   H14 5859   0.808   0.129   3.688  0.6483  0.0188 -1.3986
   64CHL1   C15 5860   0.958   0.017   3.764 -0.0502  0.0564  0.4355
   64CHL1  H15A 5861   1.014  -0.076   3.740 -1.6050 -1.1976  1.5413
   64CHL1  H15B 5862   1.022   0.100   3.726 -0.2004 -0.4977 -1.1270
   64CHL1   C16 5863   0.918   0.025   3.909  0.7253  0.3948 -0.3905
   64CHL1  H16A 5864   0.970  -0.033   3.988 -1.2310 -0.7976  0.0915
   64CHL1  H16B 5865   0.927   0.130   3.945 -0.5186  0.5901 -0.5826
   64CHL1   C17 5866   0.761  -0.003   3.912  0.9263 -0.0207  0.6901
   64CHL1   H17 5867   0.713   0.097   3.921 -0.0365 -0.5310  1.3726
   64CHL1   C13 5868   0.718  -0.048   3.769 -0.2061  0.4047 -0.4860
   64CHL1   C18 5869   0.732  -0.202   3.760  0.1073 -0.0661  0.6046
   64CHL1  H18A 5870   0.731  -0.245   3.657  0.3796  0.9951  0.1441
   64CHL1  H18B 5871   0.826  -0.234   3.809 -0.8855 -1.1250  1.9086
   64CHL1  H18C 5872   0.660  -0.257   3.824 -1.3859  1.4295  0.2578
   64CHL1   C12 5873   0.590   0.015   3.717  0.1688  0.1272 -0.4874
   64CHL1  H12A 5874   0.501  -0.010   3.779  0.5376  1.7443  0.7742
   64CHL1  H12B 5875   0.594   0.126   3.727 -1.4912  0.0172  3.6316
   64CHL1   C11 5876   0.564  -0.018   3.564  0.1250  0.0313  0.0305
   64CHL1  H11A 5877   0.541  -0.127   3.555 -2.4923  0.4961  0.4004
   64CHL1  H11B 5878   0.475   0.034   3.523  2.0752  2.2296 -1.6782
   64CHL1    C9 5879   0.684   0.034   3.477 -0.1702  0.1485 -0.7480
   64CHL1    H9 5880   0.678   0.145   3.478 -0.5118  0.1777 -2.4820
   64CHL1   C10 5881   0.672   0.014   3.320 -1.2913  0.6343 -0.3004
   64CHL1   C19 5882   0.656  -0.133   3.298 -0.1735 -0.1071  0.1069
   64CHL1  H19A 5883   0.726  -0.194   3.358  1.6707  2.8842  1.1748
   64CHL1  H19B 5884   0.549  -0.158   3.318 -0.7998  0.2966 -2.3210
   64CHL1  H19C 5885   0.670  -0.162   3.191  0.2923 -0.2980  0.2177
   64CHL1    C1 5886   0.561   0.110   3.258  0.4993  0.1137  0.9753
   64CHL1   H1A 5887   0.467   0.073   3.303  0.2604  0.1536  0.5153
   64CHL1   H1B 5888   0.570   0.218   3.283 -0.6225 -0.5289  4.7911
   64CHL1    C2 5889   0.545   0.097   3.104  0.6005 -0.2537 -0.1624
   64CHL1   H2A 5890   0.473   0.168   3.059 -0.4715 -2.5640 -2.3011
   64CHL1   H2B 5891   0.516  -0.007   3.079  0.4979 -0.4097  0.5669
   64CHL1   C20 5892   0.706  -0.072   4.035 -0.3702  0.0386  0.0710
   64CHL1   H20 5893   0.719  -0.180   4.014  2.6178  0.8275 -3.0137
   64CHL1   C21 5894   0.552  -0.049   4.046  0.1275 -0.2548  0.4795
   64CHL1  H21A 5895   0.508  -0.094   4.137 -0.6451 -0.6608 -0.0871
   64CHL1  H21B 5896   0.511  -0.101   3.957 -0.1922  0.1698  0.3740
   64CHL1  H21C 5897   0.532   0.061   4.043 -0.2550 -0.2610  2.1651
   64CHL1   C22 5898   0.775  -0.023   4.161  0.0993  0.2138 -0.1224
   64CHL1  H22A 5899   0.723  -0.083   4.239  2.6271 -4.2580 -1.5566
   64CHL1  H22B 5900   0.878  -0.064   4.167  0.0640  0.3022  2.1978
   64CHL1   C23 5901   0.777   0.132   4.189 -0.2467  0.0861 -0.1156
   64CHL1  H23A 5902   0.823   0.191   4.107 -0.6908 -1.8605 -1.8317
   64CHL1  H23B 5903   0.675   0.175   4.193  1.0389  3.6188 -1.6528
   64CHL1   C24 5904   0.851   0.175   4.316 -0.7469 -0.0939  0.2011
   64CHL1  H24A 5905   0.960   0.152   4.326 -0.8820 -0.9794 -0.2730
   64CHL1  H24B 5906   0.835   0.284   4.326  0.4393  0.1782 -0.5736
   64CHL1   C25 5907   0.805   0.119   4.460 -0.7142 -0.3692  0.2498
   64CHL1   H25 5908   0.817   0.010   4.438  0.3162  0.2530 -2.6246
   64CHL1   C26 5909   0.914   0.148   4.563 -0.2831 -0.8969  1.3126
   64CHL1  H26A 5910   0.884   0.109   4.663  2.2292 -0.2443  2.3934
   64CHL1  H26B 5911   1.010   0.099   4.536 -0.2028  0.3001 -0.7502
   64CHL1  H26C 5912   0.925   0.257   4.582  1.4246 -1.4433  3.9872
   64CHL1   C27 5913   0.676   0.168   4.512  0.3806 -0.4725 -0.9872
   64CHL1  H27A 5914   0.644   0.119   4.606  1.6269  1.6171  0.6299
   64CHL1  H27B 5915   0.668   0.278   4.525 -3.4869 -0.4999 -1.8897
   64CHL1  H27C 5916   0.601   0.138   4.435 -2.2916 -2.9267  2.2982
   65CHL1    C3 5917   6.153   4.045   2.996  0.7465  0.1173 -0.1994
   65CHL1    H3 5918   6.186   3.955   3.052  1.8840  0.2189 -0.6727
   65CHL1    O3 5919   6.146   4.013   2.860 -0.6910  0.2929  0.0547
   65CHL1   H3' 5920   6.238   4.023   2.835 -0.7476 -0.4161 -0.4718
   65CHL1    C4 5921   6.012   4.080   3.041  0.1039  0.3897 -0.6976
   65CHL1   H4A 5922   5.974   4.158   2.972 -0.2014  0.0416 -0.9297
   65CHL1   H4B 5923   5.948   3.994   3.013 -0.7738  1.3778 -1.8143
   65CHL1    C5 5924   6.011   4.117   3.189 -0.1292 -0.4530  1.0190
   65CHL1    C6 5925   5.929   4.067   3.278 -0.1846  0.5470 -0.0429
   65CHL1    H6 5926   5.859   3.988   3.248 -0.2890 -0.6378  2.9948
   65CHL1    C7 5927   5.932   4.107   3.426 -0.3133 -0.0197  0.0654
   65CHL1   H7A 5928   5.828   4.128   3.458 -0.3255  1.8820 -1.0777
   65CHL1   H7B 5929   5.961   4.023   3.494 -1.5219  0.0562  0.6976
   65CHL1    C8 5930   6.010   4.238   3.457 -0.3438  0.3544 -1.1684
   65CHL1    H8 5931   5.937   4.315   3.427 -0.0238  1.0655 -0.1627
   65CHL1   C14 5932   6.035   4.259   3.608  0.3084 -0.3233 -0.2282
   65CHL1   H14 5933   6.093   4.171   3.642  2.7595  0.4809 -1.9755
   65CHL1   C15 5934   5.913   4.254   3.694  0.0206  0.2647  0.4109
   65CHL1  H15A 5935   5.834   4.322   3.654  1.0724  0.0537 -2.2664
   65CHL1  H15B 5936   5.866   4.154   3.700 -0.2246  0.1978 -1.6800
   65CHL1   C16 5937   5.967   4.323   3.827  0.6495  0.8853 -0.2844
   65CHL1  H16A 5938   5.902   4.411   3.847 -1.7582 -0.7449 -0.4580
   65CHL1  H16B 5939   5.956   4.260   3.918 -1.6005  1.1584 -0.2983
   65CHL1   C17 5940   6.118   4.357   3.807 -0.3840 -0.3215  0.1973
   65CHL1   H17 5941   6.178   4.268   3.835  0.0905  0.2353  0.9954
   65CHL1   C13 5942   6.125   4.374   3.654 -0.3364 -0.8869 -0.5149
   65CHL1   C18 5943   6.067   4.517   3.614 -0.5720 -0.2379 -0.6945
   65CHL1  H18A 5944   5.960   4.525   3.643 -1.2660 -0.2046 -3.0989
   65CHL1  H18B 5945   6.118   4.605   3.659  0.0675 -0.7574 -0.3811
   65CHL1  H18C 5946   6.081   4.530   3.505 -2.9612 -0.4205 -1.0774
   65CHL1   C12 5947   6.264   4.344   3.586  0.0976  0.2901 -0.3223
   65CHL1  H12A 5948   6.327   4.431   3.615  0.2938 -0.5285  1.8603
   65CHL1  H12B 5949   6.315   4.257   3.630  2.5709 -0.0935 -3.5591
   65CHL1   C11 5950   6.250   4.328   3.435 -0.6350 -0.5704 -0.1837
   65CHL1  H11A 5951   6.232   4.436   3.414 -4.6835 -0.9770  0.3989
   65CHL1  H11B 5952   6.353   4.293   3.412  0.1744  0.1619  2.0258
   65CHL1    C9 5953   6.142   4.229   3.387 -0.1105 -0.7706  0.2702
   65CHL1    H9 5954   6.178   4.127   3.410 -0.1207 -0.8317  0.0142
   65CHL1   C10 5955   6.121   4.222   3.233 -0.6471 -0.2247  0.0620
   65CHL1   C19 5956   6.087   4.362   3.182 -0.3312  0.3472  0.0919
   65CHL1  H19A 5957   6.073   4.372   3.073 -0.4729 -1.3957 -0.0812
   65CHL1  H19B 5958   5.998   4.400   3.236  0.3133 -1.2947  2.4845
   65CHL1  H19C 5959   6.179   4.420   3.206  1.0928 -1.9135  0.4274
   65CHL1    C1 5960   6.268   4.187   3.180  0.2561  0.1405 -1.0170
   65CHL1   H1A 5961   6.341   4.267   3.202 -1.4616  0.9844  2.3003
   65CHL1   H1B 5962   6.302   4.096   3.233  2.0388  1.0903 -0.4771
   65CHL1    C2 5963   6.263   4.150   3.025  0.1815  0.6680 -0.2209
   65CHL1   H2A 5964   6.365   4.116   2.996  0.0019 -0.1523  0.0767
   65CHL1   H2B 5965   6.244   4.248   2.976 -2.6234  0.9010  1.1544
   65CHL1   C20 5966   6.168   4.473   3.899  0.0267  0.7433  0.1467
   65CHL1   H20 5967   6.129   4.568   3.856 -0.3498  0.8490  0.7030
   65CHL1   C21 5968   6.315   4.489   3.889 -0.5212 -0.2137  0.3371
   65CHL1  H21A 5969   6.352   4.554   3.806  1.1055 -0.2993  0.9667
   65CHL1  H21B 5970   6.364   4.392   3.866 -0.3435 -0.2268  0.7683
   65CHL1  H21C 5971   6.372   4.532   3.974  2.0630 -2.1072 -0.2970
   65CHL1   C22 5972   6.120   4.469   4.047 -0.0757  0.4228 -0.6369
   65CHL1  H22A 5973   6.150   4.569   4.086 -3.0290  1.1542  0.0633
   65CHL1  H22B 5974   6.009   4.473   4.041 -0.1279 -0.1660 -0.1336
   65CHL1   C23 5975   6.158   4.343   4.134  0.2492 -0.6630  0.0502
   65CHL1  H23A 5976   6.104   4.254   4.094  0.3656 -0.4244 -0.6551
   65CHL1  H23B 5977   6.269   4.336   4.136  0.4928  1.6915 -1.6532
   65CHL1   C24 5978   6.102   4.372   4.274 -0.2425 -0.3127 -0.0750
   65CHL1  H24A 5979   6.143   4.468   4.312 -0.8437  0.7788 -2.0804
   65CHL1  H24B 5980   5.992   4.384   4.260 -0.0211  0.6781 -1.0826
   65CHL1   C25 5981   6.106   4.258   4.375  0.0386 -0.4732  0.1903
   65CHL1   H25 5982   6.070   4.162   4.331 -1.6791 -0.0766  0.6737
   65CHL1   C26 5983   6.249   4.253   4.430 -0.5958 -0.6566  0.1634
   65CHL1  H26A 5984   6.268   4.346   4.488  2.1092 -0.1690 -1.3509
   65CHL1  H26B 5985   6.259   4.163   4.495 -2.3822 -1.3633 -0.4656
   65CHL1  H26C 5986   6.321   4.240   4.347  0.1116  1.4580  0.3934
   65CHL1   C27 5987   6.009   4.303   4.496  0.1554 -0.1381  0.3508
   65CHL1  H27A 5988   5.904   4.311   4.460  0.5692 -0.2163 -0.9353
   65CHL1  H27B 5989   6.014   4.226   4.575 -0.4049 -0.8939 -0.3305
   65CHL1  H27C 5990   6.040   4.403   4.534  0.5753 -0.2845  0.3899
   66CHL1    C3 5991   3.148   2.571   2.560 -0.5116 -0.5436 -0.2358
   66CHL1    H3 5992   3.079   2.658   2.552 -1.1019 -0.8175  1.5128
   66CHL1    O3 5993   3.155   2.491   2.440 -0.3248 -0.8790 -0.3877
   66CHL1   H3' 5994   3.192   2.403   2.455 -1.2271 -1.7164 -2.6499
   66CHL1    C4 5995   3.293   2.638   2.571  0.1725 -0.0285 -0.6449
   66CHL1   H4A 5996   3.360   2.550   2.558 -1.4442 -1.4451  0.2222
   66CHL1   H4B 5997   3.312   2.706   2.485  0.5992  0.4140 -0.2011
   66CHL1    C5 5998   3.327   2.706   2.707  0.5471 -0.2951  0.1185
   66CHL1    C6 5999   3.375   2.829   2.720 -0.4369 -0.4661 -0.3808
   66CHL1    H6 6000   3.414   2.887   2.635  0.1523 -1.3995 -0.7686
   66CHL1    C7 6001   3.414   2.891   2.849  0.1266  0.0735  0.2637
   66CHL1   H7A 6002   3.521   2.922   2.842  0.4099 -1.0193 -0.4285
   66CHL1   H7B 6003   3.359   2.983   2.878 -0.0189 -0.1504  0.7041
   66CHL1    C8 6004   3.402   2.792   2.968 -0.1743 -0.4065  0.0282
   66CHL1    H8 6005   3.495   2.732   2.975 -0.1528 -0.2552  1.2633
   66CHL1   C14 6006   3.390   2.876   3.099  0.3066  0.8259  0.5107
   66CHL1   H14 6007   3.294   2.930   3.090  1.0521  2.1493  0.3028
   66CHL1   C15 6008   3.493   2.987   3.119  1.0503 -0.6448 -0.2307
   66CHL1  H15A 6009   3.594   2.951   3.091  1.1235 -0.0949 -0.6852
   66CHL1  H15B 6010   3.471   3.077   3.058 -1.0250 -1.3071 -0.5583
   66CHL1   C16 6011   3.492   3.006   3.273  0.1775  0.0661 -0.0610
   66CHL1  H16A 6012   3.592   3.002   3.322  0.7607 -0.8262 -1.2917
   66CHL1  H16B 6013   3.455   3.110   3.289  1.4521  0.5946 -0.3523
   66CHL1   C17 6014   3.385   2.908   3.339 -0.7466 -0.5936  0.4231
   66CHL1   H17 6015   3.290   2.963   3.326  0.4428  1.1862 -1.3814
   66CHL1   C13 6016   3.380   2.791   3.230 -0.7899  0.2181 -0.1992
   66CHL1   C18 6017   3.503   2.692   3.244 -0.6494  0.2471 -1.0809
   66CHL1  H18A 6018   3.484   2.615   3.321  0.2597  1.6208  0.5895
   66CHL1  H18B 6019   3.549   2.644   3.155  3.6268  0.2391  0.8856
   66CHL1  H18C 6020   3.590   2.747   3.287 -0.8008  0.0131 -0.4616
   66CHL1   C12 6021   3.251   2.712   3.220 -0.6596 -0.3854 -0.3291
   66CHL1  H12A 6022   3.234   2.644   3.307 -1.6731  1.3559  0.8814
   66CHL1  H12B 6023   3.160   2.774   3.219 -0.8581 -0.6716 -0.2850
   66CHL1   C11 6024   3.250   2.621   3.094  0.0226 -0.5282  0.5869
   66CHL1  H11A 6025   3.336   2.551   3.101 -0.6218 -1.2623  1.3353
   66CHL1  H11B 6026   3.157   2.560   3.093  0.4147 -1.1295  0.7795
   66CHL1    C9 6027   3.284   2.699   2.957  0.1683 -0.2147 -0.4954
   66CHL1    H9 6028   3.199   2.766   2.934 -0.2874 -1.4046 -2.6237
   66CHL1   C10 6029   3.275   2.615   2.831  0.2593 -0.4410  1.1462
   66CHL1   C19 6030   3.367   2.490   2.847 -0.7204 -0.2195  0.0002
   66CHL1  H19A 6031   3.332   2.423   2.928 -2.5637  0.3742 -0.2550
   66CHL1  H19B 6032   3.371   2.434   2.752  1.5868 -0.3952  0.1621
   66CHL1  H19C 6033   3.470   2.524   2.868 -0.7786  0.1326 -0.2625
   66CHL1    C1 6034   3.129   2.571   2.808 -0.1546 -0.2117 -0.0032
   66CHL1   H1A 6035   3.105   2.517   2.902  3.4620  1.0477  1.8406
   66CHL1   H1B 6036   3.064   2.661   2.794  0.0766  0.2235  1.5189
   66CHL1    C2 6037   3.110   2.485   2.682 -1.2823 -0.2127  0.1496
   66CHL1   H2A 6038   3.000   2.465   2.679 -1.2399 -0.3562 -0.8042
   66CHL1   H2B 6039   3.167   2.390   2.676  2.8733  2.0818 -0.6231
   66CHL1   C20 6040   3.391   2.883   3.495  0.8878 -1.0488 -0.3600
   66CHL1   H20 6041   3.498   2.859   3.510  1.9541  3.5761  0.9445
   66CHL1   C21 6042   3.294   2.777   3.537 -0.1741 -0.0573 -0.2098
   66CHL1  H21A 6043   3.321   2.680   3.490  0.6027 -1.1142  2.2526
   66CHL1  H21B 6044   3.187   2.805   3.521  0.3054  1.4600 -0.8969
   66CHL1  H21C 6045   3.302   2.752   3.644 -2.1302  0.4702  0.1099
   66CHL1   C22 6046   3.373   3.011   3.587 -0.1436  0.0546  0.7951
   66CHL1  H22A 6047   3.435   3.096   3.550 -1.9928  1.4925  0.8614
   66CHL1  H22B 6048   3.265   3.037   3.593 -0.4775 -1.1519  0.3690
   66CHL1   C23 6049   3.423   2.985   3.735  0.2743 -0.1113 -0.3020
   66CHL1  H23A 6050   3.342   2.923   3.780  1.2213 -1.2930 -0.1797
   66CHL1  H23B 6051   3.516   2.925   3.728  1.5537  1.8791 -1.0669
   66CHL1   C24 6052   3.439   3.110   3.819 -0.1137  0.1494  0.2178
   66CHL1  H24A 6053   3.543   3.148   3.806 -0.1984 -0.0857 -1.3943
   66CHL1  H24B 6054   3.364   3.185   3.784 -0.4435 -0.0732  0.4472
   66CHL1   C25 6055   3.407   3.081   3.957 -0.0856 -0.0040 -0.4612
   66CHL1   H25 6056   3.300   3.053   3.949  0.1297 -0.5599 -1.6418
   66CHL1   C26 6057   3.489   2.954   4.005  0.3391 -1.0662  0.4036
   66CHL1  H26A 6058   3.445   2.856   3.978  0.7312 -1.0617 -0.2799
   66CHL1  H26B 6059   3.590   2.961   3.961 -0.4838 -0.3470 -1.5125
   66CHL1  H26C 6060   3.499   2.959   4.115  4.0829 -2.0543  0.2408
   66CHL1   C27 6061   3.421   3.196   4.051  0.2095 -0.3599  0.5782
   66CHL1  H27A 6062   3.373   3.179   4.150 -1.9288 -2.1324 -0.6862
   66CHL1  H27B 6063   3.379   3.290   4.008 -0.4529 -1.6936 -1.8701
   66CHL1  H27C 6064   3.526   3.229   4.068 -0.7953  2.8582  1.3583
   67CHL1    C3 6065   1.892   1.607   2.842 -0.2039  0.2155 -1.1552
   67CHL1    H3 6066   1.900   1.712   2.879 -0.7705 -0.5100  1.1247
   67CHL1    O3 6067   1.874   1.586   2.705 -0.1024 -0.1523 -0.3615
   67CHL1   H3' 6068   1.897   1.494   2.691  2.9480  0.8427 -3.0279
   67CHL1    C4 6069   2.026   1.546   2.885 -0.1764 -0.2504  0.1027
   67CHL1   H4A 6070   2.029   1.445   2.840 -1.9409  0.2893 -1.3509
   67CHL1   H4B 6071   2.104   1.607   2.834  0.8178 -2.0703 -0.6225
   67CHL1    C5 6072   2.048   1.534   3.043  0.3742 -0.9253 -0.1935
   67CHL1    C6 6073   2.163   1.567   3.096 -0.8290  0.0603 -0.9530
   67CHL1    H6 6074   2.249   1.589   3.030 -0.2778  0.8725  0.0046
   67CHL1    C7 6075   2.186   1.559   3.241 -0.4934  0.3431 -0.7904
   67CHL1   H7A 6076   2.289   1.522   3.263 -0.6627  0.5738  0.4374
   67CHL1   H7B 6077   2.177   1.663   3.279  1.6996  0.1792  0.3621
   67CHL1    C8 6078   2.085   1.486   3.326  0.2212  1.1681 -0.4748
   67CHL1    H8 6079   2.097   1.376   3.317 -0.4398  0.8806  1.5606
   67CHL1   C14 6080   2.090   1.516   3.473 -0.5153  0.5777 -0.1398
   67CHL1   H14 6081   2.071   1.623   3.496  2.5901  1.3904 -0.9437
   67CHL1   C15 6082   2.230   1.487   3.537 -0.0063  0.2306  0.2824
   67CHL1  H15A 6083   2.252   1.385   3.502 -0.9295  0.5807 -1.4425
   67CHL1  H15B 6084   2.302   1.564   3.503 -0.7246  1.9583  2.4315
   67CHL1   C16 6085   2.195   1.488   3.688  0.4025  0.0635 -0.4704
   67CHL1  H16A 6086   2.237   1.392   3.724  0.2615  0.2685  0.2563
   67CHL1  H16B 6087   2.247   1.572   3.740 -0.4650  0.3616 -0.0734
   67CHL1   C17 6088   2.040   1.491   3.698 -0.8824 -0.3169 -0.9146
   67CHL1   H17 6089   2.005   1.596   3.703  1.2972  0.3982  0.6604
   67CHL1   C13 6090   1.989   1.446   3.563 -0.0522  0.2921  0.2684
   67CHL1   C18 6091   2.000   1.293   3.554 -0.6594 -0.2791 -0.3248
   67CHL1  H18A 6092   1.968   1.248   3.457 -2.6303  0.8338 -0.2368
   67CHL1  H18B 6093   2.100   1.254   3.581 -0.8376  0.7259  2.0081
   67CHL1  H18C 6094   1.931   1.247   3.629 -1.3452  0.9289 -0.1956
   67CHL1   C12 6095   1.851   1.498   3.512 -0.0312 -0.1336 -0.1225
   67CHL1  H12A 6096   1.762   1.465   3.570  0.1866  0.5826  0.6385
   67CHL1  H12B 6097   1.842   1.608   3.526 -3.0366 -0.4782  1.3811
   67CHL1   C11 6098   1.827   1.466   3.361 -0.1738 -0.4523 -0.7730
   67CHL1  H11A 6099   1.815   1.356   3.366 -1.7485 -0.3301 -1.3134
   67CHL1  H11B 6100   1.728   1.510   3.336 -0.4315 -0.1999  0.5770
   67CHL1    C9 6101   1.940   1.518   3.276 -0.6576 -0.4458  0.4723
   67CHL1    H9 6102   1.941   1.629   3.286 -0.3085 -0.2452 -1.4617
   67CHL1   C10 6103   1.925   1.484   3.126  0.2835 -0.7102  0.2637
   67CHL1   C19 6104   1.917   1.330   3.109  0.2868  0.3644 -0.4161
   67CHL1  H19A 6105   2.012   1.284   3.144 -0.3302 -1.2071 -0.7175
   67CHL1  H19B 6106   1.827   1.284   3.156  0.6746 -0.9660 -0.9540
   67CHL1  H19C 6107   1.903   1.307   3.002  1.1573  0.2995 -0.5219
   67CHL1    C1 6108   1.789   1.543   3.069  0.5102  0.0573  1.4858
   67CHL1   H1A 6109   1.708   1.487   3.119  0.0284 -0.0607  0.5941
   67CHL1   H1B 6110   1.794   1.651   3.092  3.4644 -0.3688  3.4241
   67CHL1    C2 6111   1.780   1.530   2.913  0.3500  0.4000  0.6216
   67CHL1   H2A 6112   1.678   1.566   2.891 -0.2915 -0.7165  1.6304
   67CHL1   H2B 6113   1.783   1.425   2.875  1.1590  0.5028  0.3756
   67CHL1   C20 6114   1.981   1.420   3.822  0.4455  0.6668  0.0967
   67CHL1   H20 6115   2.012   1.315   3.809 -1.6535  0.1932 -1.8560
   67CHL1   C21 6116   1.829   1.433   3.828 -0.2540 -0.2483 -0.0642
   67CHL1  H21A 6117   1.785   1.396   3.923 -0.2920  0.0573  0.0388
   67CHL1  H21B 6118   1.782   1.372   3.747 -1.8683  1.5842 -0.5921
   67CHL1  H21C 6119   1.782   1.534   3.829 -0.0901 -0.1036  3.6241
   67CHL1   C22 6120   2.032   1.459   3.959  0.1353 -0.3666 -0.0250
   67CHL1  H22A 6121   2.137   1.495   3.959 -0.5732  1.9229 -1.0978
   67CHL1  H22B 6122   1.983   1.552   3.994  3.6869  2.2740 -1.3628
   67CHL1   C23 6123   2.025   1.347   4.068  0.1534  0.1135 -0.1367
   67CHL1  H23A 6124   1.920   1.315   4.085  0.7051 -0.7014  1.9822
   67CHL1  H23B 6125   2.084   1.262   4.028  1.7065  1.8585 -1.7757
   67CHL1   C24 6126   2.093   1.383   4.199 -0.3278  1.0076  0.2746
   67CHL1  H24A 6127   2.058   1.484   4.229 -0.6611 -0.0528  3.9043
   67CHL1  H24B 6128   2.056   1.316   4.280  0.3095 -0.0957 -0.3169
   67CHL1   C25 6129   2.247   1.388   4.199 -0.5917  0.0166 -0.1422
   67CHL1   H25 6130   2.294   1.461   4.130  0.7618 -1.1922 -0.5310
   67CHL1   C26 6131   2.306   1.421   4.339 -0.6675  0.0248 -0.2033
   67CHL1  H26A 6132   2.276   1.517   4.387 -0.8402 -0.9702  1.8014
   67CHL1  H26B 6133   2.284   1.343   4.415  1.5883 -0.4933 -0.0143
   67CHL1  H26C 6134   2.416   1.427   4.328 -0.6182  0.2670  0.3776
   67CHL1   C27 6135   2.308   1.252   4.142 -0.4916 -0.4541  0.4220
   67CHL1  H27A 6136   2.279   1.230   4.037  0.5118  0.3931 -0.0502
   67CHL1  H27B 6137   2.418   1.264   4.144 -0.6867  1.4984  0.7570
   67CHL1  H27C 6138   2.278   1.168   4.208  2.2510 -1.3713  0.6450
   68CHL1    C3 6139   1.451   1.114   2.882 -0.6440  0.2761  0.4955
   68CHL1    H3 6140   1.523   1.030   2.872  1.8022  2.4241 -1.9995
   68CHL1    O3 6141   1.412   1.154   2.753  1.1473  0.4743 -0.0857
   68CHL1   H3' 6142   1.493   1.159   2.702 -0.3939 -2.7220 -3.2359
   68CHL1    C4 6143   1.330   1.072   2.965  0.6150  0.2434  0.0253
   68CHL1   H4A 6144   1.248   1.146   2.957  0.0130 -0.5232 -1.1168
   68CHL1   H4B 6145   1.284   0.984   2.916  0.2954  0.0487  0.6720
   68CHL1    C5 6146   1.366   1.026   3.103  0.0213 -0.2191 -0.2340
   68CHL1    C6 6147   1.336   0.910   3.158 -0.0544 -0.0461 -0.3626
   68CHL1    H6 6148   1.269   0.842   3.104 -2.5260 -0.7051  3.2596
   68CHL1    C7 6149   1.377   0.874   3.296 -0.1464 -0.0827  0.2868
   68CHL1   H7A 6150   1.293   0.823   3.348 -2.5335  1.7237 -1.5855
   68CHL1   H7B 6151   1.470   0.813   3.284 -0.1155  0.2978 -1.8603
   68CHL1    C8 6152   1.422   0.991   3.387  0.2543 -0.4281 -0.4780
   68CHL1    H8 6153   1.331   1.043   3.422 -1.1839 -2.7602 -0.5669
   68CHL1   C14 6154   1.494   0.951   3.518 -0.3561 -1.0086  0.1288
   68CHL1   H14 6155   1.592   0.911   3.483  0.7127  0.4764  1.2942
   68CHL1   C15 6156   1.439   0.841   3.610  1.2267 -0.1308  0.6165
   68CHL1  H15A 6157   1.329   0.849   3.619  1.1206 -0.4381 -0.2700
   68CHL1  H15B 6158   1.454   0.740   3.568 -0.6587  0.2763 -1.1721
   68CHL1   C16 6159   1.492   0.861   3.751 -0.7184  0.5324 -0.0368
   68CHL1  H16A 6160   1.408   0.902   3.811 -2.4099  1.9281 -3.1061
   68CHL1  H16B 6161   1.523   0.765   3.799 -0.8440 -0.2999 -1.5564
   68CHL1   C17 6162   1.590   0.982   3.732  0.1949  0.1810  0.2170
   68CHL1   H17 6163   1.678   0.931   3.687 -0.4403 -0.9220  0.1801
   68CHL1   C13 6164   1.532   1.066   3.615  0.8198  0.7803  0.2053
   68CHL1   C18 6165   1.411   1.145   3.666  0.2445 -0.5630  0.0154
   68CHL1  H18A 6166   1.442   1.238   3.718 -1.2000  0.2934 -0.5885
   68CHL1  H18B 6167   1.354   1.193   3.584 -0.4711 -0.0420  0.8027
   68CHL1  H18C 6168   1.345   1.074   3.721  0.7557  0.7111  2.4113
   68CHL1   C12 6169   1.635   1.152   3.538  0.2118  0.0414  1.0157
   68CHL1  H12A 6170   1.678   1.240   3.591 -1.5351  2.8753 -1.8739
   68CHL1  H12B 6171   1.722   1.093   3.501  0.4829  1.5938 -1.0222
   68CHL1   C11 6172   1.572   1.209   3.396  0.6345  0.2967  0.0431
   68CHL1  H11A 6173   1.494   1.280   3.431 -0.7101 -1.5082  0.8807
   68CHL1  H11B 6174   1.644   1.262   3.330 -2.6878 -0.3669 -4.5911
   68CHL1    C9 6175   1.510   1.092   3.311  0.4340 -0.7690  0.8278
   68CHL1    H9 6176   1.596   1.028   3.284  0.0385 -0.3391 -1.6140
   68CHL1   C10 6177   1.449   1.140   3.176  0.3525  0.7745  0.4612
   68CHL1   C19 6178   1.352   1.261   3.208 -1.0419  0.5854  1.0647
   68CHL1  H19A 6179   1.415   1.351   3.222 -1.9115  1.2734  0.6958
   68CHL1  H19B 6180   1.286   1.282   3.120  0.7863 -0.5655 -0.6620
   68CHL1  H19C 6181   1.294   1.259   3.303 -0.5399  1.1345  1.3860
   68CHL1    C1 6182   1.568   1.193   3.088 -0.0485  0.2169 -0.0450
   68CHL1   H1A 6183   1.620   1.281   3.130  0.2644  1.1656 -2.3106
   68CHL1   H1B 6184   1.642   1.110   3.089 -1.4563 -1.0886  1.2671
   68CHL1    C2 6185   1.522   1.232   2.948 -0.2330  0.2097 -1.0490
   68CHL1   H2A 6186   1.616   1.263   2.898  1.3644  1.1747  2.2534
   68CHL1   H2B 6187   1.447   1.314   2.954  0.3862  0.7292 -0.3448
   68CHL1   C20 6188   1.630   1.062   3.859 -0.1291  0.4509  0.5946
   68CHL1   H20 6189   1.649   1.167   3.828  1.0677 -0.2916 -1.3257
   68CHL1   C21 6190   1.758   1.008   3.917 -0.7509 -0.1736 -0.0838
   68CHL1  H21A 6191   1.835   0.988   3.840 -0.5227 -0.5302  0.2316
   68CHL1  H21B 6192   1.738   0.910   3.965  1.8159 -1.0349 -0.6094
   68CHL1  H21C 6193   1.796   1.078   3.995  1.9857 -0.4532 -1.0499
   68CHL1   C22 6194   1.520   1.065   3.969  0.3125 -0.5172 -0.7598
   68CHL1  H22A 6195   1.433   1.113   3.920  0.6133  1.2080  0.2830
   68CHL1  H22B 6196   1.505   0.963   4.010 -0.2096 -0.4036 -0.6640
   68CHL1   C23 6197   1.553   1.156   4.091 -0.0751  0.1320  0.0438
   68CHL1  H23A 6198   1.639   1.115   4.148  1.1330 -2.1102 -3.1277
   68CHL1  H23B 6199   1.595   1.249   4.048 -0.6653  0.7963  0.8674
   68CHL1   C24 6200   1.430   1.191   4.174 -0.1274 -0.5680  0.0649
   68CHL1  H24A 6201   1.349   1.228   4.107  0.0826  0.0104  0.1251
   68CHL1  H24B 6202   1.401   1.099   4.230  2.4303 -2.3187 -1.2958
   68CHL1   C25 6203   1.463   1.300   4.283 -0.1069  0.7002 -0.0450
   68CHL1   H25 6204   1.368   1.326   4.334 -1.7607 -2.6142 -1.1186
   68CHL1   C26 6205   1.552   1.236   4.394 -0.4500  0.4156  0.3351
   68CHL1  H26A 6206   1.656   1.211   4.365 -0.7811 -0.5276 -0.0443
   68CHL1  H26B 6207   1.556   1.302   4.484  2.9468 -0.6887  1.1649
   68CHL1  H26C 6208   1.498   1.147   4.432 -1.8679  1.4811  0.9148
   68CHL1   C27 6209   1.522   1.431   4.220 -0.3303  0.2781 -0.0607
   68CHL1  H27A 6210   1.456   1.467   4.139 -0.4636  0.7379  0.2443
   68CHL1  H27B 6211   1.521   1.513   4.296 -0.8413 -0.6008  0.9129
   68CHL1  H27C 6212   1.622   1.412   4.175 -0.3597 -1.2696  0.4682
   69CHL1    C3 6213   4.156   1.855   2.863  0.1056  0.2158 -0.3749
   69CHL1    H3 6214   4.257   1.819   2.835  0.5735 -0.7650  2.2342
   69CHL1    O3 6215   4.080   1.854   2.747 -0.8293  0.3977 -0.0868
   69CHL1   H3' 6216   3.990   1.874   2.775 -0.5838 -1.2310  2.1326
   69CHL1    C4 6217   4.091   1.769   2.970 -0.4132  0.0959  0.0341
   69CHL1   H4A 6218   3.984   1.793   2.988 -0.1780 -0.2018  2.2157
   69CHL1   H4B 6219   4.077   1.663   2.939  0.5633 -0.4351  1.3067
   69CHL1    C5 6220   4.155   1.767   3.108  0.1652  0.3696  0.0729
   69CHL1    C6 6221   4.198   1.651   3.173 -0.1520  0.3851 -0.1934
   69CHL1    H6 6222   4.184   1.554   3.125  1.6616  0.8644 -1.8474
   69CHL1    C7 6223   4.253   1.643   3.313 -0.2488 -0.7176 -0.8678
   69CHL1   H7A 6224   4.191   1.575   3.375 -0.5121 -0.4862 -0.8768
   69CHL1   H7B 6225   4.360   1.614   3.310  0.2330  0.4053  2.2019
   69CHL1    C8 6226   4.245   1.785   3.383 -0.3535  0.2663 -0.6512
   69CHL1    H8 6227   4.139   1.799   3.413 -1.2478 -2.9493 -1.8812
   69CHL1   C14 6228   4.330   1.794   3.507  0.0811 -0.1966  0.2198
   69CHL1   H14 6229   4.432   1.758   3.478  0.7622  1.8816 -0.1622
   69CHL1   C15 6230   4.285   1.702   3.623 -0.5218 -0.5523  0.5274
   69CHL1  H15A 6231   4.176   1.727   3.626 -0.4164  0.8101 -2.8157
   69CHL1  H15B 6232   4.306   1.593   3.614  0.6815 -0.3640  0.9562
   69CHL1   C16 6233   4.365   1.757   3.738  0.2471 -0.4897 -0.6532
   69CHL1  H16A 6234   4.288   1.759   3.818 -1.6976 -0.2849 -2.4443
   69CHL1  H16B 6235   4.450   1.690   3.765 -0.0128 -0.1960  1.0101
   69CHL1   C17 6236   4.421   1.894   3.693  0.7875 -0.3002  0.5306
   69CHL1   H17 6237   4.523   1.864   3.662  0.9073  1.3021 -0.8007
   69CHL1   C13 6238   4.348   1.930   3.566  0.9882  0.4956 -0.7071
   69CHL1   C18 6239   4.205   1.986   3.607  0.0698 -0.4531  0.4990
   69CHL1  H18A 6240   4.133   1.977   3.523 -1.7158  1.8806  1.6223
   69CHL1  H18B 6241   4.164   1.958   3.707  2.9180 -0.8211  1.6553
   69CHL1  H18C 6242   4.223   2.096   3.608  0.6357 -0.5077 -1.3328
   69CHL1   C12 6243   4.412   2.015   3.462 -0.2597 -0.0958  0.4206
   69CHL1  H12A 6244   4.413   2.123   3.490  0.2973  0.9336 -3.0899
   69CHL1  H12B 6245   4.513   1.982   3.432 -1.3080 -1.5690 -1.7810
   69CHL1   C11 6246   4.320   2.031   3.337 -0.4953  0.8809 -0.4190
   69CHL1  H11A 6247   4.234   2.093   3.370 -1.5214 -1.5050  1.7332
   69CHL1  H11B 6248   4.375   2.091   3.261 -1.8481  2.6285 -0.0683
   69CHL1    C9 6249   4.278   1.894   3.281 -0.9537  0.3272 -0.5969
   69CHL1    H9 6250   4.370   1.852   3.233 -0.4779  2.2866 -1.4877
   69CHL1   C10 6251   4.181   1.906   3.157  0.5704 -0.1491 -0.7497
   69CHL1   C19 6252   4.043   1.969   3.211  0.0781  0.1210 -0.1245
   69CHL1  H19A 6253   3.998   1.907   3.292 -1.1043 -0.9562 -1.5556
   69CHL1  H19B 6254   4.047   2.072   3.252 -2.3290  0.9466 -1.7525
   69CHL1  H19C 6255   3.972   1.972   3.127 -0.4336 -0.8716  0.2529
   69CHL1    C1 6256   4.243   1.998   3.053  0.1408 -0.2798 -0.2247
   69CHL1   H1A 6257   4.247   2.103   3.090  1.3318 -0.2056 -0.5291
   69CHL1   H1B 6258   4.347   1.960   3.042 -0.9191 -2.8396 -2.6044
   69CHL1    C2 6259   4.170   1.993   2.914 -0.0094 -0.1868 -0.4159
   69CHL1   H2A 6260   4.226   2.046   2.833 -0.1236  0.9441  0.2215
   69CHL1   H2B 6261   4.067   2.032   2.932 -0.6091 -0.9228 -2.0242
   69CHL1   C20 6262   4.420   1.997   3.811 -0.0235 -0.4188  0.3194
   69CHL1   H20 6263   4.322   2.030   3.852  0.6478  1.9119  0.2094
   69CHL1   C21 6264   4.500   2.124   3.772  0.3237  0.2838 -0.2196
   69CHL1  H21A 6265   4.521   2.188   3.861 -2.7851  0.0890  0.7849
   69CHL1  H21B 6266   4.439   2.189   3.706 -0.2048  0.0647  0.0458
   69CHL1  H21C 6267   4.590   2.087   3.719 -0.2703  0.0854 -1.1096
   69CHL1   C22 6268   4.484   1.932   3.941  0.2375  0.4638 -0.7543
   69CHL1  H22A 6269   4.445   1.831   3.963  0.7115  0.5642  0.6592
   69CHL1  H22B 6270   4.593   1.916   3.928  0.1693 -0.0023 -0.7781
   69CHL1   C23 6271   4.460   2.004   4.073  0.3254 -0.2179 -0.1683
   69CHL1  H23A 6272   4.508   2.104   4.075  0.6709 -0.3925  1.0687
   69CHL1  H23B 6273   4.352   2.029   4.074  0.6146  2.1618 -4.5182
   69CHL1   C24 6274   4.487   1.911   4.196 -0.3228  0.5222  0.7992
   69CHL1  H24A 6275   4.406   1.836   4.205  0.0092  0.1799  0.9606
   69CHL1  H24B 6276   4.577   1.848   4.185 -3.3095 -4.1529  0.4919
   69CHL1   C25 6277   4.480   1.987   4.333 -0.2081  0.4110  0.3167
   69CHL1   H25 6278   4.389   2.051   4.323 -0.9311 -0.5346  0.6539
   69CHL1   C26 6279   4.454   1.889   4.458  0.2017  0.3308 -0.3550
   69CHL1  H26A 6280   4.344   1.883   4.476 -0.0125 -1.7609 -1.9264
   69CHL1  H26B 6281   4.490   1.790   4.425  0.2191  0.5558 -1.0371
   69CHL1  H26C 6282   4.509   1.931   4.545  1.6960  2.2251 -2.1046
   69CHL1   C27 6283   4.606   2.072   4.351 -1.1258  0.2574  0.2057
   69CHL1  H27A 6284   4.681   2.001   4.391 -0.1441  0.5667 -1.0137
   69CHL1  H27B 6285   4.659   2.111   4.261 -1.4044  0.5306  0.1582
   69CHL1  H27C 6286   4.570   2.155   4.416 -0.4600  1.5462 -1.0125
   70CHL1    C3 6287   0.765   4.373   2.856 -0.6642 -0.1726  0.0545
   70CHL1    H3 6288   0.876   4.372   2.858 -0.5916 -1.6059 -1.7891
   70CHL1    O3 6289   0.725   4.390   2.722  0.4741  1.0382 -0.5964
   70CHL1   H3' 6290   0.631   4.369   2.722  1.0687 -2.3680  0.7349
   70CHL1    C4 6291   0.715   4.238   2.907  0.3576  0.6866 -0.5567
   70CHL1   H4A 6292   0.606   4.218   2.903  0.1947  1.4795 -0.0734
   70CHL1   H4B 6293   0.762   4.155   2.849 -0.5402 -2.1347  2.4149
   70CHL1    C5 6294   0.758   4.223   3.047  0.7444  0.3080 -0.7035
   70CHL1    C6 6295   0.830   4.121   3.085 -0.8647  1.2160  0.5407
   70CHL1    H6 6296   0.857   4.038   3.019 -2.5767 -0.0472  1.3472
   70CHL1    C7 6297   0.874   4.094   3.230 -0.3414  0.2379  0.6164
   70CHL1   H7A 6298   0.859   3.989   3.262 -2.4081  0.6263  1.0671
   70CHL1   H7B 6299   0.981   4.116   3.251  0.2495 -0.2038 -1.6387
   70CHL1    C8 6300   0.800   4.172   3.333 -0.3013  0.3428 -0.5197
   70CHL1    H8 6301   0.703   4.122   3.354  0.2087 -0.4589 -0.0031
   70CHL1   C14 6302   0.884   4.183   3.460 -0.6804 -0.1077 -0.5994
   70CHL1   H14 6303   0.976   4.241   3.437 -0.1409 -0.8070 -0.2686
   70CHL1   C15 6304   0.927   4.044   3.512 -0.7602  0.9236  0.0875
   70CHL1  H15A 6305   0.852   3.963   3.503 -0.0317  0.2145  0.1985
   70CHL1  H15B 6306   1.013   3.994   3.460 -0.6415 -0.5028  1.5741
   70CHL1   C16 6307   0.962   4.072   3.655 -0.0252  0.6871 -0.3221
   70CHL1  H16A 6308   0.904   4.002   3.719 -0.8635  0.0586 -1.7320
   70CHL1  H16B 6309   1.069   4.055   3.679 -0.3203 -2.6987 -1.0206
   70CHL1   C17 6310   0.929   4.215   3.682 -0.6562 -0.3377 -0.4970
   70CHL1   H17 6311   1.018   4.274   3.651  0.0184 -0.7835  0.5156
   70CHL1   C13 6312   0.820   4.250   3.580  0.1463 -0.5902  0.0090
   70CHL1   C18 6313   0.689   4.178   3.614  0.5344  0.2977  0.1443
   70CHL1  H18A 6314   0.707   4.070   3.636  0.9718  0.2464 -0.4304
   70CHL1  H18B 6315   0.647   4.215   3.709 -0.2038 -2.1220  0.8288
   70CHL1  H18C 6316   0.619   4.191   3.529  1.6415 -0.3583 -0.9113
   70CHL1   C12 6317   0.796   4.400   3.548 -0.8076 -0.4526  1.1107
   70CHL1  H12A 6318   0.756   4.466   3.627  0.1184  3.6115 -1.4826
   70CHL1  H12B 6319   0.899   4.439   3.532 -1.4417  0.7121 -0.3245
   70CHL1   C11 6320   0.723   4.412   3.414  0.0931 -0.0670  0.5378
   70CHL1  H11A 6321   0.616   4.392   3.437  0.2404  0.2866  1.5514
   70CHL1  H11B 6322   0.723   4.519   3.384 -0.0210  0.2029  1.4878
   70CHL1    C9 6323   0.788   4.323   3.295 -0.1580  1.1741  0.0914
   70CHL1    H9 6324   0.889   4.365   3.273  0.0373 -0.3616 -2.3747
   70CHL1   C10 6325   0.716   4.329   3.153 -0.6703  0.2331  0.5090
   70CHL1   C19 6326   0.562   4.306   3.162 -0.3105 -0.4186 -0.8184
   70CHL1  H19A 6327   0.516   4.389   3.220 -1.2122 -0.8225 -0.9417
   70CHL1  H19B 6328   0.508   4.310   3.065 -1.2951  1.1523 -0.2544
   70CHL1  H19C 6329   0.545   4.219   3.228  0.6366 -0.0576 -0.0790
   70CHL1    C1 6330   0.746   4.470   3.093 -0.5825  0.1098 -0.0992
   70CHL1   H1A 6331   0.691   4.551   3.144  0.1570  1.6373 -1.6138
   70CHL1   H1B 6332   0.856   4.489   3.093 -0.1002 -2.2367 -1.3326
   70CHL1    C2 6333   0.705   4.485   2.942 -0.5210 -0.5605 -0.4958
   70CHL1   H2A 6334   0.733   4.587   2.909 -3.3049  0.6829  0.6208
   70CHL1   H2B 6335   0.595   4.477   2.927 -0.5110 -0.6443 -0.5291
   70CHL1   C20 6336   0.896   4.244   3.826 -0.0426  0.6388 -0.4624
   70CHL1   H20 6337   0.795   4.204   3.851  1.1568 -2.2840  0.0978
   70CHL1   C21 6338   0.901   4.398   3.858 -0.1910 -0.9197  0.5240
   70CHL1  H21A 6339   0.912   4.409   3.968 -0.1228  1.4916  0.3215
   70CHL1  H21B 6340   0.809   4.445   3.819  1.2661  0.2021 -1.7947
   70CHL1  H21C 6341   0.984   4.442   3.798 -0.8188 -0.4904 -0.0496
   70CHL1   C22 6342   0.988   4.168   3.925  0.0811 -0.2118 -0.0553
   70CHL1  H22A 6343   0.948   4.064   3.915 -0.6799  0.2352 -2.1685
   70CHL1  H22B 6344   1.094   4.182   3.897  0.2766 -1.6424 -0.1041
   70CHL1   C23 6345   0.982   4.216   4.074  0.0355  0.4187  0.7946
   70CHL1  H23A 6346   1.034   4.315   4.081 -1.2450  1.0838  1.1704
   70CHL1  H23B 6347   0.878   4.221   4.111  0.6458  1.5181  2.5118
   70CHL1   C24 6348   1.054   4.128   4.171  0.6236 -0.1859 -0.1574
   70CHL1  H24A 6349   1.012   4.026   4.185  1.0507 -0.1243  2.0221
   70CHL1  H24B 6350   1.159   4.102   4.144 -0.0942 -3.8135  0.0239
   70CHL1   C25 6351   1.041   4.189   4.316  0.5924 -0.2286  0.2649
   70CHL1   H25 6352   0.937   4.227   4.325  0.8166  0.0974  1.6910
   70CHL1   C26 6353   1.060   4.080   4.429 -0.4598  0.0609 -0.4688
   70CHL1  H26A 6354   1.147   4.017   4.401 -0.6967 -0.8234  0.6993
   70CHL1  H26B 6355   1.092   4.127   4.525 -2.2511  1.8163 -0.6691
   70CHL1  H26C 6356   0.982   4.000   4.433  0.0061 -0.3795  2.5214
   70CHL1   C27 6357   1.137   4.306   4.341  0.8624 -0.0079 -0.3593
   70CHL1  H27A 6358   1.139   4.373   4.252  0.3955  1.8955  0.9953
   70CHL1  H27B 6359   1.098   4.376   4.418 -1.5329 -0.7585 -0.7917
   70CHL1  H27C 6360   1.240   4.276   4.370  0.7385  0.1431  0.2578
   71CHL1    C3 6361   6.492   1.156   2.822  0.0105 -0.0662  0.3142
   71CHL1    H3 6362   6.390   1.163   2.867  0.0165  1.2261  0.1699
   71CHL1    O3 6363   6.482   1.151   2.682 -0.3089 -0.1964  0.0428
   71CHL1   H3' 6364   6.527   1.231   2.654  0.6966 -1.1253 -1.0926
   71CHL1    C4 6365   6.557   1.286   2.855  0.1072 -0.0790 -0.6111
   71CHL1   H4A 6366   6.663   1.276   2.821  0.0591 -1.4050 -0.4083
   71CHL1   H4B 6367   6.505   1.369   2.803 -0.5201  1.5469  2.3696
   71CHL1    C5 6368   6.562   1.306   3.009 -0.0806 -0.1481 -0.9951
   71CHL1    C6 6369   6.511   1.410   3.076 -0.0537  1.0350  0.1697
   71CHL1    H6 6370   6.458   1.494   3.028 -1.5860  0.1760  0.3123
   71CHL1    C7 6371   6.515   1.411   3.228  0.2307 -0.7952  0.3521
   71CHL1   H7A 6372   6.553   1.506   3.271 -1.3313 -0.1008  0.2637
   71CHL1   H7B 6373   6.410   1.409   3.262  0.9740  1.0094  3.0663
   71CHL1    C8 6374   6.607   1.312   3.296  0.1178  0.6081  0.2513
   71CHL1    H8 6375   6.711   1.349   3.286 -0.0726  1.6722  1.8425
   71CHL1   C14 6376   6.576   1.304   3.444  0.1890  0.3838  0.3581
   71CHL1   H14 6377   6.479   1.251   3.456  0.7360 -0.9382 -0.7550
   71CHL1   C15 6378   6.551   1.435   3.514  0.2269  0.3435 -0.1907
   71CHL1  H15A 6379   6.624   1.515   3.488  0.4344 -0.2753 -1.6435
   71CHL1  H15B 6380   6.448   1.473   3.497  0.1048  0.2886  0.4363
   71CHL1   C16 6381   6.570   1.392   3.666 -0.6918  0.0403 -0.1900
   71CHL1  H16A 6382   6.646   1.462   3.706 -0.7050  0.9740 -1.7120
   71CHL1  H16B 6383   6.477   1.391   3.727  0.2605  1.0491  1.3136
   71CHL1   C17 6384   6.630   1.244   3.667  0.1465 -0.0913  0.4021
   71CHL1   H17 6385   6.553   1.165   3.678 -1.2707  1.3063  0.8123
   71CHL1   C13 6386   6.679   1.224   3.523 -0.2047  0.5678  0.1045
   71CHL1   C18 6387   6.819   1.282   3.508 -0.1609 -0.0693 -0.0603
   71CHL1  H18A 6388   6.846   1.277   3.400 -0.5934 -0.4478 -0.1514
   71CHL1  H18B 6389   6.816   1.388   3.543  0.0028 -1.0350  3.1800
   71CHL1  H18C 6390   6.893   1.219   3.561 -0.1108  0.4857  0.5543
   71CHL1   C12 6391   6.671   1.073   3.472  0.7244  0.2931  0.6811
   71CHL1  H12A 6392   6.749   1.009   3.518  0.3241 -1.6473 -1.2310
   71CHL1  H12B 6393   6.570   1.040   3.505  0.4567  2.4486  2.3207
   71CHL1   C11 6394   6.681   1.068   3.318  0.0718  0.4128 -0.2932
   71CHL1  H11A 6395   6.791   1.075   3.304  0.5901 -1.4347  2.1807
   71CHL1  H11B 6396   6.635   0.972   3.288 -4.2590  1.0089  3.2692
   71CHL1    C9 6397   6.599   1.170   3.240 -0.0626  0.0044 -0.1083
   71CHL1    H9 6398   6.492   1.149   3.264  0.2404 -0.8001  0.5393
   71CHL1   C10 6399   6.620   1.174   3.082 -1.0997  0.2667  0.8578
   71CHL1   C19 6400   6.776   1.166   3.065  0.7885 -0.2361  0.1331
   71CHL1  H19A 6401   6.804   1.173   2.958  0.5737 -1.6368 -0.0297
   71CHL1  H19B 6402   6.818   1.253   3.120 -1.3986 -0.1787  1.8274
   71CHL1  H19C 6403   6.818   1.070   3.101 -0.4149 -0.8445 -0.0571
   71CHL1    C1 6404   6.555   1.047   3.028 -0.1477  0.0039  0.1709
   71CHL1   H1A 6405   6.601   0.954   3.070 -0.5448 -1.1149 -1.7533
   71CHL1   H1B 6406   6.452   1.061   3.068  0.4970  2.7403  1.0747
   71CHL1    C2 6407   6.565   1.030   2.876  0.4388 -0.1575  0.2677
   71CHL1   H2A 6408   6.516   0.938   2.839  1.0436  0.5732 -2.5660
   71CHL1   H2B 6409   6.670   1.031   2.840  0.0783 -0.7468 -0.8408
   71CHL1   C20 6410   6.735   1.223   3.785  0.3644 -0.7085 -0.2367
   71CHL1   H20 6411   6.816   1.297   3.770  0.2349 -0.6826 -0.8081
   71CHL1   C21 6412   6.793   1.081   3.793 -0.1106  0.0458  0.1583
   71CHL1  H21A 6413   6.848   1.055   3.886 -0.8977  1.4407  1.0438
   71CHL1  H21B 6414   6.874   1.067   3.717  0.0374  0.5096  0.2277
   71CHL1  H21C 6415   6.720   1.006   3.757  0.3940  0.2172 -1.3052
   71CHL1   C22 6416   6.684   1.269   3.927  0.1071 -0.6565 -0.4734
   71CHL1  H22A 6417   6.772   1.278   3.994  1.7770 -1.5486 -2.4519
   71CHL1  H22B 6418   6.641   1.371   3.916 -0.2980 -0.7892 -0.1243
   71CHL1   C23 6419   6.595   1.161   3.999  0.1354  0.2274  0.2507
   71CHL1  H23A 6420   6.510   1.140   3.930  0.5105  0.0138 -0.1553
   71CHL1  H23B 6421   6.666   1.081   4.029 -1.8824 -0.6296  3.2791
   71CHL1   C24 6422   6.524   1.222   4.124 -0.2939  0.4954  0.0692
   71CHL1  H24A 6423   6.601   1.286   4.173 -1.6230  1.2995  1.1593
   71CHL1  H24B 6424   6.446   1.287   4.080  0.2864 -0.1680 -2.0675
   71CHL1   C25 6425   6.463   1.120   4.222  0.2728  0.4241 -0.3781
   71CHL1   H25 6426   6.540   1.086   4.295 -0.4015 -0.1651  0.0702
   71CHL1   C26 6427   6.359   1.187   4.307 -0.2332  0.4673 -0.1380
   71CHL1  H26A 6428   6.400   1.242   4.396  0.9362  1.3916 -1.2057
   71CHL1  H26B 6429   6.318   1.269   4.245  0.2498  0.1588 -0.8724
   71CHL1  H26C 6430   6.268   1.132   4.337  0.0109 -0.1286 -0.4890
   71CHL1   C27 6431   6.395   1.004   4.152 -0.0049  0.3184 -0.4981
   71CHL1  H27A 6432   6.469   0.945   4.095  0.8841 -1.3289  2.1514
   71CHL1  H27B 6433   6.351   0.950   4.239  0.2995  1.6636  0.5346
   71CHL1  H27C 6434   6.316   1.041   4.084  0.7242  1.3473 -0.8088
   72CHL1    C3 6435   5.850   6.645   2.907 -0.1515 -0.0304 -0.1349
   72CHL1    H3 6436   5.885   6.540   2.902 -0.8115 -0.3064  0.6789
   72CHL1    O3 6437   5.743   6.660   2.805 -0.5067 -0.5837  0.2267
   72CHL1   H3' 6438   5.760   6.746   2.765 -3.9657 -0.2039 -0.8021
   72CHL1    C4 6439   5.792   6.683   3.049  0.3323  0.6083  0.4404
   72CHL1   H4A 6440   5.763   6.790   3.041 -1.5147  0.1362  0.4060
   72CHL1   H4B 6441   5.693   6.633   3.056  0.9899 -0.6616  0.9582
   72CHL1    C5 6442   5.893   6.658   3.157  0.4470  0.0318 -0.3247
   72CHL1    C6 6443   5.861   6.573   3.258  0.2007 -0.4056  0.7987
   72CHL1    H6 6444   5.764   6.523   3.267 -0.8776  1.2403 -0.9268
   72CHL1    C7 6445   5.949   6.550   3.374  0.1009 -0.4813  0.5147
   72CHL1   H7A 6446   5.898   6.551   3.473 -3.4767 -1.6353 -1.1295
   72CHL1   H7B 6447   6.007   6.457   3.363 -0.7501 -1.1697  1.6342
   72CHL1    C8 6448   6.073   6.652   3.379  0.8429 -0.1959  0.0833
   72CHL1    H8 6449   6.037   6.744   3.431  0.8179 -1.9584  3.4581
   72CHL1   C14 6450   6.189   6.605   3.467  0.2791  0.1035  0.7530
   72CHL1   H14 6451   6.235   6.514   3.423 -0.7024 -0.4804  0.9130
   72CHL1   C15 6452   6.155   6.564   3.608 -0.0337 -0.2856  0.5213
   72CHL1  H15A 6453   6.078   6.628   3.654 -1.3304 -0.3241 -1.4799
   72CHL1  H15B 6454   6.105   6.465   3.615 -1.6129  0.4183 -0.2964
   72CHL1   C16 6455   6.289   6.557   3.678 -0.2720  0.0044  0.4089
   72CHL1  H16A 6456   6.278   6.618   3.771 -0.9660  1.0241 -0.3208
   72CHL1  H16B 6457   6.325   6.453   3.689 -0.3109  0.0640  1.2038
   72CHL1   C17 6458   6.388   6.631   3.583 -0.0427 -0.4256  0.6125
   72CHL1   H17 6459   6.444   6.551   3.530 -0.7251  1.0635 -2.6131
   72CHL1   C13 6460   6.303   6.708   3.470 -0.0318 -0.6165  0.3107
   72CHL1   C18 6461   6.263   6.846   3.534 -0.4476 -0.1609  0.4886
   72CHL1  H18A 6462   6.234   6.833   3.640  3.4747  0.6258  1.8328
   72CHL1  H18B 6463   6.349   6.917   3.530 -1.6062  1.2322 -1.3647
   72CHL1  H18C 6464   6.185   6.895   3.471  0.4737  0.2364 -0.3840
   72CHL1   C12 6465   6.360   6.722   3.325 -0.3622 -0.1564  0.0407
   72CHL1  H12A 6466   6.449   6.786   3.342  0.1806 -1.1751  1.2626
   72CHL1  H12B 6467   6.396   6.620   3.300  0.4897  0.0648  0.3632
   72CHL1   C11 6468   6.257   6.771   3.233 -0.0770  0.2264  0.5164
   72CHL1  H11A 6469   6.224   6.873   3.265  1.5740  0.9251  0.0795
   72CHL1  H11B 6470   6.291   6.788   3.129  0.2603  1.2435  0.7794
   72CHL1    C9 6471   6.126   6.681   3.237 -0.5085  0.1296 -0.4295
   72CHL1    H9 6472   6.154   6.584   3.191 -1.9982  0.4368 -2.1055
   72CHL1   C10 6473   6.025   6.738   3.148  0.0157 -0.1912  0.6713
   72CHL1   C19 6474   5.991   6.883   3.181  0.1900 -0.0064 -0.5433
   72CHL1  H19A 6475   5.981   6.898   3.290  1.7275  0.1936 -0.4104
   72CHL1  H19B 6476   6.064   6.960   3.147 -2.3976  2.5474 -0.7340
   72CHL1  H19C 6477   5.891   6.920   3.147 -0.0944  2.6074  2.5906
   72CHL1    C1 6478   6.075   6.732   2.996 -0.2926  0.1710  0.1554
   72CHL1   H1A 6479   6.156   6.807   2.979 -0.4129 -0.2438 -2.9052
   72CHL1   H1B 6480   6.109   6.627   2.988 -0.0241  0.3426 -1.4415
   72CHL1    C2 6481   5.969   6.741   2.888 -0.6987  0.4661 -0.1398
   72CHL1   H2A 6482   6.029   6.722   2.796  0.5807  0.5252  0.6502
   72CHL1   H2B 6483   5.927   6.844   2.883  2.7809  1.9875 -1.9403
   72CHL1   C20 6484   6.494   6.718   3.650 -0.3276  0.6172 -0.4507
   72CHL1   H20 6485   6.454   6.818   3.676  0.6974  0.9594 -0.1473
   72CHL1   C21 6486   6.606   6.739   3.543  0.0812 -0.3653  0.1768
   72CHL1  H21A 6487   6.709   6.717   3.577 -0.2033 -0.4384  1.0046
   72CHL1  H21B 6488   6.599   6.843   3.504 -0.0467 -0.9943 -1.5879
   72CHL1  H21C 6489   6.598   6.662   3.463  2.4932  0.9824 -1.4925
   72CHL1   C22 6490   6.561   6.653   3.771 -0.3891 -0.8727 -0.5983
   72CHL1  H22A 6491   6.482   6.618   3.841 -1.1406  1.0318 -0.4494
   72CHL1  H22B 6492   6.624   6.565   3.746 -1.2974 -1.2319 -1.7204
   72CHL1   C23 6493   6.653   6.754   3.851  1.1885  0.1468 -0.4142
   72CHL1  H23A 6494   6.714   6.690   3.919  1.4232 -0.0397 -0.7953
   72CHL1  H23B 6495   6.714   6.816   3.782 -1.5694  2.0740 -1.2837
   72CHL1   C24 6496   6.568   6.852   3.925  0.3595  0.0512 -0.3242
   72CHL1  H24A 6497   6.542   6.935   3.856 -0.7758 -0.1500 -0.1496
   72CHL1  H24B 6498   6.481   6.811   3.980  1.2383  1.4033  2.2577
   72CHL1   C25 6499   6.648   6.921   4.040 -0.2738  0.0320  0.4763
   72CHL1   H25 6500   6.671   6.840   4.113 -1.7176  1.2556  2.3846
   72CHL1   C26 6501   6.780   6.982   3.992  0.7617  0.0619  0.3967
   72CHL1  H26A 6502   6.820   7.045   4.075 -0.0678  0.2102  0.7013
   72CHL1  H26B 6503   6.853   6.907   3.956  0.0835 -0.3819 -0.0705
   72CHL1  H26C 6504   6.755   7.042   3.902  0.2732 -0.0304  0.4643
   72CHL1   C27 6505   6.573   7.022   4.123  0.1043  0.2052 -0.3914
   72CHL1  H27A 6506   6.483   6.972   4.167 -1.5964  2.2254 -1.4128
   72CHL1  H27B 6507   6.633   7.058   4.209 -0.4967  0.8965 -0.2555
   72CHL1  H27C 6508   6.543   7.114   4.070  1.1740  0.5048 -0.4770
   73CHL1    C3 6509   0.416   1.349   2.928 -0.0297 -0.4794  0.6942
   73CHL1    H3 6510   0.527   1.353   2.930 -0.0652  0.9060  2.7112
   73CHL1    O3 6511   0.366   1.366   2.796  0.1318 -0.0714 -0.2824
   73CHL1   H3' 6512   0.412   1.300   2.744  0.0987  0.8169 -1.4653
   73CHL1    C4 6513   0.382   1.203   2.975 -0.0584  0.8365 -0.4913
   73CHL1   H4A 6514   0.277   1.167   2.968 -0.0299 -0.1386  2.5426
   73CHL1   H4B 6515   0.433   1.142   2.897  1.2776 -1.5804  2.1015
   73CHL1    C5 6516   0.427   1.174   3.120 -0.1689 -0.5143  0.7381
   73CHL1    C6 6517   0.502   1.070   3.150 -0.9041 -0.4328  0.5039
   73CHL1    H6 6518   0.537   0.997   3.075  0.6405 -2.5256  3.0718
   73CHL1    C7 6519   0.545   1.033   3.289 -0.2394  0.0093  0.1005
   73CHL1   H7A 6520   0.521   0.927   3.313 -0.4745 -0.0475 -0.3646
   73CHL1   H7B 6521   0.654   1.045   3.303 -0.3634  0.6584  0.5768
   73CHL1    C8 6522   0.464   1.115   3.393 -0.8591  0.1779  0.3317
   73CHL1    H8 6523   0.360   1.075   3.395 -0.5857 -0.7440 -1.7153
   73CHL1   C14 6524   0.529   1.104   3.529  1.3563  0.6384  0.3981
   73CHL1   H14 6525   0.636   1.132   3.518  1.3142 -0.0427 -2.3653
   73CHL1   C15 6526   0.531   0.968   3.596 -0.3484  0.0734  0.4163
   73CHL1  H15A 6527   0.440   0.904   3.589 -0.8125  0.7642 -0.0061
   73CHL1  H15B 6528   0.614   0.901   3.566 -0.1627  0.9207 -1.0305
   73CHL1   C16 6529   0.558   0.993   3.742 -0.0360 -0.3392 -0.2520
   73CHL1  H16A 6530   0.475   0.952   3.804  0.0649 -0.5569 -0.2601
   73CHL1  H16B 6531   0.655   0.955   3.782 -0.1821  2.3685  3.1825
   73CHL1   C17 6532   0.559   1.154   3.763  0.7740  0.6238  0.5546
   73CHL1   H17 6533   0.664   1.184   3.743  1.0106 -0.1859  0.5408
   73CHL1   C13 6534   0.470   1.195   3.640 -0.4971 -0.6772  0.2187
   73CHL1   C18 6535   0.324   1.162   3.671 -0.0579  0.1166 -0.1081
   73CHL1  H18A 6536   0.276   1.250   3.720 -1.0036 -0.6239  0.3239
   73CHL1  H18B 6537   0.272   1.127   3.580 -0.3737  1.0800 -0.3087
   73CHL1  H18C 6538   0.327   1.075   3.741 -0.6845 -0.5305 -0.8652
   73CHL1   C12 6539   0.476   1.340   3.598 -0.7141  0.1194  0.6219
   73CHL1  H12A 6540   0.444   1.409   3.679  0.2718  2.3242 -0.7832
   73CHL1  H12B 6541   0.583   1.363   3.578 -0.4960 -1.0694  0.3507
   73CHL1   C11 6542   0.405   1.358   3.464  0.0595 -0.4572 -0.0025
   73CHL1  H11A 6543   0.296   1.344   3.483 -0.2714  0.1280 -1.3590
   73CHL1  H11B 6544   0.422   1.465   3.438  1.4483 -0.8436 -0.7508
   73CHL1    C9 6545   0.456   1.268   3.354 -0.2571  0.8723 -0.2569
   73CHL1    H9 6546   0.564   1.295   3.354 -0.1820  0.5855  0.0186
   73CHL1   C10 6547   0.381   1.291   3.217 -0.5378  0.0170  0.2146
   73CHL1   C19 6548   0.230   1.284   3.238  0.5911 -0.0434  0.7071
   73CHL1  H19A 6549   0.168   1.290   3.145 -1.4981 -0.8289  1.9809
   73CHL1  H19B 6550   0.200   1.188   3.284 -0.1060  1.1315  2.8470
   73CHL1  H19C 6551   0.194   1.366   3.304  0.3884  1.2566 -0.9301
   73CHL1    C1 6552   0.422   1.425   3.165  0.4499 -0.0063  0.4835
   73CHL1   H1A 6553   0.381   1.501   3.235  0.0346 -1.4626  1.8929
   73CHL1   H1B 6554   0.533   1.430   3.169  0.5994  0.3657 -2.2482
   73CHL1    C2 6555   0.366   1.453   3.022  0.5497  0.2365  0.2998
   73CHL1   H2A 6556   0.398   1.547   2.973  1.3669 -0.2784 -0.1821
   73CHL1   H2B 6557   0.255   1.448   3.018  0.5293 -0.8383  1.4861
   73CHL1   C20 6558   0.540   1.216   3.899  0.2874  0.5623  0.7130
   73CHL1   H20 6559   0.432   1.233   3.916  0.0777 -1.4819  1.6802
   73CHL1   C21 6560   0.625   1.346   3.904 -0.2315 -0.1839 -0.0085
   73CHL1  H21A 6561   0.729   1.308   3.902 -1.5406 -4.3157  0.9531
   73CHL1  H21B 6562   0.614   1.402   4.000 -4.0376  0.2556 -0.5278
   73CHL1  H21C 6563   0.603   1.426   3.831 -0.0293  0.0207  0.1536
   73CHL1   C22 6564   0.594   1.123   4.013  1.0248 -0.5715 -0.6583
   73CHL1  H22A 6565   0.518   1.043   4.031  1.0150 -0.5205 -0.4728
   73CHL1  H22B 6566   0.693   1.079   3.990  1.0021 -1.0188  0.0502
   73CHL1   C23 6567   0.621   1.190   4.149 -0.6914 -0.2810 -0.8713
   73CHL1  H23A 6568   0.722   1.236   4.140 -0.0432 -1.2310  1.1561
   73CHL1  H23B 6569   0.545   1.271   4.155 -2.1751 -1.6572 -0.6728
   73CHL1   C24 6570   0.595   1.103   4.270 -0.3612 -0.6352  0.0878
   73CHL1  H24A 6571   0.488   1.075   4.260 -0.7671  1.4934 -2.7428
   73CHL1  H24B 6572   0.657   1.013   4.249  0.0560 -0.1994 -0.5667
   73CHL1   C25 6573   0.597   1.171   4.409 -0.4247  0.4021 -0.1040
   73CHL1   H25 6574   0.552   1.106   4.487  0.5983  0.5147  0.6016
   73CHL1   C26 6575   0.738   1.203   4.450  0.0097 -0.1241  0.1804
   73CHL1  H26A 6576   0.785   1.260   4.367  0.7664 -2.0998 -0.8080
   73CHL1  H26B 6577   0.736   1.250   4.551 -0.1373  1.2511 -0.4315
   73CHL1  H26C 6578   0.785   1.104   4.462 -3.1741 -2.0505 -1.7769
   73CHL1   C27 6579   0.527   1.307   4.414  0.3732  0.2940  0.1883
   73CHL1  H27A 6580   0.570   1.391   4.357  1.3578 -1.9442 -2.5859
   73CHL1  H27B 6581   0.424   1.299   4.372  0.5986  2.0820 -0.7878
   73CHL1  H27C 6582   0.524   1.348   4.518  3.1133  0.7898  0.1255
   74CHL1    C3 6583   6.579   0.503   2.770 -0.5428  0.2815 -0.2527
   74CHL1    H3 6584   6.678   0.455   2.785 -1.2392 -0.6962  1.5183
   74CHL1    O3 6585   6.553   0.503   2.636 -0.5861  0.0603  0.2477
   74CHL1   H3' 6586   6.563   0.412   2.605  1.7719  0.4936 -0.4600
   74CHL1    C4 6587   6.463   0.428   2.843  0.0104  0.2535  0.1963
   74CHL1   H4A 6588   6.364   0.468   2.813  0.1660 -1.2210 -2.5223
   74CHL1   H4B 6589   6.465   0.323   2.806  1.3453  0.7160 -1.1609
   74CHL1    C5 6590   6.492   0.429   2.992  0.0627 -0.1152 -0.1487
   74CHL1    C6 6591   6.509   0.311   3.057  0.0421  0.4024 -0.5331
   74CHL1    H6 6592   6.493   0.215   3.005  0.7491 -1.6003  2.6995
   74CHL1    C7 6593   6.539   0.299   3.203  0.3499  0.2012 -0.7949
   74CHL1   H7A 6594   6.480   0.213   3.241 -2.0143  1.6515 -0.9400
   74CHL1   H7B 6595   6.645   0.266   3.203  1.0158  2.1570 -0.0303
   74CHL1    C8 6596   6.507   0.431   3.286 -0.4997  0.2426  0.2415
   74CHL1    H8 6597   6.398   0.450   3.295 -0.3527  1.4078 -0.2225
   74CHL1   C14 6598   6.572   0.421   3.428  0.3518  0.1465  0.6362
   74CHL1   H14 6599   6.680   0.407   3.404  0.2375 -2.4457  1.3506
   74CHL1   C15 6600   6.537   0.297   3.517  0.0365  0.1073 -0.4538
   74CHL1  H15A 6601   6.427   0.284   3.518  0.2145 -1.6242  0.4083
   74CHL1  H15B 6602   6.591   0.204   3.488 -1.5335 -1.2332  0.7414
   74CHL1   C16 6603   6.585   0.348   3.654 -0.3726  1.0455 -0.6840
   74CHL1  H16A 6604   6.496   0.327   3.717  0.3836 -1.9048 -0.4466
   74CHL1  H16B 6605   6.657   0.276   3.699 -0.4436  1.6708  0.4629
   74CHL1   C17 6606   6.626   0.503   3.639  0.2548  0.0845  0.5208
   74CHL1   H17 6607   6.736   0.509   3.623  0.3778 -0.6627  1.0228
   74CHL1   C13 6608   6.561   0.553   3.503  0.6008 -0.2177  0.3273
   74CHL1   C18 6609   6.414   0.589   3.539 -0.6022  0.2599  0.8629
   74CHL1  H18A 6610   6.420   0.689   3.588 -0.1748  0.0296  1.2965
   74CHL1  H18B 6611   6.339   0.582   3.458  0.1921  2.0184 -0.0856
   74CHL1  H18C 6612   6.382   0.513   3.613 -1.3890 -0.1578  0.0974
   74CHL1   C12 6613   6.626   0.665   3.429  0.0472  0.6507  0.0706
   74CHL1  H12A 6614   6.609   0.762   3.481  0.8668  0.8768 -0.0740
   74CHL1  H12B 6615   6.735   0.646   3.440 -0.2337 -1.5338 -0.4847
   74CHL1   C11 6616   6.580   0.683   3.287  0.5777 -0.2813  0.4992
   74CHL1  H11A 6617   6.485   0.737   3.305 -0.3727 -1.9532  0.6125
   74CHL1  H11B 6618   6.646   0.753   3.231 -1.8223  1.8104  0.1287
   74CHL1    C9 6619   6.563   0.555   3.206  0.1998  0.0985  0.5828
   74CHL1    H9 6620   6.670   0.529   3.194  0.1794  0.8478 -1.7916
   74CHL1   C10 6621   6.514   0.566   3.059  0.6598 -0.5245 -0.2867
   74CHL1   C19 6622   6.385   0.656   3.069 -0.1334 -0.2261  0.0461
   74CHL1  H19A 6623   6.399   0.759   3.108 -1.0937 -0.2212  0.4021
   74CHL1  H19B 6624   6.346   0.666   2.966  1.3991 -0.3645 -0.5849
   74CHL1  H19C 6625   6.308   0.602   3.128 -0.8296  2.4867  1.7731
   74CHL1    C1 6626   6.615   0.650   2.975 -1.0665 -0.0785  0.0274
   74CHL1   H1A 6627   6.610   0.756   3.007 -0.3041  1.0818 -3.2786
   74CHL1   H1B 6628   6.714   0.606   2.999 -0.4311 -0.3219 -2.7402
   74CHL1    C2 6629   6.591   0.648   2.826  0.2051 -0.1139  0.3922
   74CHL1   H2A 6630   6.673   0.708   2.780  0.5973 -1.5585 -0.9208
   74CHL1   H2B 6631   6.499   0.706   2.803  1.3846  1.5988 -0.2014
   74CHL1   C20 6632   6.597   0.582   3.769  0.1341 -0.4639 -0.5294
   74CHL1   H20 6633   6.489   0.587   3.794  0.2433 -0.3147 -0.0801
   74CHL1   C21 6634   6.644   0.734   3.764 -0.0079 -0.2175  0.4533
   74CHL1  H21A 6635   6.583   0.782   3.685  0.6135 -2.4861 -1.5180
   74CHL1  H21B 6636   6.748   0.748   3.726 -0.3005  0.3694 -0.1477
   74CHL1  H21C 6637   6.641   0.781   3.865  0.3065  1.2556 -0.1854
   74CHL1   C22 6638   6.675   0.513   3.885 -0.4483  0.8407  0.0631
   74CHL1  H22A 6639   6.646   0.406   3.898  0.9218  0.5067  0.5470
   74CHL1  H22B 6640   6.783   0.504   3.857 -0.6913 -1.6428 -0.3602
   74CHL1   C23 6641   6.670   0.589   4.020  0.0888  0.3421  0.1112
   74CHL1  H23A 6642   6.717   0.689   4.015  0.0174  0.3914  0.4255
   74CHL1  H23B 6643   6.564   0.600   4.053  0.1905 -0.8827  0.9136
   74CHL1   C24 6644   6.758   0.524   4.133 -0.7525  0.4283  0.7140
   74CHL1  H24A 6645   6.718   0.423   4.156  0.1710 -0.3239 -0.8708
   74CHL1  H24B 6646   6.864   0.519   4.102 -0.6940  1.6948  0.6512
   74CHL1   C25 6647   6.765   0.603   4.273 -0.6552 -0.6646  0.1780
   74CHL1   H25 6648   6.808   0.705   4.262  0.8331 -1.2788  0.1300
   74CHL1   C26 6649   6.623   0.620   4.339 -0.4887 -1.1974  0.3187
   74CHL1  H26A 6650   6.542   0.661   4.275  1.4160  0.9482 -0.8936
   74CHL1  H26B 6651   6.597   0.527   4.394  1.1105 -0.7620  1.9468
   74CHL1  H26C 6652   6.633   0.689   4.426 -0.8693 -1.7138  0.7828
   74CHL1   C27 6653   6.860   0.530   4.371 -0.2497 -0.2868 -0.3162
   74CHL1  H27A 6654   6.850   0.565   4.476 -3.6343 -2.0147  0.0781
   74CHL1  H27B 6655   6.834   0.422   4.367  0.8338 -0.5454 -0.8179
   74CHL1  H27C 6656   6.970   0.540   4.359 -0.1141 -1.7662 -0.6085
   75CHL1    C3 6657   0.511   6.387   2.953  0.6899 -0.1247  0.7155
   75CHL1    H3 6658   0.549   6.490   2.973 -0.1210 -0.0606  1.9950
   75CHL1    O3 6659   0.506   6.371   2.816  0.3219 -0.0512 -0.2211
   75CHL1   H3' 6660   0.506   6.275   2.818 -0.5406 -0.0840 -1.0799
   75CHL1    C4 6661   0.626   6.300   3.017  0.0710  0.3367  0.4068
   75CHL1   H4A 6662   0.597   6.198   2.984 -0.8146  0.5940  0.3842
   75CHL1   H4B 6663   0.721   6.323   2.963 -0.3689 -0.5428 -0.7879
   75CHL1    C5 6664   0.633   6.295   3.162 -0.2801 -0.2704  0.1716
   75CHL1    C6 6665   0.752   6.332   3.218  0.5297  0.6383 -0.4200
   75CHL1    H6 6666   0.837   6.355   3.152  1.7558  1.4797  1.3769
   75CHL1    C7 6667   0.777   6.324   3.369 -0.3457  0.1963  0.9590
   75CHL1   H7A 6668   0.879   6.289   3.394 -1.0373 -2.6194  0.2777
   75CHL1   H7B 6669   0.770   6.428   3.407  0.5016  0.0418  1.5614
   75CHL1    C8 6670   0.664   6.241   3.442 -0.2804 -0.2855  0.1237
   75CHL1    H8 6671   0.669   6.133   3.418 -1.8746  0.1154 -2.3295
   75CHL1   C14 6672   0.672   6.275   3.589  0.1602  0.1388  0.0615
   75CHL1   H14 6673   0.650   6.384   3.587  3.6427  0.9543 -0.0325
   75CHL1   C15 6674   0.807   6.269   3.663 -0.0563  0.2459  0.5757
   75CHL1  H15A 6675   0.861   6.174   3.639 -1.5366 -1.1457  2.3993
   75CHL1  H15B 6676   0.865   6.360   3.641  0.6830 -0.2353  0.5008
   75CHL1   C16 6677   0.768   6.261   3.809  0.2086  0.5312  0.1650
   75CHL1  H16A 6678   0.807   6.165   3.848 -0.6776  0.2108  0.2854
   75CHL1  H16B 6679   0.808   6.348   3.865 -1.2884  2.1137 -1.1018
   75CHL1   C17 6680   0.610   6.263   3.824 -0.0721  0.8918  0.7658
   75CHL1   H17 6681   0.581   6.370   3.819 -1.4761  0.5179  0.5005
   75CHL1   C13 6682   0.565   6.217   3.676  0.0256 -0.5506 -0.7666
   75CHL1   C18 6683   0.578   6.068   3.670 -0.2324 -0.5203  0.5975
   75CHL1  H18A 6684   0.595   6.033   3.566  0.8618  0.8902  0.2743
   75CHL1  H18B 6685   0.661   6.028   3.732 -0.5757 -0.8886  0.8264
   75CHL1  H18C 6686   0.484   6.026   3.712 -1.3176  0.7344 -0.4863
   75CHL1   C12 6687   0.425   6.263   3.631  0.7120 -0.4577  0.3821
   75CHL1  H12A 6688   0.352   6.202   3.688  1.0726  0.4274  1.8399
   75CHL1  H12B 6689   0.407   6.370   3.655  1.5755  1.1567 -4.8535
   75CHL1   C11 6690   0.407   6.238   3.478  0.4323 -0.7138 -0.4998
   75CHL1  H11A 6691   0.389   6.131   3.455  0.9511 -0.7338 -0.8326
   75CHL1  H11B 6692   0.317   6.301   3.459  0.7946  0.2511  0.7725
   75CHL1    C9 6693   0.526   6.287   3.390 -0.2179 -0.7136  0.7454
   75CHL1    H9 6694   0.523   6.396   3.410  0.9633 -0.6319  0.5301
   75CHL1   C10 6695   0.503   6.266   3.237 -0.3946 -0.0884 -0.2879
   75CHL1   C19 6696   0.482   6.120   3.207  0.5214 -0.2232 -0.1318
   75CHL1  H19A 6697   0.460   6.102   3.100  1.3777 -0.7761 -0.2207
   75CHL1  H19B 6698   0.566   6.053   3.234  0.8047  0.1727 -0.0187
   75CHL1  H19C 6699   0.394   6.086   3.266  0.0367 -0.2800 -0.8837
   75CHL1    C1 6700   0.392   6.353   3.175  0.0040 -0.1317 -0.0209
   75CHL1   H1A 6701   0.300   6.309   3.218  0.6448 -0.6941  0.8286
   75CHL1   H1B 6702   0.406   6.451   3.226 -1.3387  0.1390 -0.1532
   75CHL1    C2 6703   0.374   6.357   3.022  0.0471  0.2584  0.3989
   75CHL1   H2A 6704   0.312   6.439   2.982  1.4213  0.6984 -0.9244
   75CHL1   H2B 6705   0.329   6.256   3.008  1.3340 -0.3847  0.6838
   75CHL1   C20 6706   0.547   6.197   3.951  0.1319 -0.1776 -0.1497
   75CHL1   H20 6707   0.563   6.087   3.953  3.1086  0.1514  1.7850
   75CHL1   C21 6708   0.398   6.229   3.947 -0.7045  0.0201  0.2753
   75CHL1  H21A 6709   0.368   6.331   3.913 -0.3459  0.7869  2.1393
   75CHL1  H21B 6710   0.363   6.218   4.052 -2.2077 -0.4298 -0.2494
   75CHL1  H21C 6711   0.345   6.151   3.888  0.9117  0.0303 -1.2920
   75CHL1   C22 6712   0.609   6.251   4.083  0.6685  0.0478  0.5993
   75CHL1  H22A 6713   0.580   6.176   4.160  1.2813 -0.8745 -0.0377
   75CHL1  H22B 6714   0.720   6.244   4.079  0.5891 -0.7358 -1.6225
   75CHL1   C23 6715   0.580   6.402   4.113 -0.3185  0.2450 -0.4825
   75CHL1  H23A 6716   0.636   6.448   4.029 -1.9593 -1.5767 -2.6860
   75CHL1  H23B 6717   0.472   6.425   4.097 -1.1070 -1.9248  1.1785
   75CHL1   C24 6718   0.625   6.455   4.250 -0.4534 -0.1427  1.2090
   75CHL1  H24A 6719   0.736   6.460   4.259 -0.1167 -1.9409 -0.9251
   75CHL1  H24B 6720   0.586   6.559   4.243  0.1800  0.0797  0.9335
   75CHL1   C25 6721   0.571   6.376   4.373  0.0837 -0.7450  0.2141
   75CHL1   H25 6722   0.612   6.277   4.346 -0.1094 -1.0166  0.9070
   75CHL1   C26 6723   0.620   6.449   4.499  0.0938 -0.1724 -0.1234
   75CHL1  H26A 6724   0.584   6.554   4.507  0.0579 -0.2709  1.2506
   75CHL1  H26B 6725   0.594   6.384   4.585 -0.2878 -0.8096 -0.7120
   75CHL1  H26C 6726   0.731   6.452   4.500  0.0801  1.3327 -0.6599
   75CHL1   C27 6727   0.419   6.389   4.385  0.3532 -0.5920 -0.0713
   75CHL1  H27A 6728   0.368   6.337   4.469  0.2012 -1.1082 -0.4789
   75CHL1  H27B 6729   0.383   6.494   4.383  0.7591 -0.4439  0.2219
   75CHL1  H27C 6730   0.374   6.344   4.294 -0.0390 -2.6571  1.0661
   76CHL1    C3 6731   5.561   2.018   2.989 -0.6292  0.3721 -0.0206
   76CHL1    H3 6732   5.475   2.088   2.992  0.2064  1.3799  1.3146
   76CHL1    O3 6733   5.568   1.940   2.873 -0.0515  0.0042  0.4001
   76CHL1   H3' 6734   5.594   1.996   2.800  1.0086 -2.6852 -1.4802
   76CHL1    C4 6735   5.686   2.106   3.004 -0.1192  0.1374  0.3306
   76CHL1   H4A 6736   5.783   2.051   2.998  0.1022  0.4878  0.6814
   76CHL1   H4B 6737   5.677   2.186   2.927 -2.7715  0.4397  0.8559
   76CHL1    C5 6738   5.708   2.170   3.134  0.0728 -0.7350  0.0243
   76CHL1    C6 6739   5.735   2.302   3.144  0.7972  0.4228 -0.3163
   76CHL1    H6 6740   5.731   2.358   3.049 -0.1818 -0.5282 -0.8593
   76CHL1    C7 6741   5.773   2.372   3.275 -0.4837  0.5816  0.3938
   76CHL1   H7A 6742   5.854   2.447   3.259 -0.2828 -0.0300 -1.8357
   76CHL1   H7B 6743   5.683   2.421   3.316 -1.1142 -1.1118  1.1110
   76CHL1    C8 6744   5.802   2.275   3.388 -0.4593  0.5333  0.5721
   76CHL1    H8 6745   5.903   2.234   3.365 -2.0205 -2.1880 -2.2217
   76CHL1   C14 6746   5.791   2.350   3.526  0.0459  0.0857 -0.3315
   76CHL1   H14 6747   5.685   2.380   3.530 -0.1193 -0.5929  1.0152
   76CHL1   C15 6748   5.866   2.479   3.548  0.6176 -0.2211 -0.0491
   76CHL1  H15A 6749   5.968   2.473   3.503 -0.8801 -0.0397 -3.8332
   76CHL1  H15B 6750   5.816   2.564   3.498  1.3082  0.3675  0.2356
   76CHL1   C16 6751   5.869   2.501   3.701 -0.4177  0.1929  0.9373
   76CHL1  H16A 6752   5.977   2.508   3.727  0.5902 -0.4010 -2.5640
   76CHL1  H16B 6753   5.807   2.589   3.726 -1.0949  0.3040 -0.9712
   76CHL1   C17 6754   5.806   2.370   3.762 -0.2632  0.7943  0.0941
   76CHL1   H17 6755   5.698   2.394   3.772 -0.0922  1.6425 -0.0693
   76CHL1   C13 6756   5.815   2.260   3.654  0.2204  0.3344 -0.4549
   76CHL1   C18 6757   5.954   2.205   3.645  0.2243  0.2445  0.3098
   76CHL1  H18A 6758   5.983   2.136   3.727  0.5744 -3.0531 -2.3713
   76CHL1  H18B 6759   5.963   2.129   3.565 -2.2967  0.4354 -0.2535
   76CHL1  H18C 6760   6.032   2.279   3.618 -0.4560  0.9949  0.3598
   76CHL1   C12 6761   5.711   2.146   3.650 -0.6861 -0.0076  0.3388
   76CHL1  H12A 6762   5.717   2.082   3.741 -2.0341 -0.0491  0.4216
   76CHL1  H12B 6763   5.612   2.195   3.653 -1.5911 -1.4767 -2.4899
   76CHL1   C11 6764   5.722   2.062   3.524  0.2434  0.1224  1.2392
   76CHL1  H11A 6765   5.811   1.996   3.512 -0.6208 -0.7788 -0.6583
   76CHL1  H11B 6766   5.636   1.992   3.526  0.1125  0.2724  0.9517
   76CHL1    C9 6767   5.715   2.151   3.388  0.2972  0.2474  0.0306
   76CHL1    H9 6768   5.612   2.185   3.410  0.0781 -0.3375 -0.0667
   76CHL1   C10 6769   5.711   2.069   3.258 -0.8633  0.3206  0.4865
   76CHL1   C19 6770   5.831   1.970   3.253  0.1428  0.2792 -0.1746
   76CHL1  H19A 6771   5.817   1.888   3.326 -0.1123  0.7344  0.2928
   76CHL1  H19B 6772   5.838   1.915   3.157 -1.5970 -2.2777  1.0455
   76CHL1  H19C 6773   5.931   2.018   3.266  0.2617 -0.1950  0.7789
   76CHL1    C1 6774   5.582   1.980   3.243  0.2255  0.0374  0.0858
   76CHL1   H1A 6775   5.574   1.905   3.324  4.8259 -1.6083 -0.6656
   76CHL1   H1B 6776   5.499   2.051   3.264 -0.4490 -0.2674 -1.4249
   76CHL1    C2 6777   5.558   1.918   3.103  0.0107 -0.4023 -0.5575
   76CHL1   H2A 6778   5.459   1.869   3.099  0.1170 -0.5628 -4.4195
   76CHL1   H2B 6779   5.630   1.834   3.087  0.0074 -0.8646  1.4959
   76CHL1   C20 6780   5.864   2.345   3.903 -0.0709 -0.0701  0.1241
   76CHL1   H20 6781   5.968   2.306   3.892 -0.6038 -1.0576 -1.9871
   76CHL1   C21 6782   5.765   2.242   3.979  0.4142 -0.4497  1.1357
   76CHL1  H21A 6783   5.660   2.279   3.974  1.0624  1.3493 -0.9048
   76CHL1  H21B 6784   5.775   2.235   4.090 -2.3851 -0.8337  1.4547
   76CHL1  H21C 6785   5.784   2.141   3.938  2.7750  0.7742 -1.0531
   76CHL1   C22 6786   5.888   2.480   3.978 -0.1635  0.3995 -0.4726
   76CHL1  H22A 6787   5.957   2.544   3.918 -0.4998 -0.2586 -1.5993
   76CHL1  H22B 6788   5.788   2.527   3.986 -1.3281 -1.8546 -0.9512
   76CHL1   C23 6789   5.947   2.474   4.121 -0.9052  0.8250  0.6836
   76CHL1  H23A 6790   5.868   2.430   4.187 -0.3348 -0.7006  0.3954
   76CHL1  H23B 6791   6.026   2.397   4.106 -3.0669 -1.5027  0.4140
   76CHL1   C24 6792   6.004   2.607   4.183  0.4738 -1.0135 -1.2872
   76CHL1  H24A 6793   6.089   2.657   4.133  0.6385 -1.5292 -1.5362
   76CHL1  H24B 6794   5.911   2.667   4.184  0.1189 -1.4064  2.3502
   76CHL1   C25 6795   6.045   2.600   4.327 -0.3534  0.3695 -0.6385
   76CHL1   H25 6796   6.069   2.703   4.361 -0.3674  0.5174 -1.0758
   76CHL1   C26 6797   5.933   2.547   4.417 -0.0418 -0.7653 -0.5240
   76CHL1  H26A 6798   5.951   2.569   4.525  0.3165  1.3718 -0.9669
   76CHL1  H26B 6799   5.838   2.600   4.393 -1.2726 -2.2772  0.8166
   76CHL1  H26C 6800   5.913   2.438   4.418 -2.3243 -0.4097  1.6090
   76CHL1   C27 6801   6.174   2.520   4.344 -0.1323  0.3465  0.0606
   76CHL1  H27A 6802   6.164   2.410   4.334 -0.4887  0.5035 -1.4829
   76CHL1  H27B 6803   6.259   2.558   4.283  1.6180  0.0938  2.1856
   76CHL1  H27C 6804   6.211   2.538   4.447  1.3641 -0.1130 -0.3673
   77SOPE     N 6805   4.451   6.393   6.389 -0.2564  0.2318 -0.0496
   77SOPE   HN1 6806   4.505   6.405   6.301  2.6370 -1.6951  1.2964
   77SOPE   HN2 6807   4.408   6.486   6.410 -1.9896 -0.7210  0.7989
   77SOPE   HN3 6808   4.519   6.373   6.465 -1.1392  0.2856  0.7709
   77SOPE   C12 6809   4.347   6.277   6.388  0.0985 -1.2530  0.4288
   77SOPE  H12A 6810   4.277   6.294   6.304  0.7369 -0.0137  0.1255
   77SOPE  H12B 6811   4.283   6.290   6.479 -0.9527 -0.9348 -0.3343
   77SOPE   C11 6812   4.391   6.129   6.394 -0.0982  0.8279 -0.6220
   77SOPE  H11A 6813   4.466   6.119   6.313  0.4534 -0.9966  0.0717
   77SOPE  H11B 6814   4.301   6.068   6.370  2.4669 -1.8823 -4.5505
   77SOPE     P 6815   4.527   5.971   6.540 -0.1025 -0.5519 -0.0586
   77SOPE   O13 6816   4.441   5.855   6.533 -0.2771  0.6061 -0.0596
   77SOPE   O14 6817   4.610   5.982   6.659  0.0929 -0.3028  0.3398
   77SOPE   O12 6818   4.445   6.096   6.523 -0.1996 -0.6020 -0.0846
   77SOPE   O11 6819   4.619   5.965   6.415  0.7786  0.0231 -0.2766
   77SOPE    C1 6820   4.715   6.072   6.389 -0.6005 -0.4538  0.2253
   77SOPE    HA 6821   4.777   6.082   6.480  0.0393 -0.5682 -0.1921
   77SOPE    HB 6822   4.654   6.164   6.378 -0.9779 -0.6508  0.6352
   77SOPE    C2 6823   4.809   6.050   6.268 -0.3373  0.1610  0.2424
   77SOPE    HS 6824   4.907   6.103   6.275  0.3638 -0.7091 -2.1413
   77SOPE   O21 6825   4.740   6.098   6.154 -0.1393  0.2277  0.0202
   77SOPE   C21 6826   4.813   6.140   6.056 -0.4369 -0.5041  0.0632
   77SOPE   O22 6827   4.934   6.139   6.042  0.1375 -0.0342 -0.1376
   77SOPE   C22 6828   4.718   6.189   5.950 -0.1393 -0.4887  0.5735
   77SOPE   H2R 6829   4.710   6.300   5.948 -1.0897 -0.5539  0.3687
   77SOPE   H2S 6830   4.618   6.144   5.966 -0.1837 -1.1677 -1.4001
   77SOPE    C3 6831   4.830   5.893   6.258  0.2522 -0.5003  0.0098
   77SOPE    HX 6832   4.726   5.856   6.248  0.5403 -1.4481  0.3748
   77SOPE    HY 6833   4.875   5.852   6.352 -0.8861  2.3591  1.9276
   77SOPE   O31 6834   4.897   5.859   6.134  0.2290 -0.0994 -0.1871
   77SOPE   C31 6835   5.031   5.857   6.130  0.5551  0.3718 -0.1482
   77SOPE   O32 6836   5.099   5.865   6.230 -0.0993  0.1854 -0.0153
   77SOPE   C32 6837   5.084   5.840   5.985 -0.0980  0.4694 -0.3193
   77SOPE   H2X 6838   5.008   5.885   5.918 -0.3356  2.1992  1.0082
   77SOPE   H2Y 6839   5.079   5.732   5.963 -2.8879  0.1714  1.2729
   77SOPE   C23 6840   4.762   6.143   5.810 -0.0587  0.3162 -0.1732
   77SOPE   H3R 6841   4.792   6.036   5.813  3.5652  1.1423  4.2934
   77SOPE   H3S 6842   4.850   6.209   5.796  1.0249 -1.1105 -0.3401
   77SOPE   C24 6843   4.663   6.174   5.695 -0.2397 -0.4408 -0.8131
   77SOPE   H4R 6844   4.587   6.094   5.706 -1.9444  1.0059 -1.4950
   77SOPE   H4S 6845   4.607   6.265   5.725 -0.8649 -1.6607  2.0690
   77SOPE   C25 6846   4.728   6.174   5.560 -0.6213 -0.2053 -0.3880
   77SOPE   H5R 6847   4.805   6.255   5.558  2.1585 -2.4708  2.6202
   77SOPE   H5S 6848   4.789   6.080   5.560  0.3767  0.4137 -1.3299
   77SOPE   C26 6849   4.631   6.153   5.453 -0.2390 -0.2295 -0.8185
   77SOPE   H6R 6850   4.570   6.061   5.463  1.0483 -1.2759 -2.2427
   77SOPE   H6S 6851   4.560   6.239   5.459 -1.9872 -1.6499 -0.0255
   77SOPE   C27 6852   4.680   6.148   5.313  0.4189  0.4624 -1.0178
   77SOPE   H7R 6853   4.735   6.237   5.277  1.7905  0.7031  1.4426
   77SOPE   H7S 6854   4.753   6.065   5.302 -1.0706 -0.7267 -2.5298
   77SOPE   C28 6855   4.559   6.102   5.222  0.5700 -0.7481 -0.8933
   77SOPE   H8R 6856   4.594   6.054   5.128  0.9379  0.8279 -1.5854
   77SOPE   H8S 6857   4.493   6.038   5.284  0.3563  1.8416  1.7566
   77SOPE   C29 6858   4.490   6.231   5.181 -0.2914  0.6081 -0.5457
   77SOPE   H91 6859   4.496   6.311   5.256  0.6180 -0.2859  0.3690
   77SOPE  C210 6860   4.450   6.268   5.060  0.7258 -0.4034  0.4221
   77SOPE  H101 6861   4.415   6.371   5.049  0.3374 -0.6174 -0.4513
   77SOPE  C211 6862   4.460   6.173   4.936  0.6820 -0.2667  0.7015
   77SOPE  H11R 6863   4.357   6.150   4.900  1.5152 -3.3903  0.0176
   77SOPE  H11S 6864   4.492   6.068   4.952 -0.5572 -0.8015 -0.1080
   77SOPE  C212 6865   4.534   6.248   4.819  0.3162  0.4515  0.1081
   77SOPE  H12R 6866   4.477   6.341   4.799 -2.0259 -0.8125  0.4877
   77SOPE  H12S 6867   4.504   6.185   4.732 -0.0968  0.0902  0.5076
   77SOPE  C213 6868   4.685   6.256   4.843 -0.1795 -0.5488 -0.3004
   77SOPE  H13R 6869   4.704   6.260   4.953 -0.4176 -1.1446 -0.2346
   77SOPE  H13S 6870   4.726   6.351   4.802 -3.0629  1.8597  1.9184
   77SOPE  C214 6871   4.767   6.136   4.783  0.2155  1.1391 -0.0714
   77SOPE  H14R 6872   4.713   6.040   4.799  0.9636 -0.1980 -4.3041
   77SOPE  H14S 6873   4.854   6.127   4.851 -1.0339 -0.5759  1.3987
   77SOPE  C215 6874   4.796   6.133   4.634  0.6864  0.4733  0.3545
   77SOPE  H15R 6875   4.702   6.144   4.576  1.7810  3.9347 -1.0116
   77SOPE  H15S 6876   4.831   6.031   4.605 -3.2499 -0.4937 -1.6521
   77SOPE  C216 6877   4.900   6.239   4.584  0.5611  0.0245  0.2481
   77SOPE  H16R 6878   4.983   6.242   4.657  2.9252 -0.0019 -2.2919
   77SOPE  H16S 6879   4.852   6.338   4.599  0.4082  0.2303 -1.4303
   77SOPE  C217 6880   4.940   6.220   4.439  0.4718 -0.3277  0.2539
   77SOPE  H17R 6881   4.969   6.320   4.401  3.5457 -0.8050  1.0530
   77SOPE  H17S 6882   4.856   6.193   4.373 -0.5497  0.8154  1.0293
   77SOPE  C218 6883   5.052   6.119   4.411 -0.0174  0.3509  0.3539
   77SOPE  H18R 6884   5.011   6.019   4.386 -1.6848  0.9199  0.6648
   77SOPE  H18S 6885   5.118   6.112   4.500 -2.9241  0.0607  2.6436
   77SOPE  H18T 6886   5.109   6.156   4.322 -0.5489 -1.4496 -0.7904
   77SOPE   C33 6887   5.212   5.915   5.971  0.5057 -0.7833  0.1080
   77SOPE   H3X 6888   5.293   5.884   6.040 -0.4975 -0.6223  1.4010
   77SOPE   H3Y 6889   5.205   6.025   5.982 -2.6857 -0.9924  1.1171
   77SOPE   C34 6890   5.272   5.881   5.830  0.5235 -0.1253 -0.0081
   77SOPE   H4X 6891   5.220   5.789   5.794 -3.2383  2.0636 -0.6863
   77SOPE   H4Y 6892   5.380   5.866   5.853  0.7143  0.1577 -0.7181
   77SOPE   C35 6893   5.236   5.986   5.721  0.0266  0.0734 -0.3246
   77SOPE   H5X 6894   5.281   6.078   5.764 -0.6844  0.8464 -1.1950
   77SOPE   H5Y 6895   5.126   5.998   5.709  0.2003 -0.6503 -3.4311
   77SOPE   C36 6896   5.302   5.943   5.586  0.4892 -0.1960 -0.5374
   77SOPE   H6X 6897   5.272   5.842   5.550  0.6504 -0.4828  0.1258
   77SOPE   H6Y 6898   5.410   5.942   5.610 -0.1625 -3.3257  3.3044
   77SOPE   C37 6899   5.269   6.048   5.482 -0.6729 -0.2526  0.1604
   77SOPE   H7X 6900   5.323   6.139   5.516 -1.7694 -0.2602  2.0892
   77SOPE   H7Y 6901   5.164   6.084   5.483 -1.3995 -2.1679  2.5935
   77SOPE   C38 6902   5.301   5.994   5.337  0.5670  0.4536  0.3019
   77SOPE   H8X 6903   5.221   5.918   5.322 -0.9308  2.0715 -0.2714
   77SOPE   H8Y 6904   5.404   5.952   5.340  0.3214 -0.1067  1.6656
   77SOPE   C39 6905   5.286   6.105   5.234  0.4257  0.7685  0.6803
   77SOPE   H9X 6906   5.310   6.054   5.139  1.6301 -1.9129  2.2896
   77SOPE   H9Y 6907   5.368   6.180   5.236 -1.0101  2.4012  2.6065
   77SOPE  C310 6908   5.149   6.166   5.207 -0.2025  0.0064  0.1923
   77SOPE  H10X 6909   5.106   6.217   5.296  0.0882 -0.3580  0.5403
   77SOPE  H10Y 6910   5.088   6.075   5.188 -0.1438  0.0523 -0.2227
   77SOPE  C311 6911   5.147   6.253   5.081 -0.0913  0.7609  0.2748
   77SOPE  H11X 6912   5.185   6.190   4.998  2.7828  2.4682  0.1332
   77SOPE  H11Y 6913   5.222   6.333   5.098  0.7181 -0.0566  0.6385
   77SOPE  C312 6914   5.007   6.310   5.048  0.1908  0.0677  0.2504
   77SOPE  H12X 6915   4.937   6.224   5.049  0.6600 -0.3229  0.0406
   77SOPE  H12Y 6916   5.009   6.349   4.944  0.0570  1.4570  0.7458
   77SOPE  C313 6917   4.967   6.426   5.132 -0.7778 -0.2172 -0.2581
   77SOPE  H13X 6918   5.047   6.501   5.146 -1.2479  0.4485 -1.0334
   77SOPE  H13Y 6919   4.951   6.383   5.234 -0.5705 -0.0308 -0.1493
   77SOPE  C314 6920   4.836   6.501   5.101  0.2417  0.4233  0.7660
   77SOPE  H14X 6921   4.812   6.559   5.193 -2.3359  0.9284 -0.1609
   77SOPE  H14Y 6922   4.761   6.423   5.079  0.2538  0.2694  1.2432
   77SOPE  C315 6923   4.839   6.589   4.982 -0.2410  0.4386  0.4587
   77SOPE  H15X 6924   4.876   6.532   4.894 -2.1376  0.5210 -0.4608
   77SOPE  H15Y 6925   4.915   6.669   4.994  0.6687  0.7551 -4.8900
   77SOPE  C316 6926   4.701   6.630   4.944  0.9578 -0.6931 -0.1851
   77SOPE  H16X 6927   4.647   6.664   5.035  1.5208  1.6676 -0.6496
   77SOPE  H16Y 6928   4.641   6.542   4.912  0.1050 -0.1180 -0.2036
   77SOPE  C317 6929   4.686   6.719   4.821 -0.5728  0.2898 -0.2055
   77SOPE  H17X 6930   4.713   6.823   4.850  0.7726 -0.1395  0.2019
   77SOPE  H17Y 6931   4.576   6.718   4.805 -0.5678 -0.2711 -0.2262
   77SOPE  C318 6932   4.755   6.673   4.695  0.3289  0.7718 -0.9326
   77SOPE  H18X 6933   4.716   6.576   4.659  2.6096 -0.3579 -0.5515
   77SOPE  H18Y 6934   4.866   6.676   4.701  0.2548  1.2023  2.0471
   77SOPE  H18Z 6935   4.728   6.749   4.618  0.9563  1.8138 -0.1548
   78SOPE     N 6936   2.980   6.095   6.556  0.0930  0.0594 -0.4048
   78SOPE   HN1 6937   2.983   6.009   6.614  1.0378  1.6963  2.1701
   78SOPE   HN2 6938   3.081   6.107   6.533  1.2357 -1.1658  3.2215
   78SOPE   HN3 6939   2.960   6.172   6.624  0.0206  0.4855 -0.8966
   78SOPE   C12 6940   2.910   6.084   6.421 -0.9130  0.0822  0.1450
   78SOPE  H12A 6941   2.917   6.182   6.371  1.6631 -1.3252 -2.5598
   78SOPE  H12B 6942   2.804   6.057   6.443 -1.2851  1.5891  0.3286
   78SOPE   C11 6943   2.978   5.975   6.344  0.6772 -0.0716  0.5516
   78SOPE  H11A 6944   3.088   5.987   6.329  0.4700  0.0093 -1.1553
   78SOPE  H11B 6945   2.951   5.976   6.236 -0.5155 -1.2756  0.8235
   78SOPE     P 6946   3.004   5.717   6.350 -0.1980 -0.3105 -0.1807
   78SOPE   O13 6947   2.986   5.605   6.450  0.1523 -0.4989 -0.2829
   78SOPE   O14 6948   3.148   5.745   6.322  0.0332  0.4820  0.1704
   78SOPE   O12 6949   2.940   5.847   6.401 -0.1507  0.5243  0.1705
   78SOPE   O11 6950   2.917   5.685   6.227 -0.0732 -0.2722  0.5817
   78SOPE    C1 6951   2.778   5.684   6.225 -0.4367  0.2605  0.3364
   78SOPE    HA 6952   2.751   5.788   6.200 -0.5526  0.6757  2.0897
   78SOPE    HB 6953   2.734   5.653   6.322 -0.8970  0.3180  0.1468
   78SOPE    C2 6954   2.731   5.576   6.119  0.3063  0.4333 -0.1202
   78SOPE    HS 6955   2.795   5.495   6.159 -2.7796 -0.7439  2.9166
   78SOPE   O21 6956   2.770   5.597   5.983  0.0650  0.2307 -0.0525
   78SOPE   C21 6957   2.719   5.707   5.927  0.3616 -0.7769  0.2721
   78SOPE   O22 6958   2.638   5.779   5.981  0.2136 -0.5409  0.1704
   78SOPE   C22 6959   2.776   5.727   5.789  0.1348  0.0546 -0.2604
   78SOPE   H2R 6960   2.869   5.668   5.780  0.7794  1.1549 -1.0713
   78SOPE   H2S 6961   2.791   5.836   5.774 -2.2707  0.2436 -1.9097
   78SOPE    C3 6962   2.583   5.533   6.139  0.4647  0.3513  0.1909
   78SOPE    HX 6963   2.514   5.606   6.092 -0.5318 -0.5527  0.2199
   78SOPE    HY 6964   2.571   5.531   6.249  0.6160  1.0246  0.2189
   78SOPE   O31 6965   2.565   5.392   6.086 -0.1350 -0.0010  0.3970
   78SOPE   C31 6966   2.603   5.291   6.167  0.1280 -0.0665  0.3035
   78SOPE   O32 6967   2.674   5.307   6.267 -0.2801 -0.1408  0.3578
   78SOPE   C32 6968   2.541   5.163   6.111 -0.0368  0.4903  0.0057
   78SOPE   H2X 6969   2.471   5.122   6.187  1.4283  0.0982  1.2057
   78SOPE   H2Y 6970   2.613   5.080   6.100  0.5755  0.9807  0.2443
   78SOPE   C23 6971   2.663   5.686   5.693 -1.1123  0.2576 -0.6054
   78SOPE   H3R 6972   2.579   5.752   5.724  0.1863  1.6198  0.1676
   78SOPE   H3S 6973   2.651   5.578   5.712  0.3212  0.2943  0.7154
   78SOPE   C24 6974   2.699   5.703   5.542  0.1098 -0.4610 -0.4688
   78SOPE   H4R 6975   2.722   5.809   5.517  0.0842 -0.2751  0.2820
   78SOPE   H4S 6976   2.794   5.648   5.524 -0.3060 -1.5593  0.5913
   78SOPE   C25 6977   2.584   5.642   5.458 -0.3686  0.5733  0.5254
   78SOPE   H5R 6978   2.573   5.540   5.501 -0.4517  0.3747  0.0376
   78SOPE   H5S 6979   2.493   5.704   5.470 -1.1071 -0.1150 -1.1918
   78SOPE   C26 6980   2.590   5.634   5.306 -0.3666  0.5434 -0.4370
   78SOPE   H6R 6981   2.491   5.609   5.263 -0.6184 -1.4118  1.1047
   78SOPE   H6S 6982   2.621   5.734   5.269 -0.3232  0.4919 -0.5398
   78SOPE   C27 6983   2.697   5.531   5.269 -0.2069 -0.4305  0.2598
   78SOPE   H7R 6984   2.795   5.565   5.307  0.0926  0.0812 -0.9122
   78SOPE   H7S 6985   2.678   5.426   5.298  0.3443 -0.5787  0.0952
   78SOPE   C28 6986   2.706   5.530   5.116 -0.2490 -0.3815 -0.3464
   78SOPE   H8R 6987   2.779   5.450   5.092  1.0277 -0.7557  3.9229
   78SOPE   H8S 6988   2.609   5.492   5.078  0.2855 -1.9189 -0.2441
   78SOPE   C29 6989   2.739   5.666   5.050  0.2433 -0.0217 -0.3391
   78SOPE   H91 6990   2.833   5.706   5.090  0.3720 -0.1363 -0.5187
   78SOPE  C210 6991   2.682   5.745   4.956  0.5907 -0.6617 -0.2594
   78SOPE  H101 6992   2.721   5.844   4.931 -0.7590 -0.0329  0.0478
   78SOPE  C211 6993   2.551   5.724   4.894 -0.1344 -0.6326  0.1354
   78SOPE  H11R 6994   2.491   5.816   4.875 -0.6608 -1.1675 -0.8350
   78SOPE  H11S 6995   2.484   5.668   4.964 -0.4137 -1.1390 -0.5268
   78SOPE  C212 6996   2.570   5.680   4.751  0.1467  0.2159  0.7342
   78SOPE  H12R 6997   2.603   5.574   4.757 -0.9442 -0.1058  1.2689
   78SOPE  H12S 6998   2.646   5.745   4.702  1.0424 -1.4923 -0.2303
   78SOPE  C213 6999   2.438   5.676   4.660 -0.5836 -0.7056 -0.1082
   78SOPE  H13R 7000   2.371   5.592   4.688  0.0060 -0.7767  1.1578
   78SOPE  H13S 7001   2.471   5.666   4.555  1.2191  2.1325  0.0813
   78SOPE  C214 7002   2.340   5.797   4.662  0.9364  0.0672 -0.3411
   78SOPE  H14R 7003   2.405   5.888   4.655  0.6666  0.3847  0.9931
   78SOPE  H14S 7004   2.298   5.799   4.764 -0.1767 -0.2589 -0.7821
   78SOPE  C215 7005   2.224   5.795   4.556  0.3570 -0.6629  0.0971
   78SOPE  H15R 7006   2.162   5.704   4.571 -0.7945  0.3256  1.5559
   78SOPE  H15S 7007   2.264   5.788   4.452 -0.0315 -0.0602 -0.0935
   78SOPE  C216 7008   2.144   5.928   4.558 -0.1074  0.3947  0.0175
   78SOPE  H16R 7009   2.224   6.005   4.559  1.0007 -0.7093  0.6653
   78SOPE  H16S 7010   2.089   5.927   4.654  0.3569 -1.8374  0.3292
   78SOPE  C217 7011   2.041   5.928   4.441 -0.3489 -0.0813 -0.2161
   78SOPE  H17R 7012   1.983   6.023   4.439 -1.7096 -0.8937 -2.2355
   78SOPE  H17S 7013   1.966   5.849   4.457  2.4911 -3.0104 -0.3422
   78SOPE  C218 7014   2.110   5.909   4.299 -0.1263 -0.5107 -0.2403
   78SOPE  H18R 7015   2.150   5.808   4.276  0.3223 -0.1574 -1.0724
   78SOPE  H18S 7016   2.186   5.988   4.280 -0.6470  0.3442  1.0723
   78SOPE  H18T 7017   2.039   5.913   4.214  1.3277 -0.7854 -1.5066
   78SOPE   C33 7018   2.455   5.189   5.984 -0.3994  1.1838 -0.0009
   78SOPE   H3X 7019   2.393   5.280   6.006 -0.1173  1.1198  1.1118
   78SOPE   H3Y 7020   2.386   5.103   5.970 -0.4832  1.0659  1.0234
   78SOPE   C34 7021   2.533   5.217   5.856 -0.7200 -1.0688  0.4592
   78SOPE   H4X 7022   2.595   5.128   5.832  2.3619  0.8577  0.6971
   78SOPE   H4Y 7023   2.605   5.302   5.866 -3.0754  1.0012  0.9420
   78SOPE   C35 7024   2.438   5.256   5.736 -0.2385 -0.0905 -0.3429
   78SOPE   H5X 7025   2.421   5.365   5.738 -1.5003 -0.2193 -2.0552
   78SOPE   H5Y 7026   2.337   5.212   5.747 -1.6753  2.3475 -2.5175
   78SOPE   C36 7027   2.498   5.203   5.604  0.1826  0.2493  0.9377
   78SOPE   H6X 7028   2.485   5.093   5.600  2.0091  0.0269 -1.5009
   78SOPE   H6Y 7029   2.608   5.219   5.603  0.2334  0.5050 -2.6082
   78SOPE   C37 7030   2.439   5.259   5.471 -0.5047  0.5317 -0.4516
   78SOPE   H7X 7031   2.480   5.362   5.467  1.5826 -0.2300 -4.9196
   78SOPE   H7Y 7032   2.328   5.258   5.471 -0.5060  0.3363  0.4332
   78SOPE   C38 7033   2.481   5.177   5.353  0.2332  0.6111  0.6111
   78SOPE   H8X 7034   2.418   5.087   5.371 -0.0179  0.3690 -1.2686
   78SOPE   H8Y 7035   2.590   5.155   5.348  0.4702  1.8740 -0.1966
   78SOPE   C39 7036   2.429   5.239   5.219  0.6313 -0.0681 -0.0429
   78SOPE   H9X 7037   2.485   5.333   5.200 -0.2174  0.5106  0.2852
   78SOPE   H9Y 7038   2.321   5.262   5.219  0.1632 -2.0597 -1.0630
   78SOPE  C310 7039   2.463   5.157   5.089  0.3934  0.1580  0.3974
   78SOPE  H10X 7040   2.404   5.063   5.099 -0.4978  0.5494 -0.8826
   78SOPE  H10Y 7041   2.573   5.139   5.085  0.9098  2.3149  2.7455
   78SOPE  C311 7042   2.409   5.231   4.965 -0.1980  0.2222  0.0014
   78SOPE  H11X 7043   2.440   5.337   4.974 -0.8878  0.4259  0.0424
   78SOPE  H11Y 7044   2.298   5.234   4.962 -0.1702  0.7351 -0.6411
   78SOPE  C312 7045   2.436   5.188   4.822 -0.2005 -0.1238  0.2123
   78SOPE  H12X 7046   2.350   5.230   4.765  0.7133  0.7973 -0.5259
   78SOPE  H12Y 7047   2.437   5.078   4.807 -0.0521 -0.0339 -0.4398
   78SOPE  C313 7048   2.569   5.257   4.780 -0.6782  0.4544  0.4590
   78SOPE  H13X 7049   2.648   5.203   4.837 -0.6089  0.7518  0.6452
   78SOPE  H13Y 7050   2.587   5.364   4.801  2.7706  0.9087 -3.5691
   78SOPE  C314 7051   2.608   5.221   4.633  0.1649 -0.3135 -0.4667
   78SOPE  H14X 7052   2.596   5.111   4.620  0.1715 -0.3275 -0.3607
   78SOPE  H14Y 7053   2.714   5.250   4.623 -0.1080  1.2770  0.7541
   78SOPE  C315 7054   2.521   5.287   4.530  0.4617  0.2647  0.2494
   78SOPE  H15X 7055   2.552   5.394   4.530 -0.0724  0.4318 -0.8760
   78SOPE  H15Y 7056   2.417   5.291   4.571  0.6197  0.6087  0.6209
   78SOPE  C316 7057   2.540   5.216   4.394 -0.4126  0.3359 -0.4812
   78SOPE  H16X 7058   2.650   5.209   4.383 -0.3144 -0.2344  0.6518
   78SOPE  H16Y 7059   2.496   5.269   4.307  1.8973  1.7994 -0.8196
   78SOPE  C317 7060   2.511   5.064   4.388  0.9586 -0.4210  0.2254
   78SOPE  H17X 7061   2.591   5.003   4.435  0.2919 -1.1386  0.4550
   78SOPE  H17Y 7062   2.510   5.043   4.278 -0.8493  0.4402  0.0335
   78SOPE  C318 7063   2.368   5.036   4.449 -0.4819  0.0504 -0.3309
   78SOPE  H18X 7064   2.299   5.102   4.392 -0.1735 -1.8650 -3.1596
   78SOPE  H18Y 7065   2.372   5.058   4.557  0.5812  1.6946 -0.6591
   78SOPE  H18Z 7066   2.351   4.927   4.437  3.1835 -0.5973 -1.0627
   79SOPE     N 7067   6.833   2.952   6.350 -0.4289 -0.3108  0.2036
   79SOPE   HN1 7068   6.888   2.894   6.416 -0.8811 -0.6604  0.2787
   79SOPE   HN2 7069   6.895   3.030   6.320 -1.2802  0.5879  0.6964
   79SOPE   HN3 7070   6.756   3.002   6.400  0.3450 -0.3195  1.4592
   79SOPE   C12 7071   6.787   2.855   6.248  0.6596 -0.7269 -0.1614
   79SOPE  H12A 7072   6.868   2.799   6.196  0.6691 -0.5908 -0.2954
   79SOPE  H12B 7073   6.744   2.916   6.166  1.8684  0.8311  0.3203
   79SOPE   C11 7074   6.675   2.764   6.296 -0.4818  0.5421 -0.2416
   79SOPE  H11A 7075   6.656   2.692   6.213 -0.0369  0.4151 -0.2319
   79SOPE  H11B 7076   6.578   2.814   6.319 -1.2834 -1.0681  0.0747
   79SOPE     P 7077   6.630   2.613   6.501  0.0420  0.5623  0.0328
   79SOPE   O13 7078   6.499   2.675   6.520  0.1743  0.2040 -0.6153
   79SOPE   O14 7079   6.704   2.560   6.618  0.5291 -0.5536  0.4136
   79SOPE   O12 7080   6.727   2.698   6.408 -0.2901 -0.4343  0.3642
   79SOPE   O11 7081   6.588   2.495   6.405 -0.7667  0.5383  0.1155
   79SOPE    C1 7082   6.680   2.410   6.343  0.5643  0.0637  0.6415
   79SOPE    HA 7083   6.704   2.320   6.405  3.1696  1.8986  2.5283
   79SOPE    HB 7084   6.782   2.451   6.326  1.7929 -2.5797  1.1147
   79SOPE    C2 7085   6.630   2.385   6.196 -0.1083  0.2921  0.1781
   79SOPE    HS 7086   6.675   2.456   6.123 -1.4953  0.5023 -0.5146
   79SOPE   O21 7087   6.478   2.388   6.173 -0.3458  0.1365  0.2374
   79SOPE   C21 7088   6.428   2.505   6.144  0.1147 -0.6229  1.0210
   79SOPE   O22 7089   6.495   2.598   6.099 -0.0359 -0.3962 -0.5465
   79SOPE   C22 7090   6.280   2.507   6.177  0.4279 -0.1931  0.1607
   79SOPE   H2R 7091   6.260   2.605   6.227  2.8312 -0.3521  1.5928
   79SOPE   H2S 7092   6.258   2.427   6.251  1.3960 -0.8594 -0.2439
   79SOPE    C3 7093   6.682   2.247   6.147 -0.1674 -0.3658 -0.6919
   79SOPE    HX 7094   6.602   2.180   6.185  0.1122 -0.4540 -0.2454
   79SOPE    HY 7095   6.778   2.211   6.190 -0.9367 -0.2862  1.1755
   79SOPE   O31 7096   6.692   2.257   6.001  0.3580  1.0117  0.6417
   79SOPE   C31 7097   6.609   2.174   5.936 -0.4171 -0.5741  0.2276
   79SOPE   O32 7098   6.515   2.112   5.984  0.2802  0.0410 -0.1724
   79SOPE   C32 7099   6.651   2.167   5.787  0.2615 -0.2188  0.4001
   79SOPE   H2X 7100   6.735   2.096   5.769 -0.3077 -0.3479 -2.2565
   79SOPE   H2Y 7101   6.671   2.274   5.763  1.0432 -0.3207  0.5758
   79SOPE   C23 7102   6.194   2.508   6.051  0.4713  0.3275 -0.2565
   79SOPE   H3R 7103   6.086   2.501   6.077 -0.3094  1.9201 -2.6992
   79SOPE   H3S 7104   6.217   2.418   5.991  1.3348  0.3759 -0.0214
   79SOPE   C24 7105   6.196   2.645   5.981 -0.1457 -0.0934 -0.1007
   79SOPE   H4R 7106   6.171   2.732   6.046  0.5930  0.0705 -0.0277
   79SOPE   H4S 7107   6.296   2.669   5.939 -0.2282  0.8126  0.1913
   79SOPE   C25 7108   6.095   2.632   5.861 -0.6897  0.0912 -0.3316
   79SOPE   H5R 7109   6.110   2.542   5.797  0.0085  0.6522 -0.9775
   79SOPE   H5S 7110   5.994   2.637   5.907  0.3482  1.2866  1.9536
   79SOPE   C26 7111   6.119   2.747   5.767 -0.7879 -0.0496  0.3135
   79SOPE   H6R 7112   6.114   2.840   5.828 -2.3654  0.0240  0.1170
   79SOPE   H6S 7113   6.218   2.733   5.718 -1.1470  0.5396 -0.6109
   79SOPE   C27 7114   5.995   2.775   5.669 -0.1205  0.5473 -0.4098
   79SOPE   H7R 7115   5.911   2.798   5.738  1.4257  3.7496  0.5786
   79SOPE   H7S 7116   6.007   2.859   5.597  1.6148 -0.2199 -1.0736
   79SOPE   C28 7117   5.953   2.648   5.595  0.6923  0.7075 -0.2239
   79SOPE   H8R 7118   5.946   2.566   5.670  0.3264 -0.0953 -1.1213
   79SOPE   H8S 7119   5.847   2.665   5.569 -0.0319 -0.4359  1.7173
   79SOPE   C29 7120   6.046   2.606   5.480 -0.7568  0.3201  0.6241
   79SOPE   H91 7121   6.133   2.560   5.529  1.0100  1.1228 -1.5372
   79SOPE  C210 7122   6.027   2.614   5.346  0.7945 -0.1051 -0.5176
   79SOPE  H101 7123   6.114   2.589   5.283  1.0008 -3.7197  0.9486
   79SOPE  C211 7124   5.890   2.661   5.286 -0.2755 -0.0451  0.7382
   79SOPE  H11R 7125   5.836   2.745   5.336  0.2287  0.4957  0.3832
   79SOPE  H11S 7126   5.826   2.571   5.291  1.5558 -1.3436  1.9602
   79SOPE  C212 7127   5.903   2.702   5.139  0.3697 -0.1016  0.0435
   79SOPE  H12R 7128   5.981   2.779   5.122  0.5163 -0.0070  1.0911
   79SOPE  H12S 7129   5.812   2.763   5.120  1.1019  1.1176  0.3444
   79SOPE  C213 7130   5.921   2.591   5.036 -0.0557 -0.3482  0.2564
   79SOPE  H13R 7131   5.875   2.492   5.053  0.2658 -0.6318 -0.4686
   79SOPE  H13S 7132   6.031   2.577   5.024 -0.2639 -1.0398 -0.9750
   79SOPE  C214 7133   5.870   2.634   4.894 -0.5466  0.3416  0.1233
   79SOPE  H14R 7134   5.922   2.586   4.808 -0.3451  2.0854 -0.7822
   79SOPE  H14S 7135   5.893   2.742   4.884 -0.3283  0.3294  0.4622
   79SOPE  C215 7136   5.724   2.592   4.867 -0.4358  0.3173  0.1256
   79SOPE  H15R 7137   5.658   2.639   4.944 -0.4170 -2.1134  1.7447
   79SOPE  H15S 7138   5.713   2.482   4.878  1.3501 -0.2395 -2.7120
   79SOPE  C216 7139   5.680   2.640   4.727 -0.2315  0.1374 -0.3551
   79SOPE  H16R 7140   5.575   2.612   4.703 -0.5697  0.4898  0.6405
   79SOPE  H16S 7141   5.746   2.591   4.653 -0.1569  0.7962 -0.7358
   79SOPE  C217 7142   5.690   2.794   4.705  0.5939 -0.9911  0.0773
   79SOPE  H17R 7143   5.660   2.818   4.601 -1.1607 -0.6837  0.6324
   79SOPE  H17S 7144   5.793   2.830   4.729  1.0684 -1.5052 -1.1203
   79SOPE  C218 7145   5.594   2.867   4.808  0.3212 -0.4570 -0.0589
   79SOPE  H18R 7146   5.490   2.832   4.797  0.4287 -0.2601 -2.0876
   79SOPE  H18S 7147   5.582   2.973   4.779  0.1556 -0.3563  0.3763
   79SOPE  H18T 7148   5.625   2.852   4.914 -0.8547 -1.9174  0.1163
   79SOPE   C33 7149   6.531   2.109   5.709 -0.1735  0.1183 -0.3300
   79SOPE   H3X 7150   6.437   2.162   5.735  0.7079  0.1824  3.3357
   79SOPE   H3Y 7151   6.519   2.002   5.734  1.6447 -0.3199 -1.1438
   79SOPE   C34 7152   6.553   2.111   5.554  0.5833 -0.4128 -0.4626
   79SOPE   H4X 7153   6.659   2.081   5.541  0.4936  0.0376 -2.4115
   79SOPE   H4Y 7154   6.547   2.212   5.508 -3.0358 -0.7207 -1.0274
   79SOPE   C35 7155   6.448   2.021   5.489 -0.0383 -0.2695 -0.2007
   79SOPE   H5X 7156   6.350   2.058   5.524  0.9923  1.8594  0.6079
   79SOPE   H5Y 7157   6.460   1.915   5.523 -3.4187 -0.5950  0.2911
   79SOPE   C36 7158   6.451   2.025   5.341  0.1426  0.4080 -0.1829
   79SOPE   H6X 7159   6.558   2.015   5.313  1.0887 -1.2314  3.3322
   79SOPE   H6Y 7160   6.409   2.123   5.312  1.7410  0.9509 -0.7474
   79SOPE   C37 7161   6.373   1.915   5.263 -0.3921  0.6479 -0.7444
   79SOPE   H7X 7162   6.271   1.911   5.306 -0.3366 -3.1529 -0.6594
   79SOPE   H7Y 7163   6.423   1.816   5.266 -1.1697  0.2545 -0.6050
   79SOPE   C38 7164   6.361   1.941   5.112  0.4685 -0.5125  0.4336
   79SOPE   H8X 7165   6.309   2.037   5.093  0.3809 -0.3858  1.2619
   79SOPE   H8Y 7166   6.288   1.861   5.085  0.8425 -1.5895  2.3601
   79SOPE   C39 7167   6.485   1.937   5.026  0.2548  0.5389 -0.5659
   79SOPE   H9X 7168   6.542   1.846   5.053 -1.7148 -0.7984 -0.7683
   79SOPE   H9Y 7169   6.548   2.025   5.053 -1.5874  1.4024  1.2109
   79SOPE  C310 7170   6.451   1.933   4.876 -0.4471  0.0542  0.6470
   79SOPE  H10X 7171   6.542   1.942   4.814 -0.2094  0.7113  1.0793
   79SOPE  H10Y 7172   6.375   2.011   4.855  0.4077  0.8277  0.3770
   79SOPE  C311 7173   6.375   1.810   4.833 -0.1677  0.2725  0.3251
   79SOPE  H11X 7174   6.282   1.798   4.892 -0.1958 -1.2551 -0.0127
   79SOPE  H11Y 7175   6.438   1.730   4.879 -0.2338  1.6734  3.1034
   79SOPE  C312 7176   6.348   1.785   4.685 -0.2343 -0.0115  0.3276
   79SOPE  H12X 7177   6.291   1.692   4.665  0.8259 -0.6323  0.1493
   79SOPE  H12Y 7178   6.447   1.778   4.635 -0.7644 -0.7891 -0.6624
   79SOPE  C313 7179   6.256   1.901   4.632 -0.0467 -0.0910 -0.0393
   79SOPE  H13X 7180   6.296   2.003   4.650 -1.9962  0.4814  1.4256
   79SOPE  H13Y 7181   6.155   1.908   4.677 -0.0503  0.6293 -0.1437
   79SOPE  C314 7182   6.248   1.879   4.483  0.0173 -0.3839  0.6293
   79SOPE  H14X 7183   6.171   1.800   4.470  1.5158 -1.8317  0.2349
   79SOPE  H14Y 7184   6.339   1.840   4.433 -0.6477 -0.2605 -0.7426
   79SOPE  C315 7185   6.209   2.011   4.413 -0.4326  0.7465 -0.3780
   79SOPE  H15X 7186   6.292   2.082   4.433 -0.5578  0.4961  1.1983
   79SOPE  H15Y 7187   6.113   2.065   4.426 -0.5014  0.8073 -1.1367
   79SOPE  C316 7188   6.213   1.990   4.262 -0.0510 -0.2356 -0.2742
   79SOPE  H16X 7189   6.175   1.887   4.252 -0.2512 -0.2808  0.8132
   79SOPE  H16Y 7190   6.318   1.976   4.228 -0.7881 -0.5742 -2.5398
   79SOPE  C317 7191   6.122   2.078   4.178 -0.3392 -0.0136  0.1983
   79SOPE  H17X 7192   6.040   2.127   4.235 -0.3564 -1.4111  1.4301
   79SOPE  H17Y 7193   6.077   2.028   4.089 -1.0902  2.5275 -0.9592
   79SOPE  C318 7194   6.201   2.187   4.106 -0.7434 -0.3084 -0.7971
   79SOPE  H18X 7195   6.264   2.251   4.172 -1.1189  1.2815 -1.9347
   79SOPE  H18Y 7196   6.140   2.254   4.042  1.2188  1.9889 -0.4009
   79SOPE  H18Z 7197   6.282   2.142   4.045 -0.4213 -3.9802  1.9491
   80SOPE     N 7198   2.120   4.127   6.922 -0.1978 -0.1249  0.2592
   80SOPE   HN1 7199   2.047   4.156   6.854 -0.0132 -1.3654 -0.4962
   80SOPE   HN2 7200   2.086   4.053   6.987  1.9453 -0.8264  0.6650
   80SOPE   HN3 7201   2.142   4.210   6.980 -0.7745  0.1638  0.0775
   80SOPE   C12 7202   2.248   4.074   6.871  0.4390 -0.0451  0.1975
   80SOPE  H12A 7203   2.334   4.083   6.941  1.3469 -0.3514 -0.8541
   80SOPE  H12B 7204   2.272   4.128   6.777 -0.0685  1.1558  0.7400
   80SOPE   C11 7205   2.245   3.923   6.848  0.0524  0.4634 -0.2944
   80SOPE  H11A 7206   2.149   3.913   6.793  0.3346  2.8247 -1.3365
   80SOPE  H11B 7207   2.232   3.858   6.937 -1.9716  1.8600  0.5161
   80SOPE     P 7208   2.346   3.729   6.714 -0.0247  0.1244 -0.5293
   80SOPE   O13 7209   2.308   3.643   6.830  0.0516  0.3743 -0.3997
   80SOPE   O14 7210   2.468   3.695   6.641 -0.4424  0.2102 -0.1342
   80SOPE   O12 7211   2.347   3.875   6.770 -0.2007  0.0964 -0.7050
   80SOPE   O11 7212   2.228   3.732   6.614 -0.6102 -0.6462 -0.1511
   80SOPE    C1 7213   2.247   3.781   6.479 -0.1169 -0.7445  0.0500
   80SOPE    HA 7214   2.231   3.694   6.413  2.2318  1.0919 -3.2134
   80SOPE    HB 7215   2.350   3.808   6.448 -0.3933  1.0568  0.5718
   80SOPE    C2 7216   2.157   3.905   6.453 -0.1284  0.0958  0.3271
   80SOPE    HS 7217   2.168   3.973   6.540 -1.4504 -0.7630  1.2026
   80SOPE   O21 7218   2.021   3.860   6.433  0.0237 -0.1292  0.6900
   80SOPE   C21 7219   1.934   3.905   6.515 -0.9076 -0.3010  0.4822
   80SOPE   O22 7220   1.951   3.960   6.620 -0.8747  0.1490 -0.2877
   80SOPE   C22 7221   1.804   3.890   6.440 -0.1453 -0.0017  0.7460
   80SOPE   H2R 7222   1.715   3.902   6.506 -1.8193 -1.7506 -1.0646
   80SOPE   H2S 7223   1.803   3.788   6.398  0.7634  0.4515 -0.4097
   80SOPE    C3 7224   2.201   3.992   6.330  0.1771 -0.3463  0.3458
   80SOPE    HX 7225   2.301   4.035   6.352  1.9163 -4.0477  0.4357
   80SOPE    HY 7226   2.123   4.072   6.330 -0.4128 -0.8291  2.8155
   80SOPE   O31 7227   2.185   3.922   6.207 -0.7997  0.5144 -0.0217
   80SOPE   C31 7228   2.285   3.847   6.172  0.3312 -1.5444 -0.2345
   80SOPE   O32 7229   2.396   3.851   6.229  0.7670 -0.4788 -0.2266
   80SOPE   C32 7230   2.260   3.769   6.047 -0.1385  0.4310  0.3767
   80SOPE   H2X 7231   2.159   3.788   6.005  0.2072  1.6427  0.0875
   80SOPE   H2Y 7232   2.260   3.663   6.083  0.1367 -0.2957 -1.6228
   80SOPE   C23 7233   1.771   3.997   6.329  0.4049 -0.1168 -0.0082
   80SOPE   H3R 7234   1.795   4.098   6.370  0.4548  0.5654 -1.6399
   80SOPE   H3S 7235   1.663   3.995   6.307  0.2621 -2.5217  0.6883
   80SOPE   C24 7236   1.833   3.979   6.181 -0.6694  0.3345 -0.0445
   80SOPE   H4R 7237   1.840   4.079   6.133  0.5735 -0.1038 -0.8395
   80SOPE   H4S 7238   1.935   3.944   6.210 -1.6161 -2.8284 -0.1062
   80SOPE   C25 7239   1.762   3.881   6.088 -0.3583  0.8409  0.2620
   80SOPE   H5R 7240   1.788   3.785   6.137 -1.0798  1.3846  1.7803
   80SOPE   H5S 7241   1.654   3.887   6.113 -0.2075  0.3396  1.0538
   80SOPE   C26 7242   1.812   3.888   5.939  0.4289  0.3214  0.3128
   80SOPE   H6R 7243   1.922   3.872   5.935  0.1726 -1.4487 -0.6820
   80SOPE   H6S 7244   1.768   3.800   5.888  0.0555  0.4102  0.4760
   80SOPE   C27 7245   1.772   4.021   5.862  0.3848  0.3809 -0.2636
   80SOPE   H7R 7246   1.824   4.108   5.908 -0.4055  0.9141 -0.3728
   80SOPE   H7S 7247   1.827   4.013   5.766  1.3599  1.2654  0.1917
   80SOPE   C28 7248   1.623   4.038   5.850 -0.0857 -0.7017  0.6058
   80SOPE   H8R 7249   1.581   3.943   5.813 -0.9398  0.2575 -1.0162
   80SOPE   H8S 7250   1.574   4.042   5.950  0.8311 -1.7608  1.1107
   80SOPE   C29 7251   1.596   4.155   5.763  0.2115  0.0024  0.9044
   80SOPE   H91 7252   1.625   4.249   5.812  1.7493 -0.2644  0.5515
   80SOPE  C210 7253   1.566   4.144   5.627  0.3299  0.0519 -0.7871
   80SOPE  H101 7254   1.538   4.225   5.558 -0.0800  1.5377  1.0437
   80SOPE  C211 7255   1.537   4.014   5.554  0.9243 -0.0729  0.0636
   80SOPE  H11R 7256   1.429   3.990   5.546  1.2609 -1.7956  0.4011
   80SOPE  H11S 7257   1.592   3.930   5.601  2.2283  0.5611 -0.2617
   80SOPE  C212 7258   1.591   4.012   5.405 -0.0203  0.3050 -0.6427
   80SOPE  H12R 7259   1.579   3.913   5.355  2.8793 -1.5039  1.8787
   80SOPE  H12S 7260   1.699   4.040   5.406  0.1421 -0.2526 -1.2752
   80SOPE  C213 7261   1.536   4.118   5.311  0.7712 -0.1163  0.4849
   80SOPE  H13R 7262   1.550   4.085   5.206  1.2320 -1.0299  0.8235
   80SOPE  H13S 7263   1.595   4.211   5.326  2.5970 -0.7378 -2.0562
   80SOPE  C214 7264   1.372   4.129   5.314 -0.1126 -0.4759  0.2490
   80SOPE  H14R 7265   1.344   4.186   5.405  2.6111  2.3008 -0.4574
   80SOPE  H14S 7266   1.330   4.027   5.321  0.3551 -0.6606  0.3843
   80SOPE  C215 7267   1.320   4.199   5.190 -0.1011  0.3025  0.7145
   80SOPE  H15R 7268   1.379   4.288   5.157  0.8649 -0.2188  0.9796
   80SOPE  H15S 7269   1.225   4.244   5.225 -0.3495  0.4735 -0.1665
   80SOPE  C216 7270   1.287   4.116   5.072 -0.4492 -0.1278 -0.2672
   80SOPE  H16R 7271   1.225   4.028   5.100 -0.0935  0.2148  1.7412
   80SOPE  H16S 7272   1.384   4.082   5.031  0.0556  1.4472 -0.4301
   80SOPE  C217 7273   1.216   4.188   4.961  0.9809  0.3058  0.2424
   80SOPE  H17R 7274   1.270   4.273   4.914  1.6398 -0.4695 -0.4354
   80SOPE  H17S 7275   1.126   4.234   5.006 -1.1357  0.0013 -3.3337
   80SOPE  C218 7276   1.166   4.096   4.849 -0.1328  0.1856 -0.4072
   80SOPE  H18R 7277   1.249   4.057   4.786 -0.2419 -1.7383  0.5465
   80SOPE  H18S 7278   1.083   4.145   4.795  0.0131  1.2202  0.2734
   80SOPE  H18T 7279   1.127   4.001   4.891  2.6985 -0.6344  0.6402
   80SOPE   C33 7280   2.378   3.788   5.937  0.0083  0.0201 -0.4382
   80SOPE   H3X 7281   2.398   3.694   5.881 -1.6317 -1.1842  0.8791
   80SOPE   H3Y 7282   2.470   3.829   5.985 -0.3099 -0.2536  0.4354
   80SOPE   C34 7283   2.325   3.887   5.823  0.0101 -0.2083  0.1819
   80SOPE   H4X 7284   2.416   3.884   5.759  0.4522 -0.5689  0.8121
   80SOPE   H4Y 7285   2.323   3.989   5.868 -0.7792 -0.0020 -0.3063
   80SOPE   C35 7286   2.195   3.841   5.754  0.2063 -0.2162 -0.4030
   80SOPE   H5X 7287   2.110   3.902   5.791 -0.1571 -0.8527 -0.1671
   80SOPE   H5Y 7288   2.176   3.731   5.747  1.5692 -0.5639  0.7344
   80SOPE   C36 7289   2.193   3.875   5.606 -0.2762  0.1858  0.7350
   80SOPE   H6X 7290   2.239   3.976   5.599 -0.6232  0.2586 -0.8821
   80SOPE   H6Y 7291   2.088   3.879   5.569 -0.2865 -0.9755  0.5921
   80SOPE   C37 7292   2.280   3.781   5.517 -0.0405  0.3319  0.1597
   80SOPE   H7X 7293   2.230   3.692   5.471 -0.1816 -0.3775  1.6185
   80SOPE   H7Y 7294   2.351   3.729   5.585 -0.7892  1.4439  1.8684
   80SOPE   C38 7295   2.376   3.847   5.412  0.1452 -0.4770  0.1030
   80SOPE   H8X 7296   2.414   3.760   5.354  1.8260 -0.4810  1.1501
   80SOPE   H8Y 7297   2.453   3.904   5.468 -1.3401  1.2848  0.4449
   80SOPE   C39 7298   2.301   3.942   5.317  0.0944 -0.1460 -0.0549
   80SOPE   H9X 7299   2.365   3.981   5.235  0.0709  1.4248  0.6288
   80SOPE   H9Y 7300   2.274   4.036   5.370  0.8291  0.7212 -1.1683
   80SOPE  C310 7301   2.180   3.872   5.253 -0.6279 -0.4310 -0.1139
   80SOPE  H10X 7302   2.111   3.842   5.334 -1.0867 -0.6281 -0.5689
   80SOPE  H10Y 7303   2.208   3.787   5.187 -0.0849  0.0678 -0.5468
   80SOPE  C311 7304   2.105   3.970   5.162  0.5593  0.0719  0.5351
   80SOPE  H11X 7305   2.170   4.001   5.077 -0.5963  1.2520  0.0482
   80SOPE  H11Y 7306   2.084   4.064   5.217  1.6940  2.2375 -2.4307
   80SOPE  C312 7307   1.977   3.910   5.102  0.8485 -0.3378 -0.8362
   80SOPE  H12X 7308   1.911   3.859   5.175  1.2641 -1.7816 -1.4352
   80SOPE  H12Y 7309   2.007   3.825   5.038  2.1086 -0.0165 -0.7041
   80SOPE  C313 7310   1.897   4.010   5.014 -0.5413 -0.1571  0.1169
   80SOPE  H13X 7311   1.959   4.043   4.927 -0.2772  0.7396  0.6291
   80SOPE  H13Y 7312   1.865   4.089   5.086  0.4962  0.7629 -0.3954
   80SOPE  C314 7313   1.780   3.950   4.941  0.7022  0.6885 -0.7397
   80SOPE  H14X 7314   1.717   3.904   5.020  3.0867 -0.0564  0.8634
   80SOPE  H14Y 7315   1.798   3.879   4.857 -0.2286  0.7126 -0.9739
   80SOPE  C315 7316   1.696   4.056   4.881  0.0452 -0.5242  0.9165
   80SOPE  H15X 7317   1.662   4.115   4.969 -2.1545 -1.8913  1.0686
   80SOPE  H15Y 7318   1.608   3.996   4.851  1.5905 -1.6495 -1.6696
   80SOPE  C316 7319   1.747   4.128   4.751 -0.6544 -0.1492 -0.0003
   80SOPE  H16X 7320   1.824   4.069   4.697 -0.4017  0.0948  0.0936
   80SOPE  H16Y 7321   1.793   4.219   4.794  0.0551 -0.5751  0.1459
   80SOPE  C317 7322   1.632   4.173   4.661 -0.0715 -0.0704  0.1216
   80SOPE  H17X 7323   1.658   4.267   4.608  0.9951 -1.0306 -1.1522
   80SOPE  H17Y 7324   1.539   4.193   4.718 -1.4006  0.0925 -1.9799
   80SOPE  C318 7325   1.577   4.069   4.566  0.3648 -1.4214 -0.5683
   80SOPE  H18X 7326   1.531   3.990   4.629 -0.3638  1.2670  2.5461
   80SOPE  H18Y 7327   1.658   4.026   4.503  2.0356  0.0243  0.4934
   80SOPE  H18Z 7328   1.494   4.116   4.510  0.3763  2.6462  2.3436
   81SOPE     N 7329   5.136   1.304   7.238  0.3659  0.1245 -0.1004
   81SOPE   HN1 7330   5.038   1.303   7.273  1.0079 -1.1136  1.8176
   81SOPE   HN2 7331   5.157   1.224   7.175 -0.1957  0.6655 -1.0036
   81SOPE   HN3 7332   5.199   1.298   7.320  0.5073  0.6009 -0.1664
   81SOPE   C12 7333   5.180   1.427   7.164  0.1725  0.5798  0.1088
   81SOPE  H12A 7334   5.147   1.517   7.220  0.8797  0.4652  0.7422
   81SOPE  H12B 7335   5.136   1.428   7.062  1.2613 -0.7146 -0.4025
   81SOPE   C11 7336   5.333   1.421   7.157  0.8376  0.5795 -0.0136
   81SOPE  H11A 7337   5.387   1.425   7.254  2.4760  2.5348 -0.9496
   81SOPE  H11B 7338   5.361   1.512   7.100  1.8642 -1.6259 -3.3332
   81SOPE     P 7339   5.535   1.300   7.063 -0.1852 -0.3335  0.2926
   81SOPE   O13 7340   5.568   1.165   7.017 -0.1246 -0.1895 -0.3439
   81SOPE   O14 7341   5.617   1.359   7.174  0.4059 -0.0425  0.8923
   81SOPE   O12 7342   5.378   1.301   7.091  0.0668 -0.7831 -0.5524
   81SOPE   O11 7343   5.556   1.409   6.949  0.0376  0.6683  0.2281
   81SOPE    C1 7344   5.465   1.429   6.843 -0.0620  1.4368  0.1565
   81SOPE    HA 7345   5.511   1.515   6.791  0.2703  1.7263  0.9055
   81SOPE    HB 7346   5.367   1.456   6.886 -0.1056 -0.5454  1.4674
   81SOPE    C2 7347   5.441   1.307   6.749 -0.4673  0.1225 -0.1584
   81SOPE    HS 7348   5.381   1.237   6.811 -1.0722  1.5547  0.9203
   81SOPE   O21 7349   5.563   1.242   6.710  0.1701  0.2375 -0.3558
   81SOPE   C21 7350   5.566   1.110   6.701 -0.4817 -0.2727 -0.0531
   81SOPE   O22 7351   5.465   1.038   6.724 -0.2684 -0.1711 -0.0720
   81SOPE   C22 7352   5.705   1.071   6.664 -0.1291  0.9271 -0.8392
   81SOPE   H2R 7353   5.772   1.101   6.748 -0.5046 -2.6178  0.8936
   81SOPE   H2S 7354   5.741   1.114   6.568 -0.8605  0.4252 -1.3466
   81SOPE    C3 7355   5.351   1.351   6.624  0.3863  0.7037  0.6753
   81SOPE    HX 7356   5.395   1.426   6.555  0.4795 -1.6088 -1.9487
   81SOPE    HY 7357   5.262   1.400   6.669  0.9996  1.3088  1.2533
   81SOPE   O31 7358   5.318   1.231   6.543 -0.1427  0.2134 -0.2509
   81SOPE   C31 7359   5.239   1.139   6.593 -0.6466 -0.3998  0.3526
   81SOPE   O32 7360   5.174   1.148   6.695 -0.1728 -0.4226 -0.8480
   81SOPE   C32 7361   5.247   1.007   6.504 -0.3520 -0.1695  0.0589
   81SOPE   H2X 7362   5.276   0.932   6.581  1.2176 -0.5624 -0.8790
   81SOPE   H2Y 7363   5.330   1.025   6.434 -1.2468  5.2888 -0.0119
   81SOPE   C23 7364   5.716   0.917   6.664 -0.7976  1.0589 -0.3728
   81SOPE   H3R 7365   5.691   0.866   6.759  0.0250 -0.1081 -0.7672
   81SOPE   H3S 7366   5.824   0.894   6.659 -0.8270 -0.0966  2.5355
   81SOPE   C24 7367   5.650   0.839   6.553  0.6140  1.2114 -0.6405
   81SOPE   H4R 7368   5.702   0.741   6.545 -0.4792  0.6123 -0.6569
   81SOPE   H4S 7369   5.545   0.811   6.578  0.6292  1.3030 -0.4722
   81SOPE   C25 7370   5.642   0.903   6.418  0.3245 -0.2099  0.5784
   81SOPE   H5R 7371   5.564   0.982   6.419 -0.3578 -0.5090 -4.1682
   81SOPE   H5S 7372   5.748   0.934   6.407  0.0757  1.3666  2.2917
   81SOPE   C26 7373   5.611   0.804   6.300 -0.0155  0.4080 -0.4906
   81SOPE   H6R 7374   5.545   0.723   6.338  1.4813 -0.6225  0.0024
   81SOPE   H6S 7375   5.573   0.845   6.204  1.8516  0.0124 -1.4494
   81SOPE   C27 7376   5.751   0.738   6.263 -0.6688 -0.4949  0.1737
   81SOPE   H7R 7377   5.821   0.765   6.345  1.4822 -0.7694 -1.5058
   81SOPE   H7S 7378   5.739   0.628   6.261  0.1968 -0.6037  0.6506
   81SOPE   C28 7379   5.805   0.781   6.129  0.2422  0.1828 -0.2305
   81SOPE   H8R 7380   5.726   0.744   6.060  0.1913 -0.4977  0.1901
   81SOPE   H8S 7381   5.807   0.892   6.123  0.9026  0.1765 -0.2456
   81SOPE   C29 7382   5.939   0.719   6.102 -0.5879  0.0611 -0.1378
   81SOPE   H91 7383   6.013   0.737   6.181  0.1198 -0.3422 -0.6967
   81SOPE  C210 7384   5.977   0.666   5.985  0.3552  0.2964  0.0604
   81SOPE  H101 7385   6.071   0.611   5.969 -0.7380 -1.6561  0.0210
   81SOPE  C211 7386   5.889   0.633   5.873  0.7049 -0.4477  0.9536
   81SOPE  H11R 7387   5.800   0.699   5.877 -0.8755 -2.3983  0.0642
   81SOPE  H11S 7388   5.846   0.530   5.878  2.3905 -1.1816  0.9592
   81SOPE  C212 7389   5.956   0.641   5.732 -0.3345  0.1246 -0.3279
   81SOPE  H12R 7390   6.052   0.586   5.737  0.1210  0.8005 -1.4110
   81SOPE  H12S 7391   5.979   0.747   5.708  2.9682 -0.6220 -0.8320
   81SOPE  C213 7392   5.880   0.602   5.607 -0.1471 -0.8046  1.0299
   81SOPE  H13R 7393   5.787   0.663   5.599  0.5090  0.5022  2.8769
   81SOPE  H13S 7394   5.841   0.500   5.629 -2.2406 -1.0469 -2.8486
   81SOPE  C214 7395   5.957   0.608   5.471  0.0706  0.3075  0.0177
   81SOPE  H14R 7396   6.056   0.560   5.483 -1.0760 -1.5707  3.1368
   81SOPE  H14S 7397   5.975   0.717   5.457  0.7881  0.2402  0.3561
   81SOPE  C215 7398   5.886   0.543   5.353  0.2181 -0.6050 -0.4358
   81SOPE  H15R 7399   5.790   0.598   5.344  1.8024  2.8634  1.7235
   81SOPE  H15S 7400   5.874   0.435   5.379  1.9055 -0.5376  0.8284
   81SOPE  C216 7401   5.976   0.560   5.234  0.2309  0.5918 -0.6591
   81SOPE  H16R 7402   6.080   0.533   5.263 -0.6216 -0.2755  1.8555
   81SOPE  H16S 7403   5.982   0.665   5.198 -1.6189  1.3523  1.0561
   81SOPE  C217 7404   5.933   0.464   5.118  0.4497  0.1687  0.3467
   81SOPE  H17R 7405   5.826   0.491   5.104  0.3280 -1.0800 -1.4765
   81SOPE  H17S 7406   5.947   0.364   5.164 -2.4213  0.0516  1.1225
   81SOPE  C218 7407   6.010   0.481   4.990 -0.0282  0.3123  0.2508
   81SOPE  H18R 7408   6.107   0.428   4.998 -0.8728 -1.4841 -0.9133
   81SOPE  H18S 7409   6.029   0.588   4.965  0.5106  0.4910  1.3442
   81SOPE  H18T 7410   5.957   0.436   4.904 -3.2209 -1.4387  2.9282
   81SOPE   C33 7411   5.112   0.979   6.437 -0.4453 -0.3047 -0.1071
   81SOPE   H3X 7412   5.063   1.067   6.390 -3.2661 -2.6629 -1.9910
   81SOPE   H3Y 7413   5.048   0.959   6.525  0.9831  1.1737  1.3216
   81SOPE   C34 7414   5.116   0.864   6.337  0.7299  0.0611 -0.6152
   81SOPE   H4X 7415   5.016   0.849   6.292  0.5596  0.6771 -0.4460
   81SOPE   H4Y 7416   5.135   0.770   6.394 -1.1213 -1.0450 -1.7142
   81SOPE   C35 7417   5.216   0.859   6.222 -0.5590  0.1565  0.1678
   81SOPE   H5X 7418   5.222   0.762   6.168 -0.0983  0.5733 -0.5398
   81SOPE   H5Y 7419   5.316   0.866   6.270 -0.2409  3.1484 -0.7364
   81SOPE   C36 7420   5.199   0.970   6.123 -0.0174 -0.2151 -0.0954
   81SOPE   H6X 7421   5.229   1.064   6.175  2.3624 -0.8051 -0.2998
   81SOPE   H6Y 7422   5.092   0.984   6.095 -0.5503 -2.0121  0.8818
   81SOPE   C37 7423   5.281   0.946   6.002 -0.1454  0.2586  0.3791
   81SOPE   H7X 7424   5.250   0.854   5.949 -2.8681  0.8280  0.8010
   81SOPE   H7Y 7425   5.386   0.933   6.036 -0.1652  1.0766  0.7781
   81SOPE   C38 7426   5.279   1.065   5.908  0.7121 -0.4847  0.3175
   81SOPE   H8X 7427   5.341   1.153   5.935  0.7680 -0.2434 -0.5408
   81SOPE   H8Y 7428   5.171   1.090   5.904  1.1412  1.8756  1.9590
   81SOPE   C39 7429   5.335   1.040   5.767 -0.3798  0.3591 -0.1684
   81SOPE   H9X 7430   5.287   0.946   5.733  1.6655 -1.9160  2.6936
   81SOPE   H9Y 7431   5.446   1.031   5.767 -0.4686 -1.0111 -1.5405
   81SOPE  C310 7432   5.300   1.155   5.671 -0.1513 -0.9117  0.3133
   81SOPE  H10X 7433   5.365   1.243   5.691 -1.7574  0.5441 -0.6843
   81SOPE  H10Y 7434   5.192   1.177   5.682 -0.0899 -0.6353  0.3639
   81SOPE  C311 7435   5.325   1.123   5.526 -0.0265 -0.1778  0.7246
   81SOPE  H11X 7436   5.269   1.031   5.499 -0.1854  0.5242 -1.4876
   81SOPE  H11Y 7437   5.432   1.103   5.505  1.0071  2.9361  2.3977
   81SOPE  C312 7438   5.258   1.224   5.433 -0.2098 -0.5134 -0.1273
   81SOPE  H12X 7439   5.298   1.326   5.451  2.3201 -1.1217 -1.7882
   81SOPE  H12Y 7440   5.147   1.229   5.439 -0.1027  2.9596  4.0308
   81SOPE  C313 7441   5.285   1.197   5.277 -0.5902 -0.2948 -0.0276
   81SOPE  H13X 7442   5.391   1.215   5.247 -0.5915  0.7472  0.5384
   81SOPE  H13Y 7443   5.227   1.282   5.236  1.4953  1.8249  1.1048
   81SOPE  C314 7444   5.228   1.066   5.223 -0.4417  0.0302  0.2400
   81SOPE  H14X 7445   5.122   1.045   5.249 -0.9428  1.9864 -0.0560
   81SOPE  H14Y 7446   5.294   0.983   5.257  0.2548  0.6208  0.3527
   81SOPE  C315 7447   5.232   1.071   5.070 -0.2001  0.7117  0.1800
   81SOPE  H15X 7448   5.336   1.094   5.039 -0.2318  2.3439  1.2089
   81SOPE  H15Y 7449   5.164   1.148   5.027 -0.1949 -0.4027 -1.9532
   81SOPE  C316 7450   5.175   0.940   5.013 -0.5778  0.2350  0.3120
   81SOPE  H16X 7451   5.065   0.947   5.027 -0.5791  1.0475 -0.0656
   81SOPE  H16Y 7452   5.207   0.859   5.081  3.7519  0.9038 -0.6714
   81SOPE  C317 7453   5.231   0.915   4.871  0.1239 -0.1192 -0.1036
   81SOPE  H17X 7454   5.330   0.865   4.880 -0.6998 -1.4337  3.0084
   81SOPE  H17Y 7455   5.251   1.015   4.826 -1.1680  0.0108 -0.4160
   81SOPE  C318 7456   5.134   0.837   4.791  0.4777 -0.0139  0.2053
   81SOPE  H18X 7457   5.177   0.826   4.689  1.8995 -0.6088  0.8399
   81SOPE  H18Y 7458   5.039   0.894   4.793 -0.1740 -1.0979  1.0003
   81SOPE  H18Z 7459   5.134   0.735   4.834 -0.6336  0.5370  1.6079
   82SOPE     N 7460   3.100   1.975   6.495 -0.8677  0.1400  0.6207
   82SOPE   HN1 7461   3.068   2.063   6.540 -1.6493 -0.0821  0.5211
   82SOPE   HN2 7462   3.083   1.976   6.392  1.5052  1.3871  0.1865
   82SOPE   HN3 7463   3.036   1.908   6.542  0.4321 -0.9988  0.8107
   82SOPE   C12 7464   3.239   1.960   6.547 -0.0686 -0.1976 -0.1386
   82SOPE  H12A 7465   3.298   1.921   6.461 -0.0458 -0.6450  0.0761
   82SOPE  H12B 7466   3.233   1.888   6.631 -2.7548 -1.0808 -0.9771
   82SOPE   C11 7467   3.304   2.100   6.595  0.7096  0.2762  1.2746
   82SOPE  H11A 7468   3.413   2.081   6.597  0.5977 -1.6668 -2.4537
   82SOPE  H11B 7469   3.259   2.119   6.695  2.9966  1.4859  2.1631
   82SOPE     P 7470   3.375   2.287   6.424  0.3873 -0.1595 -0.2683
   82SOPE   O13 7471   3.460   2.343   6.529  0.3085 -0.2452  0.4500
   82SOPE   O14 7472   3.310   2.378   6.329  0.2189  0.2202  0.2952
   82SOPE   O12 7473   3.265   2.201   6.502 -0.0860  0.3997  0.5289
   82SOPE   O11 7474   3.452   2.174   6.349  0.6473  0.0958 -0.0249
   82SOPE    C1 7475   3.592   2.163   6.375 -0.1285 -0.1308 -0.4829
   82SOPE    HA 7476   3.609   2.119   6.476  1.2263 -1.5445 -1.2903
   82SOPE    HB 7477   3.648   2.259   6.373  0.2502 -0.2333  2.0133
   82SOPE    C2 7478   3.676   2.083   6.270  0.7254 -0.6048 -0.3559
   82SOPE    HS 7479   3.775   2.072   6.318  1.0303  0.6187 -0.6806
   82SOPE   O21 7480   3.681   2.162   6.146  0.5296  0.0576  0.2837
   82SOPE   C21 7481   3.798   2.173   6.080  0.4533  0.3891 -0.0234
   82SOPE   O22 7482   3.902   2.120   6.120  0.3904 -0.1030  0.2141
   82SOPE   C22 7483   3.780   2.249   5.949 -0.0038 -0.7204 -0.3485
   82SOPE   H2R 7484   3.876   2.306   5.944  0.5228 -1.3246  1.9050
   82SOPE   H2S 7485   3.689   2.313   5.946 -0.0369 -0.7665 -2.7169
   82SOPE    C3 7486   3.613   1.948   6.242 -0.6924  0.3649  0.7285
   82SOPE    HX 7487   3.510   1.966   6.203 -1.3714 -0.9328  1.8381
   82SOPE    HY 7488   3.579   1.887   6.328 -3.2225 -2.8762 -2.2541
   82SOPE   O31 7489   3.677   1.874   6.137 -0.3008  0.2096 -0.0341
   82SOPE   C31 7490   3.794   1.825   6.184 -0.7699  0.1126 -0.0075
   82SOPE   O32 7491   3.825   1.828   6.302  0.0679 -0.5709  0.2129
   82SOPE   C32 7492   3.873   1.748   6.071  0.3548 -0.0177 -0.3582
   82SOPE   H2X 7493   3.809   1.660   6.049 -0.3067  0.9463 -2.5954
   82SOPE   H2Y 7494   3.973   1.718   6.109 -0.0833 -2.1495 -0.7419
   82SOPE   C23 7495   3.787   2.153   5.827  0.3277 -0.0503  0.3139
   82SOPE   H3R 7496   3.718   2.067   5.839  0.4794 -0.5249 -1.7887
   82SOPE   H3S 7497   3.892   2.118   5.825  0.0584 -0.8583 -0.5054
   82SOPE   C24 7498   3.756   2.215   5.688 -0.3813 -0.6686  0.0234
   82SOPE   H4R 7499   3.651   2.250   5.694 -0.7402 -1.9158  1.9271
   82SOPE   H4S 7500   3.832   2.296   5.678 -0.0108 -1.2247 -2.5390
   82SOPE   C25 7501   3.779   2.115   5.577 -0.4083  0.5577  0.3541
   82SOPE   H5R 7502   3.883   2.077   5.569 -1.2299 -1.7174 -0.3444
   82SOPE   H5S 7503   3.718   2.026   5.603  0.4635 -0.1621 -0.0144
   82SOPE   C26 7504   3.744   2.188   5.441 -0.6076  0.1064  0.4571
   82SOPE   H6R 7505   3.634   2.182   5.425 -0.1658  0.8546 -4.3584
   82SOPE   H6S 7506   3.774   2.295   5.442  1.2072 -0.3644 -0.6191
   82SOPE   C27 7507   3.808   2.114   5.317 -0.0146  0.1466 -0.4690
   82SOPE   H7R 7508   3.918   2.127   5.326 -0.0065  0.3745 -0.8811
   82SOPE   H7S 7509   3.794   2.004   5.331 -2.0090  0.4381  0.1112
   82SOPE   C28 7510   3.753   2.158   5.180  0.4400 -0.2855 -0.2568
   82SOPE   H8R 7511   3.644   2.139   5.174  0.7190 -2.9426  1.4696
   82SOPE   H8S 7512   3.767   2.268   5.170  2.3115 -0.0789  3.1323
   82SOPE   C29 7513   3.824   2.077   5.074  0.2540  0.0453  0.4970
   82SOPE   H91 7514   3.927   2.047   5.099  1.3014  2.5800 -0.3579
   82SOPE  C210 7515   3.773   2.064   4.944 -0.3498 -0.2456  0.0047
   82SOPE  H101 7516   3.838   2.021   4.867 -1.5749 -0.2538 -1.0613
   82SOPE  C211 7517   3.640   2.121   4.900  0.1763 -0.0907 -0.2335
   82SOPE  H11R 7518   3.593   2.170   4.988  1.7996  0.2281  0.4921
   82SOPE  H11S 7519   3.569   2.049   4.855 -0.6315  0.5183  0.0469
   82SOPE  C212 7520   3.660   2.238   4.800  0.4552 -0.2010 -0.0399
   82SOPE  H12R 7521   3.729   2.317   4.835 -0.2730  0.2420  0.4141
   82SOPE  H12S 7522   3.566   2.296   4.791  0.2065 -0.4531  0.9142
   82SOPE  C213 7523   3.700   2.207   4.655  0.3001  0.3287 -0.0930
   82SOPE  H13R 7524   3.613   2.148   4.618  0.4055 -0.2719  0.6063
   82SOPE  H13S 7525   3.785   2.136   4.660  0.0404 -0.0543 -0.9387
   82SOPE  C214 7526   3.724   2.339   4.574 -0.3016  0.5594 -0.2057
   82SOPE  H14R 7527   3.825   2.371   4.609  0.5851 -2.5730  0.4235
   82SOPE  H14S 7528   3.665   2.431   4.594 -1.2248 -0.3423  1.4815
   82SOPE  C215 7529   3.719   2.324   4.423  0.1779  0.3972  0.2747
   82SOPE  H15R 7530   3.740   2.414   4.362  0.1477 -0.6282 -1.2818
   82SOPE  H15S 7531   3.616   2.299   4.390  0.9699 -0.7117 -1.4475
   82SOPE  C216 7532   3.798   2.210   4.370 -0.0276  0.5106  0.0984
   82SOPE  H16R 7533   3.791   2.201   4.259  1.3502  0.6928 -0.0296
   82SOPE  H16S 7534   3.769   2.111   4.412 -0.7740  0.1841 -1.1432
   82SOPE  C217 7535   3.950   2.225   4.392 -0.4026 -0.4955 -0.7889
   82SOPE  H17R 7536   3.970   2.244   4.499  1.5099  0.4315 -1.2641
   82SOPE  H17S 7537   3.984   2.313   4.333 -1.7070  0.3471 -0.3431
   82SOPE  C218 7538   4.037   2.106   4.356 -0.2683 -0.5924  0.0366
   82SOPE  H18R 7539   4.141   2.122   4.391 -0.1303  0.5620 -0.8303
   82SOPE  H18S 7540   4.034   2.088   4.247 -1.1670  3.3592 -0.7512
   82SOPE  H18T 7541   4.004   2.014   4.409 -0.5264 -1.4317 -1.5165
   82SOPE   C33 7542   3.871   1.824   5.934 -0.5901  0.3906 -0.5867
   82SOPE   H3X 7543   3.931   1.918   5.944 -0.2322  0.3843 -2.3044
   82SOPE   H3Y 7544   3.773   1.860   5.898 -0.5780  2.9908  1.6212
   82SOPE   C34 7545   3.950   1.744   5.824 -0.1273  0.0832 -0.3158
   82SOPE   H4X 7546   3.907   1.642   5.815  0.6673 -0.2242 -0.7135
   82SOPE   H4Y 7547   4.056   1.740   5.855  0.5992  1.2225 -2.4850
   82SOPE   C35 7548   3.951   1.821   5.695 -0.2447 -0.3349 -0.6672
   82SOPE   H5X 7549   4.010   1.915   5.697  2.2337 -1.7891  0.4590
   82SOPE   H5Y 7550   3.849   1.854   5.666 -0.4384 -1.6552 -1.5628
   82SOPE   C36 7551   4.028   1.747   5.578  0.8822 -0.1215 -0.3722
   82SOPE   H6X 7552   3.969   1.658   5.549  1.4475 -1.9435  3.4080
   82SOPE   H6Y 7553   4.135   1.730   5.603  1.1064  0.7484 -0.6866
   82SOPE   C37 7554   4.035   1.843   5.457 -0.0015 -0.2105  0.7529
   82SOPE   H7X 7555   4.076   1.945   5.477  0.4426  0.0501 -1.1696
   82SOPE   H7Y 7556   3.930   1.860   5.424  0.6705  1.5312 -0.6775
   82SOPE   C38 7557   4.116   1.795   5.339 -0.0286  1.2997 -0.1094
   82SOPE   H8X 7558   4.082   1.691   5.315 -0.5067  1.4918 -0.2764
   82SOPE   H8Y 7559   4.224   1.791   5.363  0.4474 -2.6642 -2.0286
   82SOPE   C39 7560   4.094   1.886   5.215  0.3284  0.4363 -0.7190
   82SOPE   H9X 7561   4.094   1.996   5.234  1.8000  0.3533 -0.1068
   82SOPE   H9Y 7562   3.991   1.868   5.177  0.3074 -0.7637 -0.1176
   82SOPE  C310 7563   4.181   1.860   5.097  0.8972 -0.6202 -0.1374
   82SOPE  H10X 7564   4.175   1.749   5.090 -2.0721 -0.4614 -1.6054
   82SOPE  H10Y 7565   4.286   1.896   5.099  0.6876  0.0057 -0.4253
   82SOPE  C311 7566   4.119   1.908   4.964  0.4110 -0.4443  0.4813
   82SOPE  H11X 7567   4.139   2.016   4.945  1.1551 -0.8335 -1.0790
   82SOPE  H11Y 7568   4.010   1.888   4.969 -0.1332  2.3837  3.5309
   82SOPE  C312 7569   4.188   1.838   4.849 -0.0667  0.2476 -0.0133
   82SOPE  H12X 7570   4.172   1.730   4.868  1.1048  0.2592  1.2134
   82SOPE  H12Y 7571   4.295   1.869   4.860  0.1708 -0.8957  1.1471
   82SOPE  C313 7572   4.142   1.880   4.715  0.6946  0.6752 -0.4444
   82SOPE  H13X 7573   4.215   1.836   4.645  3.1049  1.3496  1.4861
   82SOPE  H13Y 7574   4.156   1.990   4.701 -0.6598  1.0723  1.0900
   82SOPE  C314 7575   4.001   1.840   4.671 -0.2917 -0.9058  0.0618
   82SOPE  H14X 7576   3.965   1.915   4.598 -2.2540  0.4680  2.2914
   82SOPE  H14Y 7577   3.923   1.849   4.750 -1.2783  0.4284 -1.0332
   82SOPE  C315 7578   3.992   1.702   4.610 -0.0774 -0.5210  0.1557
   82SOPE  H15X 7579   4.039   1.631   4.681  2.4901  0.2309 -0.6945
   82SOPE  H15Y 7580   4.046   1.707   4.513 -0.6376 -0.5233 -0.1645
   82SOPE  C316 7581   3.845   1.672   4.581 -0.1349 -0.2817  0.1447
   82SOPE  H16X 7582   3.811   1.756   4.516  2.2134  0.6479  0.0426
   82SOPE  H16Y 7583   3.782   1.680   4.673  1.6218  0.8361  1.2959
   82SOPE  C317 7584   3.813   1.527   4.540  0.7755  0.0947 -0.4382
   82SOPE  H17X 7585   3.809   1.462   4.630 -1.3301  2.0156  0.9595
   82SOPE  H17Y 7586   3.903   1.505   4.478  0.8750 -3.1755  0.6745
   82SOPE  C318 7587   3.683   1.506   4.457  0.4738 -0.4295  0.0754
   82SOPE  H18X 7588   3.699   1.554   4.358  1.8125 -1.4168 -0.2067
   82SOPE  H18Y 7589   3.594   1.554   4.503 -2.3820 -2.4988 -2.9262
   82SOPE  H18Z 7590   3.661   1.398   4.445 -0.8576 -0.0080 -1.5254
   83SOPE     N 7591   0.571   6.192   2.110  0.0920  0.5290  0.0592
   83SOPE   HN1 7592   0.497   6.119   2.112  0.1042  0.2033 -3.5292
   83SOPE   HN2 7593   0.532   6.288   2.099  1.1041  0.9443  0.0021
   83SOPE   HN3 7594   0.620   6.174   2.020  1.8615  0.8263  0.9245
   83SOPE   C12 7595   0.674   6.186   2.223  0.5063  0.2714 -0.2872
   83SOPE  H12A 7596   0.702   6.080   2.238  0.9954  0.3744 -0.4707
   83SOPE  H12B 7597   0.625   6.232   2.311 -1.5439 -3.0006  0.4541
   83SOPE   C11 7598   0.795   6.264   2.177 -0.4645  0.7561 -0.2791
   83SOPE  H11A 7599   0.775   6.371   2.157  1.6373  0.6941 -3.5460
   83SOPE  H11B 7600   0.822   6.239   2.072 -0.5037 -0.4396 -0.0231
   83SOPE     P 7601   0.973   6.334   2.365 -0.5547  0.5228 -0.1675
   83SOPE   O13 7602   0.999   6.451   2.285 -0.8323  0.2802 -0.2013
   83SOPE   O14 7603   1.090   6.267   2.432  0.5229 -0.1779  0.1751
   83SOPE   O12 7604   0.902   6.236   2.268 -0.2130  0.5624  0.1603
   83SOPE   O11 7605   0.860   6.357   2.479 -0.3353  0.2159  0.1234
   83SOPE    C1 7606   0.814   6.263   2.573  0.3809  0.4970 -0.8817
   83SOPE    HA 7607   0.837   6.158   2.546  0.7809 -0.0358  1.3341
   83SOPE    HB 7608   0.705   6.276   2.586 -0.0059  0.2515 -3.3360
   83SOPE    C2 7609   0.891   6.279   2.714 -0.2959 -1.0055  0.6421
   83SOPE    HS 7610   1.001   6.269   2.705 -0.0623 -1.5541  3.4263
   83SOPE   O21 7611   0.841   6.182   2.798  0.5760 -0.3540 -0.0588
   83SOPE   C21 7612   0.881   6.060   2.785 -0.2794 -0.1547 -0.9786
   83SOPE   O22 7613   0.972   6.021   2.714  0.5016  0.1847  0.3368
   83SOPE   C22 7614   0.795   5.973   2.882  0.4941 -0.0720 -0.0019
   83SOPE   H2R 7615   0.709   5.952   2.814  2.9251  2.7158 -4.4060
   83SOPE   H2S 7616   0.762   6.029   2.973  1.9924 -0.6269  0.9120
   83SOPE    C3 7617   0.874   6.423   2.763 -0.5391 -0.1503  0.1091
   83SOPE    HX 7618   0.765   6.441   2.768 -0.5512  0.3532 -1.4642
   83SOPE    HY 7619   0.908   6.504   2.694  0.2573  0.5818  1.3241
   83SOPE   O31 7620   0.935   6.444   2.891 -0.1748  0.0400  0.8451
   83SOPE   C31 7621   0.899   6.556   2.950  0.0164  0.1038  0.1458
   83SOPE   O32 7622   0.804   6.627   2.915 -0.5996  0.2371  0.0579
   83SOPE   C32 7623   0.985   6.581   3.082 -0.1094  0.4297  0.2964
   83SOPE   H2X 7624   0.915   6.587   3.169  0.9696  0.4093  1.1931
   83SOPE   H2Y 7625   1.039   6.677   3.069 -1.9562  1.3259 -1.0508
   83SOPE   C23 7626   0.853   5.835   2.906 -0.1106 -0.0164  0.2390
   83SOPE   H3R 7627   0.955   5.858   2.943  0.9347  1.4508 -3.1081
   83SOPE   H3S 7628   0.851   5.766   2.818  0.7634  0.1045  0.1155
   83SOPE   C24 7629   0.759   5.764   3.011 -0.7674  0.3236  0.3032
   83SOPE   H4R 7630   0.653   5.793   2.996 -0.5661  1.0288  0.1742
   83SOPE   H4S 7631   0.766   5.655   2.992  0.8923  0.8890 -3.0544
   83SOPE   C25 7632   0.826   5.800   3.147  0.6027  0.0262 -0.6108
   83SOPE   H5R 7633   0.916   5.734   3.146  1.2705  0.8415  1.2860
   83SOPE   H5S 7634   0.855   5.907   3.155 -2.3613  0.9336 -0.7963
   83SOPE   C26 7635   0.740   5.778   3.270  0.2561 -0.2088 -0.5501
   83SOPE   H6R 7636   0.785   5.820   3.363 -1.1184 -1.0217  0.5285
   83SOPE   H6S 7637   0.653   5.845   3.259  0.0352 -0.2214  0.8437
   83SOPE   C27 7638   0.702   5.630   3.305  0.4602  0.2932  0.4843
   83SOPE   H7R 7639   0.651   5.583   3.219  0.6564  1.3510 -0.2247
   83SOPE   H7S 7640   0.796   5.571   3.307 -0.6153 -1.5866 -1.0345
   83SOPE   C28 7641   0.637   5.608   3.440  0.5463  0.3506 -0.1005
   83SOPE   H8R 7642   0.620   5.500   3.462  0.9403  0.3709  0.3061
   83SOPE   H8S 7643   0.715   5.643   3.511 -0.1281 -1.3234  1.5531
   83SOPE   C29 7644   0.509   5.679   3.469 -0.1633  0.3601  0.1871
   83SOPE   H91 7645   0.444   5.695   3.381 -2.3359 -0.8576  1.4862
   83SOPE  C210 7646   0.464   5.714   3.590 -0.2919  0.5522  0.9497
   83SOPE  H101 7647   0.373   5.776   3.590 -0.3998  0.3962  1.1831
   83SOPE  C211 7648   0.550   5.709   3.712  0.2041  0.2601 -0.3321
   83SOPE  H11R 7649   0.649   5.759   3.712  0.4115 -0.1279 -0.9340
   83SOPE  H11S 7650   0.574   5.601   3.728  0.6432  0.7527  2.9546
   83SOPE  C212 7651   0.483   5.748   3.842 -0.8625 -0.0186 -0.3044
   83SOPE  H12R 7652   0.431   5.659   3.883 -2.4775  0.5075 -1.1179
   83SOPE  H12S 7653   0.404   5.826   3.835 -1.3007 -0.5187 -1.1581
   83SOPE  C213 7654   0.585   5.801   3.942 -0.3500 -0.6579  0.2252
   83SOPE  H13R 7655   0.640   5.891   3.907  0.3339 -0.6719  1.2078
   83SOPE  H13S 7656   0.666   5.727   3.964 -0.0145  0.0361  1.4353
   83SOPE  C214 7657   0.520   5.842   4.072  0.6520 -0.4897 -0.4779
   83SOPE  H14R 7658   0.439   5.769   4.096 -0.2978  1.2659  2.0991
   83SOPE  H14S 7659   0.484   5.947   4.066 -0.8782 -0.9205  0.4924
   83SOPE  C215 7660   0.613   5.834   4.202  0.8899 -0.0177 -0.0050
   83SOPE  H15R 7661   0.683   5.920   4.214  1.5682 -0.5345 -0.1500
   83SOPE  H15S 7662   0.687   5.751   4.204  0.8472 -0.0978 -1.0459
   83SOPE  C216 7663   0.530   5.843   4.337  0.3338 -0.2222  0.0439
   83SOPE  H16R 7664   0.601   5.828   4.422  0.0612  1.0749  0.5344
   83SOPE  H16S 7665   0.449   5.768   4.341 -2.9493  3.0760  1.4029
   83SOPE  C217 7666   0.468   5.984   4.362  0.3543  0.3021 -1.0939
   83SOPE  H17R 7667   0.387   6.001   4.287 -0.1975 -0.8425 -0.7689
   83SOPE  H17S 7668   0.556   6.050   4.345  2.0515 -1.3774  0.7283
   83SOPE  C218 7669   0.412   5.987   4.505  0.4400  0.0263 -0.1720
   83SOPE  H18R 7670   0.490   5.970   4.583 -2.5557  0.1982  3.0893
   83SOPE  H18S 7671   0.341   5.905   4.527  1.1329 -1.1489 -2.0612
   83SOPE  H18T 7672   0.352   6.077   4.533 -0.7758 -1.1040  0.9737
   83SOPE   C33 7673   1.102   6.479   3.110 -0.2333  0.4230  0.0816
   83SOPE   H3X 7674   1.164   6.471   3.018 -0.5949 -0.1987 -0.1149
   83SOPE   H3Y 7675   1.052   6.380   3.106 -0.8121  0.7402 -0.7049
   83SOPE   C34 7676   1.202   6.502   3.224 -0.3907 -0.2964  0.0090
   83SOPE   H4X 7677   1.268   6.590   3.208 -1.3344  0.0965 -2.0836
   83SOPE   H4Y 7678   1.266   6.413   3.204 -1.8912 -1.7100  1.1583
   83SOPE   C35 7679   1.138   6.498   3.359  0.2486 -0.3612 -0.7601
   83SOPE   H5X 7680   1.072   6.409   3.367 -0.7275  0.4727  0.9458
   83SOPE   H5Y 7681   1.075   6.589   3.374  1.2051  0.2915 -0.6274
   83SOPE   C36 7682   1.236   6.492   3.477  0.2624 -0.1898  0.4599
   83SOPE   H6X 7683   1.302   6.580   3.468  0.9131 -0.8632 -2.6743
   83SOPE   H6Y 7684   1.289   6.394   3.478 -0.3875 -0.5471  0.7515
   83SOPE   C37 7685   1.140   6.488   3.594 -0.1041  0.3692 -0.2166
   83SOPE   H7X 7686   1.070   6.402   3.588  0.5125 -0.1231 -0.4968
   83SOPE   H7Y 7687   1.080   6.581   3.609 -0.4683  0.5041 -2.2605
   83SOPE   C38 7688   1.223   6.462   3.722  0.4870  0.1364  0.1924
   83SOPE   H8X 7689   1.303   6.539   3.725 -0.3773  1.0171  1.1384
   83SOPE   H8Y 7690   1.256   6.356   3.718  1.8821  0.5808 -1.0801
   83SOPE   C39 7691   1.138   6.486   3.842 -0.0547  0.2058  0.1782
   83SOPE   H9X 7692   1.058   6.409   3.847 -1.0813  1.2511  0.2332
   83SOPE   H9Y 7693   1.073   6.575   3.829 -2.9670 -1.1819  3.4856
   83SOPE  C310 7694   1.208   6.511   3.974  0.3138 -0.9711  0.4242
   83SOPE  H10X 7695   1.271   6.601   3.959 -0.1217 -1.0248 -2.0958
   83SOPE  H10Y 7696   1.287   6.434   3.990 -1.6829 -3.4184 -0.8064
   83SOPE  C311 7697   1.114   6.538   4.086  0.6082  0.2379 -0.1587
   83SOPE  H11X 7698   1.038   6.457   4.081  0.5489  0.2967 -0.2175
   83SOPE  H11Y 7699   1.058   6.632   4.065 -0.7238 -0.3188  0.7651
   83SOPE  C312 7700   1.172   6.552   4.222 -0.8204  0.1998 -0.1168
   83SOPE  H12X 7701   1.255   6.625   4.223  0.8418 -1.5962 -0.4490
   83SOPE  H12Y 7702   1.230   6.460   4.245 -0.0620  0.1692 -1.9314
   83SOPE  C313 7703   1.071   6.590   4.325  0.3831  0.7110 -0.1930
   83SOPE  H13X 7704   0.992   6.513   4.338  1.6562 -0.3779  1.5755
   83SOPE  H13Y 7705   1.015   6.680   4.293 -0.5782 -0.0940 -0.8072
   83SOPE  C314 7706   1.128   6.621   4.463  0.7350 -0.8507 -0.2770
   83SOPE  H14X 7707   1.175   6.722   4.467 -0.5359 -0.0902 -2.5810
   83SOPE  H14Y 7708   1.210   6.547   4.479 -0.1079 -1.3693  1.9794
   83SOPE  C315 7709   1.024   6.604   4.579  0.2692 -0.4825  0.0915
   83SOPE  H15X 7710   0.976   6.505   4.568 -2.0140  0.5554  0.0778
   83SOPE  H15Y 7711   0.948   6.685   4.567  1.5111  0.8036  0.5332
   83SOPE  C316 7712   1.098   6.624   4.715 -0.9883  0.0242  0.3134
   83SOPE  H16X 7713   1.126   6.731   4.717 -2.0821  0.3013  1.8427
   83SOPE  H16Y 7714   1.186   6.556   4.723  0.4589  1.7544 -0.1696
   83SOPE  C317 7715   1.024   6.587   4.848  0.8164  0.0347  0.3977
   83SOPE  H17X 7716   1.077   6.499   4.891 -0.4745 -2.1674 -2.2141
   83SOPE  H17Y 7717   0.920   6.567   4.814  1.2856 -1.9554  0.0118
   83SOPE  C318 7718   1.033   6.694   4.949  0.0566  0.4546 -0.2273
   83SOPE  H18X 7719   1.139   6.723   4.966 -0.7455  2.5095  1.8141
   83SOPE  H18Y 7720   0.999   6.665   5.051 -1.1020 -0.0802 -0.7551
   83SOPE  H18Z 7721   0.981   6.784   4.910 -0.9666 -0.7878 -1.8268
   84SOPE     N 7722   5.833   4.767   2.534 -0.1808 -0.3316  0.4467
   84SOPE   HN1 7723   5.739   4.724   2.544 -0.2528  0.0138  1.3367
   84SOPE   HN2 7724   5.888   4.725   2.611  1.1242 -2.2161 -1.3855
   84SOPE   HN3 7725   5.817   4.868   2.554 -1.6790 -0.9135  2.5359
   84SOPE   C12 7726   5.910   4.741   2.412  0.2530  0.6020  0.3148
   84SOPE  H12A 7727   5.869   4.804   2.330 -0.6256  0.7950  0.8921
   84SOPE  H12B 7728   5.893   4.636   2.378  0.6745  0.9940 -1.2094
   84SOPE   C11 7729   6.062   4.768   2.438 -0.1575 -0.0682  0.0811
   84SOPE  H11A 7730   6.062   4.876   2.464 -1.0823 -0.3485  1.3070
   84SOPE  H11B 7731   6.108   4.765   2.336 -1.1188 -0.3719 -0.3545
   84SOPE     P 7732   6.244   4.699   2.609 -1.0076 -0.4339  0.5028
   84SOPE   O13 7733   6.350   4.729   2.507 -0.0191 -0.4115  0.3058
   84SOPE   O14 7734   6.271   4.582   2.699 -0.4564  0.4141  0.1181
   84SOPE   O12 7735   6.116   4.664   2.527  0.2335 -0.4200 -0.4452
   84SOPE   O11 7736   6.210   4.828   2.691 -0.6197 -0.2123  0.0511
   84SOPE    C1 7737   6.104   4.857   2.776  0.5165 -0.1925  0.0907
   84SOPE    HA 7738   6.016   4.792   2.754 -0.3501  0.7895  0.5405
   84SOPE    HB 7739   6.086   4.967   2.769 -0.0067 -0.3769 -2.4222
   84SOPE    C2 7740   6.146   4.827   2.927 -0.3619  0.1374 -0.0965
   84SOPE    HS 7741   6.178   4.721   2.924 -1.3417 -0.1544 -0.5244
   84SOPE   O21 7742   6.043   4.858   3.028  0.8791  0.0054  0.7719
   84SOPE   C21 7743   5.944   4.770   3.043  0.8033  0.1159  0.5633
   84SOPE   O22 7744   5.935   4.662   2.984 -0.6736 -0.2391 -0.3914
   84SOPE   C22 7745   5.853   4.824   3.153  1.0317  0.3300  0.6307
   84SOPE   H2R 7746   5.753   4.777   3.136  0.3047  1.2586  2.0960
   84SOPE   H2S 7747   5.838   4.933   3.138  1.1826  0.7400  3.0725
   84SOPE    C3 7748   6.273   4.911   2.960  0.4338  0.2694 -1.0675
   84SOPE    HX 7749   6.254   5.012   2.916  2.8742  1.6394  0.7451
   84SOPE    HY 7750   6.360   4.885   2.896 -0.8879 -0.2753 -2.7170
   84SOPE   O31 7751   6.302   4.913   3.101 -0.4597 -0.3291 -0.3753
   84SOPE   C31 7752   6.364   4.807   3.150 -0.7647 -0.0752  0.1631
   84SOPE   O32 7753   6.398   4.709   3.085 -0.9976 -0.3266 -0.7291
   84SOPE   C32 7754   6.379   4.825   3.300 -0.8086 -0.2165  0.4770
   84SOPE   H2X 7755   6.287   4.863   3.349 -0.7761 -1.6021  1.6747
   84SOPE   H2Y 7756   6.460   4.897   3.323 -1.0350 -0.2237  1.3195
   84SOPE   C23 7757   5.893   4.797   3.299 -0.4077  0.0629 -1.0072
   84SOPE   H3R 7758   6.003   4.795   3.308 -0.4845  0.0909  0.2264
   84SOPE   H3S 7759   5.865   4.694   3.331  0.2576 -0.1489 -1.0891
   84SOPE   C24 7760   5.826   4.891   3.404  0.0386 -0.4453  0.4307
   84SOPE   H4R 7761   5.851   4.994   3.371 -0.0717 -0.8545 -0.9913
   84SOPE   H4S 7762   5.715   4.883   3.404  0.0988 -1.6224  1.4719
   84SOPE   C25 7763   5.874   4.859   3.551  0.4514 -0.0666  0.5430
   84SOPE   H5R 7764   5.874   4.749   3.568 -0.2250 -0.4674 -1.7498
   84SOPE   H5S 7765   5.980   4.885   3.572  0.8126 -1.2709  0.2884
   84SOPE   C26 7766   5.801   4.935   3.659 -0.9641 -0.5641  0.3254
   84SOPE   H6R 7767   5.828   5.042   3.644 -0.6369 -0.5073  1.2266
   84SOPE   H6S 7768   5.693   4.931   3.634 -1.0540 -2.1953  0.8371
   84SOPE   C27 7769   5.824   4.892   3.803  0.7393  0.7627  0.3126
   84SOPE   H7R 7770   5.813   4.783   3.819 -3.8097  0.8418 -0.8404
   84SOPE   H7S 7771   5.934   4.903   3.815  1.0384  0.2514 -1.6777
   84SOPE   C28 7772   5.747   4.950   3.922  0.5459  0.0706  1.0837
   84SOPE   H8R 7773   5.745   5.058   3.895  2.5627 -0.0464  0.2695
   84SOPE   H8S 7774   5.642   4.916   3.916  0.4164  0.3908  1.4641
   84SOPE   C29 7775   5.808   4.947   4.062  0.7167  0.7201 -0.1933
   84SOPE   H91 7776   5.898   5.006   4.084  1.6856 -0.5257 -0.7062
   84SOPE  C210 7777   5.765   4.869   4.162 -0.3608  0.4852 -0.1252
   84SOPE  H101 7778   5.822   4.869   4.257  0.3057 -1.0338 -0.4933
   84SOPE  C211 7779   5.637   4.796   4.158  0.6100 -0.2035 -0.6372
   84SOPE  H11R 7780   5.604   4.764   4.057  0.7857  0.6847 -0.9807
   84SOPE  H11S 7781   5.555   4.863   4.192 -0.3361 -0.4355 -2.3750
   84SOPE  C212 7782   5.638   4.672   4.253 -0.0362  0.8538 -0.1606
   84SOPE  H12R 7783   5.538   4.623   4.253  0.2980  0.0573  2.3891
   84SOPE  H12S 7784   5.649   4.707   4.358  2.8778 -0.8790  0.2052
   84SOPE  C213 7785   5.758   4.575   4.226  0.8302 -0.2545  1.2851
   84SOPE  H13R 7786   5.775   4.504   4.310  0.4271 -0.2272  1.3894
   84SOPE  H13S 7787   5.851   4.634   4.215  0.8609 -0.6496 -1.1587
   84SOPE  C214 7788   5.736   4.490   4.093 -0.8598 -0.1663 -0.6104
   84SOPE  H14R 7789   5.823   4.421   4.100 -1.2768 -0.5680  1.3242
   84SOPE  H14S 7790   5.749   4.546   3.998  1.6630 -0.1142 -0.3065
   84SOPE  C215 7791   5.611   4.408   4.088  1.0576  0.4583 -0.0089
   84SOPE  H15R 7792   5.613   4.345   3.996 -1.1694 -0.0228  0.1978
   84SOPE  H15S 7793   5.519   4.471   4.079 -0.7066 -1.7406  1.3343
   84SOPE  C216 7794   5.593   4.310   4.198  0.7638 -0.6368  0.2369
   84SOPE  H16R 7795   5.487   4.277   4.194  0.4480  0.4453 -1.0759
   84SOPE  H16S 7796   5.615   4.363   4.294  0.9801  0.9546 -0.6510
   84SOPE  C217 7797   5.685   4.190   4.194 -0.6779  0.3499  0.1668
   84SOPE  H17R 7798   5.786   4.232   4.176 -1.0244  1.3290  0.4261
   84SOPE  H17S 7799   5.660   4.130   4.104  0.3693 -0.3227  0.3112
   84SOPE  C218 7800   5.686   4.101   4.319  0.7020 -0.5761 -0.0718
   84SOPE  H18R 7801   5.735   4.004   4.298  1.4994 -0.7079  2.0759
   84SOPE  H18S 7802   5.579   4.085   4.345  0.5888  0.8873  0.4751
   84SOPE  H18T 7803   5.735   4.155   4.403 -1.1302 -2.6923  2.5292
   84SOPE   C33 7804   6.413   4.704   3.379  0.6531 -0.0514 -0.4675
   84SOPE   H3X 7805   6.517   4.670   3.358 -0.0488 -3.0721  0.3915
   84SOPE   H3Y 7806   6.346   4.625   3.339 -0.2762  1.0110 -1.0735
   84SOPE   C34 7807   6.394   4.709   3.528  0.6633  0.5164  0.5075
   84SOPE   H4X 7808   6.417   4.607   3.565 -2.6984 -0.6307 -0.1683
   84SOPE   H4Y 7809   6.288   4.731   3.555  0.7615  1.1328  0.3975
   84SOPE   C35 7810   6.480   4.819   3.589  0.0339  0.3911  0.3464
   84SOPE   H5X 7811   6.444   4.916   3.548  0.6506  0.5576  0.1951
   84SOPE   H5Y 7812   6.585   4.821   3.553 -0.8374 -3.0367 -3.0023
   84SOPE   C36 7813   6.473   4.829   3.739 -0.1012 -0.1390  0.6583
   84SOPE   H6X 7814   6.556   4.887   3.784 -1.1748  2.5178 -0.5271
   84SOPE   H6Y 7815   6.478   4.725   3.776 -2.0517 -1.0405 -1.3561
   84SOPE   C37 7816   6.348   4.902   3.780  0.1248 -0.2575  0.3633
   84SOPE   H7X 7817   6.264   4.854   3.727  0.2280 -0.2999  0.2377
   84SOPE   H7Y 7818   6.346   5.010   3.756 -2.5431 -0.7845 -2.2513
   84SOPE   C38 7819   6.341   4.884   3.929 -0.1021  0.1671 -0.1530
   84SOPE   H8X 7820   6.430   4.932   3.975  0.1189 -0.6539  0.3007
   84SOPE   H8Y 7821   6.334   4.777   3.958 -0.6252  0.3719  0.5266
   84SOPE   C39 7822   6.231   4.976   3.987 -0.2805 -0.4319 -0.5216
   84SOPE   H9X 7823   6.129   4.948   3.954  0.0731 -0.9951 -1.1792
   84SOPE   H9Y 7824   6.255   5.078   3.951 -0.9688 -0.7349 -1.9219
   84SOPE  C310 7825   6.226   4.976   4.138  0.0796 -0.3194 -0.4289
   84SOPE  H10X 7826   6.134   5.026   4.175  0.7269  0.8977 -0.4410
   84SOPE  H10Y 7827   6.311   5.033   4.182 -0.5104 -0.6043  1.1662
   84SOPE  C311 7828   6.233   4.830   4.201  0.5705 -0.5020  0.2661
   84SOPE  H11X 7829   6.328   4.781   4.172  1.1636 -0.1179  1.4918
   84SOPE  H11Y 7830   6.147   4.780   4.151 -0.3113  0.5636  0.6786
   84SOPE  C312 7831   6.211   4.839   4.352 -0.2900  0.3062 -0.2258
   84SOPE  H12X 7832   6.119   4.896   4.376 -0.5143  0.0406 -0.4495
   84SOPE  H12Y 7833   6.305   4.882   4.394 -0.3429  0.7672 -0.5716
   84SOPE  C313 7834   6.173   4.701   4.415  0.2351  0.9551 -0.5258
   84SOPE  H13X 7835   6.265   4.640   4.410  1.0472  2.1289 -0.2978
   84SOPE  H13Y 7836   6.089   4.648   4.365 -0.2106  1.2618 -0.1137
   84SOPE  C314 7837   6.146   4.722   4.569  0.1501  0.2694  0.0582
   84SOPE  H14X 7838   6.211   4.805   4.605 -0.3890  0.6975  0.0594
   84SOPE  H14Y 7839   6.151   4.622   4.616 -1.5768  0.8813  1.7023
   84SOPE  C315 7840   5.996   4.763   4.584 -0.1821  0.2073  0.0080
   84SOPE  H15X 7841   5.937   4.683   4.536 -1.9433  0.2648  1.9309
   84SOPE  H15Y 7842   5.979   4.857   4.527  1.3735 -0.2837 -1.3623
   84SOPE  C316 7843   5.934   4.763   4.722 -0.1410  0.1563  0.3184
   84SOPE  H16X 7844   5.990   4.837   4.783  0.2742 -1.1026  1.5289
   84SOPE  H16Y 7845   5.958   4.665   4.767  0.2463  0.4329  0.7215
   84SOPE  C317 7846   5.788   4.789   4.718  0.3080  0.3229 -0.3437
   84SOPE  H17X 7847   5.742   4.695   4.683 -2.4417  0.1287  3.2086
   84SOPE  H17Y 7848   5.762   4.857   4.634  0.9344 -2.0490 -2.5861
   84SOPE  C318 7849   5.735   4.824   4.858 -0.1793 -0.1051  0.0461
   84SOPE  H18X 7850   5.797   4.903   4.906 -0.2872  0.6855 -1.0828
   84SOPE  H18Y 7851   5.737   4.733   4.922  0.3436  0.9078  1.5305
   84SOPE  H18Z 7852   5.630   4.858   4.859 -0.4671 -0.9760  0.3075
   85SOPE     N 7853   4.324   6.302   2.534  0.0954  0.2126 -0.1181
   85SOPE   HN1 7854   4.414   6.250   2.523  0.6372  0.7650  1.4786
   85SOPE   HN2 7855   4.254   6.269   2.464 -0.8181  1.2055  0.3099
   85SOPE   HN3 7856   4.344   6.402   2.512  0.2108  0.5336  1.3415
   85SOPE   C12 7857   4.289   6.283   2.677  0.7089  0.1750  0.0417
   85SOPE  H12A 7858   4.245   6.182   2.694 -1.9018  1.3163  0.6172
   85SOPE  H12B 7859   4.209   6.356   2.703 -1.5709 -1.6896 -1.2504
   85SOPE   C11 7860   4.403   6.307   2.780  0.7056  0.0340 -0.3902
   85SOPE  H11A 7861   4.362   6.315   2.883 -0.0116 -0.9721 -0.5884
   85SOPE  H11B 7862   4.453   6.406   2.770  2.8625 -0.5214  2.9767
   85SOPE     P 7863   4.655   6.215   2.744 -0.0937 -0.0233 -0.1150
   85SOPE   O13 7864   4.702   6.356   2.743  0.3001 -0.2628  0.1970
   85SOPE   O14 7865   4.675   6.136   2.618  0.3837  0.0879 -0.1383
   85SOPE   O12 7866   4.501   6.199   2.783  0.1317 -0.4761  0.3091
   85SOPE   O11 7867   4.733   6.149   2.860  0.4011  0.1579 -0.4275
   85SOPE    C1 7868   4.682   6.044   2.939  0.1691 -0.4424 -0.3460
   85SOPE    HA 7869   4.590   6.000   2.894 -0.2681  1.1272 -1.0559
   85SOPE    HB 7870   4.649   6.087   3.036 -1.6195  1.4188 -1.6742
   85SOPE    C2 7871   4.773   5.923   2.938  0.1206 -0.2674 -0.1292
   85SOPE    HS 7872   4.709   5.837   2.967 -0.0335 -0.5668 -1.2700
   85SOPE   O21 7873   4.896   5.935   3.027 -0.2045  0.0912 -0.5639
   85SOPE   C21 7874   4.863   5.948   3.153 -0.0321 -0.0091 -0.1467
   85SOPE   O22 7875   4.755   5.933   3.201 -0.2007  0.2969 -0.0503
   85SOPE   C22 7876   4.990   5.984   3.230  0.2630  0.6876  0.5544
   85SOPE   H2R 7877   5.042   6.052   3.160  0.6461  1.1940  1.3281
   85SOPE   H2S 7878   5.045   5.887   3.234 -0.4261  0.3050  1.2907
   85SOPE    C3 7879   4.816   5.891   2.790 -0.4392  0.7217 -0.8197
   85SOPE    HX 7880   4.892   5.965   2.758 -0.0537  0.5174 -0.3738
   85SOPE    HY 7881   4.725   5.903   2.726 -1.5804 -0.9098  0.4201
   85SOPE   O31 7882   4.870   5.753   2.792 -0.0497  0.4093 -0.3028
   85SOPE   C31 7883   4.984   5.729   2.731 -0.0607 -0.2226 -0.7208
   85SOPE   O32 7884   5.052   5.812   2.673 -0.0078  0.0506 -0.2149
   85SOPE   C32 7885   5.025   5.589   2.727  0.0871 -0.1763  0.1166
   85SOPE   H2X 7886   5.056   5.559   2.624  1.7147  1.5839  0.0541
   85SOPE   H2Y 7887   4.930   5.534   2.748 -0.3173 -0.5609 -2.3767
   85SOPE   C23 7888   4.975   6.040   3.371 -0.1826  0.0067 -0.3669
   85SOPE   H3R 7889   5.076   6.012   3.408 -0.2436  1.9231  1.4417
   85SOPE   H3S 7890   4.897   5.988   3.430 -1.3629 -0.1247 -1.9889
   85SOPE   C24 7891   4.945   6.193   3.375 -0.9082 -0.8479  0.8847
   85SOPE   H4R 7892   5.021   6.241   3.310 -0.2897 -1.6526  1.0044
   85SOPE   H4S 7893   4.843   6.214   3.335  0.0810  1.1400 -0.7925
   85SOPE   C25 7894   4.963   6.250   3.514 -0.1538  0.3583  0.3697
   85SOPE   H5R 7895   4.891   6.206   3.586 -0.2154  2.7050  1.8686
   85SOPE   H5S 7896   5.061   6.243   3.567  0.8439 -1.9043 -1.5776
   85SOPE   C26 7897   4.933   6.400   3.516  0.1776  0.0454  0.5451
   85SOPE   H6R 7898   5.009   6.450   3.453  0.3968  0.3350  1.0366
   85SOPE   H6S 7899   4.836   6.418   3.465 -0.2228 -0.6102  1.0575
   85SOPE   C27 7900   4.903   6.468   3.647  0.1183  0.1140 -0.0432
   85SOPE   H7R 7901   4.832   6.551   3.631 -1.3224 -1.1290 -0.3751
   85SOPE   H7S 7902   4.846   6.404   3.718 -2.4920  1.4847 -0.7942
   85SOPE   C28 7903   5.029   6.530   3.718  0.2497 -0.0720  0.1935
   85SOPE   H8R 7904   4.985   6.588   3.802 -0.0597 -1.5886  1.1098
   85SOPE   H8S 7905   5.090   6.445   3.757  1.3474 -0.5200 -2.3089
   85SOPE   C29 7906   5.124   6.617   3.642 -0.0165  0.3134 -0.0472
   85SOPE   H91 7907   5.148   6.585   3.539 -1.3149 -1.5408  0.1752
   85SOPE  C210 7908   5.176   6.732   3.685 -1.0107  0.0261 -0.3246
   85SOPE  H101 7909   5.236   6.798   3.621 -0.9040 -0.6285 -0.9106
   85SOPE  C211 7910   5.168   6.783   3.826 -0.2656 -0.1776  0.5494
   85SOPE  H11R 7911   5.263   6.838   3.842 -0.8427  0.6084  1.3569
   85SOPE  H11S 7912   5.166   6.686   3.879 -0.6499 -0.2245  0.4462
   85SOPE  C212 7913   5.054   6.854   3.892  0.1378 -0.5658 -0.0732
   85SOPE  H12R 7914   4.978   6.787   3.937 -0.3786  0.3366  0.4385
   85SOPE  H12S 7915   4.998   6.919   3.821  2.5329  2.2121  0.3913
   85SOPE  C213 7916   5.100   6.944   4.006  0.1488 -0.9376 -0.4215
   85SOPE  H13R 7917   5.147   7.032   3.958  0.8601  0.4419  2.5930
   85SOPE  H13S 7918   5.171   6.886   4.069  1.7320 -1.0916 -2.2631
   85SOPE  C214 7919   4.975   6.996   4.092 -0.3836 -0.0811 -0.1171
   85SOPE  H14R 7920   4.905   7.001   4.005  1.7043 -0.9394 -1.9499
   85SOPE  H14S 7921   5.005   7.095   4.134 -2.7431  0.6251  0.0794
   85SOPE  C215 7922   4.924   6.903   4.207 -0.7779 -0.3046  0.2261
   85SOPE  H15R 7923   4.901   6.806   4.158 -0.8152  0.6485 -1.7056
   85SOPE  H15S 7924   4.817   6.925   4.230 -0.9372 -0.7272 -0.0843
   85SOPE  C216 7925   5.012   6.903   4.331  0.4568  0.3413 -0.2500
   85SOPE  H16R 7926   5.054   7.005   4.332  3.2589 -0.6382  3.3103
   85SOPE  H16S 7927   5.092   6.829   4.309 -0.2455 -1.8716  3.6535
   85SOPE  C217 7928   4.937   6.869   4.456 -0.0953  0.3543 -0.0321
   85SOPE  H17R 7929   4.906   6.763   4.443 -1.2331  0.6910 -0.1838
   85SOPE  H17S 7930   4.842   6.927   4.463 -1.5657 -1.8693 -0.3506
   85SOPE  C218 7931   5.004   6.908   4.583 -0.2660  0.2209 -0.5584
   85SOPE  H18R 7932   5.103   6.858   4.587  0.0451  0.8675  0.0918
   85SOPE  H18S 7933   4.949   6.903   4.679  0.3662 -1.3688 -0.2583
   85SOPE  H18T 7934   5.043   7.012   4.578  0.7300 -0.1396 -0.4081
   85SOPE   C33 7935   5.138   5.556   2.824  0.1061 -0.5182  0.3347
   85SOPE   H3X 7936   5.236   5.589   2.783 -0.3395 -0.0262 -0.3550
   85SOPE   H3Y 7937   5.146   5.445   2.829 -0.6633 -0.5555  0.8850
   85SOPE   C34 7938   5.120   5.623   2.963  0.6121 -0.0180  0.2505
   85SOPE   H4X 7939   5.017   5.641   3.000  0.6844  1.1595 -0.1012
   85SOPE   H4Y 7940   5.171   5.721   2.962  2.7911 -1.0960  0.7860
   85SOPE   C35 7941   5.195   5.535   3.061  0.9965 -0.1933  0.3101
   85SOPE   H5X 7942   5.298   5.516   3.025  0.0337 -1.2675 -2.1011
   85SOPE   H5Y 7943   5.136   5.440   3.064  0.3649  0.2162  1.3390
   85SOPE   C36 7944   5.199   5.592   3.202  0.0672 -0.0007  0.6322
   85SOPE   H6X 7945   5.097   5.619   3.237 -0.2489  0.3543 -0.5250
   85SOPE   H6Y 7946   5.267   5.679   3.194 -2.2491  1.8077 -0.6194
   85SOPE   C37 7947   5.246   5.483   3.300  0.0409 -0.6180 -0.0541
   85SOPE   H7X 7948   5.345   5.456   3.257 -0.0999 -1.5043  0.1706
   85SOPE   H7Y 7949   5.178   5.397   3.287 -2.0416  0.9811 -0.2632
   85SOPE   C38 7950   5.255   5.527   3.443 -0.3994 -0.5432 -0.0139
   85SOPE   H8X 7951   5.286   5.632   3.456  2.3001 -1.2046 -0.4467
   85SOPE   H8Y 7952   5.332   5.463   3.492  0.6787 -0.0358 -1.0119
   85SOPE   C39 7953   5.117   5.515   3.514  0.2522  0.1043 -1.0486
   85SOPE   H9X 7954   5.072   5.416   3.489 -0.5595 -0.1365  1.1658
   85SOPE   H9Y 7955   5.041   5.591   3.485  1.0581  1.0921 -0.6200
   85SOPE  C310 7956   5.128   5.512   3.668 -0.3925  0.0757  0.5749
   85SOPE  H10X 7957   5.154   5.609   3.716  1.4200  0.0515 -0.2677
   85SOPE  H10Y 7958   5.217   5.447   3.685 -0.8165 -0.9421 -0.9121
   85SOPE  C311 7959   5.011   5.445   3.743  0.0210  0.4529 -0.3822
   85SOPE  H11X 7960   4.976   5.350   3.697  0.5346 -0.4782  1.0783
   85SOPE  H11Y 7961   4.918   5.505   3.734  0.9152  1.7955 -1.0344
   85SOPE  C312 7962   5.043   5.425   3.892  0.9888  0.0987  0.7900
   85SOPE  H12X 7963   5.121   5.347   3.905  1.0042  0.2755  1.8571
   85SOPE  H12Y 7964   4.948   5.385   3.933 -2.1104  1.7096 -3.9543
   85SOPE  C313 7965   5.096   5.553   3.968  0.0266  0.3733  0.6533
   85SOPE  H13X 7966   5.032   5.637   3.935  0.0156 -0.1123 -0.6229
   85SOPE  H13Y 7967   5.196   5.587   3.935 -0.6228  0.5819 -1.1912
   85SOPE  C314 7968   5.096   5.543   4.121  0.0503 -0.5949  0.0704
   85SOPE  H14X 7969   5.147   5.451   4.155  0.2691 -0.5862 -0.2276
   85SOPE  H14Y 7970   4.991   5.528   4.157  0.2464 -0.7693  0.5748
   85SOPE  C315 7971   5.156   5.665   4.196 -0.3960  0.1135  0.0614
   85SOPE  H15X 7972   5.176   5.643   4.303  2.2480 -0.9862 -0.5688
   85SOPE  H15Y 7973   5.094   5.757   4.200 -1.4016 -0.4095 -1.9055
   85SOPE  C316 7974   5.298   5.702   4.148 -0.9184 -0.0909  0.2970
   85SOPE  H16X 7975   5.286   5.723   4.039  0.4690 -0.2979  0.0905
   85SOPE  H16Y 7976   5.369   5.616   4.155  0.8883  1.4015  1.1134
   85SOPE  C317 7977   5.347   5.828   4.223 -0.0036 -0.3663  0.1994
   85SOPE  H17X 7978   5.347   5.804   4.331 -0.3211 -0.6826  0.1325
   85SOPE  H17Y 7979   5.277   5.914   4.219  0.9580  0.4149 -0.0442
   85SOPE  C318 7980   5.487   5.876   4.184 -0.0688  0.4425 -0.0094
   85SOPE  H18X 7981   5.519   5.964   4.243  1.9346 -1.1273  1.4229
   85SOPE  H18Y 7982   5.494   5.901   4.076 -0.3210  1.9931  0.3212
   85SOPE  H18Z 7983   5.561   5.793   4.197  0.7419  1.2659  0.8220
   86SOPE     N 7984   2.101   3.844   2.166  0.7861  0.3319 -0.3506
   86SOPE   HN1 7985   2.019   3.900   2.133  1.2717 -0.0616 -2.3819
   86SOPE   HN2 7986   2.073   3.771   2.234 -1.1412  1.2347 -0.0976
   86SOPE   HN3 7987   2.169   3.905   2.215  2.2183 -0.9806 -0.6615
   86SOPE   C12 7988   2.155   3.777   2.037 -0.7321 -0.1484 -0.3766
   86SOPE  H12A 7989   2.190   3.863   1.976 -1.9386  0.1130 -0.7178
   86SOPE  H12B 7990   2.071   3.723   1.989 -1.6480 -0.9049  1.9042
   86SOPE   C11 7991   2.284   3.693   2.071  0.5633  0.0977 -0.1746
   86SOPE  H11A 7992   2.367   3.751   2.116 -0.8108 -0.2870  3.0924
   86SOPE  H11B 7993   2.330   3.652   1.978  0.4526  0.9942 -0.6415
   86SOPE     P 7994   2.189   3.458   2.108  0.6763  0.2455  0.4864
   86SOPE   O13 7995   2.236   3.415   1.974 -0.1824 -0.0043 -0.0389
   86SOPE   O14 7996   2.044   3.480   2.117 -0.7022 -0.6101 -0.3863
   86SOPE   O12 7997   2.263   3.586   2.161 -0.3414 -0.4590  0.3316
   86SOPE   O11 7998   2.231   3.361   2.221 -0.6722 -0.0120  0.1752
   86SOPE    C1 7999   2.323   3.253   2.197 -0.2277  0.0272  0.0065
   86SOPE    HA 8000   2.415   3.268   2.258 -0.0691 -1.0329  0.0514
   86SOPE    HB 8001   2.360   3.254   2.093 -2.5691  0.1082 -0.8724
   86SOPE    C2 8002   2.263   3.118   2.241 -0.5539 -0.1207 -0.1853
   86SOPE    HS 8003   2.175   3.096   2.177  0.1079 -0.9553 -0.8335
   86SOPE   O21 8004   2.213   3.117   2.371  0.1153  0.8407 -0.5087
   86SOPE   C21 8005   2.118   3.031   2.402 -0.4284  0.1293  0.6034
   86SOPE   O22 8006   2.062   2.966   2.314 -0.0760 -0.5088 -0.6168
   86SOPE   C22 8007   2.080   3.041   2.543  0.4651 -0.1041 -0.5152
   86SOPE   H2R 8008   1.979   2.998   2.559  0.9126 -1.3196 -0.8859
   86SOPE   H2S 8009   2.077   3.150   2.569  0.9557 -0.1400 -0.2973
   86SOPE    C3 8010   2.374   3.007   2.219  0.2390  0.6253  1.1098
   86SOPE    HX 8011   2.418   3.019   2.117 -0.4586  0.0454  0.7265
   86SOPE    HY 8012   2.327   2.906   2.215 -0.8235  0.9884  3.1751
   86SOPE   O31 8013   2.481   3.013   2.316 -0.3590 -0.5720  0.1842
   86SOPE   C31 8014   2.505   2.904   2.390 -1.1569  0.1826  0.2207
   86SOPE   O32 8015   2.433   2.808   2.400  0.5109  0.1754  0.2172
   86SOPE   C32 8016   2.642   2.923   2.462 -0.3926  0.1835  0.1016
   86SOPE   H2X 8017   2.620   3.005   2.533 -0.5507 -1.1478  1.6503
   86SOPE   H2Y 8018   2.710   2.953   2.379  1.0674 -1.0279  0.8081
   86SOPE   C23 8019   2.189   2.970   2.634 -0.1510 -0.7561  0.2823
   86SOPE   H3R 8020   2.183   3.011   2.737  1.8775 -1.0919  0.5666
   86SOPE   H3S 8021   2.291   2.991   2.598 -0.5733  0.2751 -0.3481
   86SOPE   C24 8022   2.169   2.819   2.644  0.6473 -0.7164  0.5016
   86SOPE   H4R 8023   2.165   2.799   2.535 -1.1285  1.4262  0.0922
   86SOPE   H4S 8024   2.260   2.773   2.687  0.8232 -1.7070 -0.8693
   86SOPE   C25 8025   2.037   2.771   2.703  0.0245 -0.0110 -0.1288
   86SOPE   H5R 8026   1.956   2.847   2.699  1.6140  1.7484 -0.3841
   86SOPE   H5S 8027   2.006   2.685   2.640  1.4143 -1.9743  1.6851
   86SOPE   C26 8028   2.047   2.722   2.849 -0.0902  0.7462 -0.3844
   86SOPE   H6R 8029   1.945   2.687   2.876  0.6681 -1.8190 -0.6036
   86SOPE   H6S 8030   2.110   2.632   2.836 -0.3183  0.5854 -0.3927
   86SOPE   C27 8031   2.097   2.829   2.958 -0.3599 -0.0855 -0.0547
   86SOPE   H7R 8032   2.194   2.871   2.923 -0.9826  0.7727 -0.7767
   86SOPE   H7S 8033   2.024   2.912   2.959  0.5124  0.7111 -0.3213
   86SOPE   C28 8034   2.131   2.776   3.102  0.2352  0.1250 -0.5578
   86SOPE   H8R 8035   2.141   2.863   3.170 -2.5000 -0.1460  0.3233
   86SOPE   H8S 8036   2.045   2.716   3.138  0.3914 -1.6700 -2.9052
   86SOPE   C29 8037   2.249   2.687   3.104 -0.3540  0.7913  0.6661
   86SOPE   H91 8038   2.276   2.636   3.010 -0.9270 -0.1312  0.9866
   86SOPE  C210 8039   2.324   2.655   3.210  0.0661  0.6003 -0.4924
   86SOPE  H101 8040   2.408   2.586   3.192 -0.2105 -0.0851  0.7427
   86SOPE  C211 8041   2.311   2.715   3.347 -0.0121 -0.1445 -0.4122
   86SOPE  H11R 8042   2.208   2.745   3.378  0.1607  0.1729 -0.1404
   86SOPE  H11S 8043   2.368   2.810   3.345 -0.3915  0.0788 -2.0515
   86SOPE  C212 8044   2.368   2.616   3.452 -0.2710 -0.2881 -0.0739
   86SOPE  H12R 8045   2.452   2.558   3.407  1.2752  1.2015  0.7949
   86SOPE  H12S 8046   2.283   2.549   3.477  1.5975 -2.9957 -0.5387
   86SOPE  C213 8047   2.409   2.678   3.582 -0.3113 -0.4690 -0.1723
   86SOPE  H13R 8048   2.325   2.737   3.625 -0.5059 -0.6803 -0.2607
   86SOPE  H13S 8049   2.499   2.740   3.563 -0.2644  0.3234  2.3132
   86SOPE  C214 8050   2.445   2.570   3.689  0.8530  0.5989  0.3222
   86SOPE  H14R 8051   2.506   2.493   3.636  1.1084  2.1628 -1.7922
   86SOPE  H14S 8052   2.349   2.518   3.709  1.2440 -0.0094  0.6463
   86SOPE  C215 8053   2.506   2.621   3.816  0.6280 -0.7140 -0.0089
   86SOPE  H15R 8054   2.434   2.694   3.859  0.2489 -1.1091  0.0367
   86SOPE  H15S 8055   2.609   2.659   3.798  0.2581 -0.1861 -1.1051
   86SOPE  C216 8056   2.533   2.504   3.910  0.4903  0.2761 -0.4162
   86SOPE  H16R 8057   2.609   2.428   3.881  0.5716 -0.2761  1.1685
   86SOPE  H16S 8058   2.449   2.431   3.909  0.4902  0.2168  1.3600
   86SOPE  C217 8059   2.567   2.558   4.048  0.0675  0.0398 -0.2149
   86SOPE  H17R 8060   2.469   2.584   4.093  1.7631  2.3667  2.5477
   86SOPE  H17S 8061   2.629   2.650   4.040 -2.2703  1.7090  0.0262
   86SOPE  C218 8062   2.632   2.460   4.144  0.0533  0.3011  0.1324
   86SOPE  H18R 8063   2.731   2.439   4.099 -0.8555  1.2930 -2.5311
   86SOPE  H18S 8064   2.585   2.359   4.143 -1.2765  0.8853  0.7469
   86SOPE  H18T 8065   2.648   2.493   4.249  0.6939 -1.1614  0.5212
   86SOPE   C33 8066   2.695   2.797   2.531 -0.5273 -0.4991  0.6908
   86SOPE   H3X 8067   2.802   2.822   2.550 -0.5180 -0.5652  0.7239
   86SOPE   H3Y 8068   2.686   2.717   2.455 -1.1641 -0.2352  0.4876
   86SOPE   C34 8069   2.628   2.747   2.654  0.4690 -0.5618  0.6083
   86SOPE   H4X 8070   2.527   2.704   2.635  0.4840 -0.4406  0.2372
   86SOPE   H4Y 8071   2.620   2.830   2.727 -0.0554  0.2206 -0.3088
   86SOPE   C35 8072   2.697   2.630   2.714 -0.0481  0.2739  0.3171
   86SOPE   H5X 8073   2.800   2.661   2.740 -0.5721  1.5633  0.9470
   86SOPE   H5Y 8074   2.704   2.541   2.648  0.6280  1.0116 -0.6313
   86SOPE   C36 8075   2.620   2.587   2.842 -0.3105 -0.5408  0.3193
   86SOPE   H6X 8076   2.514   2.577   2.812  0.0687 -1.7667 -0.6736
   86SOPE   H6Y 8077   2.609   2.678   2.906 -1.4733  1.1869 -2.1892
   86SOPE   C37 8078   2.685   2.470   2.919  0.3818 -0.0952  0.6452
   86SOPE   H7X 8079   2.789   2.498   2.947  1.2987 -2.6658  0.1004
   86SOPE   H7Y 8080   2.703   2.376   2.863 -0.0992  0.2985 -0.1878
   86SOPE   C38 8081   2.615   2.432   3.054  0.1237  0.2928  0.9846
   86SOPE   H8X 8082   2.538   2.356   3.031  1.6754 -0.7295 -1.1939
   86SOPE   H8Y 8083   2.570   2.526   3.094  2.0549  2.8351 -2.2188
   86SOPE   C39 8084   2.712   2.356   3.147  0.5878  0.5890  1.0898
   86SOPE   H9X 8085   2.816   2.393   3.140  1.1602 -1.1815 -0.9827
   86SOPE   H9Y 8086   2.720   2.251   3.110  2.7411  0.5784  1.4855
   86SOPE  C310 8087   2.664   2.351   3.297 -0.3672  0.0306 -0.6380
   86SOPE  H10X 8088   2.563   2.305   3.306  0.1834 -1.0512  0.2605
   86SOPE  H10Y 8089   2.668   2.453   3.341  1.1892  0.6004 -2.0252
   86SOPE  C311 8090   2.762   2.262   3.382 -0.2338  0.1618  0.2427
   86SOPE  H11X 8091   2.844   2.323   3.424 -1.2316  0.4372  1.8822
   86SOPE  H11Y 8092   2.788   2.175   3.318 -1.1758 -0.2893  0.4582
   86SOPE  C312 8093   2.689   2.203   3.508 -0.0385 -0.0703 -0.2977
   86SOPE  H12X 8094   2.594   2.152   3.481  0.2607 -1.6039  1.3284
   86SOPE  H12Y 8095   2.667   2.290   3.574 -0.8765 -0.7255  0.3124
   86SOPE  C313 8096   2.775   2.112   3.592 -0.1117  0.0874  0.3317
   86SOPE  H13X 8097   2.868   2.173   3.603  0.1665 -0.7359  3.4251
   86SOPE  H13Y 8098   2.800   2.009   3.558 -0.5998 -0.5863  1.9182
   86SOPE  C314 8099   2.715   2.101   3.730  0.2332 -0.3927  1.0476
   86SOPE  H14X 8100   2.628   2.033   3.721  0.9199 -1.1078 -0.4903
   86SOPE  H14Y 8101   2.677   2.198   3.769  1.2239  0.9294 -1.0847
   86SOPE  C315 8102   2.819   2.045   3.822 -0.2855  0.5153 -0.6394
   86SOPE  H15X 8103   2.877   1.964   3.772 -0.3220  0.2803 -0.3055
   86SOPE  H15Y 8104   2.781   1.994   3.913 -0.2048  1.2696 -0.1791
   86SOPE  C316 8105   2.925   2.141   3.888 -0.1573 -0.8019  0.4705
   86SOPE  H16X 8106   2.864   2.220   3.938 -2.0202 -0.7028 -1.8108
   86SOPE  H16Y 8107   2.988   2.197   3.816  0.1277 -1.1396  0.4582
   86SOPE  C317 8108   3.003   2.063   3.997  0.2567 -0.0650  0.0230
   86SOPE  H17X 8109   3.065   1.990   3.940 -0.6667 -0.6202 -0.2866
   86SOPE  H17Y 8110   2.930   2.013   4.064 -0.6078 -0.9340 -1.5191
   86SOPE  C318 8111   3.086   2.161   4.082 -0.4197  0.8786  0.0418
   86SOPE  H18X 8112   3.139   2.226   4.008 -0.1105 -2.3030 -2.7442
   86SOPE  H18Y 8113   3.158   2.103   4.144  0.6191  1.5794 -0.4600
   86SOPE  H18Z 8114   3.021   2.234   4.134  0.3951  0.5373  1.6111
   87SOPE     N 8115   3.745   2.312   2.271  0.2396 -0.2407  0.4363
   87SOPE   HN1 8116   3.724   2.412   2.250  2.6667  0.1707 -0.3033
   87SOPE   HN2 8117   3.765   2.300   2.372 -0.4234 -0.5464  0.5382
   87SOPE   HN3 8118   3.826   2.289   2.211 -1.1568 -3.3896 -0.4702
   87SOPE   C12 8119   3.644   2.211   2.218 -0.0162  0.2245 -0.0692
   87SOPE  H12A 8120   3.647   2.214   2.107  3.0759 -2.1356 -0.1771
   87SOPE  H12B 8121   3.549   2.256   2.254  1.0010  0.1515  2.9657
   87SOPE   C11 8122   3.665   2.078   2.269 -0.1832 -0.4099 -1.2591
   87SOPE  H11A 8123   3.677   2.082   2.379  1.2327 -4.0473 -1.1419
   87SOPE  H11B 8124   3.763   2.048   2.228  0.7763  0.0220  0.6213
   87SOPE     P 8125   3.576   1.833   2.265 -0.0560 -0.2018  0.2937
   87SOPE   O13 8126   3.705   1.790   2.217  0.3073  0.7457 -0.0716
   87SOPE   O14 8127   3.461   1.765   2.204  0.1407 -0.9694 -0.3882
   87SOPE   O12 8128   3.560   1.992   2.232  0.1707 -0.3062  0.2080
   87SOPE   O11 8129   3.572   1.811   2.422 -0.1699 -0.4805 -0.2424
   87SOPE    C1 8130   3.496   1.894   2.511  0.1335  0.4408  0.1517
   87SOPE    HA 8131   3.406   1.834   2.534  0.7631 -0.6348 -0.1145
   87SOPE    HB 8132   3.467   1.993   2.470  0.3299  1.5539  2.5590
   87SOPE    C2 8133   3.584   1.929   2.638 -1.0540 -0.1915 -1.0616
   87SOPE    HS 8134   3.674   1.976   2.593  0.4786  0.5043  2.4457
   87SOPE   O21 8135   3.612   1.804   2.714 -0.0410  0.0558  0.2426
   87SOPE   C21 8136   3.730   1.799   2.772  0.1275  0.6498 -0.4953
   87SOPE   O22 8137   3.817   1.883   2.768  0.0619 -0.0528 -0.3571
   87SOPE   C22 8138   3.753   1.663   2.828 -0.7575  0.5238  0.9216
   87SOPE   H2R 8139   3.862   1.645   2.819 -0.9675  0.0218 -0.9916
   87SOPE   H2S 8140   3.701   1.585   2.768  0.9998  1.0694 -1.4284
   87SOPE    C3 8141   3.530   2.038   2.732  0.3792 -0.3668  0.4743
   87SOPE    HX 8142   3.427   2.007   2.760  0.2239  0.4903  0.8689
   87SOPE    HY 8143   3.528   2.132   2.673  0.1920  0.1607  1.2945
   87SOPE   O31 8144   3.603   2.060   2.856 -0.1868 -0.0764  0.3324
   87SOPE   C31 8145   3.694   2.162   2.860  0.0187 -0.3053 -0.0024
   87SOPE   O32 8146   3.722   2.232   2.770  0.2669 -0.2088  0.1386
   87SOPE   C32 8147   3.754   2.181   3.004 -0.5223 -0.6133  0.0783
   87SOPE   H2X 8148   3.861   2.204   2.985 -0.8729  0.4264 -0.6701
   87SOPE   H2Y 8149   3.739   2.092   3.070  0.0672  0.6778  2.0611
   87SOPE   C23 8150   3.713   1.645   2.977  0.4368 -0.3328 -0.1365
   87SOPE   H3R 8151   3.602   1.642   2.976  0.3287  1.7854 -0.2461
   87SOPE   H3S 8152   3.748   1.728   3.043  0.7469 -0.7235  0.1970
   87SOPE   C24 8153   3.748   1.510   3.027 -0.8526  0.2519 -0.1239
   87SOPE   H4R 8154   3.701   1.438   2.957 -2.1424  0.4723  0.4878
   87SOPE   H4S 8155   3.858   1.501   3.016 -1.1256 -0.0460 -3.7602
   87SOPE   C25 8156   3.720   1.468   3.169  0.0411 -0.2211  0.6340
   87SOPE   H5R 8157   3.612   1.449   3.186  0.2039 -1.4873  0.3477
   87SOPE   H5S 8158   3.769   1.377   3.209  1.7816  1.2601  2.0647
   87SOPE   C26 8159   3.769   1.571   3.268  0.2333  0.4003 -0.4701
   87SOPE   H6R 8160   3.877   1.595   3.268  0.7096 -1.3387  2.2107
   87SOPE   H6S 8161   3.720   1.670   3.256 -1.6827 -0.2189  1.6344
   87SOPE   C27 8162   3.738   1.532   3.417 -0.6309  0.2859 -0.1549
   87SOPE   H7R 8163   3.628   1.515   3.426 -0.6636  0.4384 -0.2523
   87SOPE   H7S 8164   3.788   1.436   3.440 -1.6395 -0.5127 -1.1925
   87SOPE   C28 8165   3.784   1.622   3.529 -0.4182 -0.0126 -0.5223
   87SOPE   H8R 8166   3.759   1.728   3.506  0.4311  0.2304 -0.3863
   87SOPE   H8S 8167   3.719   1.601   3.616  1.2905 -3.6214  0.0521
   87SOPE   C29 8168   3.932   1.608   3.559 -0.2120 -0.6693  0.4532
   87SOPE   H91 8169   3.996   1.677   3.501 -1.7575  2.3862  2.0836
   87SOPE  C210 8170   3.982   1.508   3.640  0.3713 -0.2632  0.3076
   87SOPE  H101 8171   4.089   1.493   3.660  0.2154  0.7920  2.2129
   87SOPE  C211 8172   3.897   1.411   3.720  0.3654  0.2575 -0.4219
   87SOPE  H11R 8173   3.964   1.327   3.747  1.2392  0.1052 -2.8014
   87SOPE  H11S 8174   3.821   1.359   3.658  0.7857 -0.7695 -0.1040
   87SOPE  C212 8175   3.842   1.466   3.856 -0.2846  0.3828  0.0069
   87SOPE  H12R 8176   3.771   1.551   3.844 -1.1149 -0.0792  1.4971
   87SOPE  H12S 8177   3.930   1.504   3.911  0.9611 -1.9291 -0.2825
   87SOPE  C213 8178   3.774   1.356   3.930 -0.3886 -0.2729 -0.0360
   87SOPE  H13R 8179   3.854   1.282   3.952  0.3589  1.2340  2.7536
   87SOPE  H13S 8180   3.694   1.316   3.864 -1.2038 -0.9368  1.2965
   87SOPE  C214 8181   3.711   1.407   4.063 -0.2886  0.3117 -0.4412
   87SOPE  H14R 8182   3.644   1.494   4.048 -0.0998  0.3240 -1.2489
   87SOPE  H14S 8183   3.796   1.429   4.131 -2.0282 -1.8240  2.6832
   87SOPE  C215 8184   3.624   1.293   4.133 -0.1667 -0.0412  0.0995
   87SOPE  H15R 8185   3.590   1.309   4.237  2.6693  0.0223  1.0956
   87SOPE  H15S 8186   3.677   1.196   4.126  0.2309  0.1486  0.4080
   87SOPE  C216 8187   3.493   1.270   4.055  0.5404  0.4834 -0.2380
   87SOPE  H16R 8188   3.510   1.287   3.946 -2.4952 -1.2584 -1.1315
   87SOPE  H16S 8189   3.421   1.351   4.079  0.2451  0.0612  0.3356
   87SOPE  C217 8190   3.441   1.127   4.069 -0.4439  0.0981 -0.1639
   87SOPE  H17R 8191   3.519   1.055   4.038 -1.7372 -0.5770 -2.0648
   87SOPE  H17S 8192   3.351   1.116   4.004  0.6189  1.0919 -1.8888
   87SOPE  C218 8193   3.396   1.092   4.217 -1.2068  0.0571 -0.5158
   87SOPE  H18R 8194   3.355   1.180   4.270  1.9660  0.1386  2.1120
   87SOPE  H18S 8195   3.488   1.075   4.277 -1.6766 -1.9483 -0.2688
   87SOPE  H18T 8196   3.329   1.003   4.223 -0.9400 -0.2210 -1.5218
   87SOPE   C33 8197   3.686   2.296   3.073  0.1756 -0.3566 -0.0598
   87SOPE   H3X 8198   3.581   2.258   3.073  1.3552 -3.9834  0.6722
   87SOPE   H3Y 8199   3.703   2.387   3.011 -0.7339 -1.2434 -1.6830
   87SOPE   C34 8200   3.737   2.347   3.215  0.2749 -0.1334  0.7918
   87SOPE   H4X 8201   3.661   2.421   3.246 -1.9701 -2.3498  0.8351
   87SOPE   H4Y 8202   3.832   2.405   3.208  0.1787 -0.0468  0.1899
   87SOPE   C35 8203   3.757   2.231   3.314  0.0419  1.1109  0.2178
   87SOPE   H5X 8204   3.815   2.153   3.261 -1.1511  0.9127 -0.8571
   87SOPE   H5Y 8205   3.659   2.182   3.333  0.2644  0.1321 -1.0308
   87SOPE   C36 8206   3.805   2.276   3.454 -0.0491  0.2148  0.1658
   87SOPE   H6X 8207   3.737   2.354   3.495 -0.9149 -0.3412 -0.1851
   87SOPE   H6Y 8208   3.901   2.329   3.433 -1.3378  1.2996 -3.9423
   87SOPE   C37 8209   3.816   2.154   3.546 -0.7453 -0.4052 -0.0655
   87SOPE   H7X 8210   3.908   2.106   3.505  0.0027  0.7802  0.1487
   87SOPE   H7Y 8211   3.719   2.101   3.540 -0.6050 -0.5558 -1.8024
   87SOPE   C38 8212   3.841   2.176   3.697  0.1754 -0.0383 -0.0758
   87SOPE   H8X 8213   3.773   2.252   3.742  0.3799 -0.5239  1.0877
   87SOPE   H8Y 8214   3.940   2.222   3.715  0.9568 -1.8917  0.6038
   87SOPE   C39 8215   3.847   2.042   3.777 -0.1535 -1.1480 -0.0759
   87SOPE   H9X 8216   3.933   1.985   3.737  0.1434 -0.4686 -0.4208
   87SOPE   H9Y 8217   3.756   1.982   3.755 -0.3000 -0.1751 -2.3693
   87SOPE  C310 8218   3.853   2.056   3.931 -0.1560  0.2597 -0.5867
   87SOPE  H10X 8219   3.761   2.106   3.968 -0.2619  0.8928 -1.6832
   87SOPE  H10Y 8220   3.935   2.127   3.958  0.5457 -0.1991 -1.4833
   87SOPE  C311 8221   3.856   1.926   4.013 -0.1339 -1.2108 -0.2370
   87SOPE  H11X 8222   3.788   1.851   3.966  0.6396 -0.7501 -2.1757
   87SOPE  H11Y 8223   3.811   1.947   4.113 -1.2946  1.3042 -1.2118
   87SOPE  C312 8224   3.994   1.850   4.025 -0.2529  0.2799 -0.4396
   87SOPE  H12X 8225   4.066   1.925   4.063  1.8805 -0.1467 -3.2996
   87SOPE  H12Y 8226   4.031   1.812   3.927  1.7565 -2.1947  1.1698
   87SOPE  C313 8227   3.982   1.717   4.110 -0.7614 -0.0496 -0.0687
   87SOPE  H13X 8228   3.907   1.656   4.054  0.3436 -0.4880 -1.1128
   87SOPE  H13Y 8229   3.947   1.733   4.214  0.0896 -0.8659  0.3583
   87SOPE  C314 8230   4.112   1.640   4.123 -0.0670  0.4715 -0.3574
   87SOPE  H14X 8231   4.201   1.698   4.155  0.5780 -0.1333 -1.0340
   87SOPE  H14Y 8232   4.131   1.588   4.026 -1.7348  2.5454 -1.8976
   87SOPE  C315 8233   4.108   1.542   4.244  0.3583  0.9734 -0.4227
   87SOPE  H15X 8234   4.046   1.456   4.209  1.0249  1.4292 -2.9256
   87SOPE  H15Y 8235   4.062   1.592   4.331  3.1981  0.5970  1.4524
   87SOPE  C316 8236   4.239   1.479   4.294 -0.1299 -0.3268 -1.2367
   87SOPE  H16X 8237   4.290   1.565   4.342  0.7187 -1.6716  0.4026
   87SOPE  H16Y 8238   4.301   1.431   4.215  1.1604  0.4414 -0.7182
   87SOPE  C317 8239   4.215   1.379   4.406 -0.1347 -0.7472 -0.5557
   87SOPE  H17X 8240   4.147   1.306   4.358  0.2332  1.9030 -5.8119
   87SOPE  H17Y 8241   4.160   1.429   4.489  0.1576 -1.3748  0.0331
   87SOPE  C318 8242   4.343   1.317   4.459  0.2891  0.2920  0.1070
   87SOPE  H18X 8243   4.416   1.394   4.493  2.2473 -1.7607  0.7641
   87SOPE  H18Y 8244   4.385   1.254   4.378 -1.4028 -0.8216  0.0613
   87SOPE  H18Z 8245   4.322   1.235   4.531 -3.3312  0.1224 -0.9270
   88SOPE     N 8246   0.094   1.495   2.426 -0.4532  0.3619 -0.0686
   88SOPE   HN1 8247   0.117   1.403   2.382 -0.2027 -0.1122  1.0094
   88SOPE   HN2 8248   0.030   1.465   2.503  0.6369 -2.0742 -0.0048
   88SOPE   HN3 8249   0.049   1.556   2.355  0.5530  1.6086  0.3386
   88SOPE   C12 8250   0.223   1.548   2.480 -0.5586  0.4271  0.0995
   88SOPE  H12A 8251   0.286   1.547   2.389 -1.3122 -0.2650 -0.4262
   88SOPE  H12B 8252   0.272   1.474   2.547  1.3952  1.7626  0.2427
   88SOPE   C11 8253   0.225   1.683   2.551  0.1464 -0.2956  0.1293
   88SOPE  H11A 8254   0.334   1.701   2.569  0.2096 -1.1168  0.6171
   88SOPE  H11B 8255   0.171   1.670   2.647 -0.4152 -2.2279 -0.4027
   88SOPE     P 8256   0.221   1.912   2.421  0.0377 -0.6919 -0.4105
   88SOPE   O13 8257   0.118   2.014   2.389  0.0063 -0.1195 -0.2246
   88SOPE   O14 8258   0.307   1.882   2.306  0.1777  0.2254 -0.1812
   88SOPE   O12 8259   0.148   1.786   2.478 -1.4215  0.2168  0.2508
   88SOPE   O11 8260   0.306   1.976   2.544  0.5099  1.0803  0.2578
   88SOPE    C1 8261   0.257   1.970   2.673 -0.0739  0.2802 -0.4537
   88SOPE    HA 8262   0.336   1.916   2.730 -1.0895 -0.4973  0.2549
   88SOPE    HB 8263   0.164   1.913   2.695  1.8447 -2.1327  2.0940
   88SOPE    C2 8264   0.230   2.106   2.740  0.4700 -0.3897  0.2392
   88SOPE    HS 8265   0.308   2.177   2.706  0.2193  0.9559  2.3128
   88SOPE   O21 8266   0.230   2.087   2.881 -0.4080  0.2701  0.3951
   88SOPE   C21 8267   0.358   2.077   2.931 -0.4061 -0.0752 -0.7658
   88SOPE   O22 8268   0.460   2.086   2.866 -1.1092  0.2802  0.5664
   88SOPE   C22 8269   0.356   2.073   3.085  0.1014 -0.4949 -0.0111
   88SOPE   H2R 8270   0.289   2.156   3.117 -0.1022  0.0084 -1.6350
   88SOPE   H2S 8271   0.458   2.095   3.123 -0.7947  1.6983  1.3149
   88SOPE    C3 8272   0.095   2.167   2.698 -0.8000  0.1281  0.2428
   88SOPE    HX 8273   0.011   2.097   2.717  0.8599 -1.7897  0.8422
   88SOPE    HY 8274   0.109   2.177   2.588 -0.1910 -2.6640 -0.0199
   88SOPE   O31 8275   0.061   2.289   2.768 -0.2746 -0.1146  0.2813
   88SOPE   C31 8276   0.116   2.408   2.729 -0.3824 -0.0166 -0.5434
   88SOPE   O32 8277   0.186   2.426   2.632  0.1265  0.4213 -0.0568
   88SOPE   C32 8278   0.089   2.510   2.836  0.3240 -0.4478 -0.0752
   88SOPE   H2X 8279  -0.019   2.503   2.862  0.7553  0.9751  2.3158
   88SOPE   H2Y 8280   0.118   2.605   2.787  0.7090 -0.6063 -0.1591
   88SOPE   C23 8281   0.301   1.945   3.152  0.0162 -0.0452  0.4585
   88SOPE   H3R 8282   0.196   1.936   3.118  0.6687  0.1683 -1.8283
   88SOPE   H3S 8283   0.304   1.947   3.263 -0.8678 -1.1241  0.5205
   88SOPE   C24 8284   0.361   1.808   3.090 -0.1771 -0.5690 -0.2083
   88SOPE   H4R 8285   0.297   1.723   3.122 -1.9202  0.5867 -0.4529
   88SOPE   H4S 8286   0.336   1.814   2.982 -0.9906  2.5048  0.0456
   88SOPE   C25 8287   0.515   1.795   3.116  0.0374  0.0877  0.0177
   88SOPE   H5R 8288   0.562   1.703   3.074 -1.2417  0.0010 -1.3111
   88SOPE   H5S 8289   0.560   1.879   3.060  1.7765  0.3782  1.7667
   88SOPE   C26 8290   0.548   1.795   3.261  0.1020  0.2581 -0.4632
   88SOPE   H6R 8291   0.522   1.888   3.316  1.0757  0.3480 -0.1275
   88SOPE   H6S 8292   0.491   1.721   3.322  0.2396  0.8523  0.4063
   88SOPE   C27 8293   0.701   1.772   3.287  0.3205 -0.3789 -0.8951
   88SOPE   H7R 8294   0.733   1.674   3.245 -2.5649 -2.0998  0.5771
   88SOPE   H7S 8295   0.751   1.856   3.233  0.2976  0.6788  0.6785
   88SOPE   C28 8296   0.730   1.781   3.442  1.0091 -0.0183 -0.0832
   88SOPE   H8R 8297   0.836   1.761   3.468  0.8206  0.0830  0.8047
   88SOPE   H8S 8298   0.700   1.884   3.471 -0.6722  0.6507 -3.6130
   88SOPE   C29 8299   0.651   1.693   3.539  0.6137  0.4692  0.1308
   88SOPE   H91 8300   0.566   1.635   3.502  0.7371  1.4437 -1.8613
   88SOPE  C210 8301   0.687   1.672   3.665 -0.0128  0.6345  0.1830
   88SOPE  H101 8302   0.621   1.605   3.722  2.1281 -1.6620  0.1207
   88SOPE  C211 8303   0.797   1.733   3.740 -0.3753  0.0439 -0.4746
   88SOPE  H11R 8304   0.890   1.745   3.680 -0.4553 -2.0987 -1.1445
   88SOPE  H11S 8305   0.831   1.661   3.818  1.2127 -0.5916 -1.6706
   88SOPE  C212 8306   0.770   1.871   3.806  0.6481  0.1118  0.1931
   88SOPE  H12R 8307   0.728   1.936   3.726  1.3165 -0.2699 -0.4806
   88SOPE  H12S 8308   0.863   1.912   3.853  1.2928  0.3602 -1.2418
   88SOPE  C213 8309   0.653   1.854   3.902  0.4182 -0.3385  0.2959
   88SOPE  H13R 8310   0.565   1.809   3.852  1.0705  0.4123 -1.6033
   88SOPE  H13S 8311   0.615   1.952   3.937  0.0137 -0.9453  1.6238
   88SOPE  C214 8312   0.695   1.778   4.025  0.0924  0.2685 -0.5587
   88SOPE  H14R 8313   0.777   1.822   4.086  0.0125 -1.4551  0.8870
   88SOPE  H14S 8314   0.733   1.682   3.984 -0.8624 -0.4145  0.1062
   88SOPE  C215 8315   0.577   1.758   4.125 -0.0123 -0.0603  0.1204
   88SOPE  H15R 8316   0.499   1.715   4.059 -0.0326  1.5705 -0.9609
   88SOPE  H15S 8317   0.537   1.857   4.156  1.0905  0.6288 -0.5658
   88SOPE  C216 8318   0.599   1.665   4.246  0.2106  0.1505 -0.3496
   88SOPE  H16R 8319   0.659   1.579   4.208 -1.3326 -1.1386  0.0356
   88SOPE  H16S 8320   0.499   1.634   4.285 -0.0569 -0.5932 -1.5573
   88SOPE  C217 8321   0.671   1.722   4.371  0.4394  0.5211  0.1400
   88SOPE  H17R 8322   0.619   1.816   4.401  1.1343  1.0681 -0.3194
   88SOPE  H17S 8323   0.778   1.744   4.354  0.6253 -0.4124  0.0530
   88SOPE  C218 8324   0.682   1.622   4.490  0.0867 -0.3668  0.4490
   88SOPE  H18R 8325   0.746   1.539   4.453  1.4184  0.5460  0.6639
   88SOPE  H18S 8326   0.583   1.578   4.515 -1.6267  2.6503 -0.4908
   88SOPE  H18T 8327   0.735   1.671   4.573  0.6787 -0.5508  0.1820
   88SOPE   C33 8328   0.166   2.477   2.969  0.7042  0.0971  0.3860
   88SOPE   H3X 8329   0.156   2.370   2.994  1.4326 -0.6437 -2.1332
   88SOPE   H3Y 8330   0.111   2.532   3.048 -0.8370 -1.2603  0.2980
   88SOPE   C34 8331   0.307   2.523   2.959  0.4970 -0.2980  0.4928
   88SOPE   H4X 8332   0.314   2.628   2.923  0.5271 -0.8722 -1.2476
   88SOPE   H4Y 8333   0.349   2.468   2.873 -1.0455 -0.8294  0.0512
   88SOPE   C35 8334   0.395   2.510   3.087  0.0022 -0.2067  0.2343
   88SOPE   H5X 8335   0.501   2.523   3.054  0.4610 -0.3665  1.5522
   88SOPE   H5Y 8336   0.390   2.404   3.120  1.7399  0.0296  1.4370
   88SOPE   C36 8337   0.367   2.600   3.205  0.4100  0.6250 -0.2989
   88SOPE   H6X 8338   0.257   2.605   3.222  0.0915 -3.1499 -0.5362
   88SOPE   H6Y 8339   0.394   2.706   3.187  1.6010  0.7436  1.8344
   88SOPE   C37 8340   0.435   2.562   3.339  0.6178 -0.2890  0.7200
   88SOPE   H7X 8341   0.546   2.567   3.325  0.4787  1.3937 -0.0439
   88SOPE   H7Y 8342   0.412   2.464   3.386  1.3437  0.1044  1.9617
   88SOPE   C38 8343   0.410   2.667   3.443 -0.3576 -0.0907  0.1189
   88SOPE   H8X 8344   0.305   2.701   3.437  0.2056  1.5178 -1.6599
   88SOPE   H8Y 8345   0.469   2.758   3.419 -0.3299 -0.9868 -3.8344
   88SOPE   C39 8346   0.437   2.642   3.592  0.0807 -0.3112  0.3690
   88SOPE   H9X 8347   0.539   2.600   3.600  0.6973  1.2649  1.2627
   88SOPE   H9Y 8348   0.358   2.569   3.619 -0.9520  0.4296 -0.5661
   88SOPE  C310 8349   0.410   2.771   3.671  0.2252  0.3017  0.3892
   88SOPE  H10X 8350   0.311   2.814   3.647 -0.5415 -0.5256  1.9505
   88SOPE  H10Y 8351   0.488   2.846   3.644  0.9881 -0.0618  1.4769
   88SOPE  C311 8352   0.414   2.755   3.825  0.8032  0.3207 -0.4117
   88SOPE  H11X 8353   0.416   2.857   3.869  0.6873  0.0054  0.3321
   88SOPE  H11Y 8354   0.514   2.710   3.843  0.8312  0.5609  0.0472
   88SOPE  C312 8355   0.302   2.671   3.887  0.0210 -0.7720 -0.0998
   88SOPE  H12X 8356   0.303   2.572   3.837 -0.6947 -0.2487 -1.1638
   88SOPE  H12Y 8357   0.208   2.729   3.887  1.3486  1.7567  3.0668
   88SOPE  C313 8358   0.332   2.639   4.032 -0.0238  0.3033  0.6663
   88SOPE  H13X 8359   0.338   2.733   4.091  0.9799 -0.1108  1.2343
   88SOPE  H13Y 8360   0.433   2.594   4.040  0.6444  1.8154  1.0535
   88SOPE  C314 8361   0.232   2.545   4.091 -0.1405  0.5603  0.3911
   88SOPE  H14X 8362   0.219   2.462   4.017 -0.7268  0.7522  0.2723
   88SOPE  H14Y 8363   0.134   2.591   4.115 -1.3428 -2.0360  0.7983
   88SOPE  C315 8364   0.287   2.495   4.222 -0.9398 -0.3454 -1.0929
   88SOPE  H15X 8365   0.313   2.582   4.286  0.6044 -1.2903 -0.3786
   88SOPE  H15Y 8366   0.389   2.450   4.219 -0.7892  0.0315 -1.9533
   88SOPE  C316 8367   0.195   2.394   4.294  0.1875 -0.7981  0.5190
   88SOPE  H16X 8368   0.102   2.452   4.312  0.1367 -1.2791  2.0095
   88SOPE  H16Y 8369   0.240   2.363   4.391  2.2067 -0.9716 -0.4450
   88SOPE  C317 8370   0.165   2.261   4.217  0.2478 -0.5253  0.1785
   88SOPE  H17X 8371   0.130   2.284   4.114  0.6139 -1.2312 -0.1146
   88SOPE  H17Y 8372   0.088   2.202   4.271  0.3529 -0.4522  0.4095
   88SOPE  C318 8373   0.287   2.166   4.218 -0.1765  1.4339  0.2289
   88SOPE  H18X 8374   0.319   2.143   4.322 -0.0530 -1.2090 -0.3248
   88SOPE  H18Y 8375   0.372   2.218   4.170 -0.1688  0.5124 -0.7848
   88SOPE  H18Z 8376   0.253   2.079   4.158 -0.9653  1.4220  0.6759
   89SAPC     N 8377   6.570   6.374   6.788  0.4245  0.4746 -0.2451
   89SAPC   C12 8378   6.566   6.223   6.782  0.1506 -0.6542  0.2615
   89SAPC  H12A 8379   6.516   6.195   6.691  1.0160  0.0776 -0.4564
   89SAPC  H12B 8380   6.509   6.181   6.864  1.5092 -2.1353  0.5035
   89SAPC   C13 8381   6.425   6.428   6.811 -0.3236  0.1771 -0.1182
   89SAPC  H13A 8382   6.431   6.535   6.820  0.3781  0.2603 -1.3509
   89SAPC  H13B 8383   6.371   6.410   6.719  1.0725  0.6224 -1.0469
   89SAPC  H13C 8384   6.392   6.378   6.901  1.3026  0.6973  0.7915
   89SAPC   C14 8385   6.646   6.408   6.916  0.1430 -0.1723  0.1753
   89SAPC  H14A 8386   6.744   6.363   6.922  0.2427  0.1517  1.1470
   89SAPC  H14B 8387   6.644   6.516   6.916  0.0257 -0.1683 -0.8209
   89SAPC  H14C 8388   6.609   6.363   7.007  0.6555  1.6409  1.3359
   89SAPC   C15 8389   6.632   6.429   6.667  0.0181 -0.9386 -0.6350
   89SAPC  H15A 8390   6.671   6.529   6.680 -0.2843 -0.7818 -0.9113
   89SAPC  H15B 8391   6.714   6.365   6.640  1.4305 -0.0189  1.2444
   89SAPC  H15C 8392   6.564   6.426   6.583 -1.7919 -1.3018  0.7764
   89SAPC   C11 8393   6.697   6.143   6.762 -0.2774  0.0366  0.5204
   89SAPC  H11A 8394   6.662   6.037   6.758 -2.3325  0.6301  1.4520
   89SAPC  H11B 8395   6.766   6.157   6.849  0.2816 -0.6192  0.1963
   89SAPC     P 8396   6.898   6.123   6.601 -0.1464 -0.4168 -0.3265
   89SAPC   O13 8397   6.997   6.225   6.640  0.2426 -0.0923 -0.4805
   89SAPC   O14 8398   6.920   5.982   6.643 -0.6451  0.1529  0.0384
   89SAPC   O12 8399   6.757   6.175   6.633 -0.2153 -0.2025 -0.6259
   89SAPC   O11 8400   6.881   6.126   6.442  0.0979 -0.1894 -0.3889
   89SAPC    C1 8401   6.790   6.042   6.369  0.0830  0.1446  0.3969
   89SAPC    HA 8402   6.706   6.005   6.432 -0.6038  1.2345  0.1460
   89SAPC    HB 8403   6.751   6.106   6.287  3.7924  1.1159 -0.8335
   89SAPC    C2 8404   6.865   5.930   6.295 -0.4804 -0.5166  0.2969
   89SAPC    HS 8405   6.907   5.867   6.376  2.4642  0.2703 -0.4980
   89SAPC   O21 8406   6.971   5.987   6.202 -0.0937  0.7162 -0.2336
   89SAPC   C21 8407   7.068   5.907   6.185 -0.3417  0.1105  0.1235
   89SAPC   O22 8408   7.092   5.802   6.245 -0.0707 -0.5711 -0.5022
   89SAPC   C22 8409   7.162   5.959   6.077 -0.3062  0.4034 -0.6691
   89SAPC   H2R 8410   7.098   6.028   6.018 -0.9801 -0.7068 -1.2710
   89SAPC   H2S 8411   7.226   6.026   6.139 -1.3610 -0.2372  1.2065
   89SAPC    C3 8412   6.780   5.831   6.224  0.3097  0.3730 -0.1100
   89SAPC    HX 8413   6.726   5.885   6.144  1.6194 -2.0478 -2.8333
   89SAPC    HY 8414   6.699   5.793   6.291 -2.0198  0.6710 -2.5897
   89SAPC   O31 8415   6.852   5.716   6.160  0.6078  0.1164 -0.5525
   89SAPC   C31 8416   6.880   5.617   6.245 -0.5709 -0.3935  0.0300
   89SAPC   O32 8417   6.850   5.605   6.358  0.2781 -0.7726 -0.6171
   89SAPC   C32 8418   6.958   5.515   6.174  0.0464 -0.2304  0.6514
   89SAPC   H2X 8419   6.989   5.430   6.239 -0.5604 -1.5476 -0.7278
   89SAPC   H2Y 8420   7.048   5.565   6.131 -1.0429  1.2313 -0.0148
   89SAPC   C23 8421   7.237   5.859   5.985  0.0094 -0.3794 -0.3839
   89SAPC   H3R 8422   7.288   5.782   6.046  0.5531  0.5379  0.3402
   89SAPC   H3S 8423   7.309   5.921   5.929 -1.5990  2.5820  0.6014
   89SAPC   C24 8424   7.140   5.787   5.889  0.4292 -0.7310 -0.6778
   89SAPC   H4R 8425   7.067   5.725   5.945 -1.1232  1.8084  0.2929
   89SAPC   H4S 8426   7.202   5.728   5.817  0.0531  0.2795 -1.8593
   89SAPC   C25 8427   7.052   5.881   5.802 -0.3945  0.6122  0.0158
   89SAPC   H5R 8428   6.984   5.938   5.867 -1.1812  0.1139 -0.3578
   89SAPC   C26 8429   7.049   5.892   5.669  0.7135  0.0201 -0.2612
   89SAPC   H6R 8430   6.987   5.970   5.624  0.6818  1.0564  1.4542
   89SAPC   C27 8431   7.130   5.824   5.567  0.2428  0.4248  0.6887
   89SAPC   H7R 8432   7.221   5.791   5.622 -1.6001 -1.8790  2.6000
   89SAPC   H7S 8433   7.167   5.901   5.495  3.2460  1.1106  2.7545
   89SAPC   C28 8434   7.062   5.709   5.496 -0.3006  0.0711  0.1575
   89SAPC   H8R 8435   7.031   5.629   5.564 -0.3723  0.6774  0.8537
   89SAPC   C29 8436   7.044   5.695   5.364  0.3162  0.6359  0.1600
   89SAPC   H9R 8437   6.977   5.611   5.340 -0.3731  1.3438 -0.4509
   89SAPC  C210 8438   7.070   5.787   5.252  0.3416  0.0286 -0.5528
   89SAPC  H10R 8439   7.180   5.807   5.254  0.3699 -0.1825  0.2115
   89SAPC  H10S 8440   7.019   5.879   5.289  1.0162  0.6903 -1.2212
   89SAPC  C211 8441   7.010   5.741   5.123  0.9574 -0.2893  0.8996
   89SAPC  H11R 8442   7.075   5.709   5.040 -0.2323 -2.4403  0.7108
   89SAPC  C212 8443   6.879   5.727   5.081  0.0384 -0.3302 -0.3324
   89SAPC  H12R 8444   6.852   5.705   4.977 -0.1605 -1.4019 -0.0650
   89SAPC  C213 8445   6.751   5.750   5.169  0.0089  0.7419  0.3010
   89SAPC  H13R 8446   6.760   5.848   5.221  0.4285  1.8847 -1.8126
   89SAPC  H13S 8447   6.768   5.683   5.255 -1.9886 -0.4488 -0.1569
   89SAPC  C214 8448   6.622   5.719   5.085 -0.5524 -0.1455 -0.1927
   89SAPC  H14R 8449   6.597   5.613   5.073  1.3831 -0.5439 -1.0647
   89SAPC  C215 8450   6.563   5.810   5.007  0.2881  0.2404  0.3975
   89SAPC  H15R 8451   6.475   5.780   4.948 -1.0150  0.9830  1.9068
   89SAPC  C216 8452   6.601   5.951   4.997  0.3138 -0.7992  0.6273
   89SAPC  H16R 8453   6.700   5.979   5.040  1.0031  0.2038 -1.4474
   89SAPC  H16S 8454   6.528   6.012   5.054  0.3505 -0.3835  0.2385
   89SAPC  C217 8455   6.594   6.015   4.859  0.1058  0.3533 -0.0941
   89SAPC  H17R 8456   6.500   6.019   4.799  1.4713  1.2883 -2.2931
   89SAPC  H17S 8457   6.661   5.959   4.790 -1.2685  0.5580 -1.6971
   89SAPC  C218 8458   6.646   6.164   4.854  0.2695 -0.4185 -0.1227
   89SAPC  H18R 8459   6.737   6.162   4.917 -0.4742 -0.0341  0.9841
   89SAPC  H18S 8460   6.574   6.225   4.913 -0.0318 -0.5996 -0.3009
   89SAPC  C219 8461   6.669   6.221   4.711  0.5911  0.6133 -0.4398
   89SAPC  H19R 8462   6.747   6.151   4.674  0.4501  0.0039  0.3754
   89SAPC  H19S 8463   6.713   6.321   4.733  1.1800 -0.3910  3.8581
   89SAPC  C220 8464   6.538   6.237   4.639  0.4188  0.2074  0.0631
   89SAPC  H20R 8465   6.469   6.302   4.696 -0.4436 -1.1998  0.6726
   89SAPC  H20S 8466   6.487   6.142   4.611 -2.5296  2.3938 -2.6246
   89SAPC  H20T 8467   6.552   6.297   4.546 -1.3739 -2.1340 -1.8430
   89SAPC   C33 8468   6.879   5.463   6.053  0.2213 -0.2450  0.1882
   89SAPC   H3X 8469   6.879   5.536   5.969 -2.0113  0.3307  0.6280
   89SAPC   H3Y 8470   6.776   5.423   6.066  0.4456 -2.3991 -3.2851
   89SAPC   C34 8471   6.958   5.340   6.002 -0.7530  0.3252  0.8965
   89SAPC   H4X 8472   6.975   5.273   6.089  1.6307  0.3753  0.5293
   89SAPC   H4Y 8473   7.058   5.377   5.970 -1.5548  2.2110  0.4143
   89SAPC   C35 8474   6.892   5.263   5.892 -0.0074 -0.0989 -0.0167
   89SAPC   H5X 8475   6.784   5.262   5.920 -0.0481  0.5705 -0.1169
   89SAPC   H5Y 8476   6.939   5.164   5.874  1.7321  0.4067  1.3941
   89SAPC   C36 8477   6.902   5.334   5.758 -0.2531 -0.6405  0.1516
   89SAPC   H6X 8478   7.000   5.384   5.744 -0.7703 -0.1512 -2.0588
   89SAPC   H6Y 8479   6.827   5.415   5.764  2.0189  1.6245 -0.3127
   89SAPC   C37 8480   6.886   5.240   5.637  0.0064  0.2269  0.3299
   89SAPC   H7X 8481   6.790   5.185   5.639 -0.6294  1.3358  1.6180
   89SAPC   H7Y 8482   6.969   5.166   5.631 -1.1349 -1.0467 -0.0621
   89SAPC   C38 8483   6.884   5.324   5.511  0.3769  0.2381 -0.1905
   89SAPC   H8X 8484   6.984   5.372   5.507  0.2725  0.5532  0.7741
   89SAPC   H8Y 8485   6.808   5.403   5.527 -0.4121 -0.5668  0.1659
   89SAPC   C39 8486   6.849   5.247   5.382 -0.6577 -0.3777  0.0544
   89SAPC   H9X 8487   6.743   5.213   5.384 -1.5870  2.1576 -0.8766
   89SAPC   H9Y 8488   6.921   5.163   5.378  0.5547  0.6039  0.6717
   89SAPC  C310 8489   6.867   5.327   5.255 -0.3043 -0.2582  0.6236
   89SAPC  H10X 8490   6.971   5.365   5.266 -0.7817  2.1959 -2.0270
   89SAPC  H10Y 8491   6.788   5.404   5.268 -2.6354 -2.8001  2.4057
   89SAPC  C311 8492   6.851   5.239   5.134 -0.6592  0.0101 -0.1651
   89SAPC  H11X 8493   6.750   5.192   5.134  0.1082 -1.7643 -1.6004
   89SAPC  H11Y 8494   6.916   5.150   5.125 -1.2320 -0.2296 -2.7471
   89SAPC  C312 8495   6.850   5.329   5.010  0.0202 -0.2657 -0.5879
   89SAPC  H12X 8496   6.942   5.391   5.017  0.6542 -1.3357  1.4040
   89SAPC  H12Y 8497   6.770   5.405   5.023  0.7542  0.6514 -1.2713
   89SAPC  C313 8498   6.852   5.247   4.886  0.7026 -0.1251  0.5463
   89SAPC  H13X 8499   6.751   5.203   4.871 -0.4439  2.8228 -1.5408
   89SAPC  H13Y 8500   6.919   5.159   4.883  0.2228 -0.4729 -0.7443
   89SAPC  C314 8501   6.877   5.336   4.757 -0.2575  0.0387  0.0112
   89SAPC  H14X 8502   6.866   5.281   4.661 -2.8339 -2.0460  1.3702
   89SAPC  H14Y 8503   6.982   5.371   4.764 -0.0917 -0.5240  0.4706
   89SAPC  C315 8504   6.795   5.466   4.754  0.3287  0.3218  0.3177
   89SAPC  H15X 8505   6.785   5.519   4.851 -2.7150 -0.3241  0.4613
   89SAPC  H15Y 8506   6.692   5.435   4.728  1.1024 -0.4217 -2.1465
   89SAPC  C316 8507   6.839   5.563   4.644 -0.1906  0.1407  0.0803
   89SAPC  H16X 8508   6.778   5.654   4.662  1.4254  1.0301  1.3108
   89SAPC  H16Y 8509   6.818   5.518   4.545  2.0831 -0.2836 -0.2702
   89SAPC  C317 8510   6.987   5.618   4.647  0.1814  0.3259 -0.1169
   89SAPC  H17X 8511   7.001   5.682   4.557  0.6169 -1.5300 -1.4265
   89SAPC  H17Y 8512   7.058   5.535   4.632 -0.1829 -0.1470  0.7116
   89SAPC  C318 8513   7.034   5.692   4.772 -0.1050  0.0147  0.3140
   89SAPC  H18X 8514   7.128   5.750   4.756 -0.4222  0.8463  1.3254
   89SAPC  H18Y 8515   7.042   5.623   4.858  0.9491 -0.5560 -0.2246
   89SAPC  H18Z 8516   6.963   5.776   4.786  1.4197  1.7807 -1.8263
   90SAPC     N 8517   5.534   1.855   7.007  0.0720  0.0482  0.0732
   90SAPC   C12 8518   5.435   1.869   6.888 -0.0679  0.0179 -0.2638
   90SAPC  H12A 8519   5.499   1.854   6.803  1.0562 -0.2853  0.6197
   90SAPC  H12B 8520   5.392   1.968   6.883 -2.4617 -1.0020 -1.9647
   90SAPC   C13 8521   5.616   1.728   6.987 -0.5989 -0.4550 -0.3939
   90SAPC  H13A 8522   5.554   1.642   6.963 -0.8391 -0.5735  0.6198
   90SAPC  H13B 8523   5.698   1.742   6.918  0.1931  2.0078  0.9312
   90SAPC  H13C 8524   5.669   1.697   7.075  2.0821  0.0698 -1.7273
   90SAPC   C14 8525   5.627   1.969   7.004  0.1853  0.5073  0.1299
   90SAPC  H14A 8526   5.682   1.974   6.911  1.0251  1.3107  0.6608
   90SAPC  H14B 8527   5.582   2.066   6.993  1.2133  0.9093 -0.7798
   90SAPC  H14C 8528   5.688   1.968   7.093  0.8832  1.3270 -0.3186
   90SAPC   C15 8529   5.451   1.859   7.135  0.5048 -0.0450 -0.2620
   90SAPC  H15A 8530   5.509   1.855   7.226 -0.4182 -2.5208  0.2817
   90SAPC  H15B 8531   5.379   1.939   7.134 -1.1917 -1.5172 -2.1374
   90SAPC  H15C 8532   5.395   1.768   7.149  2.0130 -0.7127  2.0130
   90SAPC   C11 8533   5.313   1.782   6.888  0.2258  0.1412 -0.3289
   90SAPC  H11A 8534   5.341   1.682   6.930 -2.0455 -0.3363  0.2026
   90SAPC  H11B 8535   5.290   1.766   6.781 -1.5041 -0.2060  0.0668
   90SAPC     P 8536   5.120   1.965   6.915  0.0010  0.0226  0.4447
   90SAPC   O13 8537   5.049   2.003   7.040 -0.0582  0.1042 -0.1368
   90SAPC   O14 8538   5.217   2.063   6.850  0.8453 -0.1006  0.3008
   90SAPC   O12 8539   5.196   1.834   6.960 -0.7762 -0.3846  0.8604
   90SAPC   O11 8540   5.024   1.914   6.802 -0.5084  0.2475 -0.0052
   90SAPC    C1 8541   4.964   1.788   6.816  0.1948 -0.3699 -0.0292
   90SAPC    HA 8542   5.039   1.708   6.796 -1.2583 -2.0893  1.0555
   90SAPC    HB 8543   4.913   1.771   6.913  1.1365 -1.7551  0.2608
   90SAPC    C2 8544   4.846   1.769   6.710  0.1471 -0.1086 -1.2001
   90SAPC    HS 8545   4.786   1.679   6.733 -1.6996  1.2567 -0.4530
   90SAPC   O21 8546   4.889   1.767   6.576 -0.2917 -0.1317  0.2218
   90SAPC   C21 8547   4.964   1.655   6.540  0.5842 -0.4064 -0.7442
   90SAPC   O22 8548   4.983   1.561   6.613  0.7306 -0.4466  0.0171
   90SAPC   C22 8549   5.013   1.681   6.404 -0.5845 -1.1359 -0.6576
   90SAPC   H2R 8550   4.935   1.683   6.326 -1.4591  1.9979  0.1466
   90SAPC   H2S 8551   5.045   1.788   6.399 -1.2755 -0.9772 -3.9075
   90SAPC    C3 8552   4.748   1.884   6.724 -0.3657 -0.2589 -0.4838
   90SAPC    HX 8553   4.790   1.971   6.669 -0.9350  0.0400 -0.4540
   90SAPC    HY 8554   4.744   1.926   6.827 -1.7822  0.5669 -0.8393
   90SAPC   O31 8555   4.621   1.869   6.675  0.7150  0.3811  0.8958
   90SAPC   C31 8556   4.541   1.788   6.741 -0.7051 -0.4729 -0.1077
   90SAPC   O32 8557   4.564   1.733   6.851 -0.2662  0.0566  0.8221
   90SAPC   C32 8558   4.424   1.761   6.657  0.2219 -0.4996 -0.3207
   90SAPC   H2X 8559   4.338   1.770   6.727  2.1753 -0.4537  2.1946
   90SAPC   H2Y 8560   4.434   1.654   6.631  0.4315 -0.3074 -1.0701
   90SAPC   C23 8561   5.127   1.594   6.358 -0.5093  0.4932 -0.1819
   90SAPC   H3R 8562   5.220   1.604   6.417 -0.4042  1.8437 -0.5489
   90SAPC   H3S 8563   5.145   1.653   6.265 -1.7951  0.5412 -0.4212
   90SAPC   C24 8564   5.094   1.457   6.306 -0.2832  0.9608 -0.2878
   90SAPC   H4R 8565   5.013   1.453   6.230  0.3283 -1.0647 -0.9014
   90SAPC   H4S 8566   5.059   1.402   6.397 -0.0732  0.8348 -0.2802
   90SAPC   C25 8567   5.216   1.383   6.253  0.3997 -0.1789  0.2411
   90SAPC   H5R 8568   5.259   1.308   6.321  0.3636  0.2462  0.7381
   90SAPC   C26 8569   5.273   1.400   6.133 -0.1955 -0.2993 -0.1612
   90SAPC   H6R 8570   5.354   1.332   6.102  1.2736  0.4523  1.7639
   90SAPC   C27 8571   5.213   1.492   6.028 -0.5780 -0.3054  0.2551
   90SAPC   H7R 8572   5.289   1.569   6.004 -1.5275  1.6231  2.8762
   90SAPC   H7S 8573   5.131   1.555   6.070  0.1963  0.6493  0.3896
   90SAPC   C28 8574   5.159   1.413   5.915 -0.4806  0.3656 -0.0400
   90SAPC   H8R 8575   5.134   1.307   5.935 -3.7970  1.0359 -0.0577
   90SAPC   C29 8576   5.129   1.450   5.789 -0.4872 -0.0797 -0.5492
   90SAPC   H9R 8577   5.106   1.384   5.704  2.4061  1.2353 -2.5056
   90SAPC  C210 8578   5.146   1.589   5.741  0.2649 -0.2396 -0.1107
   90SAPC  H10R 8579   5.193   1.587   5.640 -1.9045 -0.7434 -1.1778
   90SAPC  H10S 8580   5.223   1.645   5.798  0.0956  0.3054 -0.4064
   90SAPC  C211 8581   5.018   1.669   5.754 -0.2434  0.8310  0.2947
   90SAPC  H11R 8582   4.999   1.718   5.850  0.3221  0.4563  0.5996
   90SAPC  C212 8583   4.954   1.709   5.643  0.2029  0.1607  0.1746
   90SAPC  H12R 8584   4.866   1.774   5.654 -0.3518 -0.5094 -0.2327
   90SAPC  C213 8585   4.975   1.677   5.497 -0.2365  0.3388 -0.7602
   90SAPC  H13R 8586   4.903   1.597   5.469  1.1059 -0.8530 -0.9119
   90SAPC  H13S 8587   5.074   1.628   5.501  1.2080  3.1763  1.6868
   90SAPC  C214 8588   4.977   1.795   5.404 -0.1004 -0.8470 -0.1024
   90SAPC  H14R 8589   5.033   1.884   5.437 -1.3568 -0.2108  0.3678
   90SAPC  C215 8590   4.917   1.809   5.289  0.1049 -0.7681  0.0866
   90SAPC  H15R 8591   4.936   1.905   5.240  0.2105  0.5139  2.4517
   90SAPC  C216 8592   4.841   1.701   5.221 -0.2060  0.3718  0.0287
   90SAPC  H16R 8593   4.764   1.654   5.285  1.0855 -0.6547  0.8787
   90SAPC  H16S 8594   4.909   1.618   5.189  0.4288  0.3928  1.2426
   90SAPC  C217 8595   4.759   1.766   5.102 -0.3620  0.3421  0.1623
   90SAPC  H17R 8596   4.726   1.688   5.030  1.0500  1.3896 -1.7108
   90SAPC  H17S 8597   4.824   1.826   5.034 -3.0275  2.6131 -0.5664
   90SAPC  C218 8598   4.639   1.850   5.151  0.1321  0.5420  0.9625
   90SAPC  H18R 8599   4.693   1.935   5.197  1.3388  1.5795 -2.1477
   90SAPC  H18S 8600   4.589   1.779   5.221 -2.0667 -0.3175 -1.3271
   90SAPC  C219 8601   4.543   1.886   5.045 -0.3775 -0.1530  0.6641
   90SAPC  H19R 8602   4.473   1.962   5.085 -0.4355 -0.4229  1.0714
   90SAPC  H19S 8603   4.478   1.797   5.034 -1.5500  0.7296  0.2171
   90SAPC  C220 8604   4.595   1.931   4.915  0.5482 -0.0792  0.3161
   90SAPC  H20R 8605   4.663   2.019   4.917 -0.5475  0.8099 -0.1046
   90SAPC  H20S 8606   4.516   1.957   4.842  0.9544 -2.1457 -0.9543
   90SAPC  H20T 8607   4.639   1.841   4.866 -1.5501 -1.0793  0.1437
   90SAPC   C33 8608   4.392   1.858   6.544 -0.5986  0.0590  0.0426
   90SAPC   H3X 8609   4.467   1.852   6.462  0.8826  0.1918  1.3520
   90SAPC   H3Y 8610   4.396   1.959   6.591 -2.4130 -0.6522  1.8839
   90SAPC   C34 8611   4.261   1.817   6.480  0.0184 -0.1238  0.6205
   90SAPC   H4X 8612   4.195   1.807   6.568  0.2079 -0.5872  0.7087
   90SAPC   H4Y 8613   4.283   1.722   6.426  1.4685  1.6535 -2.2064
   90SAPC   C35 8614   4.203   1.916   6.371 -0.2740 -0.0049  0.1156
   90SAPC   H5X 8615   4.210   2.017   6.416 -1.2480 -0.6515  1.8438
   90SAPC   H5Y 8616   4.098   1.893   6.345 -0.6631  2.7599 -1.0072
   90SAPC   C36 8617   4.277   1.916   6.239 -0.0297 -0.4569 -0.0257
   90SAPC   H6X 8618   4.307   1.812   6.215  2.0579  0.5968 -2.5254
   90SAPC   H6Y 8619   4.377   1.965   6.247 -0.4608  0.4563 -0.1429
   90SAPC   C37 8620   4.206   1.985   6.127 -0.1922 -0.1381  0.2609
   90SAPC   H7X 8621   4.188   2.093   6.145  0.4808 -0.0753  0.6213
   90SAPC   H7Y 8622   4.101   1.949   6.133 -0.2851 -0.0097 -0.5700
   90SAPC   C38 8623   4.260   1.963   5.981  0.2268 -0.4541 -0.0670
   90SAPC   H8X 8624   4.237   1.861   5.943 -0.8915  0.2535 -1.3955
   90SAPC   H8Y 8625   4.369   1.977   5.991  0.4427 -0.7996 -1.6086
   90SAPC   C39 8626   4.205   2.069   5.875  0.8519  0.4602  0.5148
   90SAPC   H9X 8627   4.210   2.178   5.894 -0.4550  0.6281  0.0137
   90SAPC   H9Y 8628   4.098   2.040   5.865  0.5977  1.1109  1.2980
   90SAPC  C310 8629   4.271   2.046   5.738 -0.2257  0.5740 -0.1642
   90SAPC  H10X 8630   4.247   1.946   5.694  2.5461 -0.2263 -0.0326
   90SAPC  H10Y 8631   4.381   2.058   5.745 -0.0289 -0.2547 -1.4611
   90SAPC  C311 8632   4.236   2.151   5.637  0.1448  0.6301  0.2885
   90SAPC  H11X 8633   4.279   2.250   5.662  2.0066 -0.1490  0.3167
   90SAPC  H11Y 8634   4.126   2.161   5.622  0.2056  1.3615  0.3318
   90SAPC  C312 8635   4.302   2.113   5.507 -0.5671  0.0091 -0.3854
   90SAPC  H12X 8636   4.265   2.009   5.489  1.1836 -0.7249 -0.0313
   90SAPC  H12Y 8637   4.410   2.108   5.533 -1.4284 -1.8277  3.7216
   90SAPC  C313 8638   4.264   2.211   5.400  0.3459 -0.3171  0.3628
   90SAPC  H13X 8639   4.309   2.309   5.425  2.3289 -1.3613  1.1445
   90SAPC  H13Y 8640   4.153   2.208   5.391  0.4582 -0.9994 -1.1623
   90SAPC  C314 8641   4.339   2.180   5.270  0.6956 -0.2237 -0.1367
   90SAPC  H14X 8642   4.339   2.070   5.253 -1.5092 -0.3905  0.5525
   90SAPC  H14Y 8643   4.444   2.215   5.275  1.2207 -1.4034 -1.9380
   90SAPC  C315 8644   4.287   2.257   5.153  0.0993  0.4183  0.8364
   90SAPC  H15X 8645   4.293   2.368   5.159 -4.2323  0.9769 -1.3198
   90SAPC  H15Y 8646   4.177   2.239   5.156  0.3848 -1.6279  0.1538
   90SAPC  C316 8647   4.350   2.204   5.022 -0.4045 -0.1054 -0.1117
   90SAPC  H16X 8648   4.334   2.095   5.006  1.3915 -0.0488 -3.2255
   90SAPC  H16Y 8649   4.461   2.210   5.017 -0.4165 -0.4990 -1.0585
   90SAPC  C317 8650   4.278   2.281   4.906  0.2022 -0.4559  0.3453
   90SAPC  H17X 8651   4.314   2.385   4.924 -1.7221  0.3252 -0.0740
   90SAPC  H17Y 8652   4.167   2.280   4.918 -0.0197  1.3347 -1.0553
   90SAPC  C318 8653   4.315   2.235   4.765 -0.1004  0.7427 -0.2495
   90SAPC  H18X 8654   4.282   2.132   4.741 -0.9323  0.5434  1.5723
   90SAPC  H18Y 8655   4.424   2.249   4.751 -0.2274  0.4967 -1.6206
   90SAPC  H18Z 8656   4.271   2.302   4.688 -1.4390 -0.2674 -0.3947
   91SAPC     N 8657   1.123   1.305   7.312  0.3209 -0.1119 -0.9339
   91SAPC   C12 8658   0.987   1.259   7.255  0.0337  0.6547  0.3734
   91SAPC  H12A 8659   0.913   1.328   7.292 -2.2819 -0.5057 -1.8062
   91SAPC  H12B 8660   0.966   1.159   7.289 -0.8179  0.0073 -1.8620
   91SAPC   C13 8661   1.150   1.446   7.306 -0.5566  0.4513 -0.4797
   91SAPC  H13A 8662   1.147   1.491   7.208 -2.8420  1.4042 -0.0439
   91SAPC  H13B 8663   1.075   1.496   7.365 -3.4546 -4.9971  1.1303
   91SAPC  H13C 8664   1.246   1.473   7.347 -0.3383 -0.0643 -0.6442
   91SAPC   C14 8665   1.110   1.268   7.459 -0.3278 -0.8975 -0.8665
   91SAPC  H14A 8666   1.093   1.162   7.475 -2.4979 -0.3556  0.9125
   91SAPC  H14B 8667   1.197   1.298   7.514 -0.3906 -0.5973 -0.9321
   91SAPC  H14C 8668   1.023   1.318   7.499  0.3592  1.3358 -2.0308
   91SAPC   C15 8669   1.233   1.226   7.254  0.0910 -0.2366  0.2072
   91SAPC  H15A 8670   1.332   1.249   7.291 -0.5301  1.6562  0.8256
   91SAPC  H15B 8671   1.205   1.123   7.267 -1.9741 -0.0185 -1.7944
   91SAPC  H15C 8672   1.225   1.261   7.152 -0.7909  0.9023  0.6421
   91SAPC   C11 8673   0.966   1.257   7.100  0.0893 -0.6308  0.0886
   91SAPC  H11A 8674   0.867   1.210   7.083 -0.6371  0.8627  0.0977
   91SAPC  H11B 8675   1.051   1.194   7.066  1.9307  0.0474  3.0977
   91SAPC     P 8676   1.042   1.434   6.921 -0.0178  0.2605 -0.4576
   91SAPC   O13 8677   0.979   1.544   6.858  0.0072 -0.2128 -0.6837
   91SAPC   O14 8678   1.178   1.454   6.966 -0.5502 -0.4949  0.4632
   91SAPC   O12 8679   0.953   1.389   7.039 -0.5376 -0.2118  0.1287
   91SAPC   O11 8680   1.041   1.314   6.817  0.5376  0.8696  0.4617
   91SAPC    C1 8681   0.916   1.259   6.759  0.1861 -0.1662  0.7424
   91SAPC    HA 8682   0.888   1.160   6.800  1.5645 -1.0372 -0.3201
   91SAPC    HB 8683   0.828   1.322   6.785  0.1217 -0.0765  0.3170
   91SAPC    C2 8684   0.925   1.247   6.607 -0.1942 -0.0748  0.0458
   91SAPC    HS 8685   0.824   1.215   6.576 -1.2436  1.5905  1.5690
   91SAPC   O21 8686   1.019   1.149   6.562 -0.0084  0.2929 -1.3914
   91SAPC   C21 8687   0.992   1.020   6.588 -0.4590 -0.4200 -0.6667
   91SAPC   O22 8688   0.899   0.976   6.652  0.5331  0.4670 -0.1340
   91SAPC   C22 8689   1.103   0.929   6.526  0.1955  0.1639  0.6479
   91SAPC   H2R 8690   1.150   0.981   6.440 -0.1650  0.1705  0.4529
   91SAPC   H2S 8691   1.178   0.924   6.608  0.9851  1.9768  0.0940
   91SAPC    C3 8692   0.958   1.392   6.551  0.6915  0.6239  0.1276
   91SAPC    HX 8693   1.047   1.429   6.606  0.1620  0.8876  0.8194
   91SAPC    HY 8694   0.873   1.462   6.561  1.1043  1.4182 -1.4737
   91SAPC   O31 8695   0.985   1.382   6.407  0.0579 -0.3327  0.2642
   91SAPC   C31 8696   0.862   1.398   6.334 -0.2712 -0.6820  0.5559
   91SAPC   O32 8697   0.758   1.432   6.386  0.4479  0.0272 -0.2854
   91SAPC   C32 8698   0.872   1.354   6.186  0.0710 -0.3303  0.3931
   91SAPC   H2X 8699   0.832   1.251   6.173 -0.1178 -0.2583  0.4099
   91SAPC   H2Y 8700   0.977   1.342   6.153  0.6124  1.3241  1.3676
   91SAPC   C23 8701   1.058   0.789   6.478  0.2648 -0.1174  0.0514
   91SAPC   H3R 8702   0.969   0.765   6.541  1.4223  0.7213  2.0929
   91SAPC   H3S 8703   1.126   0.706   6.504 -1.9924 -1.5020  2.0175
   91SAPC   C24 8704   1.027   0.795   6.327 -0.1577 -0.7575  0.2126
   91SAPC   H4R 8705   0.970   0.883   6.293  1.0388  0.2377  0.6854
   91SAPC   H4S 8706   0.962   0.712   6.293  0.1038 -0.5612 -0.7853
   91SAPC   C25 8707   1.155   0.781   6.243 -0.0433  0.6852 -0.1867
   91SAPC   H5R 8708   1.234   0.711   6.275  0.8131  2.0311  0.7502
   91SAPC   C26 8709   1.183   0.854   6.130  0.0841 -1.0414 -0.2680
   91SAPC   H6R 8710   1.277   0.835   6.075 -0.0544  3.1759 -2.4111
   91SAPC   C27 8711   1.090   0.946   6.056 -0.0888  0.0406  0.4263
   91SAPC   H7R 8712   1.139   1.035   6.011 -2.3729  0.5966 -1.0919
   91SAPC   H7S 8713   1.013   0.991   6.121 -1.7967 -0.1722 -1.3639
   91SAPC   C28 8714   1.035   0.856   5.947  0.1447  1.2914  0.2519
   91SAPC   H8R 8715   1.013   0.751   5.971 -1.8535  1.2218 -1.5046
   91SAPC   C29 8716   1.001   0.900   5.821  0.2289 -0.0256 -0.3865
   91SAPC   H9R 8717   0.951   0.832   5.751 -0.1997  0.9245 -1.0260
   91SAPC  C210 8718   1.034   1.040   5.762  0.2804  0.2029 -0.2367
   91SAPC  H10R 8719   1.099   1.104   5.824 -0.3145 -0.2577  0.8838
   91SAPC  H10S 8720   0.938   1.092   5.744 -0.6755 -1.4715 -0.1383
   91SAPC  C211 8721   1.104   1.013   5.635 -0.0171  0.1262  0.6976
   91SAPC  H11R 8722   1.209   0.983   5.649 -0.0434 -1.6551 -2.0081
   91SAPC  C212 8723   1.056   0.997   5.514  0.9981  0.1035  0.8336
   91SAPC  H12R 8724   1.116   0.966   5.427 -0.3568 -3.0212  0.8689
   91SAPC  C213 8725   0.901   1.019   5.478 -0.9451  0.1276  0.5614
   91SAPC  H13R 8726   0.856   1.111   5.520 -1.8329 -0.1930  0.3292
   91SAPC  H13S 8727   0.848   0.933   5.525  0.9357 -0.9405  0.8524
   91SAPC  C214 8728   0.879   1.020   5.321 -0.6202 -0.1325 -0.8316
   91SAPC  H14R 8729   0.891   1.117   5.271  2.0999  1.4739  2.5255
   91SAPC  C215 8730   0.876   0.909   5.243 -0.4544 -0.2187 -0.1670
   91SAPC  H15R 8731   0.851   0.926   5.137 -0.5936  1.3935  0.0953
   91SAPC  C216 8732   0.897   0.765   5.286 -0.0464  0.9626 -0.4064
   91SAPC  H16R 8733   0.867   0.750   5.392  1.4600 -2.1194 -0.3118
   91SAPC  H16S 8734   1.007   0.751   5.276 -0.3157 -1.6070 -0.4083
   91SAPC  C217 8735   0.825   0.656   5.212 -0.1662 -0.8442  0.2558
   91SAPC  H17R 8736   0.721   0.692   5.198 -0.3653 -1.5735 -0.1851
   91SAPC  H17S 8737   0.834   0.566   5.275  3.8186 -0.4857  0.4944
   91SAPC  C218 8738   0.894   0.638   5.072  0.4592 -0.5972 -0.5748
   91SAPC  H18R 8739   1.004   0.638   5.085  0.2890  0.6956  1.3467
   91SAPC  H18S 8740   0.862   0.729   5.017 -1.3586 -0.5825  0.4222
   91SAPC  C219 8741   0.875   0.497   5.022  0.1224 -0.7081  0.4445
   91SAPC  H19R 8742   0.768   0.467   5.027  0.5476 -2.3666 -0.0317
   91SAPC  H19S 8743   0.934   0.440   5.096 -2.6187  1.1007  4.3945
   91SAPC  C220 8744   0.912   0.467   4.876 -0.4660  0.1712  0.5302
   91SAPC  H20R 8745   0.868   0.540   4.806  1.0809  0.3663 -0.2741
   91SAPC  H20S 8746   0.894   0.363   4.841 -1.5798  1.3412 -2.6962
   91SAPC  H20T 8747   1.020   0.488   4.862  0.0036 -0.1918  3.0226
   91SAPC   C33 8748   0.829   1.462   6.082 -0.2917  1.0495 -0.4821
   91SAPC   H3X 8749   0.876   1.562   6.092  2.6919 -0.3526  0.5612
   91SAPC   H3Y 8750   0.719   1.479   6.087 -0.2583  1.0285  1.4531
   91SAPC   C34 8751   0.844   1.414   5.939 -0.0729 -0.1928  0.3287
   91SAPC   H4X 8752   0.761   1.452   5.875 -2.5556 -2.8428  1.6922
   91SAPC   H4Y 8753   0.838   1.304   5.922 -1.0545  0.0241 -0.9000
   91SAPC   C35 8754   0.983   1.450   5.885  0.7862  0.2591 -0.7156
   91SAPC   H5X 8755   1.018   1.373   5.814  0.1416 -0.9711  0.2535
   91SAPC   H5Y 8756   1.051   1.444   5.973  1.3411 -0.4454 -1.1923
   91SAPC   C36 8757   1.012   1.590   5.831 -0.7424  0.3253  0.0124
   91SAPC   H6X 8758   1.120   1.610   5.815 -0.2576 -1.4177  0.9152
   91SAPC   H6Y 8759   0.978   1.663   5.908 -0.0226  0.1664  0.4916
   91SAPC   C37 8760   0.922   1.618   5.711  0.2362  0.2271 -0.1922
   91SAPC   H7X 8761   0.815   1.624   5.738 -0.1698  0.1588 -1.7357
   91SAPC   H7Y 8762   0.911   1.531   5.643 -2.1288  1.2509 -1.2021
   91SAPC   C38 8763   0.965   1.739   5.633 -0.2542  0.5648 -0.1913
   91SAPC   H8X 8764   1.069   1.733   5.595  0.6272 -1.6936  2.2414
   91SAPC   H8Y 8765   0.963   1.819   5.710  0.3704  0.3863  0.0121
   91SAPC   C39 8766   0.868   1.778   5.521 -0.0576 -0.2231  0.2296
   91SAPC   H9X 8767   0.766   1.795   5.559 -0.6669 -2.5904 -0.1461
   91SAPC   H9Y 8768   0.856   1.686   5.459 -1.3190  1.4478 -2.1601
   91SAPC  C310 8769   0.920   1.897   5.442 -0.7658 -0.0278  0.7467
   91SAPC  H10X 8770   0.962   1.979   5.506 -0.1370 -1.1554  1.8225
   91SAPC  H10Y 8771   0.828   1.927   5.387 -1.0934 -2.4566 -0.1460
   91SAPC  C311 8772   1.027   1.862   5.332  0.3503 -0.4380 -0.5174
   91SAPC  H11X 8773   0.996   1.774   5.273 -0.1677 -0.0497 -0.8312
   91SAPC  H11Y 8774   1.118   1.855   5.395 -0.2245  1.4256  0.6072
   91SAPC  C312 8775   1.049   1.980   5.236 -0.1363 -0.7192  0.6160
   91SAPC  H12X 8776   0.972   1.975   5.156  1.5001 -0.8875 -1.0273
   91SAPC  H12Y 8777   1.143   1.960   5.180 -0.7296  2.3769 -1.7726
   91SAPC  C313 8778   1.061   2.125   5.294 -0.5744  0.3999  0.8623
   91SAPC  H13X 8779   1.114   2.123   5.392 -1.0148  1.5745  1.1493
   91SAPC  H13Y 8780   0.961   2.171   5.312 -1.0731 -0.2692 -0.1604
   91SAPC  C314 8781   1.135   2.219   5.194  0.1324 -0.1596  0.1278
   91SAPC  H14X 8782   1.240   2.183   5.197 -0.8694 -3.5704 -1.4758
   91SAPC  H14Y 8783   1.130   2.321   5.239  1.6060 -0.5006  1.1438
   91SAPC  C315 8784   1.075   2.210   5.055  0.1693 -0.0574  0.0219
   91SAPC  H15X 8785   0.963   2.208   5.054  0.1390  1.2767  0.0545
   91SAPC  H15Y 8786   1.102   2.113   5.007 -1.9320 -0.6481 -0.0992
   91SAPC  C316 8787   1.111   2.335   4.977 -0.1825 -0.4176 -0.2979
   91SAPC  H16X 8788   1.222   2.338   4.965  0.1029 -3.4647  0.5966
   91SAPC  H16Y 8789   1.089   2.421   5.043  4.4173  0.1822  0.8246
   91SAPC  C317 8790   1.051   2.346   4.845 -0.2144 -0.1868  0.1686
   91SAPC  H17X 8791   1.065   2.444   4.795 -3.1114 -0.2376 -0.9174
   91SAPC  H17Y 8792   0.940   2.344   4.855 -0.2339  1.1227  0.3782
   91SAPC  C318 8793   1.099   2.242   4.737 -0.5375 -1.1683 -0.5887
   91SAPC  H18X 8794   1.205   2.263   4.712  0.1293  0.1343  2.7737
   91SAPC  H18Y 8795   1.028   2.240   4.651 -3.0475 -2.0732  1.3875
   91SAPC  H18Z 8796   1.082   2.140   4.776  0.1348 -1.1607 -0.2544
   92SAPC     N 8797   4.396   1.222   7.144 -0.4471 -0.8582 -0.0615
   92SAPC   C12 8798   4.378   1.175   7.001  0.6192  0.0277 -0.1497
   92SAPC  H12A 8799   4.272   1.161   6.984  0.7224  0.3173 -1.1547
   92SAPC  H12B 8800   4.422   1.077   7.005 -0.8142 -0.5904  2.3863
   92SAPC   C13 8801   4.325   1.122   7.234 -0.8920  0.7493 -0.1616
   92SAPC  H13A 8802   4.379   1.030   7.215  3.7246  3.3440 -1.2010
   92SAPC  H13B 8803   4.323   1.154   7.337 -1.2083  0.1198  0.0348
   92SAPC  H13C 8804   4.222   1.102   7.207 -0.8753 -0.1306  0.3644
   92SAPC   C14 8805   4.537   1.240   7.202  0.2524  0.9813 -0.3827
   92SAPC  H14A 8806   4.534   1.271   7.305  2.1588  0.5806 -0.1767
   92SAPC  H14B 8807   4.592   1.149   7.188 -0.7354  0.3232 -0.0687
   92SAPC  H14C 8808   4.593   1.316   7.149  0.1718  0.1237 -1.7465
   92SAPC   C15 8809   4.329   1.357   7.157 -0.1586  0.0127  0.1628
   92SAPC  H15A 8810   4.221   1.348   7.153 -0.0863 -0.4221 -2.3014
   92SAPC  H15B 8811   4.356   1.400   7.252  2.3778  1.2492 -1.0148
   92SAPC  H15C 8812   4.352   1.425   7.076 -1.6572 -0.2753 -0.5472
   92SAPC   C11 8813   4.443   1.259   6.882 -0.6157 -0.2361 -0.0484
   92SAPC  H11A 8814   4.391   1.357   6.878 -1.1088 -0.4984 -0.2347
   92SAPC  H11B 8815   4.426   1.215   6.781  2.6754 -3.0292  0.4161
   92SAPC     P 8816   4.683   1.147   6.854  0.6427  0.1016  0.1193
   92SAPC   O13 8817   4.813   1.204   6.893 -0.1305 -0.4876 -0.0404
   92SAPC   O14 8818   4.648   1.024   6.920  0.1690 -0.0079 -0.8862
   92SAPC   O12 8819   4.589   1.261   6.900 -0.1063  0.2251  0.0752
   92SAPC   O11 8820   4.655   1.123   6.692  0.3735 -0.3945  0.1075
   92SAPC    C1 8821   4.739   1.201   6.605 -0.0855  0.0967 -0.6609
   92SAPC    HA 8822   4.828   1.247   6.652  0.1543 -1.7032  0.7937
   92SAPC    HB 8823   4.777   1.138   6.522  1.6673 -0.9031  0.8360
   92SAPC    C2 8824   4.654   1.312   6.529 -0.4699  0.6157  0.1098
   92SAPC    HS 8825   4.615   1.383   6.604  1.1170  1.2562  0.3755
   92SAPC   O21 8826   4.541   1.257   6.459 -0.1365 -0.5498  0.5636
   92SAPC   C21 8827   4.433   1.329   6.450 -0.2537 -0.2903 -0.1881
   92SAPC   O22 8828   4.417   1.438   6.507  0.2361  0.4053  0.2993
   92SAPC   C22 8829   4.335   1.239   6.380  0.5629 -0.8633 -0.1610
   92SAPC   H2R 8830   4.389   1.182   6.300  1.1998  1.6575 -1.6584
   92SAPC   H2S 8831   4.288   1.172   6.454 -0.9278 -1.1853 -1.3684
   92SAPC    C3 8832   4.750   1.389   6.421 -0.3010  0.0086 -0.3356
   92SAPC    HX 8833   4.829   1.439   6.483 -0.3967  0.3083 -0.4525
   92SAPC    HY 8834   4.703   1.476   6.371 -0.7180  0.2037  0.3862
   92SAPC   O31 8835   4.815   1.303   6.330  1.0703 -0.2861  0.7104
   92SAPC   C31 8836   4.735   1.282   6.230  0.1272 -0.1856 -0.0374
   92SAPC   O32 8837   4.639   1.348   6.189 -0.0862  0.5355 -0.7961
   92SAPC   C32 8838   4.775   1.151   6.156 -0.5920 -0.0124 -0.2480
   92SAPC   H2X 8839   4.725   1.069   6.213  0.6424  1.7243  3.7072
   92SAPC   H2Y 8840   4.885   1.144   6.170 -0.5130  2.2982  0.7037
   92SAPC   C23 8841   4.221   1.319   6.312 -0.0839 -0.0608 -0.6760
   92SAPC   H3R 8842   4.191   1.407   6.372  1.0572  0.3316 -0.6629
   92SAPC   H3S 8843   4.134   1.252   6.295 -1.7129  1.7317  0.1480
   92SAPC   C24 8844   4.266   1.378   6.175  0.2770 -0.9581  0.2465
   92SAPC   H4R 8845   4.306   1.301   6.106  0.7017 -0.5997  0.0907
   92SAPC   H4S 8846   4.347   1.450   6.199 -0.9625  0.5082  0.1310
   92SAPC   C25 8847   4.157   1.453   6.099  0.4379  0.0720 -0.0167
   92SAPC   H5R 8848   4.104   1.539   6.142 -0.9995  0.1754 -1.8567
   92SAPC   C26 8849   4.106   1.415   5.980  0.1867  0.1764 -0.0473
   92SAPC   H6R 8850   4.025   1.471   5.933 -0.0374  0.9924  1.2676
   92SAPC   C27 8851   4.153   1.296   5.901  0.2821 -0.4553  0.2217
   92SAPC   H7R 8852   4.071   1.255   5.837 -0.7445  1.1119  0.4783
   92SAPC   H7S 8853   4.157   1.214   5.976 -0.5510 -1.8294 -1.1569
   92SAPC   C28 8854   4.286   1.301   5.829 -0.8702  0.1499 -0.2674
   92SAPC   H8R 8855   4.370   1.310   5.900 -3.1573  3.7644  2.3682
   92SAPC   C29 8856   4.313   1.294   5.699 -1.0078  0.2956 -0.1393
   92SAPC   H9R 8857   4.416   1.293   5.660 -0.5600 -1.8565  0.9193
   92SAPC  C210 8858   4.213   1.295   5.580 -0.2579 -0.2374 -0.3058
   92SAPC  H10R 8859   4.147   1.384   5.588 -1.8684 -1.5797  2.7649
   92SAPC  H10S 8860   4.154   1.202   5.570  0.1801 -0.6065  0.4676
   92SAPC  C211 8861   4.299   1.296   5.449  0.0062 -0.2776  0.2620
   92SAPC  H11R 8862   4.312   1.194   5.409 -2.8387 -0.0442 -1.4911
   92SAPC  C212 8863   4.364   1.399   5.395  0.3923 -0.4968 -0.0930
   92SAPC  H12R 8864   4.410   1.378   5.297  0.7055 -0.1776 -0.0159
   92SAPC  C213 8865   4.367   1.534   5.452 -0.7497  0.1404  0.5487
   92SAPC  H13R 8866   4.303   1.527   5.542 -2.6233 -0.9957 -0.7863
   92SAPC  H13S 8867   4.310   1.605   5.387 -1.2968 -2.1515 -1.6634
   92SAPC  C214 8868   4.502   1.594   5.475 -0.2623  0.0854 -0.1324
   92SAPC  H14R 8869   4.568   1.591   5.388 -0.1306  0.2304 -0.0383
   92SAPC  C215 8870   4.544   1.667   5.578 -0.0416 -0.8784 -0.3159
   92SAPC  H15R 8871   4.651   1.688   5.591 -0.4807  1.0971  0.4950
   92SAPC  C216 8872   4.465   1.686   5.702 -0.3579 -0.6120  0.4144
   92SAPC  H16R 8873   4.355   1.669   5.697 -1.2752  3.7413  1.1574
   92SAPC  H16S 8874   4.479   1.795   5.722 -0.7755 -0.4711 -0.0511
   92SAPC  C217 8875   4.518   1.623   5.832  0.1172  0.3061 -0.2277
   92SAPC  H17R 8876   4.531   1.515   5.812  1.7842  0.4869 -0.2245
   92SAPC  H17S 8877   4.435   1.621   5.906  0.3893  1.4697  0.1345
   92SAPC  C218 8878   4.642   1.696   5.892 -0.2897  0.4440 -0.0814
   92SAPC  H18R 8879   4.642   1.806   5.877  2.8507  0.5831  0.2898
   92SAPC  H18S 8880   4.726   1.658   5.830 -0.0487 -1.8836  1.5562
   92SAPC  C219 8881   4.667   1.655   6.036  1.2027  0.5463 -0.0434
   92SAPC  H19R 8882   4.763   1.696   6.075  0.2699  3.3061 -0.4337
   92SAPC  H19S 8883   4.671   1.544   6.041 -1.6391  0.3759 -0.0946
   92SAPC  C220 8884   4.556   1.695   6.130  0.0412  0.2029  0.1652
   92SAPC  H20R 8885   4.470   1.629   6.109  0.6087 -0.1135 -1.2999
   92SAPC  H20S 8886   4.525   1.799   6.109 -3.2805 -0.7817 -0.3302
   92SAPC  H20T 8887   4.580   1.679   6.238 -2.3893  0.0846  0.7299
   92SAPC   C33 8888   4.722   1.150   6.008  0.2535 -0.4779 -0.1594
   92SAPC   H3X 8889   4.617   1.185   5.997  0.9223  1.1049 -2.0874
   92SAPC   H3Y 8890   4.725   1.044   5.975 -0.5684 -1.0095  1.3550
   92SAPC   C34 8891   4.800   1.235   5.912  0.0868 -0.2390 -0.6383
   92SAPC   H4X 8892   4.904   1.204   5.885  0.8080  1.4777  0.0214
   92SAPC   H4Y 8893   4.816   1.335   5.956  0.7624 -0.7202  0.2564
   92SAPC   C35 8894   4.716   1.253   5.782 -0.5106 -0.2166 -0.2082
   92SAPC   H5X 8895   4.607   1.263   5.801 -0.6541  0.0756 -1.1339
   92SAPC   H5Y 8896   4.720   1.160   5.722 -0.5852  1.1841 -2.4862
   92SAPC   C36 8897   4.753   1.374   5.692 -0.0859 -0.7299 -0.2926
   92SAPC   H6X 8898   4.800   1.453   5.754 -0.2291 -0.4753 -0.5054
   92SAPC   H6Y 8899   4.662   1.423   5.651 -0.1725 -0.5912  0.0596
   92SAPC   C37 8900   4.846   1.340   5.582 -0.1285 -0.1498 -0.4528
   92SAPC   H7X 8901   4.883   1.237   5.599  0.3415  0.2004  0.7815
   92SAPC   H7Y 8902   4.935   1.405   5.588 -0.2814  0.2206 -1.8388
   92SAPC   C38 8903   4.781   1.335   5.441  0.7602  0.2200 -0.4101
   92SAPC   H8X 8904   4.724   1.428   5.423  0.5207 -0.0405 -1.0562
   92SAPC   H8Y 8905   4.698   1.261   5.444  0.4328  0.4733 -1.9884
   92SAPC   C39 8906   4.879   1.298   5.328  0.0347 -0.2561  0.2623
   92SAPC   H9X 8907   4.922   1.201   5.361  1.8515  0.8610  1.3779
   92SAPC   H9Y 8908   4.969   1.363   5.325  2.4184 -3.3054  0.6791
   92SAPC  C310 8909   4.820   1.297   5.185 -0.2550  0.0648  0.4206
   92SAPC  H10X 8910   4.789   1.399   5.154  1.1288  0.7609  1.2489
   92SAPC  H10Y 8911   4.726   1.238   5.194  1.4079 -2.7373  0.7706
   92SAPC  C311 8912   4.902   1.226   5.070  0.3436  0.6387 -0.2117
   92SAPC  H11X 8913   4.920   1.128   5.119 -0.9201  1.0300  1.1285
   92SAPC  H11Y 8914   5.000   1.278   5.059  0.3146  0.5151 -1.0965
   92SAPC  C312 8915   4.828   1.223   4.936 -0.1595 -0.0149  0.8095
   92SAPC  H12X 8916   4.900   1.206   4.852  0.6751 -1.0965  1.7119
   92SAPC  H12Y 8917   4.775   1.319   4.923 -0.7376 -0.5897 -1.4850
   92SAPC  C313 8918   4.728   1.109   4.919  0.6323  0.3172  0.4615
   92SAPC  H13X 8919   4.648   1.104   4.996 -1.1249  0.3368 -1.3027
   92SAPC  H13Y 8920   4.780   1.012   4.929 -0.8019 -0.4456  0.7411
   92SAPC  C314 8921   4.659   1.115   4.783  0.8348 -0.8887 -0.3829
   92SAPC  H14X 8922   4.597   1.207   4.778 -0.5147 -1.4792  2.5980
   92SAPC  H14Y 8923   4.590   1.028   4.774 -0.6189  0.0891  0.7683
   92SAPC  C315 8924   4.744   1.109   4.658 -0.2236 -0.1308 -0.1595
   92SAPC  H15X 8925   4.831   1.042   4.677  1.3176  2.4084  2.7064
   92SAPC  H15Y 8926   4.792   1.209   4.650  0.5328 -0.6326 -3.6874
   92SAPC  C316 8927   4.683   1.063   4.530  0.5063  0.0508 -0.0744
   92SAPC  H16X 8928   4.589   1.119   4.510  1.0179  0.5083 -1.3165
   92SAPC  H16Y 8929   4.645   0.960   4.543  0.2400 -0.2334 -2.5838
   92SAPC  C317 8930   4.776   1.067   4.404  0.8425  0.4711 -0.7445
   92SAPC  H17X 8931   4.842   0.979   4.413  0.0366 -0.1035 -0.2903
   92SAPC  H17Y 8932   4.830   1.164   4.415  0.6520  0.5105 -0.0608
   92SAPC  C318 8933   4.713   1.080   4.266 -0.8882  0.0544 -0.4345
   92SAPC  H18X 8934   4.796   1.102   4.197 -1.8216  0.7655 -1.3688
   92SAPC  H18Y 8935   4.640   1.163   4.253 -0.5416  0.0122 -3.3428
   92SAPC  H18Z 8936   4.668   0.984   4.233  0.4611 -1.3333  1.5388
   93SAPC     N 8937   3.533   1.222   7.210  0.2763 -0.2667  0.3008
   93SAPC   C12 8938   3.521   1.106   7.105 -0.5473 -0.0914 -0.2720
   93SAPC  H12A 8939   3.424   1.061   7.115 -0.8091  0.9704  4.5045
   93SAPC  H12B 8940   3.598   1.033   7.129 -0.0269  0.8299  0.9906
   93SAPC   C13 8941   3.481   1.168   7.334  0.3373  0.1455  0.1842
   93SAPC  H13A 8942   3.493   1.242   7.413 -2.6047  1.6559 -0.6327
   93SAPC  H13B 8943   3.375   1.151   7.320  0.0390  1.5021  0.6388
   93SAPC  H13C 8944   3.529   1.078   7.370 -2.0425 -0.9764  0.7501
   93SAPC   C14 8945   3.672   1.262   7.233  0.4742  0.5787  0.3929
   93SAPC  H14A 8946   3.716   1.315   7.150  0.8141  1.6284  1.2123
   93SAPC  H14B 8947   3.676   1.337   7.311  3.2609  0.0131  0.8930
   93SAPC  H14C 8948   3.726   1.177   7.271 -1.5011 -1.1490 -0.5050
   93SAPC   C15 8949   3.454   1.347   7.169  0.6419 -0.3800 -0.4208
   93SAPC  H15A 8950   3.456   1.364   7.063 -0.8342 -0.2135 -0.4495
   93SAPC  H15B 8951   3.353   1.317   7.194 -0.1143  2.4998  0.4576
   93SAPC  H15C 8952   3.479   1.443   7.213  0.2121  0.1571 -1.3084
   93SAPC   C11 8953   3.532   1.152   6.959  0.3308 -0.2569 -0.4978
   93SAPC  H11A 8954   3.469   1.237   6.926  1.7243  0.8609 -0.3777
   93SAPC  H11B 8955   3.500   1.065   6.897  0.5488  0.1614 -1.2085
   93SAPC     P 8956   3.778   1.092   6.877 -0.0482 -0.0413 -0.3826
   93SAPC   O13 8957   3.846   1.040   6.999  0.1798  0.0580  0.1694
   93SAPC   O14 8958   3.723   0.996   6.781  0.4755  0.0910  0.3867
   93SAPC   O12 8959   3.667   1.195   6.921 -0.6616  0.5678  0.7212
   93SAPC   O11 8960   3.877   1.194   6.791 -0.0911  0.1243 -0.5440
   93SAPC    C1 8961   3.940   1.152   6.669 -0.0046 -0.4659 -0.7743
   93SAPC    HA 8962   4.033   1.211   6.654 -0.4123  0.6577  0.8546
   93SAPC    HB 8963   3.972   1.045   6.666  2.5822  0.2727 -3.0628
   93SAPC    C2 8964   3.841   1.177   6.550 -0.5414  0.0267  0.2821
   93SAPC    HS 8965   3.760   1.102   6.563 -1.3253  0.5132 -1.5219
   93SAPC   O21 8966   3.909   1.162   6.418  0.6289  0.1703 -0.2286
   93SAPC   C21 8967   3.902   1.034   6.364  0.0016 -0.0189  0.1288
   93SAPC   O22 8968   3.858   0.938   6.425  0.0284  0.9102  0.0216
   93SAPC   C22 8969   3.956   1.022   6.229 -0.3747  0.9017  0.5092
   93SAPC   H2R 8970   3.965   1.121   6.179 -0.6563 -0.2165 -1.8484
   93SAPC   H2S 8971   4.056   0.974   6.230 -1.1985 -1.0242 -1.6324
   93SAPC    C3 8972   3.778   1.318   6.554  0.2242 -0.1597 -0.9835
   93SAPC    HX 8973   3.835   1.413   6.546 -1.1773  0.8600  0.4170
   93SAPC    HY 8974   3.748   1.320   6.661  0.2111 -3.9871 -0.7654
   93SAPC   O31 8975   3.667   1.330   6.471  0.2003  0.5672  0.3333
   93SAPC   C31 8976   3.697   1.376   6.344 -0.2751 -1.0797  0.2986
   93SAPC   O32 8977   3.805   1.421   6.306  0.3804 -0.1497  0.3885
   93SAPC   C32 8978   3.564   1.398   6.269 -0.3734  0.2500  0.0049
   93SAPC   H2X 8979   3.527   1.500   6.295  0.8000  0.3628  1.3696
   93SAPC   H2Y 8980   3.490   1.331   6.319 -0.8166  0.9427  0.2976
   93SAPC   C23 8981   3.860   0.930   6.144 -0.4632  0.3317  0.3872
   93SAPC   H3R 8982   3.752   0.952   6.158 -0.8824 -0.7433 -0.9767
   93SAPC   H3S 8983   3.858   0.824   6.176  1.0542  0.1725  0.0300
   93SAPC   C24 8984   3.909   0.940   5.993  0.4295  0.2480 -0.1695
   93SAPC   H4R 8985   4.019   0.927   5.987  0.2284 -1.4038 -0.8387
   93SAPC   H4S 8986   3.882   1.039   5.950 -0.5812  0.3916  0.7470
   93SAPC   C25 8987   3.849   0.831   5.915  0.7122 -0.2106  0.0951
   93SAPC   H5R 8988   3.785   0.769   5.980 -0.2898  0.5091 -0.1820
   93SAPC   C26 8989   3.848   0.825   5.779  0.0857 -0.0028  0.0308
   93SAPC   H6R 8990   3.803   0.734   5.735 -0.6891  0.9913 -1.3130
   93SAPC   C27 8991   3.926   0.919   5.695  0.1447  0.2001 -0.0722
   93SAPC   H7R 8992   3.969   1.008   5.745 -1.2711  1.0113 -0.2358
   93SAPC   H7S 8993   3.855   0.950   5.615 -1.0090 -1.7407  0.1354
   93SAPC   C28 8994   4.050   0.866   5.641 -0.5303 -0.0977 -0.3756
   93SAPC   H8R 8995   4.121   0.812   5.706  1.0975 -0.0014 -1.9684
   93SAPC   C29 8996   4.099   0.876   5.516 -0.1516 -0.2660 -0.2227
   93SAPC   H9R 8997   4.191   0.819   5.497 -0.1891 -0.6095  0.5867
   93SAPC  C210 8998   4.030   0.937   5.395  0.6422 -0.5582 -0.8512
   93SAPC  H10R 8999   4.099   0.950   5.309  2.7368 -1.5458  0.5870
   93SAPC  H10S 9000   3.997   1.041   5.414 -1.4267 -1.2879 -0.2826
   93SAPC  C211 9001   3.909   0.854   5.335 -0.0139 -0.6512 -0.2154
   93SAPC  H11R 9002   3.865   0.786   5.409 -1.0255 -0.2690 -0.4530
   93SAPC  C212 9003   3.840   0.875   5.216  0.8246  0.0888 -0.3881
   93SAPC  H12R 9004   3.763   0.805   5.179 -0.2424  0.3416  1.2683
   93SAPC  C213 9005   3.879   0.977   5.115 -0.5426 -0.0357 -0.4975
   93SAPC  H13R 9006   3.989   0.992   5.119 -0.3300 -1.7197  1.1652
   93SAPC  H13S 9007   3.823   1.063   5.158 -0.4252 -1.1462  2.0158
   93SAPC  C214 9008   3.845   0.942   4.968  0.2717 -0.4736 -0.0245
   93SAPC  H14R 9009   3.914   0.875   4.915 -0.4024 -1.2683  0.0687
   93SAPC  C215 9010   3.739   0.993   4.895 -0.5031  0.2945  0.3851
   93SAPC  H15R 9011   3.729   0.956   4.791 -0.6410  1.5604 -0.0714
   93SAPC  C216 9012   3.632   1.079   4.948  0.0382 -0.5590  0.1585
   93SAPC  H16R 9013   3.644   1.094   5.057 -0.1554  0.2736  0.0776
   93SAPC  H16S 9014   3.539   1.022   4.927  0.1606 -1.0111  0.8255
   93SAPC  C217 9015   3.623   1.218   4.878 -0.7992 -0.2271 -0.1888
   93SAPC  H17R 9016   3.704   1.279   4.924 -0.3664  1.4511 -2.9288
   93SAPC  H17S 9017   3.525   1.265   4.902  0.5898  3.4236 -0.9622
   93SAPC  C218 9018   3.651   1.226   4.730  0.2707  0.0910 -0.0409
   93SAPC  H18R 9019   3.757   1.202   4.705  0.7619  2.0146 -0.0000
   93SAPC  H18S 9020   3.631   1.330   4.697  1.3272 -0.2986 -2.0796
   93SAPC  C219 9021   3.554   1.146   4.647  1.4064 -0.3182 -0.2258
   93SAPC  H19R 9022   3.569   1.040   4.676  1.8539 -1.0657 -2.8775
   93SAPC  H19S 9023   3.584   1.155   4.540 -0.4193  0.6165 -0.6953
   93SAPC  C220 9024   3.414   1.195   4.666  0.2737  0.1406  0.2229
   93SAPC  H20R 9025   3.350   1.118   4.617 -1.5637 -0.8598  3.8683
   93SAPC  H20S 9026   3.398   1.293   4.615 -2.1690  0.7754  2.0615
   93SAPC  H20T 9027   3.377   1.188   4.770 -1.7780  3.7933 -0.0829
   93SAPC   C33 9028   3.578   1.393   6.113 -0.8592  1.1644 -0.9116
   93SAPC   H3X 9029   3.635   1.481   6.076 -0.5674  2.3014  2.0219
   93SAPC   H3Y 9030   3.476   1.406   6.070 -0.9141 -0.4940 -1.3500
   93SAPC   C34 9031   3.648   1.267   6.068  1.1138  0.2306  0.3032
   93SAPC   H4X 9032   3.597   1.172   6.093  0.6916  0.3265 -0.1893
   93SAPC   H4Y 9033   3.755   1.266   6.098  1.6545 -0.5086 -1.5296
   93SAPC   C35 9034   3.655   1.261   5.913 -0.5141 -0.3797  0.0726
   93SAPC   H5X 9035   3.557   1.297   5.873 -0.0412  0.7402 -0.1157
   93SAPC   H5Y 9036   3.677   1.155   5.889 -1.6584 -0.3153 -1.4324
   93SAPC   C36 9037   3.764   1.347   5.848 -0.7918  0.3143 -0.2647
   93SAPC   H6X 9038   3.863   1.327   5.894 -1.4863 -1.1025  0.7005
   93SAPC   H6Y 9039   3.743   1.456   5.849  0.2519  0.5188  0.9139
   93SAPC   C37 9040   3.759   1.312   5.695  0.3849  0.1077  0.1468
   93SAPC   H7X 9041   3.653   1.308   5.663  0.5488  1.3902 -0.6297
   93SAPC   H7Y 9042   3.813   1.218   5.672 -0.7954 -0.0268 -2.3857
   93SAPC   C38 9043   3.830   1.420   5.609 -0.0646 -0.8586  0.1991
   93SAPC   H8X 9044   3.928   1.449   5.654  1.1521 -1.1890 -2.1022
   93SAPC   H8Y 9045   3.779   1.519   5.612  2.3776  0.5352 -1.1789
   93SAPC   C39 9046   3.851   1.364   5.466  0.8831  0.3352  0.1413
   93SAPC   H9X 9047   3.755   1.350   5.412 -0.5230  0.5393  2.4641
   93SAPC   H9Y 9048   3.903   1.267   5.476  1.4046  0.7353  1.4939
   93SAPC  C310 9049   3.921   1.454   5.360  0.1104 -0.4425 -0.0207
   93SAPC  H10X 9050   4.020   1.483   5.402 -0.3356  1.9856 -0.5204
   93SAPC  H10Y 9051   3.862   1.545   5.340 -1.3948 -1.5037 -0.5589
   93SAPC  C311 9052   3.939   1.370   5.230 -0.2244  0.4874  0.0978
   93SAPC  H11X 9053   3.837   1.342   5.195  0.6258 -0.3789 -1.8452
   93SAPC  H11Y 9054   3.984   1.273   5.262  0.0515  0.9072  0.9996
   93SAPC  C312 9055   4.020   1.447   5.118 -0.6421  0.3707 -0.2657
   93SAPC  H12X 9056   4.119   1.469   5.164 -0.5714 -0.9472  0.2730
   93SAPC  H12Y 9057   3.977   1.541   5.078 -1.2831 -0.0621 -0.6093
   93SAPC  C313 9058   4.044   1.346   5.005  0.0908 -0.0374  0.0614
   93SAPC  H13X 9059   3.943   1.323   4.966 -1.0874  2.0214  1.6819
   93SAPC  H13Y 9060   4.074   1.252   5.055 -0.9425 -0.1316  0.5120
   93SAPC  C314 9061   4.140   1.383   4.889  0.0795  0.9948  0.3412
   93SAPC  H14X 9062   4.090   1.464   4.832 -0.1329  0.4237 -0.3071
   93SAPC  H14Y 9063   4.145   1.292   4.825 -1.0901 -0.0884  1.7333
   93SAPC  C315 9064   4.283   1.410   4.937  0.1916  0.0660 -0.1304
   93SAPC  H15X 9065   4.326   1.325   4.995  0.9548 -0.9618 -2.1050
   93SAPC  H15Y 9066   4.285   1.501   5.000  2.7068 -1.0976  1.6657
   93SAPC  C316 9067   4.384   1.428   4.823  0.4393 -0.2755 -0.6806
   93SAPC  H16X 9068   4.346   1.514   4.764 -0.6581  0.0268  0.4388
   93SAPC  H16Y 9069   4.383   1.342   4.753 -2.5855 -0.1972 -0.8768
   93SAPC  C317 9070   4.525   1.477   4.871 -0.0193 -0.6216  0.0447
   93SAPC  H17X 9071   4.573   1.387   4.913 -0.7622 -1.6029 -1.1304
   93SAPC  H17Y 9072   4.507   1.545   4.957 -1.0117  0.4292 -0.9377
   93SAPC  C318 9073   4.614   1.548   4.765  0.2018  0.1048 -0.3229
   93SAPC  H18X 9074   4.624   1.478   4.679 -1.8613 -1.8789  0.9207
   93SAPC  H18Y 9075   4.714   1.581   4.800  2.0816 -1.2477 -3.8923
   93SAPC  H18Z 9076   4.562   1.640   4.731 -1.4559 -0.2117  1.1949
   94SAPC     N 9077   2.099   1.288   6.986  0.6926  0.2140  0.3003
   94SAPC   C12 9078   2.047   1.193   6.881 -0.2663  0.4634  0.1122
   94SAPC  H12A 9079   2.129   1.174   6.813 -0.2937  1.1600 -0.1232
   94SAPC  H12B 9080   1.977   1.253   6.825  1.0126  0.2842 -1.7588
   94SAPC   C13 9081   2.187   1.397   6.925  0.0143  0.0778  0.1716
   94SAPC  H13A 9082   2.271   1.350   6.876  0.5398  0.7119  0.4472
   94SAPC  H13B 9083   2.132   1.461   6.858 -1.8461 -2.7412 -1.1553
   94SAPC  H13C 9084   2.225   1.456   7.007  0.0642  1.8133 -1.0331
   94SAPC   C14 9085   1.988   1.370   7.046  0.0055 -0.2862 -0.0549
   94SAPC  H14A 9086   1.942   1.429   6.968 -0.3104  0.0212  0.3674
   94SAPC  H14B 9087   1.906   1.316   7.091  0.7444 -0.1237  1.5213
   94SAPC  H14C 9088   2.027   1.435   7.123 -1.4572 -1.6620  1.9392
   94SAPC   C15 9089   2.175   1.209   7.091  0.8191 -0.5338 -0.8060
   94SAPC  H15A 9090   2.268   1.174   7.050  1.7867  0.4953  0.4518
   94SAPC  H15B 9091   2.176   1.276   7.175 -1.8640  1.2193 -2.0198
   94SAPC  H15C 9092   2.119   1.125   7.130  1.9507 -0.3946  1.2360
   94SAPC   C11 9093   1.971   1.065   6.924 -0.6279  0.5149 -0.5281
   94SAPC  H11A 9094   2.034   1.003   6.992 -2.6161 -1.8707 -0.7607
   94SAPC  H11B 9095   1.943   1.004   6.836 -0.9803  1.1434 -0.8548
   94SAPC     P 9096   1.755   1.005   7.048  0.2748  0.3791  0.6274
   94SAPC   O13 9097   1.830   0.912   7.131  0.0177 -0.5597 -0.1534
   94SAPC   O14 9098   1.651   1.085   7.115 -0.1637  0.1686 -0.0561
   94SAPC   O12 9099   1.849   1.105   6.982  0.1212 -0.3032 -0.4580
   94SAPC   O11 9100   1.692   0.937   6.916  0.3237 -0.1349  0.3393
   94SAPC    C1 9101   1.571   1.000   6.859  0.1809 -0.4068  0.6244
   94SAPC    HA 9102   1.506   0.916   6.826 -1.1363  0.5057  0.8222
   94SAPC    HB 9103   1.501   1.050   6.928 -0.0436 -2.6596  2.1255
   94SAPC    C2 9104   1.616   1.087   6.735  0.3268 -0.6290  0.4965
   94SAPC    HS 9105   1.675   1.171   6.778 -0.5163  1.4609 -2.1587
   94SAPC   O21 9106   1.490   1.126   6.670  0.2873 -0.0886 -0.8065
   94SAPC   C21 9107   1.491   1.253   6.635  0.1568 -0.1639 -0.8187
   94SAPC   O22 9108   1.583   1.331   6.666  0.0837 -0.1250 -0.0152
   94SAPC   C22 9109   1.381   1.286   6.541 -0.7184  0.5561 -0.1953
   94SAPC   H2R 9110   1.344   1.195   6.490 -1.7696  0.9716 -0.1903
   94SAPC   H2S 9111   1.301   1.321   6.609 -0.4397  0.0638  0.3993
   94SAPC    C3 9112   1.701   1.004   6.635 -0.0527  0.1720  0.1698
   94SAPC    HX 9113   1.654   0.906   6.616 -1.1247  0.1629  2.5975
   94SAPC    HY 9114   1.805   0.982   6.669 -0.3870 -2.2003 -0.1775
   94SAPC   O31 9115   1.705   1.066   6.502  0.1085 -0.2330  0.3865
   94SAPC   C31 9116   1.791   1.165   6.475  0.4774  0.7701  0.4139
   94SAPC   O32 9117   1.881   1.200   6.548  0.6636 -0.1987  0.0856
   94SAPC   C32 9118   1.771   1.221   6.333  0.1349 -0.3370 -0.7510
   94SAPC   H2X 9119   1.757   1.331   6.345  2.2369 -0.0599 -0.6143
   94SAPC   H2Y 9120   1.673   1.186   6.292  0.0798  0.0555 -0.9606
   94SAPC   C23 9121   1.428   1.386   6.435 -0.0924  0.6524  0.5560
   94SAPC   H3R 9122   1.501   1.329   6.373 -0.9195 -1.1724  1.1981
   94SAPC   H3S 9123   1.484   1.475   6.472 -1.6467  1.9505 -0.0867
   94SAPC   C24 9124   1.311   1.435   6.352 -0.0519  0.1682  0.1778
   94SAPC   H4R 9125   1.239   1.504   6.403 -0.3947 -2.2640  3.3174
   94SAPC   H4S 9126   1.255   1.346   6.319 -0.1318  0.4825 -0.5422
   94SAPC   C25 9127   1.373   1.515   6.228  0.2245  0.4003 -0.3556
   94SAPC   H5R 9128   1.423   1.611   6.248 -0.4852  0.9798 -1.2734
   94SAPC   C26 9129   1.384   1.462   6.105 -0.3581  0.4914  0.0057
   94SAPC   H6R 9130   1.458   1.503   6.035  1.5882 -0.4102  1.4343
   94SAPC   C27 9131   1.328   1.328   6.057  0.0979  0.4959  0.3957
   94SAPC   H7R 9132   1.306   1.324   5.948  0.9485  1.1631  0.1938
   94SAPC   H7S 9133   1.226   1.316   6.097  0.1417  0.2246  0.4326
   94SAPC   C28 9134   1.416   1.207   6.079  0.1959  0.1282  0.3984
   94SAPC   H8R 9135   1.395   1.150   6.171  1.9709 -2.3640 -0.6275
   94SAPC   C29 9136   1.514   1.154   5.993 -0.2391  0.1342  0.2098
   94SAPC   H9R 9137   1.575   1.067   6.020  0.8747  0.9134  0.2597
   94SAPC  C210 9138   1.558   1.205   5.857  0.1364 -0.7966 -0.3375
   94SAPC  H10R 9139   1.465   1.197   5.797  0.4168 -0.7968 -0.7698
   94SAPC  H10S 9140   1.629   1.138   5.805  2.7227  0.2399  1.6151
   94SAPC  C211 9141   1.622   1.348   5.857 -0.2359  0.1783  0.4008
   94SAPC  H11R 9142   1.705   1.364   5.927 -0.3833 -1.1431  0.8978
   94SAPC  C212 9143   1.595   1.448   5.771 -0.2973 -0.4917  0.1431
   94SAPC  H12R 9144   1.646   1.545   5.776 -0.6701 -0.3665  2.2468
   94SAPC  C213 9145   1.487   1.451   5.668 -0.3671  0.1833 -0.5817
   94SAPC  H13R 9146   1.460   1.557   5.650  0.3047  0.5813  0.6405
   94SAPC  H13S 9147   1.395   1.405   5.711 -0.9755  0.7847 -1.2031
   94SAPC  C214 9148   1.527   1.375   5.542 -0.2476  0.5010 -0.4010
   94SAPC  H14R 9149   1.631   1.377   5.507 -0.1903  0.8215 -0.2150
   94SAPC  C215 9150   1.443   1.292   5.469 -0.1475 -0.7705 -0.2495
   94SAPC  H15R 9151   1.485   1.244   5.379  0.8974  1.7455 -1.2055
   94SAPC  C216 9152   1.302   1.256   5.507 -0.4943 -0.5038 -0.5782
   94SAPC  H16R 9153   1.300   1.226   5.614 -1.0543  1.1534 -0.1051
   94SAPC  H16S 9154   1.266   1.165   5.455  0.3550 -0.5761 -1.0495
   94SAPC  C217 9155   1.198   1.367   5.478  0.0464  0.4443  0.4747
   94SAPC  H17R 9156   1.217   1.464   5.530 -0.5384  0.4919  0.6096
   94SAPC  H17S 9157   1.098   1.326   5.504  0.0105 -1.9983 -2.8877
   94SAPC  C218 9158   1.213   1.396   5.332  0.6185 -0.5309  0.3694
   94SAPC  H18R 9159   1.197   1.309   5.265 -2.5606  0.8869 -0.9596
   94SAPC  H18S 9160   1.311   1.440   5.306  0.0944 -0.6445 -2.0969
   94SAPC  C219 9161   1.101   1.498   5.294  0.4856 -0.4623  0.4248
   94SAPC  H19R 9162   1.138   1.536   5.197  0.2502 -1.1419  0.0565
   94SAPC  H19S 9163   1.109   1.582   5.366  0.3970  0.2485 -0.3801
   94SAPC  C220 9164   0.955   1.453   5.276 -0.6741  0.1952 -0.3274
   94SAPC  H20R 9165   0.951   1.386   5.187  0.9714  0.8268 -0.9185
   94SAPC  H20S 9166   0.897   1.542   5.244 -0.8393  0.1796 -0.0719
   94SAPC  H20T 9167   0.922   1.400   5.367  1.9958 -3.5744 -1.3073
   94SAPC   C33 9168   1.880   1.193   6.234  0.0848  0.9415  0.1779
   94SAPC   H3X 9169   1.974   1.228   6.282  2.2914 -1.0334 -2.3900
   94SAPC   H3Y 9170   1.855   1.259   6.148  1.0299  1.6043  0.3953
   94SAPC   C34 9171   1.894   1.042   6.195 -0.0342  0.0560 -0.8371
   94SAPC   H4X 9172   1.790   1.011   6.172 -0.9184  0.6628  1.9315
   94SAPC   H4Y 9173   1.918   0.983   6.286  1.0905 -0.4480 -1.4408
   94SAPC   C35 9174   1.986   1.013   6.077 -0.4398 -0.1096 -0.9462
   94SAPC   H5X 9175   2.013   0.905   6.065 -1.8651 -0.5080 -0.7586
   94SAPC   H5Y 9176   2.079   1.069   6.096 -0.2182 -0.0446 -2.1279
   94SAPC   C36 9177   1.933   1.072   5.945 -0.3146 -0.0505 -0.0086
   94SAPC   H6X 9178   1.923   1.177   5.981  0.1662 -0.0315  0.0807
   94SAPC   H6Y 9179   1.830   1.039   5.919 -0.3411 -0.0971  0.1538
   94SAPC   C37 9180   2.035   1.050   5.830  0.2303  0.4516 -0.6114
   94SAPC   H7X 9181   2.101   0.964   5.854  0.1433  0.5526 -0.0024
   94SAPC   H7Y 9182   2.096   1.143   5.825  0.7771  0.1978  0.8051
   94SAPC   C38 9183   1.969   1.026   5.691 -0.4332 -0.7732 -0.2310
   94SAPC   H8X 9184   1.891   0.946   5.696  0.0198 -1.1498  1.4265
   94SAPC   H8Y 9185   2.049   0.998   5.619 -0.9340  1.1253 -1.5847
   94SAPC   C39 9186   1.895   1.156   5.648  0.7130 -0.2524 -0.0594
   94SAPC   H9X 9187   1.970   1.238   5.649  1.9822 -1.3809 -0.3500
   94SAPC   H9Y 9188   1.826   1.191   5.728  0.1768 -1.1833 -0.1052
   94SAPC  C310 9189   1.828   1.143   5.519  0.6390 -0.1795  0.3834
   94SAPC  H10X 9190   1.743   1.213   5.505  2.1600  1.6068 -0.4052
   94SAPC  H10Y 9191   1.780   1.045   5.500  0.8203 -0.1744 -0.1225
   94SAPC  C311 9192   1.919   1.160   5.399  0.7431  0.0836  0.3221
   94SAPC  H11X 9193   2.021   1.129   5.428  1.3205  1.1567 -0.4926
   94SAPC  H11Y 9194   1.931   1.270   5.388 -0.6738  0.3086  0.7632
   94SAPC  C312 9195   1.880   1.099   5.267  0.0631 -0.5228  0.0168
   94SAPC  H12X 9196   1.834   0.998   5.277  0.2173 -0.7678 -1.4846
   94SAPC  H12Y 9197   1.974   1.092   5.206  0.4522  2.2097  0.1956
   94SAPC  C313 9198   1.779   1.174   5.189 -0.4065 -0.8225  0.0239
   94SAPC  H13X 9199   1.833   1.267   5.164 -2.1843  0.4175  0.5773
   94SAPC  H13Y 9200   1.689   1.190   5.253 -0.6576 -1.3981 -0.1811
   94SAPC  C314 9201   1.722   1.096   5.067 -0.7259  0.6709 -0.4848
   94SAPC  H14X 9202   1.654   1.013   5.095  0.5801 -0.4103 -0.4523
   94SAPC  H14Y 9203   1.808   1.043   5.021 -0.8054 -1.2772  1.4492
   94SAPC  C315 9204   1.641   1.173   4.961 -0.5641  0.3854 -0.3769
   94SAPC  H15X 9205   1.721   1.229   4.908 -2.2879  2.9260 -0.4669
   94SAPC  H15Y 9206   1.580   1.254   5.004 -0.3611  0.1348  0.4021
   94SAPC  C316 9207   1.562   1.075   4.872  0.4841  0.1096 -0.0008
   94SAPC  H16X 9208   1.476   1.039   4.932  1.2773  1.3224  1.9553
   94SAPC  H16Y 9209   1.624   0.992   4.833  0.3854  0.4045 -0.7998
   94SAPC  C317 9210   1.501   1.143   4.748  0.4650  0.5608  0.1740
   94SAPC  H17X 9211   1.434   1.065   4.707 -0.5311  1.0842  0.7607
   94SAPC  H17Y 9212   1.582   1.160   4.674  2.0826 -1.6338  1.3022
   94SAPC  C318 9213   1.425   1.276   4.778 -0.0822  0.3619  0.3034
   94SAPC  H18X 9214   1.490   1.356   4.818  1.7662  0.1833 -2.1585
   94SAPC  H18Y 9215   1.339   1.254   4.846 -0.3756 -0.5806 -0.3499
   94SAPC  H18Z 9216   1.379   1.319   4.687 -1.8236  1.1480  1.4877
   95SAPC     N 9217   1.262   3.324   1.689  0.4222 -0.1630 -0.5017
   95SAPC   C12 9218   1.282   3.302   1.839 -0.2102 -0.1405  0.8405
   95SAPC  H12A 9219   1.348   3.373   1.887  1.2478 -0.3537 -0.7493
   95SAPC  H12B 9220   1.339   3.211   1.846 -1.4759 -1.0466 -0.1962
   95SAPC   C13 9221   1.388   3.336   1.618 -0.8078 -0.1951  0.1559
   95SAPC  H13A 9222   1.442   3.245   1.640  1.2720  1.0177  0.2406
   95SAPC  H13B 9223   1.383   3.340   1.510 -3.0533 -2.6521  0.0475
   95SAPC  H13C 9224   1.440   3.421   1.657 -0.4030 -1.5889  2.8721
   95SAPC   C14 9225   1.179   3.222   1.634  0.2917  0.3359 -0.4441
   95SAPC  H14A 9226   1.179   3.245   1.529 -0.4196 -0.0233 -0.5296
   95SAPC  H14B 9227   1.216   3.120   1.639  1.1584  0.6166 -0.9339
   95SAPC  H14C 9228   1.076   3.219   1.664  0.0014 -2.0024 -1.4787
   95SAPC   C15 9229   1.195   3.456   1.665  0.0159  0.3604 -0.4788
   95SAPC  H15A 9230   1.245   3.535   1.719 -0.8250 -0.9657  2.4510
   95SAPC  H15B 9231   1.200   3.470   1.558 -1.2073  0.7904 -0.5009
   95SAPC  H15C 9232   1.090   3.456   1.690 -0.3976 -1.2216 -2.0774
   95SAPC   C11 9233   1.156   3.281   1.927  0.4689 -1.2961  0.1117
   95SAPC  H11A 9234   1.096   3.374   1.915  2.1819 -0.1384  0.1266
   95SAPC  H11B 9235   1.187   3.292   2.034 -0.0122 -0.9256  0.2166
   95SAPC     P 9236   1.091   3.023   1.949 -0.3032  0.2617 -0.0974
   95SAPC   O13 9237   0.976   2.943   1.911 -0.2627  0.0769  0.2190
   95SAPC   O14 9238   1.216   2.974   1.899  0.3251 -0.1518  0.4054
   95SAPC   O12 9239   1.071   3.169   1.903  0.0872 -0.2019  0.6197
   95SAPC   O11 9240   1.095   3.025   2.106  0.3789 -0.3638  0.7589
   95SAPC    C1 9241   1.210   3.045   2.183  0.3607 -0.3617 -0.2244
   95SAPC    HA 9242   1.298   3.001   2.132  0.2531 -0.9592  0.0877
   95SAPC    HB 9243   1.217   3.155   2.189 -1.2364 -0.2638  0.3451
   95SAPC    C2 9244   1.193   2.992   2.329 -0.2073 -0.4370 -0.4097
   95SAPC    HS 9245   1.098   3.040   2.359  0.9503  1.4471  0.4224
   95SAPC   O21 9246   1.293   3.039   2.423  0.1856  0.2080  0.1436
   95SAPC   C21 9247   1.426   3.022   2.392  0.3556 -0.0146 -0.5735
   95SAPC   O22 9248   1.461   2.951   2.306 -0.7156 -0.4161  0.1611
   95SAPC   C22 9249   1.525   3.098   2.493 -0.3404 -0.0846 -0.5059
   95SAPC   H2R 9250   1.564   3.183   2.433 -0.1753  0.6380  0.6098
   95SAPC   H2S 9251   1.459   3.145   2.569  1.3434  0.6126  0.5682
   95SAPC    C3 9252   1.160   2.835   2.337 -0.3559 -0.8326  0.1543
   95SAPC    HX 9253   1.254   2.785   2.306  1.6458  3.2306 -0.9057
   95SAPC    HY 9254   1.080   2.813   2.262  0.1368 -0.7538 -0.4045
   95SAPC   O31 9255   1.123   2.797   2.466  0.3627  0.0214  0.2749
   95SAPC   C31 9256   1.067   2.680   2.480  1.1795  0.2354  0.4330
   95SAPC   O32 9257   1.069   2.595   2.397  0.1537  0.1355  0.5233
   95SAPC   C32 9258   0.965   2.679   2.596  0.1092 -0.3333  0.6392
   95SAPC   H2X 9259   0.900   2.590   2.585 -1.8339  1.3009 -3.2475
   95SAPC   H2Y 9260   0.901   2.768   2.576 -1.4211 -0.9439  2.4948
   95SAPC   C23 9261   1.636   3.018   2.549  0.4723 -0.0908 -0.1002
   95SAPC   H3R 9262   1.720   3.023   2.476 -0.9340  1.9746 -1.7001
   95SAPC   H3S 9263   1.610   2.910   2.562  1.8565 -0.2998  1.2427
   95SAPC   C24 9264   1.682   3.088   2.679 -0.2449 -0.1874  0.0289
   95SAPC   H4R 9265   1.765   3.040   2.735  0.3191  0.0814 -0.5619
   95SAPC   H4S 9266   1.596   3.088   2.750 -0.0500 -2.7267  0.3581
   95SAPC   C25 9267   1.732   3.229   2.659 -0.0880 -0.4558 -0.2017
   95SAPC   H5R 9268   1.723   3.279   2.562 -1.9040 -3.4963 -1.7544
   95SAPC   C26 9269   1.767   3.308   2.758  0.6723 -0.0812 -0.4051
   95SAPC   H6R 9270   1.789   3.414   2.739 -0.6247  0.4879  0.9873
   95SAPC   C27 9271   1.777   3.265   2.902  0.2293 -0.5863  0.0261
   95SAPC   H7R 9272   1.730   3.166   2.919  2.1198 -1.6347 -0.5207
   95SAPC   H7S 9273   1.730   3.347   2.960  1.3922 -0.2778  0.5589
   95SAPC   C28 9274   1.914   3.255   2.956 -0.3565 -0.2460  0.2132
   95SAPC   H8R 9275   1.965   3.175   2.900 -0.1204  0.0040  0.0609
   95SAPC   C29 9276   1.964   3.315   3.063  0.8229  0.1206 -0.1906
   95SAPC   H9R 9277   2.069   3.289   3.083  0.1962 -1.9372  0.7285
   95SAPC  C210 9278   1.897   3.413   3.155  0.2037  0.9639  0.1620
   95SAPC  H10R 9279   1.789   3.388   3.162  0.5863 -1.7566 -1.9349
   95SAPC  H10S 9280   1.900   3.511   3.103  2.8616  1.3530  0.9176
   95SAPC  C211 9281   1.974   3.423   3.285  0.4390 -0.4690 -0.4211
   95SAPC  H11R 9282   2.033   3.516   3.290  0.8565 -0.7872  0.9829
   95SAPC  C212 9283   1.965   3.364   3.409 -0.1029  0.4250  0.2830
   95SAPC  H12R 9284   2.032   3.392   3.491  3.2746 -3.0351 -0.9593
   95SAPC  C213 9285   1.868   3.256   3.455 -0.5775 -0.0842 -0.6918
   95SAPC  H13R 9286   1.782   3.258   3.385 -1.7926 -1.4579  0.6888
   95SAPC  H13S 9287   1.831   3.282   3.557 -0.9567  0.5459 -0.9813
   95SAPC  C214 9288   1.942   3.127   3.442 -0.0161 -0.2999 -1.2535
   95SAPC  H14R 9289   1.952   3.076   3.344  0.5939 -0.0322 -1.3338
   95SAPC  C215 9290   1.999   3.052   3.545  0.2022 -0.5825  0.9047
   95SAPC  H15R 9291   2.052   2.961   3.514  1.0942  0.3855 -0.5258
   95SAPC  C216 9292   2.016   3.093   3.694  0.7200  0.4017  0.0675
   95SAPC  H16R 9293   1.987   3.199   3.708  0.8365  0.3060  1.0899
   95SAPC  H16S 9294   2.125   3.081   3.708  0.4612 -1.0919  1.0666
   95SAPC  C217 9295   1.943   3.015   3.798 -0.2529  0.1266 -0.5080
   95SAPC  H17R 9296   1.982   2.911   3.806  1.9297  1.0405  2.3063
   95SAPC  H17S 9297   1.834   3.010   3.780  0.0246 -1.4453 -2.0623
   95SAPC  C218 9298   1.957   3.062   3.946 -0.2019 -0.4396  0.3500
   95SAPC  H18R 9299   1.946   3.173   3.951 -0.8304 -0.5332  1.3559
   95SAPC  H18S 9300   2.055   3.029   3.987  0.5207  1.3422  0.1650
   95SAPC  C219 9301   1.839   3.014   4.027  0.6130 -0.1247  0.5624
   95SAPC  H19R 9302   1.824   2.905   4.010 -1.8020  0.0184  1.4095
   95SAPC  H19S 9303   1.751   3.062   3.979  1.3815  0.7356 -0.0005
   95SAPC  C220 9304   1.851   3.049   4.180  0.4977 -0.4784  0.5867
   95SAPC  H20R 9305   1.768   3.003   4.239  0.9021 -1.2195  0.5960
   95SAPC  H20S 9306   1.856   3.160   4.187  0.9397 -0.5640  2.1047
   95SAPC  H20T 9307   1.949   3.007   4.212  1.0765  1.1649  1.0879
   95SAPC   C33 9308   1.032   2.694   2.733 -0.1506 -0.6441 -0.9113
   95SAPC   H3X 9309   0.961   2.751   2.797 -0.7265  0.2583 -2.3145
   95SAPC   H3Y 9310   1.125   2.755   2.735 -1.1909  1.0272  1.2013
   95SAPC   C34 9311   1.061   2.568   2.821  0.1236  0.9779 -0.2651
   95SAPC   H4X 9312   1.104   2.480   2.768 -1.3403 -1.3664  2.1744
   95SAPC   H4Y 9313   0.969   2.543   2.878 -0.0506 -0.8953 -1.3096
   95SAPC   C35 9314   1.160   2.605   2.934 -0.1745 -0.3390  0.5554
   95SAPC   H5X 9315   1.122   2.691   2.994  1.0692 -0.3990  1.4809
   95SAPC   H5Y 9316   1.264   2.632   2.906 -0.1888 -1.0781 -0.2410
   95SAPC   C36 9317   1.154   2.483   3.031  0.0441  0.3086 -0.6250
   95SAPC   H6X 9318   1.204   2.398   2.980  0.6272  0.4622 -0.3221
   95SAPC   H6Y 9319   1.052   2.446   3.055  0.8017  0.4362  3.7030
   95SAPC   C37 9320   1.231   2.511   3.150 -0.3776 -0.5132 -0.0489
   95SAPC   H7X 9321   1.166   2.578   3.211 -0.7639  0.2735 -1.2988
   95SAPC   H7Y 9322   1.328   2.557   3.121 -0.7931  0.3538 -0.0964
   95SAPC   C38 9323   1.270   2.386   3.241 -0.0408 -0.0386  0.1784
   95SAPC   H8X 9324   1.353   2.337   3.185 -0.0570 -1.4783  1.3410
   95SAPC   H8Y 9325   1.186   2.316   3.261 -0.2613  0.2728  0.3548
   95SAPC   C39 9326   1.329   2.416   3.383 -0.8143  0.3879  0.0129
   95SAPC   H9X 9327   1.420   2.479   3.394  0.6521 -1.5635 -0.3582
   95SAPC   H9Y 9328   1.364   2.323   3.434  0.6709 -0.0464 -1.6993
   95SAPC  C310 9329   1.225   2.477   3.472  0.1856  0.8785  0.2134
   95SAPC  H10X 9330   1.130   2.418   3.466  1.0787 -0.6429  0.5030
   95SAPC  H10Y 9331   1.209   2.586   3.457  0.5128  0.8881 -0.0742
   95SAPC  C311 9332   1.258   2.452   3.625 -0.3411 -0.3673 -0.0731
   95SAPC  H11X 9333   1.346   2.512   3.659 -0.2462 -0.0767 -0.8066
   95SAPC  H11Y 9334   1.261   2.342   3.634  0.2243 -0.3229  0.3836
   95SAPC  C312 9335   1.141   2.510   3.709 -0.5490 -0.7367 -0.1530
   95SAPC  H12X 9336   1.055   2.439   3.709 -0.7091 -0.5464  0.4329
   95SAPC  H12Y 9337   1.101   2.599   3.655  3.1744  2.0223  1.2599
   95SAPC  C313 9338   1.180   2.555   3.849  0.6472  0.7013 -0.5876
   95SAPC  H13X 9339   1.191   2.665   3.855  1.6501  0.5088  2.9090
   95SAPC  H13Y 9340   1.276   2.505   3.873 -0.2126 -0.7499 -0.0089
   95SAPC  C314 9341   1.091   2.494   3.957  0.5052 -0.2226 -0.2325
   95SAPC  H14X 9342   1.089   2.384   3.975 -0.8476  0.1063  2.0665
   95SAPC  H14Y 9343   0.990   2.519   3.919  1.1575  2.7477 -0.2673
   95SAPC  C315 9344   1.118   2.571   4.092 -0.4385  0.0009  0.1458
   95SAPC  H15X 9345   1.099   2.678   4.072 -0.0229  0.4108  1.7223
   95SAPC  H15Y 9346   1.222   2.543   4.120 -0.4221 -1.3128 -1.0894
   95SAPC  C316 9347   1.027   2.530   4.208  0.1341 -0.0872  0.1317
   95SAPC  H16X 9348   1.048   2.422   4.225  1.0455 -0.2039 -1.4886
   95SAPC  H16Y 9349   0.922   2.556   4.183  0.2061  0.9929  0.8981
   95SAPC  C317 9350   1.058   2.619   4.330 -0.1896  0.7224 -0.1049
   95SAPC  H17X 9351   1.024   2.723   4.311 -0.9647  0.2788 -1.2714
   95SAPC  H17Y 9352   1.168   2.610   4.344 -0.1340 -0.8267 -1.2942
   95SAPC  C318 9353   0.990   2.565   4.463  0.2521  0.1806  0.4239
   95SAPC  H18X 9354   0.881   2.580   4.474 -0.1799 -2.2267 -0.0071
   95SAPC  H18Y 9355   1.044   2.615   4.545  1.0313 -0.4008  0.2798
   95SAPC  H18Z 9356   1.012   2.456   4.468 -0.1528  0.0725 -0.0347
   96SAPC     N 9357   0.708   4.386   1.769  0.5400 -0.3185  0.2830
   96SAPC   C12 9358   0.759   4.322   1.891  0.2458 -0.1602  0.3064
   96SAPC  H12A 9359   0.828   4.243   1.863 -0.3343 -0.0568 -1.5444
   96SAPC  H12B 9360   0.672   4.272   1.932  0.6648 -0.7788  0.4698
   96SAPC   C13 9361   0.605   4.494   1.808  0.6682  0.1463  0.4835
   96SAPC  H13A 9362   0.660   4.559   1.875  3.1269 -0.2967 -1.0116
   96SAPC  H13B 9363   0.574   4.560   1.728  3.4376  0.5994 -0.3037
   96SAPC  H13C 9364   0.522   4.442   1.855  0.4307 -1.0923 -1.2333
   96SAPC   C14 9365   0.820   4.454   1.701 -0.2245  0.1847 -0.1274
   96SAPC  H14A 9366   0.862   4.529   1.767 -0.4839 -0.1769  0.4521
   96SAPC  H14B 9367   0.909   4.397   1.679 -0.3496  0.1253 -0.4998
   96SAPC  H14C 9368   0.790   4.497   1.606 -1.2534  1.8313  0.8785
   96SAPC   C15 9369   0.651   4.276   1.688 -0.8193  0.2197  0.7932
   96SAPC  H15A 9370   0.619   4.323   1.596  1.2013  0.7465  0.2899
   96SAPC  H15B 9371   0.718   4.193   1.671 -1.0318 -0.2630  2.1638
   96SAPC  H15C 9372   0.571   4.230   1.744 -4.6097  1.9601 -2.7090
   96SAPC   C11 9373   0.817   4.404   2.007 -0.5757  0.3645 -0.6543
   96SAPC  H11A 9374   0.863   4.339   2.085  0.6931  2.8765  0.8446
   96SAPC  H11B 9375   0.732   4.460   2.051  0.8995  1.4519  1.0078
   96SAPC     P 9376   1.060   4.499   1.959  0.0194  0.1767  0.0524
   96SAPC   O13 9377   1.099   4.442   1.828 -0.3641  0.2174  0.1001
   96SAPC   O14 9378   1.124   4.629   1.996  0.2286  0.4790  0.2657
   96SAPC   O12 9379   0.909   4.507   1.969  0.6488 -0.3381  0.0953
   96SAPC   O11 9380   1.091   4.391   2.070  0.1862  0.5227  0.2434
   96SAPC    C1 9381   1.129   4.434   2.202  0.3299  0.0939 -0.1969
   96SAPC    HA 9382   1.107   4.540   2.227 -2.8369 -1.0432  2.7244
   96SAPC    HB 9383   1.077   4.375   2.281 -2.5228  1.0630 -1.2447
   96SAPC    C2 9384   1.277   4.390   2.227 -0.1050 -0.0289 -0.1979
   96SAPC    HS 9385   1.333   4.443   2.147  0.4270 -1.2866 -0.6784
   96SAPC   O21 9386   1.302   4.243   2.213  0.6115 -0.4679  0.0057
   96SAPC   C21 9387   1.427   4.206   2.200  0.4725 -0.0235  0.0324
   96SAPC   O22 9388   1.524   4.279   2.213 -0.1500 -0.1681  0.5003
   96SAPC   C22 9389   1.437   4.063   2.156  0.1048  1.0160  0.2571
   96SAPC   H2R 9390   1.341   4.009   2.162  0.4842  0.4138  1.0504
   96SAPC   H2S 9391   1.458   4.075   2.048 -0.2666 -0.5195  0.0020
   96SAPC    C3 9392   1.325   4.458   2.359 -0.0679 -0.2042  0.0101
   96SAPC    HX 9393   1.287   4.562   2.351 -1.6799 -0.6388  1.3880
   96SAPC    HY 9394   1.435   4.464   2.368  0.1066 -2.6560  0.2922
   96SAPC   O31 9395   1.263   4.409   2.479  0.4781  0.2846  0.9406
   96SAPC   C31 9396   1.344   4.339   2.556 -0.8055 -0.1816  0.2983
   96SAPC   O32 9397   1.467   4.331   2.544 -0.0787 -0.6507  0.0147
   96SAPC   C32 9398   1.270   4.277   2.665  0.7547  0.3513 -0.2890
   96SAPC   H2X 9399   1.243   4.172   2.641 -0.7620  0.6632 -0.0290
   96SAPC   H2Y 9400   1.173   4.328   2.679  1.0067  1.2935 -1.7812
   96SAPC   C23 9401   1.544   3.980   2.232 -0.2448  0.3257 -0.0408
   96SAPC   H3R 9402   1.629   4.032   2.280  0.7872 -1.1789 -0.1752
   96SAPC   H3S 9403   1.588   3.917   2.151  1.2523  2.2909 -0.8533
   96SAPC   C24 9404   1.483   3.887   2.344  0.3803  0.7535 -0.1463
   96SAPC   H4R 9405   1.432   3.808   2.285 -0.5308  1.4633 -0.3182
   96SAPC   H4S 9406   1.409   3.944   2.404  0.3695  0.7249 -0.1321
   96SAPC   C25 9407   1.588   3.821   2.435 -0.2622 -1.1835 -0.3162
   96SAPC   H5R 9408   1.626   3.724   2.398 -1.9944 -2.5940  1.4142
   96SAPC   C26 9409   1.634   3.879   2.547 -0.3159 -0.2844 -0.4436
   96SAPC   H6R 9410   1.720   3.842   2.605  0.4295  2.1583  0.1045
   96SAPC   C27 9411   1.605   4.016   2.606  0.9690  0.4415  0.1324
   96SAPC   H7R 9412   1.552   3.990   2.700  1.6887 -0.8977  0.1892
   96SAPC   H7S 9413   1.534   4.073   2.542  1.9134 -0.0082 -1.3725
   96SAPC   C28 9414   1.731   4.092   2.649 -0.1382  0.3729 -0.3713
   96SAPC   H8R 9415   1.810   4.107   2.574  2.3805  0.8496  2.2266
   96SAPC   C29 9416   1.768   4.126   2.776 -0.7022 -0.6341 -0.4390
   96SAPC   H9R 9417   1.867   4.173   2.778 -0.5915 -0.8684  1.4212
   96SAPC  C210 9418   1.695   4.101   2.908 -0.7705  0.3999 -0.2765
   96SAPC  H10R 9419   1.753   4.022   2.959  0.4210  0.5998 -1.2806
   96SAPC  H10S 9420   1.590   4.066   2.901 -0.9656 -0.0777  3.3305
   96SAPC  C211 9421   1.696   4.235   2.983 -0.4992  0.7638 -0.3488
   96SAPC  H11R 9422   1.633   4.314   2.940  1.0858  1.4450 -1.4999
   96SAPC  C212 9423   1.772   4.262   3.088  0.7157 -0.1966 -0.5483
   96SAPC  H12R 9424   1.768   4.354   3.148  0.7963  0.0047 -0.8539
   96SAPC  C213 9425   1.861   4.157   3.152  0.4947 -0.1199 -0.1128
   96SAPC  H13R 9426   1.964   4.186   3.185  0.8397 -1.9605  0.5706
   96SAPC  H13S 9427   1.899   4.082   3.080  1.9239 -0.5638  1.0500
   96SAPC  C214 9428   1.787   4.076   3.267 -0.4578  0.2341 -0.2557
   96SAPC  H14R 9429   1.719   3.996   3.233  0.5687 -1.4415  1.4012
   96SAPC  C215 9430   1.808   4.077   3.406 -0.5516 -0.7547  0.1803
   96SAPC  H15R 9431   1.744   4.016   3.472 -1.2189 -1.2909 -0.9321
   96SAPC  C216 9432   1.880   4.185   3.487 -0.5151 -0.0917  0.4288
   96SAPC  H16R 9433   1.910   4.276   3.431 -3.6347  0.4351 -0.6278
   96SAPC  H16S 9434   1.972   4.142   3.533 -2.0640 -0.8068  3.0641
   96SAPC  C217 9435   1.773   4.249   3.587 -0.1668  0.2520 -0.1051
   96SAPC  H17R 9436   1.727   4.181   3.661  2.2171 -1.4540 -0.0769
   96SAPC  H17S 9437   1.695   4.292   3.521  1.3173 -0.0400 -2.1537
   96SAPC  C218 9438   1.837   4.368   3.661  0.2794 -1.0116  0.1350
   96SAPC  H18R 9439   1.871   4.438   3.582 -3.6422  1.1977  0.1407
   96SAPC  H18S 9440   1.918   4.321   3.721  0.2270 -0.2103  0.8594
   96SAPC  C219 9441   1.752   4.435   3.770  0.4699  0.0012 -0.4116
   96SAPC  H19R 9442   1.719   4.365   3.849  2.0697  1.0567  1.2536
   96SAPC  H19S 9443   1.655   4.476   3.732 -0.9409 -4.0420 -1.6333
   96SAPC  C220 9444   1.820   4.551   3.839 -0.1193 -0.0810  0.8659
   96SAPC  H20R 9445   1.930   4.537   3.826 -0.3837 -1.7978  0.2690
   96SAPC  H20S 9446   1.797   4.558   3.947 -0.0594  2.8898  0.7687
   96SAPC  H20T 9447   1.795   4.651   3.799  1.3875  0.4947  1.2753
   96SAPC   C33 9448   1.349   4.272   2.800 -0.0451  0.1540 -0.2201
   96SAPC   H3X 9449   1.369   4.379   2.822 -0.0672  0.6441 -2.4255
   96SAPC   H3Y 9450   1.442   4.211   2.812 -0.6481 -0.9358 -0.9439
   96SAPC   C34 9451   1.255   4.216   2.914 -0.3378  0.5836 -0.1061
   96SAPC   H4X 9452   1.202   4.121   2.893 -1.4602  0.6234  2.2819
   96SAPC   H4Y 9453   1.176   4.293   2.928  1.0118  1.9962  0.0260
   96SAPC   C35 9454   1.334   4.215   3.045  0.4983 -0.1675  0.1075
   96SAPC   H5X 9455   1.374   4.318   3.057 -0.6485  0.1371  1.6675
   96SAPC   H5Y 9456   1.417   4.142   3.042 -1.5396 -2.7152  1.4505
   96SAPC   C36 9457   1.264   4.174   3.174  0.4050  0.1664 -0.2807
   96SAPC   H6X 9458   1.221   4.074   3.152  2.0347 -0.4443 -0.8626
   96SAPC   H6Y 9459   1.190   4.251   3.205  0.2989 -0.7366  1.8802
   96SAPC   C37 9460   1.363   4.145   3.289 -0.0962 -0.0291  0.5571
   96SAPC   H7X 9461   1.453   4.205   3.263 -0.2629  0.1712  0.4392
   96SAPC   H7Y 9462   1.399   4.042   3.272  1.8219  0.7434 -0.4421
   96SAPC   C38 9463   1.301   4.164   3.427  0.2886  0.0708  0.2239
   96SAPC   H8X 9464   1.210   4.102   3.441  0.5777 -0.1552  1.1223
   96SAPC   H8Y 9465   1.272   4.271   3.440  2.4278  0.9002 -1.1679
   96SAPC   C39 9466   1.396   4.120   3.535 -0.1227  0.4502  0.7587
   96SAPC   H9X 9467   1.500   4.153   3.518  0.2873 -0.0068  2.1947
   96SAPC   H9Y 9468   1.403   4.009   3.525  0.7039  0.6906 -2.2156
   96SAPC  C310 9469   1.348   4.171   3.676 -0.4708 -0.0024  0.4795
   96SAPC  H10X 9470   1.362   4.099   3.759 -0.3990 -1.3482 -0.6543
   96SAPC  H10Y 9471   1.239   4.192   3.670 -0.4526  0.2240  0.9188
   96SAPC  C311 9472   1.399   4.314   3.718  0.2082  0.0370  0.0791
   96SAPC  H11X 9473   1.378   4.387   3.637 -0.9968 -0.0796  0.2580
   96SAPC  H11Y 9474   1.507   4.304   3.740  0.3187 -1.4342 -1.0100
   96SAPC  C312 9475   1.327   4.355   3.846 -0.2213 -0.1344  0.7908
   96SAPC  H12X 9476   1.219   4.364   3.824 -0.3540 -0.6572  1.2167
   96SAPC  H12Y 9477   1.355   4.461   3.865 -2.0011  0.8850 -1.7187
   96SAPC  C313 9478   1.344   4.272   3.974 -0.2225 -0.0168 -0.1582
   96SAPC  H13X 9479   1.304   4.168   3.966  0.1768 -0.1229 -0.8379
   96SAPC  H13Y 9480   1.284   4.321   4.053 -1.1305 -1.0472 -0.1878
   96SAPC  C314 9481   1.496   4.247   4.007 -0.2510  0.2467  0.0415
   96SAPC  H14X 9482   1.543   4.345   3.985 -2.5786  1.5674  0.5718
   96SAPC  H14Y 9483   1.537   4.175   3.932  0.2752  1.6136 -1.0312
   96SAPC  C315 9484   1.517   4.207   4.155 -0.2995 -0.0107 -0.6141
   96SAPC  H15X 9485   1.489   4.100   4.161  1.2309 -0.3440  2.1682
   96SAPC  H15Y 9486   1.448   4.270   4.215  0.5418  0.2138  0.1330
   96SAPC  C316 9487   1.663   4.226   4.208 -0.0788  0.1748  0.9625
   96SAPC  H16X 9488   1.725   4.165   4.138  0.0311  2.2035 -0.7964
   96SAPC  H16Y 9489   1.669   4.172   4.305  0.2744 -0.3476  0.6581
   96SAPC  C317 9490   1.706   4.369   4.226 -0.2503 -0.2281 -0.3446
   96SAPC  H17X 9491   1.643   4.419   4.302  0.0326  0.2579 -0.4242
   96SAPC  H17Y 9492   1.695   4.431   4.134  3.2438  1.1955  0.0224
   96SAPC  C318 9493   1.854   4.378   4.261  0.1627  0.1285  0.3957
   96SAPC  H18X 9494   1.902   4.345   4.166  0.7485  0.0927  0.6981
   96SAPC  H18Y 9495   1.886   4.318   4.349 -2.9552 -1.1480  0.7698
   96SAPC  H18Z 9496   1.873   4.486   4.277 -1.8455  0.6554 -0.4438
   97SAPC     N 9497   0.803   3.284   2.193  0.0330 -0.1812  0.0482
   97SAPC   C12 9498   0.695   3.163   2.171  0.5597 -0.0123  0.0030
   97SAPC  H12A 9499   0.619   3.175   2.247 -0.0026  0.0120 -0.5629
   97SAPC  H12B 9500   0.750   3.071   2.184  2.4481  0.8210 -1.4839
   97SAPC   C13 9501   0.916   3.251   2.290  0.2882  0.5907 -0.0591
   97SAPC  H13A 9502   0.985   3.176   2.255 -1.3384 -0.8974 -0.2309
   97SAPC  H13B 9503   0.960   3.343   2.327 -0.1203  0.8390 -0.1899
   97SAPC  H13C 9504   0.871   3.209   2.379 -0.4232  0.8695 -0.2771
   97SAPC   C14 9505   0.852   3.321   2.054 -0.2832 -0.2781 -0.0404
   97SAPC  H14A 9506   0.762   3.340   1.997 -1.1654 -1.0272  1.0475
   97SAPC  H14B 9507   0.926   3.400   2.060  0.5561 -1.1233  1.1831
   97SAPC  H14C 9508   0.914   3.245   2.010  1.1286  0.8004 -0.0073
   97SAPC   C15 9509   0.722   3.396   2.256 -0.0271 -0.0152 -0.6351
   97SAPC  H15A 9510   0.781   3.480   2.288  1.3839 -0.6896 -1.3977
   97SAPC  H15B 9511   0.639   3.424   2.192 -0.3283  0.8854  0.1347
   97SAPC  H15C 9512   0.669   3.367   2.346 -1.2821  0.6682 -1.1291
   97SAPC   C11 9513   0.616   3.167   2.039 -0.3007 -0.5218  0.0329
   97SAPC  H11A 9514   0.537   3.088   2.037 -1.3138  0.4897 -1.2936
   97SAPC  H11B 9515   0.689   3.148   1.958  1.6345  0.1498  1.5521
   97SAPC     P 9516   0.414   3.336   2.003 -0.0049  0.4141 -0.3357
   97SAPC   O13 9517   0.384   3.415   1.879  0.3862  0.0916  0.1511
   97SAPC   O14 9518   0.329   3.217   2.020  0.1725 -0.3092 -0.1062
   97SAPC   O12 9519   0.565   3.301   2.014  0.3002  0.3593 -0.1813
   97SAPC   O11 9520   0.414   3.430   2.138  0.5226 -0.6267  0.0730
   97SAPC    C1 9521   0.347   3.375   2.252  0.0257  0.1437  0.2832
   97SAPC    HA 9522   0.246   3.332   2.234  0.1623 -0.5831  1.2283
   97SAPC    HB 9523   0.417   3.300   2.295 -2.1625 -0.9538  2.1480
   97SAPC    C2 9524   0.328   3.493   2.351  1.0247 -0.6295  0.7963
   97SAPC    HS 9525   0.253   3.566   2.314 -0.4819 -2.2677  0.4788
   97SAPC   O21 9526   0.461   3.552   2.372  0.0108 -0.1443  0.6164
   97SAPC   C21 9527   0.460   3.682   2.388  0.9924  0.3520 -0.3446
   97SAPC   O22 9528   0.357   3.750   2.409 -0.3039  0.3479  0.1224
   97SAPC   C22 9529   0.606   3.733   2.381  0.3989 -0.2976 -0.2151
   97SAPC   H2R 9530   0.670   3.660   2.435  0.8934 -0.5420 -1.1175
   97SAPC   H2S 9531   0.635   3.743   2.274 -0.9405  0.9734 -0.4969
   97SAPC    C3 9532   0.270   3.453   2.493 -0.0621  0.2086 -0.0370
   97SAPC    HX 9533   0.161   3.446   2.473  0.1332  1.4739 -1.6936
   97SAPC    HY 9534   0.306   3.545   2.545  2.1943  0.2922 -1.6201
   97SAPC   O31 9535   0.335   3.340   2.555 -0.4838 -0.3880 -0.1000
   97SAPC   C31 9536   0.252   3.264   2.625 -0.6162  0.6603  0.5803
   97SAPC   O32 9537   0.130   3.277   2.628 -0.0701 -0.3775  0.4401
   97SAPC   C32 9538   0.334   3.162   2.709  0.2394 -0.5565  0.3735
   97SAPC   H2X 9539   0.337   3.075   2.640 -0.4954  0.7092 -1.3321
   97SAPC   H2Y 9540   0.268   3.116   2.786 -0.7945 -0.1917 -0.2726
   97SAPC   C23 9541   0.635   3.870   2.461 -0.2088  0.6489 -0.3666
   97SAPC   H3R 9542   0.560   3.946   2.428 -0.5631 -0.0291 -1.1698
   97SAPC   H3S 9543   0.731   3.915   2.428  0.6087 -0.3661  0.5825
   97SAPC   C24 9544   0.648   3.855   2.610  0.4872 -0.3544  0.1789
   97SAPC   H4R 9545   0.702   3.937   2.662  2.1859 -0.7174 -0.9127
   97SAPC   H4S 9546   0.711   3.763   2.613 -1.0750 -1.4564  1.9715
   97SAPC   C25 9547   0.515   3.836   2.679 -0.3932  0.6681 -0.3442
   97SAPC   H5R 9548   0.431   3.900   2.649  1.4904  2.9238 -1.0759
   97SAPC   C26 9549   0.492   3.742   2.771 -0.3073  0.7684 -0.6771
   97SAPC   H6R 9550   0.399   3.747   2.829  0.7408 -2.7276  1.6015
   97SAPC   C27 9551   0.586   3.641   2.821 -0.3878 -0.2744  0.5846
   97SAPC   H7R 9552   0.685   3.690   2.832  0.0642 -0.9293 -0.4065
   97SAPC   H7S 9553   0.604   3.568   2.739 -0.7528 -0.5254  0.7253
   97SAPC   C28 9554   0.530   3.587   2.952  0.3418 -0.3375 -0.1748
   97SAPC   H8R 9555   0.473   3.494   2.963  1.6172 -0.9950  1.2961
   97SAPC   C29 9556   0.571   3.636   3.073 -0.3702  0.3964 -0.2604
   97SAPC   H9R 9557   0.518   3.600   3.163  1.9747 -1.2700  0.5557
   97SAPC  C210 9558   0.664   3.755   3.098  0.4784  0.1932  0.6971
   97SAPC  H10R 9559   0.667   3.812   3.003  1.1973  1.8497  1.6598
   97SAPC  H10S 9560   0.767   3.714   3.108 -0.0984 -1.2853  0.7066
   97SAPC  C211 9561   0.625   3.840   3.213  0.8759 -0.7107  0.3443
   97SAPC  H11R 9562   0.574   3.933   3.186  0.1544 -0.9792  0.7609
   97SAPC  C212 9563   0.650   3.816   3.341  0.1527 -0.5138 -0.7548
   97SAPC  H12R 9564   0.613   3.882   3.421 -1.6689 -1.2320 -0.9656
   97SAPC  C213 9565   0.727   3.699   3.385  0.1830  0.3117 -0.4902
   97SAPC  H13R 9566   0.813   3.739   3.442  0.1028 -0.4049  0.1496
   97SAPC  H13S 9567   0.770   3.634   3.307  1.5202 -0.0486  0.5212
   97SAPC  C214 9568   0.645   3.604   3.470  0.0399  0.2498 -0.1602
   97SAPC  H14R 9569   0.562   3.557   3.414  0.0664  1.7125 -1.5241
   97SAPC  C215 9570   0.642   3.604   3.602 -0.5866  0.8050  0.5328
   97SAPC  H15R 9571   0.581   3.532   3.658  0.1399 -0.6764 -0.5036
   97SAPC  C216 9572   0.718   3.699   3.694  0.6169 -0.6269  0.0116
   97SAPC  H16R 9573   0.731   3.799   3.647 -2.8218 -1.1579 -2.4482
   97SAPC  H16S 9574   0.816   3.662   3.729  0.8922 -2.0064 -2.0412
   97SAPC  C217 9575   0.636   3.721   3.827 -0.1494 -0.2907 -0.5983
   97SAPC  H17R 9576   0.583   3.626   3.849 -2.7982  0.8066 -1.9008
   97SAPC  H17S 9577   0.552   3.791   3.809  1.5003  1.5991 -1.3750
   97SAPC  C218 9578   0.726   3.783   3.942  0.2735 -0.1126 -0.5030
   97SAPC  H18R 9579   0.758   3.880   3.898  1.6374 -0.6383 -0.6851
   97SAPC  H18S 9580   0.812   3.718   3.968  0.2426  0.3096  0.7488
   97SAPC  C219 9581   0.649   3.811   4.077 -0.1576 -0.3006 -0.3299
   97SAPC  H19R 9582   0.651   3.715   4.133 -1.0068 -0.7256 -0.9855
   97SAPC  H19S 9583   0.544   3.843   4.059 -0.5769 -0.9005  0.9225
   97SAPC  C220 9584   0.715   3.916   4.167 -0.3350  0.0103 -0.4020
   97SAPC  H20R 9585   0.661   3.937   4.262 -1.5746 -0.5541 -0.9609
   97SAPC  H20S 9586   0.719   4.007   4.104 -1.2975 -1.6214 -2.9639
   97SAPC  H20T 9587   0.813   3.869   4.188 -1.4103 -2.0778  0.2444
   97SAPC   C33 9588   0.477   3.203   2.750 -0.6016 -0.6812  0.2652
   97SAPC   H3X 9589   0.515   3.298   2.706  0.5174 -0.1774  2.2079
   97SAPC   H3Y 9590   0.551   3.131   2.707 -0.5664 -0.8634  0.6306
   97SAPC   C34 9591   0.494   3.209   2.899 -0.2626  0.0577 -0.3081
   97SAPC   H4X 9592   0.472   3.114   2.951  0.6943 -1.2319 -2.1651
   97SAPC   H4Y 9593   0.422   3.290   2.925 -2.1635 -0.7662 -2.7012
   97SAPC   C35 9594   0.636   3.241   2.936 -0.1710 -0.1171 -0.6002
   97SAPC   H5X 9595   0.663   3.346   2.912 -1.1254  0.3059  0.1018
   97SAPC   H5Y 9596   0.706   3.169   2.887  0.4657 -1.0914  1.6155
   97SAPC   C36 9597   0.652   3.213   3.083 -0.0336 -0.5660  0.3422
   97SAPC   H6X 9598   0.666   3.107   3.114  0.9767 -0.1568  1.3334
   97SAPC   H6Y 9599   0.571   3.260   3.143 -0.3883 -1.0546  0.2598
   97SAPC   C37 9600   0.786   3.275   3.131  0.0615 -0.0983 -0.2470
   97SAPC   H7X 9601   0.784   3.385   3.115  2.4961  0.2624  1.3822
   97SAPC   H7Y 9602   0.879   3.244   3.079  0.8174 -0.8237  1.4445
   97SAPC   C38 9603   0.800   3.252   3.293  0.0118 -0.3112  0.1432
   97SAPC   H8X 9604   0.774   3.146   3.312  1.3824 -0.2791  2.6899
   97SAPC   H8Y 9605   0.726   3.320   3.340 -1.1070 -2.2692  1.3294
   97SAPC   C39 9606   0.932   3.294   3.351  0.0382  0.0230 -0.4637
   97SAPC   H9X 9607   0.935   3.404   3.339  3.1668 -0.0336 -0.7840
   97SAPC   H9Y 9608   1.020   3.252   3.298  1.2566  2.5358 -0.5915
   97SAPC  C310 9609   0.940   3.251   3.505 -0.2200  0.2664  0.8562
   97SAPC  H10X 9610   0.944   3.140   3.506 -2.3438  0.0682 -1.9085
   97SAPC  H10Y 9611   0.847   3.292   3.549 -0.9003  2.5552 -2.4021
   97SAPC  C311 9612   1.060   3.315   3.581  0.2607 -0.0409  0.4380
   97SAPC  H11X 9613   1.051   3.425   3.573  0.0733 -0.1560 -1.3761
   97SAPC  H11Y 9614   1.149   3.276   3.527 -0.1711  0.9009 -0.9863
   97SAPC  C312 9615   1.069   3.284   3.732  0.2938  0.4467 -0.1532
   97SAPC  H12X 9616   1.146   3.344   3.786  0.7429 -0.4652  0.2336
   97SAPC  H12Y 9617   1.106   3.180   3.736  0.0500  0.2572 -2.0682
   97SAPC  C313 9618   0.939   3.306   3.815  0.0151  0.7523  0.0939
   97SAPC  H13X 9619   0.862   3.228   3.801 -0.6985  1.4097  0.2559
   97SAPC  H13Y 9620   0.883   3.392   3.771 -2.1716 -1.3594 -1.5279
   97SAPC  C314 9621   0.960   3.338   3.962  0.0118 -0.1578 -0.1206
   97SAPC  H14X 9622   1.036   3.415   3.991 -1.4361  1.5364 -0.6591
   97SAPC  H14Y 9623   0.999   3.240   3.996 -1.2552 -0.5533  0.2278
   97SAPC  C315 9624   0.823   3.382   4.027  0.1835  0.3264  0.1637
   97SAPC  H15X 9625   0.737   3.321   3.991 -0.8927  1.2446  1.0939
   97SAPC  H15Y 9626   0.799   3.486   3.996  0.2327 -0.4919 -3.0133
   97SAPC  C316 9627   0.841   3.367   4.178 -0.2404  0.1799 -0.0691
   97SAPC  H16X 9628   0.915   3.445   4.204 -1.0032  0.1133  2.5184
   97SAPC  H16Y 9629   0.882   3.265   4.192  1.0343  0.7540  0.5518
   97SAPC  C317 9630   0.712   3.378   4.262 -0.5320  0.2158  0.9169
   97SAPC  H17X 9631   0.675   3.482   4.271  0.6279  0.5814  1.7061
   97SAPC  H17Y 9632   0.734   3.354   4.368  2.2575 -0.8834  0.1881
   97SAPC  C318 9633   0.595   3.287   4.216 -0.0765  0.1936  0.1782
   97SAPC  H18X 9634   0.548   3.334   4.127  1.2829 -1.0287 -1.2264
   97SAPC  H18Y 9635   0.521   3.303   4.298  0.5315 -1.7441  1.1615
   97SAPC  H18Z 9636   0.630   3.184   4.196 -0.8803 -0.6042  2.5216
   98SAPC     N 9637   5.153   4.466   1.974  0.1294  0.1843 -0.2289
   98SAPC   C12 9638   5.213   4.357   2.068 -0.0542 -0.1257  0.5791
   98SAPC  H12A 9639   5.249   4.410   2.155  0.5748  1.3017 -0.5025
   98SAPC  H12B 9640   5.286   4.306   2.007  0.9135  0.1296  1.4935
   98SAPC   C13 9641   5.072   4.568   2.052 -0.3222 -0.1314  0.6291
   98SAPC  H13A 9642   4.980   4.527   2.091 -0.1726 -0.9910  0.1056
   98SAPC  H13B 9643   5.128   4.583   2.143 -0.2753  1.5818  0.3600
   98SAPC  H13C 9644   5.058   4.661   1.999  0.3642  0.8176  2.0712
   98SAPC   C14 9645   5.268   4.541   1.915  0.0099 -0.0345  0.2342
   98SAPC  H14A 9646   5.342   4.473   1.877  0.0180 -0.8649  1.6728
   98SAPC  H14B 9647   5.234   4.612   1.840 -1.2802  0.2602  1.0513
   98SAPC  H14C 9648   5.329   4.588   1.991  0.3950  0.5903 -0.4533
   98SAPC   C15 9649   5.069   4.407   1.869 -0.4576 -0.5859  0.4429
   98SAPC  H15A 9650   5.020   4.483   1.810 -1.5204 -0.5592  1.3307
   98SAPC  H15B 9651   5.127   4.346   1.801  0.8789  0.5246  0.5631
   98SAPC  H15C 9652   4.987   4.348   1.909 -0.9515  0.5579  1.1793
   98SAPC   C11 9653   5.121   4.252   2.133 -0.1315 -0.8381  0.7197
   98SAPC  H11A 9654   5.178   4.176   2.191  2.3215  0.3000 -0.0314
   98SAPC  H11B 9655   5.072   4.198   2.049 -0.8746 -1.1830  1.3601
   98SAPC     P 9656   5.048   4.359   2.353  0.1724 -0.2759  0.2833
   98SAPC   O13 9657   5.099   4.499   2.353  0.6108 -0.1380  0.5435
   98SAPC   O14 9658   4.919   4.325   2.413  0.2831 -0.4294 -0.2436
   98SAPC   O12 9659   5.020   4.312   2.206  0.1759  0.3776 -0.2418
   98SAPC   O11 9660   5.163   4.264   2.402 -0.5531 -0.2148 -0.4067
   98SAPC    C1 9661   5.143   4.128   2.434 -0.7964  0.4631  0.2271
   98SAPC    HA 9662   5.055   4.081   2.386  0.6951 -1.3148 -0.8809
   98SAPC    HB 9663   5.226   4.072   2.386 -2.2649 -2.0087  0.4001
   98SAPC    C2 9664   5.131   4.100   2.583 -0.4234 -0.5671 -0.5908
   98SAPC    HS 9665   5.024   4.112   2.611  0.3250 -0.5123  2.6663
   98SAPC   O21 9666   5.215   4.196   2.654 -0.3435 -0.0501 -0.2502
   98SAPC   C21 9667   5.176   4.228   2.774  0.0314 -0.2382 -0.9984
   98SAPC   O22 9668   5.065   4.213   2.821  0.0831  0.3030 -0.1024
   98SAPC   C22 9669   5.302   4.284   2.843 -0.1497 -0.3444 -1.1212
   98SAPC   H2R 9670   5.388   4.213   2.846  0.1935  0.0200 -2.0030
   98SAPC   H2S 9671   5.332   4.372   2.782 -0.8017  1.0842  0.5290
   98SAPC    C3 9672   5.171   3.950   2.606  0.0740 -0.2558 -0.2620
   98SAPC    HX 9673   5.280   3.957   2.622  0.3215 -0.4070 -1.7546
   98SAPC    HY 9674   5.166   3.882   2.519  0.8480 -2.1381  1.1001
   98SAPC   O31 9675   5.116   3.901   2.727  0.1655  0.6555 -0.0747
   98SAPC   C31 9676   4.998   3.848   2.717  0.0108 -1.1584  0.1118
   98SAPC   O32 9677   4.935   3.846   2.615 -0.6303  0.4496 -0.6398
   98SAPC   C32 9678   4.948   3.797   2.858  0.3968 -0.0028 -0.0396
   98SAPC   H2X 9679   5.030   3.816   2.931 -0.7345  2.3150  0.7419
   98SAPC   H2Y 9680   4.936   3.689   2.838  1.1477 -0.5035  1.9778
   98SAPC   C23 9681   5.270   4.346   2.986 -0.4552 -0.1214 -0.0829
   98SAPC   H3R 9682   5.175   4.404   2.980 -1.0410 -1.2118 -2.3862
   98SAPC   H3S 9683   5.361   4.404   3.012 -0.7398  0.9033 -1.3031
   98SAPC   C24 9684   5.235   4.240   3.092  0.7241  0.0118  0.7320
   98SAPC   H4R 9685   5.314   4.162   3.085  0.9052  0.3396 -1.4462
   98SAPC   H4S 9686   5.136   4.196   3.067 -0.2023  0.9421  2.5185
   98SAPC   C25 9687   5.229   4.304   3.233 -0.5985 -0.1051  0.4178
   98SAPC   H5R 9688   5.327   4.310   3.282 -0.5342  2.2007  0.1452
   98SAPC   C26 9689   5.125   4.341   3.307 -0.5625 -0.7173  0.4290
   98SAPC   H6R 9690   5.147   4.376   3.408  0.1772  1.2407 -0.3727
   98SAPC   C27 9691   4.982   4.341   3.262 -0.6132  0.9458  0.2769
   98SAPC   H7R 9692   4.984   4.345   3.151  0.8379  1.7520  0.3139
   98SAPC   H7S 9693   4.941   4.443   3.279 -0.3362  1.1785 -0.4210
   98SAPC   C28 9694   4.899   4.218   3.306  0.6135 -0.7389  0.4235
   98SAPC   H8R 9695   4.929   4.121   3.266  3.1435  1.5968 -4.0383
   98SAPC   C29 9696   4.814   4.220   3.414 -0.2627  0.3992 -0.8099
   98SAPC   H9R 9697   4.756   4.129   3.437 -0.6776  0.3900 -1.8551
   98SAPC  C210 9698   4.780   4.339   3.501  0.3331  0.0024  0.3388
   98SAPC  H10R 9699   4.692   4.393   3.460 -1.8422 -2.3449  1.5834
   98SAPC  H10S 9700   4.866   4.408   3.509 -0.2362  0.7130  0.4605
   98SAPC  C211 9701   4.734   4.289   3.644  0.1619  0.8561  0.1480
   98SAPC  H11R 9702   4.809   4.271   3.722  0.7404 -0.4298 -0.6620
   98SAPC  C212 9703   4.609   4.275   3.688  0.0538 -0.4792 -0.0519
   98SAPC  H12R 9704   4.589   4.231   3.787  2.3605 -0.8876  0.2745
   98SAPC  C213 9705   4.482   4.316   3.618 -0.7068  0.1767 -0.4669
   98SAPC  H13R 9706   4.497   4.328   3.509 -0.3347 -0.5707 -0.5062
   98SAPC  H13S 9707   4.460   4.422   3.643  0.7166  1.1092 -2.8298
   98SAPC  C214 9708   4.367   4.219   3.648  0.0655 -0.2626  0.3247
   98SAPC  H14R 9709   4.363   4.137   3.575 -0.1811  0.0017  0.0390
   98SAPC  C215 9710   4.299   4.206   3.763  0.0943  0.1453  0.1572
   98SAPC  H15R 9711   4.216   4.133   3.769 -0.8529  1.0880 -0.9517
   98SAPC  C216 9712   4.300   4.308   3.871  0.5037  0.6131 -1.0602
   98SAPC  H16R 9713   4.366   4.397   3.859  0.4793  1.2271  2.2093
   98SAPC  H16S 9714   4.318   4.254   3.967 -0.9246  1.0355 -0.5229
   98SAPC  C217 9715   4.167   4.385   3.899 -0.4160 -0.3848 -0.0050
   98SAPC  H17R 9716   4.086   4.309   3.898 -1.1574  0.3870  0.2979
   98SAPC  H17S 9717   4.162   4.460   3.817  0.6645 -0.1604  0.1202
   98SAPC  C218 9718   4.165   4.459   4.036  0.4137  0.0559 -0.3552
   98SAPC  H18R 9719   4.199   4.387   4.113 -1.0753 -0.5278 -0.1980
   98SAPC  H18S 9720   4.059   4.465   4.070  0.5096 -1.8813  0.4235
   98SAPC  C219 9721   4.230   4.595   4.029  0.2053  0.4876  0.5774
   98SAPC  H19R 9722   4.175   4.670   3.968  0.3956  0.3895  0.2811
   98SAPC  H19S 9723   4.326   4.572   3.977 -1.5200 -3.1525 -1.4104
   98SAPC  C220 9724   4.255   4.660   4.167 -0.0476  0.2700  0.0705
   98SAPC  H20R 9725   4.304   4.584   4.232  2.6062  1.6567 -0.1913
   98SAPC  H20S 9726   4.159   4.684   4.217 -0.0926 -0.4873  0.3617
   98SAPC  H20T 9727   4.326   4.745   4.168  2.3063 -1.5192 -1.4347
   98SAPC   C33 9728   4.816   3.862   2.904  0.0141  0.8396  0.3712
   98SAPC   H3X 9729   4.740   3.854   2.823  1.6301  1.5955 -1.2767
   98SAPC   H3Y 9730   4.824   3.973   2.905 -1.7646  1.0211 -0.9242
   98SAPC   C34 9731   4.773   3.804   3.031  0.3654  0.1134 -0.1028
   98SAPC   H4X 9732   4.735   3.703   3.003  1.9415  0.0444 -2.2202
   98SAPC   H4Y 9733   4.693   3.868   3.074  0.6980 -0.1613  0.9624
   98SAPC   C35 9734   4.892   3.792   3.132  0.4317 -0.2471  0.2670
   98SAPC   H5X 9735   4.959   3.881   3.135  2.5220 -1.7603  1.1143
   98SAPC   H5Y 9736   4.942   3.698   3.101  0.2545 -0.6311  1.1395
   98SAPC   C36 9737   4.858   3.770   3.273 -0.1736 -0.1426 -0.6642
   98SAPC   H6X 9738   4.819   3.666   3.275  0.4416 -0.3734  0.5798
   98SAPC   H6Y 9739   4.783   3.848   3.298 -0.2901 -0.3872 -0.2345
   98SAPC   C37 9740   4.973   3.790   3.375  0.1695 -0.9153  0.5433
   98SAPC   H7X 9741   4.993   3.899   3.383 -0.9231 -0.7606  1.4433
   98SAPC   H7Y 9742   5.067   3.742   3.340 -0.6704 -1.6648 -0.7568
   98SAPC   C38 9743   4.937   3.753   3.517  0.7547 -0.2592  0.7519
   98SAPC   H8X 9744   4.828   3.774   3.523  0.8295  0.1318  0.7781
   98SAPC   H8Y 9745   4.979   3.830   3.586 -0.1129  0.6087  0.3382
   98SAPC   C39 9746   4.962   3.611   3.573  0.2058 -0.6362  0.1652
   98SAPC   H9X 9747   4.978   3.537   3.491 -1.9953  0.1899 -1.1028
   98SAPC   H9Y 9748   4.879   3.570   3.635  0.3263  0.4751  1.0910
   98SAPC  C310 9749   5.085   3.610   3.669 -0.1830  0.8357 -0.1326
   98SAPC  H10X 9750   5.175   3.663   3.631  1.5185 -1.9379 -0.2895
   98SAPC  H10Y 9751   5.135   3.511   3.677 -1.1885  0.4645  2.1169
   98SAPC  C311 9752   5.044   3.657   3.813 -0.9353  0.8380 -0.8936
   98SAPC  H11X 9753   4.978   3.577   3.853  1.2481 -0.1737  0.8776
   98SAPC  H11Y 9754   4.991   3.754   3.805 -1.1511  0.8854  0.8910
   98SAPC  C312 9755   5.163   3.668   3.910 -0.6771 -0.6686 -0.2522
   98SAPC  H12X 9756   5.227   3.751   3.874 -0.5073  0.0733  1.6494
   98SAPC  H12Y 9757   5.226   3.577   3.918 -0.3665 -0.4861 -0.6067
   98SAPC  C313 9758   5.121   3.695   4.054 -0.3085 -0.6264 -0.0330
   98SAPC  H13X 9759   5.052   3.781   4.042  1.4854  1.1103  1.4021
   98SAPC  H13Y 9760   5.212   3.736   4.103 -0.4793  2.1002 -1.7563
   98SAPC  C314 9761   5.067   3.578   4.130  0.1524 -0.1082  0.7239
   98SAPC  H14X 9762   5.137   3.492   4.138  0.5857  0.1930  0.2526
   98SAPC  H14Y 9763   4.982   3.548   4.065  1.1949 -1.4034 -0.0971
   98SAPC  C315 9764   5.013   3.615   4.275  0.1026 -0.1363  0.1428
   98SAPC  H15X 9765   5.092   3.657   4.341  0.5220  1.0071 -1.0522
   98SAPC  H15Y 9766   4.992   3.519   4.328  1.6001  0.6322  2.2563
   98SAPC  C316 9767   4.884   3.698   4.258 -0.9428  0.0913 -0.8075
   98SAPC  H16X 9768   4.802   3.641   4.208 -1.2795 -0.4526  0.3282
   98SAPC  H16Y 9769   4.899   3.797   4.211 -1.9107  0.3676 -0.5603
   98SAPC  C317 9770   4.821   3.710   4.399  0.8144  0.4836 -0.0957
   98SAPC  H17X 9771   4.898   3.755   4.466  0.3748  0.3793  0.4840
   98SAPC  H17Y 9772   4.798   3.608   4.437 -2.8021  1.2267  0.0576
   98SAPC  C318 9773   4.686   3.784   4.403  0.9250 -0.2647  0.4307
   98SAPC  H18X 9774   4.674   3.866   4.328  0.9141 -1.1884 -0.5990
   98SAPC  H18Y 9775   4.659   3.822   4.503 -0.1842 -1.1162  0.4736
   98SAPC  H18Z 9776   4.607   3.708   4.386  0.9269  0.2877 -2.8683
   99SAPC     N 9777   1.792   6.753   2.190  0.4136  0.3935 -0.9111
   99SAPC   C12 9778   1.872   6.829   2.295  0.3246  0.4742  0.2345
   99SAPC  H12A 9779   1.979   6.834   2.281  0.6340 -0.1450  2.0994
   99SAPC  H12B 9780   1.876   6.776   2.389  2.5468  0.1329  0.0146
   99SAPC   C13 9781   1.654   6.767   2.228  0.4467  0.3107 -0.2314
   99SAPC  H13A 9782   1.654   6.754   2.335  0.5328  0.9070 -0.1581
   99SAPC  H13B 9783   1.607   6.861   2.204  0.1982  0.3097  0.2510
   99SAPC  H13C 9784   1.597   6.684   2.189 -0.0878  0.2959  0.5793
   99SAPC   C14 9785   1.821   6.807   2.056 -0.4513 -0.5407 -0.4057
   99SAPC  H14A 9786   1.755   6.775   1.977  0.5294  0.1421 -1.5363
   99SAPC  H14B 9787   1.795   6.911   2.067  1.5147 -0.0392 -0.0641
   99SAPC  H14C 9788   1.923   6.799   2.020 -1.5987  0.0587 -4.2600
   99SAPC   C15 9789   1.838   6.612   2.195 -0.5022 -0.4339  0.2149
   99SAPC  H15A 9790   1.943   6.605   2.173 -0.6495  1.8148 -1.6050
   99SAPC  H15B 9791   1.817   6.568   2.291  1.5517  1.4823  1.6070
   99SAPC  H15C 9792   1.786   6.550   2.123  0.5206  2.3069 -3.1490
   99SAPC   C11 9793   1.834   6.974   2.321  0.4331  0.4645 -0.0267
   99SAPC  H11A 9794   1.897   7.020   2.400 -0.5911  0.2548  0.9335
   99SAPC  H11B 9795   1.733   6.967   2.367  0.2547 -1.7878 -0.6270
   99SAPC     P 9796   1.718   7.133   2.148 -0.1082  0.0388  0.0285
   99SAPC   O13 9797   1.777   7.237   2.059  0.0988 -0.0085 -0.9538
   99SAPC   O14 9798   1.616   7.040   2.085 -0.4384 -0.2972  0.2130
   99SAPC   O12 9799   1.837   7.055   2.204 -0.2501 -0.2952  0.1976
   99SAPC   O11 9800   1.655   7.209   2.276  0.1076  0.1434 -0.2586
   99SAPC    C1 9801   1.668   7.349   2.304 -0.2690  0.1471  0.0033
   99SAPC    HA 9802   1.673   7.410   2.211 -0.9120  2.0528  1.1821
   99SAPC    HB 9803   1.577   7.389   2.352 -1.2736 -1.0557 -0.8565
   99SAPC    C2 9804   1.788   7.384   2.397 -0.8586 -0.2794 -0.2185
   99SAPC    HS 9805   1.864   7.416   2.323 -0.1780 -0.5595  0.3437
   99SAPC   O21 9806   1.842   7.278   2.478  0.2409  0.2098  0.0057
   99SAPC   C21 9807   1.961   7.293   2.532  0.3772  0.2194  0.2935
   99SAPC   O22 9808   2.042   7.387   2.521  0.0708 -0.2138  0.0332
   99SAPC   C22 9809   1.992   7.163   2.608  0.0771 -0.2809 -0.3513
   99SAPC   H2R 9810   1.914   7.086   2.593  0.7237 -0.3972 -4.1796
   99SAPC   H2S 9811   2.083   7.118   2.561  0.6819 -0.0609  0.5846
   99SAPC    C3 9812   1.763   7.503   2.481 -0.1015 -0.3395 -0.3891
   99SAPC    HX 9813   1.754   7.579   2.400  1.7525 -0.5419 -0.8125
   99SAPC    HY 9814   1.845   7.534   2.549  0.7086 -1.2215 -0.9456
   99SAPC   O31 9815   1.643   7.493   2.554  0.8085 -0.0702  0.3406
   99SAPC   C31 9816   1.593   7.600   2.607  0.2240  0.1977  0.4489
   99SAPC   O32 9817   1.640   7.710   2.618  0.9935 -0.2290 -0.0515
   99SAPC   C32 9818   1.457   7.566   2.656  0.4230 -0.1174  0.4040
   99SAPC   H2X 9819   1.383   7.571   2.574  0.5904  1.3505  0.3112
   99SAPC   H2Y 9820   1.441   7.649   2.728 -0.6685  0.0748 -0.0503
   99SAPC   C23 9821   2.054   7.192   2.754  0.2826  0.0857  0.2161
   99SAPC   H3R 9822   2.139   7.263   2.751  1.7578 -1.5999  0.4834
   99SAPC   H3S 9823   2.104   7.106   2.802  0.4662  1.7005  3.1187
   99SAPC   C24 9824   1.945   7.233   2.851 -0.0854  0.0684  0.5653
   99SAPC   H4R 9825   1.908   7.331   2.816 -0.3188  1.5401  4.4382
   99SAPC   H4S 9826   1.981   7.253   2.954 -0.1715 -2.6263  1.2104
   99SAPC   C25 9827   1.817   7.146   2.867 -0.6361  0.6319  0.2274
   99SAPC   H5R 9828   1.737   7.156   2.792 -0.8253 -0.1172  0.3263
   99SAPC   C26 9829   1.808   7.055   2.964  0.0356  0.0354 -0.1531
   99SAPC   H6R 9830   1.721   6.988   2.972 -1.1164  1.5860  0.9081
   99SAPC   C27 9831   1.912   7.021   3.064  0.8978 -0.1435  0.2034
   99SAPC   H7R 9832   1.868   7.047   3.163  1.4879 -1.7762  0.9366
   99SAPC   H7S 9833   2.008   7.077   3.052  0.3080  1.0758  0.9858
   99SAPC   C28 9834   1.948   6.875   3.060 -0.3898  0.0522  0.2821
   99SAPC   H8R 9835   1.987   6.848   2.961  0.0751  1.6173  0.0100
   99SAPC   C29 9836   1.958   6.792   3.164 -0.5482 -0.4179 -0.2145
   99SAPC   H9R 9837   1.991   6.689   3.143  2.8662  0.5539 -0.1877
   99SAPC  C210 9838   1.927   6.823   3.310  0.1373 -0.3746  0.3731
   99SAPC  H10R 9839   1.818   6.811   3.326 -0.2090 -0.0996 -1.5581
   99SAPC  H10S 9840   1.952   6.931   3.314  0.7780 -0.4830 -0.5000
   99SAPC  C211 9841   2.014   6.759   3.412 -0.2856  0.0712  0.4474
   99SAPC  H11R 9842   2.092   6.694   3.369  1.2940  2.6412 -0.7386
   99SAPC  C212 9843   1.997   6.759   3.545  0.3793  0.1608  0.8833
   99SAPC  H12R 9844   2.074   6.703   3.600 -0.4238 -2.0601 -0.1072
   99SAPC  C213 9845   1.905   6.841   3.625  0.4498 -0.3589 -0.9971
   99SAPC  H13R 9846   1.824   6.887   3.564  0.6812  0.9095 -0.3767
   99SAPC  H13S 9847   1.971   6.918   3.671 -1.2225  1.2358 -1.1453
   99SAPC  C214 9848   1.843   6.748   3.729 -0.9414  0.8481  0.6035
   99SAPC  H14R 9849   1.750   6.700   3.695  0.7229 -2.0357 -0.3069
   99SAPC  C215 9850   1.886   6.705   3.846 -0.1762  0.0730 -0.4831
   99SAPC  H15R 9851   1.836   6.621   3.896  2.0382 -0.6732  0.6426
   99SAPC  C216 9852   2.014   6.747   3.911 -0.3939  0.2303  0.3912
   99SAPC  H16R 9853   2.095   6.730   3.838 -2.7011 -1.0872 -2.0580
   99SAPC  H16S 9854   2.032   6.686   4.002 -1.5369  0.8311  1.0479
   99SAPC  C217 9855   2.000   6.895   3.959 -0.4386 -0.5715 -0.0449
   99SAPC  H17R 9856   1.974   6.962   3.874  1.1700 -0.5751 -0.5789
   99SAPC  H17S 9857   2.103   6.921   3.989 -1.4725  0.6190  2.8067
   99SAPC  C218 9858   1.902   6.913   4.074 -0.1395 -0.7730  0.8588
   99SAPC  H18R 9859   1.798   6.881   4.054  0.1667 -0.6216 -1.2077
   99SAPC  H18S 9860   1.902   7.021   4.100  1.2850 -0.6737  0.5283
   99SAPC  C219 9861   1.954   6.858   4.204  0.3065 -0.2659  0.6687
   99SAPC  H19R 9862   2.061   6.887   4.207  0.3541 -0.3491 -0.1879
   99SAPC  H19S 9863   1.939   6.748   4.207  1.7115 -0.5515 -1.2138
   99SAPC  C220 9864   1.886   6.921   4.328 -0.7864 -0.5271  0.3788
   99SAPC  H20R 9865   1.789   6.880   4.364 -0.5831  0.4041  2.0894
   99SAPC  H20S 9866   1.863   7.029   4.312  0.3485 -0.1703  1.0433
   99SAPC  H20T 9867   1.954   6.920   4.416 -3.1759 -1.2277  2.3428
   99SAPC   C33 9868   1.440   7.427   2.732  0.5569  0.7205  0.2469
   99SAPC   H3X 9869   1.477   7.338   2.676  1.7706  1.2739  0.1241
   99SAPC   H3Y 9870   1.333   7.423   2.759  0.7102  2.3081  1.2266
   99SAPC   C34 9871   1.514   7.434   2.863  0.0365 -0.1921  0.2356
   99SAPC   H4X 9872   1.464   7.517   2.916  0.6001  1.0509 -1.1082
   99SAPC   H4Y 9873   1.619   7.449   2.830  0.1582 -2.9444 -0.9422
   99SAPC   C35 9874   1.504   7.307   2.951  0.4118  0.3110 -0.0552
   99SAPC   H5X 9875   1.531   7.227   2.879  1.0479 -1.2019  1.7949
   99SAPC   H5Y 9876   1.399   7.289   2.981  1.0891 -0.8502  1.7350
   99SAPC   C36 9877   1.598   7.297   3.068 -0.7311  0.4422  0.6214
   99SAPC   H6X 9878   1.691   7.343   3.029  0.1997 -1.9276 -0.0864
   99SAPC   H6Y 9879   1.619   7.190   3.085 -0.4479  0.2790 -0.6503
   99SAPC   C37 9880   1.545   7.351   3.188  0.1260 -0.4382  0.1168
   99SAPC   H7X 9881   1.443   7.309   3.201  0.8915 -2.2892  0.4596
   99SAPC   H7Y 9882   1.523   7.458   3.168  0.2477 -0.6036 -1.0156
   99SAPC   C38 9883   1.640   7.330   3.308  0.1654 -0.7690  0.0871
   99SAPC   H8X 9884   1.740   7.353   3.265  1.2106  0.4731  2.9498
   99SAPC   H8Y 9885   1.637   7.225   3.345  1.8493 -0.4760  1.1305
   99SAPC   C39 9886   1.613   7.422   3.426  0.1078 -0.9547  0.0129
   99SAPC   H9X 9887   1.513   7.390   3.462 -0.9390 -2.8314 -3.9386
   99SAPC   H9Y 9888   1.605   7.528   3.392 -2.5810 -0.6168  1.4099
   99SAPC  C310 9889   1.714   7.401   3.539  0.9154  0.3214  0.6913
   99SAPC  H10X 9890   1.708   7.481   3.616 -3.3787  2.1825 -1.2834
   99SAPC  H10Y 9891   1.820   7.405   3.505  0.9336  0.2859  0.7410
   99SAPC  C311 9892   1.694   7.272   3.628  0.4610  0.0995  0.4289
   99SAPC  H11X 9893   1.722   7.186   3.563  0.4087 -0.4209  1.0804
   99SAPC  H11Y 9894   1.589   7.261   3.662  1.4298  1.9220  4.5518
   99SAPC  C312 9895   1.760   7.270   3.770 -0.1416  0.5352  0.3708
   99SAPC  H12X 9896   1.740   7.169   3.813  0.9359 -0.2943 -0.9977
   99SAPC  H12Y 9897   1.710   7.347   3.833  0.4716  0.9392  0.3728
   99SAPC  C313 9898   1.898   7.324   3.762  0.1929  0.0150  0.8172
   99SAPC  H13X 9899   1.890   7.426   3.719 -2.6124 -0.5893 -0.2985
   99SAPC  H13Y 9900   1.948   7.256   3.691  0.9543  2.7426 -1.4680
   99SAPC  C314 9901   1.970   7.328   3.901  0.5335 -1.2993 -0.0938
   99SAPC  H14X 9902   2.073   7.365   3.879  0.0823  0.3066  0.3471
   99SAPC  H14Y 9903   1.971   7.223   3.936 -0.1708 -1.1997  0.2362
   99SAPC  C315 9904   1.896   7.425   3.999  0.5520 -0.3049  0.5512
   99SAPC  H15X 9905   1.788   7.398   4.000  0.5520 -0.3065  1.0918
   99SAPC  H15Y 9906   1.901   7.532   3.972 -1.1793 -0.5786 -1.0350
   99SAPC  C316 9907   1.951   7.394   4.139 -0.2002  1.1079  0.3803
   99SAPC  H16X 9908   2.058   7.422   4.139 -0.1902  1.0824  1.1529
   99SAPC  H16Y 9909   1.950   7.283   4.143  2.2267  0.9785 -0.9603
   99SAPC  C317 9910   1.878   7.458   4.263 -0.3745 -0.1621 -0.2295
   99SAPC  H17X 9911   1.790   7.393   4.281 -1.1692 -0.5638 -4.4157
   99SAPC  H17Y 9912   1.831   7.555   4.236 -3.0160 -0.5810  2.4904
   99SAPC  C318 9913   1.970   7.463   4.387 -0.2483  0.2076 -0.0182
   99SAPC  H18X 9914   2.061   7.521   4.359 -0.5487  0.5362 -0.3203
   99SAPC  H18Y 9915   1.997   7.361   4.421  2.1215  1.4385  2.0459
   99SAPC  H18Z 9916   1.918   7.514   4.471 -1.9150 -3.0347  1.0668
  100SAPC     N 9917   5.666   6.346   2.321  0.1417  0.3678 -0.0959
  100SAPC   C12 9918   5.713   6.296   2.186 -0.0490  0.2362  0.1702
  100SAPC  H12A 9919   5.668   6.356   2.108  1.4537  2.0457  0.6375
  100SAPC  H12B 9920   5.682   6.195   2.165  1.7937 -0.1486 -0.9430
  100SAPC   C13 9921   5.518   6.336   2.332 -0.0702  0.0088 -0.7614
  100SAPC  H13A 9922   5.484   6.346   2.434  2.1108 -1.8359  0.2183
  100SAPC  H13B 9923   5.463   6.417   2.286 -2.6899  1.7041  4.5744
  100SAPC  H13C 9924   5.482   6.241   2.294  0.7311  0.3318 -2.4453
  100SAPC   C14 9925   5.723   6.265   2.433 -0.3984  0.0700  0.8646
  100SAPC  H14A 9926   5.711   6.159   2.412  1.5552  0.3466 -2.1616
  100SAPC  H14B 9927   5.828   6.289   2.436 -0.6001  1.0542  0.2889
  100SAPC  H14C 9928   5.699   6.315   2.525 -0.0772 -0.5175  1.2741
  100SAPC   C15 9929   5.698   6.494   2.338  0.0477 -0.1905  0.0108
  100SAPC  H15A 9930   5.799   6.527   2.319 -0.3621  1.3081  0.3331
  100SAPC  H15B 9931   5.631   6.546   2.271  0.8737  1.6657  0.5583
  100SAPC  H15C 9932   5.675   6.526   2.438  0.6702  0.4601 -0.0471
  100SAPC   C11 9933   5.868   6.295   2.170  0.0527 -0.4513  0.5105
  100SAPC  H11A 9934   5.881   6.258   2.066  1.9678  0.5047  0.3676
  100SAPC  H11B 9935   5.919   6.225   2.241  1.1014  0.4630  0.6915
  100SAPC     P 9936   6.056   6.462   2.220  0.5005  0.5140  0.2636
  100SAPC   O13 9937   6.141   6.341   2.203  0.7361 -0.2911 -0.2500
  100SAPC   O14 9938   6.104   6.590   2.156 -0.1020  0.3966  0.4024
  100SAPC   O12 9939   5.911   6.431   2.171 -0.1688 -0.2530 -0.5296
  100SAPC   O11 9940   6.021   6.483   2.371  0.2221 -0.1312 -0.2995
  100SAPC    C1 9941   6.020   6.608   2.440  0.3154 -0.4230  0.1497
  100SAPC    HA 9942   6.014   6.695   2.371 -3.1198 -1.3445 -0.9319
  100SAPC    HB 9943   5.928   6.610   2.503  0.7104 -2.0307  0.8473
  100SAPC    C2 9944   6.146   6.631   2.527 -0.0276 -0.1323  0.2545
  100SAPC    HS 9945   6.240   6.618   2.469  0.3279 -2.5174  1.2545
  100SAPC   O21 9946   6.132   6.547   2.645 -1.0893 -0.6672  0.3655
  100SAPC   C21 9947   6.249   6.473   2.671  0.5604  0.2413 -0.1741
  100SAPC   O22 9948   6.348   6.468   2.606 -0.2133 -0.4899  0.3831
  100SAPC   C22 9949   6.219   6.396   2.802  0.0912  0.5293 -0.0242
  100SAPC   H2R 9950   6.130   6.438   2.853 -0.1991  0.2870 -0.3331
  100SAPC   H2S 9951   6.181   6.295   2.778  2.5289 -0.8714  1.5862
  100SAPC    C3 9952   6.159   6.782   2.580 -0.5836  0.3391 -0.5978
  100SAPC    HX 9953   6.052   6.801   2.602 -1.0051  0.1169 -2.3243
  100SAPC    HY 9954   6.187   6.853   2.499 -0.9960  1.6296  0.3566
  100SAPC   O31 9955   6.235   6.807   2.703 -0.8200 -0.2835 -0.3045
  100SAPC   C31 9956   6.369   6.802   2.685  0.4262  0.3908  0.4592
  100SAPC   O32 9957   6.426   6.773   2.583 -0.0176  0.9138  0.0530
  100SAPC   C32 9958   6.438   6.845   2.816  0.2986  0.0766 -0.6559
  100SAPC   H2X 9959   6.394   6.790   2.902  1.1677  0.5125  0.0832
  100SAPC   H2Y 9960   6.429   6.955   2.831  0.1819 -0.0048 -0.0881
  100SAPC   C23 9961   6.331   6.397   2.902  0.1247 -0.0175 -0.0615
  100SAPC   H3R 9962   6.369   6.501   2.908  0.8328 -0.1957 -1.0698
  100SAPC   H3S 9963   6.417   6.336   2.864 -1.0167 -1.4074 -0.5070
  100SAPC   C24 9964   6.293   6.354   3.043 -0.2080 -0.2226 -0.0735
  100SAPC   H4R 9965   6.247   6.253   3.038 -0.4059 -0.1319 -0.1228
  100SAPC   H4S 9966   6.216   6.431   3.067 -0.0246  0.1710 -0.7086
  100SAPC   C25 9967   6.414   6.350   3.134 -0.5115 -0.5065 -0.4329
  100SAPC   H5R 9968   6.486   6.430   3.108  1.3292 -1.0392  2.5426
  100SAPC   C26 9969   6.426   6.274   3.244 -0.3888 -0.5191  0.9173
  100SAPC   H6R 9970   6.517   6.278   3.305  1.2370 -0.4655 -1.3977
  100SAPC   C27 9971   6.322   6.170   3.288 -0.2088  0.5167  0.1806
  100SAPC   H7R 9972   6.375   6.093   3.349 -1.1446 -0.9678 -0.8009
  100SAPC   H7S 9973   6.289   6.108   3.202  0.4151 -1.3381  1.2030
  100SAPC   C28 9974   6.204   6.236   3.355 -0.0716  0.5462 -0.2363
  100SAPC   H8R 9975   6.162   6.323   3.302  0.8829  0.2332 -1.5511
  100SAPC   C29 9976   6.151   6.202   3.470 -0.3375  0.0119  0.1703
  100SAPC   H9R 9977   6.063   6.260   3.502 -1.6381 -1.7576 -0.0386
  100SAPC  C210 9978   6.181   6.085   3.558  0.5327 -0.1687 -0.0920
  100SAPC  H10R 9979   6.240   6.008   3.504  0.8319 -0.9805  1.3526
  100SAPC  H10S 9980   6.087   6.044   3.600 -0.1098 -0.7307 -1.9666
  100SAPC  C211 9981   6.262   6.141   3.678  0.1100 -0.0662 -0.0967
  100SAPC  H11R 9982   6.372   6.140   3.678  0.2040  1.2064  2.5913
  100SAPC  C212 9983   6.202   6.166   3.796 -1.4140 -0.0450  0.1006
  100SAPC  H12R 9984   6.273   6.206   3.869  1.5784 -1.8395 -1.6573
  100SAPC  C213 9985   6.054   6.166   3.827  0.0340  0.1817  0.1994
  100SAPC  H13R 9986   5.991   6.111   3.753 -0.5414  0.3957  0.5220
  100SAPC  H13S 9987   6.018   6.271   3.835  0.4700  0.2438  1.6023
  100SAPC  C214 9988   6.036   6.094   3.958  0.2825 -0.4279 -0.1495
  100SAPC  H14R 9989   6.077   6.138   4.050  2.0501 -0.2598 -0.9738
  100SAPC  C215 9990   5.974   5.981   3.973  0.5039  0.2564 -0.1969
  100SAPC  H15R 9991   5.973   5.929   4.070  0.9448  0.5742 -0.0206
  100SAPC  C216 9992   5.924   5.891   3.862  0.1619 -0.3760 -0.0176
  100SAPC  H16R 9993   5.994   5.865   3.778  0.0324 -0.5702 -0.0670
  100SAPC  H16S 9994   5.827   5.929   3.824 -0.5568 -1.2110  0.9425
  100SAPC  C217 9995   5.902   5.743   3.925  0.5649 -0.8174 -0.1746
  100SAPC  H17R 9996   5.824   5.763   4.002  1.1391 -0.2113  0.2630
  100SAPC  H17S 9997   5.990   5.702   3.980  2.2148  1.8047 -0.6576
  100SAPC  C218 9998   5.857   5.643   3.828 -0.1534  0.2025 -0.0447
  100SAPC  H18R 9999   5.841   5.541   3.871  1.3375  0.4893  1.3005
  100SAPC  H18S10000   5.937   5.628   3.752 -2.3873  0.5609 -2.5909
  100SAPC  C21910001   5.732   5.687   3.743  0.4142  0.1238 -0.6262
  100SAPC  H19R10002   5.716   5.618   3.658  0.5460 -2.5646  1.3749
  100SAPC  H19S10003   5.738   5.789   3.700 -0.4187  1.5233  2.3274
  100SAPC  C22010004   5.600   5.679   3.817  0.0760 -0.4604 -0.6558
  100SAPC  H20R10005   5.572   5.580   3.860  2.6190 -0.9728  0.0331
  100SAPC  H20S10006   5.514   5.706   3.752  1.1874  0.3732 -1.8301
  100SAPC  H20T10007   5.592   5.761   3.891 -0.1836 -0.0131 -1.1816
  100SAPC   C3310008   6.588   6.791   2.821  0.1700  0.6682 -0.3017
  100SAPC   H3X10009   6.640   6.851   2.744 -1.6923  1.2229 -1.1981
  100SAPC   H3Y10010   6.579   6.686   2.788 -0.8238  0.4715  0.5078
  100SAPC   C3410011   6.647   6.799   2.967 -0.6912 -0.0574  0.4377
  100SAPC   H4X10012   6.590   6.723   3.025 -1.1822 -0.1615 -0.1803
  100SAPC   H4Y10013   6.647   6.896   3.021  0.6386 -1.8062  3.9339
  100SAPC   C3510014   6.791   6.753   2.964  0.2413  0.2164  0.1747
  100SAPC   H5X10015   6.853   6.813   2.893  0.1607  0.3055  0.1805
  100SAPC   H5Y10016   6.801   6.646   2.935 -2.8294 -0.1822  0.2913
  100SAPC   C3610017   6.850   6.759   3.099 -0.0263  0.2294 -0.4241
  100SAPC   H6X10018   6.801   6.680   3.159 -0.5748 -0.1767 -1.3818
  100SAPC   H6Y10019   6.827   6.855   3.150 -1.3219  0.0636 -0.6711
  100SAPC   C3710020   6.999   6.732   3.081  0.5450 -0.5425 -0.4517
  100SAPC   H7X10021   7.038   6.807   3.009  1.9519  1.1904  1.9843
  100SAPC   H7Y10022   7.016   6.629   3.043  0.0394 -1.1473  0.8788
  100SAPC   C3810023   7.091   6.726   3.209 -0.9277 -0.1066 -0.4301
  100SAPC   H8X10024   7.085   6.828   3.254 -2.7401  0.1112 -1.0889
  100SAPC   H8Y10025   7.194   6.702   3.175 -0.9233 -0.7732  0.0443
  100SAPC   C3910026   7.049   6.630   3.318 -0.1488 -0.6631  0.0172
  100SAPC   H9X10027   7.065   6.526   3.282  1.0757 -0.4500 -0.1016
  100SAPC   H9Y10028   6.940   6.642   3.336  0.1116  2.0209  0.2271
  100SAPC  C31010029   7.108   6.648   3.462  0.3018  0.1301 -0.4796
  100SAPC  H10X10030   7.108   6.754   3.497 -1.2354 -0.5694  1.8350
  100SAPC  H10Y10031   7.212   6.617   3.441 -0.0665 -0.4281 -1.5482
  100SAPC  C31110032   7.044   6.565   3.575  0.0109 -0.8192  0.3845
  100SAPC  H11X10033   7.074   6.458   3.564  2.3442 -0.1509 -0.1880
  100SAPC  H11Y10034   6.934   6.567   3.560 -0.0831 -1.2431  0.9790
  100SAPC  C31210035   7.064   6.605   3.725  0.6317 -0.7418 -0.0598
  100SAPC  H12X10036   7.015   6.704   3.737  1.7249 -0.2711  0.6553
  100SAPC  H12Y10037   7.170   6.614   3.758  0.5255 -3.5951  1.3260
  100SAPC  C31310038   6.989   6.512   3.815  0.1240 -0.0358 -0.2585
  100SAPC  H13X10039   7.034   6.410   3.816 -0.3130 -0.2377  0.7785
  100SAPC  H13Y10040   6.882   6.499   3.787 -0.0145 -1.1691  0.7050
  100SAPC  C31410041   6.995   6.572   3.959 -0.0343 -0.1045 -0.4983
  100SAPC  H14X10042   6.954   6.675   3.952 -0.2178 -0.0437  1.0767
  100SAPC  H14Y10043   7.095   6.581   4.004 -2.8666  1.0782  6.9333
  100SAPC  C31510044   6.906   6.494   4.055  0.5227 -0.1079 -0.4308
  100SAPC  H15X10045   6.886   6.397   4.005 -0.3527  0.2367 -0.7760
  100SAPC  H15Y10046   6.813   6.546   4.087 -0.3786 -2.0014  0.1972
  100SAPC  C31610047   6.975   6.452   4.190 -0.2333 -0.0265  0.1920
  100SAPC  H16X10048   6.985   6.537   4.260 -0.9914 -0.4935  0.8801
  100SAPC  H16Y10049   7.076   6.408   4.175  0.8858  2.6050 -0.7026
  100SAPC  C31710050   6.894   6.354   4.265 -0.4461 -0.0210  0.3552
  100SAPC  H17X10051   6.789   6.374   4.234 -0.7941  0.0120  1.5115
  100SAPC  H17Y10052   6.898   6.369   4.375 -0.4069 -0.7238  0.4549
  100SAPC  C31810053   6.938   6.204   4.246  0.1783  0.5106 -0.7413
  100SAPC  H18X10054   7.033   6.165   4.288  0.2753 -0.0473 -1.4615
  100SAPC  H18Y10055   6.948   6.181   4.138 -0.4661 -1.7123 -0.3837
  100SAPC  H18Z10056   6.854   6.138   4.277 -1.1039  2.5454  0.3730
  101OSM      N10057   6.132   5.609   6.920 -0.0765  0.4078 -0.0599
  101OSM    C1510058   6.183   5.751   6.904  0.7509  0.4456  0.5179
  101OSM   H15A10059   6.146   5.791   6.811  1.8463 -1.5420 -0.8554
  101OSM   H15B10060   6.289   5.761   6.884  0.2859  1.4520 -1.7541
  101OSM   H15C10061   6.155   5.810   6.989  0.4016 -0.2883  0.9248
  101OSM    C1410062   6.212   5.536   7.021  0.2679  0.0067  0.1548
  101OSM   H14A10063   6.174   5.545   7.122 -2.2729 -4.1956 -0.2008
  101OSM   H14B10064   6.318   5.557   7.015  0.2765  0.1062  0.5904
  101OSM   H14C10065   6.203   5.432   6.996 -0.7976  0.6285 -2.3226
  101OSM    C1310066   5.990   5.614   6.962  0.5625 -0.0318 -0.3274
  101OSM   H13A10067   5.934   5.658   6.881  0.3476  2.3075  1.0007
  101OSM   H13B10068   5.980   5.663   7.058  1.6939  0.3018 -0.3615
  101OSM   H13C10069   5.953   5.513   6.968 -0.3341  0.2873 -0.4499
  101OSM    C1210070   6.141   5.528   6.786  0.0640 -0.1121 -0.4303
  101OSM   H12A10071   6.244   5.518   6.757  0.0040 -1.5617 -0.2249
  101OSM   H12B10072   6.079   5.580   6.715 -1.2190 -2.2689 -1.0043
  101OSM    C1110073   6.090   5.379   6.782  0.6451 -0.3038 -0.0058
  101OSM   H11A10074   6.066   5.354   6.677  1.2316 -0.2176 -0.1613
  101OSM   H11B10075   5.994   5.369   6.837  0.4257 -1.4724 -0.5684
  101OSM      P10076   6.223   5.161   6.770 -0.3966  0.4262 -0.4947
  101OSM    O1310077   6.344   5.104   6.834 -0.3170  0.0082  0.4777
  101OSM    O1410078   6.103   5.078   6.772 -0.1623  0.4109  0.4067
  101OSM    O1110079   6.251   5.191   6.616 -0.1038  0.1905 -0.4979
  101OSM    O1210080   6.193   5.298   6.843 -0.1268  0.3138 -0.5700
  101OSM    C1S10081   6.250   5.080   6.526 -0.0007 -0.2653  0.5380
  101OSM    H1S10082   6.151   5.030   6.526 -0.7107  1.0852  0.2029
  101OSM    H1T10083   6.333   5.015   6.562  1.2641  1.7723  1.4660
  101OSM     NF10084   6.252   5.017   6.296 -0.0886  0.2338  0.2576
  101OSM    HNF10085   6.333   4.979   6.251  0.4839  0.3859  1.1337
  101OSM    C2S10086   6.277   5.127   6.380 -0.3690  0.1479 -0.5140
  101OSM    H2S10087   6.197   5.201   6.362 -1.3005  0.0238  2.6381
  101OSM    C3S10088   6.408   5.198   6.362  0.0121  1.2682 -0.0946
  101OSM    H3S10089   6.479   5.113   6.359 -1.2799  0.1477 -2.8327
  101OSM     O310090   6.467   5.274   6.475 -0.1359 -0.2132 -0.0275
  101OSM    HO310091   6.419   5.239   6.551  0.6516  0.0462  0.6060
  101OSM    C4S10092   6.414   5.259   6.221  0.2566  0.3009 -0.6223
  101OSM    H4S10093   6.444   5.188   6.142  1.2574  0.0189 -0.0097
  101OSM    C5S10094   6.394   5.383   6.179  0.4151  0.4530  0.3758
  101OSM    H5S10095   6.362   5.457   6.254 -0.9651  0.0432  0.2096
  101OSM    C6S10096   6.386   5.424   6.037  0.0886 -0.1502  0.4693
  101OSM    H6S10097   6.456   5.509   6.029  0.2590 -0.3885 -0.6353
  101OSM    H6T10098   6.285   5.462   6.008  0.6625  1.3356  0.3439
  101OSM    C7S10099   6.430   5.317   5.937  0.4582  0.2825 -0.0478
  101OSM    H7S10100   6.356   5.235   5.945  1.2501 -0.2706  2.1768
  101OSM    H7T10101   6.531   5.280   5.964 -0.1587 -0.7007  1.0116
  101OSM    C8S10102   6.438   5.375   5.794 -0.9408 -0.0518 -0.5228
  101OSM    H8S10103   6.525   5.444   5.786 -0.0446 -1.0436  0.3667
  101OSM    H8T10104   6.345   5.425   5.760 -0.2012  0.7858 -1.3904
  101OSM    C9S10105   6.465   5.261   5.687  0.5924 -0.4449 -0.1111
  101OSM    H9S10106   6.379   5.190   5.695 -0.2971  0.7439  1.7023
  101OSM    H9T10107   6.556   5.204   5.716  0.8540  0.3978  0.7668
  101OSM   C10S10108   6.489   5.323   5.547 -0.3614  0.4497 -0.0691
  101OSM   H10S10109   6.500   5.238   5.477 -1.0031  1.1656 -1.0737
  101OSM   H10T10110   6.587   5.377   5.544  0.9867 -1.8798 -0.0258
  101OSM   C11S10111   6.381   5.406   5.486  0.2685 -0.2006  0.0241
  101OSM   H11S10112   6.398   5.507   5.529 -1.1251  0.0687 -0.0175
  101OSM   H11T10113   6.282   5.364   5.515  0.1631 -0.4145 -0.6272
  101OSM   C12S10114   6.387   5.422   5.337  0.0869  0.0012 -0.1133
  101OSM   H12S10115   6.491   5.410   5.300 -0.8750 -0.0895 -3.0069
  101OSM   H12T10116   6.355   5.521   5.299  0.9666  1.2886  2.2996
  101OSM   C13S10117   6.293   5.317   5.272  0.0729 -0.5157 -0.3117
  101OSM   H13S10118   6.187   5.337   5.300 -0.4563  2.2770 -3.6844
  101OSM   H13T10119   6.329   5.221   5.313  2.0660 -0.2796 -1.4121
  101OSM   C14S10120   6.298   5.300   5.121  0.3673  0.4589  0.5012
  101OSM   H14S10121   6.255   5.391   5.075 -1.9845 -1.5993 -1.7103
  101OSM   H14T10122   6.223   5.221   5.099  2.4613 -1.2031 -1.2052
  101OSM   C15S10123   6.433   5.264   5.061  0.2770 -0.4635 -0.2462
  101OSM   H15S10124   6.500   5.196   5.118  0.6198 -0.0979 -0.2112
  101OSM   H15T10125   6.497   5.355   5.056  2.2073 -1.7373 -0.0260
  101OSM   C16S10126   6.422   5.226   4.918  0.2217 -0.0365  0.4977
  101OSM   H16S10127   6.499   5.287   4.865 -1.3368  1.9129  0.3603
  101OSM   H16T10128   6.329   5.276   4.884  0.4121 -0.3375 -0.5088
  101OSM   C17S10129   6.442   5.075   4.894 -0.4975 -0.3937 -0.4548
  101OSM   H17S10130   6.461   5.035   4.996  0.4660  0.5486 -0.2423
  101OSM   H17T10131   6.538   5.063   4.839 -0.1577 -1.1105  0.2782
  101OSM   C18S10132   6.324   5.019   4.822 -0.7896  0.0049  0.1486
  101OSM   H18S10133   6.276   5.084   4.746 -0.4045  1.2989  0.9808
  101OSM   H18T10134   6.253   5.003   4.906  1.9840 -1.2383  2.4039
  101OSM   H18U10135   6.337   4.919   4.775 -1.9377  0.4811 -1.2636
  101OSM    C1F10136   6.130   4.965   6.272  0.0507  0.3197 -0.5851
  101OSM     OF10137   6.034   5.015   6.323 -0.5308  0.1747 -0.0014
  101OSM    C2F10138   6.121   4.834   6.201 -0.0072 -0.0276  0.2525
  101OSM    H2F10139   6.030   4.789   6.247 -0.8396  1.2330 -0.1192
  101OSM    H2G10140   6.217   4.785   6.227  0.4555  1.6912  2.0615
  101OSM    C3F10141   6.102   4.848   6.050 -0.5189  0.9768  1.2718
  101OSM    H3F10142   6.023   4.921   6.023 -1.1799  0.7192  2.4651
  101OSM    H3G10143   6.098   4.746   6.005 -2.0385  1.7575 -0.4719
  101OSM    C4F10144   6.238   4.909   5.987 -0.3692  0.2045 -0.1777
  101OSM    H4F10145   6.325   4.846   6.016 -0.2667 -2.0120 -4.4839
  101OSM    H4G10146   6.255   5.013   6.022  2.9043  0.0279 -0.8743
  101OSM    C5F10147   6.244   4.921   5.838  0.8540 -0.5856  0.8173
  101OSM    H5F10148   6.212   4.827   5.789 -2.1073  1.1835 -0.8998
  101OSM    H5G10149   6.346   4.942   5.799  0.1259 -0.8896 -1.3401
  101OSM    C6F10150   6.142   5.024   5.773 -0.3079 -0.5175  0.4067
  101OSM    H6F10151   6.156   5.125   5.815 -0.3553 -0.8259  1.1721
  101OSM    H6G10152   6.039   4.996   5.804 -1.1363  1.1511 -0.6896
  101OSM    C7F10153   6.155   5.027   5.626  0.6174 -0.2456 -0.4431
  101OSM    H7F10154   6.122   4.931   5.581  1.2083  0.7396 -3.2390
  101OSM    H7G10155   6.265   5.026   5.608  0.6192 -1.8757 -0.4344
  101OSM    C8F10156   6.100   5.153   5.557  0.3098 -0.0071 -1.1807
  101OSM    H8F10157   6.155   5.161   5.461 -1.0094  0.0483 -1.9577
  101OSM    H8G10158   6.128   5.240   5.620  2.5022 -1.3126 -0.2439
  101OSM    C9F10159   5.946   5.139   5.541  0.7417  0.2087  0.0982
  101OSM    H9F10160   5.895   5.137   5.638  1.6998  1.9346  0.6726
  101OSM   C10F10161   5.873   5.135   5.425  0.1708 -0.8404 -0.6727
  101OSM   H10F10162   5.764   5.122   5.435 -0.0164  0.3082 -1.0893
  101OSM   C11F10163   5.934   5.115   5.286 -0.2153 -0.1482  0.2222
  101OSM   H11F10164   5.958   5.006   5.283 -0.1295 -0.3273  3.5709
  101OSM   H11G10165   6.030   5.168   5.269 -0.3405 -0.4675 -1.7077
  101OSM   C12F10166   5.833   5.146   5.169 -0.5236  0.1324  0.3122
  101OSM   H12F10167   5.781   5.244   5.181 -0.0159  0.4674 -0.1507
  101OSM   H12G10168   5.767   5.057   5.168  0.9026 -0.9906 -1.7738
  101OSM   C13F10169   5.904   5.156   5.035 -0.3819  0.4404  0.0814
  101OSM   H13F10170   5.953   5.060   5.007  1.6908  2.0816 -2.3804
  101OSM   H13G10171   5.987   5.230   5.027 -1.0463  1.1526 -0.3441
  101OSM   C14F10172   5.809   5.185   4.916  0.0665 -0.1528 -0.2887
  101OSM   H14F10173   5.754   5.281   4.916 -1.2246 -0.8595  0.9753
  101OSM   H14G10174   5.733   5.104   4.908 -0.2114  0.0856 -0.0740
  101OSM   C15F10175   5.889   5.181   4.778  0.1993 -0.4529 -0.2417
  101OSM   H15F10176   5.947   5.087   4.767  0.3056 -0.3772 -0.3297
  101OSM   H15G10177   5.963   5.263   4.786  0.5674 -0.9561  2.2559
  101OSM   C16F10178   5.789   5.220   4.671 -0.0765  0.4616 -0.6508
  101OSM   H16F10179   5.789   5.328   4.647 -0.4601  0.5374 -0.3169
  101OSM   H16G10180   5.689   5.184   4.702  1.3998 -1.4150  2.4935
  101OSM   C17F10181   5.828   5.150   4.535  0.8791 -0.3078 -0.0131
  101OSM   H17F10182   5.746   5.172   4.463  1.4189 -0.0594 -0.5637
  101OSM   H17G10183   5.830   5.039   4.544  2.0047 -0.3318 -0.3840
  101OSM   C18F10184   5.956   5.188   4.458  0.4721 -0.1836 -0.0038
  101OSM   H18F10185   5.969   5.149   4.354  0.5926  1.3478 -0.5898
  101OSM   H18G10186   6.048   5.156   4.511  2.2887 -0.6538 -3.1411
  101OSM   H18H10187   5.948   5.299   4.450 -0.0639  0.2677  4.4187
  102OSM      N10188   0.360   4.742   6.913  0.0710 -0.1002 -0.1667
  102OSM    C1510189   0.418   4.669   6.798  0.2291 -0.1088 -0.0812
  102OSM   H15A10190   0.356   4.581   6.786 -2.6436  1.8671 -1.0009
  102OSM   H15B10191   0.521   4.642   6.816  0.8054  0.6953 -1.8155
  102OSM   H15C10192   0.409   4.728   6.707 -0.4793  0.2158  0.1925
  102OSM    C1410193   0.396   4.672   7.043  0.2928  0.0438  0.2843
  102OSM   H14A10194   0.342   4.580   7.030  1.3001 -0.1148 -5.2091
  102OSM   H14B10195   0.345   4.718   7.126 -0.9465  1.0839 -0.9918
  102OSM   H14C10196   0.502   4.655   7.049  0.3102  0.1434  0.2740
  102OSM    C1310197   0.440   4.867   6.920  0.6080  0.5392 -0.1519
  102OSM   H13A10198   0.419   4.917   7.013 -0.6930 -0.7471  0.2858
  102OSM   H13B10199   0.428   4.940   6.841 -0.5352  1.2448  0.6485
  102OSM   H13C10200   0.546   4.847   6.914  0.4881  0.0891 -0.9404
  102OSM    C1210201   0.214   4.768   6.904 -0.1791  0.2862 -0.4362
  102OSM   H12A10202   0.206   4.821   6.810  0.8228 -0.5056 -0.9765
  102OSM   H12B10203   0.184   4.836   6.982  1.3765  2.1399 -1.3703
  102OSM    C1110204   0.117   4.646   6.905  0.3705  0.0778  0.1194
  102OSM   H11A10205   0.016   4.682   6.931  1.2436  0.4854  3.3846
  102OSM   H11B10206   0.148   4.564   6.974  0.9185 -0.2179 -0.4555
  102OSM      P10207   0.063   4.626   6.638 -0.3647  0.5431 -0.1949
  102OSM    O1310208  -0.052   4.713   6.665  0.2834 -0.3546 -0.2186
  102OSM    O1410209   0.168   4.690   6.548  0.7588  0.5947 -0.6235
  102OSM    O1110210   0.012   4.490   6.581  0.7108 -0.1187  0.2781
  102OSM    O1210211   0.133   4.589   6.773  0.3536 -0.1310  0.2034
  102OSM    C1S10212  -0.104   4.473   6.501 -0.3596  0.1705 -0.5695
  102OSM    H1S10213  -0.175   4.558   6.514 -0.2326  0.0985  0.7843
  102OSM    H1T10214  -0.158   4.381   6.533 -0.0572  0.4329  0.7495
  102OSM     NF10215  -0.191   4.417   6.283  0.3551 -0.7148  0.0036
  102OSM    HNF10216  -0.228   4.325   6.275  1.5918 -1.2629  0.3052
  102OSM    C2S10217  -0.071   4.445   6.352 -0.5737 -0.1054 -0.4314
  102OSM    H2S10218  -0.010   4.528   6.310  1.5101 -1.5890 -0.5491
  102OSM    C3S10219   0.037   4.330   6.333  0.5807 -0.2104 -0.0415
  102OSM    H3S10220  -0.013   4.236   6.364 -2.1147  1.7002  1.9597
  102OSM     O310221   0.158   4.348   6.406  0.5110 -0.1150  0.0180
  102OSM    HO310222   0.138   4.425   6.459 -0.8708 -0.6571  0.3290
  102OSM    C4S10223   0.079   4.327   6.185  0.6581 -0.4731  0.4164
  102OSM    H4S10224   0.003   4.285   6.118 -1.5604  4.2556 -0.4347
  102OSM    C5S10225   0.188   4.387   6.124 -1.1403 -0.2889 -0.4152
  102OSM    H5S10226   0.268   4.427   6.187 -0.1427 -0.3152 -1.6302
  102OSM    C6S10227   0.217   4.396   5.977  0.1781  0.0053 -0.0974
  102OSM    H6S10228   0.280   4.315   5.935 -0.4872 -0.5821  0.0060
  102OSM    H6T10229   0.268   4.494   5.965 -0.5071  0.4518  0.5602
  102OSM    C7S10230   0.084   4.400   5.895  0.6884  0.8189 -0.3391
  102OSM    H7S10231   0.029   4.490   5.930  1.2327  0.6141  1.0871
  102OSM    H7T10232   0.031   4.307   5.924  0.9376  0.2051 -1.7546
  102OSM    C8S10233   0.108   4.396   5.750  0.2664  0.5829 -0.5749
  102OSM    H8S10234   0.151   4.297   5.727 -0.7008 -0.5093  1.9536
  102OSM    H8T10235   0.182   4.477   5.732  0.7375 -0.1357 -1.9592
  102OSM    C9S10236  -0.016   4.410   5.661 -0.3948 -0.7539  0.0644
  102OSM    H9S10237  -0.063   4.510   5.679  0.0726  0.1617 -3.2250
  102OSM    H9T10238  -0.094   4.342   5.701 -2.5399  2.1215  1.1156
  102OSM   C10S10239   0.015   4.394   5.513  0.4395 -0.2840  0.1596
  102OSM   H10S10240   0.055   4.291   5.498 -0.0105 -0.5387  0.6682
  102OSM   H10T10241   0.101   4.459   5.490  0.7206 -0.5990  0.3081
  102OSM   C11S10242  -0.111   4.418   5.422  0.5484  0.1359 -0.4310
  102OSM   H11S10243  -0.155   4.515   5.454 -1.3672 -0.1708 -1.9669
  102OSM   H11T10244  -0.190   4.347   5.456  1.0253 -0.2618 -0.1487
  102OSM   C12S10245  -0.076   4.424   5.279  0.3607 -0.3247 -0.1240
  102OSM   H12S10246  -0.015   4.333   5.258  0.2235  0.1239 -2.7263
  102OSM   H12T10247  -0.012   4.512   5.261  0.9389 -1.2141 -2.9893
  102OSM   C13S10248  -0.188   4.416   5.189 -0.0366 -0.7009 -0.2554
  102OSM   H13S10249  -0.249   4.324   5.198 -0.8332 -0.8211 -4.6885
  102OSM   H13T10250  -0.154   4.398   5.085  0.7307 -4.8431  0.5395
  102OSM   C14S10251  -0.270   4.545   5.190  0.6402 -0.0965 -0.6763
  102OSM   H14S10252  -0.220   4.641   5.215 -3.1352  2.6181 -2.3986
  102OSM   H14T10253  -0.340   4.531   5.275  2.0449  0.6592  0.6569
  102OSM   C15S10254  -0.350   4.568   5.058  0.4035 -0.4581  0.3027
  102OSM   H15S10255  -0.268   4.574   4.983 -0.6845  1.8140 -0.7828
  102OSM   H15T10256  -0.388   4.671   5.046  0.8246 -0.5707 -2.7403
  102OSM   C16S10257  -0.455   4.469   5.007 -0.0188 -0.7516 -0.0664
  102OSM   H16S10258  -0.537   4.475   5.082  0.1561 -0.1909  0.0870
  102OSM   H16T10259  -0.419   4.364   5.001  0.8844 -0.5275  1.0298
  102OSM   C17S10260  -0.523   4.500   4.871  0.1251 -0.1234  0.2327
  102OSM   H17S10261  -0.447   4.512   4.791 -0.4211  1.2889 -0.1026
  102OSM   H17T10262  -0.575   4.597   4.887 -0.5258  0.0119 -2.2165
  102OSM   C18S10263  -0.640   4.408   4.843 -0.8256 -0.5989  0.7875
  102OSM   H18S10264  -0.607   4.305   4.820 -3.3322 -0.8955 -2.0350
  102OSM   H18T10265  -0.710   4.447   4.766  0.4569 -0.1288 -0.1704
  102OSM   H18U10266  -0.704   4.415   4.934 -0.9411 -1.7208  0.8070
  102OSM    C1F10267  -0.272   4.521   6.248 -0.0133  0.5650  0.2626
  102OSM     OF10268  -0.252   4.637   6.279  0.0050 -0.7401  0.0946
  102OSM    C2F10269  -0.394   4.485   6.165  0.8682  0.1633  0.0739
  102OSM    H2F10270  -0.483   4.526   6.217 -0.4166 -1.9600 -0.3354
  102OSM    H2G10271  -0.415   4.376   6.162  1.1172  0.0980  0.6335
  102OSM    C3F10272  -0.383   4.547   6.022 -0.2202 -0.3006 -0.1819
  102OSM    H3F10273  -0.285   4.512   5.983  1.6767  2.1478  1.9803
  102OSM    H3G10274  -0.373   4.656   6.035 -0.9482 -0.3990  1.5895
  102OSM    C4F10275  -0.496   4.499   5.928  0.2868  0.0741  1.2859
  102OSM    H4F10276  -0.595   4.514   5.977  0.1577 -2.1037  1.8088
  102OSM    H4G10277  -0.503   4.390   5.906 -1.3447  0.3782  0.1255
  102OSM    C5F10278  -0.497   4.570   5.784  0.4659 -0.2681  0.1580
  102OSM    H5F10279  -0.422   4.521   5.719  0.7987  0.4576 -0.0110
  102OSM    H5G10280  -0.469   4.676   5.797  0.2548 -0.1977  0.0339
  102OSM    C6F10281  -0.629   4.550   5.718  0.1431 -0.4981 -0.0961
  102OSM    H6F10282  -0.628   4.601   5.619 -0.1267 -0.5151 -0.1102
  102OSM    H6G10283  -0.710   4.611   5.765  0.3475 -1.2424  1.2630
  102OSM    C7F10284  -0.687   4.409   5.707  0.8602 -0.1960 -0.7149
  102OSM    H7F10285  -0.672   4.353   5.802  0.9291  0.5107 -0.3009
  102OSM    H7G10286  -0.636   4.359   5.622  1.4223 -0.7150 -0.0887
  102OSM    C8F10287  -0.839   4.413   5.690  0.1526 -0.1451 -0.4537
  102OSM    H8F10288  -0.877   4.461   5.782  1.1028 -0.1206 -0.0629
  102OSM    H8G10289  -0.885   4.312   5.695  2.8946 -1.4176  2.0038
  102OSM    C9F10290  -0.884   4.485   5.561 -0.2259 -0.0070  0.1035
  102OSM    H9F10291  -0.878   4.595   5.557  1.0541 -0.0852 -0.7051
  102OSM   C10F10292  -0.948   4.426   5.456 -0.3449  1.2066 -0.3358
  102OSM   H10F10293  -1.007   4.496   5.395 -0.9371 -0.1636 -1.3870
  102OSM   C11F10294  -0.978   4.279   5.434  0.0924 -0.2995 -0.1004
  102OSM   H11F10295  -1.088   4.274   5.448  0.2340  0.5376  1.5273
  102OSM   H11G10296  -0.927   4.209   5.504  0.6866  1.0873  0.8905
  102OSM   C12F10297  -0.955   4.230   5.296  0.4306  0.5071  0.6032
  102OSM   H12F10298  -0.985   4.123   5.292  4.1024 -0.6216 -0.3122
  102OSM   H12G10299  -0.849   4.243   5.266  0.1137  1.3624 -0.1779
  102OSM   C13F10300  -1.049   4.296   5.189 -0.0319  0.1968  0.4351
  102OSM   H13F10301  -1.045   4.404   5.215 -1.6326 -0.0491  1.8646
  102OSM   H13G10302  -1.154   4.264   5.203 -0.6766  2.7202  1.9669
  102OSM   C14F10303  -0.980   4.272   5.053 -0.1996  0.2127 -0.4464
  102OSM   H14F10304  -0.875   4.253   5.082 -0.9586 -3.3433  0.4532
  102OSM   H14G10305  -0.979   4.371   5.003  0.0273  0.1020 -0.6584
  102OSM   C15F10306  -1.039   4.159   4.978  0.1245  0.4027 -0.3484
  102OSM   H15F10307  -1.023   4.183   4.871  1.8919 -0.3299 -0.2949
  102OSM   H15G10308  -1.148   4.150   4.998  0.2444 -0.3441 -0.0102
  102OSM   C16F10309  -0.968   4.020   5.005  1.1339 -0.4960  0.4589
  102OSM   H16F10310  -0.977   3.993   5.112 -1.8137  2.4189  1.1338
  102OSM   H16G10311  -0.863   4.052   4.988  0.3979  3.7652  2.5519
  102OSM   C17F10312  -1.034   3.904   4.922 -0.2654 -0.4335  0.3014
  102OSM   H17F10313  -1.130   3.875   4.970 -0.2884  1.1415  1.2968
  102OSM   H17G10314  -0.966   3.816   4.920  1.4137  0.6906  2.5145
  102OSM   C18F10315  -1.078   3.945   4.779  0.4873  0.3999 -0.4628
  102OSM   H18F10316  -1.102   3.851   4.724  1.2905  0.0074 -0.1571
  102OSM   H18G10317  -1.011   4.013   4.723 -1.2174  1.7611 -0.9379
  102OSM   H18H10318  -1.174   4.000   4.770  0.5367  0.4357 -0.7876
  103OSM      N10319   3.304   6.575   6.757 -0.3187  0.0632 -0.3933
  103OSM    C1510320   3.442   6.594   6.817 -0.3731 -0.7603  0.1158
  103OSM   H15A10321   3.479   6.693   6.793  0.1883 -1.0868 -0.4202
  103OSM   H15B10322   3.501   6.515   6.772  0.7426  0.0672  0.0739
  103OSM   H15C10323   3.445   6.570   6.922 -0.4561 -2.5548 -0.2607
  103OSM    C1410324   3.251   6.443   6.796  0.4222  0.2196 -0.1631
  103OSM   H14A10325   3.151   6.429   6.756  0.3643  0.2147 -0.0148
  103OSM   H14B10326   3.245   6.433   6.903 -2.6599 -2.4116 -0.4440
  103OSM   H14C10327   3.304   6.363   6.746  0.8228  0.2946  0.1430
  103OSM    C1310328   3.220   6.675   6.827  0.6022 -0.3017  0.2242
  103OSM   H13A10329   3.207   6.650   6.931  1.1153 -1.1207  0.1008
  103OSM   H13B10330   3.121   6.674   6.785  0.1368 -4.4837  1.0262
  103OSM   H13C10331   3.264   6.774   6.826 -1.4066  0.6878  1.7705
  103OSM    C1210332   3.306   6.591   6.604  0.7438  0.0603  0.3173
  103OSM   H12A10333   3.330   6.694   6.581 -2.9642  0.5330 -2.3829
  103OSM   H12B10334   3.202   6.588   6.575  0.4340  1.3081  1.1900
  103OSM    C1110335   3.392   6.492   6.525  0.6562  0.9237  0.9285
  103OSM   H11A10336   3.497   6.493   6.561  1.6481  0.5591 -1.7335
  103OSM   H11B10337   3.394   6.537   6.423  0.4234  1.5523  1.1939
  103OSM      P10338   3.275   6.283   6.418 -0.6259 -0.0617  0.3709
  103OSM    O1310339   3.230   6.150   6.468 -0.0136 -0.1807  0.2326
  103OSM    O1410340   3.176   6.376   6.359  0.2106 -0.8481  0.6964
  103OSM    O1110341   3.387   6.271   6.315 -0.5370 -0.1644  0.5396
  103OSM    O1210342   3.344   6.353   6.534 -0.0695  0.2907 -0.2042
  103OSM    C1S10343   3.427   6.150   6.254  0.0182  0.8591  0.5179
  103OSM    H1S10344   3.351   6.071   6.274  2.1071 -1.2161  0.6253
  103OSM    H1T10345   3.521   6.113   6.299  0.8475  0.9892 -1.0521
  103OSM     NF10346   3.480   6.015   6.052  0.3253 -0.1758 -0.4458
  103OSM    HNF10347   3.576   5.991   6.042  0.1050 -1.3646  0.0159
  103OSM    C2S10348   3.451   6.149   6.098  0.0066  0.3665 -0.0442
  103OSM    H2S10349   3.361   6.190   6.048 -0.3695 -0.8386 -0.3927
  103OSM    C3S10350   3.570   6.238   6.062  0.2945 -0.5350 -0.6853
  103OSM    H3S10351   3.654   6.187   6.112 -0.7742 -1.6069  0.0800
  103OSM     O310352   3.558   6.368   6.117  0.6706 -0.2434 -0.1758
  103OSM    HO310353   3.511   6.350   6.198  2.0197 -0.2469  0.6378
  103OSM    C4S10354   3.595   6.241   5.912 -0.8266  0.5663 -0.5451
  103OSM    H4S10355   3.673   6.169   5.882 -0.3032 -0.6373  3.2326
  103OSM    C5S10356   3.544   6.322   5.819  0.4767  0.0867  0.1435
  103OSM    H5S10357   3.467   6.397   5.839  0.7150  0.4758 -0.3799
  103OSM    C6S10358   3.580   6.327   5.674  0.2180 -0.2658 -0.6710
  103OSM    H6S10359   3.614   6.430   5.648  0.4221  0.6455  2.7048
  103OSM    H6T10360   3.487   6.312   5.616  1.0997 -2.5966 -1.6086
  103OSM    C7S10361   3.683   6.220   5.634 -0.0342 -0.0952 -0.5012
  103OSM    H7S10362   3.662   6.122   5.684 -0.4122 -0.7431 -1.8840
  103OSM    H7T10363   3.779   6.256   5.675 -1.2618  2.0927  0.6535
  103OSM    C8S10364   3.701   6.194   5.484  0.1338  0.0728 -0.3186
  103OSM    H8S10365   3.794   6.138   5.461 -0.6679 -0.8735 -1.3689
  103OSM    H8T10366   3.706   6.295   5.437 -2.2965  1.2516  1.7276
  103OSM    C9S10367   3.588   6.110   5.418  0.2744  0.0879 -0.7741
  103OSM    H9S10368   3.493   6.167   5.424 -0.3811 -0.8378 -1.9801
  103OSM    H9T10369   3.574   6.011   5.468 -0.3354  0.4733 -0.1672
  103OSM   C10S10370   3.608   6.082   5.279 -0.2141  0.1866  0.4699
  103OSM   H10S10371   3.694   6.014   5.266 -0.8087 -0.6842  1.0055
  103OSM   H10T10372   3.632   6.175   5.223 -0.1162 -0.6431 -0.9163
  103OSM   C11S10373   3.494   6.010   5.216  0.0545 -0.0689  0.2690
  103OSM   H11S10374   3.396   6.050   5.251 -0.3012 -0.7213  0.0362
  103OSM   H11T10375   3.496   5.902   5.241 -1.8200 -0.4569 -1.0309
  103OSM   C12S10376   3.509   6.023   5.066  0.7924 -0.0450  0.0543
  103OSM   H12S10377   3.609   5.988   5.032  0.2490  0.0235 -1.6800
  103OSM   H12T10378   3.508   6.129   5.034  2.4389 -0.3110 -0.9880
  103OSM   C13S10379   3.411   5.934   4.984 -0.9301  0.3140 -0.1140
  103OSM   H13S10380   3.310   5.942   5.030 -0.6700 -0.3920  0.5776
  103OSM   H13T10381   3.453   5.833   4.999 -0.7072  0.6406  1.6252
  103OSM   C14S10382   3.402   5.967   4.828  0.1234  0.1436 -0.6894
  103OSM   H14S10383   3.366   6.070   4.811 -0.4856 -0.0325 -0.5125
  103OSM   H14T10384   3.335   5.891   4.780  1.3730 -1.2198 -0.3540
  103OSM   C15S10385   3.536   5.961   4.748 -0.0044 -0.1104 -0.6445
  103OSM   H15S10386   3.561   5.853   4.736  2.5102  0.4851 -1.3112
  103OSM   H15T10387   3.619   6.000   4.810 -1.0075 -1.2376  1.5213
  103OSM   C16S10388   3.547   6.040   4.613  0.1635 -0.6086 -0.1606
  103OSM   H16S10389   3.513   6.143   4.639  0.5932  0.1329 -2.3831
  103OSM   H16T10390   3.473   6.000   4.541 -2.0083  1.7627  0.5884
  103OSM   C17S10391   3.686   6.040   4.556 -0.6118  0.2765 -0.6999
  103OSM   H17S10392   3.718   5.934   4.542  1.6025  0.3250  2.7014
  103OSM   H17T10393   3.746   6.080   4.640 -0.6187 -0.6802 -0.2181
  103OSM   C18S10394   3.691   6.129   4.432 -0.3014  0.1359 -0.3099
  103OSM   H18S10395   3.734   6.230   4.448  1.4535 -0.7557  0.9744
  103OSM   H18T10396   3.582   6.143   4.420 -0.9073 -0.1085  3.5417
  103OSM   H18U10397   3.737   6.070   4.350 -0.9984  0.1220 -0.7005
  103OSM    C1F10398   3.386   5.917   6.061  0.1458 -0.3762 -0.8527
  103OSM     OF10399   3.266   5.943   6.059  0.3018 -0.1888 -0.1218
  103OSM    C2F10400   3.424   5.776   6.070  0.0039 -0.2477 -0.3361
  103OSM    H2F10401   3.428   5.757   6.179 -0.1171 -1.6323 -0.5667
  103OSM    H2G10402   3.522   5.754   6.021  0.2853 -1.8459  0.8856
  103OSM    C3F10403   3.324   5.668   6.014 -0.9023 -0.0519 -0.5702
  103OSM    H3F10404   3.231   5.668   6.074  0.1868 -1.9819  1.2453
  103OSM    H3G10405   3.362   5.565   6.035  2.8084  1.3710  0.6655
  103OSM    C4F10406   3.298   5.691   5.866  0.1765  0.1551  1.0021
  103OSM    H4F10407   3.394   5.695   5.810 -0.1745  3.0563  0.4547
  103OSM    H4G10408   3.250   5.791   5.858 -1.1820 -0.5196  0.4367
  103OSM    C5F10409   3.207   5.588   5.799 -0.0331  0.2344  0.1565
  103OSM    H5F10410   3.121   5.564   5.867 -1.2788 -0.4187 -1.5724
  103OSM    H5G10411   3.266   5.494   5.796 -0.8105 -0.2292 -1.5570
  103OSM    C6F10412   3.142   5.631   5.676 -0.1076 -0.2599  0.0902
  103OSM    H6F10413   3.077   5.721   5.682 -0.6617 -0.4175 -2.3705
  103OSM    H6G10414   3.062   5.562   5.642 -1.0502  0.4654  0.7913
  103OSM    C7F10415   3.250   5.641   5.561  0.1787  0.1548 -0.5070
  103OSM    H7F10416   3.293   5.540   5.544 -0.7632 -0.0121 -2.1484
  103OSM    H7G10417   3.330   5.714   5.587 -0.0521  0.4153 -0.5279
  103OSM    C8F10418   3.201   5.685   5.416  0.6470  0.0962 -0.8127
  103OSM    H8F10419   3.296   5.708   5.363  1.9300  0.8672  1.6689
  103OSM    H8G10420   3.144   5.780   5.424 -1.5810 -1.2419  0.3850
  103OSM    C9F10421   3.112   5.583   5.357  0.3965 -0.5324 -0.4262
  103OSM    H9F10422   3.037   5.536   5.422  0.2801 -0.2903 -0.3866
  103OSM   C10F10423   3.124   5.527   5.236 -0.2057 -0.1954 -0.0710
  103OSM   H10F10424   3.061   5.442   5.207 -0.4583  0.4085 -1.3312
  103OSM   C11F10425   3.233   5.557   5.133 -0.1067 -0.4740  0.1611
  103OSM   H11F10426   3.332   5.512   5.154 -0.1081 -0.5916 -0.0787
  103OSM   H11G10427   3.243   5.667   5.121  1.2226 -0.6715 -0.7242
  103OSM   C12F10428   3.189   5.509   4.995 -0.5761 -0.5623  0.3827
  103OSM   H12F10429   3.173   5.399   5.000  2.6182 -1.0776  1.3318
  103OSM   H12G10430   3.282   5.535   4.940  0.4480 -0.0215  2.2764
  103OSM   C13F10431   3.064   5.577   4.944 -0.4072 -0.6198 -0.6115
  103OSM   H13F10432   3.077   5.684   4.969  0.7217 -0.7781 -0.4763
  103OSM   H13G10433   2.969   5.536   4.987 -0.9491  0.5883 -0.6152
  103OSM   C14F10434   3.030   5.578   4.790 -0.4186 -0.8907 -0.3860
  103OSM   H14F10435   2.922   5.604   4.784 -0.4820 -1.1411 -0.3601
  103OSM   H14G10436   3.044   5.477   4.745  0.1887 -0.8803 -0.2322
  103OSM   C15F10437   3.107   5.677   4.703  0.4117  0.8154 -0.1615
  103OSM   H15F10438   3.213   5.641   4.708  0.5038  1.0762 -0.2077
  103OSM   H15G10439   3.098   5.767   4.767 -1.3371 -0.6643  1.8325
  103OSM   C16F10440   3.055   5.699   4.558 -0.2028 -0.2998  0.1867
  103OSM   H16F10441   2.957   5.752   4.561  1.1214  2.3386  0.8550
  103OSM   H16G10442   3.047   5.592   4.529 -0.9535 -0.5243  1.1796
  103OSM   C17F10443   3.145   5.778   4.461 -0.1515 -0.2400 -0.2121
  103OSM   H17F10444   3.247   5.734   4.459  0.7734  1.7869  0.2213
  103OSM   H17G10445   3.147   5.882   4.499 -0.3095 -0.1520 -0.4422
  103OSM   C18F10446   3.090   5.780   4.321 -0.7081 -0.0229 -0.0489
  103OSM   H18F10447   3.084   5.675   4.284  0.8629 -0.9248  2.0800
  103OSM   H18G10448   3.156   5.837   4.252  2.0762 -1.5319  1.2143
  103OSM   H18H10449   2.986   5.819   4.319 -1.1496 -1.0525  1.4745
  104OSM      N10450   3.736   5.473   6.673 -0.1326  0.4429  0.3441
  104OSM    C1510451   3.805   5.355   6.738  0.8204  0.0516 -0.3258
  104OSM   H15A10452   3.792   5.359   6.845  1.2992 -0.4630 -0.2450
  104OSM   H15B10453   3.910   5.341   6.717  0.7817 -2.1372  0.5982
  104OSM   H15C10454   3.764   5.261   6.705  1.0024  0.1583 -0.8591
  104OSM    C1410455   3.598   5.439   6.662 -0.0746  0.6622 -0.7612
  104OSM   H14A10456   3.546   5.521   6.614 -1.3056  1.2395  1.4204
  104OSM   H14B10457   3.547   5.424   6.756 -1.3763 -0.7823 -1.6502
  104OSM   H14C10458   3.577   5.352   6.601 -1.5984  0.9054 -0.6332
  104OSM    C1310459   3.752   5.586   6.760 -0.9656 -0.9679  0.0936
  104OSM   H13A10460   3.855   5.619   6.768 -1.8703  1.9349  1.1117
  104OSM   H13B10461   3.722   5.557   6.860 -0.5612 -1.2667  0.1329
  104OSM   H13C10462   3.709   5.676   6.719  2.0259 -1.0733 -3.8467
  104OSM    C1210463   3.799   5.513   6.539 -0.0262  0.5594 -0.3111
  104OSM   H12A10464   3.732   5.594   6.514 -1.9161 -1.0032 -0.5151
  104OSM   H12B10465   3.783   5.432   6.469 -0.3989  1.2378 -1.0279
  104OSM    C1110466   3.942   5.550   6.543  0.2709 -0.5425 -0.2979
  104OSM   H11A10467   3.962   5.623   6.625  0.4564 -2.6635  1.6571
  104OSM   H11B10468   3.965   5.591   6.443 -1.1447 -0.3049 -0.5387
  104OSM      P10469   4.062   5.334   6.458 -0.0593 -0.1223 -0.0686
  104OSM    O1310470   4.125   5.219   6.529 -0.1513 -0.2049  0.2160
  104OSM    O1410471   3.942   5.315   6.375  0.0817  0.5473 -0.2092
  104OSM    O1110472   4.178   5.407   6.373  0.0773  0.1475 -0.3115
  104OSM    O1210473   4.020   5.439   6.568  0.5323 -0.4244  0.6393
  104OSM    C1S10474   4.275   5.490   6.443  0.4786  0.6982  0.2127
  104OSM    H1S10475   4.332   5.429   6.516  1.1161  0.5406 -0.4097
  104OSM    H1T10476   4.220   5.566   6.503 -2.0112  1.4453 -2.7259
  104OSM     NF10477   4.486   5.604   6.412  0.0612 -0.3474 -0.5256
  104OSM    HNF10478   4.504   5.697   6.441  3.2493 -1.1002  0.3044
  104OSM    C2S10479   4.366   5.557   6.338  0.3379 -0.4235  0.5484
  104OSM    H2S10480   4.391   5.478   6.264 -0.0222  0.5127 -0.6295
  104OSM    C3S10481   4.282   5.663   6.270 -0.3162 -0.3895 -0.2157
  104OSM    H3S10482   4.248   5.731   6.351  0.5083  0.2000 -0.3518
  104OSM     O310483   4.163   5.619   6.205 -0.2013 -0.2055 -0.0193
  104OSM    HO310484   4.163   5.527   6.232 -1.3538 -0.3599 -0.4569
  104OSM    C4S10485   4.370   5.746   6.179  0.6876  0.0766  0.6217
  104OSM    H4S10486   4.447   5.801   6.235 -1.1767 -0.7448  4.2595
  104OSM    C5S10487   4.377   5.740   6.049 -0.5498 -0.2763  0.1457
  104OSM    H5S10488   4.321   5.659   6.001 -0.4790  0.4514 -1.2133
  104OSM    C6S10489   4.487   5.822   5.974 -0.1798  0.0599 -0.0810
  104OSM    H6S10490   4.555   5.875   6.044  0.3186 -0.7345  0.0606
  104OSM    H6T10491   4.441   5.902   5.913  2.8562  0.3809 -2.1868
  104OSM    C7S10492   4.571   5.721   5.893  0.5878  0.6254  0.2111
  104OSM    H7S10493   4.602   5.628   5.944  0.5864 -1.3356 -3.0886
  104OSM    H7T10494   4.658   5.781   5.858 -0.6979  1.5963 -1.4843
  104OSM    C8S10495   4.495   5.662   5.767 -0.9719 -0.0303  0.2677
  104OSM    H8S10496   4.415   5.602   5.815 -2.3489  1.5423  0.0209
  104OSM    H8T10497   4.565   5.589   5.722 -2.6862 -1.3295 -0.3963
  104OSM    C9S10498   4.433   5.764   5.667  0.1831  0.7115  0.4636
  104OSM    H9S10499   4.508   5.837   5.631  1.6921 -0.0222  1.9726
  104OSM    H9T10500   4.347   5.816   5.716  0.2952  0.4597  0.9385
  104OSM   C10S10501   4.379   5.701   5.540 -0.5865  0.1963  0.2239
  104OSM   H10S10502   4.299   5.628   5.561 -0.8690 -0.1592 -1.8374
  104OSM   H10T10503   4.453   5.633   5.493 -2.2504 -1.5060 -0.0369
  104OSM   C11S10504   4.332   5.795   5.425  0.4548 -0.4777  0.2668
  104OSM   H11S10505   4.398   5.884   5.431 -1.8094  1.1939  2.6224
  104OSM   H11T10506   4.232   5.836   5.452 -0.2287  0.7090 -3.4981
  104OSM   C12S10507   4.308   5.725   5.290 -0.2497 -0.2183  0.3820
  104OSM   H12S10508   4.249   5.794   5.226  0.2786  0.4145  0.5729
  104OSM   H12T10509   4.240   5.637   5.281  0.3510 -0.8034  1.3770
  104OSM   C13S10510   4.440   5.683   5.222  0.5238 -0.0198 -0.2342
  104OSM   H13S10511   4.473   5.585   5.263  0.5073  0.8574  2.0088
  104OSM   H13T10512   4.520   5.755   5.251 -0.6110  1.1684  0.0234
  104OSM   C14S10513   4.448   5.667   5.069 -0.3100 -0.2359 -0.2455
  104OSM   H14S10514   4.364   5.597   5.051 -0.6952  0.7289 -2.6639
  104OSM   H14T10515   4.539   5.614   5.035  0.0394 -0.5407  1.1174
  104OSM   C15S10516   4.426   5.794   4.982  0.3042  1.1826  0.1550
  104OSM   H15S10517   4.518   5.853   5.005 -0.0668  2.5004 -1.5318
  104OSM   H15T10518   4.333   5.847   5.010  0.7657  1.6548  0.8188
  104OSM   C16S10519   4.415   5.732   4.838 -0.3694 -0.3512  0.4247
  104OSM   H16S10520   4.330   5.660   4.840  1.0666 -2.1312  0.5682
  104OSM   H16T10521   4.502   5.675   4.800  1.9553  2.3319  1.3632
  104OSM   C17S10522   4.394   5.846   4.730  0.5179 -0.0794 -1.1785
  104OSM   H17S10523   4.479   5.917   4.732  2.2014 -1.9657 -2.2905
  104OSM   H17T10524   4.299   5.895   4.761  0.4774 -2.5790  3.6635
  104OSM   C18S10525   4.370   5.780   4.596  0.4021 -0.5121  0.3963
  104OSM   H18S10526   4.459   5.719   4.566  0.1713 -0.6249 -0.0736
  104OSM   H18T10527   4.361   5.863   4.523  0.7714 -0.5516  0.3022
  104OSM   H18U10528   4.272   5.728   4.594  0.6361 -0.9448 -0.6500
  104OSM    C1F10529   4.576   5.510   6.436 -0.7930 -0.4894 -0.5162
  104OSM     OF10530   4.557   5.393   6.423  0.2558  0.3466  0.3367
  104OSM    C2F10531   4.712   5.557   6.483 -0.0787 -0.6521 -1.0933
  104OSM    H2F10532   4.709   5.568   6.594 -0.8410  1.3393 -1.2645
  104OSM    H2G10533   4.731   5.660   6.446  1.0834 -0.3047  0.3881
  104OSM    C3F10534   4.817   5.458   6.437 -0.0442  0.5812 -0.6207
  104OSM    H3F10535   4.802   5.362   6.490 -3.3447  1.8843  1.0783
  104OSM    H3G10536   4.917   5.498   6.466  0.5035 -0.0972 -1.4946
  104OSM    C4F10537   4.814   5.437   6.288  0.7910  0.3099 -0.2382
  104OSM    H4F10538   4.720   5.393   6.249 -0.3544  0.2824  2.2929
  104OSM    H4G10539   4.888   5.355   6.278  1.2438  0.4636  1.5036
  104OSM    C5F10540   4.861   5.544   6.193 -0.0970 -0.3337  0.2928
  104OSM    H5F10541   4.965   5.576   6.218  0.4390 -0.6465 -1.4381
  104OSM    H5G10542   4.792   5.631   6.197 -1.6366 -1.4512 -1.0488
  104OSM    C6F10543   4.872   5.508   6.042 -0.6548 -0.8005 -0.1069
  104OSM    H6F10544   4.885   5.599   5.980 -0.5098  0.5638  1.8191
  104OSM    H6G10545   4.779   5.456   6.013 -0.6735 -1.8017  1.5960
  104OSM    C7F10546   4.995   5.423   6.002  0.9108 -0.6583 -0.3197
  104OSM    H7F10547   4.983   5.327   6.057 -0.5174 -0.1554  0.3204
  104OSM    H7G10548   5.090   5.456   6.049  1.5986 -1.3392 -1.1912
  104OSM    C8F10549   5.013   5.408   5.849  0.7889 -0.3109  0.2240
  104OSM    H8F10550   4.917   5.366   5.812  1.4173 -1.1122 -0.5447
  104OSM    H8G10551   5.091   5.332   5.829  1.4166 -0.4445  2.8161
  104OSM    C9F10552   5.050   5.528   5.778 -0.6965 -0.7082 -0.3825
  104OSM    H9F10553   5.131   5.587   5.824 -0.6263 -2.3369  1.7364
  104OSM   C10F10554   5.005   5.586   5.666  0.1873  0.4324 -0.7534
  104OSM   H10F10555   5.055   5.679   5.634  0.4346 -0.1625 -2.2189
  104OSM   C11F10556   4.894   5.550   5.570  0.2261  0.2660 -0.8133
  104OSM   H11F10557   4.855   5.448   5.590  1.7516  0.2246  2.7978
  104OSM   H11G10558   4.940   5.549   5.469  0.0041 -3.4204 -0.9884
  104OSM   C12F10559   4.784   5.656   5.571 -0.5115  0.5239  0.5853
  104OSM   H12F10560   4.746   5.675   5.674  0.1248  0.7847  0.7717
  104OSM   H12G10561   4.699   5.620   5.509 -0.6440  0.8434  0.5770
  104OSM   C13F10562   4.816   5.792   5.501  0.5148 -0.4949 -0.4798
  104OSM   H13F10563   4.865   5.853   5.580 -1.1406 -0.5469  0.6444
  104OSM   H13G10564   4.724   5.852   5.484  0.8681  0.2289  0.1388
  104OSM   C14F10565   4.899   5.803   5.375  0.2869 -0.7624  0.2563
  104OSM   H14F10566   5.007   5.779   5.382  0.4687  0.0916  0.5372
  104OSM   H14G10567   4.905   5.908   5.341  3.0684 -0.2185  2.1145
  104OSM   C15F10568   4.838   5.728   5.252  0.1581  0.1191  0.1068
  104OSM   H15F10569   4.735   5.693   5.278  0.7000 -0.8191  1.0632
  104OSM   H15G10570   4.892   5.633   5.233  0.0880  0.2224 -0.6419
  104OSM   C16F10571   4.849   5.806   5.122 -0.0878  0.2242 -0.7813
  104OSM   H16F10572   4.803   5.907   5.132 -3.5546 -1.2382 -0.5554
  104OSM   H16G10573   4.786   5.753   5.048 -0.1811 -1.1469  0.2391
  104OSM   C17F10574   4.992   5.804   5.066 -0.3759  0.3050 -0.2967
  104OSM   H17F10575   5.013   5.699   5.037  1.3991  0.4943  0.2172
  104OSM   H17G10576   5.059   5.850   5.141 -1.1754 -0.3488  0.8395
  104OSM   C18F10577   5.011   5.897   4.935  0.1611 -0.0436 -0.2179
  104OSM   H18F10578   4.977   5.839   4.847 -0.2844 -1.7102  0.9905
  104OSM   H18G10579   5.120   5.917   4.928  0.5538 -2.0517 -0.6266
  104OSM   H18H10580   4.949   5.989   4.936  0.4492  0.1595  1.1229
  105OSM      N10581   1.194   6.064   7.219 -0.5622  0.6269 -0.2618
  105OSM    C1510582   1.178   5.992   7.349 -0.2070  0.1654  0.0026
  105OSM   H15A10583   1.087   6.021   7.399 -0.0444 -2.2865  1.8801
  105OSM   H15B10584   1.264   6.015   7.410 -1.9101  2.2318  1.7833
  105OSM   H15C10585   1.158   5.887   7.336 -1.8914  0.3590  0.8197
  105OSM    C1410586   1.079   6.056   7.131  0.2068 -0.1157  0.3924
  105OSM   H14A10587   1.094   6.110   7.038 -0.2727  0.4256  0.6219
  105OSM   H14B10588   0.990   6.096   7.176  0.9678  0.9856  0.9730
  105OSM   H14C10589   1.042   5.957   7.108 -1.9818  0.1694  2.3128
  105OSM    C1310590   1.214   6.204   7.256 -0.1562  0.7045 -0.6439
  105OSM   H13A10591   1.134   6.249   7.312 -2.4490  0.0328 -3.1774
  105OSM   H13B10592   1.216   6.268   7.169  1.1643  2.0432  0.3119
  105OSM   H13C10593   1.306   6.231   7.307 -0.7214 -0.5833  1.1421
  105OSM    C1210594   1.316   6.002   7.143  1.2332  0.2636  0.3158
  105OSM   H12A10595   1.286   5.906   7.104  1.1893  1.0013 -1.5541
  105OSM   H12B10596   1.393   5.982   7.216  1.2360  0.7506  0.4468
  105OSM    C1110597   1.359   6.072   7.013  0.5122  0.8600  0.4016
  105OSM   H11A10598   1.450   6.020   6.975 -1.4267 -1.8211 -0.8622
  105OSM   H11B10599   1.377   6.179   7.036 -0.0446  1.2656 -0.9371
  105OSM      P10600   1.259   6.165   6.791  0.1818  0.4294  0.5261
  105OSM    O1310601   1.188   6.283   6.839  0.1061  0.6928 -0.1766
  105OSM    O1410602   1.400   6.170   6.750  0.8268 -0.0488 -0.2737
  105OSM    O1110603   1.171   6.107   6.667  0.0707 -0.1695 -0.1013
  105OSM    O1210604   1.262   6.059   6.913 -0.2442  0.0402 -0.4801
  105OSM    C1S10605   1.239   6.029   6.570  0.4617 -0.4241  0.4827
  105OSM    H1S10606   1.232   5.922   6.596 -2.5614 -0.4790 -0.2270
  105OSM    H1T10607   1.345   6.054   6.545  0.3755 -1.5733 -1.2069
  105OSM     NF10608   1.244   5.976   6.331  0.2670  0.0538 -0.1655
  105OSM    HNF10609   1.290   6.039   6.269 -0.5895 -1.0447 -2.0188
  105OSM    C2S10610   1.165   6.037   6.429 -0.1655 -0.5166  0.5311
  105OSM    H2S10611   1.069   5.982   6.441 -0.2760 -0.4437 -0.0181
  105OSM    C3S10612   1.120   6.184   6.395  0.3604  0.7663 -0.1974
  105OSM    H3S10613   1.211   6.248   6.385 -0.6878  2.0378 -2.1628
  105OSM     O310614   1.038   6.251   6.494  0.6260  0.5353 -0.4472
  105OSM    HO310615   1.026   6.194   6.570 -3.0196  1.0198 -0.5138
  105OSM    C4S10616   1.046   6.193   6.270 -0.1261 -0.0230  0.4099
  105OSM    H4S10617   1.126   6.198   6.195 -0.2224 -1.4194  0.1851
  105OSM    C5S10618   0.921   6.201   6.230  0.5150  0.2222 -0.7175
  105OSM    H5S10619   0.847   6.195   6.311  2.3473 -1.1767  0.9611
  105OSM    C6S10620   0.864   6.201   6.086 -0.8123 -0.6095 -0.1256
  105OSM    H6S10621   0.805   6.294   6.074 -1.4060 -0.9488  0.1384
  105OSM    H6T10622   0.799   6.111   6.082  1.2433 -2.3171  1.8386
  105OSM    C7S10623   0.968   6.187   5.967 -0.0327 -0.3629 -0.0442
  105OSM    H7S10624   0.932   6.141   5.873  0.8889  1.3162 -1.2514
  105OSM    H7T10625   1.036   6.103   5.995 -1.6653 -2.0683 -0.9526
  105OSM    C8S10626   1.049   6.316   5.932  0.2384 -0.1991 -0.0576
  105OSM    H8S10627   1.112   6.341   6.019 -0.7821  1.2078  0.3137
  105OSM    H8T10628   0.977   6.400   5.918  0.3917  0.0722  0.7428
  105OSM    C9S10629   1.137   6.275   5.812 -0.0245 -0.2526  0.1297
  105OSM    H9S10630   1.065   6.250   5.731  0.1383 -1.6710  0.4059
  105OSM    H9T10631   1.202   6.187   5.830  0.3488 -0.3301 -1.4907
  105OSM   C10S10632   1.220   6.400   5.769 -0.0182 -0.7147  0.4757
  105OSM   H10S10633   1.290   6.442   5.844 -0.1343 -0.7544  0.6062
  105OSM   H10T10634   1.141   6.475   5.750 -1.7239 -2.2049  1.3660
  105OSM   C11S10635   1.303   6.368   5.647 -0.4934  0.5470  0.0852
  105OSM   H11S10636   1.245   6.332   5.559  0.9054 -2.3087  0.2062
  105OSM   H11T10637   1.369   6.284   5.679  0.1128  0.5055 -1.2021
  105OSM   C12S10638   1.402   6.480   5.610  0.4309  0.3719 -0.7584
  105OSM   H12S10639   1.464   6.514   5.695  0.1231 -0.8045 -0.0506
  105OSM   H12T10640   1.354   6.574   5.576  1.8294  1.2836 -0.3180
  105OSM   C13S10641   1.504   6.433   5.505 -0.4064  0.6092  0.5329
  105OSM   H13S10642   1.446   6.419   5.411  1.5229  0.6011 -0.7020
  105OSM   H13T10643   1.554   6.338   5.534 -1.2116 -0.0754 -0.2370
  105OSM   C14S10644   1.615   6.531   5.471 -0.3151  0.3445 -0.3372
  105OSM   H14S10645   1.686   6.526   5.557 -2.4324 -0.3803  1.4626
  105OSM   H14T10646   1.577   6.635   5.461  0.8384  1.1027  2.3665
  105OSM   C15S10647   1.681   6.495   5.341  0.0672  0.4058 -0.4539
  105OSM   H15S10648   1.602   6.479   5.265  0.9036 -3.8747 -0.6762
  105OSM   H15T10649   1.722   6.395   5.364  1.6051  1.4907  1.9762
  105OSM   C16S10650   1.788   6.600   5.306  0.5241  0.3333  0.2854
  105OSM   H16S10651   1.856   6.603   5.394  1.0101  2.6546 -0.1073
  105OSM   H16T10652   1.743   6.701   5.307  0.1769  0.2386  3.6120
  105OSM   C17S10653   1.852   6.571   5.168 -0.3449 -0.7519 -0.0953
  105OSM   H17S10654   1.937   6.643   5.161 -1.6563  1.0247  1.4941
  105OSM   H17T10655   1.780   6.589   5.085 -1.7491  0.0896  1.2760
  105OSM   C18S10656   1.903   6.426   5.157  0.2837  0.6331 -0.3880
  105OSM   H18S10657   1.993   6.414   5.094  2.4580  0.4767  2.5326
  105OSM   H18T10658   1.816   6.374   5.113 -1.9624  1.3116  2.8769
  105OSM   H18U10659   1.934   6.390   5.257 -1.9312 -2.0750 -0.5540
  105OSM    C1F10660   1.269   5.847   6.322 -0.9536  0.3135  0.1693
  105OSM     OF10661   1.219   5.761   6.401 -0.4478  0.0340 -0.3485
  105OSM    C2F10662   1.365   5.797   6.213 -0.4040  1.0716 -0.1552
  105OSM    H2F10663   1.436   5.724   6.257 -0.0310  2.5223  1.7994
  105OSM    H2G10664   1.431   5.882   6.183  1.9170 -0.5219  0.1911
  105OSM    C3F10665   1.291   5.734   6.092  0.5022 -1.0077  0.1736
  105OSM    H3F10666   1.250   5.635   6.121 -1.2198 -0.9545 -1.8972
  105OSM    H3G10667   1.361   5.721   6.007  0.3614 -1.7497  0.1685
  105OSM    C4F10668   1.174   5.817   6.044 -0.1675  0.5012 -0.0952
  105OSM    H4F10669   1.199   5.917   6.002 -0.3523 -0.3086 -2.2653
  105OSM    H4G10670   1.106   5.853   6.125  1.3873  1.5343  0.8025
  105OSM    C5F10671   1.094   5.734   5.943 -0.4187 -0.0560 -0.0846
  105OSM    H5F10672   1.042   5.651   5.995  2.3126 -0.7332  1.7867
  105OSM    H5G10673   1.163   5.692   5.866 -1.1748  0.8774 -1.3004
  105OSM    C6F10674   0.986   5.822   5.875  0.1375  0.1327 -0.4206
  105OSM    H6F10675   1.023   5.924   5.851  1.8400  0.2414  2.2835
  105OSM    H6G10676   0.907   5.840   5.951  1.6508  1.0405  1.0156
  105OSM    C7F10677   0.919   5.757   5.754 -0.6432 -0.1751  0.2098
  105OSM    H7F10678   0.859   5.675   5.801  0.1409  0.1066  1.7890
  105OSM    H7G10679   0.995   5.714   5.685 -0.6302 -0.1522  0.2099
  105OSM    C8F10680   0.825   5.856   5.692  0.0566  0.3639 -0.3307
  105OSM    H8F10681   0.768   5.913   5.769 -2.2321  0.6992 -2.1447
  105OSM    H8G10682   0.746   5.797   5.640  0.6847 -1.2350  0.4659
  105OSM    C9F10683   0.888   5.965   5.600  0.1001 -0.3405  0.0183
  105OSM    H9F10684   0.887   6.062   5.652 -1.3225 -1.5696  2.4574
  105OSM   C10F10685   0.931   5.944   5.476 -0.6112 -0.0619 -0.5569
  105OSM   H10F10686   0.974   6.025   5.416 -2.4488  0.0509 -1.8248
  105OSM   C11F10687   0.928   5.814   5.400 -0.3919  0.2358  0.1064
  105OSM   H11F10688   0.844   5.742   5.418 -1.7437  1.7035 -0.1333
  105OSM   H11G10689   1.018   5.759   5.433 -0.3950  0.8617  1.1883
  105OSM   C12F10690   0.942   5.818   5.244  0.3087 -0.3721 -0.2436
  105OSM   H12F10691   0.942   5.713   5.207  0.5036 -0.5624  0.2850
  105OSM   H12G10692   1.037   5.864   5.210 -0.7836  2.0938 -0.1357
  105OSM   C13F10693   0.828   5.902   5.183 -0.2302 -0.2901  0.3382
  105OSM   H13F10694   0.821   6.005   5.226 -0.4939 -0.4744  0.7413
  105OSM   H13G10695   0.732   5.856   5.214  0.3999 -1.3031  0.8262
  105OSM   C14F10696   0.852   5.918   5.034  0.2955  0.1569  0.3088
  105OSM   H14F10697   0.844   5.822   4.979 -0.9995  1.1615 -1.3734
  105OSM   H14G10698   0.961   5.938   5.034  0.2827  0.2276  0.9074
  105OSM   C15F10699   0.770   6.022   4.961  0.0667 -0.0723  0.3290
  105OSM   H15F10700   0.767   6.121   5.012 -0.8830 -1.3456  2.8834
  105OSM   H15G10701   0.661   6.006   4.967 -0.2248  1.7973  0.5586
  105OSM   C16F10702   0.810   6.041   4.816  0.4525  0.9104  0.2842
  105OSM   H16F10703   0.752   6.124   4.771 -0.4255 -0.1724 -0.6533
  105OSM   H16G10704   0.781   5.950   4.758  2.4225 -0.2753  1.0611
  105OSM   C17F10705   0.957   6.071   4.796 -0.9516 -0.2259 -0.5010
  105OSM   H17F10706   0.987   6.088   4.691  2.5261 -3.3960 -0.2155
  105OSM   H17G10707   1.022   5.986   4.824 -0.2405  0.2015 -0.8316
  105OSM   C18F10708   1.006   6.197   4.883 -0.2879  0.9687  0.3014
  105OSM   H18F10709   1.023   6.181   4.992  0.4756  1.7790  0.3122
  105OSM   H18G10710   0.930   6.278   4.872 -1.1679 -0.1500 -3.2696
  105OSM   H18H10711   1.102   6.227   4.838 -0.9946  0.9301 -1.3055
  106OSM      N10712   1.136   3.422   7.079  0.1033 -0.0754  0.0643
  106OSM    C1510713   1.203   3.538   7.146 -0.1634 -0.5244 -0.7746
  106OSM   H15A10714   1.310   3.539   7.135  0.2388 -1.0208  2.1572
  106OSM   H15B10715   1.165   3.543   7.247 -2.0578  2.0451 -1.5172
  106OSM   H15C10716   1.165   3.627   7.098 -1.5442  0.2394  1.5710
  106OSM    C1410717   1.187   3.296   7.138  0.0651 -0.3062  0.8899
  106OSM   H14A10718   1.294   3.298   7.154 -0.2682  1.7919  3.5896
  106OSM   H14B10719   1.182   3.213   7.070  2.4122  1.1900 -1.3081
  106OSM   H14C10720   1.136   3.278   7.231 -0.1159  0.7677  1.0176
  106OSM    C1310721   0.989   3.439   7.115 -0.4740 -0.0361  0.1772
  106OSM   H13A10722   0.943   3.350   7.074  0.7053 -2.2326  3.2411
  106OSM   H13B10723   0.953   3.529   7.067 -0.9556 -1.1153 -1.5877
  106OSM   H13C10724   0.976   3.447   7.221 -0.5042 -0.8231  0.2397
  106OSM    C1210725   1.157   3.430   6.925 -0.2158  0.0208 -0.0449
  106OSM   H12A10726   1.147   3.335   6.875 -1.1587  0.8596 -1.5193
  106OSM   H12B10727   1.256   3.468   6.908  0.6017 -1.7663  0.5367
  106OSM    C1110728   1.059   3.521   6.846 -0.1200 -0.5458 -0.0678
  106OSM   H11A10729   0.956   3.484   6.861 -0.4217  1.3836  4.1776
  106OSM   H11B10730   1.083   3.520   6.737  1.4643  1.1211  0.2177
  106OSM      P10731   1.181   3.756   6.847  0.3726 -0.2879 -0.0944
  106OSM    O1310732   1.166   3.890   6.917 -0.2372  0.9428  0.0633
  106OSM    O1410733   1.312   3.690   6.861 -0.2717  0.2010  0.4810
  106OSM    O1110734   1.153   3.768   6.693  0.4683 -0.0787 -0.0628
  106OSM    O1210735   1.067   3.652   6.895 -0.6685  0.1247  0.8045
  106OSM    C1S10736   1.190   3.896   6.635 -0.2906  0.1152  1.1543
  106OSM    H1S10737   1.296   3.917   6.660  0.3045  0.0653 -1.0585
  106OSM    H1T10738   1.127   3.983   6.665 -0.1421  0.1535  1.3531
  106OSM     NF10739   1.208   4.002   6.419  0.3732  0.2626  0.3670
  106OSM    HNF10740   1.147   4.054   6.360  0.5031 -0.4992 -0.4621
  106OSM    C2S10741   1.153   3.884   6.490  0.1583 -0.9690  1.0024
  106OSM    H2S10742   1.210   3.798   6.450  0.2661 -0.9018  1.0114
  106OSM    C3S10743   0.994   3.854   6.471  0.5315  0.5431  0.0740
  106OSM    H3S10744   0.953   3.938   6.532  0.7236  1.0295 -0.4522
  106OSM     O310745   0.942   3.738   6.536 -0.6260  0.0431  0.4870
  106OSM    HO310746   1.015   3.708   6.590 -0.8439 -2.9873 -0.7106
  106OSM    C4S10747   0.953   3.870   6.324  0.2384 -0.3383 -0.5797
  106OSM    H4S10748   0.919   3.973   6.306  1.0148 -0.1948 -1.2574
  106OSM    C5S10749   0.954   3.771   6.234 -0.1532 -0.0158 -0.3285
  106OSM    H5S10750   0.992   3.670   6.257  0.0266 -0.0174 -0.6197
  106OSM    C6S10751   0.911   3.789   6.097  0.4130  0.2088  0.4636
  106OSM    H6S10752   0.838   3.706   6.086  0.6391 -0.0776  1.0265
  106OSM    H6T10753   0.990   3.766   6.022 -0.4780 -0.7495 -0.1996
  106OSM    C7S10754   0.834   3.917   6.061 -0.3984  0.3872 -0.0233
  106OSM    H7S10755   0.906   4.002   6.063 -0.1062  0.1392 -0.0135
  106OSM    H7T10756   0.754   3.927   6.137 -3.5712  1.3404 -3.1942
  106OSM    C8S10757   0.767   3.917   5.928  0.2113 -0.0507  0.5247
  106OSM    H8S10758   0.681   3.847   5.928  0.1848 -0.0208 -0.1037
  106OSM    H8T10759   0.842   3.893   5.850  0.1057  1.2491 -0.0001
  106OSM    C9S10760   0.716   4.058   5.890 -0.3906 -0.2019 -0.1434
  106OSM    H9S10761   0.805   4.123   5.877 -0.0235 -0.5406  0.6294
  106OSM    H9T10762   0.655   4.097   5.974 -1.1415 -0.9230 -0.3424
  106OSM   C10S10763   0.639   4.051   5.763 -0.6870  1.3104  0.6484
  106OSM   H10S10764   0.557   3.977   5.776  1.4697 -1.1548  1.0162
  106OSM   H10T10765   0.702   4.002   5.686 -1.7226  0.2345  0.4616
  106OSM   C11S10766   0.572   4.178   5.712 -0.2745 -0.4891 -0.4086
  106OSM   H11S10767   0.653   4.242   5.671 -0.7511 -0.2997 -1.0732
  106OSM   H11T10768   0.516   4.220   5.798 -1.0193  0.7808 -1.4851
  106OSM   C12S10769   0.472   4.156   5.597  0.4183 -0.7447  0.1368
  106OSM   H12S10770   0.378   4.110   5.634 -0.0958 -0.2872 -0.5767
  106OSM   H12T10771   0.507   4.081   5.524  0.6079  0.1530 -0.7141
  106OSM   C13S10772   0.438   4.284   5.508  0.6947 -0.3345 -0.7993
  106OSM   H13S10773   0.535   4.315   5.463  0.9362 -0.8014 -0.5955
  106OSM   H13T10774   0.389   4.366   5.565 -1.6273  0.1378 -3.2548
  106OSM   C14S10775   0.347   4.244   5.391  0.0342  0.2395 -0.3840
  106OSM   H14S10776   0.250   4.221   5.439 -0.0827  1.0473 -0.2130
  106OSM   H14T10777   0.389   4.152   5.345  0.4612 -0.1755  0.7934
  106OSM   C15S10778   0.321   4.362   5.308 -0.4006 -0.1269 -0.3804
  106OSM   H15S10779   0.312   4.457   5.366  1.7331 -1.0764  1.6794
  106OSM   H15T10780   0.222   4.334   5.265 -0.3066  0.8215 -1.2527
  106OSM   C16S10781   0.416   4.379   5.191  0.1908 -0.1943  0.1793
  106OSM   H16S10782   0.448   4.280   5.152 -1.1874  0.1142 -1.9517
  106OSM   H16T10783   0.505   4.424   5.239  0.8100  0.9254 -1.8986
  106OSM   C17S10784   0.350   4.470   5.084  0.7320  0.3872 -0.1069
  106OSM   H17S10785   0.299   4.549   5.143  1.1879  0.4013  0.2818
  106OSM   H17T10786   0.279   4.410   5.023 -1.6789  2.0787  0.8990
  106OSM   C18S10787   0.456   4.536   5.005  0.1271 -0.0087  0.3375
  106OSM   H18S10788   0.535   4.577   5.071  0.2755  0.1670  0.0502
  106OSM   H18T10789   0.398   4.612   4.949  2.6215  1.6903 -0.1236
  106OSM   H18U10790   0.500   4.465   4.932 -1.8128  1.1596 -2.1157
  106OSM    C1F10791   1.337   4.027   6.404 -0.4722 -0.5863  0.0985
  106OSM     OF10792   1.430   3.946   6.432  0.4570 -0.0855 -0.0627
  106OSM    C2F10793   1.377   4.156   6.344 -0.6400 -0.8536  0.2032
  106OSM    H2F10794   1.478   4.189   6.378 -0.3163  0.6493 -2.0306
  106OSM    H2G10795   1.302   4.233   6.371 -0.2176 -1.6105  4.1697
  106OSM    C3F10796   1.396   4.131   6.190  0.3127  0.2693  0.5391
  106OSM    H3F10797   1.471   4.050   6.179 -1.5740 -1.2606 -2.5588
  106OSM    H3G10798   1.437   4.231   6.164  0.8075  0.3472  1.5963
  106OSM    C4F10799   1.257   4.110   6.116  0.2852 -0.6871  0.5366
  106OSM    H4F10800   1.199   4.201   6.145  2.1666  0.1406  1.9001
  106OSM    H4G10801   1.215   4.009   6.131  0.2993 -0.8905 -0.6863
  106OSM    C5F10802   1.263   4.115   5.964 -0.2600 -0.1234 -0.4847
  106OSM    H5F10803   1.341   4.043   5.932  0.6436 -0.1754  1.6644
  106OSM    H5G10804   1.293   4.215   5.925 -1.6860  0.8246  0.7064
  106OSM    C6F10805   1.126   4.078   5.903  0.9620  0.0898  0.2179
  106OSM    H6F10806   1.047   4.149   5.933  1.0314  0.6695 -0.9201
  106OSM    H6G10807   1.097   3.976   5.936  0.6960  0.0833 -0.0355
  106OSM    C7F10808   1.129   4.091   5.751 -0.1253 -0.6559  0.1896
  106OSM    H7F10809   1.172   4.191   5.728 -3.4222  0.6382 -1.0448
  106OSM    H7G10810   1.026   4.095   5.710 -0.2399  0.9125  0.5594
  106OSM    C8F10811   1.194   3.990   5.655 -0.6178  0.5638  0.0141
  106OSM    H8F10812   1.297   3.966   5.690  0.3692 -0.3555 -3.2129
  106OSM    H8G10813   1.202   4.027   5.551 -0.0547 -2.9596 -1.3390
  106OSM    C9F10814   1.111   3.861   5.648 -0.2663 -0.1946  0.2937
  106OSM    H9F10815   1.097   3.832   5.753  0.6519 -0.8691  0.2410
  106OSM   C10F10816   1.036   3.819   5.544  0.0868  0.0321  0.2280
  106OSM   H10F10817   0.965   3.738   5.566 -2.7300  2.3017  0.2412
  106OSM   C11F10818   1.047   3.867   5.402  0.3749 -0.0598 -0.5379
  106OSM   H11F10819   1.151   3.896   5.377  0.1575  0.5047 -0.7930
  106OSM   H11G10820   0.988   3.959   5.378 -3.3519 -1.9330  0.5945
  106OSM   C12F10821   1.016   3.750   5.310  0.3954 -0.5206  0.0564
  106OSM   H12F10822   0.912   3.716   5.331  0.3704 -0.2734  0.3542
  106OSM   H12G10823   1.082   3.662   5.327 -0.4127 -1.1859 -0.1885
  106OSM   C13F10824   1.028   3.788   5.169 -0.3377  0.3045 -0.2234
  106OSM   H13F10825   1.129   3.825   5.138 -0.1963 -0.2800 -0.4686
  106OSM   H13G10826   0.959   3.875   5.159 -0.3402  0.4639  1.0771
  106OSM   C14F10827   0.990   3.679   5.068  0.4319 -0.4712  0.5397
  106OSM   H14F10828   0.887   3.655   5.102  0.4160  0.9759  1.6428
  106OSM   H14G10829   1.060   3.595   5.083  1.5911  0.6620  1.7505
  106OSM   C15F10830   0.989   3.734   4.925 -0.0490 -0.0573 -0.8135
  106OSM   H15F10831   1.095   3.753   4.900  0.7468 -1.8278  0.9809
  106OSM   H15G10832   0.934   3.830   4.934 -2.3127 -1.4213  0.9304
  106OSM   C16F10833   0.922   3.630   4.829 -0.2295 -0.4413 -0.6070
  106OSM   H16F10834   0.815   3.638   4.858  0.3704  0.7658  1.4879
  106OSM   H16G10835   0.964   3.529   4.848 -0.0371 -0.6527 -2.0723
  106OSM   C17F10836   0.959   3.668   4.684  0.3755  0.4636  0.4976
  106OSM   H17F10837   0.937   3.590   4.607  0.0269 -0.2382  1.2881
  106OSM   H17G10838   1.067   3.689   4.680  0.7439 -1.3448 -0.2702
  106OSM   C18F10839   0.895   3.800   4.635  0.2252 -0.2533  0.4713
  106OSM   H18F10840   0.785   3.787   4.644  0.1151  0.3951  0.0667
  106OSM   H18G10841   0.924   3.817   4.529 -1.9126  0.8596  0.0203
  106OSM   H18H10842   0.918   3.890   4.696  1.0253  0.1128 -0.3428
  107OSM      N10843   5.071   2.590   6.943  0.3988 -0.0510  0.5277
  107OSM    C1510844   5.002   2.692   7.035  0.0506 -0.1637 -0.0566
  107OSM   H15A10845   4.969   2.654   7.130 -0.7588  1.0304  0.1614
  107OSM   H15B10846   4.915   2.731   6.983 -1.3728  0.7064  2.7785
  107OSM   H15C10847   5.069   2.775   7.051 -0.3792 -0.2761  2.8027
  107OSM    C1410848   5.198   2.555   7.006 -0.9132 -0.4913 -0.4861
  107OSM   H14A10849   5.262   2.641   7.001 -1.8867  0.2763 -0.0644
  107OSM   H14B10850   5.249   2.471   6.960 -0.3737 -0.7751  0.6165
  107OSM   H14C10851   5.182   2.532   7.110  2.1016  0.0969  0.1760
  107OSM    C1310852   4.979   2.469   6.929 -0.3511 -0.4464  0.1840
  107OSM   H13A10853   4.956   2.422   7.023 -0.8017 -2.2716 -0.7955
  107OSM   H13B10854   5.026   2.395   6.866 -0.0676  0.3085 -0.5078
  107OSM   H13C10855   4.886   2.493   6.880  0.1827  1.8756  0.2198
  107OSM    C1210856   5.095   2.657   6.810  0.1853  0.2954 -1.0319
  107OSM   H12A10857   5.189   2.708   6.820  0.8248 -1.2004  1.6427
  107OSM   H12B10858   5.021   2.734   6.797 -0.5111 -0.2220 -0.2604
  107OSM    C1110859   5.112   2.573   6.686  0.4756  0.0608  1.0485
  107OSM   H11A10860   5.147   2.643   6.607 -0.9762 -0.4784 -0.1221
  107OSM   H11B10861   5.011   2.534   6.661  0.5759  0.8346 -0.7284
  107OSM      P10862   5.356   2.486   6.686 -0.5563  0.1967  0.1072
  107OSM    O1310863   5.391   2.626   6.687 -0.1718 -0.2576  1.0147
  107OSM    O1410864   5.436   2.395   6.778  0.3690 -0.0967  0.1604
  107OSM    O1110865   5.385   2.433   6.544 -0.6829  0.2668  0.2632
  107OSM    O1210866   5.202   2.456   6.704  0.3939  0.8091 -0.5457
  107OSM    C1S10867   5.493   2.460   6.453  0.4830 -0.2186  0.2449
  107OSM    H1S10868   5.581   2.394   6.468 -0.4324 -2.3204 -2.7850
  107OSM    H1T10869   5.522   2.567   6.467 -2.8334  0.6387  1.5915
  107OSM     NF10870   5.566   2.491   6.217  0.7758  0.4038  1.0570
  107OSM    HNF10871   5.552   2.575   6.166  0.6979  0.4660  1.1801
  107OSM    C2S10872   5.456   2.448   6.298 -0.2162  0.1400  0.1757
  107OSM    H2S10873   5.441   2.340   6.280 -0.9076  0.0570  1.1594
  107OSM    C3S10874   5.330   2.529   6.269  0.1457 -0.4063  0.1229
  107OSM    H3S10875   5.372   2.631   6.287  1.8400 -0.9323 -0.6828
  107OSM     O310876   5.216   2.524   6.354 -0.6646  0.0551 -0.4449
  107OSM    HO310877   5.254   2.490   6.435 -1.0293 -0.9014 -0.6585
  107OSM    C4S10878   5.286   2.496   6.130 -0.3236 -0.0902  0.0367
  107OSM    H4S10879   5.342   2.547   6.051 -1.8206 -0.1537 -1.1095
  107OSM    C5S10880   5.173   2.437   6.083 -0.1036 -0.9167 -0.1536
  107OSM    H5S10881   5.097   2.409   6.158 -0.3447  0.0169 -0.0310
  107OSM    C6S10882   5.127   2.442   5.937  0.2287  0.1805 -0.6217
  107OSM    H6S10883   5.106   2.339   5.903  2.6555  0.0129 -1.8147
  107OSM    H6T10884   5.198   2.493   5.869 -1.7901  4.1690 -0.0384
  107OSM    C7S10885   4.997   2.526   5.920  0.1452 -0.6920  0.8003
  107OSM    H7S10886   5.016   2.633   5.939  2.0069 -0.3989 -2.0971
  107OSM    H7T10887   4.914   2.485   5.982 -2.1160 -0.2099 -1.7171
  107OSM    C8S10888   4.947   2.521   5.773 -0.2616 -0.0696  0.2510
  107OSM    H8S10889   4.842   2.556   5.763 -0.5597 -0.5046  1.6487
  107OSM    H8T10890   4.935   2.413   5.748  0.0763 -1.0994  3.9653
  107OSM    C9S10891   5.032   2.601   5.672  0.3882  0.1415  0.0666
  107OSM    H9S10892   5.133   2.555   5.671  0.4353  0.1760 -2.2850
  107OSM    H9T10893   5.038   2.703   5.716 -1.8185 -0.3300  1.6342
  107OSM   C10S10894   4.988   2.602   5.528  0.3174 -0.2288 -0.5437
  107OSM   H10S10895   4.890   2.654   5.542 -0.0530 -1.0421 -0.0351
  107OSM   H10T10896   4.971   2.501   5.486  2.2960 -0.7985 -0.0603
  107OSM   C11S10897   5.078   2.686   5.433 -0.6783 -0.6610 -0.0708
  107OSM   H11S10898   5.167   2.624   5.407 -0.1630  0.2215 -0.4388
  107OSM   H11T10899   5.111   2.779   5.483 -2.5799 -0.1574  0.3156
  107OSM   C12S10900   5.011   2.716   5.298  0.2672  0.1259  0.2496
  107OSM   H12S10901   4.924   2.782   5.319  0.8849  0.7486  0.9167
  107OSM   H12T10902   4.984   2.617   5.256 -0.1218  0.0096  0.7654
  107OSM   C13S10903   5.105   2.782   5.198  0.1815  0.3382 -0.0563
  107OSM   H13S10904   5.203   2.731   5.188  0.1897 -0.6761  3.7872
  107OSM   H13T10905   5.113   2.889   5.229  1.6429  0.6360 -1.3342
  107OSM   C14S10906   5.026   2.779   5.063 -0.2991 -0.0435  0.2126
  107OSM   H14S10907   4.925   2.815   5.094  0.4325  2.7255 -0.3306
  107OSM   H14T10908   5.027   2.675   5.024 -0.0747 -0.2231  0.6966
  107OSM   C15S10909   5.077   2.864   4.947 -0.0782 -0.0271  0.2392
  107OSM   H15S10910   5.179   2.824   4.929 -0.3619 -2.6135  3.5136
  107OSM   H15T10911   5.072   2.967   4.989 -2.6458 -1.2854  3.4730
  107OSM   C16S10912   4.991   2.862   4.826  0.8156  0.9068 -0.5259
  107OSM   H16S10913   4.897   2.917   4.847 -1.7778 -3.8617  1.9253
  107OSM   H16T10914   4.967   2.758   4.797  0.7567  1.0259 -0.9019
  107OSM   C17S10915   5.057   2.917   4.696  0.2458  0.0782 -0.3723
  107OSM   H17S10916   5.116   3.008   4.720 -0.4573  0.3679  0.3003
  107OSM   H17T10917   4.980   2.954   4.624  2.1498  0.0065 -2.5501
  107OSM   C18S10918   5.147   2.812   4.634  0.1086  0.4113 -0.2300
  107OSM   H18S10919   5.095   2.722   4.595  2.4402 -0.2536 -2.1186
  107OSM   H18T10920   5.222   2.772   4.705 -0.8770 -2.9202 -0.8807
  107OSM   H18U10921   5.201   2.870   4.555  0.5769  1.6090  0.9302
  107OSM    C1F10922   5.677   2.431   6.198  0.0244 -0.6012 -0.0058
  107OSM     OF10923   5.712   2.336   6.274  0.0401  0.1859 -0.0785
  107OSM    C2F10924   5.767   2.486   6.087  0.3235  0.1028 -0.8163
  107OSM    H2F10925   5.856   2.534   6.133  0.7878 -0.2504 -1.3234
  107OSM    H2G10926   5.703   2.559   6.032 -1.3984  0.5884  1.6946
  107OSM    C3F10927   5.815   2.374   6.005 -0.4072 -0.0429 -0.4964
  107OSM    H3F10928   5.888   2.317   6.067 -0.1437 -0.5565 -1.2702
  107OSM    H3G10929   5.873   2.412   5.919  3.5423 -1.7126  1.1611
  107OSM    C4F10930   5.712   2.271   5.960  0.3880 -0.6881 -0.2944
  107OSM    H4F10931   5.648   2.232   6.042  0.9667  0.4703  0.7369
  107OSM    H4G10932   5.768   2.185   5.918 -0.9137 -1.8225  0.2184
  107OSM    C5F10933   5.620   2.328   5.850  0.5404 -0.0475  0.1089
  107OSM    H5F10934   5.674   2.360   5.759 -1.0520  0.4974 -0.6768
  107OSM    H5G10935   5.573   2.421   5.887 -0.7088 -1.5277  2.5560
  107OSM    C6F10936   5.508   2.242   5.807 -0.1983 -0.9164 -0.1109
  107OSM    H6F10937   5.459   2.178   5.884  0.9372 -2.3415 -0.5410
  107OSM    H6G10938   5.561   2.174   5.737 -1.6496 -1.5446 -0.6408
  107OSM    C7F10939   5.411   2.315   5.714 -0.3110  0.3050 -0.8967
  107OSM    H7F10940   5.464   2.400   5.666 -0.5001  0.4876 -0.7846
  107OSM    H7G10941   5.329   2.365   5.769  0.4922 -1.0496  1.6744
  107OSM    C8F10942   5.349   2.218   5.606 -0.1354 -0.5370 -0.5140
  107OSM    H8F10943   5.284   2.145   5.659  0.4800 -1.2173 -0.6842
  107OSM    H8G10944   5.427   2.163   5.550 -0.0112  0.4824 -1.3703
  107OSM    C9F10945   5.258   2.290   5.504 -0.0348  0.5508 -0.3699
  107OSM    H9F10946   5.151   2.264   5.501  0.2242 -0.4990 -1.5198
  107OSM   C10F10947   5.293   2.382   5.416 -0.1382 -0.0081  0.0268
  107OSM   H10F10948   5.221   2.417   5.340 -0.0408 -0.1402 -0.1256
  107OSM   C11F10949   5.436   2.431   5.387 -0.2151 -0.9298  0.5837
  107OSM   H11F10950   5.488   2.452   5.483  0.6365 -0.2784  0.0055
  107OSM   H11G10951   5.436   2.530   5.335  1.0069  0.1753  2.5529
  107OSM   C12F10952   5.513   2.341   5.299 -0.3669  0.5742  0.0013
  107OSM   H12F10953   5.533   2.244   5.349 -0.8181  1.4197  1.9114
  107OSM   H12G10954   5.614   2.385   5.283 -0.6407  1.3834  0.4609
  107OSM   C13F10955   5.458   2.332   5.159 -0.1967 -0.2662 -0.2344
  107OSM   H13F10956   5.441   2.438   5.132  0.4912 -0.1434 -0.1994
  107OSM   H13G10957   5.356   2.287   5.161 -0.6348  0.6385  2.8026
  107OSM   C14F10958   5.552   2.269   5.061  0.3644  0.4966  0.3555
  107OSM   H14F10959   5.573   2.170   5.107 -2.4694  0.2884  1.3542
  107OSM   H14G10960   5.652   2.310   5.033 -0.8529  2.0383 -2.0249
  107OSM   C15F10961   5.498   2.248   4.919 -0.3009  0.1258 -0.2617
  107OSM   H15F10962   5.459   2.144   4.909 -1.6002  0.6353 -0.7528
  107OSM   H15G10963   5.580   2.257   4.845  1.8133 -2.3975  1.5725
  107OSM   C16F10964   5.382   2.338   4.872 -0.2842  0.0559  0.0087
  107OSM   H16F10965   5.419   2.442   4.877  0.1731 -0.0550 -0.8112
  107OSM   H16G10966   5.286   2.325   4.925  0.6579  0.3427  1.8591
  107OSM   C17F10967   5.349   2.311   4.723  0.9054  0.1708  0.2114
  107OSM   H17F10968   5.305   2.209   4.717  1.9363 -0.4295  2.2343
  107OSM   H17G10969   5.432   2.326   4.651 -1.0705  1.1289 -2.0333
  107OSM   C18F10970   5.241   2.410   4.663 -0.2493 -0.0746  0.5485
  107OSM   H18F10971   5.276   2.514   4.644  0.7860 -0.7100 -1.2821
  107OSM   H18G10972   5.148   2.423   4.722 -0.4146  1.8148 -0.0332
  107OSM   H18H10973   5.208   2.365   4.567  0.1478  0.2593  0.2475
  108OSM      N10974   3.769   1.570   6.931  0.2317  0.4588 -0.6957
  108OSM    C1510975   3.843   1.522   7.054 -0.0272  0.2541 -0.2281
  108OSM   H15A10976   3.894   1.427   7.041  1.0944  0.4174  2.4137
  108OSM   H15B10977   3.782   1.513   7.142 -1.1397  2.1883 -0.7511
  108OSM   H15C10978   3.932   1.581   7.065  0.6345 -0.4137 -1.6970
  108OSM    C1410979   3.740   1.715   6.942 -0.5869 -0.4953 -0.2654
  108OSM   H14A10980   3.673   1.745   7.021 -0.2568  2.5588 -0.9998
  108OSM   H14B10981   3.682   1.746   6.856 -2.1424 -0.4970  0.7313
  108OSM   H14C10982   3.830   1.773   6.954 -0.7883 -0.2419  0.0371
  108OSM    C1310983   3.861   1.549   6.804 -0.2991 -0.4064 -1.0806
  108OSM   H13A10984   3.884   1.445   6.790  1.8671 -0.1216 -0.0878
  108OSM   H13B10985   3.953   1.594   6.837 -1.6454  1.5237  0.2652
  108OSM   H13C10986   3.824   1.601   6.717 -1.5050 -0.2153 -0.4757
  108OSM    C1210987   3.643   1.485   6.913 -0.4094  0.3305 -0.1556
  108OSM   H12A10988   3.587   1.503   7.003  1.5558  2.0082  0.8055
  108OSM   H12B10989   3.665   1.380   6.912 -0.6854  0.1709  2.9365
  108OSM    C1110990   3.553   1.510   6.785  0.6955 -0.7542 -0.2277
  108OSM   H11A10991   3.490   1.419   6.781  0.0520 -0.5117  2.5411
  108OSM   H11B10992   3.610   1.510   6.689 -0.4134 -0.4462 -0.9112
  108OSM      P10993   3.366   1.650   6.906 -0.0542  0.2580 -0.0646
  108OSM    O1310994   3.413   1.595   7.038  0.2177 -0.4499  1.0737
  108OSM    O1410995   3.316   1.787   6.903  0.1058  0.0566  0.0895
  108OSM    O1110996   3.246   1.554   6.856 -0.7620 -0.1570  0.1140
  108OSM    O1210997   3.482   1.632   6.796 -0.1691  0.2930  0.4984
  108OSM    C1S10998   3.208   1.573   6.717  0.2583  0.7751  0.1922
  108OSM    H1S10999   3.245   1.666   6.668  1.6425 -0.2697 -0.8371
  108OSM    H1T11000   3.097   1.574   6.714  0.2597 -0.3972 -1.6139
  108OSM     NF11001   3.186   1.489   6.478  0.2814 -0.3445 -0.0024
  108OSM    HNF11002   3.109   1.435   6.444  0.0865  1.8269 -3.5749
  108OSM    C2S11003   3.239   1.453   6.613 -1.0590 -0.3500  0.0619
  108OSM    H2S11004   3.346   1.454   6.584 -1.0214 -0.3785  0.1998
  108OSM    C3S11005   3.213   1.313   6.670  0.1139 -1.0456 -0.6283
  108OSM    H3S11006   3.106   1.319   6.699 -0.4199  1.8760 -2.7596
  108OSM     O311007   3.280   1.293   6.789  0.4006 -0.5509 -0.3407
  108OSM    HO311008   3.301   1.378   6.828  0.0509 -0.6172 -0.0020
  108OSM    C4S11009   3.240   1.210   6.563 -0.3986 -0.1282 -0.5175
  108OSM    H4S11010   3.156   1.169   6.505 -1.0719  0.4442  0.0394
  108OSM    C5S11011   3.356   1.156   6.553  0.1171  0.2347 -0.7482
  108OSM    H5S11012   3.427   1.184   6.632 -0.7331 -0.4083  0.2848
  108OSM    C6S11013   3.409   1.042   6.462  0.0743 -0.4586 -0.3152
  108OSM    H6S11014   3.432   0.954   6.525  1.6264  0.2794  0.2166
  108OSM    H6T11015   3.510   1.054   6.417 -0.3716 -0.1369 -1.2665
  108OSM    C7S11016   3.313   0.994   6.350  0.1924 -0.6470 -0.0356
  108OSM    H7S11017   3.206   0.989   6.380  0.1343 -0.8534 -0.2707
  108OSM    H7T11018   3.343   0.891   6.321  1.0891 -0.0975 -1.1582
  108OSM    C8S11019   3.315   1.089   6.234  0.8476 -0.0113 -0.7295
  108OSM    H8S11020   3.412   1.069   6.182 -0.0194 -2.1594 -1.6629
  108OSM    H8T11021   3.319   1.191   6.279  2.4874 -0.0666 -0.6971
  108OSM    C9S11022   3.190   1.099   6.136  0.2631  0.2818 -0.2294
  108OSM    H9S11023   3.157   1.204   6.123  2.0766  1.1398  1.5027
  108OSM    H9T11024   3.109   1.039   6.183 -1.3651  2.7308  0.2902
  108OSM   C10S11025   3.229   1.038   6.001 -0.3536 -0.0612 -0.6291
  108OSM   H10S11026   3.148   0.976   5.957 -1.6901  1.7227 -0.7711
  108OSM   H10T11027   3.323   0.978   6.007 -0.5966 -0.3960 -0.0177
  108OSM   C11S11028   3.264   1.143   5.890  0.4542  0.0759  0.0330
  108OSM   H11S11029   3.354   1.193   5.932  1.4384 -1.0174 -0.7258
  108OSM   H11T11030   3.179   1.214   5.880  1.2097  1.0106  0.1086
  108OSM   C12S11031   3.302   1.089   5.752 -0.7289  0.9861  0.9055
  108OSM   H12S11032   3.225   1.023   5.708 -0.2377 -0.2113  1.8108
  108OSM   H12T11033   3.389   1.021   5.763 -1.3885  0.1590  1.0534
  108OSM   C13S11034   3.338   1.206   5.650 -0.2113  0.5319  0.3837
  108OSM   H13S11035   3.411   1.274   5.699 -1.0469  1.8593 -0.1617
  108OSM   H13T11036   3.246   1.264   5.627  0.1895  0.0831 -2.6699
  108OSM   C14S11037   3.406   1.150   5.518 -0.6898  0.8098  0.8559
  108OSM   H14S11038   3.339   1.070   5.480  0.0668  0.4862  0.1757
  108OSM   H14T11039   3.502   1.105   5.553 -0.4682  1.9486  1.7632
  108OSM   C15S11040   3.425   1.256   5.410  0.0622 -0.0428 -0.1539
  108OSM   H15S11041   3.473   1.209   5.322  1.3976  1.3160 -0.1860
  108OSM   H15T11042   3.499   1.334   5.438  1.2162 -0.7588 -1.1166
  108OSM   C16S11043   3.299   1.334   5.369  0.0011 -0.2169 -0.2975
  108OSM   H16S11044   3.289   1.437   5.409  0.2060 -0.6732  0.9598
  108OSM   H16T11045   3.216   1.266   5.397 -0.5160 -0.1669 -1.6106
  108OSM   C17S11046   3.299   1.356   5.217  0.7326 -0.5924  1.1036
  108OSM   H17S11047   3.199   1.396   5.186  2.1645  2.2532 -0.2412
  108OSM   H17T11048   3.300   1.264   5.155 -1.6832 -0.1562  0.2594
  108OSM   C18S11049   3.394   1.466   5.175 -0.1806 -0.0069 -0.5811
  108OSM   H18S11050   3.368   1.566   5.217 -1.8241 -0.5378 -0.2585
  108OSM   H18T11051   3.386   1.476   5.065  1.4430  1.1843 -0.6303
  108OSM   H18U11052   3.501   1.444   5.192 -0.1870  0.6869  0.4934
  108OSM    C1F11053   3.230   1.583   6.400  0.0639 -0.6629  0.4198
  108OSM     OF11054   3.330   1.644   6.437 -0.4155 -0.4322 -0.6239
  108OSM    C2F11055   3.156   1.605   6.273 -0.1200  0.6088 -0.2239
  108OSM    H2F11056   3.126   1.712   6.272 -1.2150  0.3270  0.6705
  108OSM    H2G11057   3.063   1.546   6.278 -0.8701  1.8748  1.7839
  108OSM    C3F11058   3.241   1.557   6.149 -0.3101 -0.1025  0.0934
  108OSM    H3F11059   3.253   1.447   6.157 -0.3966 -0.1143  0.0604
  108OSM    H3G11060   3.336   1.608   6.176 -0.5838  0.2345  0.4306
  108OSM    C4F11061   3.172   1.595   6.006 -1.2221  0.1070 -0.3562
  108OSM    H4F11062   3.130   1.697   6.020  0.1603  0.6575  0.0398
  108OSM    H4G11063   3.093   1.517   5.998 -1.7119  0.4962  0.6186
  108OSM    C5F11064   3.271   1.591   5.883  0.6469  0.2163  0.0762
  108OSM    H5F11065   3.217   1.613   5.789 -0.7944  0.5859  0.9629
  108OSM    H5G11066   3.312   1.488   5.887 -3.1511 -1.5285 -1.8044
  108OSM    C6F11067   3.397   1.684   5.896  0.7936  0.3147  0.3508
  108OSM    H6F11068   3.442   1.688   5.998  1.8757 -0.8131 -0.0533
  108OSM    H6G11069   3.376   1.792   5.881 -0.2723 -0.1123 -1.4046
  108OSM    C7F11070   3.506   1.652   5.800 -0.0287  0.6163 -0.0008
  108OSM    H7F11071   3.579   1.584   5.849 -1.1492 -0.1086  0.7095
  108OSM    H7G11072   3.571   1.742   5.794 -0.8831  1.2304 -0.0364
  108OSM    C8F11073   3.470   1.617   5.655 -0.6633  0.3319  0.3128
  108OSM    H8F11074   3.408   1.525   5.657  0.0331 -0.1354  1.3927
  108OSM    H8G11075   3.567   1.597   5.605 -0.2680 -1.5015  1.6890
  108OSM    C9F11076   3.395   1.717   5.571  0.0361 -0.2396  0.3362
  108OSM    H9F11077   3.289   1.727   5.599 -0.0224 -2.0203  0.8569
  108OSM   C10F11078   3.451   1.806   5.489 -0.2010 -0.7874 -0.8620
  108OSM   H10F11079   3.390   1.867   5.422  0.7851  0.6970 -0.4623
  108OSM   C11F11080   3.602   1.817   5.461  0.0880  0.1504 -0.0323
  108OSM   H11F11081   3.671   1.759   5.526  1.0709  0.6853 -0.5737
  108OSM   H11G11082   3.626   1.925   5.456 -1.0253  0.6484  3.2950
  108OSM   C12F11083   3.632   1.759   5.315 -0.0449 -0.0705  0.0248
  108OSM   H12F11084   3.604   1.652   5.315 -0.2439 -0.0228 -0.6328
  108OSM   H12G11085   3.742   1.766   5.304  0.1819 -3.7778 -1.1487
  108OSM   C13F11086   3.555   1.827   5.203  0.1755  0.3939 -0.6910
  108OSM   H13F11087   3.587   1.933   5.215  0.3554  0.3130 -0.4586
  108OSM   H13G11088   3.446   1.825   5.220  0.4112 -1.9681  1.0471
  108OSM   C14F11089   3.590   1.768   5.066  0.1309  0.4041 -0.5683
  108OSM   H14F11090   3.601   1.658   5.080  1.0045  0.7438  2.1707
  108OSM   H14G11091   3.686   1.818   5.042  0.3880 -0.3861 -1.2322
  108OSM   C15F11092   3.484   1.784   4.964  0.6882 -0.2508  0.1142
  108OSM   H15F11093   3.467   1.893   4.955 -0.3103 -0.2296  1.8153
  108OSM   H15G11094   3.384   1.741   4.986 -0.6585  1.0135 -2.9885
  108OSM   C16F11095   3.528   1.730   4.823 -0.1882  0.1197 -0.7531
  108OSM   H16F11096   3.581   1.637   4.854 -0.4285 -0.0406 -0.8268
  108OSM   H16G11097   3.601   1.800   4.776 -0.2552  1.5949  1.1963
  108OSM   C17F11098   3.409   1.682   4.733 -0.4138 -0.1760 -0.5657
  108OSM   H17F11099   3.363   1.586   4.766 -2.3795  1.4456  1.6784
  108OSM   H17G11100   3.450   1.673   4.630  0.3167 -0.1848 -0.2842
  108OSM   C18F11101   3.291   1.776   4.717 -0.0335 -0.5230 -0.1823
  108OSM   H18F11102   3.326   1.863   4.658  0.7753 -0.7186 -0.0045
  108OSM   H18G11103   3.258   1.803   4.819 -2.7953 -2.0273 -0.5893
  108OSM   H18H11104   3.204   1.728   4.668 -1.1994  0.6717  0.6683
  109OSM      N11105   0.156   4.200   6.757 -0.3058 -0.8062  0.0309
  109OSM    C1511106   0.104   4.312   6.845  0.2972  0.3283  0.8242
  109OSM   H15A11107   0.084   4.399   6.783 -0.0980  1.3870  2.3949
  109OSM   H15B11108   0.169   4.346   6.924  1.4575  0.0450  0.0213
  109OSM   H15C11109   0.014   4.268   6.884 -0.9564  1.3935 -0.7429
  109OSM    C1411110   0.281   4.255   6.691  0.3273  0.5752 -0.4745
  109OSM   H14A11111   0.250   4.334   6.625 -0.9292  0.1668 -0.3906
  109OSM   H14B11112   0.336   4.185   6.630 -0.1100  0.7915 -1.1267
  109OSM   H14C11113   0.342   4.297   6.770 -0.2438 -0.0903  0.3489
  109OSM    C1311114   0.205   4.083   6.836  0.0275  0.0305 -0.5614
  109OSM   H13A11115   0.121   4.026   6.872  0.3369 -0.3059 -0.3666
  109OSM   H13B11116   0.274   4.110   6.915 -0.6599  0.9069 -0.2399
  109OSM   H13C11117   0.252   4.020   6.762 -0.8688 -0.9668 -0.3013
  109OSM    C1211118   0.050   4.178   6.653  0.5192  0.5703  0.2159
  109OSM   H12A11119   0.095   4.121   6.573  0.7715 -0.3371  0.9846
  109OSM   H12B11120   0.024   4.274   6.610 -0.7210 -0.7812 -2.2639
  109OSM    C1111121  -0.090   4.114   6.685 -0.2422  0.0891  0.3486
  109OSM   H11A11122  -0.160   4.119   6.599 -0.7139  1.5753  0.7839
  109OSM   H11B11123  -0.137   4.166   6.771 -2.7227  1.2699 -1.5891
  109OSM      P11124  -0.053   3.867   6.609 -0.0077 -0.2606 -0.4248
  109OSM    O1311125   0.069   3.794   6.647 -0.2802 -0.1942 -0.4258
  109OSM    O1411126  -0.182   3.792   6.595 -0.5201 -0.0411  0.0048
  109OSM    O1111127  -0.017   3.951   6.479  0.0521  0.5886 -0.3146
  109OSM    O1211128  -0.071   3.981   6.716  0.2754  0.0628 -0.7222
  109OSM    C1S11129  -0.103   3.926   6.361 -1.0064  0.0323 -0.4524
  109OSM    H1S11130  -0.190   3.995   6.365 -0.6003  0.5778 -1.0199
  109OSM    H1T11131  -0.130   3.818   6.353 -1.2225  0.0826 -0.4300
  109OSM     NF11132  -0.113   3.974   6.112  0.0657  0.1813 -0.0521
  109OSM    HNF11133  -0.117   3.901   6.044 -0.2374  0.8587 -0.7716
  109OSM    C2S11134  -0.034   3.972   6.232 -0.6208  0.3264 -0.1575
  109OSM    H2S11135   0.014   4.071   6.247  0.0521  0.2438 -1.6314
  109OSM    C3S11136   0.100   3.889   6.212  0.3408 -0.3663  0.1819
  109OSM    H3S11137   0.075   3.781   6.204 -2.0720  0.1450 -0.1701
  109OSM     O311138   0.196   3.896   6.319  0.8064  0.4625  0.1218
  109OSM    HO311139   0.139   3.927   6.391  0.0733 -0.1011 -0.1983
  109OSM    C4S11140   0.174   3.933   6.089  0.3707 -0.8778  0.0416
  109OSM    H4S11141   0.184   4.041   6.068 -0.7297 -0.8738 -0.5352
  109OSM    C5S11142   0.223   3.850   5.999 -0.7472 -0.4210 -0.2591
  109OSM    H5S11143   0.221   3.742   6.015 -0.8651 -0.9114 -3.1411
  109OSM    C6S11144   0.293   3.893   5.871 -0.3893  0.3769  0.7414
  109OSM    H6S11145   0.393   3.846   5.878 -0.3368  0.6319  1.9031
  109OSM    H6T11146   0.308   4.003   5.860  0.6415  0.0750 -1.2982
  109OSM    C7S11147   0.209   3.847   5.752  0.8862 -1.0460  0.5338
  109OSM    H7S11148   0.190   3.739   5.766 -0.4107 -0.6952  1.6696
  109OSM    H7T11149   0.261   3.866   5.656 -1.3186  1.2346 -0.2980
  109OSM    C8S11150   0.066   3.901   5.750  0.1734 -0.3477 -0.1019
  109OSM    H8S11151   0.056   4.010   5.732  1.7217 -0.3085 -0.8901
  109OSM    H8T11152   0.014   3.891   5.847  3.5909 -2.7152  1.6549
  109OSM    C9S11153  -0.016   3.833   5.637  0.0669 -0.5653 -0.5431
  109OSM    H9S11154  -0.123   3.860   5.655  0.8853  0.9632  2.9821
  109OSM    H9T11155  -0.001   3.724   5.648  1.9342 -0.0995  2.8216
  109OSM   C10S11156   0.031   3.874   5.491 -0.4757 -0.1018  0.0953
  109OSM   H10S11157   0.125   3.824   5.459 -1.2296 -0.8822 -0.9537
  109OSM   H10T11158   0.057   3.982   5.499  0.8981 -0.2820 -1.5017
  109OSM   C11S11159  -0.069   3.852   5.379 -0.1936  0.0282  0.4129
  109OSM   H11S11160  -0.160   3.914   5.393 -0.7623 -0.6318 -0.3234
  109OSM   H11T11161  -0.097   3.746   5.368  1.3826 -0.4510  0.7502
  109OSM   C12S11162  -0.013   3.902   5.241  0.6046  0.0220  0.3124
  109OSM   H12S11163   0.067   3.834   5.205  1.9764  1.1511  1.1175
  109OSM   H12T11164   0.033   4.003   5.246  0.7875 -0.0694  0.4624
  109OSM   C13S11165  -0.116   3.899   5.129 -0.1634  0.2051  0.1184
  109OSM   H13S11166  -0.189   3.981   5.146 -0.5690 -0.3390  1.0763
  109OSM   H13T11167  -0.171   3.806   5.156  0.4041  0.0914  0.9422
  109OSM   C14S11168  -0.065   3.898   4.990  0.1557  0.4498 -0.2955
  109OSM   H14S11169  -0.155   3.909   4.926 -0.7877 -1.2250  0.6546
  109OSM   H14T11170  -0.029   3.797   4.959 -1.8356 -0.2930 -0.3612
  109OSM   C15S11171   0.037   4.010   4.956 -0.3140  0.5358 -0.9226
  109OSM   H15S11172   0.112   4.012   5.037  0.9346  1.0650 -2.0501
  109OSM   H15T11173  -0.004   4.113   4.943  1.9473  1.9677  2.1838
  109OSM   C16S11174   0.117   3.986   4.835  0.2102  0.0670  0.1752
  109OSM   H16S11175   0.173   3.891   4.848 -0.5461 -0.7630 -2.0564
  109OSM   H16T11176   0.188   4.069   4.815  0.5794 -0.3599 -0.3360
  109OSM   C17S11177   0.036   3.988   4.705  0.2136 -0.1119 -0.1894
  109OSM   H17S11178  -0.009   4.086   4.677  1.6415  0.6941  0.2027
  109OSM   H17T11179  -0.051   3.919   4.711 -0.7157  1.0407  0.0460
  109OSM   C18S11180   0.111   3.948   4.577 -0.1979 -0.7295  0.1897
  109OSM   H18S11181   0.049   3.950   4.485 -0.1431 -0.2554  0.1629
  109OSM   H18T11182   0.150   3.844   4.585  0.0610 -0.6121  0.4610
  109OSM   H18U11183   0.196   4.015   4.554 -1.5689  0.7471 -0.7735
  109OSM    C1F11184  -0.209   4.066   6.089  0.0905 -0.5448  0.7176
  109OSM     OF11185  -0.222   4.166   6.156 -0.2365  0.0176  0.1045
  109OSM    C2F11186  -0.296   4.038   5.971 -0.1609  0.4251  0.3460
  109OSM    H2F11187  -0.396   4.062   6.012  0.7048  1.6723  1.8721
  109OSM    H2G11188  -0.297   3.935   5.931 -0.5093 -1.4135  4.5756
  109OSM    C3F11189  -0.263   4.141   5.858  0.0997 -0.2268  0.6828
  109OSM    H3F11190  -0.167   4.110   5.813  0.3245 -0.2479  1.1656
  109OSM    H3G11191  -0.262   4.244   5.902 -1.2911  0.2719 -0.3901
  109OSM    C4F11192  -0.376   4.144   5.752  0.1966 -0.1700 -0.2927
  109OSM    H4F11193  -0.382   4.233   5.686  0.2336 -0.9672 -1.3998
  109OSM    H4G11194  -0.469   4.141   5.813 -0.8009  0.5913 -1.7219
  109OSM    C5F11195  -0.393   4.009   5.666 -0.1616  0.0419 -0.2168
  109OSM    H5F11196  -0.430   3.928   5.732  0.5694 -0.4984 -0.4568
  109OSM    H5G11197  -0.294   3.974   5.631  0.3171  0.0844  1.0452
  109OSM    C6F11198  -0.489   4.029   5.550 -0.0974 -0.2544 -0.1239
  109OSM    H6F11199  -0.556   4.110   5.585  1.2569  0.8743 -0.0616
  109OSM    H6G11200  -0.547   3.936   5.531 -1.4887  0.5561  0.0304
  109OSM    C7F11201  -0.431   4.078   5.417 -0.6255 -0.7222 -0.1704
  109OSM    H7F11202  -0.353   4.015   5.370  0.1790 -0.9601  1.4006
  109OSM    H7G11203  -0.364   4.158   5.458 -0.9661 -1.4313  1.8842
  109OSM    C8F11204  -0.523   4.156   5.329  0.2630 -0.0929  0.1252
  109OSM    H8F11205  -0.462   4.202   5.248  1.0647 -0.8347  0.2958
  109OSM    H8G11206  -0.576   4.230   5.393 -0.0337  0.4704 -0.7419
  109OSM    C9F11207  -0.625   4.053   5.276 -1.1600  0.1797 -0.0036
  109OSM    H9F11208  -0.713   4.037   5.341 -0.9462  0.7312  0.4311
  109OSM   C10F11209  -0.619   3.991   5.159 -0.2769 -0.5606 -0.6195
  109OSM   H10F11210  -0.696   3.917   5.130 -0.2143 -1.1126  0.5757
  109OSM   C11F11211  -0.520   4.020   5.054 -0.2597 -0.3735  0.5348
  109OSM   H11F11212  -0.421   4.039   5.103 -1.4879  2.0216  2.3188
  109OSM   H11G11213  -0.546   4.110   4.995 -2.6455 -2.2806 -1.5263
  109OSM   C12F11214  -0.490   3.903   4.956  0.4292 -0.4578  0.0669
  109OSM   H12F11215  -0.441   3.813   4.999 -0.0614 -0.3775  0.8047
  109OSM   H12G11216  -0.415   3.944   4.886 -0.0929 -0.8443 -0.7351
  109OSM   C13F11217  -0.618   3.864   4.882 -0.6421 -0.3777 -0.6558
  109OSM   H13F11218  -0.673   3.959   4.863  0.6162  0.6373  0.5505
  109OSM   H13G11219  -0.686   3.806   4.948 -0.3300 -1.3481 -1.1713
  109OSM   C14F11220  -0.588   3.798   4.747 -1.3154  0.2576  0.3313
  109OSM   H14F11221  -0.681   3.738   4.734 -0.8270 -0.2795 -0.8031
  109OSM   H14G11222  -0.503   3.727   4.750 -0.5281  1.2043  0.9914
  109OSM   C15F11223  -0.573   3.891   4.629 -0.0134 -0.1803  0.6648
  109OSM   H15F11224  -0.479   3.951   4.636  0.4672 -1.0419  1.9919
  109OSM   H15G11225  -0.655   3.966   4.622  0.6230  0.5403  0.6960
  109OSM   C16F11226  -0.569   3.816   4.498  0.0563  0.0127 -0.1888
  109OSM   H16F11227  -0.556   3.899   4.425 -2.4828  0.6262 -0.0358
  109OSM   H16G11228  -0.667   3.763   4.491  1.4675 -3.2326  1.9783
  109OSM   C17F11229  -0.453   3.714   4.490 -0.0039  0.6986 -0.4526
  109OSM   H17F11230  -0.451   3.665   4.390 -0.6995 -1.1626  0.3885
  109OSM   H17G11231  -0.476   3.637   4.567 -3.3776  0.9179 -1.0762
  109OSM   C18F11232  -0.316   3.784   4.507 -0.8796 -0.3907 -0.1135
  109OSM   H18F11233  -0.304   3.854   4.422  0.9975  1.1433  1.3064
  109OSM   H18G11234  -0.233   3.711   4.500  1.5321  2.0127  1.4863
  109OSM   H18H11235  -0.293   3.841   4.600  2.3020  0.0644 -1.0693
  110OSM      N11236   6.719   0.233   7.016  0.1948 -0.4081 -0.4837
  110OSM    C1511237   6.726   0.226   7.169  0.1638  0.0885 -0.1649
  110OSM   H15A11238   6.814   0.274   7.208 -0.4187  1.3921 -0.3894
  110OSM   H15B11239   6.719   0.128   7.213 -1.1628  1.2163  2.3452
  110OSM   H15C11240   6.640   0.283   7.202  0.0731  0.2108 -0.6028
  110OSM    C1411241   6.697   0.376   6.976  0.0027  0.4278  0.1569
  110OSM   H14A11242   6.708   0.375   6.868  0.5021 -2.2504  0.1589
  110OSM   H14B11243   6.770   0.438   7.026 -1.3757  0.3021  2.4584
  110OSM   H14C11244   6.597   0.410   6.997  0.3632  0.3337  2.2052
  110OSM    C1311245   6.840   0.199   6.948  0.1089  0.1257  0.2183
  110OSM   H13A11246   6.844   0.233   6.845 -0.4630 -0.0137  0.1480
  110OSM   H13B11247   6.855   0.092   6.947 -0.4975  0.0156  1.3672
  110OSM   H13C11248   6.928   0.238   6.997 -0.4788  0.4387  1.0395
  110OSM    C1211249   6.605   0.148   6.960  0.6229 -0.5949  0.5448
  110OSM   H12A11250   6.513   0.164   7.015 -1.7411 -1.3701 -2.8207
  110OSM   H12B11251   6.621   0.041   6.969  0.8771 -0.6509 -0.3958
  110OSM    C1111252   6.564   0.154   6.804  0.2547 -0.0121  0.0141
  110OSM   H11A11253   6.650   0.136   6.736 -1.2332 -0.3109 -1.8728
  110OSM   H11B11254   6.525   0.254   6.775  1.5940  0.6417  0.4246
  110OSM      P11255   6.465  -0.066   6.703  0.5960  0.2838 -0.0079
  110OSM    O1311256   6.600  -0.121   6.729 -0.2362 -0.2678  0.0562
  110OSM    O1411257   6.349  -0.156   6.733 -0.3033 -0.2852  0.0589
  110OSM    O1111258   6.444  -0.020   6.557 -0.1711 -0.1157 -0.5837
  110OSM    O1211259   6.454   0.056   6.796  0.1179  0.2367 -0.3467
  110OSM    C1S11260   6.334   0.065   6.511  0.7861 -0.0876  0.1241
  110OSM    H1S11261   6.312   0.158   6.568 -1.0297 -0.4562  0.0632
  110OSM    H1T11262   6.236   0.014   6.507  0.7497 -0.0537  0.6136
  110OSM     NF11263   6.283   0.234   6.332  0.3467 -0.5214  0.0582
  110OSM    HNF11264   6.194   0.218   6.291 -1.1291  2.4327  1.7401
  110OSM    C2S11265   6.365   0.121   6.365 -0.8930 -0.1904  0.2456
  110OSM    H2S11266   6.468   0.161   6.359 -1.2930  0.7095 -1.6164
  110OSM    C3S11267   6.355   0.001   6.266 -0.3753 -0.8053  0.1202
  110OSM    H3S11268   6.256  -0.048   6.273 -1.6675  1.2720 -1.8997
  110OSM     O311269   6.444  -0.101   6.302  0.0204  0.5392 -0.0084
  110OSM    HO311270   6.459  -0.094   6.396 -0.1943  0.6599  0.0183
  110OSM    C4S11271   6.355   0.043   6.112  0.6553 -0.1721 -0.3111
  110OSM    H4S11272   6.257   0.074   6.074  0.8130 -0.3035 -0.8259
  110OSM    C5S11273   6.455   0.028   6.019  0.1937 -0.1642  0.0206
  110OSM    H5S11274   6.547  -0.028   6.042  2.0438  2.2183 -1.1264
  110OSM    C6S11275   6.451   0.072   5.874 -0.0783  0.7526 -0.9050
  110OSM    H6S11276   6.488   0.176   5.870  2.0827  0.1597  1.2566
  110OSM    H6T11277   6.346   0.069   5.837 -1.4282  2.8390  2.3708
  110OSM    C7S11278   6.532  -0.031   5.792 -0.4694 -0.7881 -0.2611
  110OSM    H7S11279   6.467  -0.121   5.777 -3.7822  1.3200  0.4598
  110OSM    H7T11280   6.625  -0.061   5.844 -0.8508 -0.0909  0.8513
  110OSM    C8S11281   6.563   0.028   5.655  0.1382  0.3230 -0.3830
  110OSM    H8S11282   6.623   0.122   5.659 -1.2670  1.2002  1.6574
  110OSM    H8T11283   6.462   0.041   5.611  0.1255  2.9266  0.2670
  110OSM    C9S11284   6.632  -0.072   5.566 -0.0019 -0.3708 -0.5802
  110OSM    H9S11285   6.577  -0.160   5.524  0.4198 -0.7042 -0.4461
  110OSM    H9T11286   6.711  -0.113   5.631  2.1351 -0.1903 -2.9135
  110OSM   C10S11287   6.691  -0.004   5.441 -0.1399 -0.4092  0.8603
  110OSM   H10S11288   6.771   0.067   5.470 -0.1502  0.2565 -0.6365
  110OSM   H10T11289   6.613   0.051   5.384  1.3064 -0.1166 -0.9565
  110OSM   C11S11290   6.758  -0.109   5.345  0.1221 -1.4515 -0.3697
  110OSM   H11S11291   6.685  -0.182   5.304 -1.5055  0.1474 -0.4520
  110OSM   H11T11292   6.837  -0.163   5.400 -0.2809  1.3395  3.3829
  110OSM   C12S11293   6.832  -0.039   5.229  0.3944 -0.0583  0.4038
  110OSM   H12S11294   6.920   0.021   5.258  0.8057 -0.2240 -0.4608
  110OSM   H12T11295   6.766   0.034   5.176  1.5327  0.8081  0.1315
  110OSM   C13S11296   6.876  -0.153   5.134 -0.7269 -0.3965  0.5605
  110OSM   H13S11297   6.794  -0.227   5.118 -1.2185  0.4009 -0.8117
  110OSM   H13T11298   6.962  -0.209   5.176  1.4231 -0.0140 -2.9323
  110OSM   C14S11299   6.930  -0.097   5.008 -0.0302 -0.5469 -0.3974
  110OSM   H14S11300   6.982  -0.002   5.030  1.1881 -1.5359  1.1973
  110OSM   H14T11301   6.850  -0.065   4.937 -0.4051 -0.1211  0.2056
  110OSM   C15S11302   7.020  -0.190   4.933 -0.3141 -0.1860 -0.4179
  110OSM   H15S11303   6.968  -0.288   4.926 -1.1672  0.2474 -0.3223
  110OSM   H15T11304   7.115  -0.196   4.990 -1.0120 -0.9309  0.7202
  110OSM   C16S11305   7.070  -0.147   4.798  0.0631 -0.0192  0.2547
  110OSM   H16S11306   7.151  -0.218   4.772 -0.0830  0.6036 -2.0961
  110OSM   H16T11307   7.121  -0.049   4.808  1.1907 -0.5407 -0.2700
  110OSM   C17S11308   6.958  -0.139   4.690 -0.4143 -1.2056 -0.7997
  110OSM   H17S11309   7.019  -0.116   4.599  0.5882  0.7595  0.2943
  110OSM   H17T11310   6.873  -0.067   4.696  0.5759 -0.1174  1.4168
  110OSM   C18S11311   6.888  -0.268   4.672  0.1496 -0.5782  0.2997
  110OSM   H18S11312   6.834  -0.249   4.577  0.6733  2.8073  0.5413
  110OSM   H18T11313   6.819  -0.299   4.753  0.3786 -4.3763 -0.7884
  110OSM   H18U11314   6.955  -0.356   4.662  0.1548 -0.4329 -1.1544
  110OSM    C1F11315   6.310   0.358   6.370 -0.0726  0.0071 -0.0069
  110OSM     OF11316   6.401   0.377   6.452 -0.2353  0.3907  0.1537
  110OSM    C2F11317   6.233   0.467   6.301 -0.6360 -0.8076 -0.0246
  110OSM    H2F11318   6.184   0.517   6.387  1.4199  2.5450 -0.6496
  110OSM    H2G11319   6.152   0.431   6.234 -1.7459  1.0353  0.2523
  110OSM    C3F11320   6.338   0.567   6.249 -0.3321  0.0055  0.0904
  110OSM    H3F11321   6.395   0.619   6.328  1.7673 -0.1330 -1.2625
  110OSM    H3G11322   6.277   0.648   6.204  0.2979  1.0393  1.0376
  110OSM    C4F11323   6.429   0.523   6.126  0.3538 -0.5432  0.3251
  110OSM    H4F11324   6.501   0.447   6.161  0.1162  0.5482  3.4481
  110OSM    H4G11325   6.479   0.609   6.076  0.8307 -2.1416 -2.1695
  110OSM    C5F11326   6.353   0.464   6.006  0.4054 -0.3604  0.9742
  110OSM    H5F11327   6.257   0.517   5.988  2.4486  2.9305 -1.5290
  110OSM    H5G11328   6.335   0.355   6.019  1.9953 -0.7149  0.4536
  110OSM    C6F11329   6.435   0.484   5.875 -0.4619  0.2860  0.1997
  110OSM    H6F11330   6.533   0.433   5.883 -0.7490 -0.5607 -1.3613
  110OSM    H6G11331   6.466   0.589   5.857  0.5158 -0.2572 -1.4620
  110OSM    C7F11332   6.356   0.430   5.756  0.0335 -0.6345 -0.3157
  110OSM    H7F11333   6.289   0.506   5.709  1.2255 -0.8275 -2.4702
  110OSM    H7G11334   6.309   0.333   5.783 -2.4511  0.0831 -1.7231
  110OSM    C8F11335   6.444   0.415   5.626 -0.2950 -0.0268  0.0826
  110OSM    H8F11336   6.381   0.370   5.547  0.1364 -1.0788  0.3230
  110OSM    H8G11337   6.523   0.340   5.646  0.7194  1.2264  0.8911
  110OSM    C9F11338   6.512   0.544   5.571  1.2932 -0.1706 -0.1137
  110OSM    H9F11339   6.590   0.586   5.637 -0.0724  2.1358  0.1360
  110OSM   C10F11340   6.476   0.614   5.462  1.6492  0.4058 -0.5014
  110OSM   H10F11341   6.536   0.700   5.428 -0.9397  2.3889 -0.2836
  110OSM   C11F11342   6.366   0.575   5.367  0.5278 -0.1067  0.2393
  110OSM   H11F11343   6.311   0.660   5.322 -0.6933 -1.1833 -0.3596
  110OSM   H11G11344   6.290   0.528   5.434  2.8187 -1.6978  1.8933
  110OSM   C12F11345   6.404   0.461   5.264 -0.3664 -0.9141  0.6862
  110OSM   H12F11346   6.308   0.425   5.220 -0.4038 -0.9179  0.7704
  110OSM   H12G11347   6.442   0.369   5.314 -0.0255 -0.3349  1.5189
  110OSM   C13F11348   6.500   0.513   5.159 -0.1511  0.6079  0.3662
  110OSM   H13F11349   6.604   0.526   5.196  0.5543  0.6137 -1.5180
  110OSM   H13G11350   6.459   0.612   5.129  3.3027  2.4872  1.2812
  110OSM   C14F11351   6.516   0.414   5.048  0.4564 -0.3280  0.3431
  110OSM   H14F11352   6.421   0.378   5.004  0.6040  0.8223 -0.9791
  110OSM   H14G11353   6.576   0.328   5.085 -0.6136  0.0214  3.1314
  110OSM   C15F11354   6.596   0.478   4.926  0.0066 -0.0872  1.2582
  110OSM   H15F11355   6.701   0.482   4.961  1.9042 -0.4040 -3.5531
  110OSM   H15G11356   6.566   0.579   4.889  1.5564 -0.6508 -1.9682
  110OSM   C16F11357   6.593   0.387   4.800 -0.4857 -0.0285 -0.3266
  110OSM   H16F11358   6.511   0.429   4.737 -0.3149 -0.8466 -1.1109
  110OSM   H16G11359   6.554   0.286   4.823 -1.2748  0.8444  2.5827
  110OSM   C17F11360   6.728   0.375   4.725  0.5500  0.0392 -0.1666
  110OSM   H17F11361   6.814   0.362   4.794  1.6185  2.3031 -0.9595
  110OSM   H17G11362   6.740   0.479   4.688 -0.8496  0.2974  0.0705
  110OSM   C18F11363   6.738   0.288   4.601  0.5943  0.2500  0.7300
  110OSM   H18F11364   6.831   0.309   4.544  1.9713 -1.3762  2.2890
  110OSM   H18G11365   6.661   0.322   4.528 -1.5872 -3.1628  1.2254
  110OSM   H18H11366   6.721   0.179   4.612  1.0963  0.0812 -0.0371
  111OSM      N11367   1.476   4.743   6.708 -0.0347 -0.0366  0.0187
  111OSM    C1511368   1.423   4.609   6.754  0.1735 -0.3308 -0.0385
  111OSM   H15A11369   1.507   4.552   6.792 -0.5330 -1.2971  0.1015
  111OSM   H15B11370   1.380   4.563   6.667 -0.7232 -2.0637  1.2494
  111OSM   H15C11371   1.351   4.615   6.834 -1.2965  0.4295 -1.3761
  111OSM    C1411372   1.581   4.711   6.607 -0.6102 -0.0445 -0.2843
  111OSM   H14A11373   1.658   4.648   6.649  0.9552  1.6234 -0.5615
  111OSM   H14B11374   1.616   4.800   6.557 -1.4678  0.3825 -0.1557
  111OSM   H14C11375   1.540   4.649   6.528 -3.2020  1.0273  0.0960
  111OSM    C1311376   1.374   4.829   6.650 -0.4803 -0.4095  0.0781
  111OSM   H13A11377   1.429   4.921   6.637 -1.5545  0.4256  1.1974
  111OSM   H13B11378   1.300   4.857   6.723  0.0474 -1.2500  0.9585
  111OSM   H13C11379   1.323   4.781   6.568 -0.6031  0.2776 -0.2546
  111OSM    C1211380   1.555   4.796   6.831 -0.6028 -0.0656  0.5910
  111OSM   H12A11381   1.644   4.736   6.844  0.8483  1.3545 -2.0319
  111OSM   H12B11382   1.495   4.779   6.920  0.9433 -0.8141  1.5348
  111OSM    C1111383   1.611   4.947   6.828 -0.3551 -0.3972  0.0652
  111OSM   H11A11384   1.682   4.955   6.743 -1.5640  2.4597 -0.8187
  111OSM   H11B11385   1.654   4.962   6.930 -1.1593  4.0857 -0.0188
  111OSM      P11386   1.504   5.173   6.746 -0.0647  0.2077  0.0581
  111OSM    O1311387   1.383   5.240   6.793  0.1466  0.6219  0.5105
  111OSM    O1411388   1.631   5.251   6.765 -0.4787 -0.4363  0.3989
  111OSM    O1111389   1.476   5.141   6.596 -0.0069 -0.2179  0.0607
  111OSM    O1211390   1.498   5.038   6.825 -0.6730  0.0322 -0.1990
  111OSM    C1S11391   1.578   5.113   6.502  0.0516 -0.7517 -0.6628
  111OSM    H1S11392   1.637   5.025   6.536  2.3730  0.8218 -0.3879
  111OSM    H1T11393   1.651   5.196   6.494  0.7698 -1.4707 -1.8203
  111OSM     NF11394   1.632   5.023   6.281  0.4031 -0.3381  0.3798
  111OSM    HNF11395   1.655   5.098   6.220 -0.6055 -2.1443 -2.4048
  111OSM    C2S11396   1.518   5.067   6.363  0.2974 -0.2675 -0.7239
  111OSM    H2S11397   1.442   4.987   6.379 -0.7770  0.5990 -1.3343
  111OSM    C3S11398   1.436   5.189   6.322 -0.2245 -0.5189  0.0601
  111OSM    H3S11399   1.507   5.275   6.313 -1.4992  0.6105  0.4471
  111OSM     O311400   1.328   5.239   6.404  0.1152 -0.1829 -0.1640
  111OSM    HO311401   1.350   5.203   6.490  1.7313  2.6517  0.7598
  111OSM    C4S11402   1.381   5.168   6.188 -0.7041 -0.1312  0.1420
  111OSM    H4S11403   1.354   5.065   6.161  0.5323 -0.8028  1.3711
  111OSM    C5S11404   1.368   5.272   6.094 -0.8706 -0.0398 -0.0797
  111OSM    H5S11405   1.378   5.375   6.131 -1.6237  0.1831 -0.4561
  111OSM    C6S11406   1.328   5.262   5.949 -0.6754  0.7125 -0.5550
  111OSM    H6S11407   1.300   5.156   5.929 -1.2793  0.1625  2.6612
  111OSM    H6T11408   1.415   5.278   5.882 -0.9667  0.6040 -0.9665
  111OSM    C7S11409   1.216   5.354   5.911  0.3071  0.1875 -0.0454
  111OSM    H7S11410   1.229   5.456   5.953  0.5690  0.7801 -1.4880
  111OSM    H7T11411   1.117   5.321   5.950  0.1179 -0.3251 -0.9277
  111OSM    C8S11412   1.206   5.365   5.762 -0.0413  0.2132 -0.2886
  111OSM    H8S11413   1.202   5.266   5.711  1.2838  0.6584 -1.3267
  111OSM    H8T11414   1.293   5.425   5.727  0.0644 -0.9525 -2.1574
  111OSM    C9S11415   1.074   5.435   5.714 -0.1110 -0.6534 -0.3880
  111OSM    H9S11416   1.058   5.535   5.760 -2.0522 -0.9459 -0.3237
  111OSM    H9T11417   0.986   5.371   5.741  0.3204 -0.7647  0.8391
  111OSM   C10S11418   1.085   5.480   5.569  0.4631  0.6053  0.0084
  111OSM   H10S11419   1.189   5.513   5.552  0.0206  2.2776  0.3443
  111OSM   H10T11420   1.017   5.563   5.539  1.8123  0.8750 -2.6467
  111OSM   C11S11421   1.059   5.359   5.474 -0.3933  0.1477  0.1369
  111OSM   H11S11422   0.966   5.306   5.503  0.0333 -1.0006 -0.5124
  111OSM   H11T11423   1.149   5.294   5.476  0.6709  1.5897 -0.0670
  111OSM   C12S11424   1.045   5.401   5.331  0.3307  0.6340  0.1855
  111OSM   H12S11425   1.138   5.452   5.298 -0.0981  1.2472 -0.1029
  111OSM   H12T11426   0.964   5.473   5.307 -0.8897 -0.7444 -0.0356
  111OSM   C13S11427   1.014   5.279   5.238 -0.5744 -0.1555  0.6438
  111OSM   H13S11428   0.906   5.255   5.250 -0.5737 -0.5004 -0.0040
  111OSM   H13T11429   1.072   5.191   5.275 -3.0450 -1.3494  1.9243
  111OSM   C14S11430   1.048   5.314   5.089  0.1062 -0.2766 -0.7299
  111OSM   H14S11431   1.159   5.309   5.087  0.2224  0.9832  1.0389
  111OSM   H14T11432   1.014   5.413   5.051 -1.8896  0.1624  1.9247
  111OSM   C15S11433   0.996   5.198   5.001  0.7600  0.0238 -0.8227
  111OSM   H15S11434   0.890   5.164   5.009  1.0226 -0.5124  0.8275
  111OSM   H15T11435   1.053   5.108   5.034  1.2638  0.6374  0.0377
  111OSM   C16S11436   1.037   5.221   4.863  0.2650  0.4458 -0.1435
  111OSM   H16S11437   1.036   5.118   4.823  3.1996  0.2775  0.0426
  111OSM   H16T11438   1.140   5.258   4.845 -0.3123  0.5353 -4.0610
  111OSM   C17S11439   0.944   5.315   4.791 -0.2482  0.3022  0.2538
  111OSM   H17S11440   0.961   5.422   4.814 -0.4040  0.6577 -1.1545
  111OSM   H17T11441   0.844   5.295   4.835 -1.1879  0.2228 -1.7678
  111OSM   C18S11442   0.942   5.306   4.638 -0.2291 -0.9982  0.3614
  111OSM   H18S11443   0.933   5.204   4.594  0.0209 -0.6196 -0.6100
  111OSM   H18T11444   1.036   5.350   4.597 -1.3480  0.9932 -0.2008
  111OSM   H18U11445   0.851   5.352   4.594 -1.4758 -1.0728  2.7097
  111OSM    C1F11446   1.709   4.911   6.295  0.3917 -0.1569  0.2745
  111OSM     OF11447   1.678   4.815   6.365  0.6638 -0.1269 -0.2758
  111OSM    C2F11448   1.853   4.924   6.241 -0.2640  0.2588 -0.1238
  111OSM    H2F11449   1.912   4.912   6.334  0.4508  0.9288 -0.4745
  111OSM    H2G11450   1.879   5.021   6.194 -0.3973 -0.8523 -2.6277
  111OSM    C3F11451   1.887   4.803   6.152  0.1824  1.0272 -0.2679
  111OSM    H3F11452   1.823   4.818   6.063 -2.2743 -0.3776  1.1455
  111OSM    H3G11453   1.874   4.709   6.211 -0.7220  1.6941  0.6298
  111OSM    C4F11454   2.033   4.790   6.113 -0.1085  0.7610  0.5469
  111OSM    H4F11455   2.040   4.683   6.083 -2.0953  0.2072  1.8712
  111OSM    H4G11456   2.110   4.806   6.192 -1.0606  2.2974  1.2101
  111OSM    C5F11457   2.082   4.878   6.000  0.6240 -0.0995 -0.1630
  111OSM    H5F11458   2.192   4.862   6.002  0.4233 -1.6118  1.4311
  111OSM    H5G11459   2.057   4.983   6.028  3.9494  0.6770  0.2912
  111OSM    C6F11460   2.035   4.852   5.856 -0.3128 -0.4179  0.6473
  111OSM    H6F11461   1.926   4.873   5.847 -0.4815 -1.1749  0.8120
  111OSM    H6G11462   2.054   4.746   5.828 -0.2232 -0.3208  0.3414
  111OSM    C7F11463   2.117   4.947   5.762 -0.3009  0.1456 -0.4034
  111OSM    H7F11464   2.218   4.905   5.743 -0.0439 -0.0814  1.3412
  111OSM    H7G11465   2.125   5.050   5.802  1.7179 -0.2722  0.4056
  111OSM    C8F11466   2.047   4.935   5.621 -1.0904 -0.2209  0.1129
  111OSM    H8F11467   1.938   4.956   5.626 -1.3411 -1.1321 -1.0491
  111OSM    H8G11468   2.057   4.828   5.593 -0.7726 -0.8557  2.4253
  111OSM    C9F11469   2.113   5.038   5.532 -0.1269 -0.4730 -0.1090
  111OSM    H9F11470   2.133   5.134   5.580  0.6277 -0.2385 -0.8665
  111OSM   C10F11471   2.148   5.018   5.406  0.0005 -0.0699 -0.4158
  111OSM   H10F11472   2.213   5.090   5.354 -0.3161 -0.6893 -1.7195
  111OSM   C11F11473   2.120   4.897   5.325  0.1905  0.0564 -0.0051
  111OSM   H11F11474   2.135   4.807   5.388 -0.3374  0.9954  1.5226
  111OSM   H11G11475   2.192   4.903   5.241 -1.1388  1.4192 -1.1090
  111OSM   C12F11476   1.976   4.900   5.279  0.2102  0.9758  0.3762
  111OSM   H12F11477   1.896   4.890   5.355 -0.1643 -2.7664 -0.3178
  111OSM   H12G11478   1.965   4.813   5.210  0.5675  0.7831  0.5597
  111OSM   C13F11479   1.941   5.012   5.180 -0.5016 -0.3358  0.6387
  111OSM   H13F11480   2.029   5.003   5.112 -1.0358 -1.3411  0.0514
  111OSM   H13G11481   1.952   5.111   5.229 -4.5453  0.3148  0.5277
  111OSM   C14F11482   1.806   5.014   5.105 -0.8183  0.8850  0.1297
  111OSM   H14F11483   1.730   4.975   5.177 -2.0856 -3.0283 -2.9257
  111OSM   H14G11484   1.810   4.935   5.027  1.5761  1.2049 -0.1396
  111OSM   C15F11485   1.775   5.141   5.032  0.4170  0.3207  0.5428
  111OSM   H15F11486   1.855   5.157   4.956 -0.3768 -0.1880 -0.4231
  111OSM   H15G11487   1.798   5.227   5.098  1.0289  0.8351 -0.3178
  111OSM   C16F11488   1.630   5.155   4.974  0.1666 -0.7654  0.3112
  111OSM   H16F11489   1.569   5.095   5.045  1.1505 -0.6049  1.3222
  111OSM   H16G11490   1.627   5.108   4.874 -1.4927 -0.2847  0.0966
  111OSM   C17F11491   1.569   5.298   4.962  1.2221 -0.9603  0.0744
  111OSM   H17F11492   1.639   5.350   4.894  0.3667 -0.4699 -0.4498
  111OSM   H17G11493   1.583   5.347   5.061  1.4659 -0.5439 -0.1655
  111OSM   C18F11494   1.423   5.309   4.925  0.0430 -0.0352  0.8112
  111OSM   H18F11495   1.386   5.413   4.921  2.1544  0.7310 -0.2768
  111OSM   H18G11496   1.363   5.250   4.998  0.3940  0.4954  1.5344
  111OSM   H18H11497   1.412   5.265   4.823  0.6745  1.5453  0.0315
  112OSM      N11498   6.386   2.303   6.663  0.3908  0.2313 -0.6120
  112OSM    C1511499   6.283   2.407   6.616 -0.9102  0.0405 -0.4853
  112OSM   H15A11500   6.225   2.441   6.700 -1.8138  1.5511 -1.6741
  112OSM   H15B11501   6.210   2.367   6.547 -1.3010  1.9693 -1.2480
  112OSM   H15C11502   6.334   2.490   6.570 -0.8976  0.6650  0.6252
  112OSM    C1411503   6.494   2.370   6.745 -0.9425 -0.4528  0.2171
  112OSM   H14A11504   6.553   2.294   6.792  1.5223  0.3609 -1.3504
  112OSM   H14B11505   6.444   2.429   6.820 -0.0019  0.6545  0.0056
  112OSM   H14C11506   6.567   2.429   6.690 -2.2921  0.8269 -0.2902
  112OSM    C1311507   6.315   2.208   6.750  0.1407 -0.7755  0.0478
  112OSM   H13A11508   6.287   2.239   6.849  0.3366 -3.1595  0.9258
  112OSM   H13B11509   6.372   2.117   6.764  2.2845  0.6850  1.3024
  112OSM   H13C11510   6.228   2.189   6.688  0.6750  1.3331 -1.4394
  112OSM    C1211511   6.444   2.233   6.534 -0.3350 -0.1380 -0.4377
  112OSM   H12A11512   6.500   2.311   6.484 -2.7567  1.9074 -0.1388
  112OSM   H12B11513   6.365   2.205   6.466  0.2537  1.6070 -1.9249
  112OSM    C1111514   6.551   2.122   6.556  0.5174  0.4566  0.5430
  112OSM   H11A11515   6.578   2.071   6.461 -0.9022 -1.9346  1.3295
  112OSM   H11B11516   6.503   2.053   6.629  0.7271 -1.6387 -1.2003
  112OSM      P11517   6.767   2.084   6.700 -0.5537 -0.1787  0.2212
  112OSM    O1311518   6.890   2.165   6.739  0.3788 -0.3270  0.3885
  112OSM    O1411519   6.692   2.011   6.805 -0.6665 -0.1767 -0.0525
  112OSM    O1111520   6.820   1.979   6.595  0.4792 -0.2810 -0.1492
  112OSM    O1211521   6.664   2.170   6.616 -1.2846  0.3371 -0.2640
  112OSM    C1S11522   6.856   2.020   6.460  0.4504  0.1968 -0.8330
  112OSM    H1S11523   6.887   2.127   6.455 -0.3518  0.3949 -1.9236
  112OSM    H1T11524   6.766   2.019   6.395  2.0336  0.7749 -3.1569
  112OSM     NF11525   6.980   1.971   6.253  0.3409 -0.0325 -0.0622
  112OSM    HNF11526   6.923   1.921   6.188 -0.2268  0.5231 -0.0094
  112OSM    C2S11527   6.969   1.931   6.394  0.5826 -0.3312  0.3762
  112OSM    H2S11528   7.068   1.951   6.441  0.9987  2.9889 -1.5932
  112OSM    C3S11529   6.940   1.776   6.422 -0.5214 -0.1118  1.1617
  112OSM    H3S11530   6.847   1.763   6.362  0.2633  1.0091 -0.3778
  112OSM     O311531   6.928   1.740   6.559  0.1527 -0.5113  1.0565
  112OSM    HO311532   6.895   1.822   6.598  0.4768 -0.6415  1.6228
  112OSM    C4S11533   7.049   1.686   6.353 -0.5260  0.7733  0.0568
  112OSM    H4S11534   7.003   1.646   6.261  1.4506  0.9511 -1.0837
  112OSM    C5S11535   7.172   1.639   6.385  0.0071 -0.4438 -0.2792
  112OSM    H5S11536   7.213   1.672   6.482  1.4738 -2.0999 -0.2792
  112OSM    C6S11537   7.246   1.524   6.317  0.0849 -0.7321  0.9329
  112OSM    H6S11538   7.251   1.438   6.388  0.6350 -3.3778 -2.0717
  112OSM    H6T11539   7.352   1.549   6.294  0.1659 -0.8995  1.1260
  112OSM    C7S11540   7.193   1.476   6.180 -0.6620  0.0673 -0.8512
  112OSM    H7S11541   7.180   1.559   6.107 -1.7966 -1.2020 -2.1486
  112OSM    H7T11542   7.090   1.437   6.191 -1.1577  1.2486 -1.1802
  112OSM    C8S11543   7.284   1.366   6.117 -0.4224 -0.0847  0.4690
  112OSM    H8S11544   7.281   1.281   6.187  2.4613 -0.3367  0.4428
  112OSM    H8T11545   7.388   1.406   6.113  0.4307 -2.2257 -0.0183
  112OSM    C9S11546   7.227   1.327   5.980  0.6148 -0.1241 -0.2606
  112OSM    H9S11547   7.231   1.414   5.911  2.3042 -0.4285 -0.5982
  112OSM    H9T11548   7.122   1.297   6.000  1.4846 -3.5081 -0.0151
  112OSM   C10S11549   7.290   1.199   5.922  0.5146  0.2428  0.1227
  112OSM   H10S11550   7.229   1.108   5.937 -0.4546  0.6966 -0.9688
  112OSM   H10T11551   7.388   1.177   5.970  1.3895  2.2732 -0.6290
  112OSM   C11S11552   7.311   1.218   5.771 -0.2522 -0.1036  0.1516
  112OSM   H11S11553   7.358   1.318   5.758  2.2132 -1.0730  0.9904
  112OSM   H11T11554   7.208   1.219   5.729  0.6537  0.7920 -2.2742
  112OSM   C12S11555   7.400   1.117   5.714  0.1501  0.5214 -0.4541
  112OSM   H12S11556   7.399   1.022   5.772 -2.9550 -0.5547 -2.0177
  112OSM   H12T11557   7.500   1.164   5.713 -0.9994  3.1000 -0.4697
  112OSM   C13S11558   7.352   1.081   5.571 -0.6743  0.1781  0.4303
  112OSM   H13S11559   7.434   1.016   5.533 -0.1530 -0.2013  2.1139
  112OSM   H13T11560   7.341   1.168   5.503 -1.7060  0.0061  0.3694
  112OSM   C14S11561   7.220   1.006   5.562  0.1932  0.8716 -0.2259
  112OSM   H14S11562   7.141   1.083   5.550 -1.3705 -0.6562 -0.1745
  112OSM   H14T11563   7.206   0.939   5.650  1.2321  2.4613  1.2206
  112OSM   C15S11564   7.220   0.909   5.443  0.6400 -0.6841  0.3677
  112OSM   H15S11565   7.145   0.831   5.470  0.6237 -0.7904  0.0177
  112OSM   H15T11566   7.306   0.840   5.429 -0.7316 -2.0023 -2.2943
  112OSM   C16S11567   7.152   0.963   5.312  0.3909 -0.5089  0.3212
  112OSM   H16S11568   7.220   1.039   5.267 -0.7050  0.7792  0.7699
  112OSM   H16T11569   7.056   1.008   5.344  0.7074  0.3176  0.1319
  112OSM   C17S11570   7.125   0.857   5.212  1.0955  0.6055 -0.1326
  112OSM   H17S11571   7.087   0.916   5.127  0.1456  1.4750  0.8576
  112OSM   H17T11572   7.041   0.797   5.254  1.8397  0.6210  1.4767
  112OSM   C18S11573   7.233   0.760   5.171 -0.4098  0.3955 -0.0286
  112OSM   H18S11574   7.329   0.811   5.147  0.2041 -0.5075  0.4409
  112OSM   H18T11575   7.208   0.707   5.076  0.3483  1.7782 -1.0439
  112OSM   H18U11576   7.264   0.691   5.252 -4.6179 -1.0273  0.5663
  112OSM    C1F11577   7.037   2.087   6.213  0.9065  0.5638 -0.8439
  112OSM     OF11578   7.089   2.157   6.299 -0.1869  0.1320 -0.4894
  112OSM    C2F11579   7.020   2.112   6.064  0.1177 -0.1167 -0.0952
  112OSM    H2F11580   6.911   2.126   6.047 -0.4094 -1.6889  1.7388
  112OSM    H2G11581   7.039   2.017   6.009 -0.6915 -0.1239 -0.3885
  112OSM    C3F11582   7.106   2.232   6.025  0.1213  0.5548  0.1654
  112OSM    H3F11583   7.208   2.190   6.037 -0.1011 -0.4098 -0.9998
  112OSM    H3G11584   7.074   2.318   6.086 -1.2110  0.0960  0.1561
  112OSM    C4F11585   7.080   2.273   5.875  0.0996 -0.0483  0.4970
  112OSM    H4F11586   7.175   2.311   5.833  1.5733 -3.6499  0.1765
  112OSM    H4G11587   7.004   2.352   5.858 -1.4087 -0.9917  2.3683
  112OSM    C5F11588   7.036   2.155   5.785 -0.1251  0.4966 -0.1857
  112OSM    H5F11589   6.947   2.109   5.833  0.2782 -1.3669 -1.1453
  112OSM    H5G11590   7.106   2.070   5.770 -1.2537 -0.0118 -3.1066
  112OSM    C6F11591   6.981   2.199   5.645  0.1019 -0.2503  0.0924
  112OSM    H6F11592   6.915   2.287   5.658 -0.3362 -0.3713 -1.2211
  112OSM    H6G11593   6.930   2.110   5.605 -0.3464  0.1589 -0.2591
  112OSM    C7F11594   7.094   2.230   5.539 -0.5580  0.0699 -0.0245
  112OSM    H7F11595   7.159   2.142   5.523  0.5429  1.2222 -2.4725
  112OSM    H7G11596   7.167   2.304   5.577  0.1112  0.5584 -2.1227
  112OSM    C8F11597   7.037   2.284   5.404  0.1271 -0.7038 -0.6435
  112OSM    H8F11598   7.134   2.316   5.359  0.5548 -0.9389  0.0923
  112OSM    H8G11599   6.983   2.378   5.426 -0.2983 -1.6021  2.6363
  112OSM    C9F11600   6.957   2.171   5.343  0.4059 -0.1798 -0.1845
  112OSM    H9F11601   6.849   2.165   5.362  0.4225  0.5000  0.1565
  112OSM   C10F11602   7.007   2.087   5.251  0.2173 -0.3949  0.6088
  112OSM   H10F11603   6.949   2.003   5.209  0.0342 -0.0340  0.1373
  112OSM   C11F11604   7.150   2.076   5.208  0.0536  0.3125 -0.0458
  112OSM   H11F11605   7.185   1.977   5.245 -2.0695 -0.5406 -0.2020
  112OSM   H11G11606   7.217   2.161   5.232  0.1500  0.3338 -0.3807
  112OSM   C12F11607   7.151   2.066   5.055 -0.1053 -0.7191  0.9840
  112OSM   H12F11608   7.255   2.089   5.025 -0.7948 -0.2373 -1.2497
  112OSM   H12G11609   7.097   2.154   5.014  0.7014 -0.6033  0.1313
  112OSM   C13F11610   7.109   1.938   4.990  0.0202  0.4863 -0.4825
  112OSM   H13F11611   7.002   1.911   5.003  0.0783 -0.2974 -1.5762
  112OSM   H13G11612   7.167   1.851   5.028  0.2451  1.1861  0.8601
  112OSM   C14F11613   7.126   1.930   4.836 -0.1013  0.3380 -0.4446
  112OSM   H14F11614   7.229   1.961   4.807 -0.7296 -0.1964 -3.4863
  112OSM   H14G11615   7.056   2.003   4.791 -2.4688 -0.9599  0.9140
  112OSM   C15F11616   7.095   1.787   4.788  0.6015 -0.4458 -0.5322
  112OSM   H15F11617   6.984   1.782   4.789  0.5591  0.4055  0.3622
  112OSM   H15G11618   7.133   1.711   4.860  1.8297  1.5633  1.0493
  112OSM   C16F11619   7.151   1.756   4.649 -0.4141 -0.3070  1.0143
  112OSM   H16F11620   7.262   1.764   4.646 -0.5302  1.2335 -0.8661
  112OSM   H16G11621   7.118   1.831   4.574  0.6540 -0.6224  0.1967
  112OSM   C17F11622   7.093   1.616   4.603 -0.0843  0.0302  0.1345
  112OSM   H17F11623   6.991   1.616   4.645  0.1737  1.6952  0.8520
  112OSM   H17G11624   7.157   1.537   4.649 -0.7746 -1.3693 -1.2495
  112OSM   C18F11625   7.096   1.592   4.454 -0.5770  0.0556  0.5082
  112OSM   H18F11626   7.030   1.507   4.426 -0.1186 -0.3252  0.5805
  112OSM   H18G11627   7.200   1.591   4.416 -0.3725  0.8543  1.0223
  112OSM   H18H11628   7.059   1.677   4.392 -3.2376 -1.1879  0.2208
  113OSM      N11629   3.450   4.267   6.203  0.3625  0.0548  0.1618
  113OSM    C1511630   3.370   4.353   6.295  0.1432 -0.2308 -0.0899
  113OSM   H15A11631   3.428   4.395   6.375 -2.1818  2.8795  0.1512
  113OSM   H15B11632   3.298   4.289   6.345  0.7043  0.2916  1.4100
  113OSM   H15C11633   3.308   4.425   6.244 -1.4450 -0.3975  1.4849
  113OSM    C1411634   3.364   4.217   6.096  0.4001  0.1331  0.8585
  113OSM   H14A11635   3.314   4.126   6.126  2.3613 -1.4862 -0.5079
  113OSM   H14B11636   3.420   4.179   6.011 -3.0419 -2.7426 -0.3967
  113OSM   H14C11637   3.289   4.288   6.065  0.4708  1.2397  3.0672
  113OSM    C1311638   3.547   4.363   6.143 -0.4389 -0.2019  0.4106
  113OSM   H13A11639   3.604   4.322   6.061 -0.1132 -1.9791  1.4930
  113OSM   H13B11640   3.616   4.391   6.221 -0.0140 -0.5678  0.1719
  113OSM   H13C11641   3.486   4.449   6.119  1.4243  1.2960  0.8281
  113OSM    C1211642   3.517   4.165   6.283  0.9782  0.0011 -0.1077
  113OSM   H12A11643   3.556   4.220   6.368  1.4192 -1.2532  0.5386
  113OSM   H12B11644   3.609   4.130   6.238  2.3809  0.6491  2.0469
  113OSM    C1111645   3.422   4.045   6.338 -0.4906  0.2293 -0.0166
  113OSM   H11A11646   3.329   4.079   6.387 -0.5426 -0.8154  0.6307
  113OSM   H11B11647   3.476   3.995   6.421  0.6140  0.6023 -0.4906
  113OSM      P11648   3.466   3.825   6.197  0.0529 -0.2230  0.3844
  113OSM    O1311649   3.610   3.862   6.202 -0.1117  0.4012 -0.1911
  113OSM    O1411650   3.427   3.710   6.277  0.1673 -0.1890 -0.6330
  113OSM    O1111651   3.419   3.817   6.051 -0.3954  0.4922  0.7068
  113OSM    O1211652   3.385   3.954   6.241  0.2376 -0.4850  0.3592
  113OSM    C1S11653   3.291   3.775   6.010  0.2132 -0.7034 -0.3690
  113OSM    H1S11654   3.213   3.819   6.076 -0.1040 -0.4376 -0.9166
  113OSM    H1T11655   3.281   3.668   6.041 -0.4676 -1.1215 -1.9387
  113OSM     NF11656   3.105   3.778   5.852  0.5615 -0.7450 -0.4650
  113OSM    HNF11657   3.067   3.686   5.842 -1.5156  0.2220 -2.3167
  113OSM    C2S11658   3.246   3.795   5.857 -0.5110 -0.0023 -0.1636
  113OSM    H2S11659   3.276   3.900   5.833  0.7766 -0.3431 -0.1338
  113OSM    C3S11660   3.325   3.694   5.774  0.0133  0.6865 -0.2358
  113OSM    H3S11661   3.291   3.589   5.791 -1.5944  0.8562 -2.1330
  113OSM     O311662   3.460   3.681   5.816 -0.1337  0.0945 -0.4205
  113OSM    HO311663   3.471   3.753   5.878 -2.3156  2.7149 -2.7832
  113OSM    C4S11664   3.302   3.712   5.625 -0.8921 -0.4928 -0.4112
  113OSM    H4S11665   3.367   3.791   5.584 -1.6204 -0.2351 -1.0806
  113OSM    C5S11666   3.214   3.641   5.551  0.4331 -0.1461  0.2095
  113OSM    H5S11667   3.149   3.573   5.606 -0.0576  1.3119  1.5078
  113OSM    C6S11668   3.187   3.661   5.402 -0.2167 -0.0121  0.6118
  113OSM    H6S11669   3.079   3.650   5.381  0.3343 -0.5204 -2.4254
  113OSM    H6T11670   3.246   3.588   5.342  0.3659  1.1021 -0.2316
  113OSM    C7S11671   3.242   3.788   5.330  0.4267  0.3095 -0.8247
  113OSM    H7S11672   3.352   3.785   5.318  0.6158 -1.7523  0.8440
  113OSM    H7T11673   3.214   3.868   5.402 -2.0864 -1.1237 -0.0439
  113OSM    C8S11674   3.176   3.823   5.198  0.8554  0.6297 -0.9330
  113OSM    H8S11675   3.217   3.921   5.165 -2.6416  2.4044 -0.4658
  113OSM    H8T11676   3.066   3.836   5.207  0.8706  0.2243 -0.0635
  113OSM    C9S11677   3.198   3.713   5.094 -0.5314  0.2503 -0.4375
  113OSM    H9S11678   3.132   3.630   5.126  0.6457 -0.1633  0.9999
  113OSM    H9T11679   3.298   3.667   5.084 -1.3046 -1.9151  1.0444
  113OSM   C10S11680   3.158   3.751   4.953 -1.1968  0.6985  0.0616
  113OSM   H10S11681   3.251   3.797   4.915 -0.8304 -1.2916 -1.6446
  113OSM   H10T11682   3.067   3.812   4.972 -2.3192 -1.6387  3.0700
  113OSM   C11S11683   3.121   3.630   4.863  0.0354 -0.4125  0.0136
  113OSM   H11S11684   3.038   3.569   4.906  0.7639 -1.5884 -0.1914
  113OSM   H11T11685   3.213   3.568   4.853  0.5300  0.6429 -3.1007
  113OSM   C12S11686   3.092   3.662   4.720 -0.1748  0.4609  0.6482
  113OSM   H12S11687   3.092   3.566   4.663  0.0692  1.8805 -1.8834
  113OSM   H12T11688   3.175   3.723   4.679 -0.0320  1.0364  1.7550
  113OSM   C13S11689   2.957   3.742   4.701  0.0867  0.1178  0.6483
  113OSM   H13S11690   2.973   3.841   4.747  0.6333  0.0580  0.5896
  113OSM   H13T11691   2.871   3.702   4.760  0.5467 -0.7966  0.7113
  113OSM   C14S11692   2.908   3.757   4.559 -0.9711  0.3039  0.4000
  113OSM   H14S11693   2.813   3.815   4.550 -2.1340 -1.4973  0.5315
  113OSM   H14T11694   2.887   3.657   4.516  2.2261 -0.3884  0.2480
  113OSM   C15S11695   3.021   3.815   4.470 -0.1673  0.5324  0.4950
  113OSM   H15S11696   3.111   3.751   4.482 -0.1759  0.5784  0.8296
  113OSM   H15T11697   3.050   3.913   4.514  0.1124  1.1322 -0.9614
  113OSM   C16S11698   2.969   3.827   4.328 -0.2189  0.3559 -0.2236
  113OSM   H16S11699   2.871   3.879   4.334 -3.0944 -4.4936 -0.1930
  113OSM   H16T11700   2.933   3.730   4.289 -0.0152 -1.2286  3.1983
  113OSM   C17S11701   3.067   3.881   4.221  0.2381 -0.6246  0.1592
  113OSM   H17S11702   3.164   3.826   4.220  0.6028 -0.1507 -3.6242
  113OSM   H17T11703   3.080   3.989   4.242 -0.4153 -0.6771  0.8763
  113OSM   C18S11704   3.027   3.848   4.083 -0.3282 -0.2719 -0.0743
  113OSM   H18S11705   3.108   3.867   4.010  0.3006 -3.1295 -0.2355
  113OSM   H18T11706   2.937   3.909   4.058 -0.0846 -0.3582 -1.1927
  113OSM   H18U11707   2.998   3.741   4.075  0.4749 -0.4583 -0.6046
  113OSM    C1F11708   3.030   3.881   5.899  0.4438 -0.6317 -0.6083
  113OSM     OF11709   3.086   3.987   5.924 -0.3902  0.4350 -0.4008
  113OSM    C2F11710   2.882   3.877   5.922  0.6088  0.1341  0.0735
  113OSM    H2F11711   2.836   3.975   5.945 -0.7066 -0.6096  0.7679
  113OSM    H2G11712   2.873   3.818   6.016  0.9510 -1.5569 -0.9156
  113OSM    C3F11713   2.806   3.798   5.809 -0.8889  0.8206 -0.1575
  113OSM    H3F11714   2.706   3.826   5.848  0.5593  1.9631  3.1823
  113OSM    H3G11715   2.824   3.690   5.796 -1.6329  0.7440 -0.6232
  113OSM    C4F11716   2.829   3.861   5.669  0.2451 -0.1743 -0.0964
  113OSM    H4F11717   2.936   3.862   5.638  0.8822 -1.9054  1.8050
  113OSM    H4G11718   2.799   3.967   5.669  1.1064  0.0879  1.3018
  113OSM    C5F11719   2.746   3.786   5.562  0.1898  0.0161 -0.2531
  113OSM    H5F11720   2.640   3.779   5.594  0.3246  2.3597  0.9475
  113OSM    H5G11721   2.791   3.685   5.554 -0.2584 -0.0635 -2.7650
  113OSM    C6F11722   2.766   3.848   5.413 -0.6635 -0.3011 -0.2830
  113OSM    H6F11723   2.866   3.896   5.408  0.2150 -2.1957 -2.1579
  113OSM    H6G11724   2.694   3.931   5.400  2.6369  3.2686  2.0060
  113OSM    C7F11725   2.745   3.742   5.303  0.3819 -0.0215 -0.3550
  113OSM    H7F11726   2.645   3.698   5.323  2.6935 -5.6765  0.7337
  113OSM    H7G11727   2.811   3.656   5.326 -0.2909 -0.7743 -1.1810
  113OSM    C8F11728   2.739   3.784   5.154  0.3408  0.4315 -0.7511
  113OSM    H8F11729   2.762   3.696   5.091  0.8956 -0.1520  0.2354
  113OSM    H8G11730   2.823   3.855   5.140 -2.1463  3.1460 -3.3829
  113OSM    C9F11731   2.618   3.870   5.125  0.0058  0.0761  0.3208
  113OSM    H9F11732   2.624   3.973   5.164  0.2355  0.5431 -0.8823
  113OSM   C10F11733   2.519   3.825   5.054  0.4394 -0.2297  0.4808
  113OSM   H10F11734   2.437   3.893   5.026  0.5800  0.7250  2.2941
  113OSM   C11F11735   2.500   3.686   4.993  0.6492  0.2170  0.6364
  113OSM   H11F11736   2.443   3.631   5.070  1.1684  0.1732  0.9967
  113OSM   H11G11737   2.600   3.639   4.988  1.3343  1.7221 -0.9773
  113OSM   C12F11738   2.438   3.683   4.851  0.1045 -0.6449  0.4053
  113OSM   H12F11739   2.411   3.580   4.817 -0.9491 -0.5889  1.0306
  113OSM   H12G11740   2.516   3.720   4.781  1.3718 -2.3253  0.8571
  113OSM   C13F11741   2.308   3.774   4.830 -0.1895  0.2215 -0.1372
  113OSM   H13F11742   2.327   3.883   4.839  2.0132 -0.2040  1.1291
  113OSM   H13G11743   2.239   3.750   4.913  0.8136 -0.2809  0.5743
  113OSM   C14F11744   2.257   3.760   4.689  0.3495 -0.0935  0.2589
  113OSM   H14F11745   2.235   3.651   4.684  1.5214 -0.3734  0.7804
  113OSM   H14G11746   2.334   3.781   4.612 -0.1591  1.5857  0.1734
  113OSM   C15F11747   2.113   3.820   4.666  0.2749  0.1972  0.0362
  113OSM   H15F11748   2.111   3.931   4.667  0.0647  0.1938  0.1884
  113OSM   H15G11749   2.043   3.777   4.741 -2.6851  1.4449 -1.7972
  113OSM   C16F11750   2.053   3.789   4.529 -0.4335 -0.5716  0.3099
  113OSM   H16F11751   2.062   3.679   4.524 -1.4572 -0.7408  1.6698
  113OSM   H16G11752   2.118   3.832   4.450 -1.8605 -0.8657 -1.0597
  113OSM   C17F11753   1.907   3.822   4.501  0.3065 -0.3604  0.1156
  113OSM   H17F11754   1.882   3.930   4.514 -2.0617 -0.8110 -0.2689
  113OSM   H17G11755   1.843   3.766   4.572 -1.2959  1.4185  0.1597
  113OSM   C18F11756   1.866   3.785   4.358 -0.0028  0.2109 -0.4311
  113OSM   H18F11757   1.874   3.676   4.339  0.6055 -0.0576  1.1933
  113OSM   H18G11758   1.940   3.836   4.293  1.3353 -1.9799 -0.7082
  113OSM   H18H11759   1.761   3.815   4.337 -0.7335 -2.5053 -0.9855
  114OSM      N11760   1.875   2.309   6.515 -0.3379 -0.3124  0.2462
  114OSM    C1511761   1.749   2.330   6.597  0.1912 -0.3556  0.3007
  114OSM   H15A11762   1.725   2.436   6.597  4.4937  0.8059 -0.6209
  114OSM   H15B11763   1.758   2.289   6.697  2.7343 -1.8309 -0.4400
  114OSM   H15C11764   1.673   2.271   6.549  0.7310 -1.1478  0.4101
  114OSM    C1411765   1.989   2.385   6.576 -0.5506  0.1283  0.1432
  114OSM   H14A11766   1.978   2.491   6.561  0.4294 -0.0496 -2.3358
  114OSM   H14B11767   2.079   2.377   6.517 -1.0375 -1.5721 -0.4382
  114OSM   H14C11768   2.008   2.350   6.676 -1.5071 -0.8102  0.0245
  114OSM    C1311769   1.912   2.157   6.534  0.0086 -0.1173  0.1341
  114OSM   H13A11770   1.894   2.123   6.635 -2.2739 -0.6411 -0.3978
  114OSM   H13B11771   2.013   2.133   6.504  0.3708  0.7204  0.6406
  114OSM   H13C11772   1.847   2.100   6.470  1.0949 -1.9148  0.5677
  114OSM    C1211773   1.856   2.357   6.373 -0.4282  0.4173  0.0033
  114OSM   H12A11774   1.792   2.278   6.337  0.2373 -0.6633  1.1361
  114OSM   H12B11775   1.954   2.349   6.328 -0.7441  0.4123 -0.6962
  114OSM    C1111776   1.807   2.499   6.338  0.2530 -0.2429 -0.0872
  114OSM   H11A11777   1.703   2.515   6.372  0.2002 -1.7156  0.5137
  114OSM   H11B11778   1.797   2.492   6.227 -1.5700 -1.2865  0.1202
  114OSM      P11779   1.858   2.735   6.431  0.0256 -0.0648  0.3065
  114OSM    O1311780   1.778   2.712   6.552 -0.1045 -0.2922 -0.2592
  114OSM    O1411781   1.973   2.817   6.454 -0.1351 -0.6848  0.7958
  114OSM    O1111782   1.759   2.790   6.316  0.5760 -0.1585  0.4495
  114OSM    O1211783   1.905   2.596   6.371 -0.0550  0.0139 -0.1986
  114OSM    C1S11784   1.811   2.836   6.190  1.4293  0.3628  0.4320
  114OSM    H1S11785   1.913   2.793   6.185  1.0139 -0.8347  1.6928
  114OSM    H1T11786   1.819   2.947   6.186  2.1026  0.4026  2.2035
  114OSM     NF11787   1.784   2.838   5.942  0.3345 -0.7988  0.2926
  114OSM    HNF11788   1.734   2.910   5.895 -0.9958 -2.5669 -1.1879
  114OSM    C2S11789   1.719   2.799   6.068  0.5756  1.1283 -0.2502
  114OSM    H2S11790   1.714   2.688   6.072  0.8719  1.1197 -0.1161
  114OSM    C3S11791   1.564   2.853   6.076 -0.0190 -0.0554 -0.0123
  114OSM    H3S11792   1.556   2.964   6.078 -0.8729 -0.1193  1.1604
  114OSM     O311793   1.499   2.813   6.198 -0.1644  0.3852  0.2542
  114OSM    HO311794   1.579   2.806   6.250  0.0851  0.4021 -0.1201
  114OSM    C4S11795   1.473   2.794   5.966 -0.5210 -0.2197 -0.1248
  114OSM    H4S11796   1.455   2.686   5.977 -2.6240  0.2255  1.6482
  114OSM    C5S11797   1.431   2.855   5.858  0.5696 -0.7385  0.8657
  114OSM    H5S11798   1.464   2.955   5.827 -2.6292  0.0881 -0.1962
  114OSM    C6S11799   1.355   2.793   5.746 -0.6827 -0.3768  0.4896
  114OSM    H6S11800   1.332   2.685   5.757  0.2957 -0.4218  2.6478
  114OSM    H6T11801   1.412   2.796   5.651 -0.5436 -1.3878  0.5321
  114OSM    C7S11802   1.214   2.862   5.742 -0.2403  0.0254  0.0062
  114OSM    H7S11803   1.170   2.838   5.841  1.1617  2.6018  1.3534
  114OSM    H7T11804   1.154   2.812   5.662 -0.7723 -2.4190  1.8325
  114OSM    C8S11805   1.198   3.005   5.713 -0.7223  0.4956 -0.1803
  114OSM    H8S11806   1.270   3.069   5.769  0.1583 -0.2905 -0.3853
  114OSM    H8T11807   1.102   3.036   5.760 -1.0530 -1.3847  0.4791
  114OSM    C9S11808   1.195   3.045   5.563 -0.6931 -0.2286 -0.9275
  114OSM    H9S11809   1.122   2.971   5.524 -1.5911  0.0437  0.1622
  114OSM    H9T11810   1.290   3.019   5.513 -0.7390 -0.8474 -0.7092
  114OSM   C10S11811   1.140   3.189   5.540 -0.4917 -0.2326 -0.2677
  114OSM   H10S11812   1.036   3.203   5.576 -0.3676 -1.7459  0.7318
  114OSM   H10T11813   1.133   3.210   5.431  0.5288 -1.3394 -0.5596
  114OSM   C11S11814   1.238   3.305   5.596  0.2433 -0.4148 -0.0827
  114OSM   H11S11815   1.338   3.276   5.556 -0.0101 -0.7305 -0.4974
  114OSM   H11T11816   1.246   3.282   5.705  2.6476 -0.8288 -0.2723
  114OSM   C12S11817   1.208   3.444   5.553  0.2845  0.4927 -0.2631
  114OSM   H12S11818   1.108   3.479   5.586 -0.2897  0.2329 -1.6629
  114OSM   H12T11819   1.213   3.463   5.444 -1.0345  0.5836 -0.3276
  114OSM   C13S11820   1.314   3.542   5.605  0.5725  0.5051  0.2791
  114OSM   H13S11821   1.311   3.643   5.557  2.7981  2.0325  3.0650
  114OSM   H13T11822   1.411   3.496   5.578 -0.1500  0.4914 -2.6957
  114OSM   C14S11823   1.313   3.569   5.761 -0.4995 -0.2696  0.2633
  114OSM   H14S11824   1.346   3.474   5.809 -0.8023  0.1656  1.3767
  114OSM   H14T11825   1.215   3.593   5.809 -0.7256  0.2990 -0.4689
  114OSM   C15S11826   1.415   3.680   5.799 -0.3899  0.6231 -0.2398
  114OSM   H15S11827   1.406   3.763   5.726  3.9493  0.1133 -1.6170
  114OSM   H15T11828   1.517   3.637   5.793  0.2092  1.9389  0.0897
  114OSM   C16S11829   1.390   3.724   5.945  0.2396  0.9270  1.0495
  114OSM   H16S11830   1.283   3.749   5.953  0.1212  0.3176  1.4191
  114OSM   H16T11831   1.458   3.810   5.964  3.7105 -1.4422  0.5379
  114OSM   C17S11832   1.413   3.618   6.047 -0.0148  0.1275  0.3767
  114OSM   H17S11833   1.511   3.566   6.045  1.2830  2.3785  1.5085
  114OSM   H17T11834   1.344   3.532   6.032  1.2328 -0.8264 -0.0240
  114OSM   C18S11835   1.407   3.663   6.195  0.2734 -0.0862 -0.8144
  114OSM   H18S11836   1.482   3.742   6.216  1.4621 -1.4396  0.1693
  114OSM   H18T11837   1.420   3.586   6.273 -0.7202  0.6510  0.1052
  114OSM   H18U11838   1.308   3.712   6.208  0.8597  1.0569 -0.5848
  114OSM    C1F11839   1.906   2.798   5.899 -0.4940  0.1367 -0.2607
  114OSM     OF11840   1.979   2.718   5.969  0.1680 -0.3195  0.2434
  114OSM    C2F11841   1.964   2.847   5.766 -0.0367  0.7678 -0.0991
  114OSM    H2F11842   2.073   2.847   5.784 -0.3299 -1.2301  2.2160
  114OSM    H2G11843   1.931   2.949   5.737 -0.6257 -0.1586 -2.9595
  114OSM    C3F11844   1.932   2.742   5.651 -0.3351 -0.1462 -0.0022
  114OSM    H3F11845   1.987   2.646   5.658 -0.9072 -0.3602  1.9007
  114OSM    H3G11846   1.972   2.788   5.558  0.1134 -1.2793 -0.3821
  114OSM    C4F11847   1.784   2.714   5.622  0.4712  0.0191 -0.2003
  114OSM    H4F11848   1.733   2.811   5.635  0.9040  0.0624  1.5092
  114OSM    H4G11849   1.751   2.646   5.704  1.1595 -1.1408 -0.8426
  114OSM    C5F11850   1.764   2.647   5.487 -0.6959 -0.2230 -0.5925
  114OSM    H5F11851   1.809   2.718   5.413 -0.5796  1.2870  0.8657
  114OSM    H5G11852   1.656   2.637   5.462 -0.1200 -3.0367 -2.4964
  114OSM    C6F11853   1.830   2.498   5.492  0.4325  0.3087  1.0766
  114OSM    H6F11854   1.820   2.456   5.594  0.2048  0.7475  1.2354
  114OSM    H6G11855   1.940   2.508   5.485  0.3443  2.3799  2.0407
  114OSM    C7F11856   1.776   2.408   5.389 -0.4356 -0.0922 -0.3003
  114OSM    H7F11857   1.805   2.304   5.417 -1.1129 -0.3351 -0.4682
  114OSM    H7G11858   1.816   2.438   5.290 -2.0174 -0.3641 -1.0498
  114OSM    C8F11859   1.624   2.400   5.369  0.3186 -0.3545 -0.9665
  114OSM    H8F11860   1.592   2.498   5.328  1.2016 -0.7878 -2.8078
  114OSM    H8G11861   1.568   2.387   5.464 -0.3518  0.6736 -1.2035
  114OSM    C9F11862   1.597   2.290   5.277  0.4157 -0.3701  0.7172
  114OSM    H9F11863   1.560   2.198   5.324  0.6740 -0.2777  1.1093
  114OSM   C10F11864   1.598   2.294   5.141 -0.1911  0.6500 -0.0856
  114OSM   H10F11865   1.580   2.201   5.086  1.8483  0.8107 -1.1192
  114OSM   C11F11866   1.634   2.410   5.046  0.0820  0.6115 -0.2709
  114OSM   H11F11867   1.737   2.403   5.004  1.1064 -0.3290  2.1997
  114OSM   H11G11868   1.630   2.504   5.105 -0.4973 -0.1708  0.9914
  114OSM   C12F11869   1.534   2.418   4.930 -0.2359  0.0666  0.5099
  114OSM   H12F11870   1.555   2.514   4.879 -0.6593 -0.3677 -0.5370
  114OSM   H12G11871   1.429   2.438   4.962 -0.5893 -1.1436  0.1757
  114OSM   C13F11872   1.532   2.307   4.834  0.8105 -0.2370  0.8259
  114OSM   H13F11873   1.454   2.307   4.756  0.3506  0.6544  1.2682
  114OSM   H13G11874   1.511   2.215   4.893 -1.6829 -1.1581 -1.3319
  114OSM   C14F11875   1.665   2.289   4.764  0.0854  0.2187  0.9801
  114OSM   H14F11876   1.743   2.280   4.842  0.7891 -0.7323  0.1799
  114OSM   H14G11877   1.681   2.367   4.686  3.2101 -3.2574 -2.2220
  114OSM   C15F11878   1.662   2.150   4.695 -0.4909  0.2406  0.2539
  114OSM   H15F11879   1.572   2.145   4.631  0.2299 -0.4288 -0.7467
  114OSM   H15G11880   1.638   2.078   4.776  1.5988 -0.8684 -0.0143
  114OSM   C16F11881   1.787   2.120   4.614  0.2702  0.5341 -0.3065
  114OSM   H16F11882   1.879   2.133   4.676 -0.3137  0.9623  0.4850
  114OSM   H16G11883   1.799   2.193   4.531  1.7161 -1.3144 -1.8222
  114OSM   C17F11884   1.795   1.977   4.558  0.4414 -0.5686 -0.2021
  114OSM   H17F11885   1.798   1.898   4.636 -2.1996 -0.5484  0.0112
  114OSM   H17G11886   1.895   1.979   4.508  1.5227 -1.4669  1.7882
  114OSM   C18F11887   1.675   1.940   4.465  0.0510 -0.0116 -0.3585
  114OSM   H18F11888   1.694   1.851   4.402  0.3544  0.8867 -1.5579
  114OSM   H18G11889   1.641   2.022   4.398 -0.3708 -1.0044 -1.3927
  114OSM   H18H11890   1.591   1.904   4.528  0.0268 -0.8694 -0.8668
  115OSM      N11891   0.633   5.333   6.988 -0.8019 -0.0633 -0.0481
  115OSM    C1511892   0.498   5.340   7.034 -0.1788 -0.2627  0.7341
  115OSM   H15A11893   0.445   5.246   7.033  0.9853 -0.9689  2.1190
  115OSM   H15B11894   0.437   5.406   6.973  0.5475 -0.9685 -0.8004
  115OSM   H15C11895   0.489   5.377   7.135  0.0144 -0.4143  0.8074
  115OSM    C1411896   0.703   5.460   7.026 -0.2217  0.1323 -0.3168
  115OSM   H14A11897   0.654   5.547   6.983 -0.0318  0.3402 -0.1111
  115OSM   H14B11898   0.807   5.457   6.999 -0.0769 -1.7841  0.3627
  115OSM   H14C11899   0.704   5.481   7.132 -0.7605  0.1353 -0.3066
  115OSM    C1311900   0.694   5.214   7.063  0.0412  0.6003  0.1032
  115OSM   H13A11901   0.801   5.214   7.075 -0.0745 -0.3762  1.3395
  115OSM   H13B11902   0.675   5.125   7.006 -0.8993  1.8670 -1.6591
  115OSM   H13C11903   0.645   5.211   7.159  2.3651  0.0684  1.3414
  115OSM    C1211904   0.650   5.312   6.841  0.3900  0.3577 -0.0708
  115OSM   H12A11905   0.755   5.294   6.823  0.9957  1.3849  2.1494
  115OSM   H12B11906   0.635   5.409   6.795  0.8581  0.5410  0.1604
  115OSM    C1111907   0.568   5.200   6.773 -0.5705 -0.5673  0.1667
  115OSM   H11A11908   0.589   5.226   6.668 -2.1398  2.2399  0.4464
  115OSM   H11B11909   0.457   5.203   6.777 -0.7039 -2.1852 -1.3267
  115OSM      P11910   0.742   5.009   6.752  0.0167 -0.1156 -0.3878
  115OSM    O1311911   0.861   5.091   6.773 -0.6223 -0.6675  0.3659
  115OSM    O1411912   0.754   4.865   6.796  0.1031 -0.1120  0.2519
  115OSM    O1111913   0.720   5.014   6.590 -0.0117  0.0840 -0.1358
  115OSM    O1211914   0.609   5.072   6.811 -0.1778  0.0755 -0.0913
  115OSM    C1S11915   0.608   4.940   6.547  0.1812 -0.1773 -0.5628
  115OSM    H1S11916   0.513   4.989   6.579 -0.2326 -0.8540 -0.7278
  115OSM    H1T11917   0.612   4.836   6.588  2.9081 -0.2274 -0.7905
  115OSM     NF11918   0.487   4.871   6.322  0.0210  0.6641  0.4817
  115OSM    HNF11919   0.496   4.773   6.303 -0.0122  0.6158  0.7142
  115OSM    C2S11920   0.609   4.930   6.384  0.2514 -0.5571 -0.6092
  115OSM    H2S11921   0.615   5.032   6.341  1.2813  0.2853  1.4400
  115OSM    C3S11922   0.739   4.853   6.341 -0.1421 -0.4944 -0.2007
  115OSM    H3S11923   0.749   4.749   6.378 -0.1130  0.4753  2.7525
  115OSM     O311924   0.859   4.916   6.388  0.1874  0.0793 -0.0877
  115OSM    HO311925   0.832   4.961   6.469  1.1926 -0.5037  0.5972
  115OSM    C4S11926   0.758   4.853   6.185 -0.6967  0.6922 -0.1976
  115OSM    H4S11927   0.754   4.749   6.152 -0.9257  0.9912 -1.1291
  115OSM    C5S11928   0.781   4.948   6.090 -0.7362  0.4894 -0.6908
  115OSM    H5S11929   0.790   5.052   6.126  1.8904 -1.4736  5.6767
  115OSM    C6S11930   0.794   4.934   5.941 -0.8089  0.0731 -0.6364
  115OSM    H6S11931   0.711   4.993   5.896 -2.5470 -1.6905  0.1155
  115OSM    H6T11932   0.766   4.832   5.909  1.2986 -1.0990  1.0093
  115OSM    C7S11933   0.941   4.958   5.888  0.6220  0.6550  0.4527
  115OSM    H7S11934   1.010   4.902   5.954 -0.9650 -2.3692 -0.2779
  115OSM    H7T11935   0.956   5.069   5.886 -0.4799  0.8106  0.0838
  115OSM    C8S11936   0.967   4.907   5.736 -0.1233  0.3709 -0.2862
  115OSM    H8S11937   0.928   4.803   5.727 -0.3995  0.5557 -1.4104
  115OSM    H8T11938   1.076   4.906   5.716  0.1985  1.0336  1.3216
  115OSM    C9S11939   0.909   5.002   5.625 -0.5058 -1.1314 -0.1650
  115OSM    H9S11940   0.979   5.087   5.608 -0.3539 -1.2431 -0.0966
  115OSM    H9T11941   0.808   5.045   5.644 -0.1192  1.5886 -3.2808
  115OSM   C10S11942   0.905   4.934   5.486  0.2520  0.2007  0.2969
  115OSM   H10S11943   0.870   4.829   5.501  0.5456 -0.3504 -2.3223
  115OSM   H10T11944   1.007   4.941   5.442 -0.2615  3.3001 -0.6523
  115OSM   C11S11945   0.804   4.994   5.388 -0.3192  0.5071 -0.0498
  115OSM   H11S11946   0.833   5.100   5.374  2.1074 -0.4288 -3.6224
  115OSM   H11T11947   0.706   4.985   5.439 -0.6415  0.9408 -0.5832
  115OSM   C12S11948   0.776   4.920   5.254 -0.3975 -0.1669  0.2165
  115OSM   H12S11949   0.737   4.818   5.274  0.4577 -0.3695  0.9241
  115OSM   H12T11950   0.871   4.908   5.198 -1.2666 -0.2353 -1.2863
  115OSM   C13S11951   0.694   5.005   5.160  0.2500 -0.7577  0.2059
  115OSM   H13S11952   0.751   5.101   5.160  0.9174 -1.1195 -1.2887
  115OSM   H13T11953   0.599   5.034   5.209  0.3809  0.4737 -0.2296
  115OSM   C14S11954   0.675   4.951   5.021 -0.1501 -0.9891 -0.3273
  115OSM   H14S11955   0.644   4.844   5.024  0.1783 -1.0990 -0.7740
  115OSM   H14T11956   0.777   4.954   4.976  0.4896 -0.9782  1.0550
  115OSM   C15S11957   0.581   5.034   4.936 -0.3979 -0.3735 -0.2622
  115OSM   H15S11958   0.639   5.125   4.913 -0.4963  0.6474  3.0697
  115OSM   H15T11959   0.502   5.070   5.005  1.0168  0.5338  0.9227
  115OSM   C16S11960   0.523   4.957   4.814  0.0496 -0.0958 -0.6378
  115OSM   H16S11961   0.442   5.017   4.768 -0.6742 -0.2962  0.3274
  115OSM   H16T11962   0.469   4.869   4.856 -0.0703  0.1150 -0.3480
  115OSM   C17S11963   0.629   4.902   4.723 -0.3568 -0.1611 -0.3392
  115OSM   H17S11964   0.585   4.865   4.628  3.2242  1.2120 -2.7304
  115OSM   H17T11965   0.680   4.822   4.780 -1.5621 -0.5012  0.3101
  115OSM   C18S11966   0.736   5.009   4.677  0.1320  0.4502 -0.7479
  115OSM   H18S11967   0.677   5.102   4.664  0.8911  0.7609 -2.2214
  115OSM   H18T11968   0.785   4.982   4.581  1.2020 -0.5845  0.0608
  115OSM   H18U11969   0.812   5.022   4.757  0.7285 -0.8521 -1.0710
  115OSM    C1F11970   0.366   4.928   6.330 -0.1994 -0.3046  0.0524
  115OSM     OF11971   0.347   5.036   6.388 -0.2596  0.5217 -0.3227
  115OSM    C2F11972   0.258   4.842   6.264 -0.0003 -0.4903  0.0229
  115OSM    H2F11973   0.232   4.759   6.332  0.4710  0.0006  0.8188
  115OSM    H2G11974   0.321   4.804   6.180  0.0740  2.0590 -1.1731
  115OSM    C3F11975   0.134   4.922   6.226  0.0221 -0.0845  0.0536
  115OSM    H3F11976   0.140   4.985   6.135  1.0273  2.2335  1.6326
  115OSM    H3G11977   0.103   4.990   6.308  0.4395  0.9658 -0.6465
  115OSM    C4F11978   0.019   4.824   6.204  0.0069 -0.0411  0.1915
  115OSM    H4F11979  -0.072   4.887   6.199  1.1862  1.6434 -2.5459
  115OSM    H4G11980   0.004   4.754   6.289 -2.6450  2.7021  2.2006
  115OSM    C5F11981   0.023   4.759   6.063  0.4076 -0.1897  0.5894
  115OSM    H5F11982  -0.055   4.680   6.063  0.4624 -0.2741 -1.1405
  115OSM    H5G11983   0.120   4.706   6.051  0.5956  0.0925  0.8440
  115OSM    C6F11984   0.007   4.860   5.943  1.0742 -0.3947 -0.1321
  115OSM    H6F11985   0.069   4.952   5.935  0.4893 -0.1220 -2.2271
  115OSM    H6G11986  -0.099   4.893   5.952  0.6701 -2.2173  3.5185
  115OSM    C7F11987   0.038   4.797   5.808 -0.1446 -0.1607 -0.3486
  115OSM    H7F11988  -0.041   4.724   5.780 -0.7432  0.2442  0.2665
  115OSM    H7G11989   0.136   4.745   5.813 -1.0228 -1.7381  3.1013
  115OSM    C8F11990   0.042   4.902   5.692  0.0570 -0.2467  0.8721
  115OSM    H8F11991   0.132   4.964   5.713  0.0601  0.8886 -2.0679
  115OSM    H8G11992  -0.045   4.969   5.706  0.1033 -0.4864  2.4585
  115OSM    C9F11993   0.058   4.832   5.558 -0.4184  0.5002  0.8183
  115OSM    H9F11994   0.161   4.801   5.536 -1.4838 -1.1809 -2.3924
  115OSM   C10F11995  -0.039   4.799   5.475  0.1105  0.4960  0.2271
  115OSM   H10F11996  -0.016   4.755   5.377 -1.0909 -1.2865  0.6953
  115OSM   C11F11997  -0.192   4.816   5.489 -0.2722 -0.1218  0.2742
  115OSM   H11F11998  -0.218   4.811   5.596  1.7628 -1.0730  0.7789
  115OSM   H11G11999  -0.247   4.734   5.439 -3.9037  2.7095 -0.8125
  115OSM   C12F12000  -0.238   4.951   5.434 -0.2078  0.4428 -0.2839
  115OSM   H12F12001  -0.198   4.979   5.335  0.6861  1.7551  0.4273
  115OSM   H12G12002  -0.207   5.024   5.511 -2.7793  0.0380  1.2875
  115OSM   C13F12003  -0.394   4.950   5.413 -0.4225  0.3479 -0.1544
  115OSM   H13F12004  -0.415   5.045   5.359 -2.2050 -0.6670 -1.3382
  115OSM   H13G12005  -0.441   4.939   5.513  0.1622 -0.3275  0.0551
  115OSM   C14F12006  -0.460   4.835   5.327 -0.5922  0.4310 -0.2592
  115OSM   H14F12007  -0.450   4.738   5.379  0.1303  1.3018  1.2981
  115OSM   H14G12008  -0.408   4.836   5.228  0.6212 -0.9196  0.3281
  115OSM   C15F12009  -0.609   4.856   5.296 -0.5921 -0.2213 -0.6233
  115OSM   H15F12010  -0.620   4.955   5.247  0.3451 -0.9918 -2.4918
  115OSM   H15G12011  -0.656   4.868   5.396  1.4199  0.5800  0.2859
  115OSM   C16F12012  -0.657   4.736   5.209  0.6748  0.1049 -0.2714
  115OSM   H16F12013  -0.640   4.647   5.273  0.5257 -1.2742 -2.0787
  115OSM   H16G12014  -0.611   4.715   5.110  0.5948 -1.2802 -0.0348
  115OSM   C17F12015  -0.802   4.746   5.186  0.3264 -0.5364  1.1244
  115OSM   H17F12016  -0.828   4.829   5.117 -2.7159 -2.8349 -0.7943
  115OSM   H17G12017  -0.871   4.759   5.272 -0.6640  0.6410  0.1994
  115OSM   C18F12018  -0.869   4.624   5.113 -0.4029 -0.3216 -0.4905
  115OSM   H18F12019  -0.972   4.650   5.083 -0.4330  1.1600  0.7716
  115OSM   H18G12020  -0.872   4.532   5.175 -0.2010 -1.8746 -2.6715
  115OSM   H18H12021  -0.809   4.612   5.021  1.8149  3.9797  0.1056
  116OSM      N12022   3.165   3.670   6.575  0.2876  0.1827 -0.2798
  116OSM    C1512023   3.215   3.805   6.617 -0.9189  0.2748 -0.5845
  116OSM   H15A12024   3.195   3.826   6.721 -1.3468  0.2678 -0.6645
  116OSM   H15B12025   3.177   3.880   6.549  2.5183  0.9521 -1.9989
  116OSM   H15C12026   3.323   3.811   6.613 -0.6896  0.6981  3.0390
  116OSM    C1412027   3.230   3.579   6.668 -0.0445 -0.0094  0.0622
  116OSM   H14A12028   3.333   3.565   6.637 -1.0334 -0.5238 -3.4612
  116OSM   H14B12029   3.184   3.482   6.673 -2.0747  0.9237  0.3127
  116OSM   H14C12030   3.224   3.614   6.770 -0.6364  0.2677 -0.0684
  116OSM    C1312031   3.014   3.673   6.604 -0.7678 -0.7234  0.0580
  116OSM   H13A12032   2.995   3.710   6.703 -2.1923 -0.7670 -0.1814
  116OSM   H13B12033   2.969   3.575   6.594 -0.1304 -0.9993 -0.1639
  116OSM   H13C12034   2.968   3.742   6.535 -0.6870 -0.2954  0.4295
  116OSM    C1212035   3.203   3.645   6.431 -0.5180 -0.4378 -0.8471
  116OSM   H12A12036   3.310   3.655   6.421 -0.5783 -0.9874 -2.3322
  116OSM   H12B12037   3.164   3.728   6.374  1.5414  0.5913 -0.8266
  116OSM    C1112038   3.175   3.507   6.364  0.3696  0.6255 -0.0156
  116OSM   H11A12039   3.210   3.433   6.439 -0.0244  1.1658  0.7096
  116OSM   H11B12040   3.237   3.505   6.272  1.3005  4.9102  0.2871
  116OSM      P12041   2.969   3.576   6.217  0.1568  0.1845 -0.1027
  116OSM    O1312042   2.824   3.558   6.226  0.4339  0.3844  0.1251
  116OSM    O1412043   3.025   3.713   6.228 -0.1913  0.0844  0.3644
  116OSM    O1112044   3.008   3.504   6.084 -0.2678  0.3310 -0.1075
  116OSM    O1212045   3.038   3.488   6.329  0.2682 -0.3392  0.2338
  116OSM    C1S12046   3.052   3.367   6.088  0.0670 -0.2743  0.5593
  116OSM    H1S12047   3.008   3.315   6.175 -0.5801 -0.3737  0.1853
  116OSM    H1T12048   3.162   3.356   6.099 -0.0490 -1.4937  0.6433
  116OSM     NF12049   3.073   3.154   5.972  0.3347  0.2388 -0.0170
  116OSM    HNF12050   3.157   3.146   5.918 -1.0449  0.4065 -2.3248
  116OSM    C2S12051   3.018   3.288   5.958  0.1729  0.6543  0.6191
  116OSM    H2S12052   2.908   3.273   5.955  0.3768 -2.1402  2.9258
  116OSM    C3S12053   3.061   3.370   5.836 -0.0024  0.3094  0.0165
  116OSM    H3S12054   3.170   3.388   5.846  0.1040 -0.4059  0.1969
  116OSM     O312055   2.995   3.500   5.820 -0.4986  0.2155 -0.4147
  116OSM    HO312056   2.952   3.506   5.906 -2.1948 -1.1701 -1.1196
  116OSM    C4S12057   3.037   3.299   5.704 -0.5313  0.3248  0.1722
  116OSM    H4S12058   2.932   3.270   5.688 -0.4179  0.2756 -0.5140
  116OSM    C5S12059   3.127   3.279   5.608 -0.3436  0.7815  0.3806
  116OSM    H5S12060   3.230   3.316   5.621  0.7240 -2.4483  2.3486
  116OSM    C6S12061   3.097   3.215   5.480  0.5139  0.3157  0.1752
  116OSM    H6S12062   3.011   3.147   5.498 -0.3056  1.3275  0.1632
  116OSM    H6T12063   3.177   3.150   5.439  0.7462 -0.2090  1.4235
  116OSM    C7S12064   3.051   3.312   5.373  0.1212  0.6992  0.7056
  116OSM    H7S12065   3.138   3.367   5.332  0.0697  0.0599 -0.3112
  116OSM    H7T12066   2.969   3.372   5.418 -1.0413 -0.6632  0.4701
  116OSM    C8S12067   2.999   3.237   5.240  0.9273  0.0642 -0.4280
  116OSM    H8S12068   2.942   3.305   5.172  0.3051 -0.8390 -0.8222
  116OSM    H8T12069   2.924   3.163   5.274  0.4370  0.4508 -0.6425
  116OSM    C9S12070   3.104   3.161   5.173  0.4613 -0.1632  1.1530
  116OSM    H9S12071   3.126   3.062   5.218 -1.4009  0.1535  2.9104
  116OSM    H9T12072   3.194   3.225   5.175 -0.7793  1.6276  2.4783
  116OSM   C10S12073   3.077   3.129   5.024  0.5740  0.3867  0.4255
  116OSM   H10S12074   2.970   3.106   5.003  0.8861  1.0873 -2.3912
  116OSM   H10T12075   3.140   3.051   4.976  0.4338  0.9722 -0.7444
  116OSM   C11S12076   3.096   3.260   4.951  0.2983  0.2860  0.2258
  116OSM   H11S12077   3.201   3.296   4.944  0.4096 -0.0745  0.0173
  116OSM   H11T12078   3.050   3.347   5.003  0.5098  0.0901  0.7455
  116OSM   C12S12079   3.042   3.269   4.803  0.7780  0.4652 -0.2634
  116OSM   H12S12080   3.053   3.172   4.750 -0.0075 -1.5952  3.0440
  116OSM   H12T12081   3.097   3.352   4.756  0.8461  0.0824 -0.8700
  116OSM   C13S12082   2.894   3.310   4.790 -1.1496  0.2226  0.2247
  116OSM   H13S12083   2.870   3.408   4.837  2.1361  1.5336 -0.5215
  116OSM   H13T12084   2.828   3.236   4.840  0.8212 -1.4755  0.4630
  116OSM   C14S12085   2.860   3.339   4.642  0.2677  0.7091 -0.0702
  116OSM   H14S12086   2.876   3.250   4.577 -2.2586  0.1645 -0.0403
  116OSM   H14T12087   2.925   3.418   4.599  3.2994 -0.6038  1.7511
  116OSM   C15S12088   2.717   3.382   4.614  0.1274 -0.1226  0.3977
  116OSM   H15S12089   2.678   3.467   4.673 -3.5340 -1.8760  0.8160
  116OSM   H15T12090   2.650   3.294   4.629 -0.4749 -0.4173 -3.0530
  116OSM   C16S12091   2.710   3.412   4.464  0.4147 -0.1921  0.6548
  116OSM   H16S12092   2.743   3.320   4.413 -0.0183 -0.5795  1.0554
  116OSM   H16T12093   2.777   3.500   4.460  2.8204 -1.7301  3.2674
  116OSM   C17S12094   2.574   3.455   4.407 -0.3758  0.1289  0.5456
  116OSM   H17S12095   2.512   3.366   4.386  0.8385 -0.5871 -0.1527
  116OSM   H17T12096   2.593   3.503   4.309 -1.7576  1.1217  0.7392
  116OSM   C18S12097   2.502   3.562   4.495 -0.0810 -0.2619 -0.3827
  116OSM   H18S12098   2.424   3.615   4.437  0.7115 -0.1602 -1.3812
  116OSM   H18T12099   2.574   3.621   4.556 -1.7731  0.1261  1.3727
  116OSM   H18U12100   2.446   3.510   4.576 -0.2769  0.5043 -0.0103
  116OSM    C1F12101   3.027   3.071   6.062  0.1070  0.0221  0.5023
  116OSM     OF12102   2.927   3.095   6.123  0.1502  0.6215 -0.2544
  116OSM    C2F12103   3.105   2.946   6.075 -0.1142 -0.0921  0.0961
  116OSM    H2F12104   3.115   2.931   6.185  1.9210  3.5408  0.5697
  116OSM    H2G12105   3.208   2.966   6.040 -0.7581  3.5459 -0.0823
  116OSM    C3F12106   3.050   2.833   5.999 -0.6182 -0.7315 -0.5810
  116OSM    H3F12107   2.943   2.830   6.027 -0.7528  2.3779 -0.3703
  116OSM    H3G12108   3.114   2.746   6.024 -0.4422  0.0893  2.1727
  116OSM    C4F12109   3.052   2.846   5.849 -0.6162 -0.2575 -0.0801
  116OSM    H4F12110   3.151   2.824   5.804 -1.0454  0.7896 -1.6185
  116OSM    H4G12111   3.009   2.943   5.817 -1.6793 -0.6489  0.1329
  116OSM    C5F12112   2.953   2.746   5.774  0.2733 -0.0939 -0.8330
  116OSM    H5F12113   2.857   2.802   5.784  0.0856 -0.6838  1.0691
  116OSM    H5G12114   2.940   2.657   5.840  1.9273  0.7314  0.7014
  116OSM    C6F12115   3.009   2.699   5.638  0.2638 -0.2443  0.0808
  116OSM    H6F12116   3.090   2.628   5.665  2.0218  1.4813 -0.3985
  116OSM    H6G12117   3.043   2.795   5.592  2.1687 -0.6179  0.6314
  116OSM    C7F12118   2.893   2.653   5.555  0.3625 -0.3260 -0.8381
  116OSM    H7F12119   2.829   2.736   5.516 -1.6947 -0.4989  1.8847
  116OSM    H7G12120   2.834   2.583   5.618 -0.7396  1.4542  0.2204
  116OSM    C8F12121   2.956   2.574   5.437 -0.1982 -0.9653 -0.7509
  116OSM    H8F12122   2.873   2.518   5.390 -0.4837  2.0598 -4.3280
  116OSM    H8G12123   3.034   2.500   5.464  0.7435 -0.4622 -1.9669
  116OSM    C9F12124   3.005   2.676   5.339  0.0710  0.8518 -0.8425
  116OSM    H9F12125   3.067   2.752   5.388  0.6813  0.1289 -0.4843
  116OSM   C10F12126   2.977   2.688   5.209 -0.1529 -0.0376  1.0069
  116OSM   H10F12127   3.017   2.778   5.160 -1.9724  0.5111  0.4834
  116OSM   C11F12128   2.898   2.587   5.120 -0.1678 -0.9036 -0.1419
  116OSM   H11F12129   2.795   2.625   5.107  0.0519  0.0770  0.8997
  116OSM   H11G12130   2.899   2.490   5.173 -1.8709  0.1063  1.8675
  116OSM   C12F12131   2.963   2.557   4.981  0.1635 -0.2175 -0.7322
  116OSM   H12F12132   2.901   2.480   4.931 -0.5690 -0.0965 -0.0281
  116OSM   H12G12133   3.057   2.504   5.009 -1.7748 -2.8836  1.2374
  116OSM   C13F12134   3.002   2.680   4.893  0.3489  0.3345  0.1229
  116OSM   H13F12135   3.040   2.630   4.801  0.0516  0.7162 -0.2073
  116OSM   H13G12136   3.090   2.730   4.937  0.4118 -0.6928  1.2074
  116OSM   C14F12137   2.898   2.790   4.853 -0.1078 -0.2111 -0.3141
  116OSM   H14F12138   2.889   2.864   4.936  2.7892  1.3862 -1.2852
  116OSM   H14G12139   2.805   2.738   4.822 -0.0541 -0.4060 -0.1542
  116OSM   C15F12140   2.965   2.872   4.740 -0.2058 -0.0761  0.0656
  116OSM   H15F12141   3.024   2.806   4.672  2.9312  1.5869  0.9614
  116OSM   H15G12142   3.041   2.933   4.794  0.6779 -1.1779  0.1127
  116OSM   C16F12143   2.883   2.967   4.655  0.3304 -0.1774 -0.2482
  116OSM   H16F12144   2.957   3.027   4.596 -0.8607  1.1620 -0.4375
  116OSM   H16G12145   2.817   3.035   4.713  0.8520  0.8047 -0.7699
  116OSM   C17F12146   2.802   2.884   4.561 -0.4074  0.8126  0.2718
  116OSM   H17F12147   2.722   2.830   4.614  0.0053  0.6583  0.7453
  116OSM   H17G12148   2.867   2.802   4.523  0.2510  1.3132  0.2894
  116OSM   C18F12149   2.753   2.967   4.436 -0.1320  0.4980 -0.0368
  116OSM   H18F12150   2.835   2.969   4.361 -1.3935 -0.1197 -1.4963
  116OSM   H18G12151   2.729   3.070   4.469 -0.5141 -0.0620  1.5411
  116OSM   H18H12152   2.659   2.927   4.393 -0.0411 -0.4356  0.5911
  117OSM      N12153   1.531   0.770   7.315 -0.6700  0.1539  0.3966
  117OSM    C1512154   1.618   0.850   7.401  0.8889  0.4152  0.3827
  117OSM   H15A12155   1.697   0.891   7.339  0.8387 -1.4537 -1.0338
  117OSM   H15B12156   1.659   0.790   7.481 -0.1500 -0.1546  0.5099
  117OSM   H15C12157   1.560   0.933   7.435  0.2639  0.2540 -0.2534
  117OSM    C1412158   1.436   0.684   7.383 -0.0611 -0.4245  0.4086
  117OSM   H14A12159   1.406   0.597   7.326  0.0713  0.1597 -0.5812
  117OSM   H14B12160   1.344   0.735   7.407  0.8710  1.8732 -0.6155
  117OSM   H14C12161   1.476   0.642   7.474  4.8265  1.1368 -0.7270
  117OSM    C1312162   1.467   0.867   7.219  0.1678 -0.0129 -0.8898
  117OSM   H13A12163   1.396   0.926   7.275  0.0055 -1.9730  1.0961
  117OSM   H13B12164   1.404   0.809   7.154  0.9510  0.6295 -2.2817
  117OSM   H13C12165   1.535   0.928   7.161 -1.0533  1.0822 -1.2286
  117OSM    C1212166   1.636   0.685   7.230  0.4396 -0.2410 -0.0703
  117OSM   H12A12167   1.690   0.613   7.290 -0.0713 -0.4629  0.1390
  117OSM   H12B12168   1.712   0.753   7.197  1.1945 -1.9052 -1.9621
  117OSM    C1112169   1.594   0.612   7.104  0.6513 -0.0649 -0.0032
  117OSM   H11A12170   1.677   0.554   7.058 -0.5554 -2.7496  0.9999
  117OSM   H11B12171   1.562   0.690   7.032  1.1676  1.0068  0.8852
  117OSM      P12172   1.372   0.500   7.045  0.3203  0.5688  0.4532
  117OSM    O1312173   1.280   0.391   7.096 -0.0975 -0.6491 -0.3618
  117OSM    O1412174   1.313   0.631   7.013 -0.2273  0.7961  0.4969
  117OSM    O1112175   1.448   0.452   6.924  0.1154 -0.4214 -0.0957
  117OSM    O1212176   1.494   0.521   7.140 -0.3164  0.1738  0.6170
  117OSM    C1S12177   1.391   0.385   6.812 -1.0068 -0.5697  0.0505
  117OSM    H1S12178   1.285   0.357   6.824 -1.1642  0.4572  1.2222
  117OSM    H1T12179   1.453   0.294   6.795  0.4460  0.1221  1.3119
  117OSM     NF12180   1.352   0.378   6.570  0.0252 -0.5040 -0.2747
  117OSM    HNF12181   1.408   0.333   6.502 -1.3925  0.8273 -2.4702
  117OSM    C2S12182   1.413   0.458   6.675 -0.5872  0.2199  0.0523
  117OSM    H2S12183   1.355   0.552   6.689 -2.1630 -0.7139  0.0474
  117OSM    C3S12184   1.564   0.501   6.645 -0.0952  0.2514  0.7341
  117OSM    H3S12185   1.633   0.414   6.637 -2.0883 -1.2788 -0.6094
  117OSM     O312186   1.617   0.572   6.760  0.5142 -0.0037  0.5278
  117OSM    HO312187   1.574   0.534   6.836  4.2622 -0.7377  2.4875
  117OSM    C4S12188   1.576   0.584   6.522  0.2598  0.3404 -0.4042
  117OSM    H4S12189   1.644   0.541   6.447 -1.1703 -2.7754 -0.0727
  117OSM    C5S12190   1.505   0.695   6.500 -0.3676  0.5469  0.2280
  117OSM    H5S12191   1.444   0.743   6.578  0.3578  1.1328  0.4511
  117OSM    C6S12192   1.509   0.782   6.370  0.7118  0.5450  0.1960
  117OSM    H6S12193   1.570   0.873   6.389 -1.0991  1.5159  1.8094
  117OSM    H6T12194   1.406   0.817   6.344 -0.2487 -0.9577  1.7507
  117OSM    C7S12195   1.565   0.705   6.250  0.0883  1.0522 -0.5308
  117OSM    H7S12196   1.518   0.609   6.220 -0.7706  1.2325  0.2011
  117OSM    H7T12197   1.670   0.680   6.276 -0.1803 -0.9058 -1.1473
  117OSM    C8S12198   1.581   0.785   6.124 -0.7735  0.2007  0.2441
  117OSM    H8S12199   1.681   0.831   6.137 -1.5684  1.5364  2.1248
  117OSM    H8T12200   1.524   0.880   6.126  1.7611  1.7915  1.3893
  117OSM    C9S12201   1.564   0.711   5.991  0.0254 -0.4985 -0.2745
  117OSM    H9S12202   1.464   0.663   5.981  1.0262 -2.4325 -1.6834
  117OSM    H9T12203   1.640   0.630   5.996  2.3476  1.5421 -0.6121
  117OSM   C10S12204   1.584   0.805   5.869  0.6019 -0.4352 -0.6835
  117OSM   H10S12205   1.680   0.857   5.888 -0.6755  2.0101 -0.5710
  117OSM   H10T12206   1.506   0.880   5.891  2.7158  1.4661  0.8552
  117OSM   C11S12207   1.562   0.737   5.740  0.4244 -0.2551  0.5568
  117OSM   H11S12208   1.460   0.692   5.741 -0.5807  1.7313 -2.2628
  117OSM   H11T12209   1.641   0.660   5.725  1.4736  0.0797  3.5315
  117OSM   C12S12210   1.549   0.834   5.630  0.3378  0.3621  0.4440
  117OSM   H12S12211   1.651   0.871   5.609  0.8330 -1.7822 -1.2223
  117OSM   H12T12212   1.478   0.915   5.657 -2.4840 -1.1769 -1.8548
  117OSM   C13S12213   1.503   0.771   5.500  0.1245 -0.3713  0.8600
  117OSM   H13S12214   1.402   0.727   5.509 -0.6688  1.3286  0.7386
  117OSM   H13T12215   1.576   0.702   5.454 -0.3204 -0.3038  0.0426
  117OSM   C14S12216   1.474   0.893   5.401  0.0137 -0.1322 -0.5377
  117OSM   H14S12217   1.564   0.934   5.350  1.0096  2.1007  2.7684
  117OSM   H14T12218   1.433   0.979   5.458  0.7480 -0.5239  0.6180
  117OSM   C15S12219   1.382   0.841   5.289  1.1659 -0.4963 -0.3296
  117OSM   H15S12220   1.287   0.815   5.340  1.9449  0.3152  1.6281
  117OSM   H15T12221   1.418   0.749   5.239  0.2811 -0.8859 -0.2670
  117OSM   C16S12222   1.343   0.950   5.190  0.0676 -0.0217 -0.8987
  117OSM   H16S12223   1.430   0.966   5.122  0.2828  3.0290 -0.0510
  117OSM   H16T12224   1.332   1.036   5.259 -2.0146 -0.0264 -1.1571
  117OSM   C17S12225   1.212   0.926   5.113  0.1981 -0.1623 -0.2534
  117OSM   H17S12226   1.133   0.913   5.190  0.6071  0.7369  0.3430
  117OSM   H17T12227   1.217   0.828   5.062  1.4861  0.1010 -0.6733
  117OSM   C18S12228   1.181   1.035   5.007  0.3629  0.8652  0.5599
  117OSM   H18S12229   1.106   0.996   4.934  0.3100 -0.2181  1.1659
  117OSM   H18T12230   1.271   1.070   4.952  0.0033 -0.7949 -1.1918
  117OSM   H18U12231   1.154   1.125   5.066 -0.1645 -0.1809  1.9728
  117OSM    C1F12232   1.217   0.384   6.560 -0.0134 -0.0962  0.0813
  117OSM     OF12233   1.155   0.456   6.636  0.5341 -0.3692  0.4643
  117OSM    C2F12234   1.155   0.305   6.451 -0.2833 -0.2764 -0.0419
  117OSM    H2F12235   1.073   0.247   6.499 -0.2072  2.3487  3.6364
  117OSM    H2G12236   1.229   0.237   6.403  0.3540  2.0740 -2.6520
  117OSM    C3F12237   1.103   0.396   6.341 -0.2130 -0.7114 -0.1870
  117OSM    H3F12238   1.187   0.460   6.306 -0.4351  0.3560  1.1395
  117OSM    H3G12239   1.028   0.461   6.391  1.4341 -0.3325  1.9652
  117OSM    C4F12240   1.044   0.323   6.224  0.6154 -0.9906  0.5314
  117OSM    H4F12241   0.962   0.254   6.253 -0.8111  1.1707  1.9485
  117OSM    H4G12242   1.118   0.244   6.194  0.9041 -1.2453  1.8370
  117OSM    C5F12243   0.996   0.420   6.107  0.4463 -0.3245 -0.1650
  117OSM    H5F12244   1.086   0.480   6.085 -0.4345  0.2309 -2.5335
  117OSM    H5G12245   0.913   0.488   6.135  2.3076  0.9445  2.7209
  117OSM    C6F12246   0.956   0.337   5.981 -0.3475  0.3434  0.6614
  117OSM    H6F12247   0.869   0.274   6.009 -1.9380  1.3542 -1.6811
  117OSM    H6G12248   1.034   0.260   5.966 -1.8492 -1.7657  2.8842
  117OSM    C7F12249   0.932   0.428   5.860 -0.2864 -0.3322 -0.5355
  117OSM    H7F12250   0.881   0.520   5.895  0.1529 -0.8842  1.7813
  117OSM    H7G12251   0.881   0.383   5.773 -1.2892 -0.5221  0.1327
  117OSM    C8F12252   1.065   0.488   5.800 -0.0144 -0.1140 -0.2950
  117OSM    H8F12253   1.139   0.406   5.791  1.3801  1.0642  0.0666
  117OSM    H8G12254   1.109   0.551   5.880  1.4380 -0.0150 -1.1345
  117OSM    C9F12255   1.030   0.573   5.678  0.3592  0.3211 -0.4572
  117OSM    H9F12256   0.968   0.662   5.695 -0.6024 -0.6460  1.4281
  117OSM   C10F12257   1.074   0.546   5.554 -0.6976  0.3578 -0.5147
  117OSM   H10F12258   1.034   0.621   5.485 -0.9513 -0.3706 -1.1754
  117OSM   C11F12259   1.150   0.426   5.502 -0.1234  0.3411 -0.8317
  117OSM   H11F12260   1.117   0.335   5.557  1.1392 -0.2551 -1.0046
  117OSM   H11G12261   1.252   0.432   5.546 -0.4820 -0.2244  0.1231
  117OSM   C12F12262   1.165   0.404   5.352 -0.6686 -0.2968 -0.6228
  117OSM   H12F12263   1.078   0.435   5.290 -0.1988 -2.3913 -2.4629
  117OSM   H12G12264   1.173   0.295   5.331 -1.7998 -0.0336 -2.7988
  117OSM   C13F12265   1.293   0.474   5.295  0.1039 -0.1146 -0.0680
  117OSM   H13F12266   1.390   0.426   5.321  0.1063 -0.0096  0.1222
  117OSM   H13G12267   1.305   0.571   5.348  2.9245  0.2473 -1.1867
  117OSM   C14F12268   1.286   0.491   5.144 -0.2670  0.1093  0.3206
  117OSM   H14F12269   1.386   0.514   5.101 -0.0278 -2.6002 -0.8103
  117OSM   H14G12270   1.204   0.558   5.111 -1.0126  0.3605  2.5431
  117OSM   C15F12271   1.258   0.354   5.088 -0.6507 -0.5500 -0.5437
  117OSM   H15F12272   1.155   0.316   5.105 -0.4615 -0.6146  0.5234
  117OSM   H15G12273   1.325   0.274   5.125  0.9529  1.0114  0.0902
  117OSM   C16F12274   1.286   0.366   4.938 -0.1724  0.2577 -0.4597
  117OSM   H16F12275   1.394   0.388   4.930  0.0697 -0.4885  0.5330
  117OSM   H16G12276   1.227   0.443   4.884 -0.1018 -0.3772 -1.4735
  117OSM   C17F12277   1.259   0.232   4.863 -0.1032 -0.9084  0.6540
  117OSM   H17F12278   1.168   0.182   4.902 -0.5074  0.2147  1.2189
  117OSM   H17G12279   1.352   0.175   4.882 -0.2489 -1.2562  0.3486
  117OSM   C18F12280   1.237   0.256   4.706 -0.0336  0.5216  0.7086
  117OSM   H18F12281   1.229   0.165   4.644 -1.4704  1.2440 -0.2414
  117OSM   H18G12282   1.319   0.320   4.667  0.9169 -1.4591 -0.6919
  117OSM   H18H12283   1.138   0.305   4.692 -0.2340  0.3265  1.3775
  118OSM      N12284   3.521   2.739   6.354  0.1184  0.4659 -0.0610
  118OSM    C1512285   3.583   2.613   6.368  0.9663 -0.1254 -0.1528
  118OSM   H15A12286   3.628   2.568   6.280 -2.2552 -1.5587 -1.2278
  118OSM   H15B12287   3.511   2.541   6.405  0.7975  0.4124  0.5918
  118OSM   H15C12288   3.654   2.602   6.449  1.6796 -1.0111 -0.8836
  118OSM    C1412289   3.402   2.724   6.264 -0.3587  0.0460  0.1721
  118OSM   H14A12290   3.435   2.696   6.165 -0.6985  1.4412 -0.3572
  118OSM   H14B12291   3.353   2.820   6.259  1.5708  1.0298 -0.7216
  118OSM   H14C12292   3.332   2.649   6.298  1.4841 -0.4043  3.3883
  118OSM    C1312293   3.474   2.771   6.501  0.0526  0.2080 -0.3782
  118OSM   H13A12294   3.438   2.873   6.507 -1.5992 -0.3228 -0.7868
  118OSM   H13B12295   3.547   2.763   6.580  0.3626  1.7261 -0.4654
  118OSM   H13C12296   3.392   2.710   6.535  0.2000 -0.1992 -0.7548
  118OSM    C1212297   3.622   2.844   6.304 -0.1887  0.1776 -0.0450
  118OSM   H12A12298   3.687   2.800   6.231  0.7000 -0.3468  1.0346
  118OSM   H12B12299   3.676   2.875   6.392  2.4673  1.2751 -1.9193
  118OSM    C1112300   3.559   2.979   6.249 -0.1538  0.8565  0.8708
  118OSM   H11A12301   3.494   2.947   6.164 -1.0354  3.2530  0.5836
  118OSM   H11B12302   3.649   3.035   6.216 -1.3942  1.4952 -1.6949
  118OSM      P12303   3.367   3.129   6.311 -0.2335 -0.2730 -0.2000
  118OSM    O1312304   3.254   3.040   6.327 -0.2189 -0.1070  0.0719
  118OSM    O1412305   3.375   3.255   6.385 -0.1351 -0.1792 -0.5079
  118OSM    O1112306   3.409   3.164   6.155 -0.3771  0.3127 -0.3129
  118OSM    O1212307   3.495   3.043   6.354  0.2857  1.0288 -0.2826
  118OSM    C1S12308   3.467   3.291   6.121  0.0823  0.5911 -0.0632
  118OSM    H1S12309   3.544   3.320   6.196  0.2264  0.7397 -0.2664
  118OSM    H1T12310   3.385   3.364   6.102  0.1247 -0.1340 -3.7573
  118OSM     NF12311   3.630   3.404   5.975  0.2455  0.1108  0.3877
  118OSM    HNF12312   3.582   3.475   5.924  0.3075  0.8859  1.3790
  118OSM    C2S12313   3.548   3.282   5.990 -0.2173 -0.0531  0.2064
  118OSM    H2S12314   3.599   3.184   5.987  0.9699  0.5716 -0.7103
  118OSM    C3S12315   3.438   3.258   5.875 -0.4915  0.1706  0.4765
  118OSM    H3S12316   3.359   3.334   5.890  0.4065  0.7823  2.4983
  118OSM     O312317   3.369   3.133   5.877  0.5441 -0.0567  0.1987
  118OSM    HO312318   3.366   3.113   5.971 -0.7255  2.1722  0.6912
  118OSM    C4S12319   3.506   3.262   5.740 -0.2032 -0.0726 -0.5477
  118OSM    H4S12320   3.573   3.176   5.724  3.8494  2.3755  1.6856
  118OSM    C5S12321   3.500   3.355   5.644 -0.0516  0.6633 -0.6847
  118OSM    H5S12322   3.415   3.426   5.640 -1.8648 -1.4443 -1.9803
  118OSM    C6S12323   3.579   3.349   5.511 -0.4960 -0.1059 -0.2780
  118OSM    H6S12324   3.657   3.269   5.507  0.0227  0.2093  2.0032
  118OSM    H6T12325   3.635   3.444   5.505 -1.9086  0.7013 -1.0817
  118OSM    C7S12326   3.487   3.334   5.385 -0.2210 -0.0223 -0.0530
  118OSM    H7S12327   3.405   3.406   5.401  1.7038  2.7284 -1.7703
  118OSM    H7T12328   3.457   3.227   5.387  2.5494 -0.9557 -1.9258
  118OSM    C8S12329   3.560   3.368   5.256  0.4885  0.1618 -0.7694
  118OSM    H8S12330   3.644   3.297   5.244 -1.5273 -2.2386 -1.5650
  118OSM    H8T12331   3.600   3.472   5.263 -0.6504  0.6446 -1.0607
  118OSM    C9S12332   3.470   3.346   5.137 -1.1293  0.0601  0.0343
  118OSM    H9S12333   3.383   3.413   5.155 -0.2960  1.3182 -0.4580
  118OSM    H9T12334   3.448   3.238   5.124 -0.5494  0.1381 -1.9764
  118OSM   C10S12335   3.539   3.390   5.005 -0.2014 -0.5832 -0.2835
  118OSM   H10S12336   3.593   3.302   4.962  1.5261  0.0428  0.5041
  118OSM   H10T12337   3.619   3.463   5.032  0.7336 -2.3084  1.9542
  118OSM   C11S12338   3.452   3.448   4.900  0.1177  0.1258 -1.2521
  118OSM   H11S12339   3.386   3.528   4.939 -0.3042 -0.8989  0.1816
  118OSM   H11T12340   3.388   3.364   4.866 -0.8129  0.0730  0.5279
  118OSM   C12S12341   3.532   3.500   4.780 -0.3771 -0.2752  0.3778
  118OSM   H12S12342   3.586   3.411   4.742 -0.9698 -1.8301  3.0050
  118OSM   H12T12343   3.609   3.573   4.813 -0.7709  0.5992 -0.5522
  118OSM   C13S12344   3.445   3.555   4.672  0.3329  0.3384  0.5140
  118OSM   H13S12345   3.501   3.621   4.602  0.0253 -0.6275 -0.6891
  118OSM   H13T12346   3.371   3.621   4.722 -0.1680 -0.6284  1.0755
  118OSM   C14S12347   3.370   3.440   4.596 -0.8279 -0.6378  0.6308
  118OSM   H14S12348   3.270   3.413   4.636 -0.8860  0.8948  1.6344
  118OSM   H14T12349   3.437   3.353   4.579 -0.2363 -0.4025  1.6487
  118OSM   C15S12350   3.339   3.502   4.445 -0.1105  0.0428 -0.0567
  118OSM   H15S12351   3.435   3.542   4.407  0.5308 -1.6251 -0.2485
  118OSM   H15T12352   3.263   3.583   4.454 -0.1384  0.1396 -1.0451
  118OSM   C16S12353   3.283   3.396   4.349  0.5852  0.2186 -0.0816
  118OSM   H16S12354   3.335   3.298   4.351  1.4432  0.6179 -1.4669
  118OSM   H16T12355   3.296   3.447   4.251  1.5796  4.3308  1.9659
  118OSM   C17S12356   3.139   3.369   4.395  0.1947 -0.4551  0.3899
  118OSM   H17S12357   3.071   3.456   4.398 -2.6607 -2.5620  0.3388
  118OSM   H17T12358   3.141   3.334   4.501 -0.0008 -0.8987  0.2519
  118OSM   C18S12359   3.064   3.269   4.315  0.2249  0.0385 -0.4225
  118OSM   H18S12360   3.060   3.300   4.208 -2.6394  0.1557 -0.3620
  118OSM   H18T12361   2.956   3.258   4.339  0.2549  1.8526  0.6900
  118OSM   H18U12362   3.110   3.171   4.339  1.8350  1.4107  2.5718
  118OSM    C1F12363   3.741   3.432   6.054  0.5674  0.3871  0.0240
  118OSM     OF12364   3.774   3.357   6.144  0.0500  0.2663  0.2360
  118OSM    C2F12365   3.797   3.566   6.024  0.2015  0.2472 -0.0693
  118OSM    H2F12366   3.763   3.643   6.096 -0.4877  3.1390 -3.2417
  118OSM    H2G12367   3.749   3.588   5.926 -0.2209 -1.9671 -0.4146
  118OSM    C3F12368   3.946   3.550   6.005  0.0802 -0.0057 -0.5615
  118OSM    H3F12369   3.993   3.540   6.106  1.6556 -0.2886 -1.2878
  118OSM    H3G12370   3.968   3.653   5.967  0.7961 -0.3761 -1.1796
  118OSM    C4F12371   4.005   3.446   5.906  0.5617  0.7896  0.3668
  118OSM    H4F12372   3.953   3.352   5.936 -1.7694  1.6342 -0.7518
  118OSM    H4G12373   4.115   3.430   5.914  0.4509  0.0065  0.4270
  118OSM    C5F12374   3.982   3.466   5.757 -0.2400 -0.2035  0.0844
  118OSM    H5F12375   4.026   3.565   5.730 -3.2443  0.6182 -2.3674
  118OSM    H5G12376   3.872   3.477   5.751 -0.3723 -0.6617  1.3051
  118OSM    C6F12377   4.033   3.355   5.660  0.6767  0.0431  0.0342
  118OSM    H6F12378   3.992   3.255   5.687 -1.8159  1.1348  0.5811
  118OSM    H6G12379   4.144   3.360   5.650  0.4989  0.6962 -2.2674
  118OSM    C7F12380   3.980   3.381   5.516  1.0584 -0.2007 -0.1080
  118OSM    H7F12381   3.873   3.406   5.527 -0.3569 -4.7069 -1.2952
  118OSM    H7G12382   3.993   3.289   5.455 -0.1925 -0.0053 -0.6875
  118OSM    C8F12383   4.051   3.493   5.438  0.1786  0.2178  0.2631
  118OSM    H8F12384   4.152   3.463   5.403  0.3983  0.4754  0.6617
  118OSM    H8G12385   4.074   3.583   5.498  2.1714  0.2132 -0.4142
  118OSM    C9F12386   3.972   3.536   5.322 -0.2219 -0.0842  0.4338
  118OSM    H9F12387   3.870   3.569   5.347 -1.3358 -3.3183  0.5309
  118OSM   C10F12388   4.008   3.517   5.199  0.4226 -0.3831 -0.0297
  118OSM   H10F12389   3.941   3.563   5.124 -2.0541 -0.3972  2.0548
  118OSM   C11F12390   4.136   3.467   5.136  0.0946  0.3479 -0.0511
  118OSM   H11F12391   4.131   3.364   5.094 -1.2879  0.7994 -1.0608
  118OSM   H11G12392   4.220   3.466   5.208  0.8271 -2.5744 -0.8187
  118OSM   C12F12393   4.156   3.558   5.010 -0.5627 -0.3504  0.3855
  118OSM   H12F12394   4.264   3.547   4.985 -0.6997  1.9030 -1.5849
  118OSM   H12G12395   4.134   3.664   5.032 -0.7495 -0.4273  0.5676
  118OSM   C13F12396   4.064   3.524   4.895 -0.4653 -0.6166 -0.3188
  118OSM   H13F12397   3.962   3.514   4.940 -0.3514  0.3760  0.1926
  118OSM   H13G12398   4.102   3.433   4.843 -1.7040 -1.2509 -0.1621
  118OSM   C14F12399   4.056   3.629   4.789 -0.2936  0.3446 -0.5631
  118OSM   H14F12400   4.020   3.725   4.833  0.0589 -1.0523  3.1354
  118OSM   H14G12401   3.971   3.598   4.725 -2.2962  2.4472  0.9306
  118OSM   C15F12402   4.190   3.649   4.718 -0.4716  0.0261  0.1436
  118OSM   H15F12403   4.254   3.563   4.745 -0.4551  0.3928  1.3081
  118OSM   H15G12404   4.237   3.745   4.746 -1.1939  0.6034 -0.5736
  118OSM   C16F12405   4.190   3.656   4.563  0.2356  0.8748 -0.2702
  118OSM   H16F12406   4.278   3.714   4.528  0.0142  0.8526 -0.8739
  118OSM   H16G12407   4.110   3.726   4.533 -0.1524  0.4896 -0.1356
  118OSM   C17F12408   4.184   3.518   4.497  0.1281  0.5488  0.0573
  118OSM   H17F12409   4.112   3.458   4.557  1.0539  0.1970  0.8536
  118OSM   H17G12410   4.278   3.463   4.522 -0.7744 -1.9406 -1.6198
  118OSM   C18F12411   4.153   3.510   4.347 -0.3134 -0.1141 -0.2362
  118OSM   H18F12412   4.233   3.565   4.293 -0.0409 -1.5932 -1.3735
  118OSM   H18G12413   4.054   3.555   4.323 -0.0298  1.0547  0.6623
  118OSM   H18H12414   4.154   3.403   4.318 -0.6892 -0.4121  0.8081
  119OSM      N12415   4.119   2.613   6.865  0.1760  0.2912 -0.4646
  119OSM    C1512416   4.006   2.715   6.880 -0.4342 -0.5968 -0.1856
  119OSM   H15A12417   3.915   2.679   6.837 -0.4041  1.5417 -2.2088
  119OSM   H15B12418   4.026   2.811   6.835 -2.0922 -0.6620 -1.1152
  119OSM   H15C12419   3.989   2.749   6.981  3.4764  1.8397 -0.1076
  119OSM    C1412420   4.249   2.671   6.913  0.4485  0.5407  0.8478
  119OSM   H14A12421   4.275   2.747   6.841 -1.6149  1.0118  0.5449
  119OSM   H14B12422   4.327   2.596   6.915 -1.1280 -1.1924  3.2283
  119OSM   H14C12423   4.235   2.714   7.011  1.5322 -1.9794  2.2015
  119OSM    C1312424   4.081   2.483   6.941  0.2332  0.0461 -0.0763
  119OSM   H13A12425   3.980   2.460   6.910  0.4066 -0.5320 -0.2193
  119OSM   H13B12426   4.080   2.504   7.047  1.8619 -1.4501  0.2870
  119OSM   H13C12427   4.142   2.394   6.936  0.3378 -0.0267  1.8081
  119OSM    C1212428   4.115   2.576   6.719  0.6232  0.2162 -0.0730
  119OSM   H12A12429   4.029   2.514   6.700  0.5525 -0.3977  1.9284
  119OSM   H12B12430   4.192   2.504   6.696 -3.2231 -3.9528 -1.5453
  119OSM    C1112431   4.130   2.685   6.618  0.7230  0.0754  0.2374
  119OSM   H11A12432   4.137   2.650   6.512 -0.6489  0.8288 -0.1345
  119OSM   H11B12433   4.221   2.744   6.639  1.0497  0.2036 -1.4166
  119OSM      P12434   3.875   2.744   6.554 -0.5343  0.3982 -0.7655
  119OSM    O1312435   3.847   2.596   6.556  0.1645  0.3617  0.6201
  119OSM    O1412436   3.774   2.832   6.618  0.2329  0.2130 -0.5806
  119OSM    O1112437   3.895   2.797   6.401 -0.0367 -0.1095  0.1850
  119OSM    O1212438   4.018   2.775   6.615 -0.4920  0.0241  0.0839
  119OSM    C1S12439   4.003   2.752   6.324  0.0381 -0.2329  0.1679
  119OSM    H1S12440   4.018   2.642   6.327  1.6057 -0.0366  0.4037
  119OSM    H1T12441   4.097   2.804   6.350  1.2755 -2.3065  0.0199
  119OSM     NF12442   4.069   2.689   6.100  0.5079  0.0107  0.1672
  119OSM    HNF12443   4.165   2.716   6.096  0.6306 -0.5166 -0.6939
  119OSM    C2S12444   3.979   2.779   6.173  0.3894 -0.3649  0.0201
  119OSM    H2S12445   3.870   2.756   6.170 -0.2606  2.2937  0.6424
  119OSM    C3S12446   4.002   2.933   6.146 -0.3985  0.8760 -0.0076
  119OSM    H3S12447   4.111   2.954   6.154 -0.2620 -0.1497  1.0414
  119OSM     O312448   3.949   3.014   6.251 -0.6144  0.4067 -0.3362
  119OSM    HO312449   3.913   2.955   6.317 -1.3174  0.1013 -0.9705
  119OSM    C4S12450   3.963   2.974   6.005  0.0610 -0.6079  0.1934
  119OSM    H4S12451   4.043   2.970   5.929  0.1025  0.5333  0.1661
  119OSM    C5S12452   3.833   3.001   5.966 -0.4133 -0.3130  0.3576
  119OSM    H5S12453   3.750   2.995   6.038 -0.0412 -2.1507  0.6804
  119OSM    C6S12454   3.793   3.030   5.822  0.2851 -0.8491 -1.1974
  119OSM    H6S12455   3.766   3.137   5.808 -0.1448 -0.6103  1.0413
  119OSM    H6T12456   3.689   2.993   5.812 -0.7361  1.2961  0.6026
  119OSM    C7S12457   3.884   2.981   5.709 -0.6002  0.1285  0.1838
  119OSM    H7S12458   3.887   2.871   5.720  1.5664  0.3874  3.4009
  119OSM    H7T12459   3.986   3.021   5.727 -0.5767  1.2587 -2.1762
  119OSM    C8S12460   3.823   3.029   5.575 -0.0704 -0.5420  0.0970
  119OSM    H8S12461   3.855   3.134   5.556 -0.9851 -0.6184 -2.1856
  119OSM    H8T12462   3.714   3.034   5.596  0.3237  2.7378  2.2157
  119OSM    C9S12463   3.868   2.956   5.449 -0.2317 -0.3760 -0.2195
  119OSM    H9S12464   3.817   2.858   5.445 -1.1032  0.0960 -1.5098
  119OSM    H9T12465   3.978   2.946   5.444 -0.0191  1.3844  0.1244
  119OSM   C10S12466   3.825   3.032   5.324 -0.2496  0.7563 -0.4154
  119OSM   H10S12467   3.869   3.134   5.315 -0.2480  0.9818  1.7800
  119OSM   H10T12468   3.718   3.061   5.329 -0.4521 -0.2173  1.8448
  119OSM   C11S12469   3.857   2.957   5.194  0.2075  0.3600 -0.4286
  119OSM   H11S12470   3.825   2.850   5.192 -2.1191  0.8512  2.8116
  119OSM   H11T12471   3.968   2.962   5.183  0.1013  2.1645 -0.8973
  119OSM   C12S12472   3.802   3.025   5.068  0.2107 -0.8005  0.4939
  119OSM   H12S12473   3.831   3.132   5.059 -0.3077 -0.8492 -3.0394
  119OSM   H12T12474   3.691   3.033   5.070  0.1560 -1.3158 -0.3165
  119OSM   C13S12475   3.842   2.966   4.933 -0.2263  0.2836  0.1409
  119OSM   H13S12476   3.772   2.881   4.921 -0.6888  0.7701 -0.6688
  119OSM   H13T12477   3.947   2.932   4.932  0.0575  1.0173  1.8813
  119OSM   C14S12478   3.789   3.041   4.803 -0.1229 -0.2564  0.4618
  119OSM   H14S12479   3.682   3.070   4.812  0.1759  1.7616 -1.4907
  119OSM   H14T12480   3.805   2.974   4.715 -2.7297 -0.3552 -0.0149
  119OSM   C15S12481   3.863   3.179   4.778 -0.9817  0.7154 -0.3659
  119OSM   H15S12482   3.973   3.161   4.786 -1.5554 -4.8803 -0.8656
  119OSM   H15T12483   3.826   3.243   4.861  0.1306  0.9755 -0.0462
  119OSM   C16S12484   3.828   3.250   4.646  0.3237 -0.4084 -0.0220
  119OSM   H16S12485   3.858   3.356   4.635 -0.4684 -0.0137  1.3551
  119OSM   H16T12486   3.718   3.247   4.655  0.4864 -0.7904  2.6921
  119OSM   C17S12487   3.879   3.174   4.520 -0.4728 -0.4380 -0.6923
  119OSM   H17S12488   3.849   3.067   4.528  1.2507 -1.0232 -1.6903
  119OSM   H17T12489   3.990   3.173   4.517 -0.4920 -2.0591 -2.2186
  119OSM   C18S12490   3.836   3.236   4.391  0.0174 -0.3350 -0.0373
  119OSM   H18S12491   3.880   3.181   4.306  1.4778  1.3836 -0.4463
  119OSM   H18T12492   3.872   3.339   4.371 -0.2245 -0.4409 -1.0257
  119OSM   H18U12493   3.725   3.240   4.382 -0.1529 -0.4196  1.5645
  119OSM    C1F12494   4.044   2.565   6.060  1.1338 -0.3169 -0.3329
  119OSM     OF12495   3.926   2.527   6.078  0.4079 -0.8122  0.0714
  119OSM    C2F12496   4.155   2.477   6.014 -0.3703  0.6385 -0.5686
  119OSM    H2F12497   4.151   2.382   6.072 -1.8618  0.1084 -1.4775
  119OSM    H2G12498   4.254   2.526   6.029 -1.0174  1.4306  1.4724
  119OSM    C3F12499   4.148   2.449   5.860  0.9459 -0.0444 -1.0804
  119OSM    H3F12500   4.055   2.393   5.837  1.0157 -1.1651  1.1480
  119OSM    H3G12501   4.231   2.381   5.834 -0.1504 -1.2515 -1.5550
  119OSM    C4F12502   4.139   2.579   5.782  0.6744 -1.1485  0.3461
  119OSM    H4F12503   4.229   2.640   5.805 -0.1899 -0.3485  1.7240
  119OSM    H4G12504   4.043   2.628   5.810  0.6058 -0.6413 -0.7186
  119OSM    C5F12505   4.130   2.543   5.637  0.2143  0.0811 -0.1430
  119OSM    H5F12506   4.045   2.474   5.620  1.3349 -1.4947  0.4969
  119OSM    H5G12507   4.227   2.492   5.617  1.9678  2.6765  1.1723
  119OSM    C6F12508   4.121   2.654   5.535 -0.5225  0.6620  0.2243
  119OSM    H6F12509   4.219   2.677   5.488 -0.2466  0.6320  0.7746
  119OSM    H6G12510   4.085   2.748   5.583 -1.2064  1.7011 -2.1649
  119OSM    C7F12511   4.020   2.615   5.429  0.0049 -0.9127 -0.5377
  119OSM    H7F12512   3.998   2.710   5.377  0.1183 -1.4393 -1.5799
  119OSM    H7G12513   3.924   2.592   5.480  0.0964  1.7452  1.0157
  119OSM    C8F12514   4.065   2.512   5.321  0.1350 -0.1922  0.5703
  119OSM    H8F12515   4.084   2.418   5.376  0.3174  0.8868  2.4362
  119OSM    H8G12516   4.153   2.556   5.269  1.5866 -1.5849  1.7660
  119OSM    C9F12517   3.954   2.489   5.231  0.5443  0.5095  0.0940
  119OSM    H9F12518   3.874   2.423   5.268 -1.3611  1.4537 -2.0381
  119OSM   C10F12519   3.924   2.543   5.111  0.5034 -0.6477  0.3712
  119OSM   H10F12520   3.832   2.509   5.061 -0.3256  0.6281  0.9840
  119OSM   C11F12521   4.015   2.625   5.025 -0.0886 -0.0022  0.2749
  119OSM   H11F12522   4.123   2.602   5.043 -0.4655 -1.3527  0.9467
  119OSM   H11G12523   4.007   2.731   5.057 -1.0616  0.3850 -1.1967
  119OSM   C12F12524   3.990   2.634   4.876 -0.5714 -0.0111 -0.5044
  119OSM   H12F12525   3.900   2.694   4.849  0.0872  0.5850 -1.4219
  119OSM   H12G12526   3.974   2.531   4.837 -0.7368 -0.9010  1.7417
  119OSM   C13F12527   4.109   2.701   4.804 -0.1259 -0.1087  0.5589
  119OSM   H13F12528   4.207   2.665   4.843  0.1340  1.7809  1.7790
  119OSM   H13G12529   4.116   2.810   4.820 -1.6246  0.6095 -2.8622
  119OSM   C14F12530   4.106   2.683   4.652  0.5180  0.1361  0.2828
  119OSM   H14F12531   4.109   2.577   4.621  0.7230  0.0605  0.5521
  119OSM   H14G12532   4.207   2.715   4.620  0.9335 -1.6834 -0.3569
  119OSM   C15F12533   3.992   2.754   4.585  0.3668 -0.0417  0.7117
  119OSM   H15F12534   4.036   2.816   4.503  1.2451 -1.0501  0.3910
  119OSM   H15G12535   3.932   2.819   4.651  2.3461  0.9505  1.6084
  119OSM   C16F12536   3.888   2.654   4.522 -0.0768 -0.4652  0.0619
  119OSM   H16F12537   3.860   2.592   4.610  1.0421 -2.1192 -0.6988
  119OSM   H16G12538   3.930   2.573   4.459  0.9317 -2.0074  2.5678
  119OSM   C17F12539   3.786   2.730   4.450  0.1387 -0.8642  0.2557
  119OSM   H17F12540   3.768   2.831   4.491  2.2665  1.5872 -4.1107
  119OSM   H17G12541   3.693   2.671   4.463  0.4729 -0.7690  4.5037
  119OSM   C18F12542   3.830   2.755   4.303  0.2665  0.1731 -0.3326
  119OSM   H18F12543   3.736   2.741   4.245 -1.6609  2.7788  1.8845
  119OSM   H18G12544   3.910   2.686   4.269  0.2864 -0.4641  0.9416
  119OSM   H18H12545   3.863   2.861   4.292 -0.5177  0.8560  2.9014
  120OSM      N12546   5.377   6.613   6.968  0.0656 -0.4110  0.7583
  120OSM    C1512547   5.287   6.697   7.049  0.1453  0.1018 -0.2394
  120OSM   H15A12548   5.294   6.673   7.154  0.7450 -1.6240 -0.6319
  120OSM   H15B12549   5.185   6.671   7.026 -0.0963 -1.8676  2.5762
  120OSM   H15C12550   5.295   6.804   7.033  1.9572 -0.0501 -0.6558
  120OSM    C1412551   5.504   6.692   6.956  0.2554 -0.1207  0.2736
  120OSM   H14A12552   5.578   6.634   6.903  1.3909 -0.6964  2.3682
  120OSM   H14B12553   5.542   6.714   7.055 -1.1112  2.0436  0.3753
  120OSM   H14C12554   5.491   6.788   6.909  2.9267  0.2838  0.1763
  120OSM    C1312555   5.410   6.483   7.039 -0.2241 -0.7427 -0.4426
  120OSM   H13A12556   5.480   6.429   6.977 -0.4716 -0.9646 -0.5306
  120OSM   H13B12557   5.326   6.417   7.051 -0.3581 -0.9264 -2.1996
  120OSM   H13C12558   5.443   6.507   7.139  0.2526 -0.3125 -0.6968
  120OSM    C1212559   5.323   6.578   6.827  0.3595 -0.5393 -0.0332
  120OSM   H12A12560   5.274   6.666   6.788  1.8664  0.5559  0.4464
  120OSM   H12B12561   5.244   6.506   6.842 -1.0590  0.9882  0.0913
  120OSM    C1112562   5.427   6.523   6.730  0.3334 -0.4636 -0.0911
  120OSM   H11A12563   5.514   6.590   6.712 -0.9362  0.6673 -2.3685
  120OSM   H11B12564   5.363   6.519   6.640  0.7789 -1.6467 -0.3848
  120OSM      P12565   5.615   6.353   6.755  0.1286 -0.1588 -0.2753
  120OSM    O1312566   5.681   6.459   6.833 -0.3766 -0.0630 -0.3937
  120OSM    O1412567   5.626   6.212   6.802  0.1445 -0.2520  0.1395
  120OSM    O1112568   5.658   6.363   6.602  0.2004 -0.4800 -0.4252
  120OSM    O1212569   5.458   6.387   6.753 -0.2163  0.4094  0.1572
  120OSM    C1S12570   5.597   6.273   6.500 -0.2855  0.2501 -0.1428
  120OSM    H1S12571   5.486   6.277   6.504 -0.2771 -0.3479  1.1648
  120OSM    H1T12572   5.639   6.170   6.510  0.7502  0.6086 -0.6508
  120OSM     NF12573   5.561   6.235   6.264  0.6692 -0.2592  0.5101
  120OSM    HNF12574   5.607   6.168   6.206  1.5217  0.3226  0.4928
  120OSM    C2S12575   5.643   6.307   6.362  0.3978  0.2733  0.6622
  120OSM    H2S12576   5.625   6.417   6.358 -1.0793  0.0234 -0.5046
  120OSM    C3S12577   5.795   6.290   6.341  0.8270  0.3637  0.2700
  120OSM    H3S12578   5.816   6.181   6.338  1.2822  0.4061  1.4765
  120OSM     O312579   5.876   6.344   6.442 -0.5227 -0.2795 -0.1668
  120OSM    HO312580   5.810   6.379   6.503  0.4664  0.2504  0.6283
  120OSM    C4S12581   5.834   6.358   6.204 -0.5237  0.6145  0.1882
  120OSM    H4S12582   5.829   6.286   6.120  3.7327 -0.6321  0.7752
  120OSM    C5S12583   5.885   6.483   6.189  0.7382 -0.6563  0.9375
  120OSM    H5S12584   5.895   6.551   6.274  1.1254 -0.5047  0.7718
  120OSM    C6S12585   5.925   6.547   6.055  0.8393  0.2388  0.0446
  120OSM    H6S12586   5.844   6.622   6.042 -0.6930 -1.4635 -0.6160
  120OSM    H6T12587   5.913   6.476   5.970 -1.0597  0.8935 -0.2888
  120OSM    C7S12588   6.062   6.600   6.054  0.1995  0.1510 -0.3669
  120OSM    H7S12589   6.137   6.526   6.089 -1.5194 -1.7226 -0.4172
  120OSM    H7T12590   6.070   6.681   6.129 -0.2880  0.6678 -0.8710
  120OSM    C8S12591   6.106   6.662   5.923 -0.5087 -0.1287  0.1398
  120OSM    H8S12592   6.192   6.730   5.940 -0.7579  0.9650 -2.5624
  120OSM    H8T12593   6.021   6.722   5.886  0.7644  0.8985 -1.2365
  120OSM    C9S12594   6.167   6.564   5.818  0.1011 -0.1215 -0.0482
  120OSM    H9S12595   6.106   6.474   5.795  0.1986  0.2818 -2.1099
  120OSM    H9T12596   6.256   6.511   5.857  0.4181  0.8557  0.5825
  120OSM   C10S12597   6.201   6.630   5.685  0.1697  0.6987  0.4632
  120OSM   H10S12598   6.267   6.717   5.706  0.2790  0.4837  1.0327
  120OSM   H10T12599   6.111   6.677   5.640  0.6573  1.1226 -0.0787
  120OSM   C11S12600   6.266   6.527   5.585  0.5994  0.0013 -0.8361
  120OSM   H11S12601   6.196   6.441   5.569 -2.0695  1.8856  0.0275
  120OSM   H11T12602   6.362   6.484   5.621  0.9410  0.0204 -1.7063
  120OSM   C12S12603   6.292   6.592   5.457 -0.5750 -0.8731  0.3056
  120OSM   H12S12604   6.359   6.680   5.470 -0.6947 -0.8540  0.8138
  120OSM   H12T12605   6.197   6.635   5.418  1.0180  4.0131  1.0594
  120OSM   C13S12606   6.360   6.510   5.346  0.3743 -0.4907  0.2073
  120OSM   H13S12607   6.274   6.444   5.322 -2.0441  2.3724  0.4000
  120OSM   H13T12608   6.443   6.448   5.388  1.0919  0.2717 -0.0745
  120OSM   C14S12609   6.412   6.592   5.225 -0.4097 -0.5763 -0.7244
  120OSM   H14S12610   6.461   6.684   5.264 -0.3276 -1.2495  0.8434
  120OSM   H14T12611   6.326   6.628   5.164  1.1931  1.7135 -1.7587
  120OSM   C15S12612   6.511   6.511   5.134 -0.4704  0.4082  0.3450
  120OSM   H15S12613   6.470   6.408   5.131 -3.1983  1.3937  0.8389
  120OSM   H15T12614   6.614   6.510   5.175  0.7210 -0.0282 -2.4372
  120OSM   C16S12615   6.539   6.572   5.000 -1.0270 -0.7392  0.1342
  120OSM   H16S12616   6.632   6.532   4.955  1.8590  3.4594  1.7501
  120OSM   H16T12617   6.564   6.678   5.021 -0.6501 -0.5162 -1.3370
  120OSM   C17S12618   6.422   6.556   4.903  0.5087  0.5115 -0.0447
  120OSM   H17S12619   6.325   6.593   4.944  0.7869  0.9015  0.2799
  120OSM   H17T12620   6.407   6.446   4.897  2.9451  0.0093  1.7302
  120OSM   C18S12621   6.448   6.623   4.763 -0.0672  1.1739  0.5982
  120OSM   H18S12622   6.545   6.583   4.724 -0.5728  1.2074 -0.7531
  120OSM   H18T12623   6.460   6.730   4.787 -0.8770  0.9639  2.0616
  120OSM   H18U12624   6.362   6.620   4.693 -0.0799 -0.4136  0.6364
  120OSM    C1F12625   5.437   6.272   6.233 -0.9927 -0.8554 -0.1027
  120OSM     OF12626   5.377   6.348   6.314 -0.2999  0.9331 -0.3571
  120OSM    C2F12627   5.374   6.219   6.109  0.5596 -0.4700 -0.1894
  120OSM    H2F12628   5.267   6.193   6.128  0.3442 -0.6350 -1.5581
  120OSM    H2G12629   5.424   6.130   6.066 -2.1104 -0.4195 -3.9203
  120OSM    C3F12630   5.360   6.323   5.997  0.4265  0.6367 -0.2673
  120OSM    H3F12631   5.285   6.398   6.031  1.4411  1.4838  0.1545
  120OSM    H3G12632   5.321   6.275   5.905 -0.6217 -1.7234  1.3044
  120OSM    C4F12633   5.492   6.389   5.971  0.3238  0.1267 -0.0927
  120OSM    H4F12634   5.566   6.308   5.958  0.8742  0.9878 -2.8286
  120OSM    H4G12635   5.519   6.458   6.055  0.6661 -2.1416  1.7717
  120OSM    C5F12636   5.501   6.468   5.840 -0.1133 -0.5267 -0.3739
  120OSM    H5F12637   5.433   6.556   5.840  0.0225 -0.4179 -0.7467
  120OSM    H5G12638   5.490   6.407   5.747  1.4073 -1.2521 -0.0943
  120OSM    C6F12639   5.645   6.520   5.824  0.6985 -0.1615 -0.3437
  120OSM    H6F12640   5.717   6.438   5.843  1.0743  0.2365 -0.0208
  120OSM    H6G12641   5.669   6.595   5.902 -1.0432  0.8689 -0.7428
  120OSM    C7F12642   5.666   6.580   5.687  0.0547 -0.2544  0.8116
  120OSM    H7F12643   5.582   6.649   5.665  0.4248 -0.5144 -1.6499
  120OSM    H7G12644   5.661   6.496   5.615  1.8798 -2.3714  2.9667
  120OSM    C8F12645   5.805   6.636   5.656  0.3610 -0.3202 -0.3925
  120OSM    H8F12646   5.869   6.546   5.645  1.3672  0.6612 -3.3664
  120OSM    H8G12647   5.836   6.700   5.742 -1.8237 -1.5283  1.4235
  120OSM    C9F12648   5.798   6.719   5.532  0.3285  0.4208 -0.0325
  120OSM    H9F12649   5.759   6.820   5.551  1.9572  0.9325  0.8205
  120OSM   C10F12650   5.849   6.680   5.415  0.2053  0.4288 -0.3320
  120OSM   H10F12651   5.850   6.753   5.333  1.4043 -0.8581 -1.5121
  120OSM   C11F12652   5.902   6.541   5.377 -0.1815 -0.4879  0.2193
  120OSM   H11F12653   5.849   6.460   5.432  0.2686  1.0209  3.0861
  120OSM   H11G12654   6.008   6.529   5.408 -0.2284  0.6598  0.8637
  120OSM   C12F12655   5.893   6.515   5.228  0.4632  0.0307 -0.9178
  120OSM   H12F12656   5.792   6.550   5.198  2.0904  4.2468 -2.2345
  120OSM   H12G12657   5.904   6.408   5.200  0.9776 -0.3991  0.8068
  120OSM   C13F12658   5.991   6.594   5.136  0.0601 -0.4261  0.5628
  120OSM   H13F12659   6.095   6.572   5.167  0.1746  0.7391  1.0171
  120OSM   H13G12660   5.976   6.701   5.161 -0.8318 -0.4578  0.2168
  120OSM   C14F12661   5.987   6.570   4.983  0.0463 -0.4650 -0.4789
  120OSM   H14F12662   6.027   6.471   4.955 -1.2568 -1.2834  0.4689
  120OSM   H14G12663   6.048   6.651   4.937 -0.9064  0.8223  0.4248
  120OSM   C15F12664   5.847   6.574   4.923  0.0298 -0.5530  0.2031
  120OSM   H15F12665   5.795   6.667   4.956 -0.6258 -1.3633  1.5063
  120OSM   H15G12666   5.777   6.496   4.961 -1.0044  0.0745 -0.3423
  120OSM   C16F12667   5.839   6.569   4.767 -0.2126  0.1210  0.3422
  120OSM   H16F12668   5.741   6.595   4.724 -0.6136 -0.6344  0.7831
  120OSM   H16G12669   5.864   6.467   4.731  0.5120  0.6387 -0.7177
  120OSM   C17F12670   5.944   6.663   4.706  0.2837 -0.5872  0.1630
  120OSM   H17F12671   6.047   6.623   4.721  1.1989  1.8593  0.9288
  120OSM   H17G12672   5.940   6.758   4.763 -0.8920  1.6542 -3.3425
  120OSM   C18F12673   5.935   6.685   4.552  0.1024  0.3151 -0.1212
  120OSM   H18F12674   5.961   6.586   4.509 -2.1139  0.2125 -1.3472
  120OSM   H18G12675   6.012   6.756   4.516  1.4692 -0.9393  0.2091
  120OSM   H18H12676   5.835   6.716   4.516  0.5117 -0.2705 -1.8870
  121OSM      N12677   2.936   1.431   7.032  0.1976  0.0665  0.5923
  121OSM    C1512678   3.067   1.396   7.079 -0.1002  0.2356 -0.0527
  121OSM   H15A12679   3.102   1.466   7.154  0.9310 -1.0228  0.6911
  121OSM   H15B12680   3.137   1.404   6.997  0.5345  4.2528  0.6989
  121OSM   H15C12681   3.059   1.297   7.122 -3.0883  0.5644  0.3786
  121OSM    C1412682   2.836   1.428   7.143 -0.5872 -0.2728 -0.0679
  121OSM   H14A12683   2.741   1.464   7.105  0.7186  2.1559 -1.2804
  121OSM   H14B12684   2.858   1.485   7.232 -3.5656  1.0490 -0.0522
  121OSM   H14C12685   2.823   1.326   7.174 -0.2245 -0.3663 -0.2230
  121OSM    C1312686   2.938   1.569   6.980  0.1149 -0.1982  0.7508
  121OSM   H13A12687   2.945   1.640   7.061 -1.3747 -0.3519  1.0495
  121OSM   H13B12688   2.850   1.593   6.923 -0.7387  0.0598  2.1333
  121OSM   H13C12689   3.023   1.584   6.915  1.1771 -2.0533  1.6393
  121OSM    C1212690   2.891   1.337   6.918  0.1000  0.2883  0.2496
  121OSM   H12A12691   2.917   1.234   6.938 -2.2061 -0.1155  1.5382
  121OSM   H12B12692   2.936   1.373   6.826 -1.4751  0.6297 -0.4090
  121OSM    C1112693   2.741   1.342   6.887  0.7372  0.1379  0.2137
  121OSM   H11A12694   2.693   1.267   6.953 -0.6711 -0.4650 -1.4164
  121OSM   H11B12695   2.729   1.309   6.781 -0.5357  1.2056  0.0044
  121OSM      P12696   2.536   1.492   6.925 -0.0926 -0.1026  0.1762
  121OSM    O1312697   2.514   1.453   7.068 -0.1324 -0.0809  0.0243
  121OSM    O1412698   2.485   1.616   6.870  0.5891 -0.0711  0.9766
  121OSM    O1112699   2.483   1.376   6.830 -0.6674  0.4374  0.2921
  121OSM    O1212700   2.685   1.474   6.885 -0.2737 -0.1448  0.1676
  121OSM    C1S12701   2.470   1.413   6.694 -0.4217  1.1217 -0.1244
  121OSM    H1S12702   2.561   1.456   6.648  0.8294 -0.6549  0.6073
  121OSM    H1T12703   2.379   1.476   6.680  0.0380  1.8323  0.0022
  121OSM     NF12704   2.473   1.313   6.456 -0.2335  0.1409 -0.2227
  121OSM    HNF12705   2.386   1.311   6.408  0.2086 -1.8854 -1.0389
  121OSM    C2S12706   2.462   1.283   6.605  0.6015 -0.1485  0.3930
  121OSM    H2S12707   2.550   1.219   6.632 -1.5886 -3.3506  0.5358
  121OSM    C3S12708   2.342   1.194   6.645  0.7153  0.3042 -0.0779
  121OSM    H3S12709   2.252   1.258   6.636  0.1384 -0.6890 -1.7712
  121OSM     O312710   2.335   1.145   6.780 -0.3658  0.1403  0.4584
  121OSM    HO312711   2.412   1.187   6.819 -0.5035  1.8642 -1.0081
  121OSM    C4S12712   2.321   1.079   6.551 -0.3522  0.0552 -0.1154
  121OSM    H4S12713   2.410   1.015   6.538 -0.4175  0.2324 -1.5144
  121OSM    C5S12714   2.220   1.070   6.467  0.0416  0.7612 -0.9159
  121OSM    H5S12715   2.133   1.137   6.483  0.9044  1.5978  0.5726
  121OSM    C6S12716   2.224   0.980   6.352  0.5292 -0.4145  0.0737
  121OSM    H6S12717   2.131   0.982   6.291  0.6562 -0.9250 -0.1503
  121OSM    H6T12718   2.237   0.872   6.377 -2.1001 -0.6321  0.7632
  121OSM    C7S12719   2.329   1.023   6.253 -0.0571 -0.2053 -0.0334
  121OSM    H7S12720   2.429   1.037   6.299  0.3189  0.5692 -1.0292
  121OSM    H7T12721   2.300   1.119   6.205  1.5512 -1.3753 -3.6914
  121OSM    C8S12722   2.340   0.935   6.131  0.0546  0.2649 -0.1932
  121OSM    H8S12723   2.242   0.885   6.115 -0.3108  0.7661  0.4321
  121OSM    H8T12724   2.411   0.851   6.149 -1.4172 -0.9106  0.3884
  121OSM    C9S12725   2.396   0.999   6.002 -0.2036 -0.0285  0.3814
  121OSM    H9S12726   2.504   1.017   6.018  0.0801 -1.3434  0.0944
  121OSM    H9T12727   2.352   1.099   5.984 -0.7980 -0.6235 -1.6512
  121OSM   C10S12728   2.380   0.905   5.882  0.6298 -0.2840  0.0843
  121OSM   H10S12729   2.278   0.861   5.875  0.2756 -0.1454  3.0951
  121OSM   H10T12730   2.440   0.811   5.887 -0.6667 -1.1063  1.3419
  121OSM   C11S12731   2.401   0.986   5.749 -0.3391  0.0449  0.5393
  121OSM   H11S12732   2.504   1.024   5.765 -0.3289 -0.4480  1.7221
  121OSM   H11T12733   2.331   1.069   5.730  0.1102  0.0656 -1.2307
  121OSM   C12S12734   2.403   0.898   5.620 -0.2358  0.3711 -0.4045
  121OSM   H12S12735   2.301   0.863   5.592 -0.9530  1.9800  0.0559
  121OSM   H12T12736   2.464   0.809   5.646 -0.3159  1.0767  2.4655
  121OSM   C13S12737   2.477   0.966   5.495 -0.1418 -0.4842 -0.2318
  121OSM   H13S12738   2.563   1.014   5.546 -0.1632 -0.8193  0.1198
  121OSM   H13T12739   2.401   1.033   5.449 -1.3464 -1.7655 -0.1640
  121OSM   C14S12740   2.548   0.865   5.404  0.0723  0.1619 -0.1464
  121OSM   H14S12741   2.479   0.779   5.391 -0.6684  0.8942 -1.3213
  121OSM   H14T12742   2.641   0.825   5.449  0.5885  0.1214 -1.2180
  121OSM   C15S12743   2.579   0.931   5.267  0.0842  0.1058  0.4044
  121OSM   H15S12744   2.676   0.889   5.235  0.0621 -0.0694  0.5614
  121OSM   H15T12745   2.570   1.041   5.278 -1.0453 -0.0267  1.0014
  121OSM   C16S12746   2.478   0.882   5.161 -0.0502 -0.4797 -0.3512
  121OSM   H16S12747   2.391   0.950   5.169  2.9629  4.0582 -1.4723
  121OSM   H16T12748   2.448   0.778   5.185 -0.9754  0.0761  1.0188
  121OSM   C17S12749   2.541   0.884   5.017  0.0627  0.2835  0.1264
  121OSM   H17S12750   2.605   0.970   4.990 -1.1238  1.2355  0.2571
  121OSM   H17T12751   2.455   0.888   4.947  0.2157 -1.0218 -0.1658
  121OSM   C18S12752   2.615   0.754   4.975  0.6741 -1.1249 -0.7692
  121OSM   H18S12753   2.704   0.747   5.040  0.3595 -1.0245 -0.3173
  121OSM   H18T12754   2.642   0.758   4.868 -1.6920 -2.4618 -1.5045
  121OSM   H18U12755   2.563   0.661   5.006  2.2982 -1.2216  1.9862
  121OSM    C1F12756   2.583   1.363   6.410 -0.7730 -0.6332 -0.0266
  121OSM     OF12757   2.681   1.353   6.476  0.4809 -0.7601 -0.6100
  121OSM    C2F12758   2.574   1.438   6.275 -0.1269  0.2310 -0.6164
  121OSM    H2F12759   2.557   1.547   6.292 -1.1299  0.0662 -0.4699
  121OSM    H2G12760   2.479   1.398   6.233 -1.1556  1.0754  0.8437
  121OSM    C3F12761   2.696   1.418   6.180  0.2369  0.2754 -0.7310
  121OSM    H3F12762   2.731   1.312   6.178  0.6293  0.2819  1.7917
  121OSM    H3G12763   2.774   1.486   6.223  0.6853  0.0869 -1.2348
  121OSM    C4F12764   2.680   1.449   6.031 -0.6262 -0.0944  0.3286
  121OSM    H4F12765   2.655   1.557   6.024  1.3946  0.4293  0.4429
  121OSM    H4G12766   2.598   1.390   5.983  0.8936 -1.3526 -0.8550
  121OSM    C5F12767   2.802   1.415   5.949 -0.0662 -0.3941  0.5139
  121OSM    H5F12768   2.815   1.305   5.959  3.2940 -0.0541  1.2970
  121OSM    H5G12769   2.905   1.448   5.978  0.3531  0.6441 -1.8871
  121OSM    C6F12770   2.782   1.449   5.805  0.2977 -0.1202 -0.1063
  121OSM    H6F12771   2.759   1.557   5.795  0.3946 -0.1004 -0.1159
  121OSM    H6G12772   2.692   1.402   5.760 -1.2449  3.4500 -1.0868
  121OSM    C7F12773   2.896   1.405   5.710  0.9326  0.2161  0.6170
  121OSM    H7F12774   2.944   1.306   5.728 -0.9537 -0.7909  0.3502
  121OSM    H7G12775   2.974   1.482   5.723  1.0177 -0.3171  4.2170
  121OSM    C8F12776   2.845   1.395   5.566 -0.2926 -0.1150  0.6778
  121OSM    H8F12777   2.760   1.324   5.560  0.8527 -1.4595 -0.8369
  121OSM    H8G12778   2.931   1.363   5.503 -0.6582  0.1548  0.0287
  121OSM    C9F12779   2.797   1.526   5.504 -0.6078 -0.3990 -0.6525
  121OSM    H9F12780   2.692   1.544   5.532  0.0474  0.2353  1.5971
  121OSM   C10F12781   2.869   1.624   5.443 -0.3599 -0.1053 -0.6362
  121OSM   H10F12782   2.816   1.711   5.402  0.9471  0.7044 -0.6816
  121OSM   C11F12783   3.018   1.600   5.416 -0.7223  0.0730 -0.1224
  121OSM   H11F12784   3.028   1.510   5.352 -1.7659  1.3370 -2.1548
  121OSM   H11G12785   3.065   1.590   5.516  1.8577  0.3113 -1.2372
  121OSM   C12F12786   3.089   1.713   5.342  0.9255  0.4563  0.1745
  121OSM   H12F12787   3.199   1.699   5.350  1.3911  4.0979  2.6100
  121OSM   H12G12788   3.070   1.806   5.401  0.3936  0.1850  0.4365
  121OSM   C13F12789   3.035   1.740   5.199 -0.2213  0.4104  0.9088
  121OSM   H13F12790   3.099   1.820   5.156  0.6877 -0.8015 -0.0776
  121OSM   H13G12791   2.933   1.783   5.205  0.2202  1.7679 -0.5848
  121OSM   C14F12792   3.047   1.625   5.091  0.0188 -0.1470 -0.1113
  121OSM   H14F12793   2.994   1.533   5.123  0.3512 -0.9230 -1.7258
  121OSM   H14G12794   3.155   1.601   5.097 -0.1247 -0.9158 -0.5591
  121OSM   C15F12795   3.022   1.656   4.948 -0.1717 -0.1351  0.0787
  121OSM   H15F12796   3.052   1.575   4.878 -2.6717  1.5704 -3.2338
  121OSM   H15G12797   3.094   1.737   4.922 -1.3751  0.9627  0.0337
  121OSM   C16F12798   2.880   1.717   4.916 -0.0973  0.5180  0.4741
  121OSM   H16F12799   2.848   1.784   4.999 -0.2547  2.5598 -1.1769
  121OSM   H16G12800   2.808   1.636   4.894  3.5578 -2.6970 -0.7943
  121OSM   C17F12801   2.888   1.787   4.774  0.5389  0.6235  0.2864
  121OSM   H17F12802   2.988   1.832   4.758  1.8411 -0.9521  3.1203
  121OSM   H17G12803   2.807   1.861   4.790  0.4899  0.8638 -0.9867
  121OSM   C18F12804   2.849   1.698   4.652  0.2211  0.4528  0.0168
  121OSM   H18F12805   2.757   1.635   4.663 -0.4302  1.3522 -0.2005
  121OSM   H18G12806   2.930   1.632   4.616 -2.6520 -0.7964 -5.0919
  121OSM   H18H12807   2.824   1.762   4.565  1.3183  0.4171 -0.3342
  122OSM      N12808   6.178   1.593   6.953  0.1350  0.0651  1.0045
  122OSM    C1512809   6.194   1.465   6.872  0.4029 -0.2893  0.0148
  122OSM   H15A12810   6.290   1.418   6.883  0.7013  0.0373 -1.0961
  122OSM   H15B12811   6.163   1.483   6.770 -0.4907  4.2437  0.8515
  122OSM   H15C12812   6.121   1.400   6.917  2.0616 -0.3735  2.8492
  122OSM    C1412813   6.245   1.569   7.086  0.4699  0.0079 -0.1980
  122OSM   H14A12814   6.191   1.518   7.165  0.9682  1.2181  0.9703
  122OSM   H14B12815   6.287   1.655   7.136 -0.4746 -0.9476  2.4216
  122OSM   H14C12816   6.330   1.505   7.066  0.3068 -0.6265  1.0361
  122OSM    C1312817   6.265   1.691   6.884  0.4885 -0.6181 -0.2158
  122OSM   H13A12818   6.367   1.661   6.868 -0.1621 -3.4496  0.4406
  122OSM   H13B12819   6.269   1.785   6.937 -3.4219  0.0145 -0.6853
  122OSM   H13C12820   6.216   1.708   6.789 -0.5745 -2.7115 -0.1040
  122OSM    C1212821   6.035   1.640   6.959 -0.1986 -0.2779  0.2015
  122OSM   H12A12822   6.019   1.725   7.024 -0.1141 -0.7599  0.8556
  122OSM   H12B12823   5.977   1.569   7.017 -1.4001  0.3997 -0.1309
  122OSM    C1112824   5.974   1.669   6.825  1.0888 -0.1280  0.6487
  122OSM   H11A12825   5.866   1.646   6.833  1.3639 -1.1202  1.7675
  122OSM   H11B12826   6.007   1.593   6.752  0.2751  0.9523 -0.9128
  122OSM      P12827   5.930   1.931   6.784  0.0943  0.1026  0.1372
  122OSM    O1312828   5.915   1.964   6.931  0.3037 -1.0963  0.0346
  122OSM    O1412829   5.989   2.038   6.699 -0.9362 -0.6802 -0.4529
  122OSM    O1112830   5.793   1.885   6.719  0.2182 -0.4278  0.1776
  122OSM    O1212831   6.015   1.793   6.770 -0.1174  0.1009 -0.4941
  122OSM    C1S12832   5.760   1.928   6.584  0.0293 -1.0347 -0.4090
  122OSM    H1S12833   5.828   2.006   6.544  1.0401 -0.8920  1.4832
  122OSM    H1T12834   5.660   1.977   6.579  1.0982  1.1267 -2.0585
  122OSM     NF12835   5.784   1.860   6.349  1.1758  0.0914 -0.3066
  122OSM    HNF12836   5.698   1.857   6.299 -0.5996 -4.6396  2.4163
  122OSM    C2S12837   5.770   1.804   6.493 -0.4196  0.3068 -0.0738
  122OSM    H2S12838   5.865   1.751   6.517 -0.0005 -0.5466 -3.2382
  122OSM    C3S12839   5.643   1.719   6.524 -0.1738  0.1279  0.7102
  122OSM    H3S12840   5.558   1.782   6.490 -0.5663 -1.5395 -1.6304
  122OSM     O312841   5.608   1.701   6.658 -0.2239 -0.0405  0.1236
  122OSM    HO312842   5.664   1.773   6.687 -1.2257  1.1462 -0.7499
  122OSM    C4S12843   5.641   1.592   6.435  0.4867 -0.9366 -0.4460
  122OSM    H4S12844   5.634   1.616   6.327 -2.1010 -0.6924 -0.2861
  122OSM    C5S12845   5.668   1.469   6.481 -0.4145  0.1909 -0.7413
  122OSM    H5S12846   5.699   1.454   6.586  0.5283 -1.7402 -1.2450
  122OSM    C6S12847   5.692   1.342   6.394 -0.4576 -0.0997  0.0319
  122OSM    H6S12848   5.617   1.265   6.424 -0.6655 -0.1901 -0.7002
  122OSM    H6T12849   5.793   1.296   6.400 -0.5685 -0.4958 -0.9927
  122OSM    C7S12850   5.673   1.356   6.244  0.0904 -0.4910 -0.9555
  122OSM    H7S12851   5.742   1.433   6.202  0.9506 -0.4698  0.4103
  122OSM    H7T12852   5.572   1.400   6.230  1.0173  1.9287 -0.6122
  122OSM    C8S12853   5.677   1.220   6.170 -0.2725 -0.6985  0.4087
  122OSM    H8S12854   5.594   1.150   6.195 -0.9566 -1.7724 -4.0741
  122OSM    H8T12855   5.773   1.173   6.201  1.7056  2.0374 -1.1109
  122OSM    C9S12856   5.670   1.239   6.016 -0.3020  0.2657  0.0134
  122OSM    H9S12857   5.738   1.321   5.983 -1.2607  0.7098 -0.9014
  122OSM    H9T12858   5.567   1.257   5.980  0.2091  3.5367 -0.1061
  122OSM   C10S12859   5.733   1.114   5.954 -0.2048  0.6187 -0.1688
  122OSM   H10S12860   5.667   1.027   5.974 -0.1862  0.3623 -1.1531
  122OSM   H10T12861   5.837   1.085   5.978 -0.5266 -1.4735 -1.0158
  122OSM   C11S12862   5.749   1.130   5.801  0.5486  0.1988 -0.3255
  122OSM   H11S12863   5.799   1.228   5.789 -1.4363  1.3423  0.2330
  122OSM   H11T12864   5.647   1.151   5.762  0.0700  0.8387  1.2009
  122OSM   C12S12865   5.804   1.003   5.730 -0.6098  0.1103 -0.4222
  122OSM   H12S12866   5.731   0.919   5.730  1.4259 -1.7877 -1.9140
  122OSM   H12T12867   5.888   0.964   5.792  0.4617  0.7330 -1.4389
  122OSM   C13S12868   5.856   1.028   5.588  0.2331  0.2218 -0.3246
  122OSM   H13S12869   5.897   0.935   5.542 -1.3941  0.7742 -3.1766
  122OSM   H13T12870   5.936   1.105   5.584 -0.1745  0.7535  1.2882
  122OSM   C14S12871   5.748   1.092   5.499  0.1744 -0.3779 -0.3151
  122OSM   H14S12872   5.763   1.202   5.506 -0.3795 -0.2200 -1.4377
  122OSM   H14T12873   5.648   1.055   5.531  0.0478 -1.3284 -1.7239
  122OSM   C15S12874   5.765   1.038   5.356 -0.0909  0.3441  0.5374
  122OSM   H15S12875   5.735   0.933   5.333 -0.2610  0.5795 -0.3717
  122OSM   H15T12876   5.871   1.035   5.325 -0.1870  0.4513  0.1865
  122OSM   C16S12877   5.696   1.131   5.255  0.4329  0.3029  1.0311
  122OSM   H16S12878   5.711   1.236   5.287  0.1409  1.4765 -2.3254
  122OSM   H16T12879   5.587   1.118   5.237  0.6731  0.7998 -1.0598
  122OSM   C17S12880   5.746   1.128   5.107  1.0685  0.1548 -0.2309
  122OSM   H17S12881   5.718   1.032   5.060  0.7168  0.4019 -0.5345
  122OSM   H17T12882   5.857   1.120   5.102  0.9797 -0.2172 -2.2650
  122OSM   C18S12883   5.685   1.237   5.019 -0.0834  0.5137 -0.3810
  122OSM   H18S12884   5.574   1.238   5.025 -0.0690 -0.2081  0.1543
  122OSM   H18T12885   5.724   1.220   4.917 -0.6141 -0.3394 -0.4507
  122OSM   H18U12886   5.729   1.329   5.063 -0.5494 -0.0906  1.4357
  122OSM    C1F12887   5.889   1.918   6.301  0.0014 -0.2157  0.0704
  122OSM     OF12888   5.988   1.936   6.370  0.2702 -0.1907  0.5083
  122OSM    C2F12889   5.892   1.971   6.152 -0.1044  0.2822 -0.7473
  122OSM    H2F12890   5.844   2.071   6.159 -1.5036 -0.3974 -0.3154
  122OSM    H2G12891   5.832   1.901   6.091 -1.5037  0.9981 -0.2176
  122OSM    C3F12892   6.032   1.979   6.085  0.9495  0.1705  0.1797
  122OSM    H3F12893   6.089   1.884   6.078  1.2639  0.4351 -1.1226
  122OSM    H3G12894   6.093   2.049   6.147  0.1454  0.1657  0.9796
  122OSM    C4F12895   6.016   2.038   5.940  0.0874  0.7890  0.2090
  122OSM    H4F12896   5.975   2.140   5.955  0.4459  1.2710 -1.7570
  122OSM    H4G12897   5.952   1.976   5.874  0.9553 -0.5776  0.6118
  122OSM    C5F12898   6.153   2.053   5.867  0.2214 -0.1225 -0.0609
  122OSM    H5F12899   6.191   1.950   5.849  0.9250 -0.1562  1.4959
  122OSM    H5G12900   6.223   2.101   5.938 -0.0117  0.2145 -0.0589
  122OSM    C6F12901   6.136   2.145   5.743 -0.7631 -0.5578  0.1666
  122OSM    H6F12902   6.237   2.174   5.708 -0.9884 -0.5095 -0.4468
  122OSM    H6G12903   6.100   2.242   5.783  0.4893  0.3167 -0.7563
  122OSM    C7F12904   6.045   2.092   5.634  0.6955 -0.1322 -0.9685
  122OSM    H7F12905   6.050   1.981   5.621 -2.1971 -0.5222  0.4495
  122OSM    H7G12906   6.094   2.126   5.540 -0.9977  1.9963 -1.1520
  122OSM    C8F12907   5.893   2.121   5.633  0.3209 -0.1494  0.1460
  122OSM    H8F12908   5.856   2.132   5.737 -1.3674 -2.0145 -0.1944
  122OSM    H8G12909   5.849   2.029   5.590  2.3972 -1.4556  0.7002
  122OSM    C9F12910   5.864   2.258   5.564 -0.4533  0.9564 -0.1228
  122OSM    H9F12911   5.863   2.350   5.623 -0.4358  0.4926  0.6185
  122OSM   C10F12912   5.852   2.262   5.428 -0.8643 -0.4856  1.0951
  122OSM   H10F12913   5.839   2.361   5.381 -0.6167 -0.4008  1.2033
  122OSM   C11F12914   5.846   2.141   5.335  0.1179  0.5137 -0.4820
  122OSM   H11F12915   5.758   2.158   5.269 -0.6072 -4.0308 -0.9872
  122OSM   H11G12916   5.828   2.044   5.387 -1.7402  0.8753 -0.3584
  122OSM   C12F12917   5.963   2.124   5.245  0.1430 -0.0112  0.3883
  122OSM   H12F12918   5.962   2.023   5.200  1.1181 -0.9042  2.2873
  122OSM   H12G12919   6.064   2.138   5.289  0.8833 -1.0708 -0.8982
  122OSM   C13F12920   5.954   2.228   5.128  0.1783  0.0262 -0.2142
  122OSM   H13F12921   5.938   2.328   5.174 -2.8320 -1.0147  1.3335
  122OSM   H13G12922   5.859   2.202   5.077 -0.4216  0.4304  0.6650
  122OSM   C14F12923   6.070   2.226   5.030 -0.4748  0.3756 -0.0985
  122OSM   H14F12924   6.099   2.120   5.018  0.5659  0.6493 -0.1501
  122OSM   H14G12925   6.156   2.278   5.078 -0.3299 -0.7608  0.9188
  122OSM   C15F12926   6.031   2.285   4.896 -0.2000 -0.0192  0.1039
  122OSM   H15F12927   6.007   2.391   4.914  3.8938  0.7637  2.0323
  122OSM   H15G12928   5.938   2.236   4.861 -0.9885  2.5623 -1.7089
  122OSM   C16F12929   6.136   2.263   4.791  0.2288  0.5353  0.6061
  122OSM   H16F12930   6.096   2.272   4.688  1.5420  1.0375  0.1107
  122OSM   H16G12931   6.175   2.159   4.792 -0.0272  0.4353  0.1182
  122OSM   C17F12932   6.258   2.351   4.817 -0.2179 -0.3769 -0.3950
  122OSM   H17F12933   6.295   2.332   4.920 -2.7754  0.2312  0.7057
  122OSM   H17G12934   6.215   2.453   4.824 -2.2035 -1.1537 -0.7032
  122OSM   C18F12935   6.375   2.355   4.710  0.3112  0.0110 -0.4677
  122OSM   H18F12936   6.446   2.431   4.749 -0.9414  0.5521  0.8606
  122OSM   H18G12937   6.358   2.386   4.605 -1.4994 -0.6982 -0.4116
  122OSM   H18H12938   6.429   2.258   4.706  1.1990  0.5324 -2.4844
  123OSM      N12939   0.206   4.684   2.116 -0.0280  0.4541 -0.6931
  123OSM    C1512940   0.149   4.822   2.111 -0.4761  0.2384  0.0917
  123OSM   H15A12941   0.224   4.897   2.129 -0.8375  0.9335 -1.1759
  123OSM   H15B12942   0.075   4.819   2.190  1.0768 -1.9931  1.5735
  123OSM   H15C12943   0.108   4.854   2.016 -3.7711  1.1706  1.6710
  123OSM    C1412944   0.097   4.591   2.069  0.0771 -0.3650  0.5719
  123OSM   H14A12945   0.137   4.492   2.055  1.1619  0.1450 -0.1597
  123OSM   H14B12946   0.057   4.627   1.975  0.4349  0.5061  0.7380
  123OSM   H14C12947   0.020   4.586   2.144  0.8399 -1.2156  1.3207
  123OSM    C1312948   0.323   4.676   2.017 -0.1804  0.3746  0.1087
  123OSM   H13A12949   0.296   4.722   1.923  0.9037  0.3560 -0.2239
  123OSM   H13B12950   0.346   4.575   1.985 -0.9172  0.2598 -0.0808
  123OSM   H13C12951   0.406   4.723   2.067 -1.1229 -0.3668  2.4912
  123OSM    C1212952   0.242   4.648   2.255 -0.1636  0.2188 -0.9100
  123OSM   H12A12953   0.338   4.689   2.283 -0.3538 -0.5003  0.8968
  123OSM   H12B12954   0.271   4.544   2.260  0.5199  0.4695  1.2882
  123OSM    C1112955   0.133   4.673   2.366 -0.0488 -0.9001 -0.2184
  123OSM   H11A12956   0.100   4.777   2.344  1.2476 -0.5221 -0.4855
  123OSM   H11B12957   0.185   4.679   2.465  0.6876 -0.7288 -0.6048
  123OSM      P12958   0.047   4.445   2.435  0.5258  0.4547 -0.3344
  123OSM    O1312959  -0.075   4.362   2.408  0.4314 -1.2788 -0.8164
  123OSM    O1412960   0.183   4.387   2.410 -0.2386 -0.2092  0.5206
  123OSM    O1112961   0.032   4.484   2.580 -0.8285 -0.6480 -0.1202
  123OSM    O1212962   0.026   4.580   2.355 -0.1408  0.1567  0.6374
  123OSM    C1S12963  -0.057   4.439   2.678 -0.2505 -0.2166 -0.4222
  123OSM    H1S12964  -0.042   4.338   2.722 -1.1760 -0.6582 -1.1103
  123OSM    H1T12965  -0.157   4.435   2.630 -0.2764  4.2997 -1.1483
  123OSM     NF12966  -0.113   4.476   2.916  0.4627 -0.1908 -0.1692
  123OSM    HNF12967  -0.211   4.484   2.930  0.2731 -0.8061 -1.0505
  123OSM    C2S12968  -0.058   4.537   2.798  0.0105 -0.0050 -0.4339
  123OSM    H2S12969   0.045   4.571   2.821  0.1237 -1.0175  0.6469
  123OSM    C3S12970  -0.128   4.669   2.763 -0.3453 -0.1558  0.2030
  123OSM    H3S12971  -0.232   4.647   2.729 -0.5278  2.1061 -0.8749
  123OSM     O312972  -0.057   4.730   2.648 -0.0009  0.2949  0.1061
  123OSM    HO312973  -0.026   4.652   2.601  0.4729  0.2551  0.4840
  123OSM    C4S12974  -0.135   4.767   2.887  0.2681 -0.4253  0.2083
  123OSM    H4S12975  -0.209   4.733   2.962  0.3661 -1.3006 -0.0773
  123OSM    C5S12976  -0.049   4.865   2.927  0.2220  0.4039  0.3741
  123OSM    H5S12977   0.040   4.881   2.865 -0.5829 -0.7921 -1.1444
  123OSM    C6S12978  -0.050   4.953   3.049  0.0719 -0.1539 -0.3440
  123OSM    H6S12979  -0.151   4.950   3.093 -1.2128 -1.4782 -3.1326
  123OSM    H6T12980  -0.032   5.054   3.005  1.5934 -0.7062 -1.0788
  123OSM    C7S12981   0.061   4.936   3.160  0.3273 -0.9102  0.5042
  123OSM    H7S12982   0.162   4.943   3.115 -0.8869 -2.1606 -2.7602
  123OSM    H7T12983   0.051   4.827   3.181 -1.0660 -0.6717  1.2240
  123OSM    C8S12984   0.026   5.011   3.287  0.0967 -0.2926  0.0151
  123OSM    H8S12985  -0.025   5.105   3.258 -0.2137 -0.3547  0.3498
  123OSM    H8T12986   0.122   5.036   3.337 -0.4252 -0.4610  1.1454
  123OSM    C9S12987  -0.052   4.937   3.386  0.4218  0.0996 -0.5547
  123OSM    H9S12988  -0.122   4.865   3.339  2.0194 -1.3392 -0.8335
  123OSM    H9T12989  -0.112   4.986   3.466 -0.7420 -2.6658  0.3730
  123OSM   C10S12990   0.035   4.841   3.475  0.1114 -0.6336 -1.5139
  123OSM   H10S12991   0.097   4.781   3.404  0.6102 -1.4025 -0.4445
  123OSM   H10T12992  -0.046   4.782   3.522  0.4712 -0.2159 -0.3529
  123OSM   C11S12993   0.135   4.919   3.571  0.2572  0.3439  0.0492
  123OSM   H11S12994   0.103   5.024   3.589  2.3430  1.2158 -1.0000
  123OSM   H11T12995   0.234   4.938   3.523 -0.3350 -2.2737 -2.4688
  123OSM   C12S12996   0.165   4.844   3.706 -0.3251 -0.4583 -0.3363
  123OSM   H12S12997   0.240   4.768   3.675 -0.4682 -1.8320  2.3997
  123OSM   H12T12998   0.082   4.787   3.752  0.7075 -3.0790 -1.5396
  123OSM   C13S12999   0.232   4.937   3.801  0.5987 -0.9416  0.5999
  123OSM   H13S13000   0.163   5.011   3.847 -0.1982 -0.6525 -0.9981
  123OSM   H13T13001   0.303   5.000   3.743 -0.2572 -1.4810 -1.1017
  123OSM   C14S13002   0.305   4.863   3.913  0.0487 -0.2302  0.0214
  123OSM   H14S13003   0.385   4.800   3.869 -0.2313  0.5735 -1.7032
  123OSM   H14T13004   0.234   4.793   3.962  0.7164 -1.2204 -0.4002
  123OSM   C15S13005   0.364   4.957   4.022 -0.3629 -0.3619  0.0490
  123OSM   H15S13006   0.290   5.039   4.030 -1.2523 -1.1370 -0.0898
  123OSM   H15T13007   0.463   4.998   3.992  0.4104  0.6465  3.5838
  123OSM   C16S13008   0.382   4.900   4.161 -0.4026 -0.1492  0.1932
  123OSM   H16S13009   0.424   4.797   4.160  0.4551  0.1931  0.1183
  123OSM   H16T13010   0.280   4.900   4.206 -1.2409  4.6199 -1.1304
  123OSM   C17S13011   0.478   4.978   4.248  0.1863  0.4340  0.5973
  123OSM   H17S13012   0.468   5.087   4.230  1.4033  0.4594 -0.0134
  123OSM   H17T13013   0.577   4.951   4.205  0.3063  3.0045 -0.9762
  123OSM   C18S13014   0.463   4.953   4.397 -0.1858  0.3802 -0.2091
  123OSM   H18S13015   0.440   5.036   4.467 -1.1198  1.9261 -2.2462
  123OSM   H18T13016   0.538   4.877   4.426 -1.1758 -1.0375 -1.1953
  123OSM   H18U13017   0.373   4.887   4.402 -0.1584  0.4166  1.2253
  123OSM    C1F13018  -0.049   4.396   3.002 -0.0582  0.3136 -0.4798
  123OSM     OF13019   0.072   4.406   3.008  0.1559 -0.0258  0.5534
  123OSM    C2F13020  -0.111   4.299   3.095 -0.5957 -0.0312  0.6141
  123OSM    H2F13021  -0.068   4.205   3.056  0.1000  1.1283 -1.5830
  123OSM    H2G13022  -0.219   4.302   3.070 -0.1664  2.5645 -1.3907
  123OSM    C3F13023  -0.080   4.335   3.242 -0.1920  0.1761 -0.2267
  123OSM    H3F13024   0.029   4.341   3.261 -0.2388 -1.3237  0.6800
  123OSM    H3G13025  -0.110   4.246   3.302  0.5735  0.3516  0.4438
  123OSM    C4F13026  -0.164   4.454   3.302  0.1320  0.9939 -0.6423
  123OSM    H4F13027  -0.273   4.442   3.288  0.1760 -1.9094  0.6540
  123OSM    H4G13028  -0.131   4.545   3.248 -0.6324  0.9884 -1.1275
  123OSM    C5F13029  -0.122   4.482   3.443  0.8236  0.4058  0.2407
  123OSM    H5F13030  -0.164   4.582   3.470 -0.4904 -0.2124  0.5550
  123OSM    H5G13031  -0.012   4.492   3.459  0.6644 -0.8157  2.3839
  123OSM    C6F13032  -0.170   4.384   3.555 -0.3827 -0.0035 -0.0703
  123OSM    H6F13033  -0.187   4.284   3.510 -2.6426 -0.0318  0.7422
  123OSM    H6G13034  -0.269   4.418   3.591 -2.2739 -4.9788  0.2717
  123OSM    C7F13035  -0.080   4.395   3.679  0.3305  0.5318  0.2913
  123OSM    H7F13036   0.024   4.411   3.642  0.0955  0.0769 -0.5980
  123OSM    H7G13037  -0.077   4.299   3.734 -1.4455  0.2535 -0.0583
  123OSM    C8F13038  -0.110   4.512   3.773 -0.1984 -0.6051 -0.2659
  123OSM    H8F13039  -0.213   4.488   3.808 -0.0034 -0.1194  0.6774
  123OSM    H8G13040  -0.104   4.613   3.726  0.9920  0.9182  2.8952
  123OSM    C9F13041  -0.015   4.522   3.889  0.0743 -0.0333  0.4868
  123OSM    H9F13042   0.080   4.479   3.854 -0.2604  1.2094 -2.2052
  123OSM   C10F13043  -0.022   4.573   4.015 -0.6821 -0.3881  0.9124
  123OSM   H10F13044   0.060   4.576   4.089 -0.9355 -1.3226  1.2360
  123OSM   C11F13045  -0.146   4.641   4.057  0.4821 -0.3123 -0.5659
  123OSM   H11F13046  -0.187   4.685   3.964 -0.4352 -2.5699 -1.3025
  123OSM   H11G13047  -0.129   4.728   4.124  2.1786  1.0065 -2.6028
  123OSM   C12F13048  -0.241   4.544   4.137  0.2707  0.0580 -0.4428
  123OSM   H12F13049  -0.261   4.463   4.064 -0.6434  1.0623 -1.3505
  123OSM   H12G13050  -0.336   4.597   4.159 -0.6585 -0.6844 -2.4149
  123OSM   C13F13051  -0.190   4.480   4.274  0.2742 -0.6413 -0.3952
  123OSM   H13F13052  -0.217   4.549   4.356 -2.5809 -1.9436 -0.1528
  123OSM   H13G13053  -0.079   4.472   4.267  0.4374 -0.7829  1.7291
  123OSM   C14F13054  -0.250   4.341   4.300 -0.1226  0.3876 -0.3673
  123OSM   H14F13055  -0.193   4.274   4.233  3.5164  0.3357  2.4369
  123OSM   H14G13056  -0.360   4.334   4.289 -0.1208 -0.6568  0.1147
  123OSM   C15F13057  -0.212   4.292   4.442 -0.0759  0.4221  0.1311
  123OSM   H15F13058  -0.103   4.276   4.451 -0.1028  1.4216  3.3840
  123OSM   H15G13059  -0.246   4.187   4.448  0.3357  0.1726 -1.3013
  123OSM   C16F13060  -0.258   4.367   4.560  0.0282 -0.2235  0.1076
  123OSM   H16F13061  -0.368   4.367   4.570 -0.0138 -0.0427 -0.3360
  123OSM   H16G13062  -0.224   4.472   4.557 -1.0230  0.1150 -0.3514
  123OSM   C17F13063  -0.202   4.306   4.686 -0.3651 -0.4437 -0.0021
  123OSM   H17F13064  -0.189   4.382   4.766  3.0553 -0.7952 -0.0862
  123OSM   H17G13065  -0.102   4.264   4.663 -0.5765  0.3022 -2.5666
  123OSM   C18F13066  -0.295   4.194   4.735 -0.1047 -0.4524 -0.1912
  123OSM   H18F13067  -0.375   4.234   4.801  0.0003 -0.5528 -0.0009
  123OSM   H18G13068  -0.242   4.122   4.801 -0.7821  1.3449  2.4746
  123OSM   H18H13069  -0.342   4.138   4.652 -1.1217 -0.2964  0.2642
  124OSM      N13070   1.094   5.838   2.434 -0.0388  0.4310  0.0244
  124OSM    C1513071   1.115   5.756   2.308 -0.4168 -0.7432  0.0640
  124OSM   H15A13072   1.178   5.671   2.330  0.8380  0.3457  0.7799
  124OSM   H15B13073   1.160   5.807   2.224  0.1804 -0.6058  0.4586
  124OSM   H15C13074   1.015   5.731   2.275 -1.9370  3.2262  1.0905
  124OSM    C1413075   1.214   5.890   2.496  0.5485  0.0079  0.4576
  124OSM   H14A13076   1.273   5.957   2.436 -0.6441 -1.1116 -2.1074
  124OSM   H14B13077   1.272   5.803   2.523  0.5730  0.1654  0.9282
  124OSM   H14C13078   1.191   5.950   2.583 -1.0339  0.2933 -0.1277
  124OSM    C1313079   1.006   5.958   2.392  0.7681  0.7515  0.0741
  124OSM   H13A13080   0.925   5.927   2.327  0.4676 -0.8769  1.1700
  124OSM   H13B13081   1.065   6.036   2.345  0.4162  0.7602 -0.3636
  124OSM   H13C13082   0.972   5.995   2.487  0.3770  0.6956 -0.0415
  124OSM    C1213083   1.029   5.755   2.546 -0.4434 -0.6385 -0.3689
  124OSM   H12A13084   1.018   5.816   2.634 -1.2832  0.3797 -1.1533
  124OSM   H12B13085   1.101   5.684   2.584 -0.6784 -0.6513  0.0576
  124OSM    C1113086   0.898   5.687   2.511  0.6889 -0.4779  0.3109
  124OSM   H11A13087   0.818   5.762   2.493 -0.2242 -1.0438  1.8064
  124OSM   H11B13088   0.847   5.642   2.599  1.1647  2.9141  2.5183
  124OSM      P13089   0.855   5.443   2.391 -0.3768  0.0562 -0.1400
  124OSM    O1313090   0.710   5.439   2.415 -0.1775 -0.0924  0.2005
  124OSM    O1413091   0.903   5.366   2.278 -0.4077 -0.0331  0.0473
  124OSM    O1113092   0.922   5.374   2.520 -0.0865  0.0786  0.3476
  124OSM    O1213093   0.900   5.598   2.396 -0.2620  0.1408  0.3975
  124OSM    C1S13094   1.061   5.389   2.535 -0.1120  0.4107  0.1396
  124OSM    H1S13095   1.104   5.485   2.500  1.6620 -0.3609  0.1163
  124OSM    H1T13096   1.116   5.310   2.481  0.7702 -0.0031  1.5860
  124OSM     NF13097   1.253   5.384   2.697  0.8494  0.3763  0.3834
  124OSM    HNF13098   1.312   5.307   2.720  0.8657  0.9555  2.4314
  124OSM    C2S13099   1.107   5.376   2.682  0.3782  0.2227 -0.6946
  124OSM    H2S13100   1.059   5.457   2.740  1.5802  0.4689  0.0066
  124OSM    C3S13101   1.050   5.240   2.738 -0.6045 -0.3517 -0.5203
  124OSM    H3S13102   1.093   5.161   2.672 -2.2450 -0.4211 -1.5743
  124OSM     O313103   0.912   5.221   2.718  0.5424  0.6159 -0.4015
  124OSM    HO313104   0.892   5.294   2.659 -0.9139 -0.7253 -1.6801
  124OSM    C4S13105   1.078   5.210   2.879  0.3624  0.0991 -0.2898
  124OSM    H4S13106   1.180   5.177   2.903 -0.1742 -0.8102  0.8269
  124OSM    C5S13107   0.993   5.216   2.981  0.0475 -0.1026  0.0315
  124OSM    H5S13108   0.889   5.242   2.958 -0.5414  0.9673  3.3286
  124OSM    C6S13109   1.012   5.207   3.128 -0.0481 -0.1445 -0.1140
  124OSM    H6S13110   0.946   5.127   3.167 -0.3087 -1.3245 -2.7246
  124OSM    H6T13111   0.951   5.291   3.167 -0.4758 -0.3777 -0.2729
  124OSM    C7S13112   1.152   5.213   3.196  0.0177  0.4715  0.0755
  124OSM    H7S13113   1.209   5.308   3.184 -0.3675  1.3052  3.6643
  124OSM    H7T13114   1.226   5.136   3.169  3.8991  3.0783  2.3199
  124OSM    C8S13115   1.139   5.207   3.347 -0.0333  0.0929 -0.1171
  124OSM    H8S13116   1.233   5.180   3.398  0.3692  2.8562  0.7908
  124OSM    H8T13117   1.059   5.133   3.372 -2.5961  2.7545  0.2076
  124OSM    C9S13118   1.093   5.334   3.413  0.5268 -0.2131  0.0168
  124OSM    H9S13119   1.005   5.376   3.359 -1.2922 -3.2048  0.4486
  124OSM    H9T13120   1.164   5.419   3.402 -0.0013  0.2835  0.3746
  124OSM   C10S13121   1.040   5.313   3.546 -0.0172  0.8979  0.0635
  124OSM   H10S13122   0.973   5.224   3.554 -2.7765  2.8587  0.0882
  124OSM   H10T13123   0.978   5.402   3.570  1.6235  2.8560 -2.5479
  124OSM   C11S13124   1.148   5.279   3.650 -0.4554 -0.5502 -0.1048
  124OSM   H11S13125   1.223   5.360   3.632  0.3062 -0.2259  3.6606
  124OSM   H11T13126   1.209   5.187   3.636 -0.6743 -0.6585 -0.3453
  124OSM   C12S13127   1.106   5.290   3.797 -1.0563 -0.0421  0.2425
  124OSM   H12S13128   1.171   5.225   3.859 -0.1953  0.5827  0.0076
  124OSM   H12T13129   1.007   5.243   3.820 -2.0876  1.5993 -0.6459
  124OSM   C13S13130   1.088   5.423   3.860  0.0812 -0.8494 -0.0027
  124OSM   H13S13131   1.032   5.492   3.792  1.4547  1.9583  1.5545
  124OSM   H13T13132   1.182   5.480   3.875  0.0923  0.1474 -3.0121
  124OSM   C14S13133   1.009   5.430   3.993  1.0817 -0.1684  0.9303
  124OSM   H14S13134   1.063   5.484   4.074 -0.0530  0.4649  1.2935
  124OSM   H14T13135   1.001   5.326   4.030  0.0203  0.1773  1.7511
  124OSM   C15S13136   0.859   5.488   3.980 -0.2592 -0.2384  0.4322
  124OSM   H15S13137   0.802   5.419   3.914  0.3854 -0.5270  0.1675
  124OSM   H15T13138   0.871   5.587   3.932  3.2007 -0.6861  0.1396
  124OSM   C16S13139   0.792   5.493   4.120  0.0196  0.2872  0.0588
  124OSM   H16S13140   0.689   5.533   4.108  0.1195 -0.1015 -2.7403
  124OSM   H16T13141   0.847   5.560   4.190  1.1688  0.8601 -1.3365
  124OSM   C17S13142   0.767   5.358   4.194 -0.1426  0.0549  0.0648
  124OSM   H17S13143   0.859   5.300   4.218 -0.9866 -0.3901  2.4467
  124OSM   H17T13144   0.720   5.286   4.124  1.8448 -0.6099 -0.6429
  124OSM   C18S13145   0.694   5.355   4.325 -0.1720  0.1627 -0.5794
  124OSM   H18S13146   0.593   5.392   4.298  0.1903  1.0731 -0.7339
  124OSM   H18T13147   0.736   5.421   4.404 -0.3356 -1.9592  1.4124
  124OSM   H18U13148   0.685   5.256   4.375 -1.8923 -0.3292 -1.7474
  124OSM    C1F13149   1.310   5.501   2.666 -0.4580 -0.3898  0.0394
  124OSM     OF13150   1.237   5.602   2.655 -0.4485 -0.3214 -0.1954
  124OSM    C2F13151   1.459   5.517   2.661 -0.7618 -0.2264  0.1080
  124OSM    H2F13152   1.499   5.446   2.585 -1.2178 -0.1562 -0.2013
  124OSM    H2G13153   1.503   5.480   2.756  2.4040  2.9162  0.0773
  124OSM    C3F13154   1.502   5.655   2.634 -0.8186 -1.0070 -1.0823
  124OSM    H3F13155   1.464   5.725   2.712 -0.1317  0.3069 -1.8784
  124OSM    H3G13156   1.443   5.700   2.551 -0.2869  1.7431 -0.0878
  124OSM    C4F13157   1.654   5.670   2.618  0.7005 -0.0332 -0.2180
  124OSM    H4F13158   1.654   5.768   2.564  0.0525 -0.2835 -0.6884
  124OSM    H4G13159   1.687   5.597   2.541  1.3640  1.0712 -1.0234
  124OSM    C5F13160   1.742   5.658   2.736  0.3641 -0.4326 -1.2967
  124OSM    H5F13161   1.848   5.650   2.702  0.2784 -1.9340 -1.2660
  124OSM    H5G13162   1.728   5.558   2.782  1.3217  0.3936  0.9965
  124OSM    C6F13163   1.734   5.778   2.831  0.1604 -0.6760  1.0408
  124OSM    H6F13164   1.628   5.810   2.838  0.6715  1.2159  0.6551
  124OSM    H6G13165   1.792   5.865   2.795  1.0227 -1.3211  0.8420
  124OSM    C7F13166   1.798   5.759   2.972 -0.0809  0.2425 -0.0688
  124OSM    H7F13167   1.909   5.758   2.974 -0.0692  1.2558  0.3211
  124OSM    H7G13168   1.775   5.654   3.000  1.8763  0.2798  2.0412
  124OSM    C8F13169   1.743   5.854   3.074 -0.1494  0.2011  0.2838
  124OSM    H8F13170   1.665   5.921   3.031 -1.2531 -0.3671  1.3225
  124OSM    H8G13171   1.829   5.917   3.105  0.9448 -2.0752  2.1692
  124OSM    C9F13172   1.683   5.792   3.193  0.5274  0.3590 -0.6792
  124OSM    H9F13173   1.588   5.738   3.183  0.4299  0.1881  0.8593
  124OSM   C10F13174   1.736   5.798   3.318 -0.1264 -0.2639  0.0637
  124OSM   H10F13175   1.691   5.746   3.404  0.6410 -0.4570  0.3564
  124OSM   C11F13176   1.869   5.871   3.361  0.6138  0.0826  0.0088
  124OSM   H11F13177   1.904   5.952   3.293  1.7911 -1.2535 -1.0272
  124OSM   H11G13178   1.944   5.790   3.353  1.0604  0.4623  0.3087
  124OSM   C12F13179   1.856   5.920   3.511 -0.0835  0.1813  0.1836
  124OSM   H12F13180   1.760   5.975   3.523 -1.7504 -2.7574  1.4566
  124OSM   H12G13181   1.944   5.984   3.533  0.2649  0.3276 -1.4861
  124OSM   C13F13182   1.855   5.801   3.610 -0.5881  0.9594 -1.1378
  124OSM   H13F13183   1.952   5.751   3.594 -0.5298  0.5891  0.1955
  124OSM   H13G13184   1.777   5.722   3.600 -0.0574 -0.5437  3.6994
  124OSM   C14F13185   1.848   5.854   3.757 -0.1768 -0.0922 -0.0815
  124OSM   H14F13186   1.760   5.919   3.777  1.0363  2.1111 -1.5546
  124OSM   H14G13187   1.938   5.911   3.786  0.4796 -0.7122 -0.8603
  124OSM   C15F13188   1.834   5.737   3.849  0.1632 -0.2693 -0.1820
  124OSM   H15F13189   1.933   5.689   3.867 -1.5728 -4.5104 -0.7564
  124OSM   H15G13190   1.764   5.656   3.819 -0.0461 -0.8095  1.6765
  124OSM   C16F13191   1.774   5.777   3.980  0.2113 -0.6881  0.2093
  124OSM   H16F13192   1.666   5.788   3.955  0.2266  2.4170  1.0478
  124OSM   H16G13193   1.813   5.871   4.025 -1.6014  0.3943 -0.3575
  124OSM   C17F13194   1.789   5.660   4.082  0.3703  0.0979  0.1026
  124OSM   H17F13195   1.883   5.602   4.073  0.0542 -0.5256  0.7470
  124OSM   H17G13196   1.704   5.593   4.060  0.8439  0.2835 -2.6000
  124OSM   C18F13197   1.773   5.703   4.232  0.0196  0.1508 -0.9171
  124OSM   H18F13198   1.855   5.770   4.268 -2.2767  2.9228 -0.5224
  124OSM   H18G13199   1.759   5.614   4.298 -3.2433  2.4517  1.8574
  124OSM   H18H13200   1.683   5.766   4.245 -0.2399 -0.3325 -0.2839
  125OSM      N13201   2.702   5.133   1.559  0.2095 -0.3643  0.7045
  125OSM    C1513202   2.718   5.181   1.412  0.1507  0.2168 -0.5296
  125OSM   H15A13203   2.821   5.183   1.382  0.1857 -0.0042 -0.4278
  125OSM   H15B13204   2.681   5.280   1.392  0.7756  1.1953  2.6087
  125OSM   H15C13205   2.656   5.122   1.346 -2.2502  0.2618  1.5374
  125OSM    C1413206   2.778   5.234   1.635  0.0212 -0.0828 -1.0746
  125OSM   H14A13207   2.788   5.228   1.743  1.8262  2.0503 -1.0638
  125OSM   H14B13208   2.737   5.332   1.617  2.0185  1.7442  2.9953
  125OSM   H14C13209   2.883   5.237   1.610  0.0853  1.0299 -0.6979
  125OSM    C1313210   2.556   5.158   1.589 -0.7341 -0.0043 -0.4847
  125OSM   H13A13211   2.510   5.244   1.543 -0.4165 -0.1638 -1.1171
  125OSM   H13B13212   2.532   5.158   1.694  2.0694 -0.6615  0.2675
  125OSM   H13C13213   2.512   5.070   1.546  1.2673 -1.9443  1.1508
  125OSM    C1213214   2.742   4.993   1.587  0.2596  0.3330 -0.1884
  125OSM   H12A13215   2.842   4.976   1.550  0.3079 -0.2511  0.2019
  125OSM   H12B13216   2.672   4.925   1.542 -2.2771  0.9060  2.5922
  125OSM    C1113217   2.749   4.952   1.733  0.4933  0.1729  0.0330
  125OSM   H11A13218   2.762   4.842   1.741  0.6913 -0.0535 -2.5635
  125OSM   H11B13219   2.649   4.970   1.776  0.0917  0.8848 -1.1568
  125OSM      P13220   2.997   4.994   1.815 -0.1953  0.2653 -0.1699
  125OSM    O1313221   3.032   4.911   1.693  0.0996 -0.1207 -0.2116
  125OSM    O1413222   3.074   5.114   1.846 -0.1932 -0.7846 -0.3688
  125OSM    O1113223   3.010   4.903   1.944 -0.4330 -0.6163 -0.1589
  125OSM    O1213224   2.846   5.021   1.815 -0.7883  0.3066  0.1188
  125OSM    C1S13225   2.912   4.802   1.985  0.4679  0.1625 -0.3822
  125OSM    H1S13226   2.919   4.701   1.940 -0.9400 -0.1524  0.0439
  125OSM    H1T13227   2.806   4.833   1.971  0.0166 -0.8465  0.5996
  125OSM     NF13228   2.845   4.658   2.171 -0.1819 -0.8467 -0.2640
  125OSM    HNF13229   2.769   4.695   2.224  0.9446 -0.5926  1.2296
  125OSM    C2S13230   2.926   4.770   2.137  0.3716  0.2991  0.6766
  125OSM    H2S13231   3.029   4.735   2.160 -0.3241 -1.4854  1.2403
  125OSM    C3S13232   2.896   4.907   2.217 -0.6704  0.8420 -0.4335
  125OSM    H3S13233   2.794   4.936   2.186 -1.4340  0.3856  1.5044
  125OSM     O313234   2.959   5.026   2.172  0.3801 -0.1974  0.1557
  125OSM    HO313235   2.980   4.999   2.082 -2.0077  1.5061 -1.0177
  125OSM    C4S13236   2.910   4.892   2.371  0.5188 -0.7775  0.1170
  125OSM    H4S13237   2.826   4.834   2.412 -0.2892  0.7268  0.6825
  125OSM    C5S13238   3.017   4.927   2.444  0.0900  0.0329  0.2450
  125OSM    H5S13239   3.112   4.945   2.392  0.4375 -1.9233  0.1365
  125OSM    C6S13240   3.038   4.917   2.592 -0.2532  0.0660  0.1101
  125OSM    H6S13241   3.088   5.012   2.621  0.1466 -0.0986 -0.0297
  125OSM    H6T13242   3.121   4.846   2.616  1.3838  1.3666 -1.4045
  125OSM    C7S13243   2.908   4.907   2.684  0.1934  0.0447  0.5692
  125OSM    H7S13244   2.854   4.811   2.665  0.8924 -0.3826  0.7035
  125OSM    H7T13245   2.845   4.991   2.648  1.6678  1.5745  1.4365
  125OSM    C8S13246   2.914   4.920   2.833  0.3070 -0.9895  0.0206
  125OSM    H8S13247   2.968   4.838   2.884  1.0609 -1.3416 -1.2844
  125OSM    H8T13248   2.811   4.912   2.872  0.9172 -2.1117  1.4782
  125OSM    C9S13249   2.980   5.059   2.884  0.1766 -0.7651 -1.0156
  125OSM    H9S13250   2.913   5.148   2.875  2.5150  1.0497 -1.6013
  125OSM    H9T13251   3.073   5.090   2.832 -0.5284  0.4939 -1.5922
  125OSM   C10S13252   3.019   5.040   3.035 -0.0324 -0.0328 -0.2273
  125OSM   H10S13253   3.099   5.115   3.057  1.2248 -0.3014 -3.4340
  125OSM   H10T13254   3.077   4.945   3.033 -1.2964 -0.8284 -3.1413
  125OSM   C11S13255   2.897   5.037   3.130  0.4808 -0.3219  0.4423
  125OSM   H11S13256   2.833   4.949   3.106  0.4159  0.2376 -1.6301
  125OSM   H11T13257   2.828   5.121   3.108 -2.2565 -1.9524  2.1404
  125OSM   C12S13258   2.939   5.048   3.278  0.6664  0.3810  0.0713
  125OSM   H12S13259   2.847   5.077   3.333  1.7870 -0.2452  2.3650
  125OSM   H12T13260   3.021   5.121   3.296  3.8321 -2.9385  0.2736
  125OSM   C13S13261   2.992   4.915   3.331 -0.0126 -0.0725 -0.7453
  125OSM   H13S13262   3.060   4.863   3.261  0.1692 -0.4410 -0.3005
  125OSM   H13T13263   2.910   4.845   3.357 -1.3438  1.9323  0.7874
  125OSM   C14S13264   3.066   4.944   3.461 -0.0552 -0.1811  0.2621
  125OSM   H14S13265   3.010   5.016   3.525 -1.1319 -0.8097  0.0668
  125OSM   H14T13266   3.163   4.988   3.432 -0.7789  1.0493 -0.3506
  125OSM   C15S13267   3.094   4.818   3.538 -0.3237 -0.2299  0.8240
  125OSM   H15S13268   3.155   4.844   3.627  0.3070  1.1674  0.0194
  125OSM   H15T13269   3.163   4.759   3.474 -1.1691  0.2504 -0.5792
  125OSM   C16S13270   2.975   4.744   3.582  0.4222 -0.4332 -0.3128
  125OSM   H16S13271   2.908   4.700   3.505 -2.5840  2.3716  0.5036
  125OSM   H16T13272   2.914   4.815   3.640  2.7087 -0.9011  2.9210
  125OSM   C17S13273   3.011   4.641   3.692 -0.2549  0.3277 -0.3881
  125OSM   H17S13274   3.092   4.684   3.755 -0.7205  1.8890 -0.8069
  125OSM   H17T13275   3.058   4.547   3.658 -1.6262 -1.5071  2.4194
  125OSM   C18S13276   2.904   4.605   3.787 -0.5049 -1.0046  0.3943
  125OSM   H18S13277   2.828   4.553   3.724  0.1142  0.4790 -1.6866
  125OSM   H18T13278   2.852   4.692   3.830 -0.7748 -1.4978  1.0832
  125OSM   H18U13279   2.942   4.546   3.873  3.0684 -0.3811 -0.5779
  125OSM    C1F13280   2.864   4.535   2.134 -1.0634  0.2655  0.5691
  125OSM     OF13281   2.953   4.501   2.058 -0.7299  0.0826 -0.9364
  125OSM    C2F13282   2.773   4.433   2.188 -1.0059  0.2662  0.2561
  125OSM    H2F13283   2.729   4.381   2.101 -0.2132  1.3190 -0.8143
  125OSM    H2G13284   2.694   4.481   2.250 -2.3074 -0.0554 -1.0934
  125OSM    C3F13285   2.855   4.327   2.270 -0.9120 -0.4272  0.7889
  125OSM    H3F13286   2.921   4.264   2.207  0.6617  0.4666  1.4908
  125OSM    H3G13287   2.768   4.267   2.304 -0.9137 -0.2298  1.1428
  125OSM    C4F13288   2.940   4.385   2.379  0.4792 -0.2759 -0.5890
  125OSM    H4F13289   3.004   4.466   2.338 -1.6282  1.5681 -0.4122
  125OSM    H4G13290   2.992   4.301   2.429 -0.7466 -0.9884 -0.4726
  125OSM    C5F13291   2.855   4.464   2.481 -0.3297  0.6619 -0.3535
  125OSM    H5F13292   2.774   4.404   2.527  1.8286 -2.4967 -0.3289
  125OSM    H5G13293   2.812   4.544   2.417 -1.0097 -0.6518 -1.6037
  125OSM    C6F13294   2.935   4.518   2.593  0.0528 -0.5260 -0.5211
  125OSM    H6F13295   2.878   4.601   2.639  0.5043  0.1621 -1.1716
  125OSM    H6G13296   3.020   4.574   2.548 -1.3828  2.0093 -0.2733
  125OSM    C7F13297   2.962   4.419   2.697  0.3411 -0.8782 -0.3614
  125OSM    H7F13298   3.016   4.334   2.652  1.5524  0.2978 -1.1872
  125OSM    H7G13299   2.868   4.368   2.727  1.3293 -1.2391  2.5089
  125OSM    C8F13300   3.044   4.474   2.820  0.2358  0.6141 -0.3154
  125OSM    H8F13301   3.136   4.526   2.786  2.2268 -1.7738  1.0035
  125OSM    H8G13302   3.082   4.390   2.883 -2.2707 -0.5600 -0.2658
  125OSM    C9F13303   2.958   4.562   2.908 -0.2367 -0.4921 -0.1235
  125OSM    H9F13304   2.877   4.613   2.853  0.1678  1.1410  0.7438
  125OSM   C10F13305   2.969   4.592   3.040 -0.6356  0.2825 -0.0505
  125OSM   H10F13306   2.882   4.641   3.086  0.0963  1.1472  0.4485
  125OSM   C11F13307   3.075   4.528   3.134 -0.0303 -0.1671 -0.2795
  125OSM   H11F13308   3.146   4.599   3.181 -0.9287  1.4395 -1.2854
  125OSM   H11G13309   3.145   4.465   3.075 -0.2667 -0.5944 -0.1172
  125OSM   C12F13310   3.004   4.460   3.258  0.0149 -0.1974  0.8335
  125OSM   H12F13311   2.934   4.524   3.316  0.7784 -1.1475  2.9127
  125OSM   H12G13312   3.085   4.441   3.332 -1.6513  2.9610  3.7844
  125OSM   C13F13313   2.944   4.325   3.225  0.2792  0.0289 -0.4155
  125OSM   H13F13314   2.949   4.300   3.117  0.3926 -0.4287 -0.3087
  125OSM   H13G13315   2.835   4.333   3.244  0.5527  0.9131  0.9237
  125OSM   C14F13316   2.987   4.220   3.325  0.6203  0.5585  0.5604
  125OSM   H14F13317   3.097   4.221   3.341  0.4305  0.8018  2.0115
  125OSM   H14G13318   2.957   4.118   3.291  2.2918 -0.0858  0.9276
  125OSM   C15F13319   2.930   4.250   3.468  0.1534 -0.3349 -0.2453
  125OSM   H15F13320   2.822   4.275   3.463  0.6793  1.9173 -2.1582
  125OSM   H15G13321   2.970   4.351   3.490  0.1121 -0.0919 -1.2181
  125OSM   C16F13322   2.948   4.141   3.576 -0.5778  1.3419  0.8639
  125OSM   H16F13323   3.054   4.136   3.611  0.6570  2.0756 -2.3944
  125OSM   H16G13324   2.926   4.042   3.530 -1.2775  1.8457  0.1066
  125OSM   C17F13325   2.871   4.170   3.704 -0.4699 -0.0276 -0.0257
  125OSM   H17F13326   2.765   4.139   3.693 -0.7356  1.2480 -1.3253
  125OSM   H17G13327   2.877   4.278   3.729  0.9962 -0.2873  0.8392
  125OSM   C18F13328   2.924   4.089   3.824 -0.1695 -0.4327  0.0551
  125OSM   H18F13329   2.872   4.104   3.920 -0.2812  2.1114 -0.3448
  125OSM   H18G13330   3.022   4.134   3.850 -1.8219  1.5645  3.4607
  125OSM   H18H13331   2.940   3.982   3.799  3.0247 -0.0878  0.2294
  126OSM      N13332   0.181   3.763   1.870  0.0389 -0.4860 -0.3304
  126OSM    C1513333   0.047   3.810   1.821 -0.2645 -0.2569 -0.5044
  126OSM   H15A13334  -0.001   3.878   1.890  0.6791 -1.1359  1.0744
  126OSM   H15B13335  -0.023   3.729   1.806 -0.2027 -0.0545 -1.9944
  126OSM   H15C13336   0.074   3.852   1.725 -0.4463 -1.2695 -1.0059
  126OSM    C1413337   0.253   3.702   1.756  0.6074  0.0679  0.4282
  126OSM   H14A13338   0.355   3.693   1.791  0.8505  0.7758 -0.0936
  126OSM   H14B13339   0.249   3.760   1.666 -1.5244  0.3475  0.6345
  126OSM   H14C13340   0.223   3.601   1.734  2.5756 -0.1277 -1.5945
  126OSM    C1313341   0.255   3.891   1.911 -0.5157  0.5996  0.4334
  126OSM   H13A13342   0.196   3.957   1.973 -0.2830  2.6565 -1.4229
  126OSM   H13B13343   0.274   3.941   1.817 -1.1796 -1.2076 -0.7283
  126OSM   H13C13344   0.349   3.864   1.957  0.4006  0.8611 -1.1963
  126OSM    C1213345   0.160   3.658   1.979  0.2174 -0.1214 -0.0497
  126OSM   H12A13346   0.126   3.711   2.067 -0.0509 -0.9047  0.3284
  126OSM   H12B13347   0.250   3.607   2.009  0.3386 -0.4102 -0.8868
  126OSM    C1113348   0.070   3.540   1.936 -0.0593  0.0845 -0.5507
  126OSM   H11A13349   0.138   3.451   1.936  0.4065  0.4313 -1.3388
  126OSM   H11B13350   0.025   3.535   1.835 -1.6594 -4.2887  0.1610
  126OSM      P13351  -0.164   3.591   2.056 -0.1245 -0.1336  0.1925
  126OSM    O1313352  -0.135   3.737   2.068 -0.2215  0.0562 -0.2274
  126OSM    O1413353  -0.267   3.553   1.957 -0.3686  0.4063 -0.1447
  126OSM    O1113354  -0.201   3.528   2.196  0.2831  0.4196 -0.1831
  126OSM    O1213355  -0.033   3.508   2.035  0.0607  0.4015 -0.0938
  126OSM    C1S13356  -0.117   3.547   2.313  0.2926  0.1299  0.3276
  126OSM    H1S13357  -0.136   3.646   2.360 -0.0407 -0.0192  0.5126
  126OSM    H1T13358  -0.012   3.547   2.278 -0.0705  0.4424 -0.8179
  126OSM     NF13359  -0.079   3.456   2.547  0.5459  0.1068  0.2851
  126OSM    HNF13360  -0.004   3.396   2.575  1.4624  1.3721  0.6184
  126OSM    C2S13361  -0.144   3.439   2.421 -0.7579  0.4109  0.0495
  126OSM    H2S13362  -0.252   3.460   2.441 -0.9309 -0.3153 -0.0983
  126OSM    C3S13363  -0.116   3.296   2.366  0.4162  0.5598 -0.4032
  126OSM    H3S13364  -0.008   3.273   2.371  0.5780  1.0868 -1.1508
  126OSM     O313365  -0.141   3.267   2.225 -0.6770 -0.1005 -0.1797
  126OSM    HO313366  -0.179   3.350   2.196  0.6855  1.0513  1.1305
  126OSM    C4S13367  -0.184   3.189   2.445  0.2163 -0.3045  0.2699
  126OSM    H4S13368  -0.291   3.178   2.420  0.5695  0.5321 -1.8490
  126OSM    C5S13369  -0.121   3.108   2.522 -0.0073  0.6744 -0.3325
  126OSM    H5S13370  -0.012   3.119   2.534  0.0905 -0.6328  0.0557
  126OSM    C6S13371  -0.187   2.990   2.597 -0.4825  0.0644  0.2647
  126OSM    H6S13372  -0.159   2.892   2.554 -0.8455  0.4618 -0.9108
  126OSM    H6T13373  -0.298   2.990   2.586 -0.3684 -0.7434 -1.1092
  126OSM    C7S13374  -0.145   2.982   2.747  0.3009 -0.3553  0.3548
  126OSM    H7S13375  -0.202   2.899   2.792 -0.4154  0.7187  1.4719
  126OSM    H7T13376  -0.167   3.076   2.803  0.6742  0.9573 -1.5869
  126OSM    C8S13377  -0.004   2.920   2.754 -0.2466  0.4552 -1.8232
  126OSM    H8S13378   0.064   2.998   2.714  0.5037  0.7655 -0.0494
  126OSM    H8T13379   0.015   2.829   2.693 -2.2709 -0.0131 -1.8199
  126OSM    C9S13380   0.026   2.876   2.900 -0.1236  0.6527 -0.3557
  126OSM    H9S13381   0.132   2.851   2.922 -1.1289 -1.9755  2.2874
  126OSM    H9T13382  -0.029   2.785   2.933  2.9381 -1.5592 -0.9052
  126OSM   C10S13383  -0.022   2.983   3.000  0.1428 -0.2255 -0.3073
  126OSM   H10S13384  -0.129   2.968   3.026 -0.1775 -0.2998 -1.5776
  126OSM   H10T13385  -0.003   3.082   2.954  0.7887 -0.6192 -0.9191
  126OSM   C11S13386   0.043   2.959   3.136 -0.2797 -0.2896  0.3149
  126OSM   H11S13387   0.044   2.854   3.171  2.4965 -0.4899 -0.1081
  126OSM   H11T13388  -0.006   3.016   3.218 -1.3230  0.7363 -0.9751
  126OSM   C12S13389   0.181   3.021   3.165 -0.1671  0.3962 -0.4176
  126OSM   H12S13390   0.176   3.128   3.136 -1.2211  0.6519  0.5935
  126OSM   H12T13391   0.266   2.984   3.105 -1.0390 -1.1014 -0.7829
  126OSM   C13S13392   0.224   3.012   3.314  0.1421 -0.5097  0.0764
  126OSM   H13S13393   0.203   2.912   3.358 -0.7612  0.2099  1.3341
  126OSM   H13T13394   0.166   3.081   3.378 -4.6905 -0.2995 -3.9589
  126OSM   C14S13395   0.376   3.049   3.344  0.4624  0.6410  0.0200
  126OSM   H14S13396   0.402   3.139   3.284 -0.4222  0.2113 -1.0527
  126OSM   H14T13397   0.441   2.968   3.304 -0.1044  0.2665 -0.1641
  126OSM   C15S13398   0.396   3.075   3.493  0.0549 -0.0879  0.1591
  126OSM   H15S13399   0.355   2.994   3.556  0.1471 -0.7349 -0.5965
  126OSM   H15T13400   0.343   3.171   3.513 -1.5973 -0.3797 -2.3106
  126OSM   C16S13401   0.549   3.094   3.524  0.5662 -0.0250  0.1252
  126OSM   H16S13402   0.588   3.182   3.469  1.0175  0.0684  0.5902
  126OSM   H16T13403   0.612   3.011   3.487 -1.7031 -2.1955  0.8018
  126OSM   C17S13404   0.583   3.115   3.676 -0.1166  0.0080 -0.2482
  126OSM   H17S13405   0.692   3.125   3.688 -0.0137  2.6042 -2.3318
  126OSM   H17T13406   0.549   3.031   3.741  1.1135  0.3432  0.8586
  126OSM   C18S13407   0.522   3.237   3.728  0.1922 -0.1650  0.5827
  126OSM   H18S13408   0.530   3.240   3.838 -1.2941 -1.3372  0.7538
  126OSM   H18T13409   0.417   3.244   3.692  0.0925  0.8899  1.0443
  126OSM   H18U13410   0.572   3.330   3.694  0.4784 -0.3230  0.5662
  126OSM    C1F13411  -0.087   3.569   2.621 -0.5067 -0.2087  0.2473
  126OSM     OF13412  -0.167   3.654   2.597 -0.1869 -0.2469  0.0976
  126OSM    C2F13413   0.015   3.583   2.731 -0.1951 -0.1211 -0.0405
  126OSM    H2F13414   0.071   3.678   2.725  1.7098 -1.1369  0.8293
  126OSM    H2G13415   0.092   3.503   2.725 -0.6176 -0.7700  2.2260
  126OSM    C3F13416  -0.050   3.579   2.868 -0.2901 -0.5085 -0.4839
  126OSM    H3F13417  -0.107   3.486   2.888  1.6652 -1.4325  1.1827
  126OSM    H3G13418  -0.113   3.669   2.879 -0.9114 -0.9133 -0.6895
  126OSM    C4F13419   0.055   3.592   2.988  0.5797 -0.8586 -0.3083
  126OSM    H4F13420  -0.004   3.621   3.077 -0.6608 -0.6570 -1.1817
  126OSM    H4G13421   0.117   3.684   2.976  0.4551 -0.6191  0.7458
  126OSM    C5F13422   0.128   3.463   3.013 -0.7173 -0.1167 -0.6442
  126OSM    H5F13423   0.200   3.442   2.931 -0.7077  0.8683 -0.8971
  126OSM    H5G13424   0.058   3.378   3.030  1.4252 -1.4449  2.6022
  126OSM    C6F13425   0.203   3.460   3.142  0.1532  0.6436  0.7860
  126OSM    H6F13426   0.273   3.547   3.148  0.5706  0.5396 -1.6542
  126OSM    H6G13427   0.274   3.375   3.139 -0.8939 -0.3710  2.7831
  126OSM    C7F13428   0.110   3.446   3.267 -0.3254 -0.1291 -0.2790
  126OSM    H7F13429   0.043   3.360   3.248  0.6469 -0.4843 -2.3740
  126OSM    H7G13430   0.051   3.537   3.290  0.5335 -0.3058  3.3021
  126OSM    C8F13431   0.204   3.422   3.389 -0.4509  0.9319  0.9147
  126OSM    H8F13432   0.268   3.512   3.400 -1.1338  1.4606  0.6433
  126OSM    H8G13433   0.251   3.325   3.360 -2.2330  0.4075 -0.3802
  126OSM    C9F13434   0.111   3.404   3.506  0.6669 -0.3262 -0.9383
  126OSM    H9F13435   0.034   3.327   3.491 -3.1342  3.0490 -0.3317
  126OSM   C10F13436   0.110   3.466   3.628  0.5998 -0.5241  0.2800
  126OSM   H10F13437   0.056   3.416   3.709  0.4323  0.8136  1.0307
  126OSM   C11F13438   0.202   3.577   3.663  0.2124 -0.2911  0.5512
  126OSM   H11F13439   0.144   3.669   3.688  0.4532  0.2399 -0.7668
  126OSM   H11G13440   0.269   3.607   3.580  0.3790  1.1252  1.1640
  126OSM   C12F13441   0.289   3.546   3.781 -0.2631 -0.6952 -0.3164
  126OSM   H12F13442   0.359   3.628   3.806 -0.5145 -0.7979  0.7598
  126OSM   H12G13443   0.362   3.468   3.749 -1.1805 -1.7415  0.0519
  126OSM   C13F13444   0.214   3.491   3.897 -0.5380  0.1998  0.2380
  126OSM   H13F13445   0.186   3.386   3.877 -1.5355  0.9043 -2.4790
  126OSM   H13G13446   0.121   3.546   3.920  1.1483  2.2908  2.6568
  126OSM   C14F13447   0.316   3.485   4.016  0.3361 -0.9226  0.5310
  126OSM   H14F13448   0.353   3.589   4.021 -3.6267  0.8060 -1.4678
  126OSM   H14G13449   0.396   3.413   3.989  1.2493 -0.4193  1.7787
  126OSM   C15F13450   0.258   3.442   4.148  0.4028 -0.0681  0.2223
  126OSM   H15F13451   0.346   3.439   4.216 -0.0222 -0.1933  0.7728
  126OSM   H15G13452   0.199   3.348   4.149  2.1168 -1.1840  0.7697
  126OSM   C16F13453   0.164   3.554   4.194 -0.6545  0.4530  0.9937
  126OSM   H16F13454   0.080   3.563   4.122  0.7764  0.9004 -0.6966
  126OSM   H16G13455   0.221   3.649   4.204  1.3878 -0.1078 -3.1055
  126OSM   C17F13456   0.111   3.529   4.338  0.4179  0.3331 -0.2006
  126OSM   H17F13457   0.192   3.520   4.413 -0.7273  0.3549  1.1001
  126OSM   H17G13458   0.071   3.425   4.341  0.3458  0.3728  0.7112
  126OSM   C18F13459  -0.007   3.619   4.391  0.7816 -0.4857 -0.2957
  126OSM   H18F13460  -0.065   3.560   4.465 -1.2789 -0.2661 -1.6429
  126OSM   H18G13461  -0.074   3.640   4.304  0.3097 -2.5358 -0.4935
  126OSM   H18H13462   0.045   3.702   4.442  1.0091 -1.2252  0.7035
  127OSM      N13463   0.276   5.520   2.344  0.3248  0.1250 -0.8155
  127OSM    C1513464   0.360   5.402   2.351  0.2287  0.4516 -0.6292
  127OSM   H15A13465   0.335   5.336   2.269  1.4036  0.0127 -0.6435
  127OSM   H15B13466   0.349   5.362   2.451 -1.0264 -0.8407 -1.2341
  127OSM   H15C13467   0.463   5.429   2.339 -0.5641  2.9147 -2.7002
  127OSM    C1413468   0.142   5.480   2.388  0.0280  0.0968  0.3399
  127OSM   H14A13469   0.081   5.566   2.412  0.4962  0.4900  0.1514
  127OSM   H14B13470   0.156   5.428   2.481 -1.8369  0.5130  0.8863
  127OSM   H14C13471   0.099   5.415   2.313  1.0402  0.7298 -0.8356
  127OSM    C1313472   0.320   5.619   2.445  0.0903 -0.1092 -0.3744
  127OSM   H13A13473   0.426   5.618   2.430  0.0701 -1.4572 -0.5148
  127OSM   H13B13474   0.311   5.586   2.548  0.1179  1.3990  0.1359
  127OSM   H13C13475   0.283   5.717   2.417 -1.3673 -0.9397 -1.5289
  127OSM    C1213476   0.280   5.577   2.206  0.4035 -0.2511 -0.0842
  127OSM   H12A13477   0.233   5.504   2.142  1.1747  0.1683 -1.1541
  127OSM   H12B13478   0.380   5.597   2.172  1.9980 -1.4455  3.4452
  127OSM    C1113479   0.201   5.699   2.169  0.3200  0.2497  0.0477
  127OSM   H11A13480   0.094   5.694   2.202  0.3609 -1.9538 -0.0399
  127OSM   H11B13481   0.196   5.706   2.058 -0.0506 -0.4232  0.0149
  127OSM      P13482   0.239   5.959   2.180  0.3500 -0.0069 -0.2988
  127OSM    O1313483   0.360   6.044   2.200 -0.6384  0.6701 -0.5683
  127OSM    O1413484   0.171   5.962   2.048 -0.4474 -0.0228  0.6743
  127OSM    O1113485   0.134   5.992   2.291  0.1269  0.2329  0.3318
  127OSM    O1213486   0.275   5.812   2.214  0.2695 -0.4858 -0.8857
  127OSM    C1S13487   0.125   5.919   2.414  0.5141 -0.2936 -0.1831
  127OSM    H1S13488   0.217   5.926   2.476 -0.2812 -1.2338  1.1610
  127OSM    H1T13489   0.112   5.809   2.411  3.3463 -0.7855  1.7241
  127OSM     NF13490   0.037   5.922   2.643 -0.6249  0.5516  0.3663
  127OSM    HNF13491  -0.018   5.840   2.661  0.6705 -0.4478 -0.0722
  127OSM    C2S13492   0.014   5.976   2.515  0.3300  0.0242  0.3558
  127OSM    H2S13493   0.024   6.086   2.525 -0.2247  0.2758 -1.4802
  127OSM    C3S13494  -0.128   5.932   2.458  0.1595 -0.2413  0.9613
  127OSM    H3S13495  -0.140   5.822   2.466 -0.2189 -0.3318 -0.4676
  127OSM     O313496  -0.143   5.979   2.323  0.2140  0.0933  0.7311
  127OSM    HO313497  -0.053   6.006   2.306  0.5115 -0.6514  1.0768
  127OSM    C4S13498  -0.246   5.985   2.538 -0.8379  0.7554  0.8347
  127OSM    H4S13499  -0.257   6.095   2.542 -0.2990  0.8721 -0.4994
  127OSM    C5S13500  -0.326   5.908   2.611  0.1939  0.1827  0.9273
  127OSM    H5S13501  -0.312   5.799   2.617 -1.7435 -0.1215  0.6217
  127OSM    C6S13502  -0.430   5.966   2.701  0.1995  0.7871 -0.5407
  127OSM    H6S13503  -0.528   5.916   2.708  0.4494  0.4547  1.1442
  127OSM    H6T13504  -0.454   6.066   2.660  2.9746  2.0502  0.6312
  127OSM    C7S13505  -0.392   5.989   2.852 -0.2281  0.0316  0.8428
  127OSM    H7S13506  -0.472   6.056   2.891 -0.7020  0.9670 -1.5686
  127OSM    H7T13507  -0.293   6.039   2.848  0.1001 -0.6619 -2.2145
  127OSM    C8S13508  -0.401   5.849   2.928 -0.4069  0.3887 -0.0295
  127OSM    H8S13509  -0.345   5.770   2.873  0.6620  0.7800  0.4745
  127OSM    H8T13510  -0.499   5.799   2.913  0.0386 -0.1214 -1.4525
  127OSM    C9S13511  -0.337   5.854   3.067  0.0392 -0.7129 -0.4137
  127OSM    H9S13512  -0.393   5.929   3.128  1.2040 -0.1453 -0.0134
  127OSM    H9T13513  -0.235   5.898   3.076  1.2088 -3.2175 -0.6791
  127OSM   C10S13514  -0.344   5.730   3.160 -0.0738 -0.2596  0.6864
  127OSM   H10S13515  -0.267   5.658   3.124  1.2839  0.6341  1.6763
  127OSM   H10T13516  -0.443   5.687   3.133 -0.2659  0.3358  0.4253
  127OSM   C11S13517  -0.332   5.755   3.308  0.6449 -0.5503 -0.3184
  127OSM   H11S13518  -0.362   5.664   3.364 -0.1594  0.4217  0.8990
  127OSM   H11T13519  -0.419   5.820   3.331  0.1378 -0.8826 -1.2169
  127OSM   C12S13520  -0.188   5.796   3.342 -0.1106 -0.5787  0.6303
  127OSM   H12S13521  -0.169   5.899   3.305  1.6769 -0.8138  0.7984
  127OSM   H12T13522  -0.125   5.719   3.293 -0.0093 -1.0928  1.5383
  127OSM   C13S13523  -0.168   5.783   3.491 -0.2034 -0.3102 -0.6068
  127OSM   H13S13524  -0.199   5.683   3.528 -0.5911  0.1264  0.2780
  127OSM   H13T13525  -0.237   5.854   3.542 -0.3268  0.1677 -1.4153
  127OSM   C14S13526  -0.021   5.821   3.543 -0.4073 -0.3073 -0.2747
  127OSM   H14S13527   0.002   5.922   3.503 -2.8731 -0.2179 -1.6089
  127OSM   H14T13528   0.057   5.750   3.505  0.6393  1.5319 -1.7369
  127OSM   C15S13529  -0.010   5.825   3.697 -0.5643  0.2784  0.2729
  127OSM   H15S13530  -0.071   5.743   3.740 -0.8088 -0.2761 -1.0720
  127OSM   H15T13531  -0.048   5.924   3.729 -1.0545  0.7289 -1.5608
  127OSM   C16S13532   0.127   5.794   3.759 -0.7724 -0.0189 -0.0007
  127OSM   H16S13533   0.194   5.882   3.749 -1.2159  0.3082 -0.1676
  127OSM   H16T13534   0.166   5.714   3.693  1.7538 -0.6227  2.0789
  127OSM   C17S13535   0.122   5.760   3.903  0.3579 -0.8337 -1.0221
  127OSM   H17S13536   0.213   5.710   3.943  1.1199  1.8666  0.9418
  127OSM   H17T13537   0.040   5.686   3.914  0.0346 -0.4787 -1.0626
  127OSM   C18S13538   0.098   5.885   3.998  0.1786 -0.1448  0.0218
  127OSM   H18S13539   0.172   5.967   3.989  0.0898 -0.2473 -2.1465
  127OSM   H18T13540   0.091   5.845   4.101  2.2187 -0.2569  0.1564
  127OSM   H18U13541  -0.008   5.915   3.985 -0.0013 -0.8102 -0.1063
  127OSM    C1F13542   0.145   5.954   2.720 -0.2925  1.2302  0.2061
  127OSM     OF13543   0.222   6.044   2.693  0.4946 -0.6653 -0.2769
  127OSM    C2F13544   0.154   5.864   2.840 -0.5978  0.1990  0.3714
  127OSM    H2F13545   0.201   5.772   2.799 -0.2752 -0.0072  1.1801
  127OSM    H2G13546   0.052   5.846   2.881  0.3273 -3.7492  1.3241
  127OSM    C3F13547   0.255   5.907   2.948  0.1640 -0.0721  0.1576
  127OSM    H3F13548   0.221   6.010   2.972  0.2065  0.2384 -1.0581
  127OSM    H3G13549   0.352   5.916   2.896 -0.5052 -0.4823 -1.2242
  127OSM    C4F13550   0.254   5.819   3.076  0.5337  0.0677 -0.1541
  127OSM    H4F13551   0.146   5.835   3.098 -0.1736 -1.3439 -2.2578
  127OSM    H4G13552   0.322   5.859   3.154 -0.3753  0.7630  0.3056
  127OSM    C5F13553   0.287   5.672   3.050  0.0807 -0.3723  0.0750
  127OSM    H5F13554   0.394   5.659   3.024 -0.1290  1.2973 -1.9495
  127OSM    H5G13555   0.232   5.640   2.958  1.4307  2.3473 -1.8251
  127OSM    C6F13556   0.255   5.568   3.159  0.7620  0.1952 -0.3163
  127OSM    H6F13557   0.286   5.618   3.253  2.0275  1.0990 -1.1851
  127OSM    H6G13558   0.332   5.488   3.152  0.9427  0.2592  0.8141
  127OSM    C7F13559   0.111   5.502   3.157  0.1990 -0.3991 -0.1889
  127OSM    H7F13560   0.100   5.442   3.064 -2.0198  1.0038 -0.9088
  127OSM    H7G13561   0.036   5.584   3.160  0.9371  0.4236 -2.2681
  127OSM    C8F13562   0.089   5.409   3.278  1.0388 -0.2418 -0.0856
  127OSM    H8F13563   0.169   5.332   3.279  1.2561 -0.0391 -0.7926
  127OSM    H8G13564  -0.004   5.352   3.258  0.3790  0.9902 -0.6997
  127OSM    C9F13565   0.062   5.480   3.419 -0.3635  0.2832 -0.0842
  127OSM    H9F13566  -0.008   5.565   3.418  0.9008  1.3722 -1.3704
  127OSM   C10F13567   0.144   5.459   3.525  0.0337  0.0836  0.5819
  127OSM   H10F13568   0.119   5.528   3.607 -2.7340  0.0170 -0.0857
  127OSM   C11F13569   0.261   5.358   3.527 -0.9361 -0.3727 -0.6132
  127OSM   H11F13570   0.358   5.413   3.523 -1.2376  0.8187  3.5145
  127OSM   H11G13571   0.265   5.280   3.448 -0.4323 -1.0925  0.1087
  127OSM   C12F13572   0.284   5.293   3.670 -0.8781  0.3963 -1.0278
  127OSM   H12F13573   0.365   5.219   3.658 -1.4606 -0.6090  0.9132
  127OSM   H12G13574   0.192   5.242   3.704  0.1554 -0.1806  1.0559
  127OSM   C13F13575   0.328   5.385   3.789  0.1814 -0.4964  0.2242
  127OSM   H13F13576   0.243   5.447   3.824  0.7400 -1.5078  3.6940
  127OSM   H13G13577   0.415   5.452   3.771  1.2731 -1.1642  2.6531
  127OSM   C14F13578   0.366   5.292   3.905  0.9271  0.2602 -0.4050
  127OSM   H14F13579   0.441   5.214   3.877 -1.6030 -2.1862 -0.8392
  127OSM   H14G13580   0.274   5.235   3.930 -0.4426  1.9715 -1.3851
  127OSM   C15F13581   0.426   5.366   4.027 -0.2582 -0.4482  0.6273
  127OSM   H15F13582   0.508   5.438   4.007  0.7888 -1.9149 -0.5082
  127OSM   H15G13583   0.474   5.283   4.084  0.9162 -0.9390 -1.0211
  127OSM   C16F13584   0.317   5.447   4.107  0.2195  0.4906  0.0230
  127OSM   H16F13585   0.230   5.378   4.114  2.8102 -3.1319 -0.8465
  127OSM   H16G13586   0.293   5.528   4.035  0.3791 -1.6995 -2.6756
  127OSM   C17F13587   0.346   5.506   4.240 -0.3956 -0.1808  0.6717
  127OSM   H17F13588   0.438   5.567   4.240 -1.2513  1.1389  1.1727
  127OSM   H17G13589   0.366   5.430   4.319 -1.5209 -0.2085  0.9414
  127OSM   C18F13590   0.242   5.607   4.279  0.3473  0.2102 -1.0883
  127OSM   H18F13591   0.142   5.559   4.295  0.5195  0.0977 -0.2925
  127OSM   H18G13592   0.229   5.685   4.202  0.2294  1.1304 -0.1604
  127OSM   H18H13593   0.263   5.655   4.377  0.0361 -1.1323 -0.3211
  128OSM      N13594   0.799   4.725   2.354 -0.2766 -0.1321 -0.2831
  128OSM    C1513595   0.808   4.576   2.308 -0.7064 -0.0201  0.2157
  128OSM   H15A13596   0.876   4.524   2.374 -0.1406  1.9893  1.3038
  128OSM   H15B13597   0.844   4.576   2.207 -0.6009  0.2039  0.2544
  128OSM   H15C13598   0.712   4.527   2.317 -0.5254 -0.2747  0.9086
  128OSM    C1413599   0.926   4.795   2.347 -0.5742  0.3254 -0.3608
  128OSM   H14A13600   0.952   4.811   2.244 -1.3730 -0.4888 -0.7029
  128OSM   H14B13601   1.007   4.753   2.405 -0.2890  0.2492 -0.8085
  128OSM   H14C13602   0.919   4.895   2.388  0.9232  0.0602  0.6421
  128OSM    C1313603   0.699   4.794   2.265 -0.9462  0.2530  0.4571
  128OSM   H13A13604   0.690   4.900   2.283  0.6307  0.4125  0.4839
  128OSM   H13B13605   0.606   4.740   2.274  0.0751 -2.2693 -2.3341
  128OSM   H13C13606   0.730   4.784   2.162 -2.9487  0.2023 -0.1752
  128OSM    C1213607   0.755   4.731   2.500 -0.1475  0.1123 -0.1024
  128OSM   H12A13608   0.745   4.837   2.522  1.1256  0.0663  0.7785
  128OSM   H12B13609   0.834   4.693   2.563 -1.0023  0.0975  1.0014
  128OSM    C1113610   0.616   4.658   2.536  0.3168  0.4693  0.6253
  128OSM   H11A13611   0.605   4.643   2.645  0.2437  1.1673  0.7179
  128OSM   H11B13612   0.622   4.554   2.497  1.8396  0.3859  1.0097
  128OSM      P13613   0.445   4.845   2.543  0.1320  0.0208 -0.0021
  128OSM    O1313614   0.557   4.940   2.565  0.5402  0.6799  0.2903
  128OSM    O1413615   0.322   4.891   2.472 -0.0947  0.2433 -0.2605
  128OSM    O1113616   0.400   4.791   2.684  0.2919  0.2871 -0.2146
  128OSM    O1213617   0.503   4.716   2.468  0.2901 -0.1486  0.5666
  128OSM    C1S13618   0.320   4.674   2.700 -0.6244  0.0692  0.7235
  128OSM    H1S13619   0.348   4.594   2.628  0.5311 -0.0231  1.2575
  128OSM    H1T13620   0.212   4.696   2.685 -0.3653  1.2368  0.5009
  128OSM     NF13621   0.291   4.471   2.841 -0.7218  0.9674 -0.1986
  128OSM    HNF13622   0.218   4.454   2.907  0.2660  0.3091  0.7410
  128OSM    C2S13623   0.343   4.607   2.847 -1.1343  0.4659  0.3361
  128OSM    H2S13624   0.451   4.597   2.871 -0.9926  2.2265  0.5611
  128OSM    C3S13625   0.284   4.702   2.948  0.1460 -0.9373 -0.0913
  128OSM    H3S13626   0.174   4.705   2.929  0.2377  0.1562 -0.5026
  128OSM     O313627   0.323   4.837   2.934 -0.2068 -0.3976  0.7853
  128OSM    HO313628   0.366   4.849   2.849 -1.6713  1.3586  0.2150
  128OSM    C4S13629   0.284   4.648   3.095 -0.5220  0.3071 -0.1227
  128OSM    H4S13630   0.215   4.564   3.109  0.2126 -0.1035  1.1809
  128OSM    C5S13631   0.375   4.691   3.189 -0.2441  0.3226  0.3158
  128OSM    H5S13632   0.439   4.778   3.170  1.4174 -0.0706  3.4035
  128OSM    C6S13633   0.387   4.622   3.323 -0.1783  0.0946 -0.0734
  128OSM    H6S13634   0.408   4.697   3.402  2.4021 -0.1645 -0.4312
  128OSM    H6T13635   0.484   4.568   3.327 -0.7272 -1.1501 -2.0412
  128OSM    C7S13636   0.275   4.516   3.369 -0.3731 -0.0430  0.0703
  128OSM    H7S13637   0.252   4.454   3.279 -0.3716  0.3301 -0.1926
  128OSM    H7T13638   0.178   4.569   3.379 -2.4924 -3.1104 -2.2204
  128OSM    C8S13639   0.308   4.432   3.488  0.0196  0.3190  0.0010
  128OSM    H8S13640   0.388   4.358   3.467  2.3471  1.7923  2.7870
  128OSM    H8T13641   0.212   4.382   3.509 -0.2677  0.7665 -0.2288
  128OSM    C9S13642   0.359   4.509   3.608  0.0652 -1.0144  0.3038
  128OSM    H9S13643   0.297   4.596   3.634  0.9630 -0.5225  0.8475
  128OSM    H9T13644   0.458   4.552   3.580 -1.0212  0.3166 -1.6870
  128OSM   C10S13645   0.365   4.412   3.731 -0.8488 -0.1053 -0.1063
  128OSM   H10S13646   0.432   4.325   3.711 -2.6551 -1.9464  1.3823
  128OSM   H10T13647   0.264   4.369   3.747 -0.6488 -1.3594 -1.9067
  128OSM   C11S13648   0.407   4.488   3.858 -0.0185 -0.3680  0.4599
  128OSM   H11S13649   0.335   4.571   3.871  1.2007  1.0784 -1.5508
  128OSM   H11T13650   0.506   4.531   3.829  0.8868 -1.1647  2.2174
  128OSM   C12S13651   0.404   4.393   3.979  0.2069 -0.0341 -1.0487
  128OSM   H12S13652   0.447   4.296   3.946  0.9419  0.4443 -1.5289
  128OSM   H12T13653   0.297   4.380   4.005  0.8858 -3.5059  0.7237
  128OSM   C13S13654   0.486   4.466   4.086  0.8600 -0.1790  0.1729
  128OSM   H13S13655   0.429   4.556   4.119 -0.6953 -1.1944  0.3534
  128OSM   H13T13656   0.584   4.494   4.041  1.4133 -1.1989  0.7193
  128OSM   C14S13657   0.522   4.371   4.196 -0.1116  0.0530 -0.1673
  128OSM   H14S13658   0.600   4.296   4.170 -0.4768 -0.4293  0.0906
  128OSM   H14T13659   0.428   4.317   4.224  0.4824 -0.6977  0.4237
  128OSM   C15S13660   0.568   4.454   4.319  0.1257  0.0174 -0.7359
  128OSM   H15S13661   0.500   4.540   4.335  2.0994  1.1265  2.6478
  128OSM   H15T13662   0.658   4.508   4.284 -0.9985  1.1110 -2.0661
  128OSM   C16S13663   0.576   4.380   4.456  0.4881  0.7052  0.2282
  128OSM   H16S13664   0.612   4.461   4.524  1.1269  2.1568 -1.7375
  128OSM   H16T13665   0.636   4.289   4.435 -1.4201  0.1445 -3.8328
  128OSM   C17S13666   0.437   4.332   4.494 -0.3838 -0.1096 -0.3072
  128OSM   H17S13667   0.404   4.247   4.431  0.6859 -2.4867  2.1493
  128OSM   H17T13668   0.369   4.417   4.474 -1.0861 -0.5196  0.2898
  128OSM   C18S13669   0.421   4.290   4.645 -0.3870  0.3131 -0.1574
  128OSM   H18S13670   0.480   4.197   4.662 -0.4144  0.2872 -0.2041
  128OSM   H18T13671   0.316   4.274   4.678 -0.4408  1.7708  0.4644
  128OSM   H18U13672   0.459   4.375   4.707  1.2266 -1.3670  1.2821
  128OSM    C1F13673   0.340   4.381   2.753  0.7125 -0.7697 -0.1074
  128OSM     OF13674   0.455   4.388   2.703  0.3400 -0.3305 -0.0452
  128OSM    C2F13675   0.254   4.262   2.722  0.1096  0.2205  0.7035
  128OSM    H2F13676   0.221   4.262   2.617  1.6661 -3.4441  0.0467
  128OSM    H2G13677   0.160   4.262   2.781 -0.8693 -2.4312 -0.6943
  128OSM    C3F13678   0.316   4.126   2.759 -0.3566  0.4756  0.0899
  128OSM    H3F13679   0.412   4.114   2.706 -0.3372  3.0823 -0.5977
  128OSM    H3G13680   0.248   4.045   2.725  0.3546  0.0190 -0.2708
  128OSM    C4F13681   0.330   4.107   2.906  0.4551  0.2258 -0.1831
  128OSM    H4F13682   0.360   4.202   2.955 -0.4162  1.0522 -1.2041
  128OSM    H4G13683   0.402   4.023   2.918 -2.2797 -2.2576  0.0456
  128OSM    C5F13684   0.205   4.039   2.975  0.1643  0.3220  1.1533
  128OSM    H5F13685   0.192   3.944   2.920 -0.1119  0.0794  1.6323
  128OSM    H5G13686   0.111   4.095   2.958  0.2504  0.0215 -0.4563
  128OSM    C6F13687   0.235   4.004   3.117 -0.3845  0.4719  0.1607
  128OSM    H6F13688   0.337   3.960   3.116 -0.2995  0.6287 -1.7055
  128OSM    H6G13689   0.161   3.926   3.146 -1.5160  0.6204 -2.1238
  128OSM    C7F13690   0.213   4.110   3.228  0.1395 -0.2271  0.2870
  128OSM    H7F13691   0.105   4.133   3.232 -0.1412 -1.4342  0.0649
  128OSM    H7G13692   0.255   4.205   3.189 -0.9338 -0.1581 -0.7754
  128OSM    C8F13693   0.266   4.085   3.367 -0.1416  0.2167  0.1022
  128OSM    H8F13694   0.251   4.176   3.429  1.0357  0.1891  0.4392
  128OSM    H8G13695   0.374   4.082   3.342 -0.5287 -0.5383 -1.5836
  128OSM    C9F13696   0.227   3.950   3.431 -0.0473 -0.5857  0.4367
  128OSM    H9F13697   0.269   3.859   3.383 -1.6921 -1.0703 -0.1570
  128OSM   C10F13698   0.156   3.942   3.544 -0.4315  0.3423  0.1831
  128OSM   H10F13699   0.125   3.843   3.580 -0.2751 -0.9258 -2.9174
  128OSM   C11F13700   0.099   4.054   3.633 -0.1141 -0.0371  0.6185
  128OSM   H11F13701  -0.001   4.039   3.678 -1.2226  2.1936 -0.8920
  128OSM   H11G13702   0.093   4.151   3.579 -2.3921 -0.1700  0.5286
  128OSM   C12F13703   0.194   4.065   3.759 -0.8270  0.8155 -0.4166
  128OSM   H12F13704   0.158   4.154   3.815 -2.6172  0.0505 -0.3046
  128OSM   H12G13705   0.298   4.085   3.725 -0.3559 -1.3747 -0.3882
  128OSM   C13F13706   0.178   3.933   3.844 -0.2371  0.0573 -0.3224
  128OSM   H13F13707   0.193   3.859   3.763  1.2087  0.2676 -0.2796
  128OSM   H13G13708   0.077   3.923   3.890 -0.1962  1.6294  0.1956
  128OSM   C14F13709   0.277   3.915   3.955 -0.6008 -0.2728 -0.9985
  128OSM   H14F13710   0.372   3.913   3.899 -1.3209 -0.1288 -2.2556
  128OSM   H14G13711   0.264   3.812   3.996  0.8328  0.4506  1.5213
  128OSM   C15F13712   0.281   4.026   4.065 -0.4042  0.5883  0.2867
  128OSM   H15F13713   0.316   4.126   4.032  0.8802  0.1138  0.1686
  128OSM   H15G13714   0.350   3.992   4.145  1.7137 -1.6262 -2.2915
  128OSM   C16F13715   0.144   4.038   4.134  0.3516 -0.3684  0.4055
  128OSM   H16F13716   0.124   3.931   4.159 -0.9412  0.0478  1.2612
  128OSM   H16G13717   0.071   4.083   4.063  0.0024 -1.4847  0.0301
  128OSM   C17F13718   0.132   4.127   4.262  0.5220 -0.1313  0.5183
  128OSM   H17F13719   0.228   4.123   4.318  0.5991  0.5225  0.4514
  128OSM   H17G13720   0.057   4.080   4.328  2.3653  0.4598  3.1822
  128OSM   C18F13721   0.111   4.280   4.240 -0.0497 -0.2677  0.1261
  128OSM   H18F13722   0.107   4.338   4.335 -1.1894  1.3826 -0.8885
  128OSM   H18G13723   0.015   4.296   4.187 -0.1653 -0.6360  0.2231
  128OSM   H18H13724   0.194   4.318   4.176 -1.8101 -0.8025 -2.6387
  129OSM      N13725   1.098   2.326   2.092  0.1117 -0.2396 -0.6594
  129OSM    C1513726   1.008   2.240   2.005  0.0159 -0.2943  0.3365
  129OSM   H15A13727   0.975   2.146   2.046  0.2611 -1.2832 -1.6311
  129OSM   H15B13728   1.060   2.216   1.914  0.5168  2.4156 -0.1929
  129OSM   H15C13729   0.925   2.304   1.979  0.5526  0.2708 -0.0269
  129OSM    C1413730   1.207   2.244   2.135 -0.4592 -0.1373 -0.2598
  129OSM   H14A13731   1.172   2.169   2.204  0.9723 -1.7667 -1.2182
  129OSM   H14B13732   1.273   2.309   2.192 -0.6011  1.3639 -1.7309
  129OSM   H14C13733   1.264   2.204   2.053 -1.9610  0.7551 -1.8068
  129OSM    C1313734   1.142   2.440   2.004  0.0003 -0.7225 -0.6451
  129OSM   H13A13735   1.197   2.407   1.917  0.2981 -0.8069 -0.4245
  129OSM   H13B13736   1.207   2.503   2.063 -1.4304  0.6161 -0.4347
  129OSM   H13C13737   1.057   2.498   1.973  0.8682  0.9512 -0.0048
  129OSM    C1213738   1.015   2.385   2.202  0.1687  0.3825 -0.2618
  129OSM   H12A13739   0.937   2.445   2.157  3.3796  1.4707 -5.1572
  129OSM   H12B13740   1.081   2.452   2.255  0.6092 -0.0631 -0.2405
  129OSM    C1113741   0.954   2.294   2.313 -0.3292 -0.5721 -0.2263
  129OSM   H11A13742   0.936   2.348   2.408  1.5011  3.0668 -1.7427
  129OSM   H11B13743   1.026   2.226   2.364  0.2791  0.6000  0.5261
  129OSM      P13744   0.702   2.286   2.237  0.2651 -0.5601  0.1364
  129OSM    O1313745   0.726   2.425   2.194 -0.1242 -0.0929 -0.3930
  129OSM    O1413746   0.621   2.205   2.151  0.4819 -0.6568 -0.1762
  129OSM    O1113747   0.632   2.291   2.380  0.0584 -0.3874  0.8645
  129OSM    O1213748   0.844   2.222   2.265  0.6041  0.1569 -0.1077
  129OSM    C1S13749   0.614   2.167   2.453 -1.0021 -0.4797  0.0208
  129OSM    H1S13750   0.644   2.080   2.391 -0.8099  0.4377 -1.2160
  129OSM    H1T13751   0.509   2.144   2.481 -0.8501 -3.1447 -1.3367
  129OSM     NF13752   0.658   2.054   2.668  0.0012  0.4695  0.0093
  129OSM    HNF13753   0.601   2.063   2.750  0.7342  3.2475  0.3124
  129OSM    C2S13754   0.686   2.176   2.591 -0.0024  0.2485 -0.0373
  129OSM    H2S13755   0.795   2.182   2.568 -0.1407  0.1503 -0.7459
  129OSM    C3S13756   0.653   2.315   2.663 -0.0777 -0.3398 -0.3312
  129OSM    H3S13757   0.542   2.315   2.671  0.0452 -0.2145  2.4074
  129OSM     O313758   0.697   2.429   2.590  0.5299 -0.5858  0.1093
  129OSM    HO313759   0.727   2.389   2.509  2.5092  0.9532 -0.0121
  129OSM    C4S13760   0.725   2.319   2.797  0.2393  0.0009  0.1163
  129OSM    H4S13761   0.835   2.324   2.792  0.1903  2.4888  0.2951
  129OSM    C5S13762   0.670   2.346   2.913 -0.2655  0.2308 -0.6874
  129OSM    H5S13763   0.566   2.379   2.909 -0.4546 -0.2654 -0.0099
  129OSM    C6S13764   0.741   2.361   3.046 -0.2051  0.1293 -0.3356
  129OSM    H6S13765   0.733   2.467   3.076 -1.3710  0.4734 -1.7572
  129OSM    H6T13766   0.849   2.340   3.026  0.2629  2.0676  0.0029
  129OSM    C7S13767   0.679   2.273   3.146  0.1780 -0.4029 -0.5295
  129OSM    H7S13768   0.679   2.166   3.114  0.3610  0.1224 -2.3688
  129OSM    H7T13769   0.575   2.306   3.163  0.0694  0.0071 -1.9278
  129OSM    C8S13770   0.745   2.282   3.282 -0.1408  0.1815  0.4007
  129OSM    H8S13771   0.766   2.387   3.313 -0.8082  0.7412 -0.9651
  129OSM    H8T13772   0.844   2.233   3.269 -0.4450  0.1850 -2.7819
  129OSM    C9S13773   0.658   2.209   3.378  0.5118  0.5931  0.8740
  129OSM    H9S13774   0.667   2.100   3.361  0.5793  0.8833 -1.1730
  129OSM    H9T13775   0.550   2.228   3.362 -0.3269 -2.9757  1.4483
  129OSM   C10S13776   0.693   2.238   3.520 -0.4430 -0.5304 -0.7997
  129OSM   H10S13777   0.802   2.228   3.538 -0.8080 -0.9730  1.5571
  129OSM   H10T13778   0.641   2.160   3.580 -0.7347 -0.0457 -0.4139
  129OSM   C11S13779   0.658   2.379   3.576 -0.4951  0.1600 -0.5449
  129OSM   H11S13780   0.550   2.377   3.602 -0.8925 -0.2916 -2.1241
  129OSM   H11T13781   0.680   2.467   3.511 -0.0797  1.3117  1.0947
  129OSM   C12S13782   0.722   2.407   3.713  0.6353  0.3006 -0.4276
  129OSM   H12S13783   0.726   2.507   3.761 -0.2628 -0.7318  2.0063
  129OSM   H12T13784   0.828   2.375   3.704  0.8952  0.5776  1.2691
  129OSM   C13S13785   0.660   2.316   3.825 -0.3923 -0.1644  0.1897
  129OSM   H13S13786   0.646   2.212   3.787  0.1815 -0.3197  0.3945
  129OSM   H13T13787   0.557   2.343   3.858 -0.2187 -0.5845  1.0962
  129OSM   C14S13788   0.748   2.310   3.954  0.3481  0.6486  0.1804
  129OSM   H14S13789   0.776   2.413   3.984 -1.6855  1.0253  0.9327
  129OSM   H14T13790   0.828   2.238   3.926 -0.1631 -0.1410  0.7075
  129OSM   C15S13791   0.663   2.253   4.066 -0.0363  0.1971 -0.1795
  129OSM   H15S13792   0.586   2.183   4.028  0.2544 -0.3758  0.2667
  129OSM   H15T13793   0.599   2.338   4.097 -2.0537 -0.5804 -1.9582
  129OSM   C16S13794   0.737   2.199   4.191 -0.3154  0.0037  0.0915
  129OSM   H16S13795   0.796   2.281   4.238  1.8338 -1.3918 -0.0273
  129OSM   H16T13796   0.808   2.126   4.148 -0.8932  0.3562 -1.5398
  129OSM   C17S13797   0.630   2.137   4.285 -0.2084  0.2757  0.1357
  129OSM   H17S13798   0.577   2.050   4.239 -0.5864  0.3202  0.4844
  129OSM   H17T13799   0.551   2.214   4.291 -0.7880 -0.2944 -0.0548
  129OSM   C18S13800   0.678   2.105   4.428  0.4090  0.6207 -0.5703
  129OSM   H18S13801   0.731   2.192   4.473  0.5788  0.4229 -0.3848
  129OSM   H18T13802   0.758   2.028   4.432 -0.0794  0.1559  1.1735
  129OSM   H18U13803   0.593   2.072   4.491  0.1049  1.0765 -0.7422
  129OSM    C1F13804   0.689   1.929   2.622 -0.3491 -0.4188 -0.2559
  129OSM     OF13805   0.775   1.916   2.532  0.2253 -0.2854 -0.0865
  129OSM    C2F13806   0.614   1.811   2.679  0.3491 -1.0838 -0.8008
  129OSM    H2F13807   0.550   1.774   2.597  0.8854  0.2864 -1.8645
  129OSM    H2G13808   0.557   1.837   2.771 -1.7305 -0.9780 -2.0751
  129OSM    C3F13809   0.722   1.697   2.724  0.1243 -0.0466 -0.8342
  129OSM    H3F13810   0.785   1.668   2.637  0.7731 -1.5580  0.1039
  129OSM    H3G13811   0.661   1.612   2.762 -0.0104  0.4476  0.0697
  129OSM    C4F13812   0.822   1.753   2.830  0.1336 -0.0984  0.0065
  129OSM    H4F13813   0.774   1.813   2.910  0.6733 -0.5375  0.6596
  129OSM    H4G13814   0.894   1.822   2.781 -3.1671  3.5956 -0.1026
  129OSM    C5F13815   0.898   1.642   2.902 -0.0270  0.4623  0.6407
  129OSM    H5F13816   0.968   1.685   2.977  1.5830 -3.0488  1.3625
  129OSM    H5G13817   0.962   1.585   2.831  0.6376  2.0728 -0.1037
  129OSM    C6F13818   0.817   1.534   2.979 -0.1286  0.1427  1.0244
  129OSM    H6F13819   0.769   1.468   2.904 -0.0593 -0.1635  1.2454
  129OSM    H6G13820   0.735   1.583   3.037  0.6567  0.6848  1.7084
  129OSM    C7F13821   0.898   1.448   3.074  0.4042 -0.3327  0.6395
  129OSM    H7F13822   0.972   1.518   3.119 -0.2058  1.4691 -1.0365
  129OSM    H7G13823   0.954   1.363   3.031 -0.3816 -1.4892  1.8168
  129OSM    C8F13824   0.817   1.382   3.197  0.5254 -0.0339  0.3866
  129OSM    H8F13825   0.732   1.322   3.159 -0.3353  0.8835  0.8293
  129OSM    H8G13826   0.771   1.456   3.266  1.8406  0.6245  0.5844
  129OSM    C9F13827   0.895   1.282   3.272 -0.0432 -0.4915  0.4882
  129OSM    H9F13828   0.870   1.179   3.244 -0.9296 -0.0945 -0.2413
  129OSM   C10F13829   0.990   1.306   3.361 -0.0425  0.0113  0.0554
  129OSM   H10F13830   1.040   1.221   3.411 -1.8543  0.1065  2.1532
  129OSM   C11F13831   1.027   1.444   3.409 -0.4714  0.2187  0.1861
  129OSM   H11F13832   0.978   1.527   3.355  0.6478  0.3842 -0.5875
  129OSM   H11G13833   1.136   1.460   3.398 -0.3015 -0.6177  0.5840
  129OSM   C12F13834   1.001   1.462   3.557 -0.2349  0.1329  0.0335
  129OSM   H12F13835   0.899   1.429   3.588 -1.0753  1.1072 -1.5634
  129OSM   H12G13836   1.006   1.571   3.578  0.1960 -0.0221  0.7812
  129OSM   C13F13837   1.121   1.397   3.631  0.1221 -0.1725  0.0201
  129OSM   H13F13838   1.215   1.437   3.587  0.6283 -0.6109  0.6759
  129OSM   H13G13839   1.121   1.289   3.605 -0.6288 -0.1728  0.0047
  129OSM   C14F13840   1.109   1.400   3.787  0.1626 -0.5650  0.7227
  129OSM   H14F13841   1.156   1.314   3.839 -0.3901 -1.7089 -0.6104
  129OSM   H14G13842   1.003   1.386   3.815  1.0457 -2.3217  3.5196
  129OSM   C15F13843   1.157   1.535   3.849  0.3704  0.4986  0.2659
  129OSM   H15F13844   1.131   1.616   3.778  1.5899 -1.1760 -2.2207
  129OSM   H15G13845   1.265   1.532   3.874 -0.2625 -0.8868  3.2958
  129OSM   C16F13846   1.089   1.566   3.986  0.3711 -0.4842 -0.3219
  129OSM   H16F13847   0.979   1.579   3.983  0.4493  1.1129  1.7544
  129OSM   H16G13848   1.122   1.669   4.010  1.1293 -0.9419  0.6789
  129OSM   C17F13849   1.133   1.477   4.102 -0.0865  0.0076  0.6936
  129OSM   H17F13850   1.243   1.476   4.085 -0.0254  2.1453  0.5862
  129OSM   H17G13851   1.098   1.372   4.093  0.8171 -0.2894  0.5347
  129OSM   C18F13852   1.099   1.528   4.245  0.0946  0.2826  0.1972
  129OSM   H18F13853   0.991   1.532   4.269  0.5284 -0.1897  2.3861
  129OSM   H18G13854   1.145   1.629   4.254 -2.1225  1.3241  0.5168
  129OSM   H18H13855   1.165   1.470   4.313  2.5140  0.5984 -1.7498
  130OSM      N13856   3.385   6.513   2.109  0.4987 -0.1782  1.2537
  130OSM    C1513857   3.378   6.593   1.981  0.2340 -0.5507  0.3846
  130OSM   H15A13858   3.479   6.618   1.951 -0.1238 -1.1728 -1.5042
  130OSM   H15B13859   3.321   6.683   2.002 -1.1968 -1.7584  1.9012
  130OSM   H15C13860   3.330   6.535   1.903 -1.7179  1.9651 -0.4337
  130OSM    C1413861   3.415   6.600   2.222  0.7628 -0.1191 -0.2398
  130OSM   H14A13862   3.496   6.667   2.198  2.2998 -1.6596  0.4385
  130OSM   H14B13863   3.421   6.541   2.313  0.0885  0.4104  0.1522
  130OSM   H14C13864   3.333   6.667   2.244  2.2942  2.1609 -1.0998
  130OSM    C1313865   3.246   6.455   2.128  0.3493 -0.1366  0.0336
  130OSM   H13A13866   3.248   6.389   2.214 -0.7317  0.1984  0.3303
  130OSM   H13B13867   3.230   6.396   2.039 -1.5179  1.3814 -0.6854
  130OSM   H13C13868   3.170   6.531   2.128 -0.4175 -0.8701  1.3579
  130OSM    C1213869   3.480   6.390   2.091 -0.5131  0.0688  0.0759
  130OSM   H12A13870   3.576   6.432   2.066 -1.1364  1.3992 -0.1405
  130OSM   H12B13871   3.456   6.339   1.999 -1.7085  3.2116 -1.4933
  130OSM    C1113872   3.504   6.308   2.217 -0.4053  0.0956  0.3536
  130OSM   H11A13873   3.496   6.367   2.311  0.5250 -0.0086  0.5073
  130OSM   H11B13874   3.602   6.255   2.220  0.3410  1.4039  0.0963
  130OSM      P13875   3.398   6.066   2.148  0.0922  0.0446 -0.1638
  130OSM    O1313876   3.272   5.992   2.179 -0.1543 -0.1748  1.1572
  130OSM    O1413877   3.440   6.074   2.012 -0.4816 -0.1553  0.2692
  130OSM    O1113878   3.515   5.995   2.235 -0.4997 -0.0537  0.1167
  130OSM    O1213879   3.388   6.209   2.218  0.2456  0.2068  0.1596
  130OSM    C1S13880   3.543   6.022   2.377  0.2308 -0.1689  1.0263
  130OSM    H1S13881   3.473   6.094   2.425  1.4825  1.1858  0.8880
  130OSM    H1T13882   3.641   6.073   2.386  0.1796 -0.0381  0.8517
  130OSM     NF13883   3.536   5.926   2.611  0.2883 -1.2710  0.1601
  130OSM    HNF13884   3.620   5.923   2.665  1.5284 -1.8721 -1.7237
  130OSM    C2S13885   3.550   5.899   2.467  0.3622  0.7201  0.8376
  130OSM    H2S13886   3.460   5.840   2.439  1.5318 -0.4493 -0.6285
  130OSM    C3S13887   3.683   5.828   2.431 -0.3783  0.1603  0.4604
  130OSM    H3S13888   3.765   5.901   2.448 -0.4375  0.5332 -0.7599
  130OSM     O313889   3.692   5.800   2.289 -0.4816  0.6104 -0.7505
  130OSM    HO313890   3.621   5.854   2.253 -1.1887  0.2807  0.1304
  130OSM    C4S13891   3.700   5.703   2.524  1.0973  0.2397  0.1786
  130OSM    H4S13892   3.752   5.717   2.620  1.7603 -1.6425  0.1302
  130OSM    C5S13893   3.645   5.583   2.506  0.1174  0.0066  0.4703
  130OSM    H5S13894   3.587   5.563   2.415  1.7735  1.0299 -0.8727
  130OSM    C6S13895   3.667   5.469   2.602 -0.3601 -0.5446 -0.4554
  130OSM    H6S13896   3.762   5.482   2.659 -0.6793 -0.8482  0.1605
  130OSM    H6T13897   3.660   5.371   2.552 -2.2336 -0.2533 -0.8470
  130OSM    C7S13898   3.559   5.488   2.720  0.2546  0.3665 -0.4149
  130OSM    H7S13899   3.457   5.475   2.678 -0.2546 -0.2319  0.9620
  130OSM    H7T13900   3.551   5.591   2.760 -0.2671  0.0926  0.2023
  130OSM    C8S13901   3.576   5.400   2.842  0.1210  0.7360 -0.4579
  130OSM    H8S13902   3.672   5.415   2.895 -0.8613 -0.5958  1.8612
  130OSM    H8T13903   3.578   5.293   2.811  1.6746 -0.1981  2.4514
  130OSM    C9S13904   3.456   5.401   2.943 -0.2408  0.3180  0.2788
  130OSM    H9S13905   3.360   5.369   2.898 -0.5129 -0.6084  1.4847
  130OSM    H9T13906   3.431   5.507   2.963 -1.9638 -0.1182  0.5454
  130OSM   C10S13907   3.474   5.300   3.065  0.1542 -0.0150  0.8519
  130OSM   H10S13908   3.560   5.340   3.122 -1.5635  3.5127  1.2247
  130OSM   H10T13909   3.514   5.207   3.020  0.7845  0.7625 -0.2023
  130OSM   C11S13910   3.354   5.287   3.153  0.2438 -0.1129  0.5703
  130OSM   H11S13911   3.270   5.242   3.096  0.1719 -0.5007  0.9795
  130OSM   H11T13912   3.320   5.386   3.189  1.0477  0.2547  0.3411
  130OSM   C12S13913   3.373   5.196   3.280  0.3416 -0.3028  0.2141
  130OSM   H12S13914   3.380   5.091   3.243  0.9638 -0.0922 -0.2828
  130OSM   H12T13915   3.288   5.207   3.351  2.0814 -0.8820  2.5119
  130OSM   C13S13916   3.488   5.254   3.365 -0.6301 -0.5587 -0.3874
  130OSM   H13S13917   3.492   5.362   3.338 -0.7091 -0.4514  0.0240
  130OSM   H13T13918   3.583   5.212   3.325 -0.1697 -1.2079  1.3273
  130OSM   C14S13919   3.492   5.219   3.511 -1.0473 -0.1770  0.3336
  130OSM   H14S13920   3.599   5.208   3.538 -0.9929 -2.2005 -0.5231
  130OSM   H14T13921   3.440   5.124   3.535  0.1986 -1.0786 -0.4063
  130OSM   C15S13922   3.416   5.331   3.594 -0.6702 -0.1636  0.0076
  130OSM   H15S13923   3.312   5.335   3.555 -0.4324 -1.5115 -0.8080
  130OSM   H15T13924   3.468   5.426   3.567  0.6823 -0.3141  1.8473
  130OSM   C16S13925   3.421   5.298   3.738 -1.0734 -0.6103 -0.0506
  130OSM   H16S13926   3.383   5.385   3.795 -0.6166 -0.8735  0.6635
  130OSM   H16T13927   3.525   5.273   3.767 -0.6490  2.1573  1.0663
  130OSM   C17S13928   3.334   5.170   3.766 -0.6738  0.1587 -0.1990
  130OSM   H17S13929   3.377   5.081   3.715 -0.2824  0.2304 -0.0005
  130OSM   H17T13930   3.233   5.189   3.725 -0.3997 -0.2238 -1.0738
  130OSM   C18S13931   3.326   5.133   3.917 -0.2453 -0.5465  0.0132
  130OSM   H18S13932   3.243   5.061   3.932 -0.9184  0.7562  3.3006
  130OSM   H18T13933   3.319   5.230   3.970 -0.7137  0.6216 -2.0712
  130OSM   H18U13934   3.415   5.075   3.952 -0.9834 -2.3879 -1.0131
  130OSM    C1F13935   3.419   5.959   2.661  0.1531 -0.4126  0.2095
  130OSM     OF13936   3.316   5.969   2.587  0.2500 -0.2355  0.3703
  130OSM    C2F13937   3.404   5.981   2.811 -0.1863  0.4101 -0.4467
  130OSM    H2F13938   3.434   5.889   2.865 -0.3740 -0.7228 -2.1847
  130OSM    H2G13939   3.295   5.976   2.832 -0.2970  0.6911 -0.9161
  130OSM    C3F13940   3.479   6.104   2.855  0.2377  0.4752 -0.0240
  130OSM    H3F13941   3.446   6.196   2.802  1.4618  0.5169 -0.7536
  130OSM    H3G13942   3.585   6.089   2.824  0.4484  1.2711  0.2734
  130OSM    C4F13943   3.467   6.117   3.019  0.4503  0.2014  0.4179
  130OSM    H4F13944   3.470   6.012   3.056 -0.1505 -0.6864 -1.8876
  130OSM    H4G13945   3.365   6.158   3.039  0.1028 -0.8422  0.8918
  130OSM    C5F13946   3.575   6.187   3.092 -0.3951 -0.6425  0.1540
  130OSM    H5F13947   3.565   6.295   3.070  2.7543 -0.5507 -1.3333
  130OSM    H5G13948   3.672   6.150   3.054 -0.0202 -0.1515  0.6148
  130OSM    C6F13949   3.564   6.178   3.244 -0.1986 -0.3203  0.2153
  130OSM    H6F13950   3.483   6.239   3.289 -1.6813 -0.0210 -2.6140
  130OSM    H6G13951   3.657   6.225   3.282  0.2255 -1.0476  0.1040
  130OSM    C7F13952   3.573   6.040   3.299  0.3841  0.0256 -0.8642
  130OSM    H7F13953   3.664   5.994   3.256  1.7294  1.6213  0.1982
  130OSM    H7G13954   3.481   5.992   3.258 -0.9403  0.8396  1.0214
  130OSM    C8F13955   3.570   6.042   3.452 -0.4563 -0.3930 -1.2851
  130OSM    H8F13956   3.544   5.942   3.492 -0.6926  0.4374  0.7950
  130OSM    H8G13957   3.489   6.113   3.481  1.2777  1.3068 -0.3328
  130OSM    C9F13958   3.708   6.090   3.507 -0.0193 -0.5948  0.2493
  130OSM    H9F13959   3.790   6.120   3.439  0.5332  1.7208  1.8132
  130OSM   C10F13960   3.743   6.091   3.631 -0.7291  0.3215 -0.3353
  130OSM   H10F13961   3.846   6.122   3.654 -0.6517  0.6692 -1.1354
  130OSM   C11F13962   3.661   6.041   3.747  0.0584  0.0968 -0.5777
  130OSM   H11F13963   3.716   5.973   3.817 -1.0240 -0.2921 -0.0838
  130OSM   H11G13964   3.577   5.977   3.714  1.2304 -2.3293  0.8240
  130OSM   C12F13965   3.604   6.156   3.826  0.4260 -0.2599 -0.0914
  130OSM   H12F13966   3.553   6.105   3.911  0.6511  1.1471  0.9055
  130OSM   H12G13967   3.525   6.214   3.774  1.6860  0.5644 -1.1430
  130OSM   C13F13968   3.702   6.267   3.875  0.0642  0.4076  0.0760
  130OSM   H13F13969   3.710   6.356   3.808  1.9781 -0.4262 -0.8947
  130OSM   H13G13970   3.797   6.210   3.863 -0.4990 -0.1408 -2.4971
  130OSM   C14F13971   3.665   6.323   4.012 -0.2912  0.5032 -0.7645
  130OSM   H14F13972   3.656   6.237   4.082  0.4542  0.6737 -0.4461
  130OSM   H14G13973   3.564   6.369   4.004 -0.9000 -0.7493 -0.5269
  130OSM   C15F13974   3.783   6.413   4.062  0.5865  0.5181  0.2382
  130OSM   H15F13975   3.790   6.512   4.012  0.5470  1.0095  1.1767
  130OSM   H15G13976   3.877   6.358   4.038  0.2884  0.3331 -0.5244
  130OSM   C16F13977   3.785   6.454   4.214  0.1617  0.2558  0.3103
  130OSM   H16F13978   3.873   6.518   4.239  1.1793 -1.1657  0.5012
  130OSM   H16G13979   3.786   6.374   4.291  1.8799 -0.6068 -0.5461
  130OSM   C17F13980   3.663   6.536   4.265  0.3244 -0.0736 -0.1036
  130OSM   H17F13981   3.575   6.511   4.202 -2.2651  2.5372  2.1502
  130OSM   H17G13982   3.685   6.645   4.265  3.6747 -0.6012  1.3987
  130OSM   C18F13983   3.615   6.513   4.411 -0.1214 -0.3801 -0.0553
  130OSM   H18F13984   3.525   6.573   4.439 -0.5680 -1.8610  1.8316
  130OSM   H18G13985   3.693   6.538   4.485 -1.6676  1.2394  1.1310
  130OSM   H18H13986   3.596   6.404   4.424 -1.1397 -0.2293 -0.1906
  131OSM      N13987   6.083   4.365   2.243 -0.0433 -0.3176 -0.3661
  131OSM    C1513988   6.141   4.441   2.359  0.5459  0.5428 -0.2542
  131OSM   H15A13989   6.245   4.415   2.372  0.4268 -0.1042 -0.5561
  131OSM   H15B13990   6.084   4.418   2.447 -2.6048  0.1243 -2.2590
  131OSM   H15C13991   6.141   4.548   2.341  0.5956 -0.0328 -4.8312
  131OSM    C1413992   5.945   4.422   2.223 -0.2703  0.7962 -0.0154
  131OSM   H14A13993   5.945   4.526   2.194  0.5971  1.2698  1.5906
  131OSM   H14B13994   5.880   4.409   2.309  0.0213  1.9445  0.3913
  131OSM   H14C13995   5.896   4.363   2.147  1.5789  0.7057 -1.1966
  131OSM    C1313996   6.168   4.382   2.123  0.5624  0.5860 -0.4020
  131OSM   H13A13997   6.183   4.487   2.102  1.4905  0.7220  0.8866
  131OSM   H13B13998   6.138   4.322   2.038 -0.2561  2.0566 -1.1900
  131OSM   H13C13999   6.263   4.346   2.158 -0.0242 -1.0470 -0.3799
  131OSM    C1214000   6.080   4.225   2.290 -0.1048  0.2054  0.4036
  131OSM   H12A14001   6.054   4.159   2.209  0.6164 -1.2683  1.3319
  131OSM   H12B14002   6.009   4.202   2.368 -1.8096 -0.8081 -1.3641
  131OSM    C1114003   6.218   4.157   2.343  0.5320  0.0508  0.4462
  131OSM   H11A14004   6.181   4.058   2.377 -0.3587  0.3491  0.3829
  131OSM   H11B14005   6.256   4.215   2.429  0.8147 -0.2024  0.4948
  131OSM      P14006   6.327   4.046   2.124 -0.1729  0.0294 -0.1365
  131OSM    O1314007   6.199   4.033   2.046  0.4120 -0.2097 -0.0626
  131OSM    O1414008   6.448   4.070   2.047 -0.3305  0.4181  0.2645
  131OSM    O1114009   6.345   3.909   2.203  0.4632 -0.6770 -0.0753
  131OSM    O1214010   6.315   4.153   2.243  0.1129  0.4986  0.4700
  131OSM    C1S14011   6.465   3.880   2.271 -0.5211  0.2714 -0.3953
  131OSM    H1S14012   6.537   3.965   2.277  0.3574 -0.5593  2.3517
  131OSM    H1T14013   6.516   3.797   2.219 -1.0188 -1.5767  1.9153
  131OSM     NF14014   6.552   3.875   2.503 -0.1768 -0.3472  0.1037
  131OSM    HNF14015   6.613   3.800   2.528 -0.7116 -0.2517  1.7834
  131OSM    C2S14016   6.433   3.847   2.422 -0.2178  0.4235  0.3164
  131OSM    H2S14017   6.353   3.914   2.458  0.8020  1.3458  0.9403
  131OSM    C3S14018   6.396   3.695   2.435 -0.1402 -0.5780 -0.4645
  131OSM    H3S14019   6.479   3.622   2.421  1.5454  0.8147  1.6242
  131OSM     O314020   6.289   3.662   2.342  0.2687  0.2026 -0.5477
  131OSM    HO314021   6.277   3.745   2.294 -1.1409  1.0260  1.0923
  131OSM    C4S14022   6.344   3.665   2.581  0.2879 -0.0919 -0.3418
  131OSM    H4S14023   6.425   3.622   2.642 -0.2577 -0.7244 -0.0485
  131OSM    C5S14024   6.220   3.688   2.628  0.2493  0.9668  0.1638
  131OSM    H5S14025   6.141   3.728   2.563 -0.7044 -1.2999 -0.1603
  131OSM    C6S14026   6.171   3.663   2.768  0.5889 -0.2709 -0.1352
  131OSM    H6S14027   6.082   3.597   2.753  0.2654 -0.1401  1.0655
  131OSM    H6T14028   6.131   3.763   2.797  3.0945  1.4553 -2.1906
  131OSM    C7S14029   6.260   3.602   2.870 -0.1460  0.2655  0.6591
  131OSM    H7S14030   6.362   3.647   2.865  0.4266 -0.7124  2.4842
  131OSM    H7T14031   6.268   3.494   2.846 -2.3994  1.1149 -5.4927
  131OSM    C8S14032   6.210   3.619   3.018 -0.0888 -0.2466  0.6838
  131OSM    H8S14033   6.237   3.718   3.061 -0.8050 -0.2263  1.1096
  131OSM    H8T14034   6.258   3.543   3.083  0.8507  0.6692  1.0817
  131OSM    C9S14035   6.063   3.591   3.035 -0.7483 -0.7082  0.5411
  131OSM    H9S14036   6.034   3.501   2.975 -1.6696  0.2058 -0.4395
  131OSM    H9T14037   5.997   3.672   2.998  1.1263  0.4260 -0.4658
  131OSM   C10S14038   6.027   3.552   3.185 -0.4328  0.1064  0.2035
  131OSM   H10S14039   6.110   3.503   3.241 -0.9860  0.5856  1.4827
  131OSM   H10T14040   5.930   3.500   3.197  0.1296 -0.9323  0.3640
  131OSM   C11S14041   6.021   3.683   3.265 -0.3144  0.6699 -1.0823
  131OSM   H11S14042   5.936   3.750   3.239 -0.8321  0.1114 -0.8427
  131OSM   H11T14043   6.117   3.740   3.262 -0.8360  1.6859  0.2109
  131OSM   C12S14044   6.019   3.652   3.415  0.7683 -0.0342  0.5645
  131OSM   H12S14045   6.102   3.581   3.439  1.2653 -0.2002 -1.4492
  131OSM   H12T14046   5.919   3.610   3.440 -0.2530  2.3741  0.7087
  131OSM   C13S14047   6.037   3.774   3.501 -0.2826 -0.7712  0.1273
  131OSM   H13S14048   5.946   3.838   3.491  0.3285  0.2851  1.0528
  131OSM   H13T14049   6.125   3.831   3.465 -0.5960 -0.1966  0.2580
  131OSM   C14S14050   6.052   3.728   3.646 -0.1580 -0.1356 -1.0216
  131OSM   H14S14051   6.147   3.672   3.656  1.5871  2.7054 -0.6323
  131OSM   H14T14052   5.965   3.665   3.675 -0.1343  0.1308 -0.3590
  131OSM   C15S14053   6.055   3.854   3.739  0.7514  0.0968  0.1809
  131OSM   H15S14054   5.979   3.922   3.695 -1.0051 -1.6776  0.3373
  131OSM   H15T14055   6.156   3.901   3.735 -0.0575  2.0369  1.3156
  131OSM   C16S14056   6.028   3.834   3.887  0.3206 -0.0734 -0.1084
  131OSM   H16S14057   6.109   3.772   3.931  0.2600 -0.0408  0.0494
  131OSM   H16T14058   5.930   3.783   3.902  0.7255 -1.2580 -1.3078
  131OSM   C17S14059   6.024   3.974   3.954  0.2616  0.2983  0.1099
  131OSM   H17S14060   5.934   4.025   3.915  1.4088  0.6639 -2.2129
  131OSM   H17T14061   6.113   4.038   3.936  0.1621  0.2666 -0.4858
  131OSM   C18S14062   5.993   3.967   4.109 -0.5074  0.3009 -0.7679
  131OSM   H18S14063   6.005   4.067   4.154  0.2135  0.1842 -0.6967
  131OSM   H18T14064   6.051   3.892   4.167 -0.0622  2.0353  1.1209
  131OSM   H18U14065   5.886   3.942   4.126 -0.0810 -0.7367  0.6184
  131OSM    C1F14066   6.590   3.999   2.538  0.3517  0.2717 -0.1995
  131OSM     OF14067   6.523   4.096   2.504 -0.2284 -0.2017  0.2196
  131OSM    C2F14068   6.721   4.019   2.606 -0.6768 -0.6015  0.0518
  131OSM    H2F14069   6.784   4.100   2.564 -0.3470 -1.1594 -0.5490
  131OSM    H2G14070   6.784   3.929   2.588  1.2186  0.8545 -0.8981
  131OSM    C3F14071   6.702   4.043   2.757 -0.1637  0.3659 -0.8966
  131OSM    H3F14072   6.665   4.141   2.795  0.9882 -0.2432  2.0694
  131OSM    H3G14073   6.809   4.048   2.786  0.0179 -0.4772 -1.3864
  131OSM    C4F14074   6.627   3.938   2.837  0.4747 -0.1005  0.1312
  131OSM    H4F14075   6.664   3.839   2.804 -0.5780 -0.2783 -0.5789
  131OSM    H4G14076   6.520   3.949   2.807  0.5369 -1.8692 -0.8755
  131OSM    C5F14077   6.654   3.957   2.984  0.6333  0.0784  0.1654
  131OSM    H5F14078   6.617   4.052   3.027 -3.9240 -0.7314 -1.4684
  131OSM    H5G14079   6.764   3.950   3.001  1.0982  1.4711 -1.8813
  131OSM    C6F14080   6.590   3.843   3.069 -0.7298  0.3086 -0.4448
  131OSM    H6F14081   6.611   3.741   3.031 -3.5264 -0.5975  0.1662
  131OSM    H6G14082   6.479   3.851   3.072 -0.5920  3.5461 -0.2275
  131OSM    C7F14083   6.634   3.858   3.214  0.0043  0.6032  1.0900
  131OSM    H7F14084   6.585   3.952   3.249 -0.5606  0.5057  0.5751
  131OSM    H7G14085   6.742   3.878   3.202  0.3638 -2.1702 -1.0263
  131OSM    C8F14086   6.627   3.732   3.303  1.0927  0.6846 -0.8188
  131OSM    H8F14087   6.672   3.747   3.403 -2.0834 -1.6757  1.1354
  131OSM    H8G14088   6.696   3.662   3.252 -0.7684  0.1033 -2.6902
  131OSM    C9F14089   6.483   3.693   3.310  0.6679  0.1718 -0.2285
  131OSM    H9F14090   6.436   3.644   3.223 -1.3000  1.6620 -0.0865
  131OSM   C10F14091   6.411   3.719   3.418  0.1716  0.2832  0.2548
  131OSM   H10F14092   6.305   3.691   3.422 -0.0450  0.7777 -1.3690
  131OSM   C11F14093   6.455   3.791   3.549  0.1559  0.3588  0.6154
  131OSM   H11F14094   6.549   3.746   3.587  2.0998  1.9012 -2.0174
  131OSM   H11G14095   6.391   3.771   3.638 -0.6587  1.0927  0.2121
  131OSM   C12F14096   6.480   3.937   3.524 -0.1555  0.2769 -0.9588
  131OSM   H12F14097   6.387   3.993   3.503  0.0523  1.0082  0.0042
  131OSM   H12G14098   6.547   3.961   3.439  0.7818 -0.4316 -0.4452
  131OSM   C13F14099   6.537   4.006   3.652 -0.5962 -0.5637  0.3163
  131OSM   H13F14100   6.577   4.099   3.606  0.2781 -0.8171  0.5563
  131OSM   H13G14101   6.625   3.947   3.683  0.2049 -0.0508 -0.9029
  131OSM   C14F14102   6.440   4.034   3.764  0.2823  0.4477  0.0576
  131OSM   H14F14103   6.429   3.939   3.821  0.3738 -0.3726 -1.2472
  131OSM   H14G14104   6.341   4.069   3.728  0.6347 -0.9500 -2.5440
  131OSM   C15F14105   6.505   4.131   3.868 -0.5281 -0.1712  0.2039
  131OSM   H15F14106   6.491   4.231   3.822 -0.8913  0.1458  0.9764
  131OSM   H15G14107   6.615   4.116   3.878 -0.2820  0.2466 -1.5474
  131OSM   C16F14108   6.438   4.129   4.002  0.1580  0.4208 -0.3769
  131OSM   H16F14109   6.330   4.145   3.981  0.5013  3.1257 -0.4543
  131OSM   H16G14110   6.481   4.215   4.057 -0.2373  0.1938  0.3039
  131OSM   C17F14111   6.460   4.000   4.084 -0.8219 -0.2976  0.1505
  131OSM   H17F14112   6.429   3.914   4.020  1.1969  0.2480 -1.7138
  131OSM   H17G14113   6.394   3.991   4.173 -1.0712 -2.2589 -0.1941
  131OSM   C18F14114   6.601   3.982   4.128 -0.4779  0.1052  0.3524
  131OSM   H18F14115   6.647   4.074   4.170  0.6254  0.1482 -0.8994
  131OSM   H18G14116   6.660   3.951   4.040  0.2127  0.0295  0.8363
  131OSM   H18H14117   6.593   3.903   4.206  1.2004 -0.0158  0.4264
  132OSM      N14118   6.166   3.592   1.939 -0.0083  0.2678  0.2598
  132OSM    C1514119   6.209   3.464   1.868  0.1865 -0.9303 -0.4373
  132OSM   H15A14120   6.277   3.471   1.784  2.0310 -0.0601  1.0591
  132OSM   H15B14121   6.123   3.406   1.838 -2.2849  1.1047  2.2399
  132OSM   H15C14122   6.260   3.408   1.945 -1.7839 -2.2281 -0.0115
  132OSM    C1414123   6.286   3.668   1.986  0.3178 -0.5583 -0.0669
  132OSM   H14A14124   6.305   3.642   2.089  0.4877 -0.3086 -0.0363
  132OSM   H14B14125   6.258   3.772   1.979  0.8858 -0.4436 -0.7694
  132OSM   H14C14126   6.368   3.649   1.918 -0.4992 -0.8483 -1.0083
  132OSM    C1314127   6.088   3.670   1.840  0.2556 -0.4379  0.1051
  132OSM   H13A14128   6.153   3.694   1.757  2.4328 -0.4922  1.6893
  132OSM   H13B14129   6.031   3.752   1.881 -4.0767 -2.6514 -0.8755
  132OSM   H13C14130   6.005   3.610   1.807  0.9328 -2.2634  1.5186
  132OSM    C1214131   6.089   3.551   2.064  0.6605  0.2689  0.1649
  132OSM   H12A14132   6.147   3.499   2.139 -3.0386 -3.1645  0.9839
  132OSM   H12B14133   6.000   3.495   2.038 -0.4832  1.5809  1.0983
  132OSM    C1114134   6.022   3.667   2.143  0.1637 -0.0465 -0.1624
  132OSM   H11A14135   6.101   3.742   2.164  0.3807 -0.4444  0.4945
  132OSM   H11B14136   5.999   3.633   2.247 -0.4675 -0.1289 -0.3225
  132OSM      P14137   5.775   3.654   2.088 -0.0559  0.2096  0.2319
  132OSM    O1314138   5.663   3.729   2.035 -0.7483 -0.6823  0.2453
  132OSM    O1414139   5.801   3.516   2.034  0.2442  0.0361  0.6626
  132OSM    O1114140   5.733   3.633   2.241  0.1914  0.0540 -0.2952
  132OSM    O1214141   5.908   3.730   2.087  0.0823 -0.3596  0.2812
  132OSM    C1S14142   5.742   3.740   2.339  0.1830 -0.4255  0.2638
  132OSM    H1S14143   5.664   3.815   2.317 -0.5853 -1.2835  0.0147
  132OSM    H1T14144   5.837   3.797   2.343 -0.5814  0.9000 -0.0051
  132OSM     NF14145   5.714   3.771   2.593  0.3641 -0.2909 -0.1791
  132OSM    HNF14146   5.793   3.793   2.649 -0.3903 -0.8728  1.1648
  132OSM    C2S14147   5.731   3.676   2.487 -0.3222  0.2437 -0.7045
  132OSM    H2S14148   5.635   3.619   2.487  0.0815 -0.6016  2.3241
  132OSM    C3S14149   5.838   3.567   2.512 -0.3332 -0.0912  0.2035
  132OSM    H3S14150   5.941   3.609   2.509  0.0605 -1.1100 -1.0013
  132OSM     O314151   5.842   3.479   2.410  0.0934  0.7302  0.5687
  132OSM    HO314152   5.786   3.530   2.351  0.4290 -0.7663 -1.1317
  132OSM    C4S14153   5.805   3.495   2.645  0.0942 -0.5285 -0.3555
  132OSM    H4S14154   5.860   3.539   2.730 -0.0497  1.9445 -1.4643
  132OSM    C5S14155   5.697   3.418   2.665 -0.3798 -0.7862 -0.1375
  132OSM    H5S14156   5.639   3.401   2.573  0.7118  0.0293 -0.9993
  132OSM    C6S14157   5.657   3.345   2.790  0.5443  0.2801 -0.1046
  132OSM    H6S14158   5.695   3.243   2.773 -0.1933  0.0299 -0.3142
  132OSM    H6T14159   5.545   3.344   2.794  0.5406 -1.2481  4.1349
  132OSM    C7S14160   5.726   3.403   2.915  0.3601  0.1110 -0.3463
  132OSM    H7S14161   5.702   3.511   2.929  0.4081  0.1698 -0.6876
  132OSM    H7T14162   5.837   3.395   2.905  0.6147  1.9971  0.4491
  132OSM    C8S14163   5.690   3.334   3.052 -0.2217 -0.9047  0.6304
  132OSM    H8S14164   5.581   3.352   3.069 -0.1792  0.6482 -0.4623
  132OSM    H8T14165   5.751   3.396   3.121  0.3626 -0.1458 -0.5364
  132OSM    C9S14166   5.733   3.186   3.069 -0.1414 -0.0887  0.1714
  132OSM    H9S14167   5.836   3.176   3.028  0.3557 -0.6473  1.4877
  132OSM    H9T14168   5.653   3.135   3.011 -1.2948  1.8712 -0.0473
  132OSM   C10S14169   5.719   3.139   3.212 -0.6260  0.0545  0.3181
  132OSM   H10S14170   5.744   3.032   3.233  1.0506  0.4993  0.6881
  132OSM   H10T14171   5.611   3.154   3.234 -1.0480 -1.7275 -0.3702
  132OSM   C11S14172   5.814   3.200   3.312  0.1053 -0.1859  0.8732
  132OSM   H11S14173   5.802   3.310   3.303  1.2809 -0.1029  0.1330
  132OSM   H11T14174   5.920   3.185   3.284 -0.8029 -1.0054 -2.7929
  132OSM   C12S14175   5.789   3.151   3.452  0.9703  1.1377  0.6672
  132OSM   H12S14176   5.841   3.053   3.464  1.1565  1.3567  1.7789
  132OSM   H12T14177   5.680   3.141   3.471  0.5128  1.4603 -1.5222
  132OSM   C13S14178   5.855   3.248   3.557  0.1782 -0.0146  0.6601
  132OSM   H13S14179   5.802   3.345   3.564 -0.6551 -0.2096 -1.8004
  132OSM   H13T14180   5.956   3.274   3.519 -0.5134  1.1700 -0.4663
  132OSM   C14S14181   5.861   3.184   3.699  1.3002  0.0556  0.4989
  132OSM   H14S14182   5.909   3.084   3.685 -1.7436 -1.4325 -0.4231
  132OSM   H14T14183   5.761   3.174   3.746  0.7122  0.6863 -0.5751
  132OSM   C15S14184   5.940   3.274   3.794 -0.2555  0.6413  0.4918
  132OSM   H15S14185   5.876   3.354   3.836 -0.5030  0.4547  0.4703
  132OSM   H15T14186   6.022   3.322   3.736  0.7793 -1.8186 -0.2284
  132OSM   C16S14187   6.008   3.191   3.900  0.5759  0.0190  0.0997
  132OSM   H16S14188   6.099   3.153   3.849 -1.0118 -0.0168 -2.9112
  132OSM   H16T14189   5.936   3.112   3.928 -0.2030  0.4332 -0.7167
  132OSM   C17S14190   6.035   3.261   4.036 -0.0658 -0.0816  0.3917
  132OSM   H17S14191   5.932   3.257   4.078 -0.7878  0.2319 -1.2788
  132OSM   H17T14192   6.062   3.369   4.038 -1.5221  0.4037 -2.0958
  132OSM   C18S14193   6.135   3.195   4.126  0.0373  0.2035 -0.6043
  132OSM   H18S14194   6.117   3.086   4.133 -1.1377  0.4750  2.2177
  132OSM   H18T14195   6.132   3.243   4.227 -3.4005 -0.1313 -0.4216
  132OSM   H18U14196   6.239   3.205   4.089  1.1202  0.9134  2.3494
  132OSM    C1F14197   5.607   3.860   2.600 -0.3053  0.2218 -0.6639
  132OSM     OF14198   5.521   3.847   2.505  0.1044  0.2755  0.0346
  132OSM    C2F14199   5.601   3.974   2.694  0.0852  0.0586 -0.0361
  132OSM    H2F14200   5.494   4.003   2.696 -0.3916 -1.5950  1.3216
  132OSM    H2G14201   5.658   4.064   2.664 -0.7590  0.2327 -1.1830
  132OSM    C3F14202   5.645   3.931   2.833 -0.4985 -0.8483 -0.0142
  132OSM    H3F14203   5.755   3.922   2.831 -0.2955  1.2283 -0.2000
  132OSM    H3G14204   5.606   3.830   2.859 -0.5507 -0.4093  1.7514
  132OSM    C4F14205   5.610   4.031   2.944 -0.4169 -0.1697 -0.0750
  132OSM    H4F14206   5.624   3.985   3.044  1.6903 -2.2848 -1.2384
  132OSM    H4G14207   5.499   4.041   2.940 -0.3620  0.3004 -0.5598
  132OSM    C5F14208   5.668   4.170   2.938  0.0097 -0.1667  0.1175
  132OSM    H5F14209   5.607   4.225   2.863 -1.9111  0.2732  1.8989
  132OSM    H5G14210   5.773   4.162   2.905  0.0097 -0.5031  0.1924
  132OSM    C6F14211   5.656   4.253   3.071  0.0432  1.3433  0.2684
  132OSM    H6F14212   5.715   4.209   3.155 -1.7753 -0.2489  0.8001
  132OSM    H6G14213   5.552   4.231   3.104 -0.5165  0.5330 -1.8701
  132OSM    C7F14214   5.671   4.403   3.060  0.4373 -0.4276 -1.0157
  132OSM    H7F14215   5.598   4.439   2.984  0.5781 -0.5098 -1.1904
  132OSM    H7G14216   5.774   4.438   3.038 -0.1803  0.2959 -3.0006
  132OSM    C8F14217   5.609   4.480   3.184 -0.3937 -0.1059 -0.0561
  132OSM    H8F14218   5.517   4.438   3.231  1.3869  0.0638  4.0074
  132OSM    H8G14219   5.587   4.584   3.151 -0.6215 -0.3436 -0.6675
  132OSM    C9F14220   5.719   4.466   3.288  0.8579  0.3362 -0.7216
  132OSM    H9F14221   5.818   4.484   3.245  1.6627 -1.0952  0.4547
  132OSM   C10F14222   5.703   4.452   3.422 -0.4146  0.7322  0.1385
  132OSM   H10F14223   5.791   4.460   3.487  0.4012 -0.5991 -0.7621
  132OSM   C11F14224   5.566   4.441   3.501 -0.4758 -0.8996  0.8250
  132OSM   H11F14225   5.485   4.489   3.442  2.1390  2.9200  0.0308
  132OSM   H11G14226   5.564   4.492   3.599  1.4531 -0.3566  0.6174
  132OSM   C12F14227   5.524   4.305   3.536 -0.2049  0.1475 -0.0508
  132OSM   H12F14228   5.586   4.268   3.620 -1.8275  1.1768  1.6762
  132OSM   H12G14229   5.539   4.247   3.443 -0.2542  3.9331 -2.6553
  132OSM   C13F14230   5.381   4.296   3.585  0.5192  0.2985  0.1235
  132OSM   H13F14231   5.319   4.320   3.496  3.1454 -1.4913 -2.3467
  132OSM   H13G14232   5.355   4.379   3.654 -0.8409  0.3594 -0.4163
  132OSM   C14F14233   5.340   4.157   3.648 -0.0027 -0.1907 -0.0874
  132OSM   H14F14234   5.423   4.128   3.715  0.8273  1.4293 -0.3775
  132OSM   H14G14235   5.327   4.074   3.576 -2.1492 -0.4676  0.5314
  132OSM   C15F14236   5.205   4.152   3.727  0.1257 -0.2398 -0.1310
  132OSM   H15F14237   5.190   4.049   3.767 -0.8876 -0.2162 -0.4230
  132OSM   H15G14238   5.119   4.179   3.662 -2.3248 -1.7501  2.2343
  132OSM   C16F14239   5.190   4.244   3.849 -0.8912 -0.2577 -0.2145
  132OSM   H16F14240   5.203   4.349   3.816 -1.8329  0.0716  0.3973
  132OSM   H16G14241   5.261   4.219   3.931 -0.4716  0.2038 -0.4347
  132OSM   C17F14242   5.056   4.250   3.924  0.1276 -0.1007 -0.1966
  132OSM   H17F14243   4.982   4.310   3.866  0.8100 -2.5327 -3.9127
  132OSM   H17G14244   5.079   4.294   4.023  0.1376 -0.0584 -0.2178
  132OSM   C18F14245   4.987   4.113   3.951 -0.5001 -0.5731 -0.0990
  132OSM   H18F14246   4.940   4.064   3.862 -0.1895 -0.0783 -0.5446
  132OSM   H18G14247   4.906   4.114   4.027 -0.1811  0.1668  0.2412
  132OSM   H18H14248   5.058   4.045   4.001  0.2912  0.4911  0.2546
  133OSM      N14249   4.790   1.828   2.072 -0.1133 -0.3198 -0.1687
  133OSM    C1514250   4.784   1.683   2.033 -0.1803  0.5261 -0.4766
  133OSM   H15A14251   4.685   1.642   2.044  0.4026 -0.8411 -0.1805
  133OSM   H15B14252   4.854   1.626   2.092 -0.4702  0.6036 -0.0567
  133OSM   H15C14253   4.803   1.666   1.928 -0.5755  0.3135 -0.5126
  133OSM    C1414254   4.928   1.877   2.047  0.1848 -0.1193 -0.4759
  133OSM   H14A14255   4.953   1.874   1.943 -2.2906 -0.3736 -1.1378
  133OSM   H14B14256   5.005   1.837   2.111 -0.0065 -1.1399 -0.8808
  133OSM   H14C14257   4.940   1.981   2.076  1.4684 -0.0846 -1.0855
  133OSM    C1314258   4.692   1.910   2.000 -0.6937 -0.0520 -0.5695
  133OSM   H13A14259   4.703   2.013   2.031 -1.3005 -0.1783  0.0818
  133OSM   H13B14260   4.592   1.882   2.032  0.6321 -2.5821  1.8116
  133OSM   H13C14261   4.705   1.901   1.893  0.7252 -1.3201 -0.3298
  133OSM    C1214262   4.760   1.836   2.224  0.4147  0.0505  0.0026
  133OSM   H12A14263   4.803   1.752   2.275 -0.0813  1.0031  2.1093
  133OSM   H12B14264   4.652   1.824   2.231  0.2186 -0.9173 -3.2671
  133OSM    C1114265   4.793   1.965   2.296 -0.2041  0.2682 -0.0979
  133OSM   H11A14266   4.901   1.986   2.283 -0.5362  2.6894  0.6852
  133OSM   H11B14267   4.772   1.952   2.405 -0.4605  1.6756  0.0382
  133OSM      P14268   4.570   2.106   2.280 -0.0599 -0.2159  0.1004
  133OSM    O1314269   4.547   2.237   2.220  0.5306 -0.0521  0.7153
  133OSM    O1414270   4.478   1.999   2.235 -0.3978 -0.3419  0.1267
  133OSM    O1114271   4.571   2.114   2.433  0.1290  0.7197 -0.4551
  133OSM    O1214272   4.724   2.079   2.248 -0.3380 -0.4748 -0.2557
  133OSM    C1S14273   4.656   2.202   2.505 -0.6414  0.2043  0.2085
  133OSM    H1S14274   4.657   2.307   2.470 -0.0373  0.3073  0.5027
  133OSM    H1T14275   4.760   2.162   2.497 -1.4998 -2.1431  0.1104
  133OSM     NF14276   4.701   2.328   2.724 -0.0465 -0.3399 -0.0351
  133OSM    HNF14277   4.784   2.319   2.779  0.0151 -3.2377 -0.4294
  133OSM    C2S14278   4.633   2.210   2.663 -0.5710 -0.5480  0.0903
  133OSM    H2S14279   4.524   2.230   2.676 -0.1774  1.1626  1.1605
  133OSM    C3S14280   4.666   2.071   2.726  0.7836 -0.3554  0.3234
  133OSM    H3S14281   4.775   2.054   2.711  0.7673 -0.8448  0.7402
  133OSM     O314282   4.598   1.962   2.666 -0.3497 -0.0732  0.1814
  133OSM    HO314283   4.593   1.992   2.575  0.6355  1.5641  0.6173
  133OSM    C4S14284   4.633   2.063   2.880 -0.5727  0.1547  0.7942
  133OSM    H4S14285   4.527   2.058   2.905 -0.7779  0.6813  0.0714
  133OSM    C5S14286   4.717   2.093   2.978 -0.1613  0.3907 -0.2489
  133OSM    H5S14287   4.820   2.122   2.952 -0.4593  1.8650  0.1465
  133OSM    C6S14288   4.666   2.092   3.118  0.8740  0.6340 -0.1960
  133OSM    H6S14289   4.721   2.016   3.177  4.0853  2.6242 -0.3967
  133OSM    H6T14290   4.561   2.072   3.148  1.0376  0.3454  0.1799
  133OSM    C7S14291   4.710   2.224   3.186  0.0911 -0.1419 -0.0864
  133OSM    H7S14292   4.662   2.315   3.143  1.3660  0.5639 -0.0738
  133OSM    H7T14293   4.821   2.233   3.178  0.1333 -1.6684 -2.0295
  133OSM    C8S14294   4.681   2.230   3.336  0.4284 -0.4635 -0.5088
  133OSM    H8S14295   4.716   2.134   3.380  2.5050  0.5419  0.1844
  133OSM    H8T14296   4.571   2.231   3.350  0.2656  1.9909 -1.4778
  133OSM    C9S14297   4.759   2.339   3.417  0.7030  0.0857  0.4188
  133OSM    H9S14298   4.702   2.434   3.407 -1.3723 -0.9953  1.4398
  133OSM    H9T14299   4.861   2.349   3.373 -0.5149 -0.1485 -2.6735
  133OSM   C10S14300   4.769   2.298   3.559 -0.5232 -0.2324 -0.1147
  133OSM   H10S14301   4.819   2.199   3.571 -1.3076 -0.7863 -1.2434
  133OSM   H10T14302   4.668   2.278   3.599 -0.5801 -1.8254 -0.9507
  133OSM   C11S14303   4.846   2.405   3.628  0.2954  0.0264 -0.0863
  133OSM   H11S14304   4.824   2.509   3.598  3.4225  0.6416 -0.5620
  133OSM   H11T14305   4.951   2.389   3.595  0.3110  1.2345 -0.6470
  133OSM   C12S14306   4.831   2.389   3.782  0.1756  0.2409  0.1392
  133OSM   H12S14307   4.919   2.445   3.821  0.6826  0.0777 -0.7326
  133OSM   H12T14308   4.833   2.280   3.803 -1.7911  0.0320 -0.5811
  133OSM   C13S14309   4.695   2.445   3.833 -0.1657 -0.3977 -0.8157
  133OSM   H13S14310   4.610   2.399   3.778 -0.5898  0.9735 -1.3606
  133OSM   H13T14311   4.683   2.555   3.822  1.8120  0.0455  0.8558
  133OSM   C14S14312   4.664   2.411   3.984 -0.3103 -0.1788 -0.7168
  133OSM   H14S14313   4.736   2.449   4.059 -2.4757 -2.4337  2.7778
  133OSM   H14T14314   4.671   2.302   4.001  0.6517 -0.2064 -1.2079
  133OSM   C15S14315   4.521   2.446   4.037  0.3797 -0.1449  0.0259
  133OSM   H15S14316   4.458   2.391   3.964  0.3232 -1.5793  1.1066
  133OSM   H15T14317   4.506   2.555   4.024  0.9570  0.0505  0.8689
  133OSM   C16S14318   4.499   2.406   4.182  0.2565  0.7485 -0.0913
  133OSM   H16S14319   4.547   2.480   4.250 -0.6311  0.9082  0.3868
  133OSM   H16T14320   4.536   2.305   4.208 -1.0605  0.2978  0.0768
  133OSM   C17S14321   4.349   2.385   4.211 -0.5542 -0.2402 -0.5983
  133OSM   H17S14322   4.353   2.344   4.314 -0.2984 -3.5013 -1.7835
  133OSM   H17T14323   4.294   2.317   4.143 -0.1399 -1.4135  0.1996
  133OSM   C18S14324   4.260   2.518   4.224  0.4610  0.2477 -0.4159
  133OSM   H18S14325   4.239   2.566   4.126 -0.8663 -0.9388 -0.7351
  133OSM   H18T14326   4.315   2.580   4.298  0.6729 -1.5194  0.9619
  133OSM   H18U14327   4.162   2.492   4.267  0.3725 -1.9082 -1.8000
  133OSM    C1F14328   4.648   2.451   2.721  0.4739  0.4479 -0.1590
  133OSM     OF14329   4.526   2.462   2.703  0.0698  0.3924 -0.4161
  133OSM    C2F14330   4.740   2.570   2.740  0.0069 -1.0606 -0.2238
  133OSM    H2F14331   4.747   2.638   2.653  1.0604 -0.1195  0.5653
  133OSM    H2G14332   4.847   2.541   2.747  0.5258  0.9844  1.3190
  133OSM    C3F14333   4.703   2.658   2.856 -0.7879 -0.0703  0.0457
  133OSM    H3F14334   4.600   2.699   2.856  0.4131  3.2593  1.5187
  133OSM    H3G14335   4.772   2.745   2.863 -0.7024 -0.0603 -0.8431
  133OSM    C4F14336   4.713   2.574   2.985 -0.6269  0.2074 -1.0696
  133OSM    H4F14337   4.821   2.548   2.992  0.2156  3.3368 -1.1283
  133OSM    H4G14338   4.668   2.473   2.978  0.5939 -0.3850 -0.7485
  133OSM    C5F14339   4.666   2.644   3.111  0.6303 -0.4377 -0.0034
  133OSM    H5F14340   4.652   2.570   3.192  2.1736  0.1927  0.8730
  133OSM    H5G14341   4.574   2.697   3.076  0.9818  0.4359  0.3679
  133OSM    C6F14342   4.747   2.753   3.173 -0.3599 -1.0304  0.1316
  133OSM    H6F14343   4.694   2.798   3.260 -0.0155 -0.2951 -0.0253
  133OSM    H6G14344   4.769   2.843   3.111 -1.1136  0.2511  1.6617
  133OSM    C7F14345   4.879   2.708   3.233  0.1533  0.0541  0.2856
  133OSM    H7F14346   4.935   2.659   3.151 -0.4985 -0.6765  0.2578
  133OSM    H7G14347   4.858   2.638   3.316 -0.7666 -1.1425 -0.9061
  133OSM    C8F14348   4.973   2.810   3.296  0.5737  0.1373  0.0314
  133OSM    H8F14349   5.000   2.882   3.216  0.2279  0.4145  0.1570
  133OSM    H8G14350   5.066   2.757   3.324  0.2231 -1.1825 -1.1986
  133OSM    C9F14351   4.907   2.884   3.419  0.1356 -1.1932 -0.5271
  133OSM    H9F14352   4.822   2.950   3.399 -0.7339 -2.2996 -0.5997
  133OSM   C10F14353   4.945   2.853   3.542 -0.2966  0.8087  0.3097
  133OSM   H10F14354   4.890   2.902   3.624  0.6825  1.5063  0.5579
  133OSM   C11F14355   5.049   2.751   3.583  0.1564  0.0342  0.4726
  133OSM   H11F14356   5.148   2.796   3.561  0.6646 -0.8445  0.9175
  133OSM   H11G14357   5.027   2.660   3.522 -1.0874  0.1208  0.7614
  133OSM   C12F14358   5.035   2.708   3.733 -0.5474  0.2488 -0.2577
  133OSM   H12F14359   5.102   2.622   3.754  1.1253  1.4480 -0.4494
  133OSM   H12G14360   4.931   2.673   3.751 -0.6857  0.2784 -0.9738
  133OSM   C13F14361   5.062   2.826   3.829  0.6001 -0.5600 -0.0452
  133OSM   H13F14362   5.005   2.915   3.796 -2.2477 -1.9556  0.8003
  133OSM   H13G14363   5.169   2.855   3.825  0.5572 -0.4323 -0.2743
  133OSM   C14F14364   5.024   2.803   3.977 -0.0611  0.4923  0.5955
  133OSM   H14F14365   5.126   2.796   4.020  1.0402 -0.6913 -1.9987
  133OSM   H14G14366   4.980   2.701   3.987  2.4969 -0.5962  1.4455
  133OSM   C15F14367   4.931   2.913   4.041 -0.2404  0.4579  0.4907
  133OSM   H15F14368   4.908   2.898   4.149 -0.4144 -0.8434  0.2982
  133OSM   H15G14369   4.833   2.904   3.988 -0.0685 -3.7306  0.5254
  133OSM   C16F14370   4.996   3.054   4.027  0.2411  0.4483 -0.1093
  133OSM   H16F14371   4.924   3.128   4.067  0.3908  0.5585 -0.0399
  133OSM   H16G14372   5.009   3.075   3.919  0.4567  1.2439  0.0667
  133OSM   C17F14373   5.129   3.083   4.112  0.3199  0.4076 -0.6303
  133OSM   H17F14374   5.163   3.184   4.084  2.1218  0.3949  1.2505
  133OSM   H17G14375   5.205   3.015   4.069  0.8038  1.0937 -0.8718
  133OSM   C18F14376   5.131   3.077   4.272  0.8043  0.2954  0.5209
  133OSM   H18F14377   5.218   3.132   4.313  1.1171 -0.5286  0.9758
  133OSM   H18G14378   5.142   2.974   4.310  1.8089  0.3974  0.5242
  133OSM   H18H14379   5.034   3.123   4.302 -0.2379 -1.6154  0.2475
  134OSM      N14380   3.449   1.461   2.439 -0.2856  0.0747  0.1520
  134OSM    C1514381   3.529   1.505   2.559  0.0665 -0.2985 -0.0783
  134OSM   H15A14382   3.473   1.502   2.651  0.1758  0.8841  0.0446
  134OSM   H15B14383   3.584   1.598   2.556 -0.1640 -0.1756 -0.6713
  134OSM   H15C14384   3.607   1.432   2.572  1.0308  0.6675 -0.2897
  134OSM    C1414385   3.330   1.561   2.420  0.1512 -0.2531  0.1338
  134OSM   H14A14386   3.358   1.658   2.382 -4.7093  0.2737 -2.9331
  134OSM   H14B14387   3.281   1.579   2.514 -1.2264 -0.4813 -0.5130
  134OSM   H14C14388   3.256   1.522   2.352 -1.4396  0.0116  1.6534
  134OSM    C1314389   3.532   1.460   2.315 -0.2297 -0.5095  0.5702
  134OSM   H13A14390   3.503   1.387   2.241 -0.7278 -0.7077  0.9583
  134OSM   H13B14391   3.635   1.444   2.344  0.3074  0.7736 -0.5212
  134OSM   H13C14392   3.537   1.555   2.264  3.4191  0.4177  2.2972
  134OSM    C1214393   3.383   1.327   2.464 -0.0453 -0.2307 -0.3385
  134OSM   H12A14394   3.336   1.304   2.369 -2.9228  1.6674  0.4890
  134OSM   H12B14395   3.299   1.329   2.531  0.8643  0.5375  0.8158
  134OSM    C1114396   3.476   1.211   2.517  0.1947  0.5860 -0.7208
  134OSM   H11A14397   3.410   1.122   2.511  2.2046 -0.9647 -1.2996
  134OSM   H11B14398   3.503   1.220   2.624 -2.3994 -0.1898  0.0484
  134OSM      P14399   3.624   1.089   2.336  0.2723  0.2796 -0.6038
  134OSM    O1314400   3.496   1.055   2.271  0.7031 -0.1853 -0.4753
  134OSM    O1414401   3.725   1.147   2.255 -0.2367  0.1122 -0.3177
  134OSM    O1114402   3.692   0.954   2.390 -0.2601  0.8310 -0.3510
  134OSM    O1214403   3.607   1.187   2.454  0.1983 -0.5438 -0.0958
  134OSM    C1S14404   3.814   0.966   2.464 -0.2302 -0.2771 -0.2829
  134OSM    H1S14405   3.796   1.041   2.544  2.7319  0.4555 -0.1947
  134OSM    H1T14406   3.892   1.000   2.393 -0.6437  1.0367 -0.1385
  134OSM     NF14407   3.962   0.862   2.619  0.2617  0.1280  0.3659
  134OSM    HNF14408   4.051   0.840   2.579 -0.5368 -0.7460 -1.0222
  134OSM    C2S14409   3.859   0.837   2.523 -0.5490  0.2392 -0.4556
  134OSM    H2S14410   3.774   0.797   2.583 -1.3458  3.3068  0.6617
  134OSM    C3S14411   3.903   0.745   2.411  0.5772  0.3814  0.1957
  134OSM    H3S14412   3.992   0.789   2.361  0.9407 -1.1498 -0.5768
  134OSM     O314413   3.818   0.727   2.297 -0.4334 -0.2120 -0.1277
  134OSM    HO314414   3.754   0.798   2.306  0.2701  0.1629  2.5460
  134OSM    C4S14415   3.947   0.611   2.460 -0.9381 -0.2244 -0.3540
  134OSM    H4S14416   3.857   0.556   2.492 -1.2661  0.5257  0.0549
  134OSM    C5S14417   4.069   0.557   2.443 -0.0724  0.0076 -0.3887
  134OSM    H5S14418   4.136   0.617   2.380 -0.5811  0.0210 -0.9321
  134OSM    C6S14419   4.110   0.414   2.477 -0.2307 -0.4004  0.6357
  134OSM    H6S14420   4.218   0.395   2.494 -0.1085 -1.8035 -1.4206
  134OSM    H6T14421   4.086   0.366   2.380 -3.2684  1.9832  0.0378
  134OSM    C7S14422   4.023   0.337   2.574  0.4108 -0.1612 -0.1734
  134OSM    H7S14423   3.915   0.336   2.547  0.0106 -1.9429  1.2745
  134OSM    H7T14424   4.026   0.374   2.678 -2.2289  0.6970 -0.3273
  134OSM    C8S14425   4.068   0.190   2.579 -0.5757 -0.2247  0.1861
  134OSM    H8S14426   4.166   0.186   2.630  1.3535 -2.4487 -3.3635
  134OSM    H8T14427   4.093   0.146   2.480  1.7723  0.0984  0.5880
  134OSM    C9S14428   3.974   0.096   2.648 -0.0132  0.1014  0.0426
  134OSM    H9S14429   4.029  -0.000   2.654 -0.9578 -0.4981 -0.4909
  134OSM    H9T14430   3.893   0.067   2.576 -0.0285  0.6614 -0.1753
  134OSM   C10S14431   3.900   0.141   2.776 -0.0060  0.3328 -0.6254
  134OSM   H10S14432   3.829   0.219   2.740 -0.3228 -0.0917 -0.9157
  134OSM   H10T14433   3.984   0.186   2.834 -0.1929  1.6800 -1.3442
  134OSM   C11S14434   3.824   0.028   2.853  0.5902  0.0066  1.0780
  134OSM   H11S14435   3.894  -0.050   2.888  0.6880 -0.4732 -0.1274
  134OSM   H11T14436   3.748  -0.020   2.787 -1.5626  2.3923  1.6312
  134OSM   C12S14437   3.750   0.079   2.978  0.1333 -0.5747 -0.1092
  134OSM   H12S14438   3.661   0.141   2.954 -0.8115 -1.8714 -0.0909
  134OSM   H12T14439   3.822   0.146   3.029  1.2344 -0.7138 -1.4312
  134OSM   C13S14440   3.714  -0.041   3.063  0.1190 -0.3742 -0.0191
  134OSM   H13S14441   3.792  -0.117   3.044  1.6167  1.0825  0.0545
  134OSM   H13T14442   3.617  -0.085   3.032 -0.5972  0.4345  1.0268
  134OSM   C14S14443   3.712   0.001   3.212 -0.2699 -0.6076  0.8044
  134OSM   H14S14444   3.628   0.070   3.235  0.5983  0.8632 -0.3025
  134OSM   H14T14445   3.808   0.055   3.223  1.1190 -2.8120  0.2034
  134OSM   C15S14446   3.713  -0.122   3.301  0.0295 -0.1124 -0.4882
  134OSM   H15S14447   3.734  -0.094   3.406  0.7346 -2.0542 -0.0750
  134OSM   H15T14448   3.795  -0.187   3.266  1.8837  0.5751  2.2470
  134OSM   C16S14449   3.574  -0.184   3.295 -0.5381  0.0949  0.0704
  134OSM   H16S14450   3.552  -0.230   3.197 -1.4723 -0.0389  0.3294
  134OSM   H16T14451   3.500  -0.102   3.305 -0.9015  0.1169 -2.3052
  134OSM   C17S14452   3.553  -0.278   3.421 -0.0092  0.5149  0.2790
  134OSM   H17S14453   3.590  -0.229   3.514 -0.7145 -3.2950  2.7829
  134OSM   H17T14454   3.607  -0.373   3.407  0.8575  1.0562 -0.1654
  134OSM   C18S14455   3.409  -0.312   3.437 -0.3473  0.4670 -0.4866
  134OSM   H18S14456   3.360  -0.345   3.343 -0.9693  0.7442 -0.2639
  134OSM   H18T14457   3.363  -0.219   3.477  0.7507  1.1267 -0.7105
  134OSM   H18U14458   3.407  -0.395   3.510 -2.3133 -0.8173 -1.9086
  134OSM    C1F14459   3.945   0.931   2.733  0.2046  0.2475 -0.4533
  134OSM     OF14460   3.836   0.977   2.772  1.0593  0.5920  0.0687
  134OSM    C2F14461   4.060   0.939   2.818 -0.1817  0.0425  0.6217
  134OSM    H2F14462   4.137   1.005   2.772  0.3753 -1.4183 -0.6199
  134OSM    H2G14463   4.110   0.843   2.842  1.0779  0.7494  0.9162
  134OSM    C3F14464   4.034   1.021   2.954 -0.8233 -0.6803  0.2892
  134OSM    H3F14465   3.981   0.970   3.038 -0.3251 -0.3962  0.7836
  134OSM    H3G14466   3.979   1.110   2.917  0.6277  0.3744  0.5722
  134OSM    C4F14467   4.153   1.083   3.034 -0.4952  0.8396  0.7111
  134OSM    H4F14468   4.228   1.128   2.966 -1.7893  0.7903 -0.8073
  134OSM    H4G14469   4.201   1.001   3.091  0.1338 -1.0598 -2.3763
  134OSM    C5F14470   4.111   1.189   3.135  0.4101 -0.0646  0.0449
  134OSM    H5F14471   4.046   1.150   3.216  0.3331  2.0373  1.0818
  134OSM    H5G14472   4.051   1.267   3.084 -0.7149 -1.9422 -1.6394
  134OSM    C6F14473   4.222   1.265   3.203 -0.0383  0.1756  0.3743
  134OSM    H6F14474   4.171   1.349   3.254 -1.8464  0.6115 -1.9891
  134OSM    H6G14475   4.283   1.307   3.120  0.3237  0.2364  0.6687
  134OSM    C7F14476   4.302   1.187   3.304  0.0726  0.0018  0.2315
  134OSM    H7F14477   4.331   1.092   3.255  0.5763  0.7779 -1.0446
  134OSM    H7G14478   4.229   1.160   3.383  0.2877  0.0376  0.4419
  134OSM    C8F14479   4.416   1.267   3.363  0.0016 -0.1750 -0.2937
  134OSM    H8F14480   4.377   1.356   3.418 -0.4187  0.5507 -1.7151
  134OSM    H8G14481   4.473   1.312   3.279  0.3128  0.7632  0.4027
  134OSM    C9F14482   4.492   1.175   3.460 -0.0323  0.6725  1.0841
  134OSM    H9F14483   4.465   1.068   3.459 -3.0011  1.2613  3.2934
  134OSM   C10F14484   4.586   1.228   3.539 -0.2658 -0.5113  0.5005
  134OSM   H10F14485   4.630   1.151   3.604  1.6223 -0.7679 -0.9763
  134OSM   C11F14486   4.630   1.372   3.546  0.2652 -0.4912 -0.6454
  134OSM   H11F14487   4.566   1.446   3.492 -0.1609 -1.1229 -1.0109
  134OSM   H11G14488   4.732   1.386   3.503  0.6184  0.2786  0.3951
  134OSM   C12F14489   4.638   1.432   3.688  0.7280 -0.5672 -0.3486
  134OSM   H12F14490   4.540   1.408   3.734 -0.7337  2.3481 -1.6587
  134OSM   H12G14491   4.649   1.543   3.684 -0.4341 -0.3735  1.2439
  134OSM   C13F14492   4.750   1.369   3.769 -0.6731  0.5103 -0.4303
  134OSM   H13F14493   4.840   1.368   3.704 -0.4267 -0.6488 -0.0896
  134OSM   H13G14494   4.725   1.262   3.783  2.0730  0.0411  1.6543
  134OSM   C14F14495   4.791   1.434   3.910 -0.1864 -0.7815 -0.5213
  134OSM   H14F14496   4.815   1.538   3.878 -0.5559 -1.2370 -2.3956
  134OSM   H14G14497   4.879   1.387   3.959 -0.2506  0.0076  0.3936
  134OSM   C15F14498   4.671   1.448   4.007  0.1606  0.3611 -0.2773
  134OSM   H15F14499   4.617   1.351   3.999  1.1199 -0.2986  0.8564
  134OSM   H15G14500   4.595   1.518   3.967 -1.5288 -0.8348  0.7341
  134OSM   C16F14501   4.703   1.478   4.157  0.5105  0.9192  0.0484
  134OSM   H16F14502   4.752   1.386   4.196 -1.1193 -0.8353 -1.7639
  134OSM   H16G14503   4.606   1.499   4.207  1.0537 -0.5585  1.7856
  134OSM   C17F14504   4.791   1.598   4.178 -0.0296 -0.0344  0.4295
  134OSM   H17F14505   4.738   1.685   4.134 -1.8386 -1.3596 -0.1104
  134OSM   H17G14506   4.885   1.583   4.121 -0.1974  2.3361 -0.5817
  134OSM   C18F14507   4.820   1.629   4.324 -0.0470  0.3387 -0.8000
  134OSM   H18F14508   4.877   1.724   4.327  0.6768 -0.0452 -1.9853
  134OSM   H18G14509   4.887   1.552   4.367  1.5030  2.5758  1.0802
  134OSM   H18H14510   4.719   1.623   4.372  0.3513  0.6934  0.1136
  135OSM      N14511   5.121   5.315   1.844  0.4091 -0.3797 -0.1029
  135OSM    C1514512   5.262   5.273   1.811 -0.3897 -1.3838  0.4656
  135OSM   H15A14513   5.266   5.172   1.773  0.4367 -0.6254 -1.6433
  135OSM   H15B14514   5.326   5.282   1.897  0.0200 -0.3945  0.0719
  135OSM   H15C14515   5.300   5.334   1.730 -1.9288  0.4489  1.0544
  135OSM    C1414516   5.124   5.452   1.899  0.0705  0.6588  0.1024
  135OSM   H14A14517   5.023   5.490   1.906  0.3413  1.5388 -0.5230
  135OSM   H14B14518   5.178   5.519   1.833 -1.6242  0.3877 -1.6257
  135OSM   H14C14519   5.172   5.461   1.995 -3.6237 -0.0609  2.1716
  135OSM    C1314520   5.029   5.321   1.721  0.4069 -0.1154  0.4261
  135OSM   H13A14521   5.085   5.370   1.642  2.0246 -1.7368  0.4884
  135OSM   H13B14522   4.940   5.380   1.738 -1.4756 -1.6663 -3.0288
  135OSM   H13C14523   4.996   5.222   1.694 -1.8523  1.2158 -2.2841
  135OSM    C1214524   5.057   5.208   1.941 -0.3841 -0.0699 -0.1176
  135OSM   H12A14525   5.067   5.107   1.904  2.0022  0.2146 -0.4293
  135OSM   H12B14526   4.952   5.233   1.950 -0.5042  0.9624 -3.1854
  135OSM    C1114527   5.125   5.185   2.078 -0.1848  0.1828  0.0111
  135OSM   H11A14528   5.067   5.111   2.137  0.0935  0.7514  1.0192
  135OSM   H11B14529   5.130   5.283   2.130  2.1363  1.6844 -2.7717
  135OSM      P14530   5.376   5.162   2.150  0.3107  0.0804  0.2528
  135OSM    O1314531   5.433   5.033   2.195  0.1337 -0.2321  0.0298
  135OSM    O1414532   5.460   5.266   2.084 -0.0083  0.1809 -0.7830
  135OSM    O1114533   5.295   5.220   2.266 -0.5789  0.4625  0.1358
  135OSM    O1214534   5.254   5.132   2.050  0.3406  0.1877 -0.0662
  135OSM    C1S14535   5.362   5.239   2.390  0.3948  0.3077 -0.5516
  135OSM    H1S14536   5.416   5.336   2.375  0.3011  0.4996  0.2971
  135OSM    H1T14537   5.435   5.158   2.412  0.5036  0.0249 -1.8632
  135OSM     NF14538   5.336   5.327   2.629 -0.2817 -0.2522 -0.5673
  135OSM    HNF14539   5.330   5.269   2.710 -2.5464 -0.1874 -0.6294
  135OSM    C2S14540   5.263   5.277   2.508 -0.7970  0.3578 -0.0611
  135OSM    H2S14541   5.201   5.358   2.463 -1.6161  0.4796  1.2370
  135OSM    C3S14542   5.159   5.161   2.533  0.4024 -1.0863  0.2866
  135OSM    H3S14543   5.214   5.071   2.568  0.5805 -0.5563  1.4051
  135OSM     O314544   5.092   5.120   2.412  0.5681  0.4426 -0.3871
  135OSM    HO314545   5.154   5.136   2.340 -2.1493 -1.0003 -3.3074
  135OSM    C4S14546   5.048   5.215   2.622 -0.1887  0.2208  0.6659
  135OSM    H4S14547   4.990   5.301   2.587 -0.9262  0.1367  1.6236
  135OSM    C5S14548   5.021   5.155   2.735  0.2219  0.6591 -0.0149
  135OSM    H5S14549   5.090   5.080   2.776 -1.1125 -0.0380  1.0374
  135OSM    C6S14550   4.909   5.194   2.822  0.3368 -0.0632 -0.2788
  135OSM    H6S14551   4.819   5.187   2.756  1.9717  0.9913 -2.7707
  135OSM    H6T14552   4.921   5.300   2.853 -2.4162  0.0430  0.7273
  135OSM    C7S14553   4.888   5.093   2.934 -0.0936 -0.1177 -0.6182
  135OSM    H7S14554   4.898   4.986   2.907 -1.3273 -0.3732 -0.1146
  135OSM    H7T14555   4.780   5.103   2.958  0.1358 -1.3356  1.1556
  135OSM    C8S14556   4.977   5.140   3.054  0.3115 -0.5764  0.0816
  135OSM    H8S14557   4.947   5.244   3.080  1.2893 -0.3623  0.3990
  135OSM    H8T14558   5.080   5.130   3.016 -0.2390 -1.7429 -1.1832
  135OSM    C9S14559   4.955   5.052   3.179 -0.4459  0.2008  0.2824
  135OSM    H9S14560   4.961   4.946   3.145 -0.9973  0.4912 -0.7312
  135OSM    H9T14561   4.856   5.084   3.219 -0.2172  0.5197  0.5981
  135OSM   C10S14562   5.053   5.089   3.295  0.0280  0.3739  0.1533
  135OSM   H10S14563   5.042   5.197   3.318 -0.5350  0.5556 -0.8832
  135OSM   H10T14564   5.157   5.072   3.261  1.2067  0.1368  3.5270
  135OSM   C11S14565   5.024   5.002   3.416  0.3002 -0.0038 -0.0814
  135OSM   H11S14566   5.069   4.901   3.416 -0.0203 -0.1489 -0.1554
  135OSM   H11T14567   4.914   4.988   3.426  0.3719 -0.3014  0.3029
  135OSM   C12S14568   5.048   5.068   3.550 -0.0578 -0.0479 -0.8377
  135OSM   H12S14569   5.028   5.177   3.557 -0.3545 -0.2185  1.6121
  135OSM   H12T14570   5.156   5.051   3.572  0.2551  0.2951 -2.0320
  135OSM   C13S14571   4.970   4.997   3.663  0.4607  0.6583 -0.8012
  135OSM   H13S14572   4.978   4.886   3.663  2.6919  0.7466  0.7195
  135OSM   H13T14573   4.863   5.026   3.649  1.2393  2.7545 -3.0718
  135OSM   C14S14574   5.013   5.042   3.807  0.2396 -0.2484  0.4634
  135OSM   H14S14575   5.004   5.153   3.802  0.4310 -0.2830 -1.5022
  135OSM   H14T14576   5.117   5.009   3.825 -0.2958 -2.0043  0.5137
  135OSM   C15S14577   4.935   4.979   3.919  0.1614 -0.5575 -0.1449
  135OSM   H15S14578   4.931   4.868   3.929 -3.3669 -0.6121 -0.7805
  135OSM   H15T14579   4.835   5.012   3.884  0.9326  1.6466 -0.4293
  135OSM   C16S14580   4.960   5.038   4.049  0.7927  0.1967 -0.4030
  135OSM   H16S14581   4.960   5.148   4.031 -1.6969  0.2792 -0.2513
  135OSM   H16T14582   5.059   5.013   4.092  0.1700  0.8523  1.5365
  135OSM   C17S14583   4.852   5.021   4.162  0.1745 -0.6550 -0.7991
  135OSM   H17S14584   4.847   4.914   4.194  2.6361 -0.5179  0.2601
  135OSM   H17T14585   4.747   5.045   4.133 -0.3225 -1.2116  0.4532
  135OSM   C18S14586   4.876   5.117   4.282 -0.3871  0.6740  0.0056
  135OSM   H18S14587   4.846   5.217   4.244 -0.0174  0.2871 -1.3391
  135OSM   H18T14588   4.984   5.109   4.304 -0.1226 -0.0173 -1.4282
  135OSM   H18U14589   4.818   5.090   4.374 -1.6205 -0.1371 -0.9755
  135OSM    C1F14590   5.413   5.440   2.631  0.1910 -0.0331 -1.1429
  135OSM     OF14591   5.393   5.527   2.552  0.0742 -0.7667  0.2985
  135OSM    C2F14592   5.516   5.446   2.739  0.7468  0.2835 -0.2096
  135OSM    H2F14593   5.604   5.393   2.695  0.4459 -0.6668  0.3009
  135OSM    H2G14594   5.468   5.392   2.824 -2.5398  1.8368 -0.9298
  135OSM    C3F14595   5.550   5.589   2.796  0.6005 -0.1095  0.7853
  135OSM    H3F14596   5.469   5.646   2.845 -0.2427 -1.2525  0.7862
  135OSM    H3G14597   5.568   5.646   2.703 -1.4735 -1.9662 -0.8947
  135OSM    C4F14598   5.669   5.601   2.887 -0.7333  0.7164 -0.1720
  135OSM    H4F14599   5.711   5.704   2.882  0.1074  0.4139  0.3110
  135OSM    H4G14600   5.750   5.533   2.852  0.6070  1.4289  1.4222
  135OSM    C5F14601   5.638   5.574   3.041 -0.0614  1.0365  0.6285
  135OSM    H5F14602   5.734   5.543   3.087  1.3227  2.6379 -1.0252
  135OSM    H5G14603   5.554   5.500   3.042 -0.1879  0.9680 -2.5331
  135OSM    C6F14604   5.583   5.687   3.124 -0.0575 -0.6786 -0.0684
  135OSM    H6F14605   5.483   5.721   3.089  0.4192  1.6323  0.5986
  135OSM    H6G14606   5.650   5.776   3.124 -1.3295  0.3149  0.1669
  135OSM    C7F14607   5.580   5.655   3.269  1.1329 -0.0022  0.2173
  135OSM    H7F14608   5.672   5.603   3.304  0.1536 -0.7597  1.8082
  135OSM    H7G14609   5.499   5.583   3.295  1.8537 -0.4784  1.2342
  135OSM    C8F14610   5.560   5.782   3.353 -0.0206 -0.0035  0.3115
  135OSM    H8F14611   5.651   5.844   3.337  1.8169 -2.7540 -0.6104
  135OSM    H8G14612   5.562   5.744   3.457  0.0221  0.8851  0.6483
  135OSM    C9F14613   5.443   5.876   3.327  0.3916  0.3304 -0.6562
  135OSM    H9F14614   5.427   5.901   3.221 -0.4290 -1.5664 -1.0368
  135OSM   C10F14615   5.352   5.919   3.420 -0.2190 -0.5356  0.6306
  135OSM   H10F14616   5.269   5.977   3.378  1.0270  0.0071 -1.1760
  135OSM   C11F14617   5.358   5.896   3.569 -0.6460  0.9734  0.1477
  135OSM   H11F14618   5.463   5.865   3.591  0.2598  0.7803 -3.7371
  135OSM   H11G14619   5.289   5.814   3.595  0.8090  0.3596  2.4089
  135OSM   C12F14620   5.309   6.015   3.654  0.3689 -0.6160  0.4939
  135OSM   H12F14621   5.229   6.070   3.600  0.0611 -0.9403  0.6185
  135OSM   H12G14622   5.384   6.096   3.671 -0.9493  0.3812  1.8610
  135OSM   C13F14623   5.258   5.968   3.795 -0.2772 -0.0260 -0.9827
  135OSM   H13F14624   5.331   5.896   3.836 -1.6562 -1.9203 -1.6951
  135OSM   H13G14625   5.162   5.915   3.776 -0.0978 -1.0439  0.8306
  135OSM   C14F14626   5.232   6.073   3.902  0.6503  0.5084 -0.6871
  135OSM   H14F14627   5.166   6.153   3.862 -0.9841  0.6415  1.9588
  135OSM   H14G14628   5.323   6.107   3.956 -1.8846  1.3132  3.5649
  135OSM   C15F14629   5.143   6.014   4.012  0.4624  0.2415 -0.0314
  135OSM   H15F14630   5.154   6.073   4.106 -0.0469 -0.0502  0.2183
  135OSM   H15G14631   5.174   5.909   4.035 -1.0514 -0.1776  0.2565
  135OSM   C16F14632   4.996   6.021   3.967  0.1715  0.3264  0.6538
  135OSM   H16F14633   4.971   5.953   3.883  0.4564  1.2208 -0.1686
  135OSM   H16G14634   4.968   6.127   3.949 -0.5381 -0.0521 -0.6110
  135OSM   C17F14635   4.890   5.990   4.075 -0.0980  0.4872 -0.2366
  135OSM   H17F14636   4.924   6.042   4.168  0.3643  0.1724 -0.2273
  135OSM   H17G14637   4.888   5.882   4.104  1.5250  0.7447  0.9630
  135OSM   C18F14638   4.750   6.034   4.040  0.2652 -0.1249 -0.0924
  135OSM   H18F14639   4.744   6.145   4.041 -2.1988 -0.1862 -0.0539
  135OSM   H18G14640   4.669   5.989   4.101 -0.9960  0.4819 -1.2476
  135OSM   H18H14641   4.722   6.005   3.936  0.6048 -2.1731  0.3498
  136OSM      N14642   1.588   1.211   2.078 -0.4217 -0.0421 -0.1775
  136OSM    C1514643   1.488   1.224   1.969 -1.6282  0.1288  0.0664
  136OSM   H15A14644   1.527   1.288   1.891  0.7268  0.6390  1.5825
  136OSM   H15B14645   1.402   1.276   2.010 -0.6281  3.4587 -1.6464
  136OSM   H15C14646   1.461   1.129   1.925 -0.2906 -0.4106  0.3601
  136OSM    C1414647   1.532   1.112   2.185 -0.6846 -0.7316  0.8608
  136OSM   H14A14648   1.595   1.093   2.271 -1.3816  1.9185  2.0720
  136OSM   H14B14649   1.514   1.020   2.131 -1.4960  0.9143 -1.8582
  136OSM   H14C14650   1.433   1.150   2.209 -1.3328 -0.2178 -2.1606
  136OSM    C1314651   1.706   1.148   2.002 -0.6377 -0.4410 -0.5533
  136OSM   H13A14652   1.679   1.052   1.961 -0.5829 -0.2686 -0.9965
  136OSM   H13B14653   1.779   1.115   2.074  0.8165 -1.4445 -2.3861
  136OSM   H13C14654   1.748   1.205   1.920  0.1075  0.4293  0.3973
  136OSM    C1214655   1.630   1.348   2.136  0.7002 -0.3643  0.0546
  136OSM   H12A14656   1.673   1.415   2.063 -0.1056 -0.2529 -0.3334
  136OSM   H12B14657   1.710   1.329   2.205  1.8542 -2.5023 -1.7641
  136OSM    C1114658   1.527   1.425   2.227 -0.2881  0.0335  0.7147
  136OSM   H11A14659   1.586   1.510   2.266  1.0541  0.4710 -2.0009
  136OSM   H11B14660   1.493   1.364   2.313 -0.2654 -1.8148 -0.5281
  136OSM      P14661   1.408   1.595   2.067 -0.1910 -0.7046  0.0709
  136OSM    O1314662   1.539   1.616   1.996  0.3417  0.9960 -0.6826
  136OSM    O1414663   1.280   1.608   1.993  0.5689  0.1571 -0.0109
  136OSM    O1114664   1.416   1.692   2.189 -0.0695 -0.3635 -0.2597
  136OSM    O1214665   1.413   1.464   2.156 -0.7432  0.4682  0.5372
  136OSM    C1S14666   1.339   1.685   2.303 -0.0441  0.1817 -0.2257
  136OSM    H1S14667   1.369   1.598   2.366  2.7142 -0.1403 -1.8145
  136OSM    H1T14668   1.231   1.687   2.281 -0.5040  2.9306  1.7680
  136OSM     NF14669   1.301   1.780   2.530  0.0618 -0.6361 -0.2659
  136OSM    HNF14670   1.210   1.816   2.547  1.2743  4.0726 -2.2219
  136OSM    C2S14671   1.355   1.810   2.396 -0.2095 -0.7356 -0.8420
  136OSM    H2S14672   1.463   1.833   2.413 -0.5100 -0.8826  1.5772
  136OSM    C3S14673   1.298   1.941   2.330 -0.2282 -0.3540 -0.5837
  136OSM    H3S14674   1.190   1.925   2.309  0.0758 -2.6175 -0.6700
  136OSM     O314675   1.355   1.984   2.208 -0.2358 -0.2700  0.4928
  136OSM    HO314676   1.395   1.901   2.181  0.5849  1.1276 -2.9454
  136OSM    C4S14677   1.308   2.066   2.422  0.7110  0.6614 -0.6942
  136OSM    H4S14678   1.406   2.114   2.437  0.7215  0.4204  0.0288
  136OSM    C5S14679   1.205   2.119   2.492 -0.1619 -0.2165 -0.0555
  136OSM    H5S14680   1.103   2.076   2.490  0.8812 -2.8600 -0.7438
  136OSM    C6S14681   1.235   2.230   2.589 -0.2728  0.0746  0.2456
  136OSM    H6S14682   1.153   2.305   2.600  0.3371  0.6455  1.1162
  136OSM    H6T14683   1.315   2.293   2.543  0.4498  0.8557  2.4394
  136OSM    C7S14684   1.270   2.192   2.731  0.2282 -0.0348 -0.5837
  136OSM    H7S14685   1.278   2.290   2.782  2.1184 -0.9741  1.0902
  136OSM    H7T14686   1.372   2.147   2.736  1.2363  2.2018  0.1840
  136OSM    C8S14687   1.164   2.122   2.810 -0.2557  0.2476  0.1997
  136OSM    H8S14688   1.144   2.028   2.755 -0.8071  0.7677 -0.5127
  136OSM    H8T14689   1.073   2.185   2.800 -1.7989 -1.8573  0.2495
  136OSM    C9S14690   1.204   2.082   2.954 -0.1279  0.5297 -0.5344
  136OSM    H9S14691   1.215   2.180   3.005 -1.5933  0.6919 -0.4826
  136OSM    H9T14692   1.306   2.038   2.949  0.0725  1.0029 -0.6945
  136OSM   C10S14693   1.102   1.989   3.030 -0.9139 -0.3008 -0.3365
  136OSM   H10S14694   1.126   1.883   3.004  0.1187 -0.2752  0.4472
  136OSM   H10T14695   1.000   2.021   2.998 -0.6921 -0.1894 -0.9459
  136OSM   C11S14696   1.126   1.993   3.186 -0.8657  0.1351  1.0223
  136OSM   H11S14697   1.085   2.089   3.223 -3.3356 -1.2931  2.2776
  136OSM   H11T14698   1.236   2.004   3.195 -0.7429  2.1053 -1.5694
  136OSM   C12S14699   1.066   1.868   3.248 -0.0424  0.7628 -0.2793
  136OSM   H12S14700   1.088   1.778   3.188 -4.1195  0.2592 -1.3102
  136OSM   H12T14701   0.959   1.893   3.264 -0.1598  0.0319  0.1294
  136OSM   C13S14702   1.112   1.855   3.396  0.2532 -0.4988 -0.4192
  136OSM   H13S14703   1.222   1.842   3.404  0.0321 -1.9460  0.7576
  136OSM   H13T14704   1.068   1.759   3.432 -1.3425 -0.5096 -2.2300
  136OSM   C14S14705   1.054   1.966   3.489 -0.6520 -0.2681  0.0295
  136OSM   H14S14706   0.944   1.946   3.493 -1.4744  2.0702 -4.7127
  136OSM   H14T14707   1.070   2.070   3.452 -0.0217 -0.3548  0.0465
  136OSM   C15S14708   1.114   1.961   3.631 -0.4472  0.1250 -0.1411
  136OSM   H15S14709   1.223   1.980   3.619 -0.3908 -0.8484 -1.3613
  136OSM   H15T14710   1.105   1.860   3.677  0.9627 -0.3575 -0.8641
  136OSM   C16S14711   1.059   2.062   3.733  0.3896  0.0844 -0.4154
  136OSM   H16S14712   0.947   2.061   3.737  0.3491  0.4653 -1.2615
  136OSM   H16T14713   1.074   2.162   3.688  0.9119 -0.7228 -2.1210
  136OSM   C17S14714   1.119   2.053   3.868 -0.3442 -0.5991 -0.2021
  136OSM   H17S14715   1.111   1.954   3.918 -1.2785 -0.8273 -0.7778
  136OSM   H17T14716   1.054   2.110   3.938 -0.3226 -0.6977 -0.1006
  136OSM   C18S14717   1.261   2.094   3.866 -0.3340  0.2607 -0.4920
  136OSM   H18S14718   1.332   2.026   3.814  0.7665  0.7983  0.2577
  136OSM   H18T14719   1.307   2.100   3.967  1.1367  1.0304 -1.1615
  136OSM   H18U14720   1.263   2.198   3.826 -2.0140  1.1576  1.5917
  136OSM    C1F14721   1.369   1.695   2.607  0.3188 -0.4907  0.7156
  136OSM     OF14722   1.473   1.647   2.573  0.6509  0.2064  0.1772
  136OSM    C2F14723   1.300   1.650   2.727  0.2184  0.3494  0.3519
  136OSM    H2F14724   1.249   1.551   2.719 -1.4617  1.2117 -0.3153
  136OSM    H2G14725   1.218   1.723   2.748 -0.5509 -0.1938 -0.6137
  136OSM    C3F14726   1.396   1.645   2.849  0.6317  0.6771 -0.0058
  136OSM    H3F14727   1.463   1.734   2.849  1.2932  0.2864 -3.0785
  136OSM    H3G14728   1.454   1.553   2.825 -0.3611  0.5768 -2.2730
  136OSM    C4F14729   1.327   1.632   2.984 -0.0625 -0.3837 -0.4747
  136OSM    H4F14730   1.263   1.542   2.974  0.7287 -0.7007 -4.0494
  136OSM    H4G14731   1.271   1.726   3.005 -0.2881 -0.5589 -0.2882
  136OSM    C5F14732   1.422   1.618   3.104  0.6501  0.1942 -0.2145
  136OSM    H5F14733   1.509   1.688   3.100 -0.3234  1.4742  0.4611
  136OSM    H5G14734   1.468   1.517   3.093  0.0126 -0.0140 -1.0303
  136OSM    C6F14735   1.364   1.629   3.237  0.1673 -0.0665 -0.3872
  136OSM    H6F14736   1.271   1.569   3.251 -0.1542  0.3386 -0.7199
  136OSM    H6G14737   1.327   1.730   3.263  2.4287  0.7377 -0.0763
  136OSM    C7F14738   1.467   1.589   3.345  0.3020  0.2870 -0.5345
  136OSM    H7F14739   1.563   1.642   3.331  1.3842 -2.0467 -2.8908
  136OSM    H7G14740   1.502   1.483   3.349 -0.2414  0.1118  2.3941
  136OSM    C8F14741   1.410   1.635   3.481 -0.1882  0.3570 -0.3107
  136OSM    H8F14742   1.300   1.623   3.484 -0.1868  0.4187  0.0471
  136OSM    H8G14743   1.424   1.745   3.483  1.5721  0.2054 -1.9435
  136OSM    C9F14744   1.464   1.558   3.606  0.0390  0.3227 -0.2009
  136OSM    H9F14745   1.445   1.449   3.610 -0.1359  0.3791  0.7735
  136OSM   C10F14746   1.519   1.618   3.715  0.3903 -0.3424  0.5948
  136OSM   H10F14747   1.561   1.557   3.797 -0.0484 -0.9613  0.3715
  136OSM   C11F14748   1.546   1.764   3.727  0.0510 -0.0312  0.1797
  136OSM   H11F14749   1.451   1.820   3.723  0.9147  1.8334  2.7416
  136OSM   H11G14750   1.616   1.798   3.648  0.1569  0.3631  0.4412
  136OSM   C12F14751   1.635   1.805   3.854  0.6150 -0.7489 -0.4119
  136OSM   H12F14752   1.636   1.916   3.857  0.1213 -0.7651  0.5620
  136OSM   H12G14753   1.738   1.770   3.829  0.2528 -1.6169 -0.7452
  136OSM   C13F14754   1.583   1.764   3.991 -0.1609 -0.2183 -0.1398
  136OSM   H13F14755   1.671   1.755   4.058  1.3860  2.0924 -1.6962
  136OSM   H13G14756   1.533   1.666   3.981  1.2133 -1.0110  0.4979
  136OSM   C14F14757   1.483   1.858   4.053  0.7847  0.4794 -0.2806
  136OSM   H14F14758   1.402   1.894   3.986 -0.5660  0.2112  1.1649
  136OSM   H14G14759   1.537   1.953   4.078 -0.5131  0.5323  2.7198
  136OSM   C15F14760   1.398   1.819   4.176 -0.1931  0.5346  0.0752
  136OSM   H15F14761   1.465   1.806   4.264 -0.0022  0.3624 -0.0929
  136OSM   H15G14762   1.340   1.725   4.165  0.7955 -0.1145  0.2298
  136OSM   C16F14763   1.307   1.936   4.215 -0.4705  0.0143 -0.5350
  136OSM   H16F14764   1.235   1.957   4.133 -0.0486 -1.7938 -1.3980
  136OSM   H16G14765   1.369   2.026   4.235 -0.2817 -0.0466 -0.8444
  136OSM   C17F14766   1.229   1.914   4.351 -0.3841  0.1098 -0.4219
  136OSM   H17F14767   1.159   1.829   4.334 -2.1137  1.2662  0.5797
  136OSM   H17G14768   1.162   2.002   4.360 -1.5552 -0.7841 -0.0313
  136OSM   C18F14769   1.312   1.903   4.482  1.0234  0.5233  0.3144
  136OSM   H18F14770   1.242   1.928   4.564 -0.4079  0.3580 -0.8209
  136OSM   H18G14771   1.380   1.992   4.485 -0.8653  2.1557 -1.7817
  136OSM   H18H14772   1.370   1.808   4.489  1.6356  1.0025  2.7600
  137OSM      N14773   5.780   5.484   2.303 -0.0944  0.5143  0.6681
  137OSM    C1514774   5.647   5.534   2.352 -0.1866 -0.2700  0.0900
  137OSM   H15A14775   5.631   5.508   2.456 -2.5618  1.9974  0.4317
  137OSM   H15B14776   5.573   5.488   2.289  0.6671 -0.1876 -0.9966
  137OSM   H15C14777   5.640   5.642   2.347 -0.3550 -0.3144 -0.6394
  137OSM    C1414778   5.817   5.543   2.170 -0.1295 -0.6213  0.0802
  137OSM   H14A14779   5.906   5.493   2.134 -0.7296 -1.1829 -0.6630
  137OSM   H14B14780   5.840   5.649   2.166  0.7009 -0.8320 -2.3322
  137OSM   H14C14781   5.754   5.517   2.087 -1.9384 -1.0843  1.5422
  137OSM    C1314782   5.883   5.507   2.405  0.0591 -0.3465 -0.3577
  137OSM   H13A14783   5.897   5.613   2.424  0.8981 -0.7937  1.8843
  137OSM   H13B14784   5.978   5.476   2.365  0.5947 -0.5398  0.9898
  137OSM   H13C14785   5.863   5.457   2.499  0.6789  0.1955  0.0788
  137OSM    C1214786   5.770   5.333   2.303 -0.5387  0.2259 -0.1327
  137OSM   H12A14787   5.867   5.291   2.281  0.0886  0.9969  1.0839
  137OSM   H12B14788   5.709   5.309   2.216  0.9291  0.9369 -1.4066
  137OSM    C1114789   5.728   5.253   2.426  0.3324 -0.1822  0.1161
  137OSM   H11A14790   5.718   5.144   2.405  2.9396 -0.5465  0.4130
  137OSM   H11B14791   5.632   5.297   2.460  1.5326  2.4645  0.3187
  137OSM      P14792   5.920   5.141   2.573  0.5023  0.4419  0.5439
  137OSM    O1314793   5.838   5.017   2.559 -0.4819 -0.2294  0.2772
  137OSM    O1414794   6.043   5.152   2.498  0.2023  0.4417 -0.4294
  137OSM    O1114795   5.941   5.170   2.727  1.0463  0.4232 -0.3212
  137OSM    O1214796   5.825   5.262   2.531 -0.0308  0.1245  0.0489
  137OSM    C1S14797   5.823   5.212   2.802  0.2088 -0.2656 -0.1067
  137OSM    H1S14798   5.734   5.153   2.774 -1.0652  1.3271  0.4284
  137OSM    H1T14799   5.796   5.317   2.776  1.1928 -0.6004 -2.7763
  137OSM     NF14800   5.734   5.229   3.032  0.1879  0.0925 -0.3031
  137OSM    HNF14801   5.722   5.322   3.066  0.3360  0.4755 -1.2878
  137OSM    C2S14802   5.854   5.195   2.955 -0.6537 -0.8782 -0.3995
  137OSM    H2S14803   5.886   5.092   2.982  0.8541 -0.0770  1.0992
  137OSM    C3S14804   5.973   5.282   2.996 -0.5142  0.8910 -0.2531
  137OSM    H3S14805   5.961   5.390   2.971 -0.6329  0.7982 -0.5941
  137OSM     O314806   6.098   5.260   2.929  0.0615  0.1367  0.2880
  137OSM    HO314807   6.066   5.211   2.852  0.3770  0.8677 -0.3165
  137OSM    C4S14808   6.013   5.270   3.150 -0.3938  0.1885 -0.6988
  137OSM    H4S14809   5.994   5.359   3.212  2.0528  0.3896 -0.1225
  137OSM    C5S14810   6.079   5.175   3.220 -0.1552  0.2344 -0.4091
  137OSM    H5S14811   6.139   5.106   3.157  1.3852  0.4395  0.7593
  137OSM    C6S14812   6.117   5.184   3.367 -0.0625 -0.3297  0.4139
  137OSM    H6S14813   6.218   5.230   3.374 -0.4998  0.9169 -1.0705
  137OSM    H6T14814   6.117   5.077   3.400 -0.2922 -0.6659 -0.6573
  137OSM    C7S14815   6.020   5.258   3.454  0.3812  0.4814  0.2397
  137OSM    H7S14816   5.919   5.212   3.446  0.2993  0.5875  0.6144
  137OSM    H7T14817   6.017   5.364   3.421  1.8490 -0.1593 -2.1839
  137OSM    C8S14818   6.062   5.271   3.600  0.3937 -0.3527 -0.1821
  137OSM    H8S14819   6.156   5.327   3.616  1.6064 -2.8719  2.4973
  137OSM    H8T14820   6.087   5.172   3.644  0.1701 -1.5418 -2.5790
  137OSM    C9S14821   5.942   5.332   3.684  0.8106 -0.4346  0.6331
  137OSM    H9S14822   5.848   5.285   3.649  0.4782  0.4686  0.2808
  137OSM    H9T14823   5.945   5.441   3.661  0.6584 -0.5975 -0.1826
  137OSM   C10S14824   5.950   5.298   3.837  0.1651 -0.5264  0.2007
  137OSM   H10S14825   5.965   5.188   3.840 -2.6405 -1.0323 -1.3751
  137OSM   H10T14826   5.862   5.316   3.903  1.0589  1.0174  1.0285
  137OSM   C11S14827   6.072   5.361   3.901  0.5046 -0.3599  0.6193
  137OSM   H11S14828   6.069   5.471   3.883 -2.1289 -0.5141 -0.4209
  137OSM   H11T14829   6.164   5.323   3.851  0.4650  0.7309 -0.3332
  137OSM   C12S14830   6.076   5.357   4.051 -0.3602 -0.2643  0.1718
  137OSM   H12S14831   6.097   5.254   4.086  1.8401  0.1501  0.1563
  137OSM   H12T14832   5.978   5.392   4.092 -1.0181  1.3027 -2.4914
  137OSM   C13S14833   6.186   5.452   4.101  0.5693 -0.0148 -0.3911
  137OSM   H13S14834   6.165   5.551   4.054 -2.2741  0.6193  1.9468
  137OSM   H13T14835   6.289   5.425   4.067  0.4894  0.9092 -1.4256
  137OSM   C14S14836   6.188   5.460   4.258  0.0902  0.1563 -0.2900
  137OSM   H14S14837   6.293   5.483   4.285  0.3629 -1.2155 -0.0761
  137OSM   H14T14838   6.151   5.365   4.304  0.0229  0.3899  0.1416
  137OSM   C15S14839   6.100   5.575   4.308  0.3035 -0.2928  0.0413
  137OSM   H15S14840   6.094   5.567   4.418 -1.2307  2.4789  0.2566
  137OSM   H15T14841   5.995   5.576   4.273  0.5720  1.1885 -0.8185
  137OSM   C16S14842   6.160   5.708   4.278 -0.3903 -0.5635 -0.1228
  137OSM   H16S14843   6.152   5.725   4.168 -0.8471 -1.0304 -0.1630
  137OSM   H16T14844   6.269   5.710   4.301  0.5849  2.0379 -3.9194
  137OSM   C17S14845   6.089   5.833   4.338  0.0901  0.2474  0.6087
  137OSM   H17S14846   6.037   5.818   4.435 -1.8405 -0.0136 -0.4253
  137OSM   H17T14847   6.015   5.860   4.260  0.0954 -2.3623 -0.3964
  137OSM   C18S14848   6.179   5.959   4.351 -0.4275 -0.2137  0.6085
  137OSM   H18S14849   6.146   6.038   4.421 -1.6900  0.2727 -0.4795
  137OSM   H18T14850   6.204   6.012   4.257  2.4379  1.4818  2.1852
  137OSM   H18U14851   6.273   5.938   4.406  0.5882  2.8140  0.1775
  137OSM    C1F14852   5.621   5.146   3.032 -0.5940  0.4178  0.5496
  137OSM     OF14853   5.629   5.036   2.979 -0.2652  0.4021  0.5062
  137OSM    C2F14854   5.486   5.191   3.080  0.2752 -0.1001 -0.1512
  137OSM    H2F14855   5.407   5.155   3.011  0.4134 -1.3970  0.3357
  137OSM    H2G14856   5.475   5.301   3.089 -1.0478 -0.3746  3.2322
  137OSM    C3F14857   5.436   5.139   3.220 -0.2557  1.1104  0.1382
  137OSM    H3F14858   5.453   5.029   3.222 -0.8736  1.0197  1.2445
  137OSM    H3G14859   5.329   5.167   3.224  0.0625  2.4986 -0.3824
  137OSM    C4F14860   5.525   5.186   3.341  0.5223 -0.3758 -0.0982
  137OSM    H4F14861   5.515   5.296   3.346  3.6586  0.0069 -0.5607
  137OSM    H4G14862   5.634   5.170   3.324  0.4050  1.8670 -3.9114
  137OSM    C5F14863   5.467   5.138   3.473  0.2319  0.6619  0.1208
  137OSM    H5F14864   5.490   5.030   3.490 -1.3049  0.4607  1.0875
  137OSM    H5G14865   5.357   5.149   3.473  0.0956  0.2703  3.3766
  137OSM    C6F14866   5.518   5.220   3.589  0.0775  0.2230  0.6890
  137OSM    H6F14867   5.519   5.328   3.563 -0.0717  0.6553  2.3358
  137OSM    H6G14868   5.625   5.195   3.604  0.5396  1.1890 -0.8317
  137OSM    C7F14869   5.444   5.203   3.717 -0.3285  0.1394 -0.5423
  137OSM    H7F14870   5.460   5.096   3.741  2.3316  1.2720  3.7228
  137OSM    H7G14871   5.336   5.227   3.701 -0.0571  2.7358  0.8742
  137OSM    C8F14872   5.505   5.291   3.835  0.5521  0.6555  0.0805
  137OSM    H8F14873   5.491   5.384   3.776 -1.5995  1.5320  1.8065
  137OSM    H8G14874   5.612   5.269   3.852 -0.1545 -2.0764  1.8052
  137OSM    C9F14875   5.416   5.290   3.959 -0.1370 -0.8752  0.0052
  137OSM    H9F14876   5.308   5.291   3.940 -0.2781 -1.1705  0.7546
  137OSM   C10F14877   5.464   5.265   4.087 -0.0240 -0.1160  0.3685
  137OSM   H10F14878   5.390   5.262   4.168 -2.4893 -2.2128 -1.7763
  137OSM   C11F14879   5.609   5.250   4.128 -0.0887 -0.2077 -0.3661
  137OSM   H11F14880   5.676   5.217   4.046 -0.2531  1.1105 -1.0519
  137OSM   H11G14881   5.604   5.157   4.189  2.8504 -1.3509 -1.6833
  137OSM   C12F14882   5.678   5.368   4.207  0.3535  0.3767  1.0915
  137OSM   H12F14883   5.683   5.460   4.145  0.3273  0.0977  0.6688
  137OSM   H12G14884   5.781   5.332   4.229  0.6051 -0.0225 -0.6123
  137OSM   C13F14885   5.612   5.394   4.342  0.4477  0.1419  0.2365
  137OSM   H13F14886   5.604   5.296   4.393 -0.4650  0.6192  1.0476
  137OSM   H13G14887   5.506   5.421   4.321  0.4372 -0.4729 -0.5233
  137OSM   C14F14888   5.684   5.484   4.434 -0.4077 -0.1428  0.2138
  137OSM   H14F14889   5.789   5.446   4.433  0.0059  0.8458  2.0290
  137OSM   H14G14890   5.646   5.462   4.536  0.1535 -1.1434  0.2217
  137OSM   C15F14891   5.681   5.635   4.391 -0.3625  0.0090 -1.1539
  137OSM   H15F14892   5.574   5.661   4.385  0.0774  1.7738 -1.7764
  137OSM   H15G14893   5.721   5.647   4.288  0.9271  0.2962 -0.6373
  137OSM   C16F14894   5.753   5.721   4.489 -0.1260  0.0605  1.2408
  137OSM   H16F14895   5.859   5.694   4.507 -0.1742  1.3399  3.8637
  137OSM   H16G14896   5.706   5.704   4.588  1.3148 -1.4433  1.7063
  137OSM   C17F14897   5.754   5.874   4.448 -0.4631 -0.2197  0.9183
  137OSM   H17F14898   5.648   5.902   4.429 -0.1929  0.0601 -0.2613
  137OSM   H17G14899   5.804   5.893   4.351  0.8798  0.2775  1.6797
  137OSM   C18F14900   5.805   5.963   4.558 -0.1416  0.3607  0.3554
  137OSM   H18F14901   5.809   6.068   4.524 -0.1814 -0.3388 -1.9696
  137OSM   H18G14902   5.910   5.937   4.584 -0.1212 -0.5231 -0.5671
  137OSM   H18H14903   5.748   5.960   4.653  0.0216 -1.2705  0.4390
  138OSM      N14904   2.773   1.195   1.947  0.2938 -0.5949  0.6334
  138OSM    C1514905   2.916   1.239   1.913 -0.2634 -0.3168 -0.0512
  138OSM   H15A14906   2.982   1.176   1.972 -0.3652 -0.2489  0.1380
  138OSM   H15B14907   2.944   1.334   1.956  1.0992 -0.7506  0.0683
  138OSM   H15C14908   2.932   1.221   1.808 -1.5898  2.0212 -0.7252
  138OSM    C1414909   2.687   1.277   1.851  0.0538 -0.2323 -0.3747
  138OSM   H14A14910   2.587   1.237   1.846  0.2443 -1.1224  1.7243
  138OSM   H14B14911   2.730   1.275   1.752 -0.9974 -0.0248 -0.8494
  138OSM   H14C14912   2.678   1.374   1.899  1.8705 -0.0226 -0.3905
  138OSM    C1314913   2.762   1.047   1.925 -0.4884 -0.1423 -0.1019
  138OSM   H13A14914   2.803   1.022   1.828 -0.1310  1.0692 -0.2812
  138OSM   H13B14915   2.663   1.006   1.934  0.3373 -2.2206 -0.0106
  138OSM   H13C14916   2.818   0.994   2.000 -1.6151 -1.2909 -0.0307
  138OSM    C1214917   2.741   1.241   2.086  0.4032  0.3225 -0.2588
  138OSM   H12A14918   2.637   1.215   2.103 -0.0130  1.9229 -0.1205
  138OSM   H12B14919   2.737   1.349   2.091 -1.7798  0.2797  0.0104
  138OSM    C1114920   2.828   1.187   2.207  0.2690  0.1129  0.0495
  138OSM   H11A14921   2.814   1.077   2.204  0.3907  0.1272 -2.1049
  138OSM   H11B14922   2.770   1.218   2.297 -2.9894 -4.4506 -0.1491
  138OSM      P14923   2.996   1.374   2.256 -0.3299 -0.0376 -0.2784
  138OSM    O1314924   3.138   1.400   2.216  0.1308 -0.7719 -0.0162
  138OSM    O1414925   2.891   1.460   2.199 -0.6227  0.0821  0.1776
  138OSM    O1114926   2.969   1.368   2.416 -0.0968  0.0958 -0.3696
  138OSM    O1214927   2.967   1.232   2.205  0.7037 -0.0494  0.7413
  138OSM    C1S14928   3.019   1.256   2.484 -0.5315  0.3734 -0.4342
  138OSM    H1S14929   3.130   1.253   2.488 -0.5474 -1.5229 -0.7864
  138OSM    H1T14930   2.968   1.163   2.453 -1.8845  1.1065 -0.4997
  138OSM     NF14931   3.068   1.184   2.712  0.1815  0.6704 -0.3794
  138OSM    HNF14932   3.029   1.097   2.739 -3.1643  2.2164  0.3426
  138OSM    C2S14933   2.985   1.274   2.633  0.3534 -0.0686  0.9174
  138OSM    H2S14934   2.999   1.380   2.663 -0.2041  0.0398  0.8175
  138OSM    C3S14935   2.824   1.251   2.645  0.1218  0.2176  0.8202
  138OSM    H3S14936   2.809   1.144   2.623  0.9617 -0.0063  1.2981
  138OSM     O314937   2.738   1.325   2.558  0.9941 -0.3771  0.8548
  138OSM    HO314938   2.799   1.379   2.508 -3.1210 -0.3622 -5.1627
  138OSM    C4S14939   2.780   1.285   2.786 -0.1087 -0.7183  1.2663
  138OSM    H4S14940   2.763   1.196   2.848 -1.1227 -0.5912  1.1842
  138OSM    C5S14941   2.762   1.414   2.833  0.0443  0.2629 -0.2153
  138OSM    H5S14942   2.772   1.500   2.765 -1.6835  1.9557  1.5287
  138OSM    C6S14943   2.730   1.467   2.978  0.2127 -0.2416 -0.1750
  138OSM    H6S14944   2.622   1.486   2.997  0.6761  1.8403  0.5943
  138OSM    H6T14945   2.763   1.573   2.983 -1.5900  0.4608 -2.0554
  138OSM    C7S14946   2.800   1.388   3.091  0.3740  0.3607  0.5909
  138OSM    H7S14947   2.909   1.384   3.069  0.1411 -1.2074 -0.3773
  138OSM    H7T14948   2.769   1.281   3.088 -1.8472  0.9527  0.9140
  138OSM    C8S14949   2.779   1.452   3.230 -0.0661 -0.3145  0.1181
  138OSM    H8S14950   2.671   1.441   3.251 -0.5177 -0.3027 -1.9804
  138OSM    H8T14951   2.808   1.559   3.223 -1.1036 -0.0275  0.0680
  138OSM    C9S14952   2.876   1.383   3.330 -0.1701 -0.1326 -0.7757
  138OSM    H9S14953   2.982   1.399   3.299 -0.1964  1.3009 -0.2372
  138OSM    H9T14954   2.840   1.278   3.328 -0.3143 -0.1033 -0.0571
  138OSM   C10S14955   2.873   1.417   3.481  0.1740  0.2718 -1.3096
  138OSM   H10S14956   2.765   1.406   3.506  0.0452 -1.0853 -2.3487
  138OSM   H10T14957   2.909   1.519   3.504 -0.0607 -0.0216  0.5856
  138OSM   C11S14958   2.948   1.313   3.571  0.5639  0.2630 -0.1972
  138OSM   H11S14959   3.048   1.302   3.525  0.1843  2.2665 -1.6326
  138OSM   H11T14960   2.891   1.217   3.568 -0.7744  1.0592 -2.1692
  138OSM   C12S14961   2.950   1.350   3.720 -0.1559  0.6071  0.0127
  138OSM   H12S14962   2.841   1.354   3.744 -0.5479 -1.0902 -1.2989
  138OSM   H12T14963   2.999   1.450   3.713  0.8156  0.2881  1.7026
  138OSM   C13S14964   3.012   1.247   3.807 -0.1412  0.9927  0.4379
  138OSM   H13S14965   3.118   1.224   3.780  0.4236  0.5447  2.8279
  138OSM   H13T14966   2.959   1.150   3.802 -0.2971  1.1287 -1.0512
  138OSM   C14S14967   3.012   1.296   3.950 -0.0504  0.1354  0.4972
  138OSM   H14S14968   3.006   1.212   4.022 -0.2667 -2.5098 -2.3913
  138OSM   H14T14969   2.913   1.344   3.968  0.4344  0.9788  0.9755
  138OSM   C15S14970   3.123   1.390   3.981  0.1502  0.8198  0.0586
  138OSM   H15S14971   3.106   1.493   3.943  1.4555  0.8031 -0.6460
  138OSM   H15T14972   3.223   1.362   3.942  0.7402  0.5479  1.6904
  138OSM   C16S14973   3.131   1.417   4.129 -0.5867 -0.3294 -0.0693
  138OSM   H16S14974   3.158   1.320   4.176  0.7980 -1.1546 -2.3568
  138OSM   H16T14975   3.044   1.457   4.184  0.2902 -1.5629  2.3373
  138OSM   C17S14976   3.241   1.530   4.160 -0.4144  0.3459 -0.0461
  138OSM   H17S14977   3.178   1.620   4.181 -1.0944 -0.3718  1.1143
  138OSM   H17T14978   3.308   1.545   4.072  0.8108 -1.0443  0.6198
  138OSM   C18S14979   3.306   1.499   4.299  0.3676  0.0410  0.4208
  138OSM   H18S14980   3.338   1.392   4.293  1.1520  0.3028 -0.2542
  138OSM   H18T14981   3.221   1.514   4.368  1.6677 -1.6919  2.5674
  138OSM   H18U14982   3.390   1.571   4.315  1.2113 -0.5887 -0.9320
  138OSM    C1F14983   3.189   1.218   2.752  0.0640 -0.7315 -1.0247
  138OSM     OF14984   3.240   1.330   2.734  0.2633 -0.1480  0.4462
  138OSM    C2F14985   3.260   1.103   2.832 -0.4609  0.4080 -0.0335
  138OSM    H2F14986   3.333   1.061   2.759  0.2740  0.0699  0.8793
  138OSM    H2G14987   3.191   1.024   2.869 -0.6324  0.4816 -0.1972
  138OSM    C3F14988   3.352   1.150   2.942 -0.5973 -0.0817  0.7103
  138OSM    H3F14989   3.294   1.193   3.027 -2.0001 -0.2096 -0.1531
  138OSM    H3G14990   3.428   1.221   2.903 -0.8825  0.4495  1.1027
  138OSM    C4F14991   3.417   1.026   3.009 -0.2075 -0.3136 -0.1079
  138OSM    H4F14992   3.482   0.985   2.928  1.4522  1.1182  0.4393
  138OSM    H4G14993   3.355   0.940   3.041  2.0397 -2.4200 -1.0838
  138OSM    C5F14994   3.504   1.070   3.126 -0.2934 -0.2099  0.3946
  138OSM    H5F14995   3.439   1.085   3.215 -0.9788 -0.6043 -0.0292
  138OSM    H5G14996   3.530   1.177   3.109 -1.3444  0.5319  2.9827
  138OSM    C6F14997   3.616   0.973   3.154 -0.3696 -0.4251  0.3509
  138OSM    H6F14998   3.659   0.927   3.062 -1.2175 -2.0996  0.7369
  138OSM    H6G14999   3.574   0.881   3.201  0.8041 -1.7932 -1.1366
  138OSM    C7F15000   3.730   1.025   3.245  0.6031 -0.6758  0.4507
  138OSM    H7F15001   3.775   1.120   3.208 -3.2797  0.2617 -2.5210
  138OSM    H7G15002   3.802   0.941   3.256  0.8190 -0.7333 -1.0943
  138OSM    C8F15003   3.673   1.058   3.384  1.0442 -0.0398 -0.4379
  138OSM    H8F15004   3.616   0.973   3.429 -0.6632  0.8462 -0.8158
  138OSM    H8G15005   3.592   1.133   3.370 -0.6558 -1.5935  0.4578
  138OSM    C9F15006   3.779   1.125   3.470  0.3492  0.7483  0.4990
  138OSM    H9F15007   3.807   1.227   3.439  0.0288  0.6584 -0.1278
  138OSM   C10F15008   3.841   1.067   3.575 -0.6438 -0.1267  0.4560
  138OSM   H10F15009   3.935   1.110   3.614 -0.7124  0.9539 -0.5151
  138OSM   C11F15010   3.805   0.934   3.645 -0.3810 -0.1878 -0.4047
  138OSM   H11F15011   3.893   0.867   3.633  1.0181  1.1572  1.6334
  138OSM   H11G15012   3.720   0.880   3.599  0.6873 -0.3802 -2.2543
  138OSM   C12F15013   3.790   0.955   3.795 -0.4205 -0.2831 -0.5796
  138OSM   H12F15014   3.744   0.860   3.832  0.5762  0.1637  2.0657
  138OSM   H12G15015   3.720   1.040   3.809  1.2148  0.7871  1.8229
  138OSM   C13F15016   3.914   0.980   3.875  0.8649  0.2269 -0.4079
  138OSM   H13F15017   3.947   1.084   3.855 -1.3142  1.1552  0.4820
  138OSM   H13G15018   3.985   0.899   3.850  0.5948 -0.2844  0.4373
  138OSM   C14F15019   3.890   0.970   4.029  0.0690 -0.5283 -0.3557
  138OSM   H14F15020   3.825   0.886   4.061  1.3750 -1.7596 -0.8445
  138OSM   H14G15021   3.841   1.064   4.064  1.4930 -0.0233  0.3633
  138OSM   C15F15022   4.026   0.956   4.108  0.5748  0.0432 -0.1497
  138OSM   H15F15023   4.091   1.035   4.064  1.4231 -0.2060  0.6300
  138OSM   H15G15024   4.080   0.860   4.089 -1.2156 -1.2226  0.8617
  138OSM   C16F15025   4.036   0.980   4.263 -0.3672  0.5376  0.2558
  138OSM   H16F15026   4.141   0.999   4.294 -0.4904  1.7947 -0.0419
  138OSM   H16G15027   3.998   0.888   4.313 -0.7533 -0.6657 -2.1155
  138OSM   C17F15028   3.943   1.091   4.317 -0.8273 -0.6419 -0.5305
  138OSM   H17F15029   3.841   1.047   4.311 -0.8863 -0.5144 -0.4695
  138OSM   H17G15030   3.945   1.185   4.259 -3.3004 -0.7129 -0.8190
  138OSM   C18F15031   3.958   1.128   4.469 -0.9213  0.4217 -0.1029
  138OSM   H18F15032   3.885   1.210   4.483  0.4460  1.6733 -0.0172
  138OSM   H18G15033   4.051   1.184   4.493 -2.0148  2.1117  0.3475
  138OSM   H18H15034   3.933   1.050   4.544 -3.2975  1.6545  0.4468
  139OSM      N15035   6.471   5.864   2.002  0.2502  0.0698 -1.0614
  139OSM    C1515036   6.465   5.981   1.900  0.0394  0.6627  0.7078
  139OSM   H15A15037   6.508   6.064   1.953  0.4962 -0.2202  1.7742
  139OSM   H15B15038   6.362   5.998   1.872  0.1851  0.6071  0.1157
  139OSM   H15C15039   6.515   5.951   1.809 -0.3769 -0.2428  0.7670
  139OSM    C1415040   6.411   5.747   1.939 -0.4830  0.6798 -0.1392
  139OSM   H14A15041   6.461   5.724   1.846  0.2104  1.9280 -0.1007
  139OSM   H14B15042   6.309   5.765   1.910  0.0413  1.6131 -1.4994
  139OSM   H14C15043   6.417   5.661   2.004  1.8251  0.6423 -0.2930
  139OSM    C1315044   6.618   5.836   2.030 -0.1149 -0.2374  0.4182
  139OSM   H13A15045   6.664   5.919   2.082  1.7837 -0.7443 -0.3736
  139OSM   H13B15046   6.685   5.828   1.946  1.9879  2.4249  1.6524
  139OSM   H13C15047   6.624   5.742   2.083  0.8888 -1.1384 -1.2266
  139OSM    C1215048   6.396   5.904   2.134 -0.0516  0.0655  0.8499
  139OSM   H12A15049   6.294   5.926   2.106  0.4307  0.7846 -0.4057
  139OSM   H12B15050   6.428   6.005   2.155 -2.2258  0.9092  0.4680
  139OSM    C1115051   6.407   5.815   2.255 -0.7953 -0.3750  0.7580
  139OSM   H11A15052   6.369   5.861   2.349  1.8522  0.3585  1.5406
  139OSM   H11B15053   6.516   5.802   2.270 -0.1411  0.7888 -2.1050
  139OSM      P15054   6.187   5.667   2.250  0.4823  0.4698 -0.2979
  139OSM    O1315055   6.111   5.782   2.196  0.4311 -1.2789 -0.2487
  139OSM    O1415056   6.147   5.539   2.194  0.5231 -0.1110  0.2851
  139OSM    O1115057   6.185   5.676   2.409  0.5266  0.2183 -0.6246
  139OSM    O1215058   6.342   5.687   2.228 -0.4377 -0.6327 -0.3804
  139OSM    C1S15059   6.255   5.579   2.488  0.9131 -0.0378  0.4397
  139OSM    H1S15060   6.360   5.607   2.467  0.7138  1.7269  1.5556
  139OSM    H1T15061   6.233   5.476   2.454 -1.4556  0.2757  0.8305
  139OSM     NF15062   6.298   5.489   2.714  0.0767  0.1382  0.2040
  139OSM    HNF15063   6.248   5.404   2.725  1.6142 -0.8869 -0.3270
  139OSM    C2S15064   6.228   5.600   2.643 -0.4821  0.2045  0.1516
  139OSM    H2S15065   6.282   5.693   2.669  3.4355 -1.2526 -1.9481
  139OSM    C3S15066   6.078   5.610   2.672  1.1545  0.4317 -0.7361
  139OSM    H3S15067   6.033   5.515   2.640 -0.1581  0.8577 -0.2125
  139OSM     O315068   6.011   5.706   2.596  0.1292  0.2073 -0.1069
  139OSM    HO315069   6.085   5.729   2.539  1.9177  0.2948  2.0977
  139OSM    C4S15070   6.061   5.618   2.821  0.2971 -0.0690 -0.4911
  139OSM    H4S15071   6.075   5.523   2.874  3.2380  1.1713  1.1978
  139OSM    C5S15072   6.024   5.727   2.894  0.2294 -0.1425  0.8419
  139OSM    H5S15073   6.001   5.823   2.846 -2.4389  0.1455  2.4675
  139OSM    C6S15074   5.999   5.710   3.038  0.4573  0.3899 -0.0146
  139OSM    H6S15075   6.014   5.604   3.065  1.5781  0.4365 -0.3778
  139OSM    H6T15076   5.898   5.741   3.071  0.7419 -0.7726  2.1322
  139OSM    C7S15077   6.092   5.800   3.120 -0.1946 -0.2961 -0.3962
  139OSM    H7S15078   6.085   5.905   3.084  0.5455 -1.1054 -3.1315
  139OSM    H7T15079   6.193   5.754   3.113  0.2740  0.6234  0.0176
  139OSM    C8S15080   6.056   5.804   3.267  0.2824  0.1838 -0.5487
  139OSM    H8S15081   5.947   5.825   3.270  0.4402  0.9304  0.7923
  139OSM    H8T15082   6.113   5.883   3.320  0.5776 -0.8526  0.7199
  139OSM    C9S15083   6.085   5.669   3.335 -0.1445 -0.4136 -0.2080
  139OSM    H9S15084   6.177   5.625   3.290  1.0992  1.3723  0.4991
  139OSM    H9T15085   6.006   5.596   3.306  0.4789 -1.7717  1.3719
  139OSM   C10S15086   6.099   5.680   3.489 -0.4292  0.5612 -0.1491
  139OSM   H10S15087   6.062   5.589   3.541  0.3313  1.3984  1.9636
  139OSM   H10T15088   6.038   5.761   3.535  0.6067  1.6363 -0.6098
  139OSM   C11S15089   6.243   5.719   3.536  0.4098  0.5352  0.6382
  139OSM   H11S15090   6.263   5.819   3.491 -2.7383  0.7265 -0.5654
  139OSM   H11T15091   6.307   5.642   3.488  1.4719  0.9485  1.3639
  139OSM   C12S15092   6.266   5.705   3.686 -0.2215  0.0123 -0.3489
  139OSM   H12S15093   6.224   5.605   3.708  0.7887 -0.8036 -2.0157
  139OSM   H12T15094   6.201   5.779   3.739  1.7763  1.2342  0.5134
  139OSM   C13S15095   6.406   5.705   3.741 -1.2151 -0.2482  0.6892
  139OSM   H13S15096   6.442   5.807   3.715 -0.0150 -0.8375 -0.0650
  139OSM   H13T15097   6.464   5.629   3.685 -2.6770 -0.9577  0.1095
  139OSM   C14S15098   6.409   5.672   3.891 -0.9652  0.8296  0.1946
  139OSM   H14S15099   6.383   5.564   3.902  0.0218  0.5893  0.2505
  139OSM   H14T15100   6.334   5.722   3.955  0.6110 -0.7898  3.5620
  139OSM   C15S15101   6.551   5.696   3.951  0.4140  0.2687  0.1775
  139OSM   H15S15102   6.580   5.801   3.929  1.1517  0.0801  0.2289
  139OSM   H15T15103   6.619   5.627   3.898  1.1909  2.0464 -1.2479
  139OSM   C16S15104   6.543   5.664   4.108  0.0480  0.2361  0.6895
  139OSM   H16S15105   6.454   5.598   4.118 -0.9014  1.3023 -0.3728
  139OSM   H16T15106   6.523   5.762   4.156  1.4943  0.5859  0.6063
  139OSM   C17S15107   6.672   5.606   4.172 -0.1933 -0.4716  0.2165
  139OSM   H17S15108   6.750   5.686   4.182 -3.0980  2.3956  1.8627
  139OSM   H17T15109   6.720   5.530   4.108 -0.1009  1.0868 -1.6605
  139OSM   C18S15110   6.652   5.541   4.309  0.3021  0.5754  0.8082
  139OSM   H18S15111   6.546   5.507   4.313  0.8601 -1.4095 -0.2746
  139OSM   H18T15112   6.666   5.618   4.387 -0.3403  3.3658 -1.6405
  139OSM   H18U15113   6.704   5.443   4.308  1.1718  1.0371  0.4101
  139OSM    C1F15114   6.430   5.486   2.729  0.1357  0.0934 -0.2173
  139OSM     OF15115   6.506   5.566   2.675  0.0804  0.7588  0.3005
  139OSM    C2F15116   6.483   5.370   2.809 -0.1532  0.0786 -0.3549
  139OSM    H2F15117   6.575   5.330   2.760  0.1592  0.7334 -0.3164
  139OSM    H2G15118   6.409   5.288   2.818 -0.0172  0.1330  1.9272
  139OSM    C3F15119   6.524   5.431   2.943  0.7851 -0.4178 -0.0790
  139OSM    H3F15120   6.467   5.518   2.981  4.4077  2.4550 -0.6854
  139OSM    H3G15121   6.620   5.485   2.929  2.4054 -2.6706  1.5806
  139OSM    C4F15122   6.538   5.322   3.053 -0.2508  0.3438  0.0036
  139OSM    H4F15123   6.642   5.284   3.042 -0.3426 -0.1223  0.6832
  139OSM    H4G15124   6.461   5.246   3.027  0.7837 -0.7521  0.0661
  139OSM    C5F15125   6.512   5.375   3.191 -0.0860  0.6029  0.3419
  139OSM    H5F15126   6.406   5.410   3.194 -1.5998 -3.4755  0.0207
  139OSM    H5G15127   6.574   5.467   3.199 -1.1801  1.6343 -1.9998
  139OSM    C6F15128   6.533   5.276   3.306  0.2869  0.4626  0.4057
  139OSM    H6F15129   6.632   5.232   3.281  0.7991  1.2926  0.9079
  139OSM    H6G15130   6.450   5.203   3.299  0.0949  0.4651  2.2172
  139OSM    C7F15131   6.531   5.341   3.446  0.3138  0.2606  0.9847
  139OSM    H7F15132   6.425   5.376   3.453  0.3826  0.5395  0.6405
  139OSM    H7G15133   6.599   5.429   3.450  1.0542 -0.3221  1.2713
  139OSM    C8F15134   6.553   5.238   3.561  0.2478 -0.4565  0.7169
  139OSM    H8F15135   6.642   5.175   3.536  1.9463  1.7545  0.8508
  139OSM    H8G15136   6.465   5.172   3.553  1.7819 -2.4777 -0.7202
  139OSM    C9F15137   6.553   5.318   3.691  0.3701  0.0528 -0.1272
  139OSM    H9F15138   6.489   5.407   3.704 -1.4358 -1.5107  2.8589
  139OSM   C10F15139   6.624   5.293   3.807  0.5875 -0.3337  1.1998
  139OSM   H10F15140   6.608   5.356   3.895  1.0682  0.8890  0.4402
  139OSM   C11F15141   6.738   5.192   3.814  0.5833 -0.3338 -0.0905
  139OSM   H11F15142   6.842   5.227   3.833  0.4807 -0.5266  0.8477
  139OSM   H11G15143   6.748   5.129   3.723  1.2442 -2.5768  1.4540
  139OSM   C12F15144   6.714   5.084   3.928  0.1874 -0.1372 -0.1485
  139OSM   H12F15145   6.797   5.012   3.912  1.9715  2.1964 -2.2571
  139OSM   H12G15146   6.615   5.038   3.906 -0.0644 -0.0258  0.7109
  139OSM   C13F15147   6.701   5.131   4.076 -0.3024  0.2450  0.5070
  139OSM   H13F15148   6.600   5.175   4.088 -1.7224 -1.7962 -2.6847
  139OSM   H13G15149   6.777   5.205   4.110 -0.1496 -0.5543  1.9792
  139OSM   C14F15150   6.716   5.015   4.178 -0.4956 -0.3418  0.2696
  139OSM   H14F15151   6.818   4.971   4.164  0.5869  2.4375 -1.4744
  139OSM   H14G15152   6.636   4.943   4.150  0.1571 -0.3633 -1.7349
  139OSM   C15F15153   6.695   5.059   4.322 -0.1023  0.2729  0.0554
  139OSM   H15F15154   6.770   5.140   4.334 -0.0616  0.1801  0.4456
  139OSM   H15G15155   6.719   4.977   4.394  1.4375  1.0095  0.4238
  139OSM   C16F15156   6.558   5.132   4.339  0.1963  0.1603  0.3877
  139OSM   H16F15157   6.498   5.060   4.279  1.3033 -0.8322  0.4378
  139OSM   H16G15158   6.544   5.226   4.281 -2.1567 -0.6938 -0.5496
  139OSM   C17F15159   6.507   5.161   4.487  0.6170 -0.1936 -0.0118
  139OSM   H17F15160   6.586   5.225   4.532  0.5631 -0.9990  1.2747
  139OSM   H17G15161   6.512   5.064   4.541 -0.3794 -1.1570 -1.5705
  139OSM   C18F15162   6.367   5.229   4.476 -1.0476  0.0997 -0.3528
  139OSM   H18F15163   6.288   5.151   4.463 -2.2666  1.2303  0.0288
  139OSM   H18G15164   6.363   5.303   4.394 -0.6222  0.8123  0.2608
  139OSM   H18H15165   6.347   5.265   4.579  0.1959  1.1899 -0.4786
  140OSM      N15166   3.425   3.230   1.980 -0.2735  0.1594  0.0059
  140OSM    C1515167   3.569   3.229   1.929 -0.1232 -0.1369 -0.5840
  140OSM   H15A15168   3.571   3.263   1.827 -2.2178  2.4787  0.1364
  140OSM   H15B15169   3.605   3.127   1.926 -1.5931 -0.6590 -1.6349
  140OSM   H15C15170   3.637   3.279   1.996  0.2862 -1.6209  0.1576
  140OSM    C1415171   3.423   3.237   2.132  0.4459  0.2903  0.3395
  140OSM   H14A15172   3.502   3.305   2.161  1.6303 -0.0898 -1.8252
  140OSM   H14B15173   3.443   3.140   2.175  1.2605  0.7101  0.9550
  140OSM   H14C15174   3.325   3.267   2.166  0.3976  0.6463 -0.1040
  140OSM    C1315175   3.368   3.357   1.934  0.2749  0.6370 -0.0833
  140OSM   H13A15176   3.394   3.371   1.830  2.7206 -0.3904  0.3355
  140OSM   H13B15177   3.420   3.445   1.968  0.9236  0.3267 -0.2571
  140OSM   H13C15178   3.261   3.357   1.948  0.3512  1.3102  0.5258
  140OSM    C1215179   3.345   3.110   1.933 -0.6233 -0.3897  0.3151
  140OSM   H12A15180   3.352   3.100   1.825 -2.7606  0.6293  0.0212
  140OSM   H12B15181   3.242   3.140   1.945  0.1820  1.9517  2.0608
  140OSM    C1115182   3.376   2.971   1.993  0.2257  0.3458 -0.0466
  140OSM   H11A15183   3.310   2.900   1.940  2.6396 -1.0646 -1.3374
  140OSM   H11B15184   3.359   2.964   2.102  0.3256  1.8349  0.0954
  140OSM      P15185   3.567   2.797   1.962  0.2978  0.4861 -0.0654
  140OSM    O1315186   3.457   2.695   1.944 -0.0938  0.4327 -0.3079
  140OSM    O1415187   3.679   2.793   1.861 -0.2283  0.1069  0.4676
  140OSM    O1115188   3.633   2.781   2.103 -0.6702 -0.6035 -0.4666
  140OSM    O1215189   3.511   2.940   1.956  0.7613 -0.4753  0.3337
  140OSM    C1S15190   3.666   2.881   2.197 -0.2904  0.2574 -0.9093
  140OSM    H1S15191   3.610   2.977   2.184  0.1909  1.1072  2.3084
  140OSM    H1T15192   3.776   2.896   2.197 -0.2157 -0.2167  0.4218
  140OSM     NF15193   3.615   2.945   2.424 -0.1115  0.7020 -0.3189
  140OSM    HNF15194   3.665   2.953   2.510 -2.1730  0.7078  0.9645
  140OSM    C2S15195   3.617   2.827   2.341  0.4838 -0.3843  0.3426
  140OSM    H2S15196   3.513   2.797   2.319  0.5944  1.7726 -4.5398
  140OSM    C3S15197   3.717   2.720   2.386 -0.1900 -0.2684 -0.8591
  140OSM    H3S15198   3.821   2.757   2.382  0.2507 -1.4438 -0.7268
  140OSM     O315199   3.717   2.608   2.299  0.2623 -0.6300  0.1941
  140OSM    HO315200   3.657   2.639   2.230  0.1388 -1.3718 -0.0395
  140OSM    C4S15201   3.694   2.674   2.531 -0.0948 -0.7539 -0.1921
  140OSM    H4S15202   3.593   2.645   2.566 -0.4439  1.2618  0.6282
  140OSM    C5S15203   3.791   2.691   2.625 -0.1403 -0.3524  0.0179
  140OSM    H5S15204   3.893   2.729   2.608 -0.5869  0.5446 -0.8324
  140OSM    C6S15205   3.777   2.660   2.773 -0.3325  0.2347 -0.1651
  140OSM    H6S15206   3.836   2.568   2.788 -1.3472 -0.4178 -0.0449
  140OSM    H6T15207   3.671   2.645   2.803 -0.5333 -2.2211 -1.8527
  140OSM    C7S15208   3.846   2.751   2.872 -0.2190 -0.1730  0.9650
  140OSM    H7S15209   3.801   2.853   2.873  0.4440  0.1269  1.6360
  140OSM    H7T15210   3.953   2.749   2.842 -0.3853 -0.7454  0.3975
  140OSM    C8S15211   3.822   2.691   3.006 -0.4579 -0.3841 -0.1070
  140OSM    H8S15212   3.867   2.590   3.006 -0.4537 -0.3897  1.1275
  140OSM    H8T15213   3.712   2.688   3.023 -0.6281  2.2704 -0.2031
  140OSM    C9S15214   3.900   2.768   3.115  0.3200  0.1253  0.0097
  140OSM    H9S15215   3.864   2.873   3.124  0.0646  0.0023  0.4438
  140OSM    H9T15216   4.005   2.795   3.089  0.1017  0.4948 -0.5097
  140OSM   C10S15217   3.902   2.712   3.260 -0.5942 -0.3356  0.0835
  140OSM   H10S15218   3.972   2.626   3.268 -0.1671  0.0217  0.2166
  140OSM   H10T15219   3.803   2.678   3.297 -0.3407 -0.5998  0.5338
  140OSM   C11S15220   3.958   2.819   3.354  0.7269 -0.0187 -0.5238
  140OSM   H11S15221   3.899   2.913   3.341  2.2660  0.9934 -0.4896
  140OSM   H11T15222   4.059   2.844   3.315  0.8210 -2.7451 -2.2641
  140OSM   C12S15223   3.974   2.766   3.499  0.3517  0.4215 -0.2763
  140OSM   H12S15224   4.017   2.664   3.485  2.3409  0.8951  1.8131
  140OSM   H12T15225   3.870   2.748   3.533 -1.1036  1.3479 -3.7305
  140OSM   C13S15226   4.057   2.849   3.596  0.5690  0.3989 -0.2559
  140OSM   H13S15227   4.162   2.827   3.566  0.1834 -2.5792  0.2855
  140OSM   H13T15228   4.056   2.823   3.704 -0.3403  1.7282  0.0773
  140OSM   C14S15229   4.034   3.006   3.575 -0.1341 -0.0938 -0.0436
  140OSM   H14S15230   4.059   3.032   3.470  0.4142  0.6874  0.2731
  140OSM   H14T15231   4.110   3.053   3.641  0.3796 -1.6925  0.5739
  140OSM   C15S15232   3.899   3.064   3.621 -0.2122 -0.6498 -0.6225
  140OSM   H15S15233   3.819   3.027   3.553 -1.1916 -2.5108  1.4018
  140OSM   H15T15234   3.909   3.174   3.633 -0.2061 -0.7561  0.4281
  140OSM   C16S15235   3.864   3.008   3.760 -0.8930  0.0893 -0.5172
  140OSM   H16S15236   3.829   2.904   3.746  0.4250 -0.0741 -3.0799
  140OSM   H16T15237   3.776   3.071   3.787 -0.0507  1.7239 -1.4100
  140OSM   C17S15238   3.965   3.033   3.876  0.2900  0.0550  0.2528
  140OSM   H17S15239   4.013   3.133   3.883  2.8022 -0.9917 -0.9594
  140OSM   H17T15240   4.056   2.970   3.861  0.8473  0.6706  0.9763
  140OSM   C18S15241   3.909   2.983   4.009 -0.3115 -0.0301  0.4257
  140OSM   H18S15242   3.992   2.964   4.080  0.8215  0.7566 -0.6444
  140OSM   H18T15243   3.851   2.893   3.981  0.4640 -0.2503 -0.5288
  140OSM   H18U15244   3.837   3.056   4.052  1.9816  2.1432  0.8288
  140OSM    C1F15245   3.527   3.038   2.410  0.3641 -0.2635  0.5043
  140OSM     OF15246   3.425   3.021   2.340 -0.5240  0.4452  0.4358
  140OSM    C2F15247   3.551   3.163   2.490 -0.1933 -0.0935  0.2024
  140OSM    H2F15248   3.473   3.235   2.457 -1.3933 -1.3532  0.1631
  140OSM    H2G15249   3.653   3.196   2.462 -0.7769  0.3173 -1.5806
  140OSM    C3F15250   3.521   3.137   2.636  0.7367 -0.1089 -0.1972
  140OSM    H3F15251   3.589   3.058   2.674  1.5003 -0.2786 -1.8351
  140OSM    H3G15252   3.415   3.105   2.644 -0.0655  1.9744 -1.6486
  140OSM    C4F15253   3.525   3.267   2.709 -0.4140  0.3946  0.7683
  140OSM    H4F15254   3.447   3.333   2.666  0.4258 -0.5174 -2.4633
  140OSM    H4G15255   3.627   3.310   2.699  0.7260 -2.0551  1.1744
  140OSM    C5F15256   3.496   3.251   2.867  0.5291  1.2064  0.3837
  140OSM    H5F15257   3.568   3.172   2.896  1.6245  0.5813 -3.4524
  140OSM    H5G15258   3.391   3.214   2.869  0.3768  1.5217 -0.8962
  140OSM    C6F15259   3.501   3.376   2.951  0.6521  0.0562 -0.2493
  140OSM    H6F15260   3.451   3.454   2.891  1.0836 -0.9831 -2.0328
  140OSM    H6G15261   3.606   3.406   2.971  1.1782 -0.7572 -1.6348
  140OSM    C7F15262   3.451   3.350   3.094  0.1417  0.1787 -0.4749
  140OSM    H7F15263   3.516   3.275   3.144  0.7922  2.2387  2.0116
  140OSM    H7G15264   3.344   3.321   3.091 -0.2042  0.9970  1.8718
  140OSM    C8F15265   3.457   3.471   3.187 -0.1614 -0.1087  0.0120
  140OSM    H8F15266   3.424   3.564   3.137 -0.5552 -0.2242  0.0557
  140OSM    H8G15267   3.563   3.483   3.221  0.2304 -0.5704 -1.0187
  140OSM    C9F15268   3.372   3.456   3.313 -0.3906 -0.2125 -0.0007
  140OSM    H9F15269   3.267   3.488   3.303 -0.2586 -0.3048 -2.0488
  140OSM   C10F15270   3.417   3.417   3.433 -0.0120 -0.0627  0.1432
  140OSM   H10F15271   3.343   3.393   3.510 -1.4566  1.8129 -0.5680
  140OSM   C11F15272   3.558   3.397   3.476 -0.8351 -0.0926  0.2237
  140OSM   H11F15273   3.642   3.421   3.407 -1.0691  0.8617  0.2485
  140OSM   H11G15274   3.566   3.288   3.495 -1.8803 -0.1164  0.5869
  140OSM   C12F15275   3.583   3.461   3.603  0.4702 -0.1494 -0.2067
  140OSM   H12F15276   3.500   3.432   3.671 -1.7957  1.7934 -1.9826
  140OSM   H12G15277   3.579   3.570   3.582  0.1392  0.2201  1.6425
  140OSM   C13F15278   3.722   3.424   3.657  0.6026  1.1251  0.1084
  140OSM   H13F15279   3.804   3.453   3.588  1.6557 -1.8001 -0.0491
  140OSM   H13G15280   3.746   3.316   3.673  1.1960  1.4941  1.9090
  140OSM   C14F15281   3.754   3.490   3.789 -0.2274  0.4857  0.0611
  140OSM   H14F15282   3.739   3.600   3.786 -0.0678  0.4875 -0.7523
  140OSM   H14G15283   3.859   3.460   3.811 -0.4322  0.5431  1.2215
  140OSM   C15F15284   3.673   3.423   3.901  0.0547 -0.3456 -0.2513
  140OSM   H15F15285   3.676   3.318   3.866  0.0865 -0.4398  0.0344
  140OSM   H15G15286   3.571   3.465   3.895  0.8007  1.4185 -1.8922
  140OSM   C16F15287   3.737   3.458   4.036 -0.2200  0.2162 -0.1711
  140OSM   H16F15288   3.845   3.435   4.028  0.1388  1.6684  0.3094
  140OSM   H16G15289   3.688   3.392   4.111  0.2440  2.6256  2.3872
  140OSM   C17F15290   3.723   3.608   4.068  0.5341 -0.3926 -0.1903
  140OSM   H17F15291   3.619   3.644   4.057  0.4705 -0.4720  0.1574
  140OSM   H17G15292   3.790   3.667   4.002  1.4384 -1.0337  0.1396
  140OSM   C18F15293   3.750   3.639   4.217  0.0623  0.9183  0.7565
  140OSM   H18F15294   3.855   3.649   4.251  0.6280  1.1254 -0.9518
  140OSM   H18G15295   3.699   3.560   4.277 -1.2911  1.2641  0.1192
  140OSM   H18H15296   3.690   3.730   4.238  0.2350  1.3538 -0.5357
  141OSM      N15297   0.056   6.569   1.782  0.2278 -0.2829  0.7935
  141OSM    C1515298  -0.052   6.505   1.701 -0.5714 -0.1150 -0.2165
  141OSM   H15A15299  -0.149   6.531   1.742 -1.4489 -0.6965 -1.8551
  141OSM   H15B15300  -0.035   6.399   1.697  0.9669  0.1467 -2.9743
  141OSM   H15C15301  -0.060   6.546   1.602 -1.0272 -0.2333 -0.2323
  141OSM    C1415302   0.193   6.518   1.745 -0.7040 -0.2359  0.1063
  141OSM   H14A15303   0.223   6.551   1.646  0.0939  0.3885  0.5457
  141OSM   H14B15304   0.196   6.410   1.739 -1.5601 -0.2112 -1.1455
  141OSM   H14C15305   0.269   6.562   1.808 -1.1406  1.1340 -0.2843
  141OSM    C1315306   0.045   6.713   1.766 -0.2069 -0.3940  0.8271
  141OSM   H13A15307   0.123   6.753   1.829 -0.3555 -0.6072  1.1495
  141OSM   H13B15308  -0.050   6.759   1.789 -0.1269  0.0414  0.2947
  141OSM   H13C15309   0.061   6.741   1.663 -0.1424 -1.7184  0.4622
  141OSM    C1215310   0.035   6.542   1.927  0.1692  0.0704 -0.4273
  141OSM   H12A15311   0.045   6.437   1.952 -0.6315 -0.1318 -0.9265
  141OSM   H12B15312  -0.060   6.584   1.956  1.1723  1.7346  0.6477
  141OSM    C1115313   0.136   6.609   2.032 -0.4928  0.7877 -0.1729
  141OSM   H11A15314   0.239   6.574   2.008 -0.8422 -0.5693  0.2091
  141OSM   H11B15315   0.115   6.569   2.134  0.2000  3.5824  1.1370
  141OSM      P15316   0.003   6.833   2.072 -0.0077  0.1423  0.0556
  141OSM    O1315317   0.039   6.972   2.086 -0.1300 -0.2303 -0.5373
  141OSM    O1415318  -0.116   6.791   1.988 -0.1798 -0.1384 -0.3478
  141OSM    O1115319  -0.024   6.776   2.217  0.8915  0.6728 -0.4516
  141OSM    O1215320   0.137   6.753   2.031 -0.2438  0.0747  0.6710
  141OSM    C1S15321   0.052   6.833   2.328 -0.0340 -0.0808 -1.4274
  141OSM    H1S15322   0.034   6.942   2.326  1.3961  0.1716 -1.8159
  141OSM    H1T15323   0.159   6.812   2.308  0.2813 -0.4108  0.4233
  141OSM     NF15324   0.084   6.852   2.580  0.0706  0.2587  0.4652
  141OSM    HNF15325   0.151   6.796   2.628  1.9052 -0.2426 -2.3885
  141OSM    C2S15326   0.010   6.783   2.472  0.6961  1.3010 -0.6574
  141OSM    H2S15327  -0.099   6.799   2.487  0.5367 -0.2388  0.0156
  141OSM    C3S15328   0.044   6.635   2.475 -0.3287  0.0936 -0.2702
  141OSM    H3S15329   0.154   6.639   2.461 -0.5057  0.4114 -1.6490
  141OSM     O315330   0.003   6.555   2.362 -0.5095  0.0860 -0.4916
  141OSM    HO315331  -0.013   6.617   2.291 -1.1263 -0.7510 -1.1119
  141OSM    C4S15332   0.004   6.569   2.610 -0.3590 -0.4958 -0.4846
  141OSM    H4S15333   0.084   6.574   2.686  0.7499 -0.5660 -1.6134
  141OSM    C5S15334  -0.104   6.503   2.639  0.6164 -0.3022 -0.3042
  141OSM    H5S15335  -0.181   6.474   2.565  0.9877 -2.4854  0.0762
  141OSM    C6S15336  -0.116   6.424   2.767 -0.5777 -0.5963  0.1831
  141OSM    H6S15337  -0.184   6.336   2.756  0.4211 -1.1571 -2.0302
  141OSM    H6T15338  -0.163   6.489   2.844 -1.8740 -0.8320 -0.3816
  141OSM    C7S15339   0.026   6.376   2.829  0.0434  0.1142 -0.4941
  141OSM    H7S15340   0.108   6.450   2.845  0.3920 -0.4103  0.1793
  141OSM    H7T15341   0.079   6.326   2.745  1.4388  0.5601  0.0952
  141OSM    C8S15342   0.014   6.272   2.937  0.0303 -0.6178 -0.1604
  141OSM    H8S15343   0.100   6.205   2.956 -0.4163 -0.6907  1.7877
  141OSM    H8T15344  -0.063   6.195   2.916  1.0544 -1.0100 -3.0250
  141OSM    C9S15345  -0.018   6.342   3.075 -0.2988 -0.0402 -0.4509
  141OSM    H9S15346  -0.108   6.401   3.050  0.6181  1.5049 -0.2471
  141OSM    H9T15347   0.065   6.414   3.090 -0.9049  1.0842 -2.2241
  141OSM   C10S15348  -0.039   6.241   3.179  0.6609  0.5729 -0.3153
  141OSM   H10S15349   0.049   6.174   3.191  1.7993  2.2922  1.6439
  141OSM   H10T15350  -0.129   6.180   3.157  1.1784  0.4179 -2.2390
  141OSM   C11S15351  -0.053   6.304   3.320  0.0779 -0.3576  0.0321
  141OSM   H11S15352  -0.145   6.367   3.317  1.2748  1.4379 -2.0291
  141OSM   H11T15353   0.037   6.368   3.336 -0.5443  0.4478  0.4038
  141OSM   C12S15354  -0.074   6.210   3.446 -0.2175 -0.2518 -0.2083
  141OSM   H12S15355   0.013   6.141   3.440  0.7826  0.6154  2.8294
  141OSM   H12T15356  -0.156   6.135   3.431 -0.6754  0.2032 -0.0279
  141OSM   C13S15357  -0.093   6.281   3.576 -0.3071  0.2713  0.5572
  141OSM   H13S15358  -0.164   6.362   3.550 -0.8754 -0.0952  0.9465
  141OSM   H13T15359   0.002   6.321   3.616 -0.0982  0.2941  0.0460
  141OSM   C14S15360  -0.161   6.185   3.675  0.8471  0.5447  0.7565
  141OSM   H14S15361  -0.088   6.110   3.713  2.5232  2.0860  0.7073
  141OSM   H14T15362  -0.253   6.138   3.635  0.9682 -0.0089  1.1278
  141OSM   C15S15363  -0.220   6.251   3.803 -0.5314  0.3110  0.3168
  141OSM   H15S15364  -0.314   6.305   3.782 -1.0607 -0.9659 -0.6635
  141OSM   H15T15365  -0.149   6.320   3.854 -1.2767  0.5475  1.0593
  141OSM   C16S15366  -0.246   6.138   3.910 -0.2016 -0.3565  0.4355
  141OSM   H16S15367  -0.147   6.095   3.936 -0.5159 -1.5374 -0.2204
  141OSM   H16T15368  -0.299   6.051   3.865 -0.0856 -0.9230  1.3596
  141OSM   C17S15369  -0.324   6.190   4.035 -0.3313  0.6205 -0.4872
  141OSM   H17S15370  -0.411   6.253   4.006  0.4164  2.2809  0.6980
  141OSM   H17T15371  -0.248   6.264   4.070  1.2100 -0.5323 -1.2494
  141OSM   C18S15372  -0.351   6.088   4.145 -0.4115  0.1823  0.2561
  141OSM   H18S15373  -0.370   6.140   4.241  1.1572 -0.6449  1.0428
  141OSM   H18T15374  -0.266   6.017   4.144  0.0174  0.6012 -2.6248
  141OSM   H18U15375  -0.439   6.027   4.117 -1.6039  1.6792  0.5701
  141OSM    C1F15376   0.065   6.979   2.615 -0.1929 -0.5539  0.1131
  141OSM     OF15377  -0.014   7.048   2.556  0.1326 -0.3180  0.0287
  141OSM    C2F15378   0.142   7.039   2.729 -0.5912  0.4854  0.6330
  141OSM    H2F15379   0.218   7.105   2.684 -1.3645  0.7622 -0.2927
  141OSM    H2G15380   0.194   6.960   2.789 -0.0356  2.0713  2.3336
  141OSM    C3F15381   0.057   7.134   2.806 -0.1199  1.8229  0.4364
  141OSM    H3F15382  -0.039   7.094   2.844  0.7838 -1.4872 -0.4668
  141OSM    H3G15383   0.030   7.215   2.735 -2.0048  1.5593  0.7925
  141OSM    C4F15384   0.121   7.201   2.925 -0.6793 -0.3572 -0.1617
  141OSM    H4F15385   0.078   7.303   2.934  0.9248  0.6741 -2.9847
  141OSM    H4G15386   0.231   7.205   2.917 -0.5680 -0.3728  1.1213
  141OSM    C5F15387   0.086   7.128   3.054  1.0841 -0.0725  0.2794
  141OSM    H5F15388   0.133   7.028   3.057  1.6171  0.1609 -0.3318
  141OSM    H5G15389  -0.025   7.117   3.059  0.8748  0.7590 -1.6657
  141OSM    C6F15390   0.134   7.206   3.182 -0.3788 -0.5731  0.2511
  141OSM    H6F15391   0.065   7.293   3.191 -0.5332 -0.7484  0.7472
  141OSM    H6G15392   0.241   7.238   3.181 -0.4978 -0.1602 -1.0705
  141OSM    C7F15393   0.103   7.141   3.320 -0.6063 -0.0484  0.2235
  141OSM    H7F15394   0.153   7.043   3.333 -1.1239 -0.4577 -0.7598
  141OSM    H7G15395  -0.005   7.115   3.320 -1.0756  1.7583  0.5448
  141OSM    C8F15396   0.114   7.238   3.436 -0.4760 -0.2127  0.4529
  141OSM    H8F15397   0.057   7.195   3.521 -2.6669 -1.5581 -1.6015
  141OSM    H8G15398   0.068   7.338   3.421  1.5199  0.7459  0.3016
  141OSM    C9F15399   0.266   7.259   3.466 -0.1062 -0.0855 -1.0290
  141OSM    H9F15400   0.325   7.315   3.392  0.2872 -0.1939 -0.7949
  141OSM   C10F15401   0.330   7.202   3.569 -0.7375 -0.6992  0.8939
  141OSM   H10F15402   0.432   7.232   3.599  0.1230 -2.6405  0.0440
  141OSM   C11F15403   0.267   7.102   3.669  0.4934  0.0621  0.6617
  141OSM   H11F15404   0.322   7.006   3.685  1.0557  0.1219 -0.7363
  141OSM   H11G15405   0.176   7.065   3.617  0.3014 -0.3533  1.2747
  141OSM   C12F15406   0.215   7.170   3.800 -0.1710 -0.3485  0.1239
  141OSM   H12F15407   0.158   7.092   3.855  2.3866 -0.3725  3.0452
  141OSM   H12G15408   0.147   7.255   3.781  1.9480  1.2433 -0.8061
  141OSM   C13F15409   0.324   7.212   3.900 -0.0959  0.2326  0.4974
  141OSM   H13F15410   0.385   7.298   3.864  2.3426 -2.6354 -2.8574
  141OSM   H13G15411   0.405   7.136   3.894 -0.1253  0.3264 -1.6580
  141OSM   C14F15412   0.285   7.219   4.054  0.0384  0.0168 -0.3419
  141OSM   H14F15413   0.232   7.128   4.087  1.6243 -1.0141 -0.5268
  141OSM   H14G15414   0.222   7.308   4.077 -0.8217 -1.1819  2.3449
  141OSM   C15F15415   0.411   7.208   4.142 -0.0294 -0.3800 -0.4672
  141OSM   H15F15416   0.486   7.286   4.116 -0.8907  0.4098 -0.6421
  141OSM   H15G15417   0.454   7.108   4.121  1.9267  0.7337 -2.0843
  141OSM   C16F15418   0.396   7.223   4.299 -0.3060  0.3762 -0.3066
  141OSM   H16F15419   0.376   7.329   4.326  2.1599  0.5077  1.3851
  141OSM   H16G15420   0.493   7.197   4.347 -0.9983 -1.3881  0.2459
  141OSM   C17F15421   0.287   7.134   4.360 -0.2479 -0.1581 -0.0137
  141OSM   H17F15422   0.298   7.026   4.337 -1.6078  0.1785 -2.5302
  141OSM   H17G15423   0.189   7.173   4.325  0.8962  2.6494 -0.3800
  141OSM   C18F15424   0.290   7.148   4.511 -0.0933  0.2149 -0.5076
  141OSM   H18F15425   0.263   7.247   4.553 -0.4816  0.3170 -0.9821
  141OSM   H18G15426   0.394   7.125   4.540 -0.4804 -3.1790 -1.4499
  141OSM   H18H15427   0.225   7.074   4.563 -0.4282  1.3946  0.8155
  142OSM      N15428   0.653   1.586   2.214  0.1718 -0.2971  0.1303
  142OSM    C1515429   0.628   1.644   2.076 -0.4245  0.5859 -0.3218
  142OSM   H15A15430   0.524   1.624   2.055 -0.2515  1.3845 -2.1732
  142OSM   H15B15431   0.697   1.596   2.007  1.0781  0.6455  1.0798
  142OSM   H15C15432   0.641   1.751   2.077  1.6022  0.3892  0.1039
  142OSM    C1415433   0.795   1.611   2.236 -0.3493  0.0900 -0.4574
  142OSM   H14A15434   0.813   1.716   2.248  2.7334 -0.2567 -1.0720
  142OSM   H14B15435   0.857   1.572   2.156  1.7308 -0.9677  1.5525
  142OSM   H14C15436   0.833   1.562   2.325 -0.3691  1.7289  0.4900
  142OSM    C1315437   0.572   1.666   2.310  0.5266 -0.0994 -0.5432
  142OSM   H13A15438   0.467   1.676   2.286  0.2364 -1.5807 -0.0291
  142OSM   H13B15439   0.602   1.769   2.321 -1.9735  0.5530  1.0270
  142OSM   H13C15440   0.563   1.631   2.412 -2.2928 -0.2397 -0.7659
  142OSM    C1215441   0.614   1.439   2.223 -0.0387  0.6929  0.2936
  142OSM   H12A15442   0.619   1.411   2.327  0.0741  2.9565  0.9566
  142OSM   H12B15443   0.679   1.373   2.166 -0.4060  1.8185 -1.4985
  142OSM    C1115444   0.469   1.413   2.188  0.1741 -0.2711  0.3801
  142OSM   H11A15445   0.466   1.393   2.079  0.0598  2.1660 -0.1182
  142OSM   H11B15446   0.397   1.492   2.218 -0.1327  0.2384 -1.5605
  142OSM      P15447   0.297   1.221   2.226  0.0212  0.2752 -0.1294
  142OSM    O1315448   0.190   1.277   2.312 -0.1073 -0.0735 -0.3719
  142OSM    O1415449   0.274   1.207   2.083  0.1323  0.0050  0.0127
  142OSM    O1115450   0.331   1.079   2.282 -0.3885 -0.2632 -0.4720
  142OSM    O1215451   0.441   1.295   2.257 -0.2296  0.2496 -0.2948
  142OSM    C1S15452   0.423   1.069   2.391 -0.7697  0.2006 -0.6298
  142OSM    H1S15453   0.495   1.153   2.404 -1.0194  0.4262 -0.7219
  142OSM    H1T15454   0.486   0.977   2.382 -2.2444 -0.8504 -0.5544
  142OSM     NF15455   0.445   1.010   2.636  0.1641 -0.0175  0.2779
  142OSM    HNF15456   0.447   0.914   2.660 -1.4900 -0.2146 -0.3058
  142OSM    C2S15457   0.348   1.050   2.532 -0.8687 -0.3727  0.3450
  142OSM    H2S15458   0.290   1.139   2.566 -0.9500 -1.6058  3.7835
  142OSM    C3S15459   0.225   0.944   2.521 -0.0902  0.3136 -0.8744
  142OSM    H3S15460   0.268   0.852   2.476 -1.2586 -0.2967 -0.8052
  142OSM     O315461   0.118   0.992   2.443 -0.5315  0.1311  0.3743
  142OSM    HO315462   0.171   1.068   2.417 -0.5135 -0.4067 -1.2847
  142OSM    C4S15463   0.167   0.924   2.656 -0.1470 -0.2235 -0.7658
  142OSM    H4S15464   0.158   1.021   2.706  0.2103  0.5856 -2.2094
  142OSM    C5S15465   0.128   0.809   2.715 -0.2428 -0.0062  1.1618
  142OSM    H5S15466   0.142   0.712   2.666  1.3185  0.7003  0.1398
  142OSM    C6S15467   0.087   0.802   2.860 -0.3165 -0.0563  0.2886
  142OSM    H6S15468   0.065   0.697   2.889 -2.1139  0.6691  1.8159
  142OSM    H6T15469  -0.007   0.861   2.867  0.7660  1.6116  1.9712
  142OSM    C7S15470   0.184   0.851   2.968 -0.8930  0.2567  0.4879
  142OSM    H7S15471   0.198   0.962   2.970  2.3679 -0.0390 -0.2214
  142OSM    H7T15472   0.287   0.813   2.955 -1.7207 -1.5845 -1.3252
  142OSM    C8S15473   0.125   0.804   3.096  0.1162  0.1282 -0.0330
  142OSM    H8S15474   0.126   0.694   3.112 -1.7894  0.4452  3.0897
  142OSM    H8T15475   0.016   0.828   3.098  0.0245 -0.2652 -0.2481
  142OSM    C9S15476   0.189   0.861   3.228  0.9216 -0.0838  0.5986
  142OSM    H9S15477   0.182   0.972   3.224  0.0208 -0.0726  1.7949
  142OSM    H9T15478   0.295   0.830   3.217  1.2689  1.8473 -3.3684
  142OSM   C10S15479   0.117   0.801   3.354 -0.2908  0.0848  0.3211
  142OSM   H10S15480   0.094   0.698   3.319 -0.0066  0.9528 -2.7538
  142OSM   H10T15481   0.021   0.848   3.384 -0.3407 -0.6785  1.4124
  142OSM   C11S15482   0.217   0.794   3.470  0.4190  0.2455  0.1684
  142OSM   H11S15483   0.263   0.894   3.484 -0.1397  0.6412 -0.7822
  142OSM   H11T15484   0.308   0.731   3.458 -0.1398 -0.4283 -0.6182
  142OSM   C12S15485   0.145   0.750   3.599  0.4006 -0.5458  0.9549
  142OSM   H12S15486   0.137   0.639   3.594  1.5084 -0.5860 -0.4625
  142OSM   H12T15487   0.043   0.793   3.589 -0.1483 -1.9096  0.4283
  142OSM   C13S15488   0.218   0.797   3.729  0.0990  0.2625 -0.1829
  142OSM   H13S15489   0.232   0.906   3.717 -1.6857  0.3326 -2.1563
  142OSM   H13T15490   0.321   0.755   3.717  0.9533  2.0443  0.6171
  142OSM   C14S15491   0.165   0.760   3.868 -0.0642 -0.1174 -0.4057
  142OSM   H14S15492   0.148   0.651   3.881  0.5348 -0.2684 -0.8131
  142OSM   H14T15493   0.061   0.796   3.884 -0.0076 -0.3053  0.4234
  142OSM   C15S15494   0.269   0.810   3.978 -0.1824  0.1367  0.1697
  142OSM   H15S15495   0.290   0.917   3.960 -1.2483  0.4265  0.5733
  142OSM   H15T15496   0.365   0.760   3.952  1.4944  2.7196  0.9712
  142OSM   C16S15497   0.227   0.783   4.119 -1.0015  0.7516 -0.9103
  142OSM   H16S15498   0.211   0.677   4.146  0.5175  1.0494  1.4040
  142OSM   H16T15499   0.133   0.841   4.135 -0.1985  2.7790 -2.9247
  142OSM   C17S15500   0.326   0.827   4.228 -0.6131  0.3642  0.6823
  142OSM   H17S15501   0.281   0.807   4.328  1.6769 -3.4630  1.1701
  142OSM   H17T15502   0.349   0.933   4.207 -2.1571  0.2781 -1.8781
  142OSM   C18S15503   0.455   0.749   4.220 -0.7086 -0.1593 -0.3461
  142OSM   H18S15504   0.500   0.778   4.123  0.3959 -0.8886 -0.0713
  142OSM   H18T15505   0.437   0.640   4.229 -2.0686  0.1224  0.7064
  142OSM   H18U15506   0.536   0.784   4.289  2.3283 -1.3083 -3.0885
  142OSM    C1F15507   0.549   1.087   2.667  0.5015 -0.3073  0.7334
  142OSM     OF15508   0.541   1.213   2.649 -0.4503 -0.0176  0.3442
  142OSM    C2F15509   0.657   1.022   2.748 -0.3214 -0.5053  0.0825
  142OSM    H2F15510   0.728   0.975   2.678  0.8486 -1.4094  1.7894
  142OSM    H2G15511   0.607   0.943   2.808 -1.8446 -0.0508 -0.5415
  142OSM    C3F15512   0.730   1.125   2.840  0.2691 -0.2221  0.3994
  142OSM    H3F15513   0.656   1.193   2.886 -0.8326 -1.5907  0.7387
  142OSM    H3G15514   0.793   1.182   2.768 -0.8577  0.1443 -0.3162
  142OSM    C4F15515   0.817   1.063   2.952 -0.0120  0.4395  0.3407
  142OSM    H4F15516   0.744   1.059   3.036 -1.5148 -0.9578 -0.9521
  142OSM    H4G15517   0.894   1.136   2.984  0.1391  1.1585 -1.5621
  142OSM    C5F15518   0.874   0.923   2.931  0.0253 -0.0960  1.0790
  142OSM    H5F15519   0.938   0.914   2.840 -1.4218  3.5291 -0.4965
  142OSM    H5G15520   0.788   0.853   2.919  1.0143 -1.1362 -0.4183
  142OSM    C6F15521   0.959   0.904   3.050 -0.4450 -0.5765 -0.7302
  142OSM    H6F15522   1.023   0.991   3.076  0.5672 -1.8524  1.2370
  142OSM    H6G15523   1.020   0.816   3.021 -0.6140  0.0517 -3.2439
  142OSM    C7F15524   0.868   0.872   3.167  0.0317  0.6086 -0.8951
  142OSM    H7F15525   0.784   0.810   3.130  1.5244 -0.8775 -1.9284
  142OSM    H7G15526   0.827   0.971   3.197 -1.1324 -0.3355  0.8124
  142OSM    C8F15527   0.948   0.816   3.289  0.0435  0.1632 -0.0121
  142OSM    H8F15528   1.018   0.737   3.255  0.3182  0.4035 -0.0080
  142OSM    H8G15529   0.869   0.762   3.346 -1.7581  0.8737 -1.6802
  142OSM    C9F15530   1.020   0.922   3.370  0.0200 -0.5564  0.3024
  142OSM    H9F15531   1.086   0.989   3.314  0.3552 -0.7255  0.4932
  142OSM   C10F15532   0.998   0.956   3.493 -0.0836 -0.0696  0.5409
  142OSM   H10F15533   1.078   1.020   3.535  0.0153 -0.1643  0.4969
  142OSM   C11F15534   0.911   0.894   3.598  0.5152 -0.1972  0.6849
  142OSM   H11F15535   0.857   0.801   3.573 -0.9216  0.5930  0.7334
  142OSM   H11G15536   0.824   0.959   3.619  0.6877  0.3731 -0.2757
  142OSM   C12F15537   0.988   0.874   3.730  0.1790 -0.4962 -0.0067
  142OSM   H12F15538   1.093   0.840   3.719  0.7761  0.8571  1.1089
  142OSM   H12G15539   0.928   0.790   3.769 -1.3893 -0.3988 -2.0470
  142OSM   C13F15540   0.986   0.988   3.831  0.0818 -0.4405  0.6954
  142OSM   H13F15541   0.880   1.019   3.847  0.0129  0.0258 -0.5669
  142OSM   H13G15542   1.042   1.077   3.795  0.0482 -0.6808  0.0407
  142OSM   C14F15543   1.046   0.948   3.969  0.4792 -0.4295  0.1720
  142OSM   H14F15544   1.152   0.916   3.962  1.0721  1.1706  1.3560
  142OSM   H14G15545   0.978   0.865   3.998  1.4036 -1.5097 -0.6592
  142OSM   C15F15546   1.051   1.067   4.068  0.1275  0.6657 -0.0804
  142OSM   H15F15547   0.950   1.108   4.087 -0.5987 -0.4404 -1.3837
  142OSM   H15G15548   1.104   1.151   4.018  1.7098 -0.7389 -0.8570
  142OSM   C16F15549   1.116   1.031   4.202 -0.6772 -0.6339 -0.1761
  142OSM   H16F15550   1.224   1.019   4.179 -0.9740 -1.3327 -1.2861
  142OSM   H16G15551   1.084   0.931   4.238  0.5049 -0.3900  1.7208
  142OSM   C17F15552   1.092   1.135   4.309 -0.0406  0.0757 -0.1211
  142OSM   H17F15553   0.982   1.148   4.319  0.1093  0.8305  0.7063
  142OSM   H17G15554   1.141   1.233   4.289 -0.7100  0.6799  1.0624
  142OSM   C18F15555   1.140   1.095   4.451  1.2373 -0.0229  0.5901
  142OSM   H18F15556   1.251   1.091   4.455  1.2739  1.0261  0.9977
  142OSM   H18G15557   1.090   0.997   4.466 -1.3632  1.0817 -0.2336
  142OSM   H18H15558   1.103   1.172   4.522 -0.7941  0.1610 -0.5896
  143OSM      N15559   5.615   1.642   1.827  0.0448  0.6308  0.6121
  143OSM    C1515560   5.697   1.559   1.738  0.3777  0.5839 -0.5460
  143OSM   H15A15561   5.654   1.556   1.639  1.1598  3.7936 -1.0709
  143OSM   H15B15562   5.697   1.457   1.776  1.1369  1.0264  0.7150
  143OSM   H15C15563   5.799   1.593   1.725  0.3693  1.1638  0.7777
  143OSM    C1415564   5.567   1.758   1.737 -0.3212 -0.2962 -0.2130
  143OSM   H14A15565   5.653   1.797   1.683  0.6075  0.4193  1.6988
  143OSM   H14B15566   5.540   1.833   1.811  1.9671 -0.7333  1.1505
  143OSM   H14C15567   5.481   1.728   1.679 -1.2219  0.6446  0.5974
  143OSM    C1315568   5.492   1.560   1.871  0.0874  0.2153 -0.0665
  143OSM   H13A15569   5.431   1.546   1.783  0.6102  3.3455 -1.0806
  143OSM   H13B15570   5.429   1.616   1.939  0.2068  1.3826 -0.8800
  143OSM   H13C15571   5.523   1.471   1.923 -1.7318 -0.9966 -0.9667
  143OSM    C1215572   5.700   1.690   1.943  0.0409 -0.1275 -0.3998
  143OSM   H12A15573   5.652   1.773   1.992 -1.8846 -1.1508 -0.4507
  143OSM   H12B15574   5.799   1.718   1.909  0.0152  0.7833  0.2563
  143OSM    C1115575   5.734   1.580   2.050 -0.6756 -0.0580  0.2250
  143OSM   H11A15576   5.794   1.494   2.015  0.5432 -0.3061  2.7126
  143OSM   H11B15577   5.636   1.550   2.092  0.9601 -1.4582  3.3794
  143OSM      P15578   5.972   1.671   2.148 -0.0003  0.1999 -0.3326
  143OSM    O1315579   6.041   1.563   2.079  0.0310  0.4154 -0.0439
  143OSM    O1415580   5.987   1.802   2.086 -0.5493 -0.7021 -0.2191
  143OSM    O1115581   6.019   1.682   2.296 -0.0331  0.6513 -0.5281
  143OSM    O1215582   5.811   1.634   2.163 -0.3891  0.1642  0.6637
  143OSM    C1S15583   5.963   1.785   2.379  0.1948  0.3692  0.6822
  143OSM    H1S15584   5.878   1.744   2.437  0.6710 -0.0549  1.0889
  143OSM    H1T15585   5.926   1.865   2.311 -1.3345 -0.6197  0.2982
  143OSM     NF15586   5.988   1.890   2.593  0.4800 -0.6615 -0.5598
  143OSM    HNF15587   5.962   1.986   2.595 -3.7049 -1.5989  1.3730
  143OSM    C2S15588   6.062   1.851   2.478  0.4827  0.0278  0.2099
  143OSM    H2S15589   6.116   1.758   2.508 -2.5324 -2.8171 -2.3460
  143OSM    C3S15590   6.155   1.949   2.408 -1.3635  0.0091  0.8617
  143OSM    H3S15591   6.088   2.030   2.370 -0.2026  1.0859  1.0665
  143OSM     O315592   6.230   1.894   2.299 -0.1301  0.3428 -0.5947
  143OSM    HO315593   6.177   1.819   2.271 -0.5283  0.6994 -0.8070
  143OSM    C4S15594   6.253   2.016   2.507 -0.7341  0.2561  0.4212
  143OSM    H4S15595   6.275   1.958   2.597 -0.6905  0.2310  0.3946
  143OSM    C5S15596   6.293   2.148   2.505 -0.9726 -0.5386  0.1657
  143OSM    H5S15597   6.256   2.205   2.419  0.6248 -0.7366 -0.6915
  143OSM    C6S15598   6.384   2.221   2.604 -0.1764  1.2136 -0.1641
  143OSM    H6S15599   6.332   2.313   2.638 -3.2735 -0.4615 -0.0962
  143OSM    H6T15600   6.478   2.258   2.557  1.0744 -1.4969  0.0298
  143OSM    C7S15601   6.423   2.141   2.731 -0.0028  0.2563  0.2785
  143OSM    H7S15602   6.465   2.042   2.705 -0.7701  0.2282 -0.9225
  143OSM    H7T15603   6.340   2.112   2.799  1.2413  0.2763  1.8762
  143OSM    C8S15604   6.517   2.223   2.821  0.3024 -0.7826  0.4327
  143OSM    H8S15605   6.475   2.322   2.852  3.3851  1.2125 -1.2252
  143OSM    H8T15606   6.616   2.245   2.776  0.9866  0.2256  2.3002
  143OSM    C9S15607   6.564   2.157   2.953  0.1682 -0.5187  0.2919
  143OSM    H9S15608   6.604   2.057   2.927 -0.1935 -0.8948  1.1806
  143OSM    H9T15609   6.476   2.153   3.020 -0.2204  1.5196 -0.0311
  143OSM   C10S15610   6.682   2.232   3.012  0.0091 -0.3330  0.0011
  143OSM   H10S15611   6.686   2.342   2.999  2.0633 -0.3730 -0.0585
  143OSM   H10T15612   6.776   2.204   2.960 -0.3533 -1.3344 -0.1400
  143OSM   C11S15613   6.707   2.195   3.162 -0.4332  0.1531  0.2269
  143OSM   H11S15614   6.714   2.084   3.165 -0.1772  0.1026 -1.4469
  143OSM   H11T15615   6.614   2.228   3.213 -0.0483  0.6441  0.6225
  143OSM   C12S15616   6.835   2.258   3.221  0.3633  0.3762  0.1950
  143OSM   H12S15617   6.813   2.367   3.216 -1.3953  0.0717  0.6953
  143OSM   H12T15618   6.922   2.239   3.154  0.4814  2.1560 -0.2192
  143OSM   C13S15619   6.869   2.221   3.369  0.0444  0.0339 -0.6349
  143OSM   H13S15620   6.876   2.112   3.389  0.2761  0.1796  0.1247
  143OSM   H13T15621   6.783   2.265   3.423 -0.8448 -0.7715 -1.3717
  143OSM   C14S15622   6.995   2.292   3.417 -0.6887  0.1118  0.0225
  143OSM   H14S15623   6.995   2.402   3.402 -1.4933  0.4369  1.9941
  143OSM   H14T15624   7.079   2.247   3.361 -1.0625 -0.4169 -0.1194
  143OSM   C15S15625   7.019   2.259   3.563 -0.2189 -0.6367 -0.2649
  143OSM   H15S15626   7.123   2.290   3.586 -0.7068 -0.8646  2.4890
  143OSM   H15T15627   7.020   2.149   3.582 -0.4309 -0.6518 -0.3278
  143OSM   C16S15628   6.928   2.331   3.668  0.2900  0.0042  0.3461
  143OSM   H16S15629   6.825   2.298   3.641  1.0734 -1.0389 -1.5114
  143OSM   H16T15630   6.935   2.442   3.656 -0.4508 -0.1222 -1.4559
  143OSM   C17S15631   6.964   2.294   3.812 -0.2272  0.0864  0.0866
  143OSM   H17S15632   6.889   2.348   3.873  0.1368  0.1763  0.4588
  143OSM   H17T15633   7.056   2.346   3.848 -0.3165 -1.6080  3.0208
  143OSM   C18S15634   6.974   2.153   3.852  0.2498 -0.2061  0.6056
  143OSM   H18S15635   7.047   2.097   3.790 -1.2081 -0.7539 -0.6913
  143OSM   H18T15636   6.879   2.096   3.841  0.5146 -0.4282 -0.7077
  143OSM   H18U15637   7.009   2.160   3.957  2.1616  0.7153 -0.0465
  143OSM    C1F15638   5.939   1.808   2.687 -0.0930 -0.2037  0.6170
  143OSM     OF15639   5.933   1.687   2.668  0.3408 -0.2809  0.3686
  143OSM    C2F15640   5.904   1.874   2.815 -0.7597 -0.0858  0.2119
  143OSM    H2F15641   5.804   1.846   2.854 -0.7070  0.6789  0.9242
  143OSM    H2G15642   5.901   1.985   2.813  2.1736  0.1062  1.2621
  143OSM    C3F15643   6.010   1.833   2.926 -0.4820 -0.1485  0.3616
  143OSM    H3F15644   6.035   1.725   2.922  3.4887  0.6496 -2.5591
  143OSM    H3G15645   5.969   1.847   3.028  0.7065 -2.9212  1.3149
  143OSM    C4F15646   6.140   1.913   2.899  0.5664 -0.5199 -0.3773
  143OSM    H4F15647   6.119   2.022   2.893  2.1572 -0.1374  0.3660
  143OSM    H4G15648   6.176   1.879   2.800 -1.1388 -1.9854 -0.5381
  143OSM    C5F15649   6.248   1.882   3.005 -0.0943 -0.0135  0.2869
  143OSM    H5F15650   6.232   1.962   3.081 -1.4630  1.1564 -1.1508
  143OSM    H5G15651   6.347   1.904   2.960 -0.7633  0.2143 -1.1553
  143OSM    C6F15652   6.257   1.743   3.069  0.0322  0.2019  0.4588
  143OSM    H6F15653   6.276   1.659   3.000 -1.3942 -0.6047  1.0043
  143OSM    H6G15654   6.157   1.722   3.114  0.1108  0.5610  0.8116
  143OSM    C7F15655   6.366   1.746   3.174 -0.9515  0.0308  0.0724
  143OSM    H7F15656   6.456   1.763   3.111 -1.5817 -1.1867 -1.2233
  143OSM    H7G15657   6.372   1.643   3.217 -2.0464  0.6556  1.8286
  143OSM    C8F15658   6.350   1.841   3.292  0.3843 -0.2859  0.5154
  143OSM    H8F15659   6.353   1.946   3.258 -1.3542 -0.3680  0.0323
  143OSM    H8G15660   6.434   1.840   3.366  0.8023  4.2368  0.3391
  143OSM    C9F15661   6.217   1.834   3.360  0.4591 -0.2432 -0.0362
  143OSM    H9F15662   6.132   1.871   3.301 -0.0793  0.4076  1.1110
  143OSM   C10F15663   6.183   1.793   3.482  0.0106  0.1964  0.6702
  143OSM   H10F15664   6.074   1.795   3.496 -0.6561 -0.0730 -3.3344
  143OSM   C11F15665   6.266   1.712   3.573 -0.2412 -1.0118 -0.0015
  143OSM   H11F15666   6.318   1.784   3.639 -2.1902 -0.4873  1.0578
  143OSM   H11G15667   6.350   1.667   3.516  0.6359  0.2058  0.2890
  143OSM   C12F15668   6.178   1.627   3.655  0.3729 -0.7934 -0.2144
  143OSM   H12F15669   6.256   1.566   3.706  1.8891  1.0905 -0.1858
  143OSM   H12G15670   6.111   1.568   3.589 -1.3247  1.4847 -0.6549
  143OSM   C13F15671   6.082   1.699   3.758  0.1347 -0.1022 -0.4361
  143OSM   H13F15672   6.000   1.741   3.695  0.0427  2.7560  1.3906
  143OSM   H13G15673   6.129   1.789   3.803 -0.4261 -0.7106  1.4550
  143OSM   C14F15674   6.042   1.610   3.875 -0.4808 -0.3369 -0.8058
  143OSM   H14F15675   6.006   1.509   3.844 -0.6024 -0.0523 -1.6022
  143OSM   H14G15676   5.960   1.656   3.934 -0.2078 -0.4904 -0.3038
  143OSM   C15F15677   6.172   1.583   3.961  0.5768 -0.1039 -0.0762
  143OSM   H15F15678   6.253   1.659   3.954  1.7551 -1.4102 -1.1909
  143OSM   H15G15679   6.213   1.481   3.942 -3.1383 -1.5206 -1.4243
  143OSM   C16F15680   6.131   1.583   4.112 -0.4422 -0.5106  1.1163
  143OSM   H16F15681   6.095   1.686   4.137 -0.7817 -0.9339  2.4260
  143OSM   H16G15682   6.223   1.561   4.170 -1.7753 -3.1800  2.3523
  143OSM   C17F15683   6.021   1.486   4.156  0.0333  0.0914  0.3099
  143OSM   H17F15684   6.057   1.390   4.115 -0.8237  0.1438 -0.6248
  143OSM   H17G15685   5.927   1.517   4.105  1.4430  0.6871 -2.0986
  143OSM   C18F15686   6.027   1.487   4.310  0.5243 -0.0464  0.6386
  143OSM   H18F15687   6.127   1.450   4.341  0.2574 -1.5269 -0.1527
  143OSM   H18G15688   5.959   1.410   4.352  0.7954 -2.3542 -2.7887
  143OSM   H18H15689   6.005   1.589   4.348  2.3453  0.6983 -0.1834
  144OSM      N15690   3.973   2.568   1.784 -0.0309 -0.2746  0.3456
  144OSM    C1515691   3.841   2.497   1.779  0.2336  0.9320 -0.3002
  144OSM   H15A15692   3.758   2.559   1.810 -0.8302 -0.8977  0.6572
  144OSM   H15B15693   3.837   2.415   1.849  0.3886  0.4762 -0.8157
  144OSM   H15C15694   3.828   2.450   1.683  2.1120 -1.6299  0.5953
  144OSM    C1415695   4.083   2.471   1.760 -0.2058 -0.2732 -0.3304
  144OSM   H14A15696   4.059   2.406   1.678  1.5619 -0.8494 -0.4485
  144OSM   H14B15697   4.108   2.415   1.850 -1.8778 -0.7651 -0.1486
  144OSM   H14C15698   4.176   2.517   1.731  0.4283 -0.9039  0.6139
  144OSM    C1315699   3.969   2.677   1.678 -0.5951 -1.0976 -0.0423
  144OSM   H13A15700   3.986   2.637   1.579 -1.6938  2.2045 -1.7297
  144OSM   H13B15701   4.044   2.752   1.703 -1.0901 -0.0130 -1.6446
  144OSM   H13C15702   3.877   2.733   1.676  1.0661  2.1769  3.1482
  144OSM    C1215703   3.986   2.639   1.919 -0.3887 -0.0952  0.3648
  144OSM   H12A15704   3.911   2.716   1.935  1.0251  1.4659 -0.2023
  144OSM   H12B15705   4.084   2.685   1.916  0.9761 -2.8266 -1.8544
  144OSM    C1115706   3.979   2.546   2.045  0.8149 -0.1435 -0.2557
  144OSM   H11A15707   3.880   2.496   2.046  0.1001  1.1341 -1.6589
  144OSM   H11B15708   3.980   2.619   2.129 -0.5652 -0.9515  0.4995
  144OSM      P15709   4.084   2.318   2.122  0.0257 -0.5618  0.3849
  144OSM    O1315710   3.944   2.265   2.113 -0.1482 -0.1367  0.4640
  144OSM    O1415711   4.199   2.238   2.072  0.1760  0.1622 -0.2799
  144OSM    O1115712   4.104   2.353   2.271  0.3067  0.2616 -0.3030
  144OSM    O1215713   4.091   2.463   2.053 -0.7091  0.0812  0.0960
  144OSM    C1S15714   4.216   2.439   2.309  0.7722 -0.1075 -0.0667
  144OSM    H1S15715   4.218   2.530   2.245  1.6341 -0.5632 -0.6981
  144OSM    H1T15716   4.316   2.393   2.299  0.6338 -0.4313  0.0235
  144OSM     NF15717   4.316   2.578   2.493 -0.0804  0.0709 -0.7243
  144OSM    HNF15718   4.396   2.537   2.536  1.5742  3.6524 -0.0011
  144OSM    C2S15719   4.209   2.486   2.464 -0.5141  0.3696 -0.5710
  144OSM    H2S15720   4.117   2.549   2.473  0.8100  2.3520 -0.2346
  144OSM    C3S15721   4.207   2.359   2.564  0.2069 -0.0518  0.6891
  144OSM    H3S15722   4.296   2.293   2.557 -1.7003 -2.8030  0.6042
  144OSM     O315723   4.097   2.265   2.533 -0.1757 -0.3046 -0.1701
  144OSM    HO315724   4.078   2.287   2.442  0.0174  0.3342 -0.0623
  144OSM    C4S15725   4.199   2.404   2.717 -0.7035  0.0968 -0.0736
  144OSM    H4S15726   4.288   2.453   2.758  1.2704 -0.5581 -3.2458
  144OSM    C5S15727   4.098   2.376   2.800  0.1169 -0.3432  0.3137
  144OSM    H5S15728   4.015   2.312   2.766  0.9740 -0.4699 -1.6903
  144OSM    C6S15729   4.098   2.407   2.949  0.0598  0.3967 -0.5658
  144OSM    H6S15730   4.057   2.323   3.009  1.5935  0.8303  1.1808
  144OSM    H6T15731   4.041   2.499   2.977  1.0724  0.4168  1.6281
  144OSM    C7S15732   4.229   2.438   3.022  0.1714  0.4868 -0.0045
  144OSM    H7S15733   4.248   2.539   2.980 -2.4426  0.3019 -1.8046
  144OSM    H7T15734   4.318   2.380   2.990  0.2893  0.3057  0.6226
  144OSM    C8S15735   4.226   2.443   3.176 -0.1381  0.3202  0.2190
  144OSM    H8S15736   4.223   2.342   3.222  1.0625 -0.6784 -1.7411
  144OSM    H8T15737   4.125   2.483   3.200 -0.7128 -0.1446 -1.2624
  144OSM    C9S15738   4.345   2.510   3.248 -0.2238 -0.3370 -0.4214
  144OSM    H9S15739   4.351   2.608   3.196 -0.1725  0.0881  0.3694
  144OSM    H9T15740   4.437   2.453   3.225  0.7205  0.9812 -0.0294
  144OSM   C10S15741   4.322   2.541   3.397 -0.0363 -0.1081  0.2695
  144OSM   H10S15742   4.216   2.572   3.405  0.4044  2.0270 -1.3944
  144OSM   H10T15743   4.382   2.630   3.425  0.4147  0.2078 -1.5784
  144OSM   C11S15744   4.335   2.416   3.479  0.0996  0.4500 -0.2195
  144OSM   H11S15745   4.435   2.412   3.526 -0.1525  1.2650  0.4204
  144OSM   H11T15746   4.324   2.327   3.415  2.0808 -0.1608  0.2204
  144OSM   C12S15747   4.229   2.423   3.590 -0.4039  0.7511  0.4860
  144OSM   H12S15748   4.256   2.340   3.659  2.3132  0.3475 -0.9295
  144OSM   H12T15749   4.127   2.409   3.549  0.3916 -2.7926 -0.6398
  144OSM   C13S15750   4.237   2.545   3.678  0.2986 -0.6305  0.0854
  144OSM   H13S15751   4.222   2.633   3.611  1.3564 -0.6053 -0.1344
  144OSM   H13T15752   4.340   2.552   3.720 -0.0768  2.4958  0.7166
  144OSM   C14S15753   4.138   2.552   3.799  0.9228  0.1384  0.2023
  144OSM   H14S15754   4.156   2.642   3.861 -1.2994  1.3058 -0.7548
  144OSM   H14T15755   4.173   2.467   3.861 -1.5320 -0.3662  1.0181
  144OSM   C15S15756   3.990   2.537   3.757  0.2536  0.1592  0.0696
  144OSM   H15S15757   3.973   2.428   3.748 -2.5882  0.3627  1.5691
  144OSM   H15T15758   3.977   2.574   3.653  2.8365 -0.3994 -0.5088
  144OSM   C16S15759   3.886   2.599   3.860  0.0356  0.2268  0.9939
  144OSM   H16S15760   3.784   2.567   3.830  1.2414 -1.6681 -1.4943
  144OSM   H16T15761   3.887   2.710   3.860  0.9399  0.3341  4.5197
  144OSM   C17S15762   3.898   2.549   4.011 -0.2232 -0.3463 -0.2535
  144OSM   H17S15763   3.804   2.580   4.062 -1.7952 -1.4775 -2.3083
  144OSM   H17T15764   3.986   2.599   4.059  0.2425  0.2371 -1.6529
  144OSM   C18S15765   3.910   2.402   4.037 -0.6103  0.1404 -0.5800
  144OSM   H18S15766   3.984   2.337   3.985 -0.7588  0.1055 -0.7483
  144OSM   H18T15767   3.815   2.348   4.016 -0.5287 -0.7268  1.1228
  144OSM   H18U15768   3.933   2.394   4.145  0.3099 -0.5980 -0.8190
  144OSM    C1F15769   4.318   2.709   2.465  0.2740  0.3423 -0.6814
  144OSM     OF15770   4.224   2.753   2.403  0.2833 -0.1957 -0.1169
  144OSM    C2F15771   4.422   2.800   2.517 -0.6564 -0.7750 -0.7151
  144OSM    H2F15772   4.468   2.859   2.434 -0.1081 -0.2808 -0.0698
  144OSM    H2G15773   4.504   2.737   2.559  0.0400 -0.1715 -1.1334
  144OSM    C3F15774   4.377   2.894   2.628 -0.3147 -0.3242 -0.1562
  144OSM    H3F15775   4.296   2.964   2.599 -0.3046 -0.0293  0.5216
  144OSM    H3G15776   4.459   2.967   2.649 -0.3548  0.2017 -1.6854
  144OSM    C4F15777   4.339   2.815   2.754  0.8230  0.7344  0.8861
  144OSM    H4F15778   4.412   2.732   2.764  0.8434  0.4728 -0.9629
  144OSM    H4G15779   4.237   2.776   2.734  0.1637  2.2538  1.1609
  144OSM    C5F15780   4.317   2.894   2.880 -0.2519 -0.8707  0.0815
  144OSM    H5F15781   4.236   2.967   2.858  0.1678  0.2408  1.9537
  144OSM    H5G15782   4.406   2.960   2.885 -0.2197 -0.9025 -0.0969
  144OSM    C6F15783   4.279   2.811   2.998  0.1710 -0.0983 -0.7792
  144OSM    H6F15784   4.358   2.737   3.023  0.1938  0.6075  1.4810
  144OSM    H6G15785   4.188   2.749   2.992  0.8909 -1.5104  1.5940
  144OSM    C7F15786   4.280   2.893   3.129 -0.3009  0.3418  0.4295
  144OSM    H7F15787   4.230   2.826   3.202 -0.0082  1.0254  1.2839
  144OSM    H7G15788   4.223   2.983   3.098 -1.3439 -0.5733 -0.4015
  144OSM    C8F15789   4.421   2.928   3.180  0.5795  0.4686  0.4688
  144OSM    H8F15790   4.494   2.945   3.098  2.2397 -0.2281  1.7609
  144OSM    H8G15791   4.451   2.836   3.235  0.4034  0.6381  0.8496
  144OSM    C9F15792   4.421   3.044   3.269 -0.4105 -0.6577 -0.8688
  144OSM    H9F15793   4.386   3.138   3.223 -0.7796 -0.6214 -0.5177
  144OSM   C10F15794   4.459   3.045   3.399  0.0002 -0.4281 -0.0651
  144OSM   H10F15795   4.433   3.136   3.456 -1.6531 -0.3816 -0.8430
  144OSM   C11F15796   4.501   2.924   3.476  0.5524  0.1590 -0.2800
  144OSM   H11F15797   4.608   2.904   3.451 -0.0453 -2.1823 -1.2313
  144OSM   H11G15798   4.441   2.834   3.448  1.8600 -1.4288  1.7506
  144OSM   C12F15799   4.480   2.942   3.628  0.5327  0.2737  0.5139
  144OSM   H12F15800   4.372   2.930   3.654 -0.0537  2.3442 -0.7024
  144OSM   H12G15801   4.502   3.046   3.660 -0.0656 -0.0924  2.2391
  144OSM   C13F15802   4.559   2.828   3.698  0.7918 -0.3718  0.3544
  144OSM   H13F15803   4.653   2.810   3.642  1.0336  0.5812  0.4370
  144OSM   H13G15804   4.506   2.731   3.688  4.8574 -2.6274 -2.4202
  144OSM   C14F15805   4.573   2.859   3.844  0.0414 -0.0419 -0.1735
  144OSM   H14F15806   4.610   2.963   3.861  1.8948 -0.8290  0.9180
  144OSM   H14G15807   4.643   2.785   3.889  1.5729  1.6914  0.4213
  144OSM   C15F15808   4.437   2.848   3.919  0.4989 -0.4110 -0.4118
  144OSM   H15F15809   4.399   2.746   3.894  0.8583 -0.5145 -0.5446
  144OSM   H15G15810   4.370   2.928   3.879  2.1324  1.1957 -0.0314
  144OSM   C16F15811   4.451   2.865   4.070 -0.4379 -0.3824 -0.3351
  144OSM   H16F15812   4.540   2.930   4.086 -2.0739  1.9688 -0.3170
  144OSM   H16G15813   4.490   2.769   4.109 -1.1135 -0.6418 -0.2865
  144OSM   C17F15814   4.333   2.911   4.154  0.1788  0.2297 -0.0850
  144OSM   H17F15815   4.352   2.885   4.261  2.2255 -0.3499 -0.5444
  144OSM   H17G15816   4.242   2.850   4.138 -1.3614  2.0586  1.3432
  144OSM   C18F15817   4.299   3.059   4.136 -0.0189 -0.1652  0.9342
  144OSM   H18F15818   4.201   3.092   4.177 -0.6814  3.2449 -2.8167
  144OSM   H18G15819   4.314   3.091   4.031 -0.1552 -0.0899  0.9377
  144OSM   H18H15820   4.377   3.115   4.193  2.0471 -2.2448  0.3099
  145SAPE     N15821   4.209   3.843   6.721 -0.8653 -0.5463 -0.3601
  145SAPE   HN115822   4.111   3.864   6.695  0.1065  0.3114 -3.8601
  145SAPE   HN215823   4.214   3.743   6.749 -2.1943 -0.8052 -0.9895
  145SAPE   HN315824   4.249   3.909   6.790 -0.9160  1.5117 -2.2009
  145SAPE   C1215825   4.282   3.849   6.590 -0.5084 -0.3603 -0.1799
  145SAPE  H12A15826   4.270   3.954   6.554  0.2193  0.9957  3.1862
  145SAPE  H12B15827   4.240   3.780   6.513  0.4348  1.7418 -2.7463
  145SAPE   C1115828   4.432   3.819   6.612 -0.3315 -0.3564  0.3091
  145SAPE  H11A15829   4.469   3.869   6.704 -1.1351 -1.4258  1.2384
  145SAPE  H11B15830   4.490   3.851   6.522  0.6828 -0.7180  0.8111
  145SAPE     P15831   4.595   3.623   6.619  0.2217 -0.2942  0.2208
  145SAPE   O1315832   4.683   3.727   6.680  0.0722  0.5232 -0.3619
  145SAPE   O1415833   4.592   3.488   6.677  0.1544  0.1764 -0.1301
  145SAPE   O1215834   4.450   3.679   6.619  0.0786  0.3734 -0.3055
  145SAPE   O1115835   4.631   3.601   6.462  0.1553  0.3847  0.1015
  145SAPE    C115836   4.564   3.490   6.386  0.0631  0.1930 -0.0865
  145SAPE    HA15837   4.486   3.442   6.449 -0.2162  1.0757  0.2561
  145SAPE    HB15838   4.518   3.524   6.290  2.0967 -0.3870 -1.3446
  145SAPE    C215839   4.661   3.367   6.352  0.2587  0.5833 -0.0839
  145SAPE    HS15840   4.711   3.349   6.450 -0.0540  2.5686  0.4989
  145SAPE   O2115841   4.751   3.403   6.253 -0.2069  0.1960  0.4088
  145SAPE   C2115842   4.867   3.346   6.263 -0.3654 -0.5379  0.2431
  145SAPE   O2215843   4.913   3.262   6.338 -0.3166 -0.0283  0.6951
  145SAPE   C2215844   4.954   3.410   6.153 -0.0338 -0.0020 -0.4377
  145SAPE   H2R15845   4.902   3.409   6.054  1.2044  1.8659 -1.1730
  145SAPE   H2S15846   4.958   3.520   6.170 -0.9960  0.0965 -0.7409
  145SAPE    C315847   4.591   3.241   6.298  0.0131  0.4474  0.4877
  145SAPE    HX15848   4.528   3.211   6.384 -0.2762 -0.6166 -0.0670
  145SAPE    HY15849   4.655   3.155   6.268 -1.3512 -0.3520 -0.2877
  145SAPE   O3115850   4.511   3.270   6.177  0.0567 -0.5620 -0.8039
  145SAPE   C3115851   4.443   3.166   6.125  0.3791  0.4034 -0.1607
  145SAPE   O3215852   4.443   3.057   6.168  0.2614  0.4764 -0.1704
  145SAPE   C3215853   4.368   3.212   5.999 -1.4073 -0.0212 -0.3115
  145SAPE   H2X15854   4.440   3.279   5.947  0.7601 -0.6663  1.6918
  145SAPE   H2Y15855   4.282   3.262   6.048 -0.0131  0.7791  1.4335
  145SAPE   C2315856   5.090   3.347   6.134 -0.7605  0.4032  0.3397
  145SAPE   H3R15857   5.082   3.238   6.112  2.6998  0.4716 -2.0359
  145SAPE   H3S15858   5.150   3.342   6.228  0.6525 -1.5495 -0.5844
  145SAPE   C2415859   5.166   3.404   6.004  0.4101 -0.0496 -0.4092
  145SAPE   H4R15860   5.103   3.380   5.916 -0.8413  3.4660 -0.6376
  145SAPE   H4S15861   5.262   3.350   5.991  2.2892  2.4684  1.9463
  145SAPE   C2515862   5.189   3.551   6.016  0.3054 -0.1903  0.2614
  145SAPE   H5R15863   5.211   3.586   6.118 -0.1168  1.3462 -0.1495
  145SAPE   C2615864   5.150   3.644   5.925  0.4689  0.3516  0.1949
  145SAPE   H6R15865   5.175   3.746   5.955 -0.3547  0.5227  0.3283
  145SAPE   C2715866   5.097   3.615   5.784 -0.0746 -0.0760 -0.0328
  145SAPE   H7R15867   4.986   3.606   5.786 -0.0272 -0.6643  0.2398
  145SAPE   H7S15868   5.144   3.517   5.759  0.3913  0.1661 -0.1104
  145SAPE   C2815869   5.137   3.711   5.681  0.0984 -0.7336  0.2588
  145SAPE   H8R15870   5.227   3.771   5.700  1.6160 -1.2395 -4.0672
  145SAPE   C2915871   5.086   3.724   5.554 -0.6272 -0.5528 -0.0631
  145SAPE   H9R15872   5.128   3.806   5.495 -0.6237 -0.6374 -0.1781
  145SAPE  C21015873   4.972   3.639   5.494 -0.7136 -0.6281 -0.2257
  145SAPE  H10R15874   4.888   3.702   5.458  1.2883  2.9757  0.8878
  145SAPE  H10S15875   4.938   3.563   5.568  1.1002  0.2580  1.6298
  145SAPE  C21115876   5.020   3.564   5.370 -0.1578  0.2308 -0.3898
  145SAPE  H11R15877   5.015   3.454   5.379  0.9089  0.2927  1.4443
  145SAPE  C21215878   5.055   3.606   5.251  0.2868  0.2226  0.2206
  145SAPE  H12R15879   5.074   3.532   5.171  1.8116  1.0887 -0.2675
  145SAPE  C21315880   5.062   3.758   5.222  1.0151 -0.2617 -0.3430
  145SAPE  H13R15881   5.156   3.798   5.266 -0.0765  1.5441  0.4502
  145SAPE  H13S15882   4.986   3.817   5.278 -0.2545 -1.2893 -0.9279
  145SAPE  C21415883   5.058   3.798   5.079  0.4517  0.0524  0.1437
  145SAPE  H14R15884   5.034   3.719   5.006 -2.3714  1.8729 -1.0733
  145SAPE  C21515885   5.085   3.918   5.026 -0.2354 -0.3955  0.4397
  145SAPE  H15R15886   5.077   3.943   4.919  2.8985  1.1155  0.4483
  145SAPE  C21615887   5.108   4.045   5.106 -0.0375  0.3009  0.7220
  145SAPE  H16R15888   5.206   4.094   5.082 -0.8000  0.5194 -2.3276
  145SAPE  H16S15889   5.102   4.025   5.215  1.9332 -0.2268  0.7854
  145SAPE  C21715890   4.997   4.144   5.080  0.0336  0.1171 -0.0568
  145SAPE  H17R15891   5.018   4.208   5.168  1.0308 -0.5775  0.2247
  145SAPE  H17S15892   4.899   4.091   5.084  0.3042 -0.3992 -0.2013
  145SAPE  C21815893   5.002   4.238   4.960 -0.4676 -0.3711  0.1484
  145SAPE  H18R15894   5.010   4.174   4.870  3.5086 -1.6613  1.1734
  145SAPE  H18S15895   5.098   4.295   4.952  0.2565 -1.4992  0.4768
  145SAPE  C21915896   4.885   4.337   4.942 -0.1283  0.0893 -0.1861
  145SAPE  H19R15897   4.795   4.285   4.901  1.3246 -0.3868 -3.0542
  145SAPE  H19S15898   4.909   4.412   4.864 -1.0079  0.9122  0.3236
  145SAPE  C22015899   4.848   4.415   5.069 -0.0482 -1.0403 -0.4469
  145SAPE  H20R15900   4.769   4.493   5.068 -0.5542 -1.3828  2.4791
  145SAPE  H20S15901   4.945   4.463   5.094 -0.6146  0.1198 -0.3991
  145SAPE  H20T15902   4.831   4.353   5.160  1.0750 -1.1796 -0.3222
  145SAPE   C3315903   4.320   3.097   5.910  0.1240  0.1030 -0.2509
  145SAPE   H3X15904   4.238   3.041   5.960  0.1231  0.9314  0.7074
  145SAPE   H3Y15905   4.410   3.033   5.912  2.1911  2.7506 -1.6661
  145SAPE   C3415906   4.286   3.138   5.768 -0.6403 -0.1895 -0.4966
  145SAPE   H4X15907   4.214   3.223   5.770  0.2661  0.5920 -0.6644
  145SAPE   H4Y15908   4.228   3.053   5.728 -0.1420 -1.2415  0.9381
  145SAPE   C3515909   4.405   3.173   5.677  0.1223  0.1195  0.3335
  145SAPE   H5X15910   4.474   3.087   5.664  0.6169  0.9184 -3.0559
  145SAPE   H5Y15911   4.465   3.255   5.722  0.6280 -0.5054  0.8075
  145SAPE   C3615912   4.367   3.212   5.530 -0.7638 -0.7564  0.3095
  145SAPE   H6X15913   4.455   3.254   5.476 -2.7500 -0.2867 -2.8479
  145SAPE   H6Y15914   4.295   3.296   5.521  1.8839  1.4384 -2.3696
  145SAPE   C3715915   4.314   3.096   5.449  0.0785 -0.5323  0.0895
  145SAPE   H7X15916   4.212   3.068   5.482 -0.3284 -0.1529 -0.8098
  145SAPE   H7Y15917   4.389   3.014   5.452  1.3214  0.4985 -0.9734
  145SAPE   C3815918   4.309   3.134   5.304 -0.2384  0.1268  0.5112
  145SAPE   H8X15919   4.397   3.195   5.276 -0.0901 -0.5970 -0.6490
  145SAPE   H8Y15920   4.219   3.196   5.286  1.0530  1.1687 -3.2460
  145SAPE   C3915921   4.304   3.011   5.207 -0.3497  0.2409 -0.6730
  145SAPE   H9X15922   4.227   2.944   5.249  0.1919 -0.1493 -0.2790
  145SAPE   H9Y15923   4.396   2.949   5.204 -1.3531 -1.3375  0.1663
  145SAPE  C31015924   4.264   3.038   5.065 -0.2531  0.3389 -0.0936
  145SAPE  H10X15925   4.170   3.097   5.061 -1.5119 -1.6263 -2.0411
  145SAPE  H10Y15926   4.256   2.937   5.018 -0.1771  0.8419 -1.2148
  145SAPE  C31115927   4.376   3.120   4.991 -0.0672 -0.0782 -0.1437
  145SAPE  H11X15928   4.462   3.051   4.987  1.2623  1.5611 -1.7604
  145SAPE  H11Y15929   4.389   3.210   5.055 -1.8457  0.9323 -1.1227
  145SAPE  C31215930   4.334   3.147   4.846 -0.0541 -0.4425 -0.7622
  145SAPE  H12X15931   4.244   3.213   4.846 -0.2323 -0.6869 -0.7016
  145SAPE  H12Y15932   4.310   3.045   4.808  1.8534 -1.6192  1.0036
  145SAPE  C31315933   4.430   3.223   4.750  0.3424 -0.3522 -0.6120
  145SAPE  H13X15934   4.402   3.329   4.769 -0.4669 -0.5831 -0.4799
  145SAPE  H13Y15935   4.410   3.208   4.642  0.9466 -1.3076 -0.6098
  145SAPE  C31415936   4.584   3.208   4.778 -0.6926 -0.5077 -0.2870
  145SAPE  H14X15937   4.588   3.237   4.885 -1.1372  0.9600 -0.6448
  145SAPE  H14Y15938   4.630   3.285   4.713 -0.9495 -1.2193 -1.3332
  145SAPE  C31515939   4.647   3.067   4.755 -0.5802  0.7035 -0.6306
  145SAPE  H15X15940   4.617   2.992   4.833  0.8521 -2.4352 -2.8888
  145SAPE  H15Y15941   4.757   3.077   4.757 -0.5387  0.2981  1.6449
  145SAPE  C31615942   4.611   2.994   4.625 -0.2099  0.0770  0.4417
  145SAPE  H16X15943   4.501   2.982   4.620 -0.4617  2.2296 -0.2008
  145SAPE  H16Y15944   4.649   2.892   4.647  0.2643  0.1749  0.0994
  145SAPE  C31715945   4.673   3.042   4.494 -0.1111  0.0805  0.4712
  145SAPE  H17X15946   4.783   3.053   4.507 -0.3638  2.1216  1.2829
  145SAPE  H17Y15947   4.629   3.143   4.477 -1.8294 -0.6970  0.1064
  145SAPE  C31815948   4.645   2.952   4.375 -0.0305  0.2148  0.0470
  145SAPE  H18X15949   4.680   2.847   4.391 -1.7390 -0.2330  1.1166
  145SAPE  H18Y15950   4.706   2.978   4.286  0.9307  0.1278  0.6648
  145SAPE  H18Z15951   4.538   2.956   4.348 -0.1291 -1.8154 -0.0452
  146SAPE     N15952   0.305   2.432   6.441  0.2415 -0.3366 -0.6620
  146SAPE   HN115953   0.271   2.476   6.353  1.7840  1.9001 -0.2183
  146SAPE   HN215954   0.280   2.332   6.450 -0.6414  0.1128  3.8455
  146SAPE   HN315955   0.251   2.474   6.519 -2.6469 -1.8513 -1.7136
  146SAPE   C1215956   0.449   2.445   6.437 -0.0163  0.0051  0.1719
  146SAPE  H12A15957   0.486   2.432   6.333 -0.2373 -2.4816  0.3464
  146SAPE  H12B15958   0.487   2.368   6.507 -1.1647 -0.5222  0.2299
  146SAPE   C1115959   0.492   2.577   6.497  0.4362 -0.0412  0.3900
  146SAPE  H11A15960   0.597   2.572   6.533  1.0505 -0.6118 -1.3614
  146SAPE  H11B15961   0.435   2.601   6.589  1.1137  1.0421  0.5468
  146SAPE     P15962   0.587   2.715   6.302 -0.2273  0.1494 -0.0832
  146SAPE   O1315963   0.530   2.827   6.223  0.2438 -0.4107  0.1646
  146SAPE   O1415964   0.707   2.739   6.381 -0.1581  0.0531  0.4930
  146SAPE   O1215965   0.469   2.678   6.396 -0.3002  0.0626 -0.3070
  146SAPE   O1115966   0.617   2.591   6.215 -0.1629 -0.1930  0.1162
  146SAPE    C115967   0.745   2.520   6.217  0.3613 -0.2241  0.0995
  146SAPE    HA15968   0.837   2.582   6.213  1.2514 -1.5336 -0.8229
  146SAPE    HB15969   0.746   2.453   6.305 -1.3449  0.9224  1.0411
  146SAPE    C215970   0.762   2.415   6.104  0.4144 -0.1821 -0.2253
  146SAPE    HS15971   0.833   2.340   6.144  0.5776  0.2532  0.3083
  146SAPE   O2115972   0.828   2.457   5.988  0.1811  0.1503 -0.1971
  146SAPE   C2115973   0.947   2.511   5.997 -0.3183  0.4856  0.2829
  146SAPE   O2215974   1.026   2.485   6.084  0.1082 -0.8520 -0.1688
  146SAPE   C2215975   0.970   2.607   5.887  0.4799  0.4063 -0.1631
  146SAPE   H2R15976   0.967   2.705   5.939 -0.6012  0.5011 -0.3932
  146SAPE   H2S15977   1.073   2.602   5.846 -0.7989  1.6339 -3.9247
  146SAPE    C315978   0.627   2.345   6.065 -0.1306  0.1166  0.4927
  146SAPE    HX15979   0.559   2.423   6.024  0.6683 -0.0661 -1.2396
  146SAPE    HY15980   0.576   2.301   6.154  1.6520 -2.9440  0.1250
  146SAPE   O3115981   0.656   2.239   5.967  0.0857 -0.1687 -0.3745
  146SAPE   C3115982   0.614   2.259   5.845  0.0535  0.0554 -0.2551
  146SAPE   O3215983   0.546   2.357   5.805  0.3845  0.3701  1.0400
  146SAPE   C3215984   0.687   2.155   5.762 -0.2214  0.3467 -0.2917
  146SAPE   H2X15985   0.655   2.055   5.798 -0.1742 -0.7175 -2.9283
  146SAPE   H2Y15986   0.797   2.167   5.777 -0.6260  1.0967  2.6913
  146SAPE   C2315987   0.873   2.589   5.775  0.2245  0.6103  0.1670
  146SAPE   H3R15988   0.780   2.613   5.830 -0.2586  1.8985 -1.1479
  146SAPE   H3S15989   0.870   2.484   5.738 -0.3280  1.4830 -2.4649
  146SAPE   C2415990   0.883   2.685   5.658  0.2801  0.4467  0.6173
  146SAPE   H4R15991   0.978   2.674   5.602 -0.9763 -0.1147 -1.5273
  146SAPE   H4S15992   0.882   2.788   5.699 -0.2211  0.3864  0.7709
  146SAPE   C2515993   0.755   2.670   5.575 -0.0022 -0.3576 -0.3482
  146SAPE   H5R15994   0.679   2.605   5.620 -0.9015  1.8756  1.5790
  146SAPE   C2615995   0.727   2.717   5.453  0.5994 -0.8564  0.1600
  146SAPE   H6R15996   0.628   2.705   5.407  0.5327 -1.3000  0.4112
  146SAPE   C2715997   0.827   2.793   5.369 -0.2092  0.6775  0.2041
  146SAPE   H7R15998   0.897   2.717   5.328 -2.8524 -1.0980 -1.3538
  146SAPE   H7S15999   0.890   2.864   5.426  0.2089 -0.0850  0.7160
  146SAPE   C2816000   0.765   2.859   5.244 -0.5341 -0.0055 -0.2628
  146SAPE   H8R16001   0.679   2.809   5.197  0.5101 -1.8744 -0.2692
  146SAPE   C2916002   0.813   2.961   5.173 -0.8929  0.8275 -0.3865
  146SAPE   H9R16003   0.741   3.008   5.104 -0.7367  0.0985 -1.0624
  146SAPE  C21016004   0.949   3.028   5.196 -0.2279  0.7579  0.1947
  146SAPE  H10R16005   1.024   2.979   5.131 -0.3529 -0.5433  0.9978
  146SAPE  H10S16006   0.987   3.018   5.301  0.2624 -2.7405 -0.2008
  146SAPE  C21116007   0.940   3.181   5.162  0.5519  0.0728  0.1989
  146SAPE  H11R16008   0.843   3.225   5.190 -0.3212 -0.9375 -1.0863
  146SAPE  C21216009   1.037   3.265   5.136  0.3556 -0.1532  0.2301
  146SAPE  H12R16010   1.009   3.370   5.120 -3.7118 -0.9915  0.6898
  146SAPE  C21316011   1.179   3.222   5.100 -0.2632 -0.3010  0.5521
  146SAPE  H13R16012   1.200   3.116   5.128 -2.0051 -1.3993 -1.9474
  146SAPE  H13S16013   1.250   3.286   5.158  1.0568 -1.2645  0.0556
  146SAPE  C21416014   1.208   3.237   4.950 -0.5144 -0.3286 -0.7602
  146SAPE  H14R16015   1.128   3.194   4.887 -3.7334  0.6073  2.3247
  146SAPE  C21516016   1.316   3.288   4.885 -0.3240  0.1682 -0.2814
  146SAPE  H15R16017   1.308   3.301   4.776 -0.5154 -0.6066 -0.3686
  146SAPE  C21616018   1.436   3.352   4.946 -0.7912  0.4533  0.3023
  146SAPE  H16R16019   1.508   3.267   4.937  0.6858  1.4667  1.9532
  146SAPE  H16S16020   1.425   3.370   5.055  1.4254 -0.6745  0.7669
  146SAPE  C21716021   1.513   3.467   4.875 -0.0065 -0.8764  0.5584
  146SAPE  H17R16022   1.550   3.423   4.780  0.8930 -1.2680  1.0651
  146SAPE  H17S16023   1.607   3.492   4.929  1.8617  0.1306 -2.9014
  146SAPE  C21816024   1.425   3.592   4.857 -0.5788  0.2397 -1.1731
  146SAPE  H18R16025   1.386   3.626   4.956  2.6072  0.4884  0.1192
  146SAPE  H18S16026   1.339   3.563   4.793 -1.4654 -1.3668  0.6072
  146SAPE  C21916027   1.497   3.715   4.798 -0.2172  0.1248 -0.1944
  146SAPE  H19R16028   1.582   3.737   4.866  0.1959 -1.6242 -0.0960
  146SAPE  H19S16029   1.429   3.803   4.798 -0.3967 -0.0117  0.2655
  146SAPE  C22016030   1.548   3.697   4.658  0.2864  0.7999 -0.9835
  146SAPE  H20R16031   1.459   3.684   4.593 -2.1875  2.7321  1.7606
  146SAPE  H20S16032   1.613   3.608   4.642 -0.3270 -0.0974  1.1517
  146SAPE  H20T16033   1.602   3.789   4.628 -0.4588  1.7138  0.3699
  146SAPE   C3316034   0.658   2.146   5.608  0.0942  0.0064 -0.0386
  146SAPE   H3X16035   0.554   2.167   5.576 -0.2160  1.0826  1.5915
  146SAPE   H3Y16036   0.685   2.047   5.566  2.2128  0.4003  0.3011
  146SAPE   C3416037   0.719   2.260   5.531 -0.7234 -0.0324  0.5295
  146SAPE   H4X16038   0.829   2.254   5.518 -0.0677  1.9149  3.9362
  146SAPE   H4Y16039   0.709   2.352   5.593  0.0046  0.5097 -0.1367
  146SAPE   C3516040   0.660   2.277   5.393  0.4257 -0.6916 -0.0363
  146SAPE   H5X16041   0.555   2.314   5.404 -0.0221 -2.0616  0.5022
  146SAPE   H5Y16042   0.655   2.176   5.347 -2.5997  0.0260 -1.5813
  146SAPE   C3616043   0.757   2.375   5.312 -0.1551  0.6421 -0.4426
  146SAPE   H6X16044   0.847   2.311   5.300 -1.3435 -1.1422 -0.1004
  146SAPE   H6Y16045   0.779   2.464   5.374 -0.1761 -0.1403  0.7111
  146SAPE   C3716046   0.705   2.400   5.178  0.0967 -0.0654 -0.2048
  146SAPE   H7X16047   0.598   2.431   5.186  0.6347  1.9493 -0.0930
  146SAPE   H7Y16048   0.689   2.316   5.108 -0.8704  1.4189 -1.8412
  146SAPE   C3816049   0.784   2.516   5.116  0.6753  0.7270 -0.2941
  146SAPE   H8X16050   0.877   2.463   5.088 -0.0899 -0.3891 -0.7898
  146SAPE   H8Y16051   0.799   2.611   5.171  0.1632  0.9624 -0.5516
  146SAPE   C3916052   0.723   2.559   4.987 -0.3577 -0.5764  0.1542
  146SAPE   H9X16053   0.626   2.608   5.008  0.2656  0.3287  0.9588
  146SAPE   H9Y16054   0.709   2.468   4.925 -1.5079  0.1366 -0.6659
  146SAPE  C31016055   0.816   2.654   4.914  0.2460  0.6573 -0.8080
  146SAPE  H10X16056   0.918   2.613   4.902 -0.0180  0.1261 -1.3316
  146SAPE  H10Y16057   0.824   2.747   4.974  2.9218  0.5927 -0.9509
  146SAPE  C31116058   0.766   2.696   4.778  0.8434 -0.0121  0.4222
  146SAPE  H11X16059   0.655   2.702   4.788  0.6034 -1.3969 -0.9899
  146SAPE  H11Y16060   0.776   2.621   4.697 -2.3203  1.0964 -1.1887
  146SAPE  C31216061   0.834   2.830   4.721  0.9927  0.3133 -0.2279
  146SAPE  H12X16062   0.943   2.811   4.716  1.0395 -0.8415  3.0251
  146SAPE  H12Y16063   0.830   2.911   4.797  2.5557  1.5983 -1.4388
  146SAPE  C31316064   0.777   2.871   4.586  0.1868 -0.5773 -0.9996
  146SAPE  H13X16065   0.684   2.933   4.593 -0.0045 -0.9732  0.1406
  146SAPE  H13Y16066   0.751   2.784   4.523  1.6964 -1.1448 -0.8658
  146SAPE  C31416067   0.878   2.946   4.495 -0.1501  0.2654  0.2855
  146SAPE  H14X16068   0.815   2.968   4.406 -0.4084 -2.4119 -0.2766
  146SAPE  H14Y16069   0.960   2.877   4.464 -0.7707  0.2435 -1.4142
  146SAPE  C31516070   0.936   3.075   4.554 -0.5154 -0.3401 -1.4520
  146SAPE  H15X16071   0.998   3.035   4.636 -0.7983 -2.0631 -2.0259
  146SAPE  H15Y16072   0.857   3.134   4.606  0.3012 -0.0058 -0.5716
  146SAPE  C31616073   1.018   3.147   4.452  0.0934  0.1338 -0.6929
  146SAPE  H16X16074   0.944   3.223   4.419  0.0416  1.5991  2.5012
  146SAPE  H16Y16075   1.046   3.080   4.367  1.9556  0.9868 -0.7920
  146SAPE  C31716076   1.147   3.219   4.507  0.4577 -0.3252 -0.6395
  146SAPE  H17X16077   1.205   3.255   4.420 -0.1108  2.8690  0.1973
  146SAPE  H17Y16078   1.207   3.157   4.577  2.0241 -0.9683 -2.4752
  146SAPE  C31816079   1.096   3.342   4.587  0.1734  0.6516  0.2922
  146SAPE  H18X16080   1.049   3.406   4.509 -0.4185  0.9107  0.8570
  146SAPE  H18Y16081   1.191   3.390   4.619  1.0574 -0.0406 -1.1665
  146SAPE  H18Z16082   1.026   3.322   4.671 -1.4122  1.2932 -0.8119
  147SAPE     N16083   5.848   6.047   6.810  0.4200  0.2715  0.6758
  147SAPE   HN116084   5.759   6.099   6.805 -0.3232 -1.0324 -2.3180
  147SAPE   HN216085   5.813   5.950   6.797 -1.7725  1.3274 -2.4400
  147SAPE   HN316086   5.903   6.052   6.898 -0.5597 -1.9649  1.4831
  147SAPE   C1216087   5.931   6.087   6.685 -0.1461  0.0260  0.0849
  147SAPE  H12A16088   5.965   6.190   6.709 -0.5037  0.0042  0.7065
  147SAPE  H12B16089   5.870   6.072   6.594  2.8400 -0.1216 -2.0231
  147SAPE   C1116090   6.055   5.997   6.656 -0.8104  0.4458 -0.1108
  147SAPE  H11A16091   6.140   6.016   6.725 -1.1640 -0.0633  0.4690
  147SAPE  H11B16092   6.085   6.024   6.552 -0.5329  0.8385  0.0681
  147SAPE     P16093   5.981   5.781   6.544 -0.1951  0.1424 -0.2867
  147SAPE   O1316094   6.095   5.792   6.449  0.0005 -1.3756  0.1089
  147SAPE   O1416095   5.938   5.646   6.579 -0.4579  0.1806  0.3788
  147SAPE   O1216096   6.018   5.866   6.677 -0.4349  0.5124  0.1367
  147SAPE   O1116097   5.856   5.866   6.492 -0.1623 -0.2557 -0.7790
  147SAPE    C116098   5.731   5.806   6.466 -0.1187 -0.7411 -0.9669
  147SAPE    HA16099   5.718   5.708   6.518  2.4499 -1.0831 -0.8617
  147SAPE    HB16100   5.651   5.881   6.482  0.8700 -0.0582  1.0726
  147SAPE    C216101   5.712   5.771   6.317 -0.5668 -0.6991  0.1913
  147SAPE    HS16102   5.610   5.735   6.291 -1.0593 -1.4478  2.8580
  147SAPE   O2116103   5.809   5.671   6.279 -0.1497  0.1868  0.7468
  147SAPE   C2116104   5.769   5.548   6.295 -0.5401  0.2199 -0.4718
  147SAPE   O2216105   5.660   5.511   6.332 -0.0109 -0.0070 -0.8867
  147SAPE   C2216106   5.886   5.449   6.252 -0.2727 -0.3091 -0.4564
  147SAPE   H2R16107   5.949   5.452   6.344 -1.4104 -1.3259  0.3959
  147SAPE   H2S16108   5.841   5.348   6.241 -1.3217 -0.0194  0.9192
  147SAPE    C316109   5.735   5.898   6.230 -0.1370 -0.1574  0.0908
  147SAPE    HX16110   5.830   5.949   6.258  1.3955 -1.7501 -1.9327
  147SAPE    HY16111   5.659   5.975   6.258  0.9237  0.5940  0.9964
  147SAPE   O3116112   5.729   5.867   6.094 -0.0601 -0.7983 -0.8723
  147SAPE   C3116113   5.739   5.973   6.007 -0.0739  0.4239  0.3508
  147SAPE   O3216114   5.742   6.092   6.029  0.1140  0.2350  0.1963
  147SAPE   C3216115   5.753   5.920   5.865  0.2444  0.1683 -0.5599
  147SAPE   H2X16116   5.714   5.816   5.859 -0.2033  0.3588 -1.0875
  147SAPE   H2Y16117   5.860   5.907   5.839  0.4037  1.0047 -0.3458
  147SAPE   C2316118   5.955   5.484   6.118 -0.1000 -0.2270  0.1443
  147SAPE   H3R16119   6.051   5.427   6.122 -1.0056 -1.7259  1.5589
  147SAPE   H3S16120   5.963   5.594   6.102 -0.4787 -0.1454  0.5135
  147SAPE   C2416121   5.872   5.435   5.992  0.1574  0.8878 -0.2889
  147SAPE   H4R16122   5.794   5.509   5.962 -2.0894 -1.3918 -0.4399
  147SAPE   H4S16123   5.831   5.336   6.020 -0.2864  0.9175 -0.8344
  147SAPE   C2516124   5.970   5.404   5.874  0.8577 -0.3389  0.1518
  147SAPE   H5R16125   6.014   5.304   5.888 -3.0918 -2.4348 -0.7597
  147SAPE   C2616126   5.990   5.478   5.762  0.0936 -0.1606 -0.0492
  147SAPE   H6R16127   6.062   5.453   5.683  0.3523  0.5702 -0.0533
  147SAPE   C2716128   5.927   5.613   5.725 -0.3658 -0.1545  0.7089
  147SAPE   H7R16129   6.001   5.673   5.668  2.2083 -1.5301  2.4219
  147SAPE   H7S16130   5.895   5.676   5.811 -1.9483  1.1718 -0.7735
  147SAPE   C2816131   5.804   5.588   5.642  0.1818 -0.1866 -0.0368
  147SAPE   H8R16132   5.720   5.545   5.698  0.8638 -1.2965  0.1649
  147SAPE   C2916133   5.796   5.587   5.507  0.2385 -0.4572  0.0291
  147SAPE   H9R16134   5.699   5.568   5.460  0.0132  0.7824 -0.0320
  147SAPE  C21016135   5.903   5.630   5.409  0.6153 -0.3126 -0.2251
  147SAPE  H10R16136   5.994   5.648   5.471  0.2600 -3.2784  1.3906
  147SAPE  H10S16137   5.870   5.723   5.359 -0.1878 -1.5565 -2.1323
  147SAPE  C21116138   5.942   5.520   5.311  0.7259  0.3259  0.3699
  147SAPE  H11R16139   5.957   5.419   5.354  0.7743 -0.0452 -0.4882
  147SAPE  C21216140   5.941   5.529   5.177 -0.4895  0.3364 -0.2797
  147SAPE  H12R16141   5.960   5.433   5.127  2.0342 -2.5065  5.1794
  147SAPE  C21316142   5.920   5.645   5.081 -0.6084  0.2095 -0.4350
  147SAPE  H13R16143   6.020   5.692   5.090  0.7331 -2.2713 -1.4273
  147SAPE  H13S16144   5.841   5.708   5.128 -1.1845 -1.0170  0.3078
  147SAPE  C21416145   5.881   5.609   4.940 -0.2174 -0.1907  0.0873
  147SAPE  H14R16146   5.774   5.590   4.926 -0.2447  0.0827 -0.0934
  147SAPE  C21516147   5.954   5.615   4.827  0.3278 -0.4956  0.4226
  147SAPE  H15R16148   5.912   5.588   4.729  1.1659  1.5204 -0.5671
  147SAPE  C21616149   6.099   5.660   4.807  0.4364  0.8916  0.0326
  147SAPE  H16R16150   6.147   5.665   4.907 -0.0079 -1.4707  0.4142
  147SAPE  H16S16151   6.102   5.758   4.754 -3.0811  1.8698  1.3322
  147SAPE  C21716152   6.176   5.564   4.713 -0.3931 -0.1748  0.0201
  147SAPE  H17R16153   6.127   5.567   4.613  0.0247 -1.0781 -0.2233
  147SAPE  H17S16154   6.171   5.457   4.742 -2.0943 -0.2488 -0.4122
  147SAPE  C21816155   6.330   5.597   4.709 -0.6331 -0.1390 -0.2556
  147SAPE  H18R16156   6.387   5.504   4.724 -1.6458 -0.8462 -0.6705
  147SAPE  H18S16157   6.348   5.662   4.797 -1.3506 -0.4731  0.1456
  147SAPE  C21916158   6.363   5.663   4.580 -0.0211  0.3988 -0.1970
  147SAPE  H19R16159   6.299   5.753   4.566  0.6830  1.3582  2.2697
  147SAPE  H19S16160   6.349   5.592   4.496  1.7629 -0.6675  0.3608
  147SAPE  C22016161   6.505   5.707   4.591  0.1261 -0.0448  0.2137
  147SAPE  H20R16162   6.514   5.782   4.672 -0.7501 -0.4222  0.6836
  147SAPE  H20S16163   6.532   5.763   4.499 -1.7921  0.3429 -0.1425
  147SAPE  H20T16164   6.576   5.625   4.619 -0.7289 -1.0439 -0.4651
  147SAPE   C3316165   5.696   6.009   5.754  0.1852  0.4155 -0.3492
  147SAPE   H3X16166   5.759   6.097   5.729 -2.0876  2.0658 -0.5236
  147SAPE   H3Y16167   5.594   6.041   5.783  0.1041  0.7332 -0.9725
  147SAPE   C3416168   5.702   5.945   5.612  0.9844  0.6471  0.1237
  147SAPE   H4X16169   5.636   5.856   5.603  0.4662  0.8894  1.3790
  147SAPE   H4Y16170   5.805   5.910   5.587  0.8900  1.3055 -1.2615
  147SAPE   C3516171   5.659   6.060   5.515  0.2889  0.1090  0.0907
  147SAPE   H5X16172   5.726   6.147   5.530  0.1132  0.1119  0.8795
  147SAPE   H5Y16173   5.553   6.092   5.525 -0.0305 -0.9884  0.3755
  147SAPE   C3616174   5.675   6.016   5.366 -0.1632 -0.3621 -0.5716
  147SAPE   H6X16175   5.597   5.945   5.332 -0.0723  0.7969 -3.4375
  147SAPE   H6Y16176   5.776   5.974   5.347  0.6152  2.0289 -2.1253
  147SAPE   C3716177   5.661   6.138   5.273  0.5015  0.7684 -0.0190
  147SAPE   H7X16178   5.748   6.205   5.288  3.5531 -2.7004 -0.9655
  147SAPE   H7Y16179   5.565   6.184   5.306  0.4811  0.1014  0.8919
  147SAPE   C3816180   5.671   6.095   5.122  0.4115  0.3430 -0.3311
  147SAPE   H8X16181   5.587   6.023   5.106 -0.8719  1.3083  1.5700
  147SAPE   H8Y16182   5.766   6.038   5.115  0.0841 -0.7102  2.4929
  147SAPE   C3916183   5.660   6.219   5.034  0.0649 -0.3703 -0.2246
  147SAPE   H9X16184   5.759   6.268   5.027 -1.4544  2.7046 -3.0081
  147SAPE   H9Y16185   5.590   6.286   5.087  0.4190  0.1887 -0.4576
  147SAPE  C31016186   5.620   6.196   4.887  0.0131  0.1493 -0.2064
  147SAPE  H10X16187   5.695   6.132   4.837  0.7337 -0.7722  1.9469
  147SAPE  H10Y16188   5.616   6.297   4.841  0.3948  0.5047  0.5200
  147SAPE  C31116189   5.480   6.133   4.868 -0.2588 -0.2622  0.1857
  147SAPE  H11X16190   5.402   6.201   4.909  0.6872  1.5616 -0.9120
  147SAPE  H11Y16191   5.481   6.031   4.912  2.3980 -0.4997 -0.2600
  147SAPE  C31216192   5.449   6.112   4.718 -0.1287 -0.0868  0.6308
  147SAPE  H12X16193   5.374   6.031   4.709 -0.6414  0.5033 -0.7330
  147SAPE  H12Y16194   5.537   6.078   4.659  0.1289  0.3736  0.7448
  147SAPE  C31316195   5.368   6.222   4.648 -0.2074  0.1926 -0.0208
  147SAPE  H13X16196   5.418   6.318   4.672  1.0708 -0.4983  0.1301
  147SAPE  H13Y16197   5.262   6.213   4.681 -0.8879 -2.4206 -2.4258
  147SAPE  C31416198   5.379   6.189   4.495  0.2606 -0.8035  0.0927
  147SAPE  H14X16199   5.297   6.237   4.437  0.4445  0.5850  0.9272
  147SAPE  H14Y16200   5.364   6.081   4.479 -1.5528 -0.2714 -2.3850
  147SAPE  C31516201   5.507   6.241   4.429  0.3031 -0.3090  0.1371
  147SAPE  H15X16202   5.493   6.245   4.318 -3.3851 -0.1820  0.4870
  147SAPE  H15Y16203   5.583   6.167   4.461 -0.1339 -0.4140  0.9626
  147SAPE  C31616204   5.553   6.382   4.462  0.7093  0.7734  0.5146
  147SAPE  H16X16205   5.590   6.398   4.566  1.2142  0.0574  0.4567
  147SAPE  H16Y16206   5.471   6.455   4.447 -0.3152 -0.5258 -0.4395
  147SAPE  C31716207   5.674   6.438   4.394  0.3716  0.0300 -0.9377
  147SAPE  H17X16208   5.658   6.546   4.412 -3.2368 -0.8635  2.5517
  147SAPE  H17Y16209   5.662   6.420   4.285 -1.8320  1.7508 -1.0304
  147SAPE  C31816210   5.803   6.368   4.445  0.4645  0.2451 -0.1188
  147SAPE  H18X16211   5.879   6.370   4.364 -0.5211  1.4555 -1.0570
  147SAPE  H18Y16212   5.781   6.260   4.454 -2.0328  0.6965  0.0155
  147SAPE  H18Z16213   5.848   6.391   4.545 -1.3967 -0.4105  0.9160
  148SAPE     N16214   3.039   0.207   6.668 -0.2839  0.0885  0.2650
  148SAPE   HN116215   2.959   0.273   6.669 -1.6808 -1.5396  0.1740
  148SAPE   HN216216   3.000   0.111   6.676 -1.5643  0.5831  0.1252
  148SAPE   HN316217   3.093   0.210   6.757  1.9618 -0.9210 -0.9623
  148SAPE   C1216218   3.136   0.236   6.560 -0.3726  0.0227 -0.1298
  148SAPE  H12A16219   3.195   0.325   6.592  0.1927 -0.0890 -0.8409
  148SAPE  H12B16220   3.070   0.267   6.476 -1.4539  0.5807  0.8879
  148SAPE   C1116221   3.238   0.117   6.536  0.3745  0.0373 -0.4690
  148SAPE  H11A16222   3.283   0.160   6.443 -2.0321  1.5841 -1.0334
  148SAPE  H11B16223   3.182   0.023   6.516  1.4989 -1.4201  2.6329
  148SAPE     P16224   3.487   0.115   6.633  0.3654  0.0317 -0.1039
  148SAPE   O1316225   3.514   0.237   6.556  0.5446  0.2266 -0.2784
  148SAPE   O1416226   3.544   0.101   6.769 -0.0790  0.3083  0.5661
  148SAPE   O1216227   3.334   0.104   6.650  0.3530 -0.1550 -0.1055
  148SAPE   O1116228   3.514  -0.010   6.540 -0.5195  0.0233 -0.5226
  148SAPE    C116229   3.620  -0.025   6.453  0.4723 -0.7523  0.4273
  148SAPE    HA16230   3.700   0.050   6.470 -0.4371  0.1858  0.7096
  148SAPE    HB16231   3.655  -0.128   6.471  0.2183 -0.8464  0.3929
  148SAPE    C216232   3.569  -0.006   6.307 -0.2682  0.3509 -0.5530
  148SAPE    HS16233   3.526   0.097   6.307 -1.2188  0.0351  1.8873
  148SAPE   O2116234   3.464  -0.097   6.278  0.3591 -0.1944 -0.0961
  148SAPE   C2116235   3.381  -0.064   6.181 -0.2473  0.8220 -0.0690
  148SAPE   O2216236   3.360   0.048   6.142 -0.1212 -0.7060  0.6448
  148SAPE   C2216237   3.291  -0.187   6.156 -0.1136  0.5147 -0.7460
  148SAPE   H2R16238   3.331  -0.243   6.069  1.3034 -0.9971  0.7897
  148SAPE   H2S16239   3.295  -0.249   6.248 -0.8387 -0.6812 -1.4993
  148SAPE    C316240   3.680  -0.028   6.201  0.1382 -0.2843  0.6179
  148SAPE    HX16241   3.707  -0.135   6.215 -0.5532 -0.5664 -0.1295
  148SAPE    HY16242   3.759   0.039   6.239  0.9003 -2.1311  2.5293
  148SAPE   O3116243   3.639   0.001   6.063 -0.1227  0.1642 -0.5890
  148SAPE   C3116244   3.663   0.126   6.027  0.3511 -0.4932 -0.4687
  148SAPE   O3216245   3.707   0.215   6.096  0.5424 -0.3031  0.0636
  148SAPE   C3216246   3.631   0.139   5.878  1.0473  0.2388  0.4196
  148SAPE   H2X16247   3.522   0.158   5.863  0.6632 -1.0382  1.3651
  148SAPE   H2Y16248   3.671   0.054   5.818 -1.6514 -1.6823  1.1028
  148SAPE   C2316249   3.144  -0.148   6.125 -0.8515  0.1327  0.2973
  148SAPE   H3R16250   3.121  -0.062   6.192 -2.1747 -0.7948  1.0808
  148SAPE   H3S16251   3.078  -0.230   6.159  0.1497 -1.4645 -1.4164
  148SAPE   C2416252   3.115  -0.117   5.975  1.2432  0.0848  0.2915
  148SAPE   H4R16253   3.182  -0.037   5.938 -0.8687  1.4081 -0.8710
  148SAPE   H4S16254   3.014  -0.072   5.964  0.6746 -1.0720  0.5750
  148SAPE   C2516255   3.128  -0.248   5.894 -0.1640 -0.1599 -0.3992
  148SAPE   H5R16256   3.069  -0.334   5.928 -2.1447 -0.0114 -3.0918
  148SAPE   C2616257   3.199  -0.265   5.782 -0.2025 -0.0372 -0.2137
  148SAPE   H6R16258   3.192  -0.362   5.730 -1.2660 -0.0757 -0.0237
  148SAPE   C2716259   3.286  -0.153   5.724 -0.1183  0.2581 -0.4059
  148SAPE   H7R16260   3.240  -0.053   5.733  0.8859  0.7944 -1.0411
  148SAPE   H7S16261   3.277  -0.169   5.614 -0.0898  0.3816 -0.4262
  148SAPE   C2816262   3.426  -0.142   5.763  0.7366  0.5452 -0.0707
  148SAPE   H8R16263   3.454  -0.157   5.868 -0.2608  2.4852  0.5200
  148SAPE   C2916264   3.526  -0.120   5.677 -1.0715 -0.1293  0.1358
  148SAPE   H9R16265   3.626  -0.119   5.724  0.2756  1.2312 -2.5073
  148SAPE  C21016266   3.527  -0.087   5.529 -0.5345 -0.4744 -0.1810
  148SAPE  H10R16267   3.591   0.003   5.516  1.9813 -2.1849 -0.3363
  148SAPE  H10S16268   3.433  -0.039   5.494  0.1463  1.2773  0.3291
  148SAPE  C21116269   3.571  -0.203   5.440 -0.3914 -0.2347 -0.4146
  148SAPE  H11R16270   3.542  -0.295   5.494 -2.2231  1.3409  1.4831
  148SAPE  C21216271   3.648  -0.207   5.334  0.0044 -0.0920 -0.2978
  148SAPE  H12R16272   3.699  -0.297   5.296  1.9739  0.4608  0.9064
  148SAPE  C21316273   3.670  -0.078   5.249 -0.8722  0.4785  0.1073
  148SAPE  H13R16274   3.779  -0.089   5.232 -0.9662 -0.2364 -0.1024
  148SAPE  H13S16275   3.650   0.020   5.296  0.0872  0.5950  0.2767
  148SAPE  C21416276   3.599  -0.084   5.113  0.1087  0.4031 -0.0934
  148SAPE  H14R16277   3.502  -0.136   5.120  0.0813  0.6769  2.0841
  148SAPE  C21516278   3.650  -0.034   4.997 -0.4845 -0.5050  0.5922
  148SAPE  H15R16279   3.596  -0.049   4.902 -1.5561 -2.6935  1.4638
  148SAPE  C21616280   3.782   0.046   4.992  0.6552  0.4726 -0.2584
  148SAPE  H16R16281   3.873  -0.007   5.025 -1.0928 -0.7463  3.0753
  148SAPE  H16S16282   3.768   0.128   5.066 -2.6188 -1.1661  1.1328
  148SAPE  C21716283   3.808   0.117   4.856  0.2752  0.7075  0.0298
  148SAPE  H17R16284   3.901   0.175   4.871 -0.4166  1.3790  2.0422
  148SAPE  H17S16285   3.722   0.182   4.830  0.3168  0.0459 -1.9800
  148SAPE  C21816286   3.819   0.014   4.733 -0.3166  0.0495  0.3873
  148SAPE  H18R16287   3.745  -0.068   4.746  1.4436 -2.0269 -1.7878
  148SAPE  H18S16288   3.912  -0.042   4.751  0.3410  0.6925 -0.8575
  148SAPE  C21916289   3.821   0.088   4.594  0.1211  0.5536  0.1693
  148SAPE  H19R16290   3.917   0.141   4.574  0.2156 -0.3945 -2.2252
  148SAPE  H19S16291   3.750   0.173   4.601  1.4966  1.6678  1.2253
  148SAPE  C22016292   3.786  -0.001   4.480  0.2242 -0.0650  0.8363
  148SAPE  H20R16293   3.698  -0.064   4.506  0.3868 -1.1659 -1.0974
  148SAPE  H20S16294   3.874  -0.064   4.459  0.2449  0.7717 -2.0778
  148SAPE  H20T16295   3.767   0.060   4.389  0.7153 -0.3399  0.5432
  148SAPE   C3316296   3.709   0.258   5.805 -0.0320  0.1389  0.3176
  148SAPE   H3X16297   3.809   0.213   5.787 -1.2230 -2.7693  0.4617
  148SAPE   H3Y16298   3.711   0.346   5.873 -0.9351  0.6421 -0.2883
  148SAPE   C3416299   3.658   0.299   5.672 -0.2134  0.2059 -0.0849
  148SAPE   H4X16300   3.590   0.388   5.671  0.1033  0.5060  1.7472
  148SAPE   H4Y16301   3.607   0.214   5.623  0.1038 -0.9988  1.5984
  148SAPE   C3516302   3.755   0.349   5.571  0.2092  0.5825  0.1784
  148SAPE   H5X16303   3.841   0.279   5.583 -0.0282  0.3546  0.5822
  148SAPE   H5Y16304   3.787   0.445   5.615 -2.2574  1.2050  0.7572
  148SAPE   C3616305   3.713   0.363   5.422  0.0114  0.4336 -0.3388
  148SAPE   H6X16306   3.632   0.438   5.416  1.3333  1.8380 -1.3455
  148SAPE   H6Y16307   3.681   0.259   5.398 -2.5363  1.1505 -0.3256
  148SAPE   C3716308   3.821   0.423   5.322 -0.4664  0.1195 -0.0142
  148SAPE   H7X16309   3.910   0.357   5.319 -2.0814 -2.1077 -1.2877
  148SAPE   H7Y16310   3.832   0.527   5.361  2.5164  0.4745 -1.5092
  148SAPE   C3816311   3.768   0.445   5.178  0.1309  0.9584 -0.5448
  148SAPE   H8X16312   3.678   0.508   5.198  0.7580  1.5878  0.3752
  148SAPE   H8Y16313   3.735   0.350   5.130 -1.0297 -0.1122  2.1372
  148SAPE   C3916314   3.869   0.519   5.085  0.1512 -0.1546 -0.0734
  148SAPE   H9X16315   3.949   0.443   5.073 -0.5250 -1.2630  2.0154
  148SAPE   H9Y16316   3.918   0.610   5.125  0.7719 -0.9363  0.9956
  148SAPE  C31016317   3.816   0.536   4.942 -0.2623 -0.0695 -0.6046
  148SAPE  H10X16318   3.744   0.620   4.948  0.9084  0.8756  0.8374
  148SAPE  H10Y16319   3.764   0.442   4.916  0.2560 -1.0964  1.8060
  148SAPE  C31116320   3.924   0.551   4.834 -0.3181  0.2347 -0.3165
  148SAPE  H11X16321   3.991   0.463   4.830 -0.6063 -0.0222  0.4361
  148SAPE  H11Y16322   3.993   0.635   4.858  1.1980 -0.7134 -1.2011
  148SAPE  C31216323   3.874   0.576   4.692 -0.1562 -0.4265 -0.6261
  148SAPE  H12X16324   3.811   0.486   4.677  1.4848 -1.7017 -0.1931
  148SAPE  H12Y16325   3.959   0.564   4.623  1.9913  1.1719  1.5513
  148SAPE  C31316326   3.802   0.713   4.681  0.1633  0.3375  0.0683
  148SAPE  H13X16327   3.872   0.785   4.729  0.2431  0.0777  0.3468
  148SAPE  H13Y16328   3.705   0.707   4.735 -0.3124 -2.2303 -0.9404
  148SAPE  C31416329   3.779   0.776   4.535  0.4446  0.0795 -0.4154
  148SAPE  H14X16330   3.867   0.799   4.472  0.3187 -1.5207 -1.2188
  148SAPE  H14Y16331   3.738   0.878   4.554 -2.0078 -0.9141 -0.0135
  148SAPE  C31516332   3.663   0.694   4.463  0.1478 -0.7876 -0.2449
  148SAPE  H15X16333   3.573   0.711   4.526  1.0385  0.5475  0.7274
  148SAPE  H15Y16334   3.696   0.588   4.464  5.1399  0.4779  0.4359
  148SAPE  C31616335   3.650   0.755   4.320  0.0331 -0.2397  0.2781
  148SAPE  H16X16336   3.746   0.750   4.264  0.2377 -1.4775  0.7156
  148SAPE  H16Y16337   3.623   0.863   4.326 -0.3992 -0.1880 -1.8416
  148SAPE  C31716338   3.554   0.688   4.225 -0.1181  0.0791 -0.6795
  148SAPE  H17X16339   3.452   0.731   4.233 -0.7564 -1.3744 -0.8189
  148SAPE  H17Y16340   3.539   0.579   4.235 -1.8197  0.2775 -0.6628
  148SAPE  C31816341   3.604   0.697   4.073 -0.1418  0.1211 -0.9995
  148SAPE  H18X16342   3.615   0.800   4.035 -0.3519  0.2992 -0.5874
  148SAPE  H18Y16343   3.542   0.637   4.003 -0.2185  1.0286 -1.7326
  148SAPE  H18Z16344   3.697   0.636   4.068 -3.1353 -5.2205  0.4917
  149SAPE     N16345   4.085   4.625   6.581 -0.5476  0.9370  0.1183
  149SAPE   HN116346   4.135   4.565   6.512  1.1615  0.7283  1.4776
  149SAPE   HN216347   4.162   4.652   6.645 -0.9458  0.7069  0.7073
  149SAPE   HN316348   4.011   4.568   6.628  1.4424 -1.4046  0.6302
  149SAPE   C1216349   4.043   4.747   6.506 -0.1680 -0.8639  0.3457
  149SAPE  H12A16350   4.136   4.788   6.462 -0.0887  0.9382  2.0667
  149SAPE  H12B16351   4.006   4.826   6.575 -1.1821 -1.9922  1.1467
  149SAPE   C1116352   3.944   4.726   6.387 -0.5266  0.1463  0.2070
  149SAPE  H11A16353   3.978   4.641   6.324 -1.2183 -2.9419  3.6763
  149SAPE  H11B16354   3.936   4.816   6.322  3.0840  1.4964  1.3379
  149SAPE     P16355   3.708   4.638   6.336  0.3420  0.8396 -0.4797
  149SAPE   O1316356   3.766   4.510   6.288 -0.0498 -0.4356 -0.1714
  149SAPE   O1416357   3.580   4.629   6.403 -0.1522 -0.0016 -0.7066
  149SAPE   O1216358   3.813   4.699   6.441 -0.1145  0.1195 -0.2769
  149SAPE   O1116359   3.693   4.738   6.212  0.0171  0.0259  0.5485
  149SAPE    C116360   3.645   4.872   6.224 -0.0582 -0.1036  0.3004
  149SAPE    HA16361   3.534   4.876   6.217  0.0485  1.8421 -0.8831
  149SAPE    HB16362   3.679   4.920   6.318  1.7504  2.4712 -1.5069
  149SAPE    C216363   3.697   4.960   6.110  0.0730 -0.0228  0.6165
  149SAPE    HS16364   3.619   5.036   6.087 -0.8573 -1.8084 -2.7449
  149SAPE   O2116365   3.718   4.886   5.987  0.2382 -0.7904  0.4706
  149SAPE   C2116366   3.614   4.805   5.950 -1.0984 -0.3359  0.2337
  149SAPE   O2216367   3.500   4.819   5.989  0.1630 -0.7610 -0.1764
  149SAPE   C2216368   3.651   4.710   5.840  0.6932  0.3254  0.1848
  149SAPE   H2R16369   3.715   4.759   5.764 -1.8712  0.3553 -2.1221
  149SAPE   H2S16370   3.707   4.624   5.883  1.3046 -0.7598 -2.5624
  149SAPE    C316371   3.841   5.017   6.139 -0.1106 -0.5864 -1.0091
  149SAPE    HX16372   3.905   4.927   6.122 -0.6754 -0.7936 -2.2041
  149SAPE    HY16373   3.827   5.054   6.242  0.5524 -2.4709 -0.1980
  149SAPE   O3116374   3.881   5.118   6.044  0.6641  0.4331  0.4055
  149SAPE   C3116375   4.004   5.161   6.076  0.1819 -0.5811 -0.3590
  149SAPE   O3216376   4.078   5.107   6.153 -0.5237  0.2299  0.0488
  149SAPE   C3216377   4.036   5.293   6.003  0.7272 -0.1191 -0.4735
  149SAPE   H2X16378   3.976   5.373   6.051 -2.1716 -0.3423 -3.3584
  149SAPE   H2Y16379   4.001   5.275   5.899 -1.5628 -2.7979  0.6292
  149SAPE   C2316380   3.519   4.638   5.775 -0.3167 -0.2207  1.1758
  149SAPE   H3R16381   3.444   4.616   5.854  0.1593 -0.8126  1.4742
  149SAPE   H3S16382   3.550   4.540   5.732  0.5674  0.1006  1.0611
  149SAPE   C2416383   3.456   4.713   5.654 -0.0237  0.2436 -0.3795
  149SAPE   H4R16384   3.402   4.801   5.695  0.8104 -0.1832  1.7521
  149SAPE   H4S16385   3.372   4.646   5.627 -0.7851  1.5423 -1.3630
  149SAPE   C2516386   3.556   4.735   5.541  0.4264 -0.1929  0.3212
  149SAPE   H5R16387   3.654   4.766   5.579 -0.1994  2.1669  0.1842
  149SAPE   C2616388   3.543   4.694   5.415 -0.2532 -0.3642 -0.7812
  149SAPE   H6R16389   3.623   4.719   5.344  0.0434 -1.5659 -0.8923
  149SAPE   C2716390   3.415   4.630   5.356  0.0204 -0.3870 -0.0227
  149SAPE   H7R16391   3.353   4.703   5.300 -0.7659  0.0865  1.4149
  149SAPE   H7S16392   3.354   4.585   5.437 -0.5846 -0.4450 -0.5106
  149SAPE   C2816393   3.457   4.520   5.258 -0.0297  0.0659  0.0919
  149SAPE   H8R16394   3.525   4.443   5.296 -0.2411  0.7380  1.9094
  149SAPE   C2916395   3.444   4.528   5.121 -0.2972 -0.0532  0.1424
  149SAPE   H9R16396   3.482   4.444   5.061  0.6827  1.2474 -1.0935
  149SAPE  C21016397   3.387   4.637   5.033  0.1897  0.7233  0.1643
  149SAPE  H10R16398   3.320   4.706   5.090 -3.4630 -1.8487 -0.6545
  149SAPE  H10S16399   3.310   4.593   4.966  0.4842  1.7376 -0.8804
  149SAPE  C21116400   3.493   4.717   4.955 -0.3423 -0.5708  0.2274
  149SAPE  H11R16401   3.563   4.774   5.017 -1.7653 -0.4466  1.8103
  149SAPE  C21216402   3.512   4.731   4.821 -0.2334  0.1960  0.2688
  149SAPE  H12R16403   3.598   4.786   4.780 -0.2010 -1.5112 -2.1940
  149SAPE  C21316404   3.426   4.661   4.718  0.3327  0.0970  0.1582
  149SAPE  H13R16405   3.346   4.728   4.680 -0.7301 -1.2511 -0.0450
  149SAPE  H13S16406   3.371   4.579   4.768  1.6291  0.0214  1.5044
  149SAPE  C21416407   3.497   4.594   4.602  0.1033  0.6745 -0.4372
  149SAPE  H14R16408   3.536   4.494   4.626  0.1987  0.8534  0.1897
  149SAPE  C21516409   3.521   4.634   4.473 -0.2296  0.0508  0.3875
  149SAPE  H15R16410   3.564   4.576   4.390 -0.3220 -1.2666  1.2528
  149SAPE  C21616411   3.495   4.781   4.432  0.3696  0.8237 -0.7824
  149SAPE  H16R16412   3.584   4.843   4.407  0.7867  1.3620  1.7852
  149SAPE  H16S16413   3.458   4.846   4.514 -0.0192  1.5584 -1.5137
  149SAPE  C21716414   3.385   4.794   4.318  0.3548 -0.0382 -0.5611
  149SAPE  H17R16415   3.377   4.902   4.296 -1.4603  0.1918  0.9335
  149SAPE  H17S16416   3.291   4.746   4.354 -0.1366  0.5294 -1.0619
  149SAPE  C21816417   3.422   4.730   4.183  0.2183  1.0018 -0.3141
  149SAPE  H18R16418   3.449   4.622   4.187  0.0599  0.8878 -1.5997
  149SAPE  H18S16419   3.516   4.782   4.155  0.4150 -0.6996 -3.3219
  149SAPE  C21916420   3.317   4.763   4.077 -0.3723  1.3178 -0.3171
  149SAPE  H19R16421   3.297   4.872   4.070  1.8002  1.7047 -1.4970
  149SAPE  H19S16422   3.228   4.704   4.108  0.4985 -1.4268 -2.5985
  149SAPE  C22016423   3.352   4.719   3.932  0.0934 -0.7119 -0.1024
  149SAPE  H20R16424   3.446   4.763   3.892 -0.4104 -1.7056 -2.5854
  149SAPE  H20S16425   3.264   4.748   3.872 -1.0662 -0.8830  1.4500
  149SAPE  H20T16426   3.361   4.609   3.919 -0.3036 -0.6965 -0.5271
  149SAPE   C3316427   4.185   5.337   6.010  0.8165 -0.1030 -0.0480
  149SAPE   H3X16428   4.229   5.320   6.110  0.8288  1.8294  0.3208
  149SAPE   H3Y16429   4.188   5.445   5.984 -3.1049 -0.0766 -0.9627
  149SAPE   C3416430   4.273   5.258   5.911 -0.0044 -0.7697  0.5463
  149SAPE   H4X16431   4.294   5.157   5.951 -2.1197 -1.5258 -0.1243
  149SAPE   H4Y16432   4.375   5.301   5.905 -0.5816  0.8451  1.5104
  149SAPE   C3516433   4.232   5.238   5.769  0.0714 -0.3034  0.3688
  149SAPE   H5X16434   4.133   5.188   5.761 -0.7562  1.4538 -1.2219
  149SAPE   H5Y16435   4.307   5.177   5.715  0.4006  1.0474 -0.7504
  149SAPE   C3616436   4.223   5.371   5.688 -0.5013  0.4736 -0.0841
  149SAPE   H6X16437   4.314   5.431   5.709 -0.9836  1.2137 -0.0561
  149SAPE   H6Y16438   4.128   5.421   5.717 -2.6875 -2.2332 -2.0824
  149SAPE   C3716439   4.216   5.351   5.544 -0.6469 -0.3301 -0.3756
  149SAPE   H7X16440   4.307   5.299   5.506  0.0842 -0.0856  0.9475
  149SAPE   H7Y16441   4.205   5.448   5.490 -1.4504 -0.3639 -0.2836
  149SAPE   C3816442   4.099   5.266   5.508 -0.1298 -0.8435 -0.2413
  149SAPE   H8X16443   4.008   5.324   5.536  0.2393  0.0680 -0.8748
  149SAPE   H8Y16444   4.102   5.161   5.544 -1.7172 -0.5854  0.7315
  149SAPE   C3916445   4.085   5.260   5.351  0.4595  0.1282 -1.0123
  149SAPE   H9X16446   4.057   5.361   5.313 -2.0122 -0.6803 -1.5064
  149SAPE   H9Y16447   4.001   5.192   5.328  1.1967 -1.0160 -0.4149
  149SAPE  C31016448   4.208   5.215   5.275 -0.2167  0.5205 -0.5511
  149SAPE  H10X16449   4.236   5.114   5.312  1.3587  0.8243 -0.8425
  149SAPE  H10Y16450   4.298   5.278   5.288  1.4673 -1.9562  0.4096
  149SAPE  C31116451   4.173   5.220   5.123 -0.1360 -0.0728 -0.1045
  149SAPE  H11X16452   4.127   5.315   5.090  2.5909  0.6775 -2.1456
  149SAPE  H11Y16453   4.097   5.140   5.109 -1.2205  1.0299 -0.6156
  149SAPE  C31216454   4.297   5.187   5.034  0.3859 -0.4889 -0.0954
  149SAPE  H12X16455   4.345   5.089   5.054 -0.0979 -0.8914 -0.8510
  149SAPE  H12Y16456   4.376   5.264   5.035  0.1367 -0.2403  1.1150
  149SAPE  C31316457   4.248   5.203   4.886  0.4587  0.7131 -0.3998
  149SAPE  H13X16458   4.194   5.298   4.870 -1.3163 -0.3131 -0.8490
  149SAPE  H13Y16459   4.177   5.120   4.866  0.4017  0.5977  0.2487
  149SAPE  C31416460   4.370   5.207   4.792  0.3116  0.0226  0.3486
  149SAPE  H14X16461   4.439   5.123   4.815 -1.8372 -2.4522 -1.7388
  149SAPE  H14Y16462   4.420   5.305   4.804 -2.2173  1.2622  1.5887
  149SAPE  C31516463   4.338   5.211   4.637  0.4258 -0.2555 -0.9395
  149SAPE  H15X16464   4.263   5.292   4.624 -2.1281 -2.1508  0.9022
  149SAPE  H15Y16465   4.302   5.107   4.620 -0.2029  0.0855 -1.7962
  149SAPE  C31616466   4.454   5.250   4.542 -0.0221  0.7301  0.0687
  149SAPE  H16X16467   4.484   5.357   4.545 -0.2701  0.9417 -2.6689
  149SAPE  H16Y16468   4.434   5.226   4.436  0.5260 -1.1346  0.3333
  149SAPE  C31716469   4.579   5.162   4.570  0.6852 -0.3799  0.7970
  149SAPE  H17X16470   4.604   5.158   4.678  1.0889 -1.6303  0.6765
  149SAPE  H17Y16471   4.665   5.209   4.517 -0.8944 -0.8114 -2.3690
  149SAPE  C31816472   4.579   5.021   4.510  0.1137  0.1026 -0.2025
  149SAPE  H18X16473   4.678   4.974   4.530  0.1112 -0.1136 -0.6922
  149SAPE  H18Y16474   4.562   5.036   4.402  0.6629 -2.9248 -0.7924
  149SAPE  H18Z16475   4.499   4.964   4.562 -0.3856  1.3646  0.4523
  150SAPE     N16476   0.987   6.450   6.716  0.1474  0.2629 -0.0139
  150SAPE   HN116477   1.063   6.384   6.741  1.9171  1.6167 -1.5656
  150SAPE   HN216478   0.939   6.495   6.796  0.7061 -1.0612  1.0872
  150SAPE   HN316479   0.909   6.407   6.662 -1.1174  2.3876 -0.0137
  150SAPE   C1216480   1.053   6.556   6.625  0.2936  0.1848  1.1767
  150SAPE  H12A16481   0.966   6.608   6.579  0.7409 -1.3049 -1.5565
  150SAPE  H12B16482   1.102   6.500   6.542 -0.7639 -1.1670  1.4285
  150SAPE   C1116483   1.149   6.656   6.684 -0.0846 -0.0869 -0.7490
  150SAPE  H11A16484   1.085   6.700   6.763 -1.7685 -2.4075 -0.7310
  150SAPE  H11B16485   1.165   6.741   6.614 -1.9291  2.4330  1.6666
  150SAPE     P16486   1.412   6.665   6.731 -0.1417 -0.4936  0.2763
  150SAPE   O1316487   1.393   6.811   6.720 -0.4339 -0.5739  0.2896
  150SAPE   O1416488   1.490   6.607   6.844 -0.2625 -0.1478 -0.0725
  150SAPE   O1216489   1.268   6.591   6.734 -0.1830 -0.3845 -0.4519
  150SAPE   O1116490   1.477   6.622   6.600 -0.2600 -0.1737 -0.8614
  150SAPE    C116491   1.501   6.482   6.574 -0.7104  0.2433  0.2070
  150SAPE    HA16492   1.585   6.441   6.634 -0.3444  2.1030  1.0189
  150SAPE    HB16493   1.410   6.423   6.599 -0.3825  0.2407  1.4764
  150SAPE    C216494   1.528   6.458   6.426 -0.4933  0.0637  0.3169
  150SAPE    HS16495   1.627   6.500   6.398 -0.5894  0.6969  0.8972
  150SAPE   O2116496   1.432   6.505   6.338  0.2166 -0.5773 -0.4113
  150SAPE   C2116497   1.443   6.631   6.309 -0.6183  0.1104  0.2429
  150SAPE   O2216498   1.521   6.717   6.348 -0.2932  0.0390 -0.0655
  150SAPE   C2216499   1.333   6.664   6.213  0.4339  0.3357 -0.3746
  150SAPE   H2R16500   1.366   6.693   6.111  2.9440 -0.3744  0.1560
  150SAPE   H2S16501   1.272   6.574   6.188  2.0570 -0.8192 -0.3628
  150SAPE    C316502   1.551   6.308   6.394  0.1072  0.5429 -0.0158
  150SAPE    HX16503   1.462   6.248   6.426  0.3560 -0.7786 -1.6704
  150SAPE    HY16504   1.631   6.278   6.465 -0.0031 -1.0343 -0.5268
  150SAPE   O3116505   1.594   6.283   6.259  0.1219 -0.3971 -0.6678
  150SAPE   C3116506   1.517   6.221   6.176  0.0779 -0.1589 -0.0483
  150SAPE   O3216507   1.401   6.180   6.197 -0.1411  0.1498  0.3989
  150SAPE   C3216508   1.600   6.194   6.054 -0.0695 -0.7804 -0.6029
  150SAPE   H2X16509   1.528   6.132   5.997 -0.2110 -1.2442  0.0611
  150SAPE   H2Y16510   1.694   6.137   6.073  0.0071 -0.5177 -0.1796
  150SAPE   C2316511   1.243   6.757   6.292 -0.4584  0.2761  0.1561
  150SAPE   H3R16512   1.294   6.853   6.316 -1.0070  0.2906  1.3656
  150SAPE   H3S16513   1.230   6.709   6.391 -0.2299  0.1582  0.1284
  150SAPE   C2416514   1.094   6.784   6.241 -0.3014 -0.4160 -0.1843
  150SAPE   H4R16515   1.101   6.837   6.143 -1.1719 -0.4445 -0.2758
  150SAPE   H4S16516   1.042   6.850   6.314  0.9463  1.5234 -0.9661
  150SAPE   C2516517   1.006   6.661   6.232 -0.1934 -0.0652 -0.0513
  150SAPE   H5R16518   1.010   6.598   6.323  2.1039 -0.3905 -0.3367
  150SAPE   C2616519   0.923   6.623   6.130  0.2443 -0.3760  0.6471
  150SAPE   H6R16520   0.849   6.541   6.138 -0.5037 -0.0191 -1.7679
  150SAPE   C2716521   0.906   6.688   5.995 -0.5103  0.0666  0.2191
  150SAPE   H7R16522   0.971   6.639   5.919 -0.2753 -1.1089  1.1518
  150SAPE   H7S16523   0.948   6.791   6.003 -2.2426  0.8987 -0.9134
  150SAPE   C2816524   0.775   6.702   5.936  0.3563  0.4037 -0.0068
  150SAPE   H8R16525   0.690   6.693   6.006 -1.1075 -1.9532 -1.9180
  150SAPE   C2916526   0.744   6.716   5.806  0.2296 -0.4596 -0.2960
  150SAPE   H9R16527   0.643   6.719   5.763  1.6058 -0.2311 -3.8175
  150SAPE  C21016528   0.834   6.718   5.688  0.2574 -0.4312  0.3183
  150SAPE  H10R16529   0.776   6.682   5.600 -0.3504  1.0366  0.0977
  150SAPE  H10S16530   0.923   6.652   5.701  2.3280  2.1667  0.0254
  150SAPE  C21116531   0.904   6.853   5.660  0.3683  0.1136 -0.1235
  150SAPE  H11R16532   0.842   6.943   5.646  0.1739  0.0545  0.3306
  150SAPE  C21216533   1.033   6.879   5.672  0.5679 -0.6157  0.2263
  150SAPE  H12R16534   1.065   6.982   5.647 -1.7246  0.7282  2.4211
  150SAPE  C21316535   1.153   6.788   5.696 -0.4776 -0.3537  0.1716
  150SAPE  H13R16536   1.138   6.684   5.659  0.3432 -0.9327  1.3882
  150SAPE  H13S16537   1.157   6.778   5.806  0.8376  1.1226  0.3016
  150SAPE  C21416538   1.274   6.838   5.636  0.2432  0.9211  0.2630
  150SAPE  H14R16539   1.343   6.881   5.711 -1.5166  0.4254  2.2607
  150SAPE  C21516540   1.307   6.822   5.506 -0.0663 -0.2735  0.7791
  150SAPE  H15R16541   1.405   6.865   5.480 -1.2089  3.1852  1.5805
  150SAPE  C21616542   1.233   6.748   5.400  0.2623 -0.1284 -0.5413
  150SAPE  H16R16543   1.138   6.802   5.378 -0.1501 -0.2258  0.8901
  150SAPE  H16S16544   1.198   6.656   5.453  2.4260 -0.1202  1.0307
  150SAPE  C21716545   1.287   6.707   5.263  0.4524  0.8000 -0.1049
  150SAPE  H17R16546   1.218   6.653   5.194  1.2501 -0.1824 -0.1541
  150SAPE  H17S16547   1.360   6.627   5.289 -1.5349 -0.7603  0.9798
  150SAPE  C21816548   1.357   6.820   5.187  0.0159 -0.8056 -0.2313
  150SAPE  H18R16549   1.397   6.892   5.262  0.6714 -0.8026 -0.5744
  150SAPE  H18S16550   1.286   6.885   5.133 -0.5396  1.7961  3.2046
  150SAPE  C21916551   1.480   6.781   5.108 -0.2846 -0.8079 -0.5230
  150SAPE  H19R16552   1.446   6.734   5.013 -0.3763  1.1994 -1.5478
  150SAPE  H19S16553   1.546   6.708   5.159 -0.5513 -0.2536  0.6329
  150SAPE  C22016554   1.566   6.907   5.065  0.0792  0.1789 -0.8182
  150SAPE  H20R16555   1.529   6.990   5.129 -0.7233 -0.5999 -0.2441
  150SAPE  H20S16556   1.552   6.922   4.955  1.6949 -1.4974 -1.3018
  150SAPE  H20T16557   1.671   6.880   5.087 -0.8027 -1.3279  2.0039
  150SAPE   C3316558   1.623   6.320   5.969  0.5212 -0.2554  0.2533
  150SAPE   H3X16559   1.696   6.393   6.008  1.1134 -1.4530  1.4562
  150SAPE   H3Y16560   1.528   6.375   5.954  1.0000  0.4865 -0.1317
  150SAPE   C3416561   1.666   6.278   5.830 -1.2201  0.6233  0.3526
  150SAPE   H4X16562   1.682   6.361   5.759  0.3212  0.2686  0.2408
  150SAPE   H4Y16563   1.593   6.206   5.787 -0.3084 -1.5165  2.1832
  150SAPE   C3516564   1.817   6.213   5.821 -0.4689 -0.1010 -0.2440
  150SAPE   H5X16565   1.820   6.141   5.905  1.4168  0.4617  0.2390
  150SAPE   H5Y16566   1.889   6.296   5.842  0.2687 -1.1065  1.4211
  150SAPE   C3616567   1.852   6.135   5.691  0.0926 -0.2045 -0.1451
  150SAPE   H6X16568   1.786   6.046   5.691 -0.3525  0.1187  0.1047
  150SAPE   H6Y16569   1.956   6.099   5.703  0.4393  0.3087 -1.4812
  150SAPE   C3716570   1.850   6.221   5.563  0.1866 -0.8313 -0.2111
  150SAPE   H7X16571   1.934   6.293   5.563 -0.4028 -0.1153 -1.6615
  150SAPE   H7Y16572   1.760   6.286   5.556  1.1767  0.5979 -0.0241
  150SAPE   C3816573   1.853   6.138   5.430  0.7168  0.3383 -1.0951
  150SAPE   H8X16574   1.928   6.060   5.455  1.7470  1.9939  1.4235
  150SAPE   H8Y16575   1.877   6.214   5.352  0.0610  2.9256  1.0537
  150SAPE   C3916576   1.713   6.085   5.407 -0.4620  1.2599 -0.5012
  150SAPE   H9X16577   1.640   6.167   5.395  0.1038  1.8728  0.1707
  150SAPE   H9Y16578   1.681   6.017   5.489 -1.4780  1.4721 -0.7086
  150SAPE  C31016579   1.712   6.011   5.266  0.2973  0.6844  0.2668
  150SAPE  H10X16580   1.615   5.958   5.253 -0.2362  1.4966  0.8103
  150SAPE  H10Y16581   1.778   5.924   5.283 -2.0060 -1.0001  1.1470
  150SAPE  C31116582   1.750   6.089   5.141 -0.1499  0.0204 -0.2101
  150SAPE  H11X16583   1.849   6.138   5.154  0.1366  0.1932 -2.5580
  150SAPE  H11Y16584   1.684   6.177   5.124  0.6513  0.8035  0.5889
  150SAPE  C31216585   1.754   5.988   5.026 -0.0480  0.5343 -0.9119
  150SAPE  H12X16586   1.652   5.947   5.035 -0.2006  1.4112  2.7177
  150SAPE  H12Y16587   1.822   5.905   5.054  0.9037  1.3587 -0.6867
  150SAPE  C31316588   1.786   6.040   4.884  0.5262 -0.2297  1.0541
  150SAPE  H13X16589   1.873   6.109   4.892 -0.0915  0.6796  0.1589
  150SAPE  H13Y16590   1.707   6.114   4.857  2.7424  1.0239 -2.6292
  150SAPE  C31416591   1.781   5.932   4.776 -0.9426  0.0982 -0.3435
  150SAPE  H14X16592   1.836   5.844   4.816 -1.0829 -0.9543 -2.3433
  150SAPE  H14Y16593   1.832   5.965   4.683  1.4618 -0.0103  0.8386
  150SAPE  C31516594   1.644   5.881   4.745  0.1402 -0.1368  0.0159
  150SAPE  H15X16595   1.567   5.959   4.726 -1.2343 -0.8432  2.2909
  150SAPE  H15Y16596   1.615   5.820   4.833 -0.9051 -1.7104 -1.3699
  150SAPE  C31616597   1.639   5.791   4.615 -0.1822  0.0308 -0.3278
  150SAPE  H16X16598   1.706   5.709   4.648  1.3278  1.3306 -0.0154
  150SAPE  H16Y16599   1.692   5.841   4.531 -2.5657  0.0316 -1.9008
  150SAPE  C31716600   1.502   5.727   4.571 -0.5631  0.0149  0.0427
  150SAPE  H17X16601   1.477   5.782   4.478  3.2681 -0.5432 -1.4913
  150SAPE  H17Y16602   1.425   5.738   4.651  0.3455 -0.7148  1.0467
  150SAPE  C31816603   1.511   5.577   4.537  0.4511  0.6455  0.2431
  150SAPE  H18X16604   1.577   5.529   4.613  1.8210  2.0044 -0.0515
  150SAPE  H18Y16605   1.548   5.570   4.432  0.2420  0.4396  0.1787
  150SAPE  H18Z16606   1.409   5.532   4.543 -0.0092  1.8021  1.7976
  151SAPE     N16607   0.922   1.785   6.778  0.5375  0.2012 -0.4785
  151SAPE   HN116608   0.924   1.689   6.817 -1.4851 -0.0895 -0.9518
  151SAPE   HN216609   0.968   1.848   6.847  0.0307  2.0472 -1.7409
  151SAPE   HN316610   0.826   1.823   6.763 -0.0876  0.4108  3.1189
  151SAPE   C1216611   0.992   1.773   6.644 -0.3021  0.0369  0.8437
  151SAPE  H12A16612   0.990   1.872   6.593 -0.6398 -0.7385 -0.7209
  151SAPE  H12B16613   0.932   1.706   6.578  0.3735  0.4132 -0.1893
  151SAPE   C1116614   1.134   1.718   6.647 -1.2570  0.3629  0.1833
  151SAPE  H11A16615   1.174   1.703   6.544 -1.1819 -0.9084  0.3887
  151SAPE  H11B16616   1.122   1.617   6.691  0.1584  0.3038  0.4818
  151SAPE     P16617   1.303   1.915   6.670  0.3830 -0.3379  0.6797
  151SAPE   O1316618   1.265   2.031   6.754  0.0413  0.1057  0.0556
  151SAPE   O1416619   1.444   1.878   6.653 -0.7395  0.0360 -0.0226
  151SAPE   O1216620   1.216   1.797   6.733  0.0918  0.5821 -0.0944
  151SAPE   O1116621   1.247   1.941   6.521 -0.0400  0.3689 -0.5390
  151SAPE    C116622   1.305   1.884   6.402 -0.8426  0.3180 -0.7859
  151SAPE    HA16623   1.327   1.776   6.414  1.8213  0.5085 -2.9216
  151SAPE    HB16624   1.228   1.882   6.321  0.5775 -2.3789 -2.1946
  151SAPE    C216625   1.432   1.960   6.357  0.2412  0.1452 -0.1033
  151SAPE    HS16626   1.508   1.945   6.437 -1.9553  1.0361  2.2741
  151SAPE   O2116627   1.400   2.094   6.353  0.7153  1.0358 -0.1096
  151SAPE   C2116628   1.492   2.182   6.347  0.3073  0.2378 -0.6452
  151SAPE   O2216629   1.614   2.165   6.353 -0.5263 -0.2460  0.4568
  151SAPE   C2216630   1.430   2.318   6.317  0.1486 -0.7660 -0.9315
  151SAPE   H2R16631   1.341   2.319   6.383 -1.0090  0.6809 -2.4265
  151SAPE   H2S16632   1.496   2.398   6.357  0.5958 -1.4597 -0.2602
  151SAPE    C316633   1.501   1.906   6.227  0.4238  0.6204 -0.5876
  151SAPE    HX16634   1.516   1.796   6.231  0.6834  0.5785 -2.2076
  151SAPE    HY16635   1.598   1.959   6.216 -0.2828  1.8675 -1.0048
  151SAPE   O3116636   1.413   1.926   6.118 -0.6722  0.3094 -0.2093
  151SAPE   C3116637   1.470   1.863   6.005  0.2488 -0.0445  0.5216
  151SAPE   O3216638   1.578   1.803   6.008  0.0081 -0.2729  0.0338
  151SAPE   C3216639   1.391   1.897   5.881 -0.4518  0.7677 -0.2818
  151SAPE   H2X16640   1.448   1.976   5.828  1.4073 -0.2254  0.1316
  151SAPE   H2Y16641   1.291   1.936   5.908 -0.1630  2.0360 -0.9792
  151SAPE   C2316642   1.381   2.335   6.173  0.4576 -0.9574 -0.0619
  151SAPE   H3R16643   1.284   2.388   6.169  1.4632  0.9489 -1.0408
  151SAPE   H3S16644   1.369   2.239   6.118  0.2770 -0.9096 -0.1065
  151SAPE   C2416645   1.484   2.417   6.095  0.1785 -0.3243  0.7134
  151SAPE   H4R16646   1.584   2.372   6.114  1.0640  0.0699 -2.3921
  151SAPE   H4S16647   1.483   2.519   6.141 -5.3431  0.4386 -0.4000
  151SAPE   C2516648   1.461   2.433   5.942 -0.6625 -0.2765  0.5320
  151SAPE   H5R16649   1.366   2.485   5.924  0.3441  0.8963 -1.8494
  151SAPE   C2616650   1.540   2.389   5.843 -0.5177 -0.0453 -0.1668
  151SAPE   H6R16651   1.515   2.419   5.740 -0.7780  0.9651  0.1762
  151SAPE   C2716652   1.670   2.317   5.858 -0.4202 -0.3809  0.0616
  151SAPE   H7R16653   1.701   2.270   5.762 -0.8692 -0.4035 -0.0722
  151SAPE   H7S16654   1.653   2.234   5.930 -1.1637 -0.7446 -0.5251
  151SAPE   C2816655   1.781   2.413   5.902  0.2847  0.6646 -0.7301
  151SAPE   H8R16656   1.749   2.496   5.967 -1.6574 -0.5456 -0.0732
  151SAPE   C2916657   1.912   2.380   5.898 -0.3631  0.5149  0.5414
  151SAPE   H9R16658   1.975   2.464   5.930  2.9304 -0.9172 -1.6191
  151SAPE  C21016659   1.986   2.267   5.828 -0.4028  0.3263 -0.1769
  151SAPE  H10R16660   1.919   2.211   5.759 -1.2612  0.5212  0.4794
  151SAPE  H10S16661   2.012   2.203   5.915 -0.0179  0.4744 -0.1813
  151SAPE  C21116662   2.106   2.320   5.755  0.6628 -0.4732  0.3248
  151SAPE  H11R16663   2.157   2.407   5.798  1.2246  0.3145 -1.8462
  151SAPE  C21216664   2.149   2.280   5.637  0.0145  0.4326  0.1034
  151SAPE  H12R16665   2.240   2.330   5.602  0.2006  0.1058  0.1216
  151SAPE  C21316666   2.086   2.174   5.546  0.9124 -0.5139 -0.4371
  151SAPE  H13R16667   2.001   2.220   5.492 -0.3212 -0.7952  1.1796
  151SAPE  H13S16668   2.049   2.085   5.602  1.8796  0.4983  1.9666
  151SAPE  C21416669   2.190   2.125   5.448  0.1383 -0.5067  0.1231
  151SAPE  H14R16670   2.238   2.030   5.477 -0.5824 -0.7590  0.5114
  151SAPE  C21516671   2.201   2.161   5.315 -0.0772  0.0996  0.0269
  151SAPE  H15R16672   2.283   2.114   5.259 -0.6792 -2.6261  1.2287
  151SAPE  C21616673   2.124   2.275   5.251 -0.2408  0.9764  0.7383
  151SAPE  H16R16674   2.162   2.378   5.269  0.9730  0.3047  2.2742
  151SAPE  H16S16675   2.021   2.271   5.293 -1.0953  0.7545 -1.2700
  151SAPE  C21716676   2.100   2.245   5.097 -0.2761 -0.5307 -0.4225
  151SAPE  H17R16677   2.043   2.331   5.057 -0.3225  0.2301  1.2096
  151SAPE  H17S16678   2.033   2.161   5.068 -1.5525  0.0659  0.6834
  151SAPE  C21816679   2.233   2.238   5.017  0.0303 -0.8161  0.3118
  151SAPE  H18R16680   2.279   2.138   5.033 -0.1179 -1.0362 -0.5848
  151SAPE  H18S16681   2.303   2.314   5.059  1.5342 -0.9797 -1.7715
  151SAPE  C21916682   2.223   2.260   4.862 -0.4489 -0.0307 -0.2869
  151SAPE  H19R16683   2.318   2.228   4.815  0.9833 -0.0934  2.4580
  151SAPE  H19S16684   2.203   2.368   4.841  3.3892  0.9816  0.5506
  151SAPE  C22016685   2.116   2.180   4.792  0.0184 -0.3500  0.1786
  151SAPE  H20R16686   2.123   2.079   4.837  3.1249 -0.6866 -0.7698
  151SAPE  H20S16687   2.129   2.176   4.682 -1.2187 -0.5002  0.0305
  151SAPE  H20T16688   2.022   2.231   4.822 -0.0654 -0.6630  0.4543
  151SAPE   C3316689   1.385   1.779   5.786  0.3858 -0.1398 -0.7038
  151SAPE   H3X16690   1.307   1.704   5.811  1.1140  0.6150  5.2624
  151SAPE   H3Y16691   1.475   1.715   5.777 -0.1612 -1.2430  1.0418
  151SAPE   C3416692   1.360   1.824   5.641  0.5376 -0.5431  0.7763
  151SAPE   H4X16693   1.295   1.913   5.628  2.1420  0.4493 -1.0637
  151SAPE   H4Y16694   1.319   1.735   5.588  0.4584 -0.4832  0.7376
  151SAPE   C3516695   1.495   1.849   5.569  0.7161 -0.1274 -0.2946
  151SAPE   H5X16696   1.553   1.756   5.585  1.4820  0.3010 -0.4735
  151SAPE   H5Y16697   1.553   1.933   5.614 -1.0441  0.2372  1.3996
  151SAPE   C3616698   1.494   1.858   5.412  0.2654 -0.1819 -0.0035
  151SAPE   H6X16699   1.597   1.884   5.379  0.6068 -2.1160 -0.5893
  151SAPE   H6Y16700   1.425   1.940   5.385  0.7812  0.3589  0.2971
  151SAPE   C3716701   1.455   1.729   5.340  0.6073  0.5152  0.0055
  151SAPE   H7X16702   1.362   1.696   5.392  0.4076  2.1349  0.7382
  151SAPE   H7Y16703   1.543   1.663   5.356  3.1298  3.6146 -0.0560
  151SAPE   C3816704   1.436   1.749   5.192 -0.3707 -0.2625 -0.1828
  151SAPE   H8X16705   1.503   1.825   5.148  0.3965 -0.8471 -0.0431
  151SAPE   H8Y16706   1.332   1.786   5.181 -1.1813 -2.2526  0.3075
  151SAPE   C3916707   1.442   1.622   5.109  0.2667  0.0393  0.2577
  151SAPE   H9X16708   1.359   1.554   5.140 -1.1394  1.7166  0.3018
  151SAPE   H9Y16709   1.540   1.578   5.135 -0.0054  0.2844  1.7961
  151SAPE  C31016710   1.443   1.637   4.954 -0.3802  0.4483  0.1199
  151SAPE  H10X16711   1.475   1.544   4.902 -0.4295 -0.8659  2.3143
  151SAPE  H10Y16712   1.512   1.720   4.928 -1.0541  1.2259  0.7569
  151SAPE  C31116713   1.313   1.689   4.888  0.0531 -0.2848  0.0873
  151SAPE  H11X16714   1.318   1.667   4.780 -0.5495 -0.1791  0.0342
  151SAPE  H11Y16715   1.319   1.799   4.903 -1.8930  0.3298 -2.8461
  151SAPE  C31216716   1.182   1.645   4.952 -0.2624 -0.1699 -0.1939
  151SAPE  H12X16717   1.182   1.691   5.053 -1.4188 -0.8630  0.1472
  151SAPE  H12Y16718   1.188   1.534   4.957 -1.5061 -0.2052  1.1585
  151SAPE  C31316719   1.066   1.697   4.865 -0.4455  0.4190 -0.9289
  151SAPE  H13X16720   1.065   1.659   4.761 -1.7147 -0.7069 -0.5373
  151SAPE  H13Y16721   1.071   1.808   4.863  1.4159  0.3941 -0.0300
  151SAPE  C31416722   0.937   1.651   4.927 -0.2021  0.3068 -0.1392
  151SAPE  H14X16723   0.942   1.696   5.028  2.4478 -0.5736  0.2078
  151SAPE  H14Y16724   0.926   1.541   4.940 -2.0414  0.4142 -0.5017
  151SAPE  C31516725   0.818   1.702   4.853  0.4949 -0.2124  0.5404
  151SAPE  H15X16726   0.729   1.675   4.915  0.0156  0.0887 -0.0106
  151SAPE  H15Y16727   0.811   1.651   4.754 -1.8061 -0.4519  0.7696
  151SAPE  C31616728   0.817   1.857   4.828 -0.4849 -0.1494 -0.3785
  151SAPE  H16X16729   0.882   1.873   4.740 -0.7211  2.5995 -0.1354
  151SAPE  H16Y16730   0.858   1.911   4.916 -1.9048  2.2720 -1.1026
  151SAPE  C31716731   0.681   1.915   4.790 -0.0675  0.2958 -0.0567
  151SAPE  H17X16732   0.608   1.890   4.870  1.3315 -0.4086  1.0627
  151SAPE  H17Y16733   0.647   1.863   4.698 -0.8862 -1.8404  1.3837
  151SAPE  C31816734   0.669   2.065   4.780  0.0591  0.3683 -0.3774
  151SAPE  H18X16735   0.568   2.095   4.743 -0.2803  1.7473  1.4887
  151SAPE  H18Y16736   0.754   2.098   4.717  0.4544 -3.1182 -1.8723
  151SAPE  H18Z16737   0.668   2.119   4.878 -0.5776  0.6378 -0.5208
  152SAPE     N16738   1.718   3.084   6.852  1.1252 -0.1393 -0.3317
  152SAPE   HN116739   1.680   3.026   6.928  3.4317 -0.4481  0.6789
  152SAPE   HN216740   1.820   3.103   6.863  1.2509 -0.7859 -0.3849
  152SAPE   HN316741   1.659   3.168   6.837  0.2804  0.2250  3.9449
  152SAPE   C1216742   1.688   2.993   6.739  0.1757 -0.1848 -0.2681
  152SAPE  H12A16743   1.592   2.942   6.763 -0.3402  1.3299  1.0635
  152SAPE  H12B16744   1.774   2.923   6.730  0.6962  0.4729 -0.4482
  152SAPE   C1116745   1.677   3.066   6.601  1.0166 -0.3049 -0.1766
  152SAPE  H11A16746   1.584   3.125   6.613  0.8049 -0.4691 -0.9470
  152SAPE  H11B16747   1.667   2.983   6.528  2.1367 -1.3725  0.8341
  152SAPE     P16748   1.782   3.250   6.450 -0.5542 -0.0540 -0.0929
  152SAPE   O1316749   1.668   3.339   6.480  1.0534 -0.1406  0.0645
  152SAPE   O1416750   1.913   3.306   6.413  0.6028  0.6072  0.2934
  152SAPE   O1216751   1.792   3.145   6.573  0.1994  0.4715 -0.1468
  152SAPE   O1116752   1.737   3.160   6.328  0.1594 -0.1916 -0.6015
  152SAPE    C116753   1.637   3.211   6.238  0.7601 -0.3332  0.2769
  152SAPE    HA16754   1.550   3.142   6.238  1.2291 -1.0514 -2.5502
  152SAPE    HB16755   1.573   3.295   6.272  0.4615 -0.9131  1.1930
  152SAPE    C216756   1.691   3.231   6.095 -0.0662  0.0403  0.8037
  152SAPE    HS16757   1.732   3.136   6.055 -0.5148  1.0947 -2.4413
  152SAPE   O2116758   1.776   3.346   6.087 -0.0774 -0.2011 -0.0354
  152SAPE   C2116759   1.899   3.318   6.036  0.1297 -0.0983  0.7328
  152SAPE   O2216760   1.945   3.206   6.020  0.2990  0.1760  0.0557
  152SAPE   C2216761   1.964   3.449   6.007 -0.0813  1.1867  0.8945
  152SAPE   H2R16762   1.898   3.524   6.056 -2.2347  1.3656 -1.9826
  152SAPE   H2S16763   2.070   3.451   6.040 -0.2808  3.2698  1.5654
  152SAPE    C316764   1.560   3.261   6.015  0.3114  0.6164 -0.3919
  152SAPE    HX16765   1.504   3.342   6.066  2.3187  1.0024  1.3208
  152SAPE    HY16766   1.491   3.174   6.020 -0.2013  1.1051  1.5499
  152SAPE   O3116767   1.589   3.298   5.877  0.4700 -0.3318 -0.4982
  152SAPE   C3116768   1.628   3.198   5.793  0.3359  0.2370  0.0114
  152SAPE   O3216769   1.651   3.084   5.822 -0.6110 -0.1518  0.4925
  152SAPE   C3216770   1.645   3.259   5.650  0.1003  1.7777 -0.6824
  152SAPE   H2X16771   1.709   3.348   5.667  3.4371 -0.0338 -2.6064
  152SAPE   H2Y16772   1.549   3.299   5.610 -1.7883 -0.0155  1.7355
  152SAPE   C2316773   1.974   3.465   5.854  0.5535 -0.5238 -0.2518
  152SAPE   H3R16774   1.975   3.575   5.845 -0.9489 -0.5451 -1.0139
  152SAPE   H3S16775   1.886   3.441   5.791 -0.7978  2.1493  0.4827
  152SAPE   C2416776   2.099   3.398   5.790  0.5528 -0.2728  0.0713
  152SAPE   H4R16777   2.120   3.293   5.820  1.1385  0.2502  1.5771
  152SAPE   H4S16778   2.189   3.456   5.820  2.5950 -2.3339 -1.6321
  152SAPE   C2516779   2.104   3.410   5.639  0.8440  0.2674  0.2682
  152SAPE   H5R16780   2.110   3.512   5.600  0.6980  0.4159  0.6308
  152SAPE   C2616781   2.093   3.314   5.550 -0.2584  1.2546  0.4991
  152SAPE   H6R16782   2.128   3.331   5.448  2.1803 -0.6942  0.9198
  152SAPE   C2716783   2.070   3.167   5.587  0.4116 -0.5474 -0.3939
  152SAPE   H7R16784   1.971   3.129   5.553 -1.2415  2.8247  0.2758
  152SAPE   H7S16785   2.076   3.149   5.697  1.8151 -2.1935 -0.6859
  152SAPE   C2816786   2.180   3.089   5.520  0.5594 -0.2909 -0.1675
  152SAPE   H8R16787   2.261   3.054   5.586  0.0728 -3.2794 -1.0039
  152SAPE   C2916788   2.175   3.041   5.393 -1.3488  0.1640 -0.6841
  152SAPE   H9R16789   2.257   2.975   5.360 -0.1079  0.1178  2.1621
  152SAPE  C21016790   2.069   3.061   5.291  0.1098  0.0411  0.5175
  152SAPE  H10R16791   2.002   3.146   5.315 -4.0192 -2.0295 -2.4059
  152SAPE  H10S16792   2.005   2.972   5.310  1.9501 -1.1066  1.6986
  152SAPE  C21116793   2.100   3.054   5.144  0.1015  0.0760 -0.0180
  152SAPE  H11R16794   2.101   3.145   5.082  1.2890  1.6918  2.2199
  152SAPE  C21216795   2.128   2.942   5.077  0.5854  0.1759  0.7966
  152SAPE  H12R16796   2.136   2.934   4.967  0.6401 -2.5708  0.9425
  152SAPE  C21316797   2.136   2.805   5.141 -0.0141  0.9663  0.0414
  152SAPE  H13R16798   2.158   2.816   5.250  0.2603  0.0592  0.0828
  152SAPE  H13S16799   2.230   2.753   5.110 -0.3441  0.5466 -0.2594
  152SAPE  C21416800   2.033   2.699   5.123 -0.0633  0.0759  0.0262
  152SAPE  H14R16801   1.980   2.678   5.217 -1.6731 -1.0266 -1.0746
  152SAPE  C21516802   1.996   2.637   5.007 -0.3671  0.4177 -0.8312
  152SAPE  H15R16803   1.906   2.574   5.001  0.5720 -1.3019  1.5514
  152SAPE  C21616804   2.057   2.668   4.874  0.1502  0.1401 -0.7960
  152SAPE  H16R16805   2.140   2.599   4.845 -1.0288 -1.8240  0.2891
  152SAPE  H16S16806   2.095   2.772   4.873 -0.0865  0.2394  0.0114
  152SAPE  C21716807   1.952   2.654   4.757  0.3284 -0.2007  0.3390
  152SAPE  H17R16808   1.861   2.716   4.771  1.1567  1.5446 -1.5544
  152SAPE  H17S16809   1.919   2.548   4.750 -1.1633  0.3590 -2.5549
  152SAPE  C21816810   2.020   2.701   4.619  0.5614 -0.0773  0.1659
  152SAPE  H18R16811   2.130   2.683   4.614  0.7968  1.1417  0.6379
  152SAPE  H18S16812   2.004   2.810   4.604 -0.3489 -0.0750  1.0885
  152SAPE  C21916813   1.952   2.642   4.495 -0.0788  0.5972 -0.6174
  152SAPE  H19R16814   1.949   2.531   4.498 -1.4774  0.6163 -0.7921
  152SAPE  H19S16815   2.008   2.670   4.403 -0.7278  3.8010 -0.1504
  152SAPE  C22016816   1.805   2.675   4.475 -0.0240  0.5078  0.6988
  152SAPE  H20R16817   1.797   2.783   4.497  1.3484  0.2850  2.5555
  152SAPE  H20S16818   1.738   2.632   4.552 -1.0565  0.6309 -0.1168
  152SAPE  H20T16819   1.764   2.645   4.376 -0.3733 -0.0256  1.0020
  152SAPE   C3316820   1.693   3.145   5.548  0.3946 -0.0101 -0.3186
  152SAPE   H3X16821   1.771   3.077   5.588 -1.1092 -1.1508  0.8043
  152SAPE   H3Y16822   1.738   3.202   5.465  0.9705 -2.4574 -1.7961
  152SAPE   C3416823   1.574   3.070   5.492 -0.4271  0.7141 -0.0926
  152SAPE   H4X16824   1.503   3.145   5.453 -0.9220  0.0112 -0.5500
  152SAPE   H4Y16825   1.521   3.028   5.580 -0.7925  2.1853  0.4246
  152SAPE   C3516826   1.618   2.962   5.392  0.5177  1.0570  0.4538
  152SAPE   H5X16827   1.526   2.903   5.371  1.8986 -1.7680  1.8104
  152SAPE   H5Y16828   1.689   2.897   5.447 -0.6571  1.2340  2.2427
  152SAPE   C3616829   1.676   3.011   5.261  0.0043  0.1548  0.0497
  152SAPE   H6X16830   1.779   3.043   5.291  0.8147 -1.6996 -0.6125
  152SAPE   H6Y16831   1.615   3.095   5.222  2.6449  0.8518 -2.9640
  152SAPE   C3716832   1.694   2.892   5.159  0.8062  0.2147  0.2731
  152SAPE   H7X16833   1.596   2.841   5.151  1.1107 -0.5033  0.9985
  152SAPE   H7Y16834   1.753   2.818   5.217 -0.0957  0.4188  1.4936
  152SAPE   C3816835   1.754   2.917   5.019 -0.2121 -0.1339 -0.1679
  152SAPE   H8X16836   1.753   2.827   4.954  1.4867 -1.0494  0.9945
  152SAPE   H8Y16837   1.863   2.931   5.032  0.0578 -2.1911  0.2144
  152SAPE   C3916838   1.710   3.045   4.946  0.2280  0.2735 -0.1192
  152SAPE   H9X16839   1.694   3.123   5.023  1.2440 -1.0552  1.5097
  152SAPE   H9Y16840   1.616   3.009   4.898 -0.1302 -0.6716  1.2307
  152SAPE  C31016841   1.812   3.087   4.837 -0.5550 -1.2020 -0.1023
  152SAPE  H10X16842   1.808   3.001   4.767 -0.7903 -1.1500 -0.1535
  152SAPE  H10Y16843   1.914   3.091   4.880 -0.7930 -2.4978  0.6456
  152SAPE  C31116844   1.782   3.228   4.775 -0.1064  0.0658 -0.5243
  152SAPE  H11X16845   1.792   3.302   4.858 -1.8989  0.2204 -0.4138
  152SAPE  H11Y16846   1.677   3.239   4.741 -0.6074  4.0380  1.6993
  152SAPE  C31216847   1.878   3.266   4.664 -1.1060 -0.1508 -0.0088
  152SAPE  H12X16848   1.835   3.265   4.562  1.2582 -0.1336 -1.0919
  152SAPE  H12Y16849   1.952   3.183   4.673 -0.2205  0.5867 -0.2755
  152SAPE  C31316850   1.950   3.408   4.665  0.1135 -0.2024  0.1505
  152SAPE  H13X16851   1.871   3.485   4.653 -0.3688 -0.5272  1.0746
  152SAPE  H13Y16852   2.020   3.410   4.579  0.7385  1.0201  0.6643
  152SAPE  C31416853   2.010   3.439   4.800  0.0381 -0.0630 -0.1861
  152SAPE  H14X16854   2.113   3.481   4.796  0.0181  0.0632  0.4825
  152SAPE  H14Y16855   2.029   3.340   4.846 -0.5738  0.5460  1.4413
  152SAPE  C31516856   1.931   3.530   4.896  0.0620 -0.1923 -0.0895
  152SAPE  H15X16857   1.823   3.502   4.899 -0.0417  0.0592 -1.1984
  152SAPE  H15Y16858   1.927   3.638   4.872 -0.0491 -0.0807  0.4186
  152SAPE  C31616859   1.977   3.520   5.046  0.2099 -0.6860  0.9273
  152SAPE  H16X16860   2.067   3.582   5.066 -0.4706  1.1472 -1.3404
  152SAPE  H16Y16861   2.010   3.416   5.066 -0.4181 -0.7493  1.7048
  152SAPE  C31716862   1.868   3.542   5.154  0.5119 -0.6227  0.1079
  152SAPE  H17X16863   1.779   3.476   5.142 -0.0758  0.4478 -1.7817
  152SAPE  H17Y16864   1.815   3.640   5.153  0.8803 -0.3753 -2.8350
  152SAPE  C31816865   1.928   3.533   5.297 -0.3115  0.3376 -0.1853
  152SAPE  H18X16866   2.003   3.611   5.322 -0.6083  0.7997 -0.7381
  152SAPE  H18Y16867   1.976   3.433   5.306 -0.0533  0.4841  0.1204
  152SAPE  H18Z16868   1.852   3.532   5.378  0.1028 -0.4819  0.2137
  153SAPE     N16869   1.164   2.229   6.618 -0.3620  0.2988 -0.3160
  153SAPE   HN116870   1.259   2.271   6.606  0.0987 -0.8025 -0.6380
  153SAPE   HN216871   1.121   2.274   6.701 -2.1990  1.0400 -1.6099
  153SAPE   HN316872   1.176   2.130   6.646  3.7339  0.4275 -1.0382
  153SAPE   C1216873   1.087   2.252   6.491  1.1258  0.4885  0.2578
  153SAPE  H12A16874   1.161   2.238   6.409  0.3701  1.1527 -0.5496
  153SAPE  H12B16875   1.060   2.360   6.487  0.9040  0.4534  0.7672
  153SAPE   C1116876   0.968   2.156   6.474 -0.4809 -0.2342  0.8522
  153SAPE  H11A16877   1.019   2.058   6.463 -1.6529 -0.7430 -0.3969
  153SAPE  H11B16878   0.921   2.178   6.375 -3.1877 -0.3397  2.0140
  153SAPE     P16879   0.745   2.224   6.577 -0.0348 -0.2019  0.2022
  153SAPE   O1316880   0.655   2.166   6.677 -0.5501 -0.7363 -0.3365
  153SAPE   O1416881   0.786   2.369   6.595 -0.0797  0.8276  0.1994
  153SAPE   O1216882   0.874   2.149   6.576 -0.1369  0.1084  0.5223
  153SAPE   O1116883   0.695   2.212   6.429  0.6599 -0.2642 -0.2466
  153SAPE    C116884   0.612   2.092   6.403  0.0669 -0.4559  0.0776
  153SAPE    HA16885   0.531   2.069   6.475 -0.9139  0.5944 -0.6588
  153SAPE    HB16886   0.559   2.122   6.310  0.6657  1.2414  0.2409
  153SAPE    C216887   0.706   1.972   6.366 -0.5966  0.6710  0.5937
  153SAPE    HS16888   0.763   1.938   6.455 -0.5165 -1.9916 -0.4045
  153SAPE   O2116889   0.794   2.006   6.249  0.1021 -0.3586  0.0881
  153SAPE   C2116890   0.901   1.917   6.233  0.2776  0.1454  0.3531
  153SAPE   O2216891   0.937   1.843   6.324  0.5341  0.0388 -0.0112
  153SAPE   C2216892   0.975   1.950   6.101  0.1626  0.0247  0.3038
  153SAPE   H2R16893   1.078   1.910   6.117  1.5005  3.6965  2.1716
  153SAPE   H2S16894   0.940   1.896   6.010  0.7473  1.2212 -0.6583
  153SAPE    C316895   0.615   1.848   6.337 -0.0545 -0.4354 -0.1653
  153SAPE    HX16896   0.541   1.844   6.420 -1.0039 -1.9791 -1.0276
  153SAPE    HY16897   0.664   1.749   6.340  0.4656 -0.1782 -0.1143
  153SAPE   O3116898   0.531   1.877   6.219 -0.0739  0.2220  0.0778
  153SAPE   C3116899   0.579   1.820   6.111 -0.0236 -0.3994 -0.0332
  153SAPE   O3216900   0.691   1.780   6.091 -0.3499  0.0086  0.0514
  153SAPE   C3216901   0.469   1.813   6.003 -0.4544  0.1447 -0.3081
  153SAPE   H2X16902   0.427   1.916   6.003 -1.9031 -0.3944  0.9704
  153SAPE   H2Y16903   0.385   1.751   6.043  1.0101 -1.2563  0.7050
  153SAPE   C2316904   0.967   2.106   6.079  0.5174  0.5948 -0.8646
  153SAPE   H3R16905   0.991   2.160   6.173 -0.6380  0.4261 -0.4519
  153SAPE   H3S16906   0.865   2.125   6.038  0.0142  0.4809  0.3020
  153SAPE   C2416907   1.079   2.160   5.990  0.0155 -0.2931  0.9760
  153SAPE   H4R16908   1.167   2.148   6.057  0.1187  0.5563  1.0032
  153SAPE   H4S16909   1.068   2.270   5.981  1.1095 -0.3596 -2.9205
  153SAPE   C2516910   1.071   2.088   5.855  0.3559  0.2807  0.1561
  153SAPE   H5R16911   1.063   1.979   5.859  3.3473 -0.0317 -0.1912
  153SAPE   C2616912   1.092   2.139   5.731  0.3375 -0.6632  0.7176
  153SAPE   H6R16913   1.080   2.071   5.645  0.1437  0.6317 -0.3236
  153SAPE   C2716914   1.129   2.278   5.689 -0.5301  0.2057 -0.6772
  153SAPE   H7R16915   1.142   2.344   5.777  0.6609  0.0401 -0.7187
  153SAPE   H7S16916   1.049   2.331   5.632  0.3932  1.4013 -0.9048
  153SAPE   C2816917   1.252   2.270   5.600  0.3829  0.3659 -0.0657
  153SAPE   H8R16918   1.315   2.183   5.578  2.6334  1.2686  2.2197
  153SAPE   C2916919   1.304   2.375   5.540 -0.3038 -0.5526 -0.4452
  153SAPE   H9R16920   1.387   2.359   5.470  1.5660  1.0082  1.2868
  153SAPE  C21016921   1.253   2.512   5.541  1.2198  1.2301  0.4359
  153SAPE  H10R16922   1.333   2.589   5.542  4.2331 -1.6808 -0.4526
  153SAPE  H10S16923   1.201   2.528   5.638  2.5323  0.7532  1.2401
  153SAPE  C21116924   1.159   2.540   5.431 -0.0246 -0.0200  0.0836
  153SAPE  H11R16925   1.063   2.487   5.442 -0.4635  0.9573  1.1540
  153SAPE  C21216926   1.172   2.617   5.319  0.3250  0.3013  0.3553
  153SAPE  H12R16927   1.087   2.624   5.249  0.8463 -1.5903 -0.5254
  153SAPE  C21316928   1.292   2.688   5.266 -0.4356 -0.1881  0.7679
  153SAPE  H13R16929   1.345   2.622   5.194 -0.5184  0.2403  0.3066
  153SAPE  H13S16930   1.372   2.686   5.342 -0.9428 -1.7333  1.2910
  153SAPE  C21416931   1.263   2.819   5.193 -0.3252 -0.0821 -0.2347
  153SAPE  H14R16932   1.230   2.902   5.258  1.6961  0.6748 -0.1037
  153SAPE  C21516933   1.273   2.850   5.059  0.2528  1.1500  0.0801
  153SAPE  H15R16934   1.245   2.951   5.025 -2.0322  0.2087 -1.0132
  153SAPE  C21616935   1.303   2.764   4.948  0.2741  0.4395  0.3369
  153SAPE  H16R16936   1.285   2.658   4.973  0.3018  0.7995  2.0173
  153SAPE  H16S16937   1.413   2.761   4.929  0.3145  1.1786  0.4299
  153SAPE  C21716938   1.228   2.802   4.818  0.3304 -0.9532  0.4974
  153SAPE  H17R16939   1.270   2.899   4.783  2.6441 -2.1981 -0.4374
  153SAPE  H17S16940   1.119   2.802   4.840  0.2647  1.1943  0.3477
  153SAPE  C21816941   1.242   2.697   4.706  0.3956  0.9294 -0.6386
  153SAPE  H18R16942   1.198   2.748   4.618 -2.1759 -1.3801 -0.8168
  153SAPE  H18S16943   1.178   2.609   4.730 -2.7684  2.8785 -1.3543
  153SAPE  C21916944   1.382   2.660   4.657  0.1856 -0.4058  0.1446
  153SAPE  H19R16945   1.367   2.626   4.553 -1.5816 -2.3993  0.9603
  153SAPE  H19S16946   1.431   2.575   4.710  0.9061 -0.4929 -0.6587
  153SAPE  C22016947   1.468   2.786   4.641  0.3024 -0.2834 -0.2593
  153SAPE  H20R16948   1.492   2.820   4.744 -1.9463 -3.3486  1.4306
  153SAPE  H20S16949   1.421   2.876   4.597  0.3285  1.8118  3.5302
  153SAPE  H20T16950   1.567   2.774   4.592  0.4648  1.1756 -0.3250
  153SAPE   C3316951   0.527   1.758   5.869  0.6866 -0.1520  0.6727
  153SAPE   H3X16952   0.597   1.675   5.893  0.8827 -0.2788 -0.3211
  153SAPE   H3Y16953   0.589   1.832   5.813  0.5223  0.3062  1.0869
  153SAPE   C3416954   0.417   1.708   5.774 -0.5355  0.3985 -0.0370
  153SAPE   H4X16955   0.338   1.787   5.773 -1.0532 -0.0410  2.1290
  153SAPE   H4Y16956   0.370   1.616   5.812 -0.9651  0.3369 -0.6944
  153SAPE   C3516957   0.457   1.704   5.624 -0.2063  0.0994  0.5926
  153SAPE   H5X16958   0.528   1.788   5.609  0.0451 -0.2144 -0.0123
  153SAPE   H5Y16959   0.376   1.724   5.551  1.0476  1.9747 -0.3638
  153SAPE   C3616960   0.525   1.575   5.572 -0.0357  0.7087  0.3160
  153SAPE   H6X16961   0.456   1.492   5.597 -1.0830  1.8432  1.3666
  153SAPE   H6Y16962   0.623   1.566   5.624 -0.7869 -1.0865  1.4934
  153SAPE   C3716963   0.540   1.577   5.415 -0.5233 -0.2748 -0.5507
  153SAPE   H7X16964   0.632   1.637   5.397 -0.0750 -0.7763 -0.0039
  153SAPE   H7Y16965   0.456   1.629   5.365  0.3723  0.0346 -1.7780
  153SAPE   C3816966   0.556   1.438   5.359 -0.2537  0.2604  0.6594
  153SAPE   H8X16967   0.466   1.376   5.381 -1.0804  0.2459 -2.3202
  153SAPE   H8Y16968   0.649   1.394   5.401 -0.0633 -1.0315 -0.9823
  153SAPE   C3916969   0.542   1.437   5.199  0.5098  0.1152 -0.1372
  153SAPE   H9X16970   0.620   1.489   5.140  1.0041  0.0984  0.4921
  153SAPE   H9Y16971   0.448   1.492   5.179  0.4655  0.3589  0.7271
  153SAPE  C31016972   0.520   1.289   5.149 -0.5824 -0.0673  0.1250
  153SAPE  H10X16973   0.449   1.231   5.213 -2.0596  0.1840 -1.2283
  153SAPE  H10Y16974   0.615   1.232   5.149 -0.2842  0.3491  2.3032
  153SAPE  C31116975   0.479   1.287   4.992  0.3768  0.6506 -0.3792
  153SAPE  H11X16976   0.556   1.353   4.949  0.5989  0.5865 -0.0856
  153SAPE  H11Y16977   0.379   1.335   4.984 -0.5959 -0.6087  2.5810
  153SAPE  C31216978   0.470   1.143   4.936 -0.2575 -0.1256  0.2854
  153SAPE  H12X16979   0.385   1.088   4.983 -0.5030  1.8501  2.2985
  153SAPE  H12Y16980   0.569   1.097   4.954 -0.7538 -0.9303  1.0756
  153SAPE  C31316981   0.444   1.124   4.785  1.1302 -0.4400 -0.3190
  153SAPE  H13X16982   0.497   1.205   4.729  0.6738  1.5101  1.8892
  153SAPE  H13Y16983   0.337   1.128   4.755  0.8493  0.8431  0.7250
  153SAPE  C31416984   0.498   0.991   4.731  0.2655  0.1807  0.3416
  153SAPE  H14X16985   0.608   0.976   4.723  0.3568  0.5820  0.8254
  153SAPE  H14Y16986   0.468   0.986   4.624  2.0922  0.0755 -0.1998
  153SAPE  C31516987   0.437   0.871   4.803 -0.3605  0.2459 -0.4556
  153SAPE  H15X16988   0.329   0.896   4.806 -0.4021  0.0788  1.8491
  153SAPE  H15Y16989   0.487   0.879   4.903 -1.5338  1.0096  0.0987
  153SAPE  C31616990   0.452   0.730   4.737 -0.7082 -0.2882 -0.9063
  153SAPE  H16X16991   0.439   0.746   4.628 -0.1182  0.9224 -0.8137
  153SAPE  H16Y16992   0.385   0.655   4.786  0.0197 -0.7717 -0.6383
  153SAPE  C31716993   0.598   0.684   4.724  0.1491 -0.2654 -0.6546
  153SAPE  H17X16994   0.638   0.673   4.827 -1.5604  1.4852  0.2526
  153SAPE  H17Y16995   0.662   0.763   4.678  1.8713 -0.1664  1.7504
  153SAPE  C31816996   0.616   0.560   4.647 -0.0841  0.8195 -0.0581
  153SAPE  H18X16997   0.562   0.561   4.550  0.2975 -0.4341 -0.2920
  153SAPE  H18Y16998   0.583   0.468   4.700 -0.2969  1.2846  0.6288
  153SAPE  H18Z16999   0.723   0.536   4.630 -0.0911  0.8915 -0.2118
  154SAPE     N17000   1.003   2.700   6.735 -0.0820  0.0749 -0.0727
  154SAPE   HN117001   1.014   2.744   6.829 -0.1689 -4.7231  2.4563
  154SAPE   HN217002   0.929   2.750   6.681  0.4075  0.0335 -0.7984
  154SAPE   HN317003   0.971   2.603   6.753 -0.5180 -0.0497 -1.4061
  154SAPE   C1217004   1.139   2.705   6.666 -0.5726  0.3243 -0.0261
  154SAPE  H12A17005   1.125   2.699   6.556 -1.5176 -0.0627  0.1045
  154SAPE  H12B17006   1.192   2.614   6.701  1.2880  2.3013  2.7661
  154SAPE   C1117007   1.216   2.838   6.696  0.6262 -0.5308  0.1986
  154SAPE  H11A17008   1.312   2.826   6.642  0.4877 -0.2130 -0.1271
  154SAPE  H11B17009   1.234   2.836   6.805 -1.2885  1.9368  0.6629
  154SAPE     P17010   1.211   3.099   6.674  0.6199 -0.4377 -0.1715
  154SAPE   O1317011   1.107   3.198   6.715 -0.1094  0.7088  0.2884
  154SAPE   O1417012   1.336   3.090   6.759  0.1581  0.9503  0.0233
  154SAPE   O1217013   1.145   2.959   6.656  0.6838  0.4188 -0.3091
  154SAPE   O1117014   1.270   3.144   6.534 -0.3235  0.0287 -0.6257
  154SAPE    C117015   1.299   3.058   6.420  0.0939  0.3637 -0.3439
  154SAPE    HA17016   1.397   3.090   6.379  0.7029 -0.6438  0.2781
  154SAPE    HB17017   1.323   2.955   6.452 -3.0105 -0.7853 -1.2788
  154SAPE    C217018   1.193   3.059   6.313 -0.2123 -0.6002 -0.1556
  154SAPE    HS17019   1.236   3.019   6.220  2.6031 -0.7114  1.0986
  154SAPE   O2117020   1.125   3.188   6.294 -0.2257  0.0980  0.3405
  154SAPE   C2117021   1.153   3.246   6.174  0.1193  0.5719 -0.2851
  154SAPE   O2217022   1.228   3.203   6.088  0.0848 -0.7213 -0.1286
  154SAPE   C2217023   1.067   3.366   6.170  0.2325  0.2176 -0.8843
  154SAPE   H2R17024   0.970   3.349   6.221  0.4479  1.8850  0.1746
  154SAPE   H2S17025   1.122   3.452   6.214  0.3952 -0.3050 -0.0374
  154SAPE    C317026   1.082   2.955   6.348  0.2588 -0.3156  0.0853
  154SAPE    HX17027   1.025   2.997   6.435 -0.3080 -1.9595  0.5392
  154SAPE    HY17028   1.120   2.858   6.387 -1.5439 -1.4956 -0.9649
  154SAPE   O3117029   0.999   2.921   6.239 -0.2374  0.1821  0.5668
  154SAPE   C3117030   0.898   2.994   6.202 -0.0669  0.5792  0.1983
  154SAPE   O3217031   0.849   3.084   6.262 -0.3972  0.6455 -0.1112
  154SAPE   C3217032   0.845   2.941   6.058  0.2764  0.3742 -0.2081
  154SAPE   H2X17033   0.815   2.835   6.075 -2.0690  0.9009 -0.7175
  154SAPE   H2Y17034   0.925   2.940   5.981 -0.7538 -2.0535 -1.3618
  154SAPE   C2317035   1.039   3.415   6.021  1.0766 -0.0010  0.3239
  154SAPE   H3R17036   1.129   3.424   5.957  0.1357  1.4931 -0.8752
  154SAPE   H3S17037   0.994   3.516   6.033 -1.5046 -1.2831  2.6566
  154SAPE   C2417038   0.923   3.333   5.958  0.2202  0.2579 -0.9192
  154SAPE   H4R17039   0.824   3.350   6.004 -0.8851 -0.8023 -2.7580
  154SAPE   H4S17040   0.959   3.232   5.988 -0.8889 -0.2582 -1.2796
  154SAPE   C2517041   0.933   3.349   5.807  0.7967  0.2600  0.0775
  154SAPE   H5R17042   0.967   3.257   5.756  1.8392  0.0950  1.0219
  154SAPE   C2617043   0.878   3.451   5.742 -0.0203  0.0765  0.9889
  154SAPE   H6R17044   0.871   3.430   5.634  1.2501 -0.5359  1.0093
  154SAPE   C2717045   0.819   3.578   5.798 -0.1181 -0.1171 -0.6119
  154SAPE   H7R17046   0.847   3.668   5.740 -3.9320  1.5583 -0.1810
  154SAPE   H7S17047   0.869   3.604   5.893 -3.1557  0.3717  0.9981
  154SAPE   C2817048   0.670   3.602   5.805 -0.0976 -0.6603  0.1231
  154SAPE   H8R17049   0.622   3.604   5.904 -2.2941  0.8327 -0.8872
  154SAPE   C2917050   0.584   3.625   5.704 -0.9182 -0.0060  0.3495
  154SAPE   H9R17051   0.477   3.636   5.727 -1.0629  0.5050 -0.5120
  154SAPE  C21017052   0.615   3.630   5.558 -0.5590 -0.6093  0.2328
  154SAPE  H10R17053   0.565   3.543   5.511  2.1628  0.3926 -5.3060
  154SAPE  H10S17054   0.718   3.601   5.528  0.3972  2.9135 -0.4102
  154SAPE  C21117055   0.584   3.764   5.493 -0.5188  0.2963 -1.0182
  154SAPE  H11R17056   0.600   3.853   5.556  3.2581 -1.2996  0.5859
  154SAPE  C21217057   0.532   3.773   5.366 -0.2611  0.3058  0.2801
  154SAPE  H12R17058   0.536   3.873   5.321  2.2829 -0.4325 -1.3176
  154SAPE  C21317059   0.511   3.663   5.265  0.3846 -0.5921 -0.1574
  154SAPE  H13R17060   0.494   3.566   5.316 -2.8896 -0.7598 -1.3572
  154SAPE  H13S17061   0.607   3.657   5.208  0.3399  0.0372 -0.3040
  154SAPE  C21417062   0.384   3.696   5.192  0.1611  0.2919  0.0166
  154SAPE  H14R17063   0.297   3.693   5.260 -0.2812 -0.9924 -0.5713
  154SAPE  C21517064   0.373   3.716   5.063 -0.7461  0.7687 -0.1810
  154SAPE  H15R17065   0.275   3.752   5.028 -0.7580  1.8096  0.8554
  154SAPE  C21617066   0.486   3.729   4.966  0.5071  0.3831 -0.0760
  154SAPE  H16R17067   0.433   3.729   4.868  1.4969  2.4116 -0.6739
  154SAPE  H16S17068   0.535   3.629   4.957 -0.3813 -0.0226 -0.5479
  154SAPE  C21717069   0.574   3.853   4.961  0.5586  0.1065 -0.7247
  154SAPE  H17R17070   0.643   3.831   4.877  0.1811  0.3410 -1.1040
  154SAPE  H17S17071   0.624   3.864   5.060 -1.2172  1.7373  0.0608
  154SAPE  C21817072   0.496   3.981   4.936  0.3379 -0.0877  0.0405
  154SAPE  H18R17073   0.415   3.990   5.011  0.0387  0.4453 -0.3381
  154SAPE  H18S17074   0.447   3.979   4.836 -0.2941 -2.4478  0.3340
  154SAPE  C21917075   0.577   4.115   4.942  0.0685  0.8854  0.8706
  154SAPE  H19R17076   0.602   4.151   5.044  1.0264 -1.0501  1.3767
  154SAPE  H19S17077   0.512   4.197   4.906 -2.1771 -0.3284  1.9135
  154SAPE  C22017078   0.701   4.120   4.847 -0.0918  0.5127 -0.4941
  154SAPE  H20R17079   0.669   4.117   4.741 -0.6043 -2.0210 -0.3177
  154SAPE  H20S17080   0.769   4.033   4.852  0.0210  0.5430 -1.3553
  154SAPE  H20T17081   0.767   4.207   4.870  1.4603 -0.6514 -0.4134
  154SAPE   C3317082   0.722   3.028   5.993 -0.3647  0.1493 -0.5522
  154SAPE   H3X17083   0.738   3.136   6.012  1.2482 -0.2420  0.5713
  154SAPE   H3Y17084   0.626   3.003   6.042  0.7854  1.3041  2.5487
  154SAPE   C3417085   0.712   2.997   5.843  0.0666 -0.3432 -0.4828
  154SAPE   H4X17086   0.683   2.891   5.822 -0.3842 -0.3999  0.3807
  154SAPE   H4Y17087   0.808   3.035   5.801  1.1527 -0.9267  1.3547
  154SAPE   C3517088   0.600   3.081   5.772 -0.9878 -0.3051  0.3152
  154SAPE   H5X17089   0.618   3.182   5.813 -0.7282  0.1874 -0.9707
  154SAPE   H5Y17090   0.500   3.045   5.804 -1.1755 -0.5679 -0.5358
  154SAPE   C3617091   0.605   3.059   5.615  0.1129  0.1027  0.4196
  154SAPE   H6X17092   0.579   2.954   5.589  1.6625 -0.0699 -0.5042
  154SAPE   H6Y17093   0.707   3.072   5.573 -0.9291 -0.0025 -2.3646
  154SAPE   C3717094   0.499   3.148   5.549  0.1552 -0.6632  0.9248
  154SAPE   H7X17095   0.515   3.252   5.584 -1.9946 -0.2712  0.9242
  154SAPE   H7Y17096   0.395   3.125   5.582 -0.7471  1.1057 -0.4846
  154SAPE   C3817097   0.509   3.133   5.395 -0.4124  0.1362 -0.2465
  154SAPE   H8X17098   0.457   3.045   5.352  0.3383 -0.0464 -0.7920
  154SAPE   H8Y17099   0.616   3.126   5.368  0.2159  0.2140  2.0802
  154SAPE   C3917100   0.446   3.259   5.334  0.5107 -0.1712  0.9961
  154SAPE   H9X17101   0.505   3.341   5.379  1.5272 -1.3484  1.8930
  154SAPE   H9Y17102   0.345   3.264   5.379  0.9075  1.0003  1.7705
  154SAPE  C31017103   0.435   3.262   5.182 -0.7448  0.8716  0.5991
  154SAPE  H10X17104   0.374   3.349   5.151 -0.6436  0.8270  0.2692
  154SAPE  H10Y17105   0.382   3.173   5.141 -1.5704  2.0255 -0.9284
  154SAPE  C31117106   0.570   3.268   5.110 -0.5423  0.0383  0.2102
  154SAPE  H11X17107   0.634   3.178   5.116  0.4959  0.6848 -0.7019
  154SAPE  H11Y17108   0.628   3.351   5.157  1.3923 -1.0749 -0.1001
  154SAPE  C31217109   0.540   3.286   4.960  0.1578 -1.3096 -0.3080
  154SAPE  H12X17110   0.482   3.381   4.962  0.5719 -1.0581 -0.0005
  154SAPE  H12Y17111   0.486   3.199   4.917  0.9846 -0.6611 -2.8326
  154SAPE  C31317112   0.672   3.302   4.890  0.0162  0.0013 -0.1696
  154SAPE  H13X17113   0.724   3.203   4.896 -0.1345 -0.1874 -1.5305
  154SAPE  H13Y17114   0.741   3.371   4.943 -0.3899  0.5791 -0.3989
  154SAPE  C31417115   0.660   3.343   4.740 -0.4413 -0.6643 -0.2126
  154SAPE  H14X17116   0.600   3.263   4.693  0.2090 -0.6069 -1.1570
  154SAPE  H14Y17117   0.757   3.344   4.686 -0.7449 -0.5207 -0.7630
  154SAPE  C31517118   0.590   3.479   4.719 -0.1033  0.2925  0.0324
  154SAPE  H15X17119   0.638   3.554   4.786 -2.1334  1.3383  0.3961
  154SAPE  H15Y17120   0.493   3.478   4.774  1.8196  2.5670  3.9478
  154SAPE  C31617121   0.584   3.514   4.574 -0.4719 -0.0783 -0.7666
  154SAPE  H16X17122   0.535   3.435   4.513 -1.7086  0.1017 -0.0457
  154SAPE  H16Y17123   0.691   3.503   4.546  1.3306  0.7576  4.6671
  154SAPE  C31717124   0.520   3.650   4.542  0.5829  0.4752  0.1166
  154SAPE  H17X17125   0.575   3.723   4.606  1.2231  1.1486 -1.1630
  154SAPE  H17Y17126   0.413   3.654   4.573  0.6499 -0.4173  0.4873
  154SAPE  C31817127   0.529   3.692   4.397  0.5847  0.1158  0.6198
  154SAPE  H18X17128   0.469   3.625   4.331  2.8918 -1.5563  0.0968
  154SAPE  H18Y17129   0.632   3.697   4.355  1.2455  2.1510  2.3243
  154SAPE  H18Z17130   0.486   3.794   4.397  0.4933  0.1090  2.6182
  155SAPE     N17131   3.071   0.654   7.255 -0.2847  0.6052 -0.2759
  155SAPE   HN117132   3.049   0.585   7.180 -0.5281  1.2823 -0.8371
  155SAPE   HN217133   3.142   0.608   7.316  1.4324  1.3753 -1.5902
  155SAPE   HN317134   2.986   0.675   7.311  0.8770  1.7889  1.1108
  155SAPE   C1217135   3.114   0.791   7.204 -0.0332  0.1147  0.3428
  155SAPE  H12A17136   3.222   0.786   7.178  0.2749  0.5647  1.4548
  155SAPE  H12B17137   3.120   0.864   7.287  0.4477  0.3573  0.0950
  155SAPE   C1117138   3.029   0.829   7.088  0.3446 -0.4479  0.8706
  155SAPE  H11A17139   3.002   0.752   7.012 -1.5153 -0.4898  1.5161
  155SAPE  H11B17140   3.087   0.908   7.036  1.1479 -0.6289  1.4846
  155SAPE     P17141   2.823   0.991   7.076 -0.0581 -0.0150  0.5254
  155SAPE   O1317142   2.683   0.992   7.117  0.1244 -0.5999 -0.3106
  155SAPE   O1417143   2.910   1.112   7.105 -0.0503  0.7902  0.1951
  155SAPE   O1217144   2.899   0.872   7.131 -0.2853 -0.7006 -1.0229
  155SAPE   O1117145   2.829   0.962   6.917  0.4490  0.4295 -0.1864
  155SAPE    C117146   2.767   0.843   6.866  0.2936  0.5126 -0.4150
  155SAPE    HA17147   2.816   0.750   6.901 -0.1114  0.6935  0.6560
  155SAPE    HB17148   2.669   0.830   6.916 -0.4539 -1.0292 -2.1782
  155SAPE    C217149   2.768   0.841   6.714 -0.1791 -0.6304  0.8433
  155SAPE    HS17150   2.730   0.745   6.673  1.0765 -0.8271  0.0837
  155SAPE   O2117151   2.899   0.856   6.663 -0.7991  0.0165  0.5498
  155SAPE   C2117152   2.975   0.745   6.670  0.2566  0.2183 -0.5025
  155SAPE   O2217153   2.935   0.641   6.713  0.4955  0.3536 -0.2511
  155SAPE   C2217154   3.115   0.757   6.617 -0.1931 -1.0700 -0.1327
  155SAPE   H2R17155   3.123   0.858   6.570 -2.9314 -0.0934  1.3160
  155SAPE   H2S17156   3.185   0.756   6.703 -2.4207 -2.2338  1.7721
  155SAPE    C317157   2.674   0.956   6.671 -0.1148  0.4824  0.8055
  155SAPE    HX17158   2.723   1.053   6.694  0.2402  1.3056 -2.7772
  155SAPE    HY17159   2.571   0.942   6.711 -0.3547  0.4205  0.1863
  155SAPE   O3117160   2.656   0.950   6.530  0.2781 -0.7192  0.2110
  155SAPE   C3117161   2.746   1.013   6.450  0.4930 -0.1227 -0.1115
  155SAPE   O3217162   2.839   1.080   6.489 -0.4987  0.3004 -0.0913
  155SAPE   C3217163   2.696   0.992   6.307 -0.7166 -0.0916  0.1484
  155SAPE   H2X17164   2.617   1.068   6.292 -1.8859 -0.9810  1.4570
  155SAPE   H2Y17165   2.641   0.896   6.301 -1.4200  0.3758 -1.2890
  155SAPE   C2317166   3.167   0.637   6.536 -0.2519 -0.5833 -0.6272
  155SAPE   H3R17167   3.168   0.544   6.597  1.2635 -0.9540 -1.1698
  155SAPE   H3S17168   3.273   0.651   6.506 -0.5676  2.4601 -0.6934
  155SAPE   C2417169   3.083   0.599   6.417 -0.2040 -0.2989  0.3630
  155SAPE   H4R17170   2.979   0.565   6.438 -0.1731 -1.2602 -0.9185
  155SAPE   H4S17171   3.118   0.504   6.372  0.4845 -0.0150  0.2757
  155SAPE   C2517172   3.091   0.709   6.319  0.2350 -0.1777  0.2314
  155SAPE   H5R17173   3.051   0.802   6.361  0.2001 -0.2273  0.3080
  155SAPE   C2617174   3.136   0.704   6.193 -0.3005 -0.1142 -0.6377
  155SAPE   H6R17175   3.141   0.802   6.142 -0.7675  0.1788 -0.1295
  155SAPE   C2717176   3.205   0.584   6.129  1.0360 -0.5711 -0.1411
  155SAPE   H7R17177   3.156   0.557   6.033  0.5816  2.1346 -0.7448
  155SAPE   H7S17178   3.215   0.500   6.201 -1.1092  0.1536  1.0967
  155SAPE   C2817179   3.340   0.632   6.083  0.4680 -0.1631  0.6242
  155SAPE   H8R17180   3.407   0.676   6.158 -0.9841 -0.3908  2.1288
  155SAPE   C2917181   3.397   0.613   5.964 -1.0852  0.1497 -1.0539
  155SAPE   H9R17182   3.500   0.645   5.943 -0.2491 -2.0691 -0.5862
  155SAPE  C21017183   3.343   0.557   5.837  0.9131 -0.1513  0.1249
  155SAPE  H10R17184   3.284   0.464   5.852  0.6283  0.2366  1.5087
  155SAPE  H10S17185   3.422   0.526   5.764  0.5737 -0.3423 -0.1648
  155SAPE  C21117186   3.262   0.671   5.777  0.3794  0.1526 -1.0790
  155SAPE  H11R17187   3.206   0.733   5.848  1.2497 -2.3808  2.1146
  155SAPE  C21217188   3.262   0.713   5.649 -0.2426 -0.5564  0.1316
  155SAPE  H12R17189   3.205   0.802   5.617 -0.3038 -0.2088  1.1746
  155SAPE  C21317190   3.338   0.649   5.537  0.2963  0.3671  0.3910
  155SAPE  H13R17191   3.267   0.623   5.455  0.1481 -0.1603  0.6820
  155SAPE  H13S17192   3.381   0.551   5.567 -2.3075 -0.6001  1.2242
  155SAPE  C21417193   3.459   0.728   5.490 -0.9550  0.4323 -0.3894
  155SAPE  H14R17194   3.551   0.705   5.544  0.6858  0.3053 -3.0583
  155SAPE  C21517195   3.459   0.811   5.386 -0.3708 -0.5837  0.2172
  155SAPE  H15R17196   3.554   0.857   5.358  0.7129 -3.6196 -1.5915
  155SAPE  C21617197   3.345   0.846   5.293 -1.0153  0.2262 -0.0310
  155SAPE  H16R17198   3.339   0.955   5.273  0.0708  0.7521  2.2099
  155SAPE  H16S17199   3.247   0.819   5.338 -0.6607 -2.3511 -0.6409
  155SAPE  C21717200   3.346   0.777   5.156 -1.2947  0.2259  0.4219
  155SAPE  H17R17201   3.358   0.670   5.186  1.9996  0.3363 -0.1330
  155SAPE  H17S17202   3.438   0.810   5.103 -0.7981 -1.4912  0.1421
  155SAPE  C21817203   3.225   0.805   5.063 -0.5819 -0.3740  0.5262
  155SAPE  H18R17204   3.128   0.792   5.115 -1.2248 -0.1715 -0.6139
  155SAPE  H18S17205   3.223   0.731   4.980 -0.2522 -0.3663  0.5074
  155SAPE  C21917206   3.205   0.952   5.010 -0.3094 -0.0283  0.3235
  155SAPE  H19R17207   3.275   0.983   4.930  2.0072 -3.0063  0.9805
  155SAPE  H19S17208   3.213   1.021   5.097 -0.0067 -0.8853  0.9913
  155SAPE  C22017209   3.062   0.967   4.956  0.7068  0.8762  0.0055
  155SAPE  H20R17210   2.985   0.945   5.033 -0.1018 -0.5296 -1.1572
  155SAPE  H20S17211   3.047   0.892   4.875 -3.0392  2.3634 -0.9009
  155SAPE  H20T17212   3.047   1.063   4.903 -1.8207  0.9001  0.6146
  155SAPE   C3317213   2.809   1.002   6.206  0.0742 -0.1202 -0.8336
  155SAPE   H3X17214   2.882   0.920   6.224 -1.0585 -0.7110  1.4019
  155SAPE   H3Y17215   2.853   1.100   6.231 -1.3343  0.2221  0.4634
  155SAPE   C3417216   2.762   1.002   6.058  0.6216 -0.4471  0.3118
  155SAPE   H4X17217   2.719   1.100   6.027 -1.6577 -1.4374  0.1384
  155SAPE   H4Y17218   2.687   0.921   6.058  2.0176 -1.7719  0.3900
  155SAPE   C3517219   2.862   0.976   5.951 -0.6126  0.7441  0.5595
  155SAPE   H5X17220   2.908   0.877   5.972 -1.8776 -0.0623 -0.3159
  155SAPE   H5Y17221   2.941   1.053   5.961  0.9078 -0.7818  0.8749
  155SAPE   C3617222   2.818   0.994   5.805  0.5953  0.8163 -0.1561
  155SAPE   H6X17223   2.765   1.091   5.801  1.6711  1.3915 -1.7919
  155SAPE   H6Y17224   2.741   0.919   5.779 -1.1434  2.3265  0.4594
  155SAPE   C3717225   2.936   0.992   5.704 -0.0861  0.3242 -0.2982
  155SAPE   H7X17226   2.993   0.897   5.713 -2.3692 -1.0374  0.6858
  155SAPE   H7Y17227   3.006   1.074   5.732  0.2144  0.2957 -0.9527
  155SAPE   C3817228   2.895   1.015   5.559 -0.3823  0.5693  0.0080
  155SAPE   H8X17229   2.814   1.091   5.565 -0.2525  0.6032  2.6876
  155SAPE   H8Y17230   2.851   0.920   5.523 -0.3785  0.9401 -0.9946
  155SAPE   C3917231   3.021   1.051   5.468  0.6674  0.4711  0.3679
  155SAPE   H9X17232   3.103   0.976   5.475 -0.5564 -0.7488  3.7321
  155SAPE   H9Y17233   3.054   1.153   5.495  0.5564  1.0306 -1.4694
  155SAPE  C31017234   2.970   1.055   5.325 -0.0953 -1.1191  0.2801
  155SAPE  H10X17235   2.922   0.959   5.296  0.7555 -1.6098  0.4678
  155SAPE  H10Y17236   3.066   1.076   5.273  0.5456 -0.9333  1.5028
  155SAPE  C31117237   2.881   1.175   5.284  0.3737  0.2885 -0.1635
  155SAPE  H11X17238   2.907   1.267   5.341  0.0594 -0.5924  1.4811
  155SAPE  H11Y17239   2.776   1.154   5.312  0.0029  1.7684 -0.3888
  155SAPE  C31217240   2.868   1.189   5.129  1.2702  0.0463  0.1342
  155SAPE  H12X17241   2.829   1.098   5.079 -0.6833  0.9288 -0.0435
  155SAPE  H12Y17242   2.965   1.221   5.084 -0.0528 -0.0581 -3.0289
  155SAPE  C31317243   2.765   1.296   5.076 -0.3339 -0.1491  0.0701
  155SAPE  H13X17244   2.794   1.386   5.134 -1.9106  0.7798 -0.5469
  155SAPE  H13Y17245   2.662   1.279   5.114 -1.1483 -1.5356 -2.5420
  155SAPE  C31417246   2.770   1.328   4.925  0.0217 -0.8022 -0.3583
  155SAPE  H14X17247   2.876   1.340   4.893 -0.1374  4.6239  0.2554
  155SAPE  H14Y17248   2.725   1.427   4.904  0.1050 -0.3386  1.4599
  155SAPE  C31517249   2.702   1.229   4.823  0.3432 -0.1593 -0.0677
  155SAPE  H15X17250   2.608   1.190   4.865  1.0354 -1.7171  0.0914
  155SAPE  H15Y17251   2.769   1.140   4.822 -0.5301 -0.8258  0.0233
  155SAPE  C31617252   2.679   1.277   4.681 -0.6387 -0.2882 -0.6663
  155SAPE  H16X17253   2.638   1.192   4.622 -0.1467 -0.6337 -0.5158
  155SAPE  H16Y17254   2.776   1.307   4.636  0.2099 -1.6415  0.1920
  155SAPE  C31717255   2.579   1.387   4.678 -0.4266 -0.0203 -0.0004
  155SAPE  H17X17256   2.577   1.419   4.572  1.3752  2.6706  0.6706
  155SAPE  H17Y17257   2.611   1.479   4.732  1.1083 -1.0597  0.9393
  155SAPE  C31817258   2.440   1.339   4.728 -0.3520 -0.0636 -0.0536
  155SAPE  H18X17259   2.431   1.348   4.838  1.2676 -1.6312  0.2525
  155SAPE  H18Y17260   2.415   1.233   4.707 -0.3648 -0.3179  1.1716
  155SAPE  H18Z17261   2.359   1.403   4.689 -0.0262 -0.5791 -1.6496
  156SAPE     N17262   2.435   1.837   6.990  0.1946 -0.2293 -0.2059
  156SAPE   HN117263   2.440   1.739   6.955  0.4453 -0.2911 -0.0105
  156SAPE   HN217264   2.436   1.908   6.914  0.3223 -0.1274 -0.1102
  156SAPE   HN317265   2.532   1.838   7.028 -0.0421 -0.1827  0.4153
  156SAPE   C1217266   2.332   1.864   7.096 -1.0438 -0.4786 -0.1420
  156SAPE  H12A17267   2.367   1.952   7.154  2.1548 -0.3960 -1.9663
  156SAPE  H12B17268   2.337   1.777   7.165  0.0567 -1.4640 -1.3887
  156SAPE   C1117269   2.196   1.872   7.022 -0.9485  0.2461  0.4741
  156SAPE  H11A17270   2.211   1.955   6.950 -2.2058  0.7971  0.8311
  156SAPE  H11B17271   2.119   1.896   7.099 -0.5782  0.9295  0.6420
  156SAPE     P17272   2.076   1.767   6.822 -0.2087  0.0407  0.0326
  156SAPE   O1317273   2.038   1.635   6.778 -0.3636  0.0244  0.0927
  156SAPE   O1417274   1.962   1.866   6.836  0.4676 -0.3131 -0.0930
  156SAPE   O1217275   2.161   1.754   6.951 -0.0934 -0.1678  0.1514
  156SAPE   O1117276   2.172   1.834   6.718  0.2652 -0.1987  0.5321
  156SAPE    C117277   2.286   1.783   6.644 -0.1456  0.6371 -0.3533
  156SAPE    HA17278   2.360   1.865   6.641 -0.4032  0.8565 -0.7087
  156SAPE    HB17279   2.335   1.700   6.702  1.4886  2.7540  1.5001
  156SAPE    C217280   2.272   1.745   6.491  0.2248  1.1559 -0.0802
  156SAPE    HS17281   2.367   1.697   6.461 -0.1339  0.7903 -0.6472
  156SAPE   O2117282   2.226   1.854   6.413 -0.3011 -0.2081 -0.2167
  156SAPE   C2117283   2.303   1.878   6.305  0.3435  0.8802  0.2909
  156SAPE   O2217284   2.397   1.808   6.272 -0.1892 -0.2124  0.3064
  156SAPE   C2217285   2.265   2.003   6.232 -0.1019  0.0737 -0.0376
  156SAPE   H2R17286   2.167   2.036   6.272  0.1196 -1.1520  1.6718
  156SAPE   H2S17287   2.347   2.070   6.266  0.0116 -1.1235  2.3432
  156SAPE    C317288   2.163   1.629   6.468  0.5615  0.5581  0.0638
  156SAPE    HX17289   2.065   1.656   6.511 -0.1728 -3.5990  1.4404
  156SAPE    HY17290   2.194   1.538   6.525  0.9631 -0.7551 -2.1300
  156SAPE   O3117291   2.146   1.608   6.318  0.2487 -0.5213 -0.3584
  156SAPE   C3117292   2.171   1.487   6.278 -0.0659  0.4711  0.0759
  156SAPE   O3217293   2.231   1.401   6.341  0.2549  0.0999  0.0305
  156SAPE   C3217294   2.114   1.471   6.140 -0.1943 -0.8600 -0.5873
  156SAPE   H2X17295   2.095   1.571   6.095  0.8352 -0.5686 -0.3881
  156SAPE   H2Y17296   2.021   1.410   6.149 -0.3237 -0.4329  1.3633
  156SAPE   C2317297   2.267   1.990   6.079 -0.3617  0.1735 -0.8075
  156SAPE   H3R17298   2.364   1.968   6.030 -0.4139  1.8692 -1.7696
  156SAPE   H3S17299   2.235   2.084   6.030  1.4998 -0.2717 -3.0349
  156SAPE   C2417300   2.174   1.879   6.029 -0.2235  0.1019  0.6895
  156SAPE   H4R17301   2.200   1.784   6.081  1.5328 -0.2795 -0.7764
  156SAPE   H4S17302   2.200   1.854   5.924  0.9863  1.9917  0.4936
  156SAPE   C2517303   2.028   1.910   6.040 -0.1152 -0.3395  0.9178
  156SAPE   H5R17304   1.993   1.947   6.137 -1.9488 -1.6991  0.8193
  156SAPE   C2617305   1.938   1.898   5.939  1.2253  0.4128  0.0646
  156SAPE   H6R17306   1.834   1.928   5.959  1.1059  1.9468 -2.3974
  156SAPE   C2717307   1.973   1.864   5.797 -0.2738 -0.4801  0.0897
  156SAPE   H7R17308   2.069   1.911   5.765 -0.7489  2.5091  2.5741
  156SAPE   H7S17309   1.895   1.915   5.737  2.5678  1.7778 -1.9801
  156SAPE   C2817310   1.976   1.716   5.778  0.2303 -0.0520  0.3181
  156SAPE   H8R17311   2.037   1.671   5.857  1.1449  0.2858 -0.1790
  156SAPE   C2917312   1.906   1.647   5.683 -0.4917  0.7009 -0.2708
  156SAPE   H9R17313   1.910   1.537   5.692  1.4386  0.8096  0.5610
  156SAPE  C21017314   1.835   1.710   5.568  0.5393  0.0124 -0.0356
  156SAPE  H10R17315   1.754   1.776   5.609  0.4754  0.2470 -0.5344
  156SAPE  H10S17316   1.778   1.635   5.510 -2.8629  1.4563  1.1280
  156SAPE  C21117317   1.922   1.799   5.474  0.4473 -0.1188 -0.1258
  156SAPE  H11R17318   1.967   1.888   5.520 -2.7768  1.7224 -0.2080
  156SAPE  C21217319   1.954   1.778   5.344 -0.1880  0.4682 -0.4895
  156SAPE  H12R17320   1.999   1.867   5.298 -1.8566  0.4996 -2.1705
  156SAPE  C21317321   1.898   1.668   5.253  0.0969 -0.8638  0.0955
  156SAPE  H13R17322   1.841   1.590   5.308 -3.0174  0.6463 -0.7653
  156SAPE  H13S17323   1.976   1.616   5.194 -1.3991 -1.9268 -1.0154
  156SAPE  C21417324   1.803   1.723   5.150 -0.0694 -1.2230  0.1794
  156SAPE  H14R17325   1.700   1.747   5.179 -0.8303 -1.1364 -2.3491
  156SAPE  C21517326   1.829   1.752   5.018  0.4493 -0.6177 -0.3169
  156SAPE  H15R17327   1.741   1.786   4.961 -0.5465 -1.5753  0.5949
  156SAPE  C21617328   1.959   1.733   4.942  1.0366  0.2241 -0.1790
  156SAPE  H16R17329   2.043   1.696   5.004  2.4597  1.6002 -1.1868
  156SAPE  H16S17330   1.986   1.833   4.901  0.6744  0.5937  0.4695
  156SAPE  C21717331   1.930   1.647   4.820 -0.1665  0.3385 -0.2541
  156SAPE  H17R17332   2.024   1.651   4.760  0.3918  2.5511  0.6858
  156SAPE  H17S17333   1.852   1.700   4.762  1.4904  1.4067 -1.5802
  156SAPE  C21817334   1.879   1.503   4.843 -0.6043 -0.3108  0.4141
  156SAPE  H18R17335   1.778   1.515   4.886 -0.0679  0.6262  1.4914
  156SAPE  H18S17336   1.951   1.455   4.914  0.9458  1.3477  0.0455
  156SAPE  C21917337   1.874   1.426   4.709  0.1704  1.1431  0.0004
  156SAPE  H19R17338   1.860   1.322   4.744 -0.8991  1.4548  0.5457
  156SAPE  H19S17339   1.976   1.437   4.667  0.9947 -2.9853  0.5330
  156SAPE  C22017340   1.762   1.462   4.617  0.3920  0.1308  0.3745
  156SAPE  H20R17341   1.728   1.365   4.573 -0.1562  0.9606 -1.0895
  156SAPE  H20S17342   1.788   1.532   4.535 -2.1537  1.3710  0.5255
  156SAPE  H20T17343   1.691   1.516   4.683  0.5141  0.7086  0.0344
  156SAPE   C3317344   2.212   1.393   6.047 -0.3721 -1.2559  0.0626
  156SAPE   H3X17345   2.143   1.336   5.982  0.1294 -0.6163 -1.0590
  156SAPE   H3Y17346   2.272   1.321   6.106  0.9798  0.0243  0.3164
  156SAPE   C3417347   2.289   1.490   5.958  0.2180  0.0720  0.6809
  156SAPE   H4X17348   2.373   1.537   6.014  1.7670 -1.5606 -0.1600
  156SAPE   H4Y17349   2.223   1.570   5.919 -0.3680 -0.7840 -0.1434
  156SAPE   C3517350   2.348   1.419   5.834  0.8937 -0.2665  0.8451
  156SAPE   H5X17351   2.382   1.314   5.851  0.0137 -0.5772  0.7056
  156SAPE   H5Y17352   2.440   1.472   5.800  1.5120 -1.2236  0.9793
  156SAPE   C3617353   2.242   1.419   5.712 -0.6269  0.4286 -0.4559
  156SAPE   H6X17354   2.214   1.526   5.704  0.1156  0.6297 -0.5105
  156SAPE   H6Y17355   2.157   1.355   5.744  1.4585 -1.7001  1.2138
  156SAPE   C3717356   2.294   1.378   5.579 -0.7403  0.7487  0.4445
  156SAPE   H7X17357   2.326   1.272   5.581  0.5245  1.0031 -2.1075
  156SAPE   H7Y17358   2.387   1.437   5.562 -1.0010  0.7048 -1.2831
  156SAPE   C3817359   2.201   1.399   5.457 -0.2269  0.2149 -0.4549
  156SAPE   H8X17360   2.200   1.509   5.451  1.2432  0.3349  0.8508
  156SAPE   H8Y17361   2.105   1.349   5.482  0.9194 -1.9756 -0.1773
  156SAPE   C3917362   2.266   1.330   5.338  0.0583 -0.0067  0.2293
  156SAPE   H9X17363   2.261   1.221   5.359 -2.3803 -0.3366 -1.5873
  156SAPE   H9Y17364   2.373   1.357   5.330  0.1961 -0.7268 -0.5961
  156SAPE  C31017365   2.197   1.355   5.200 -0.3328 -0.4316  0.9028
  156SAPE  H10X17366   2.251   1.441   5.155 -0.8553 -0.0559  0.9940
  156SAPE  H10Y17367   2.094   1.392   5.213 -0.2912  0.7591 -1.4833
  156SAPE  C31117368   2.213   1.242   5.094 -0.2620  0.3489 -1.0995
  156SAPE  H11X17369   2.166   1.158   5.150  0.9606  0.4369  0.1140
  156SAPE  H11Y17370   2.318   1.208   5.078  0.4332  1.6893  0.3885
  156SAPE  C31217371   2.137   1.256   4.964 -0.5836 -0.2545 -0.0240
  156SAPE  H12X17372   2.164   1.354   4.918 -0.5523 -0.1565  0.2021
  156SAPE  H12Y17373   2.029   1.266   4.988 -0.3335  1.9597  0.4478
  156SAPE  C31317374   2.156   1.134   4.874 -0.4089 -0.0203  0.2512
  156SAPE  H13X17375   2.110   1.042   4.915  1.9405 -1.0035  0.8807
  156SAPE  H13Y17376   2.264   1.108   4.877 -0.5970 -0.8040  0.4736
  156SAPE  C31417377   2.119   1.151   4.725  0.2440 -0.7346  0.3401
  156SAPE  H14X17378   2.169   1.243   4.689 -1.8396  0.2241 -0.2425
  156SAPE  H14Y17379   2.009   1.159   4.727  0.2546 -0.1071 -0.7216
  156SAPE  C31517380   2.160   1.043   4.621 -0.3239 -0.3323  0.1526
  156SAPE  H15X17381   2.105   0.948   4.638 -2.1334  0.2183 -2.1005
  156SAPE  H15Y17382   2.269   1.024   4.635  0.8527  1.5391 -4.5257
  156SAPE  C31617383   2.135   1.071   4.474 -0.6755  0.1341 -1.4002
  156SAPE  H16X17384   2.212   1.016   4.416  1.0225 -1.1389  1.8072
  156SAPE  H16Y17385   2.144   1.179   4.448  0.4864  0.3942 -0.0218
  156SAPE  C31717386   1.993   1.034   4.427 -0.0523 -0.6064 -0.4745
  156SAPE  H17X17387   1.923   1.095   4.488 -1.8431 -1.8514 -1.2204
  156SAPE  H17Y17388   1.981   0.926   4.453 -0.8888 -0.2467  0.7337
  156SAPE  C31817389   1.941   1.044   4.282 -0.1510  0.2343 -0.3545
  156SAPE  H18X17390   2.002   0.987   4.208 -0.9368 -1.2163  0.0747
  156SAPE  H18Y17391   1.924   1.151   4.256 -2.1379  0.5894  2.0398
  156SAPE  H18Z17392   1.836   1.008   4.280 -0.5408  1.0393  1.9546
  157SAPE     N17393   1.655   6.769   7.054  0.4282 -0.4925  0.5154
  157SAPE   HN117394   1.590   6.730   7.125  1.0206 -2.8301 -0.1111
  157SAPE   HN217395   1.656   6.699   6.976 -2.1424 -0.7792  0.6422
  157SAPE   HN317396   1.747   6.793   7.093 -0.2555  1.3761  1.0495
  157SAPE   C1217397   1.606   6.902   7.001 -0.0501 -0.0956  0.3805
  157SAPE  H12A17398   1.567   6.956   7.090 -0.2721  0.8752 -0.2913
  157SAPE  H12B17399   1.512   6.876   6.947 -0.3916 -1.1121  1.4166
  157SAPE   C1117400   1.720   6.980   6.922 -0.2622  0.4412  0.3741
  157SAPE  H11A17401   1.680   7.082   6.902 -0.4439  0.3039  0.0477
  157SAPE  H11B17402   1.735   6.933   6.823 -1.8528 -0.9435  0.7410
  157SAPE     P17403   1.909   7.122   7.037  0.2876 -0.0590 -0.6567
  157SAPE   O1317404   1.835   7.201   7.136  0.0839  0.1319  0.3589
  157SAPE   O1417405   2.045   7.091   7.081  0.1923  0.1325  0.2215
  157SAPE   O1217406   1.837   6.993   6.998  0.6103 -0.0199 -0.6752
  157SAPE   O1117407   1.912   7.197   6.898  0.7552  0.0353 -0.0988
  157SAPE    C117408   2.007   7.139   6.802 -0.1812 -0.1567  0.5645
  157SAPE    HA17409   2.106   7.185   6.824 -0.1384  1.0171 -1.8200
  157SAPE    HB17410   2.028   7.030   6.811  1.8107  0.1728  0.3498
  157SAPE    C217411   1.973   7.179   6.659 -0.5386 -0.3526  0.1160
  157SAPE    HS17412   1.882   7.125   6.627 -1.9236  1.6696  0.4683
  157SAPE   O2117413   2.084   7.149   6.578 -0.0362 -0.3416  0.3410
  157SAPE   C2117414   2.093   7.027   6.540  0.3189  0.1441 -0.5560
  157SAPE   O2217415   2.017   6.933   6.567 -0.1642  0.2310  0.8213
  157SAPE   C2217416   2.219   7.006   6.456  0.1996  0.3183  0.5331
  157SAPE   H2R17417   2.301   7.039   6.524  0.2614  1.1087  0.0818
  157SAPE   H2S17418   2.233   6.897   6.438 -0.2634 -0.2370  3.0872
  157SAPE    C317419   1.944   7.330   6.643 -0.1816  0.0472  0.1780
  157SAPE    HX17420   2.034   7.388   6.674 -0.3170  1.5698 -2.0405
  157SAPE    HY17421   1.858   7.344   6.712  0.3892  1.7522  0.6028
  157SAPE   O3117422   1.894   7.367   6.514 -0.2597  0.3543 -0.2991
  157SAPE   C3117423   1.973   7.447   6.446 -0.1473 -0.0452  0.0380
  157SAPE   O3217424   2.050   7.530   6.490  0.1210  0.4366 -0.7445
  157SAPE   C3217425   1.958   7.399   6.300  0.3538 -0.4337  0.0640
  157SAPE   H2X17426   1.854   7.413   6.265 -0.4576 -0.4428  2.3147
  157SAPE   H2Y17427   1.981   7.291   6.295  0.1437 -0.4779  0.0549
  157SAPE   C2317428   2.229   7.098   6.337  0.2575 -0.5685  0.4103
  157SAPE   H3R17429   2.206   7.205   6.356  0.5530 -0.4536  0.1448
  157SAPE   H3S17430   2.154   7.062   6.262 -1.8409  0.6420  1.8095
  157SAPE   C2417431   2.366   7.094   6.280  0.6822 -1.0333  0.1804
  157SAPE   H4R17432   2.432   7.089   6.369  2.1403  1.8964 -0.6202
  157SAPE   H4S17433   2.385   7.197   6.243  2.0444 -1.0994  0.6378
  157SAPE   C2517434   2.386   6.988   6.179 -0.2419  0.3982 -0.2666
  157SAPE   H5R17435   2.393   6.881   6.205 -1.5363  0.4277  0.2765
  157SAPE   C2617436   2.414   7.013   6.046 -0.2282 -0.2588 -0.3486
  157SAPE   H6R17437   2.429   6.930   5.976 -2.5932  0.3343 -1.6558
  157SAPE   C2717438   2.421   7.144   5.972 -0.3592 -0.4055  0.1685
  157SAPE   H7R17439   2.514   7.150   5.912 -0.1435 -0.7571  0.4618
  157SAPE   H7S17440   2.425   7.240   6.027  1.9973  0.7003 -1.7560
  157SAPE   C2817441   2.297   7.163   5.898  0.5511 -0.6088  0.3052
  157SAPE   H8R17442   2.212   7.143   5.965 -1.0190 -1.4986 -1.8492
  157SAPE   C2917443   2.279   7.186   5.767 -0.0337 -0.6034  0.0977
  157SAPE   H9R17444   2.177   7.201   5.730 -0.1266  1.1053  0.9660
  157SAPE  C21017445   2.381   7.191   5.659  0.2899 -0.1281  0.0166
  157SAPE  H10R17446   2.480   7.182   5.707  0.0826 -1.5089  0.2191
  157SAPE  H10S17447   2.384   7.287   5.602 -0.1827  0.2949  0.6916
  157SAPE  C21117448   2.374   7.062   5.581  0.3544 -0.1718  0.2261
  157SAPE  H11R17449   2.354   6.974   5.643  2.3229  0.1231  1.3779
  157SAPE  C21217450   2.376   7.051   5.443  0.1842 -0.3412 -0.5760
  157SAPE  H12R17451   2.375   6.947   5.409  1.8501 -1.6615  2.8627
  157SAPE  C21317452   2.410   7.167   5.348 -1.0992 -1.2522  0.2831
  157SAPE  H13R17453   2.512   7.204   5.370 -1.8175  2.0420 -1.2744
  157SAPE  H13S17454   2.353   7.257   5.379  3.1806  2.1664 -0.7442
  157SAPE  C21417455   2.400   7.134   5.205  0.4867 -0.4679  0.2642
  157SAPE  H14R17456   2.463   7.051   5.171  0.8920  0.1553 -0.5333
  157SAPE  C21517457   2.333   7.195   5.107  0.8603 -0.1598 -0.2554
  157SAPE  H15R17458   2.344   7.157   5.005  0.3173  1.0333 -0.7819
  157SAPE  C21617459   2.247   7.319   5.116  0.3507 -0.6067  0.3476
  157SAPE  H16R17460   2.271   7.368   5.212 -0.7083  1.0150 -0.1730
  157SAPE  H16S17461   2.145   7.277   5.129 -1.2654  2.3406 -1.5929
  157SAPE  C21717462   2.245   7.429   5.004 -0.1521  0.4371  0.3930
  157SAPE  H17R17463   2.344   7.475   4.985 -1.3942  3.7787  1.2982
  157SAPE  H17S17464   2.185   7.510   5.051 -2.5005  0.0604 -1.7016
  157SAPE  C21817465   2.162   7.377   4.884  0.0330 -0.4965  0.9933
  157SAPE  H18R17466   2.059   7.348   4.913 -0.6460  3.3319  3.0453
  157SAPE  H18S17467   2.213   7.286   4.845 -1.7224 -1.9023  1.8506
  157SAPE  C21917468   2.144   7.475   4.770  0.0480 -0.3569 -0.0952
  157SAPE  H19R17469   2.133   7.566   4.834 -1.3559  0.2850 -1.1965
  157SAPE  H19S17470   2.052   7.454   4.711 -0.3731  1.6496 -0.2127
  157SAPE  C22017471   2.268   7.483   4.679  0.0761 -0.5416 -0.4270
  157SAPE  H20R17472   2.270   7.578   4.621  4.4066  0.2929  0.7093
  157SAPE  H20S17473   2.275   7.390   4.619 -0.5567 -0.4001 -0.7220
  157SAPE  H20T17474   2.354   7.500   4.747 -0.1462 -0.3254 -0.1962
  157SAPE   C3317475   2.049   7.483   6.217 -0.4490 -0.1567  0.1832
  157SAPE   H3X17476   2.152   7.487   6.260 -0.6839 -3.0586  1.2656
  157SAPE   H3Y17477   2.017   7.589   6.217  2.8777  0.9591  0.9349
  157SAPE   C3417478   2.066   7.430   6.065  0.4633 -0.2918 -0.3038
  157SAPE   H4X17479   2.095   7.323   6.066 -1.9078 -1.0614 -2.6294
  157SAPE   H4Y17480   2.149   7.494   6.028  2.5961 -2.8934 -0.2806
  157SAPE   C3517481   1.935   7.435   5.987  0.0416  0.1384  0.3853
  157SAPE   H5X17482   1.888   7.535   6.003 -0.4754  0.6221 -3.2929
  157SAPE   H5Y17483   1.865   7.363   6.036 -0.7195  0.2390 -0.5199
  157SAPE   C3617484   1.937   7.397   5.839 -0.0887 -0.6276  0.1971
  157SAPE   H6X17485   1.836   7.382   5.796  0.3318  0.3375 -1.1932
  157SAPE   H6Y17486   1.987   7.299   5.827 -2.9082 -2.1610  0.0794
  157SAPE   C3717487   2.013   7.489   5.739  0.0799 -0.0135  0.1558
  157SAPE   H7X17488   2.120   7.489   5.769  0.3765 -2.6275 -0.6534
  157SAPE   H7Y17489   1.982   7.594   5.756 -2.7519 -0.9403  1.2498
  157SAPE   C3817490   2.001   7.450   5.592  0.1627  0.3025  0.5990
  157SAPE   H8X17491   1.891   7.453   5.575 -0.2101 -2.5290  1.9221
  157SAPE   H8Y17492   2.028   7.343   5.584  0.0773  0.3366 -0.2025
  157SAPE   C3917493   2.063   7.535   5.487  0.1383  0.0478  0.6290
  157SAPE   H9X17494   2.173   7.527   5.494  0.8015 -1.2352 -5.3605
  157SAPE   H9Y17495   2.024   7.638   5.500 -0.2613 -0.0932  0.5799
  157SAPE  C31017496   2.033   7.490   5.346  0.3845 -0.3318  0.5606
  157SAPE  H10X17497   2.050   7.381   5.333  1.2683 -0.0479 -0.8354
  157SAPE  H10Y17498   2.087   7.548   5.269  0.6159 -1.6650 -0.3011
  157SAPE  C31117499   1.888   7.515   5.296 -0.1647 -0.2133 -0.0008
  157SAPE  H11X17500   1.864   7.622   5.316  0.9875 -0.0364  0.5401
  157SAPE  H11Y17501   1.824   7.452   5.360 -1.3172  1.0319  0.1203
  157SAPE  C31217502   1.871   7.488   5.140 -0.0929 -0.4355 -0.0382
  157SAPE  H12X17503   1.887   7.387   5.096  0.0408  0.7545 -2.9936
  157SAPE  H12Y17504   1.941   7.559   5.089 -2.3794  2.9690  1.1826
  157SAPE  C31317505   1.730   7.511   5.092  0.4778 -0.4121  0.5669
  157SAPE  H13X17506   1.692   7.602   5.143  2.0069  0.1188  0.8115
  157SAPE  H13Y17507   1.662   7.433   5.132 -1.0668  0.7189  0.2596
  157SAPE  C31417508   1.705   7.523   4.948 -0.0025  0.1333 -0.2774
  157SAPE  H14X17509   1.784   7.580   4.894  0.2038  1.9862  1.8268
  157SAPE  H14Y17510   1.617   7.588   4.930  1.1638  1.3618 -1.9171
  157SAPE  C31517511   1.668   7.384   4.890  0.0219  0.2156 -0.1282
  157SAPE  H15X17512   1.587   7.326   4.938 -0.8644  1.9714  0.5672
  157SAPE  H15Y17513   1.750   7.314   4.915  0.0273 -0.6314 -2.2476
  157SAPE  C31617514   1.651   7.376   4.732 -0.4687  0.1273  0.2045
  157SAPE  H16X17515   1.738   7.424   4.682 -0.5975  1.7189  1.4433
  157SAPE  H16Y17516   1.564   7.438   4.703  0.1374  1.4346  1.0799
  157SAPE  C31717517   1.643   7.234   4.684 -0.4606 -0.0157 -0.0368
  157SAPE  H17X17518   1.577   7.173   4.750 -0.8776 -1.4544 -1.7138
  157SAPE  H17Y17519   1.739   7.180   4.696 -1.5717 -2.1282 -0.1779
  157SAPE  C31817520   1.589   7.218   4.538  0.4184 -0.2164  0.2931
  157SAPE  H18X17521   1.575   7.109   4.527  1.1252 -0.7909  3.9134
  157SAPE  H18Y17522   1.651   7.262   4.456  2.4357 -0.5281  1.5893
  157SAPE  H18Z17523   1.482   7.249   4.534 -0.0284 -1.3691  2.3627
  158SAPE     N17524   2.208   0.495   7.103 -0.0602 -0.1969 -0.2484
  158SAPE   HN117525   2.282   0.522   7.035  1.3212 -0.5480  1.0795
  158SAPE   HN217526   2.173   0.397   7.092 -1.1650  0.2309 -0.7667
  158SAPE   HN317527   2.127   0.558   7.089  0.7280  1.5033  2.2766
  158SAPE   C1217528   2.243   0.513   7.252  0.7988 -0.1989 -0.3591
  158SAPE  H12A17529   2.149   0.528   7.309  0.4805 -1.3987 -0.5336
  158SAPE  H12B17530   2.300   0.608   7.259 -1.2287  1.1479 -1.1522
  158SAPE   C1117531   2.317   0.395   7.314 -0.5846 -0.2029  0.1081
  158SAPE  H11A17532   2.252   0.305   7.304 -0.9594  0.1146 -0.3628
  158SAPE  H11B17533   2.320   0.404   7.425  1.0676 -3.1499  0.4170
  158SAPE     P17534   2.479   0.256   7.159  0.1467 -0.1904  0.2396
  158SAPE   O1317535   2.616   0.254   7.104 -0.5792 -0.5730 -0.1019
  158SAPE   O1417536   2.447   0.131   7.226 -0.1178 -0.7733  0.0714
  158SAPE   O1217537   2.448   0.381   7.254 -0.4100  0.2221  0.2172
  158SAPE   O1117538   2.357   0.267   7.050 -0.0245  0.4602  0.1925
  158SAPE    C117539   2.361   0.195   6.933  0.2900 -0.4282 -0.1528
  158SAPE    HA17540   2.391   0.091   6.956 -1.8941 -0.7423  1.6662
  158SAPE    HB17541   2.259   0.195   6.888  0.7248 -0.4313 -1.1814
  158SAPE    C217542   2.462   0.246   6.829 -0.0329 -0.5679  0.9340
  158SAPE    HS17543   2.556   0.280   6.878  1.8550  1.3019 -3.4522
  158SAPE   O2117544   2.386   0.345   6.748  0.0442 -0.6228  0.0907
  158SAPE   C2117545   2.460   0.436   6.695  0.4752 -0.0488  0.0124
  158SAPE   O2217546   2.568   0.483   6.726 -0.0473  0.2659 -0.1651
  158SAPE   C2217547   2.380   0.504   6.576  0.9828  0.0787 -0.0492
  158SAPE   H2R17548   2.399   0.448   6.482  1.8432  1.3541 -0.6726
  158SAPE   H2S17549   2.272   0.498   6.601  0.8866  2.7171  0.4987
  158SAPE    C317550   2.490   0.122   6.742  0.2509 -0.1759 -0.1560
  158SAPE    HX17551   2.394   0.081   6.704 -1.1019  1.7837  0.9511
  158SAPE    HY17552   2.536   0.036   6.796 -1.9078 -1.5294 -0.3305
  158SAPE   O3117553   2.570   0.167   6.633 -0.1135  0.3895 -0.7410
  158SAPE   C3117554   2.617   0.076   6.544 -1.0028 -0.0972  0.2171
  158SAPE   O3217555   2.596  -0.040   6.539  0.7156  0.0620  0.4622
  158SAPE   C3217556   2.703   0.155   6.443 -0.2303  0.7309  0.0911
  158SAPE   H2X17557   2.799   0.200   6.476  1.0045 -0.1955 -1.9986
  158SAPE   H2Y17558   2.638   0.237   6.407 -1.6149 -0.2944  0.1758
  158SAPE   C2317559   2.410   0.650   6.562 -0.3339  0.0367 -0.5378
  158SAPE   H3R17560   2.462   0.689   6.652 -0.1582  1.7579 -1.3330
  158SAPE   H3S17561   2.320   0.715   6.562  0.1407  0.7002  0.2074
  158SAPE   C2417562   2.481   0.669   6.424  0.6252 -0.1113 -0.6109
  158SAPE   H4R17563   2.488   0.775   6.389  0.5449 -0.4201 -1.5970
  158SAPE   H4S17564   2.417   0.618   6.349 -0.6750  1.4802 -0.6539
  158SAPE   C2517565   2.612   0.602   6.427 -0.1688  0.0162  0.2535
  158SAPE   H5R17566   2.652   0.582   6.527 -0.9503 -0.0823  0.5560
  158SAPE   C2617567   2.679   0.558   6.326 -0.0727  0.4256 -0.3365
  158SAPE   H6R17568   2.778   0.510   6.336  0.7969  2.1981 -0.0636
  158SAPE   C2717569   2.639   0.571   6.180 -0.1651 -0.2119  0.6738
  158SAPE   H7R17570   2.538   0.610   6.153  0.0773  0.1954  0.3450
  158SAPE   H7S17571   2.633   0.462   6.156  0.0751 -0.0541 -0.1348
  158SAPE   C2817572   2.732   0.637   6.082 -0.1681 -0.3011 -0.9220
  158SAPE   H8R17573   2.801   0.708   6.130  0.5487 -0.6240 -1.4547
  158SAPE   C2917574   2.744   0.630   5.946 -0.4356  0.5314 -0.1242
  158SAPE   H9R17575   2.828   0.680   5.895 -2.1911  1.8327 -1.8788
  158SAPE  C21017576   2.666   0.537   5.859  0.0649  0.0838  0.4081
  158SAPE  H10R17577   2.576   0.507   5.916  0.7217 -0.3105  1.2641
  158SAPE  H10S17578   2.727   0.451   5.824 -0.4938 -0.8276  1.6425
  158SAPE  C21117579   2.595   0.596   5.737 -0.5616 -0.3246 -0.0222
  158SAPE  H11R17580   2.505   0.659   5.748 -0.4129 -0.3569  1.6786
  158SAPE  C21217581   2.648   0.589   5.613 -0.5628 -0.2197 -0.2687
  158SAPE  H12R17582   2.587   0.605   5.523  0.5160  1.1214 -0.8028
  158SAPE  C21317583   2.768   0.512   5.569  0.0787  0.3753 -0.2503
  158SAPE  H13R17584   2.735   0.417   5.521 -0.6487 -1.3328  3.2585
  158SAPE  H13S17585   2.830   0.489   5.658  0.4368  2.1910 -0.0050
  158SAPE  C21417586   2.855   0.594   5.487 -0.5098 -0.2556 -0.3123
  158SAPE  H14R17587   2.944   0.631   5.541  0.7221 -0.3830 -2.1327
  158SAPE  C21517588   2.866   0.597   5.348 -0.7402 -1.0426  0.6404
  158SAPE  H15R17589   2.932   0.672   5.302 -2.0161  0.4668  1.1436
  158SAPE  C21617590   2.775   0.524   5.250 -0.2575  0.3319 -0.6941
  158SAPE  H16R17591   2.708   0.592   5.193  1.1041  0.9629 -1.5990
  158SAPE  H16S17592   2.710   0.448   5.297 -0.8678  0.8286 -0.7114
  158SAPE  C21717593   2.845   0.438   5.152 -0.8361  0.0654  0.4612
  158SAPE  H17R17594   2.765   0.407   5.082  0.5857 -1.7292 -0.4665
  158SAPE  H17S17595   2.881   0.340   5.189 -3.3569 -1.6160 -1.2087
  158SAPE  C21817596   2.956   0.512   5.075 -0.6795 -0.0390 -0.6455
  158SAPE  H18R17597   3.046   0.492   5.138 -1.0237  0.8769  0.1626
  158SAPE  H18S17598   2.937   0.620   5.060  1.1448  0.3168 -0.6386
  158SAPE  C21917599   2.977   0.454   4.936  0.1672  0.0053 -0.2003
  158SAPE  H19R17600   2.994   0.344   4.928 -1.6014 -0.2489 -1.0218
  158SAPE  H19S17601   3.073   0.499   4.905 -1.1136  1.8016 -1.8770
  158SAPE  C22017602   2.875   0.494   4.829 -0.4746 -0.1305  0.1429
  158SAPE  H20R17603   2.772   0.469   4.864  0.6265 -1.5073  2.7026
  158SAPE  H20S17604   2.895   0.439   4.735 -0.0022 -0.7878  0.6177
  158SAPE  H20T17605   2.877   0.604   4.815  0.4674  0.0845  1.6990
  158SAPE   C3317606   2.760   0.056   6.336  0.6176 -0.1283  0.8213
  158SAPE   H3X17607   2.680   0.010   6.275  1.6024 -0.5600 -0.1571
  158SAPE   H3Y17608   2.810  -0.025   6.394  2.3167  0.7907  0.7041
  158SAPE   C3417609   2.858   0.133   6.236  0.1742 -0.1603 -0.2190
  158SAPE   H4X17610   2.924   0.069   6.175 -2.3244  0.6368 -4.1002
  158SAPE   H4Y17611   2.932   0.193   6.293  1.0223 -2.6303  1.3955
  158SAPE   C3517612   2.793   0.233   6.132 -0.3043 -0.5163  0.4561
  158SAPE   H5X17613   2.732   0.306   6.190 -0.7012 -0.7234  0.3037
  158SAPE   H5Y17614   2.721   0.176   6.069 -1.0836  2.0513 -1.1670
  158SAPE   C3617615   2.899   0.303   6.046 -0.0003  0.1626  0.0179
  158SAPE   H6X17616   2.970   0.365   6.105  0.1364  0.8792 -0.8645
  158SAPE   H6Y17617   2.849   0.385   5.989 -2.1989  0.1621  1.8117
  158SAPE   C3717618   2.970   0.216   5.944 -0.4955 -0.1761  0.2746
  158SAPE   H7X17619   2.907   0.139   5.895  0.6631 -0.7447 -0.3501
  158SAPE   H7Y17620   3.054   0.157   5.987 -0.0029  0.1233 -0.2629
  158SAPE   C3817621   3.017   0.307   5.824  0.2104  0.3525  1.1740
  158SAPE   H8X17622   3.057   0.399   5.872  1.1525  0.2757  0.5481
  158SAPE   H8Y17623   2.926   0.332   5.765 -0.0567 -1.2128  0.8900
  158SAPE   C3917624   3.129   0.237   5.731  0.4098  0.0934 -0.2832
  158SAPE   H9X17625   3.087   0.135   5.719 -0.3875  0.3287  0.3890
  158SAPE   H9Y17626   3.224   0.217   5.785 -1.0273 -0.2347  2.3198
  158SAPE  C31017627   3.159   0.304   5.600  0.7580  0.7936  0.2075
  158SAPE  H10X17628   3.207   0.403   5.613  0.6719  0.5736  2.5101
  158SAPE  H10Y17629   3.062   0.325   5.548  0.4944  0.0666  0.3935
  158SAPE  C31117630   3.243   0.222   5.504  0.2817  0.4736  0.5112
  158SAPE  H11X17631   3.192   0.130   5.468  1.9395 -0.3372  0.1691
  158SAPE  H11Y17632   3.323   0.178   5.568 -2.2087 -3.1044  1.4716
  158SAPE  C31217633   3.292   0.295   5.383  0.2579 -0.3029  0.0392
  158SAPE  H12X17634   3.340   0.390   5.412 -0.6067 -0.0068  0.5362
  158SAPE  H12Y17635   3.204   0.321   5.320  0.7148  1.2157  0.0058
  158SAPE  C31317636   3.387   0.208   5.300  0.0849  0.2842 -0.0776
  158SAPE  H13X17637   3.356   0.103   5.283  2.9291 -0.2523 -3.0238
  158SAPE  H13Y17638   3.479   0.202   5.363 -0.4627  0.1215  0.7166
  158SAPE  C31417639   3.410   0.272   5.161  0.3046  0.2893  0.6956
  158SAPE  H14X17640   3.483   0.206   5.110  1.4177  0.8816  1.4887
  158SAPE  H14Y17641   3.467   0.365   5.180  0.0053  0.3478  1.3395
  158SAPE  C31517642   3.284   0.297   5.075  0.9546 -0.3542 -0.0362
  158SAPE  H15X17643   3.239   0.385   5.125  1.2196 -0.9926  1.4008
  158SAPE  H15Y17644   3.220   0.208   5.090 -2.3618  2.0654  1.3930
  158SAPE  C31617645   3.314   0.327   4.927  0.5449  0.3887 -0.2359
  158SAPE  H16X17646   3.221   0.321   4.866  1.4170 -0.5684 -1.5174
  158SAPE  H16Y17647   3.375   0.254   4.871 -0.7382 -0.9756  0.0704
  158SAPE  C31717648   3.375   0.466   4.910 -0.0327 -0.3553 -0.1326
  158SAPE  H17X17649   3.419   0.492   5.009 -0.7690 -1.0302  0.3840
  158SAPE  H17Y17650   3.295   0.540   4.892  0.0009 -0.1292  0.5993
  158SAPE  C31817651   3.474   0.487   4.787 -0.0904  0.4263  0.0177
  158SAPE  H18X17652   3.555   0.410   4.794 -0.5844  0.0580  4.2124
  158SAPE  H18Y17653   3.504   0.593   4.793  1.2725  0.0981 -0.6849
  158SAPE  H18Z17654   3.417   0.468   4.694 -1.2630 -0.8561  0.9487
  159SAPE     N17655   2.465   6.834   1.909 -0.3956 -0.3696 -0.3273
  159SAPE   HN117656   2.413   6.750   1.876 -0.6760 -0.7393  1.0138
  159SAPE   HN217657   2.454   6.891   1.823 -0.8543 -2.2478 -1.5923
  159SAPE   HN317658   2.563   6.808   1.931 -0.7745 -0.8311  0.8551
  159SAPE   C1217659   2.407   6.924   2.014  0.1432 -0.0506  0.3832
  159SAPE  H12A17660   2.306   6.952   1.976  0.4112 -0.8364 -0.9893
  159SAPE  H12B17661   2.476   7.011   2.013 -0.8206  0.7273 -0.1697
  159SAPE   C1117662   2.411   6.865   2.157  0.2479  0.3706 -0.2583
  159SAPE  H11A17663   2.338   6.782   2.165  1.0660 -0.2007  2.2059
  159SAPE  H11B17664   2.360   6.944   2.217 -0.8471  1.2014 -2.2172
  159SAPE     P17665   2.629   6.933   2.277  0.0319 -0.1774 -0.1740
  159SAPE   O1317666   2.774   6.906   2.247 -0.0640  0.2298 -0.5339
  159SAPE   O1417667   2.581   7.074   2.255  0.0238  0.2413 -0.0695
  159SAPE   O1217668   2.544   6.830   2.189 -0.3172  0.0503  0.0579
  159SAPE   O1117669   2.605   6.894   2.432 -0.5398  0.1267  0.1222
  159SAPE    C117670   2.610   6.762   2.476  0.2128 -0.6266  0.0988
  159SAPE    HA17671   2.586   6.691   2.394 -0.3140  1.0797 -1.3178
  159SAPE    HB17672   2.713   6.733   2.505  0.8781  0.3551 -1.1790
  159SAPE    C217673   2.509   6.743   2.591 -0.2831 -0.6037  0.0924
  159SAPE    HS17674   2.404   6.758   2.558 -2.0163 -2.4727  3.9939
  159SAPE   O2117675   2.539   6.837   2.703 -0.0973  0.7818 -0.1818
  159SAPE   C2117676   2.436   6.863   2.785  0.0426 -0.1267  0.8038
  159SAPE   O2217677   2.330   6.803   2.779 -0.2451  0.0697 -0.8245
  159SAPE   C2217678   2.489   6.955   2.892  0.0638 -0.1070 -0.2288
  159SAPE   H2R17679   2.585   6.916   2.931  0.6535  1.4144 -0.0975
  159SAPE   H2S17680   2.504   7.054   2.843  1.2357  1.5153  3.1065
  159SAPE    C317681   2.502   6.593   2.632  0.8076 -1.1156 -0.2992
  159SAPE    HX17682   2.453   6.530   2.555 -2.3755  1.3701 -0.5105
  159SAPE    HY17683   2.431   6.577   2.717  1.1153 -0.0611  0.1830
  159SAPE   O3117684   2.630   6.556   2.684 -0.0859 -0.0616 -0.2504
  159SAPE   C3117685   2.698   6.471   2.614 -0.1768  0.2192  0.3961
  159SAPE   O3217686   2.654   6.403   2.522 -0.2418  0.3288  0.0826
  159SAPE   C3217687   2.846   6.464   2.656  0.4021 -0.8040  0.4154
  159SAPE   H2X17688   2.847   6.510   2.757 -0.4507  0.4288 -0.1136
  159SAPE   H2Y17689   2.898   6.534   2.588 -2.8765  2.2872  0.8100
  159SAPE   C2317690   2.388   6.973   3.008 -0.5304 -0.3957 -0.5772
  159SAPE   H3R17691   2.287   7.008   2.978 -0.6013  1.5831  1.7152
  159SAPE   H3S17692   2.434   7.051   3.072  0.4036 -1.3284 -0.0848
  159SAPE   C2417693   2.378   6.838   3.087  0.0715 -0.6250  0.6179
  159SAPE   H4R17694   2.351   6.761   3.012  1.7043 -0.0489 -0.6468
  159SAPE   H4S17695   2.292   6.844   3.157 -0.2391 -0.7141  0.2485
  159SAPE   C2517696   2.492   6.780   3.160  0.1390 -0.3441 -0.1569
  159SAPE   H5R17697   2.594   6.787   3.121 -0.6937 -1.2625 -2.7225
  159SAPE   C2617698   2.488   6.714   3.282  0.1688  0.1861  0.4747
  159SAPE   H6R17699   2.582   6.673   3.323  0.7280 -1.4106 -2.1773
  159SAPE   C2717700   2.356   6.698   3.355  0.4426 -0.3981  0.3990
  159SAPE   H7R17701   2.275   6.661   3.288  0.9616 -1.9855  0.5932
  159SAPE   H7S17702   2.321   6.795   3.397  0.0276 -1.7416  3.4250
  159SAPE   C2817703   2.350   6.597   3.466  0.0403 -1.2659  0.9929
  159SAPE   H8R17704   2.343   6.493   3.428 -2.6036 -0.3080 -1.5350
  159SAPE   C2917705   2.377   6.620   3.601  0.1089  0.4571  0.3584
  159SAPE   H9R17706   2.360   6.530   3.662  1.8703 -0.5197 -0.5280
  159SAPE  C21017707   2.395   6.751   3.678  0.4117 -0.0358 -0.7615
  159SAPE  H10R17708   2.323   6.773   3.760  1.8598 -1.7457  1.0612
  159SAPE  H10S17709   2.369   6.834   3.609 -0.2449  1.0958  0.7780
  159SAPE  C21117710   2.534   6.774   3.720 -0.4522 -1.6739 -0.7717
  159SAPE  H11R17711   2.611   6.777   3.642  2.3676 -0.4495  1.8189
  159SAPE  C21217712   2.574   6.806   3.845 -0.1022  0.2863 -0.1621
  159SAPE  H12R17713   2.680   6.831   3.861 -0.2202 -0.7876  3.0116
  159SAPE  C21317714   2.491   6.820   3.966 -0.1894 -0.0544  0.8255
  159SAPE  H13R17715   2.429   6.728   3.970 -1.1404  0.4919 -0.5378
  159SAPE  H13S17716   2.422   6.906   3.950  1.1856  0.8054 -0.8316
  159SAPE  C21417717   2.581   6.826   4.091  0.5263 -0.3621 -0.6689
  159SAPE  H14R17718   2.674   6.766   4.093  2.0849  1.9498 -0.5722
  159SAPE  C21517719   2.566   6.919   4.189 -0.1860 -0.3520  0.1532
  159SAPE  H15R17720   2.643   6.926   4.267  1.5038  0.4745 -1.5223
  159SAPE  C21617721   2.456   7.021   4.208  0.3915  0.1555  0.9591
  159SAPE  H16R17722   2.356   6.973   4.205 -1.8495  4.2884  1.0357
  159SAPE  H16S17723   2.441   7.092   4.124 -2.0542 -0.9137  0.4274
  159SAPE  C21717724   2.462   7.104   4.334  0.0966 -0.1338 -0.3847
  159SAPE  H17R17725   2.384   7.182   4.331  0.8488  0.6681  0.4430
  159SAPE  H17S17726   2.565   7.142   4.345  0.2043 -0.2350 -1.0000
  159SAPE  C21817727   2.437   7.026   4.460 -0.0406  0.5004 -0.8084
  159SAPE  H18R17728   2.523   6.958   4.479 -1.3512 -1.0893 -0.4047
  159SAPE  H18S17729   2.343   6.968   4.448  0.7314 -0.5152 -2.2672
  159SAPE  C21917730   2.422   7.120   4.587  0.2403  0.1452  0.1850
  159SAPE  H19R17731   2.383   7.060   4.671  1.6660 -1.0103  0.0618
  159SAPE  H19S17732   2.356   7.206   4.563 -0.5664 -0.6866 -0.7323
  159SAPE  C22017733   2.563   7.188   4.626 -0.0640 -0.0082 -0.4896
  159SAPE  H20R17734   2.587   7.256   4.542 -0.9089  0.9760  0.0443
  159SAPE  H20S17735   2.637   7.108   4.649 -1.5274 -0.8932  1.3953
  159SAPE  H20T17736   2.558   7.247   4.720 -0.9207 -2.4714  1.1106
  159SAPE   C3317737   2.914   6.327   2.658 -0.1987 -0.7845  0.0503
  159SAPE   H3X17738   2.930   6.291   2.554 -0.6518 -2.1631  0.4360
  159SAPE   H3Y17739   2.832   6.259   2.693 -0.7402  0.4452  1.2356
  159SAPE   C3417740   3.039   6.308   2.739 -0.7654  0.3357  0.3107
  159SAPE   H4X17741   3.116   6.386   2.722  0.3018  0.2753  4.0081
  159SAPE   H4Y17742   3.101   6.225   2.699 -0.6360  0.6419 -0.1228
  159SAPE   C3517743   3.011   6.294   2.883 -0.4360 -0.0452 -0.6199
  159SAPE   H5X17744   2.983   6.188   2.901  0.9335 -0.1314  1.4807
  159SAPE   H5Y17745   2.934   6.359   2.931 -2.0380 -1.0964 -1.7020
  159SAPE   C3617746   3.143   6.336   2.967  0.0390 -0.0586  0.0329
  159SAPE   H6X17747   3.177   6.432   2.921  0.4337  0.1350  0.7167
  159SAPE   H6Y17748   3.221   6.266   2.929  0.1034 -0.1977  0.4231
  159SAPE   C3717749   3.122   6.339   3.119  0.0120 -0.1984  0.6980
  159SAPE   H7X17750   3.050   6.422   3.135  0.3801  0.4039 -0.6443
  159SAPE   H7Y17751   3.218   6.361   3.170  0.6771 -1.7451  0.1938
  159SAPE   C3817752   3.078   6.211   3.187  0.7050 -0.2476  0.2920
  159SAPE   H8X17753   3.137   6.126   3.146 -0.5900  0.0992 -2.5235
  159SAPE   H8Y17754   2.977   6.182   3.149  0.7871 -0.5634  0.3151
  159SAPE   C3917755   3.100   6.207   3.336  0.1576  0.4433 -0.3015
  159SAPE   H9X17756   3.207   6.199   3.367 -0.4409 -2.4030  1.3899
  159SAPE   H9Y17757   3.043   6.125   3.386  2.5040 -2.3384 -1.8997
  159SAPE  C31017758   3.049   6.337   3.412 -0.6885 -0.1749 -0.5697
  159SAPE  H10X17759   2.950   6.375   3.380 -0.7459  1.1040  1.0531
  159SAPE  H10Y17760   3.118   6.415   3.372 -0.2620  0.0896  0.6313
  159SAPE  C31117761   3.055   6.328   3.564  0.3411 -0.5654 -0.5437
  159SAPE  H11X17762   3.158   6.323   3.604  0.9521  0.6303 -1.9039
  159SAPE  H11Y17763   3.005   6.238   3.606 -0.0103  0.0229  0.3431
  159SAPE  C31217764   2.992   6.454   3.625 -0.1805 -0.0621  0.1120
  159SAPE  H12X17765   2.890   6.466   3.583  0.3135  0.9742 -0.8327
  159SAPE  H12Y17766   3.055   6.537   3.586  0.7399 -0.8385 -0.1282
  159SAPE  C31317767   2.988   6.462   3.778  0.2823  0.1392 -0.4232
  159SAPE  H13X17768   2.919   6.385   3.817  3.7810 -1.8001  2.5198
  159SAPE  H13Y17769   2.937   6.561   3.789  0.3506  0.4054 -2.1689
  159SAPE  C31417770   3.121   6.473   3.852  0.0245 -0.1563 -0.2540
  159SAPE  H14X17771   3.194   6.529   3.790 -0.0284 -0.3846 -0.5279
  159SAPE  H14Y17772   3.168   6.373   3.868  2.5298  1.1770  1.2910
  159SAPE  C31517773   3.085   6.532   3.991 -0.4443 -0.0864  1.0333
  159SAPE  H15X17774   2.992   6.484   4.026 -1.6755  2.0928  0.9457
  159SAPE  H15Y17775   3.065   6.640   3.977 -2.6643 -0.7308 -1.6803
  159SAPE  C31617776   3.197   6.503   4.097  0.0692 -0.3710  0.7010
  159SAPE  H16X17777   3.285   6.557   4.053 -0.1035 -2.0470 -1.9321
  159SAPE  H16Y17778   3.231   6.398   4.085  4.7999  0.9832 -0.2371
  159SAPE  C31717779   3.164   6.539   4.240  0.2760 -0.1511  0.4209
  159SAPE  H17X17780   3.241   6.483   4.298 -0.3573 -1.3191  0.1651
  159SAPE  H17Y17781   3.062   6.501   4.260 -0.5911  1.4245 -0.7872
  159SAPE  C31817782   3.158   6.687   4.258 -0.3691  0.6941 -0.2569
  159SAPE  H18X17783   3.173   6.737   4.160 -0.8799  1.9842  0.2971
  159SAPE  H18Y17784   3.248   6.724   4.312  1.8342 -0.7736 -2.7001
  159SAPE  H18Z17785   3.064   6.720   4.309 -2.9452 -2.8247 -2.2690
  160SAPE     N17786   3.120   3.698   1.795 -0.3966  0.3606 -0.5258
  160SAPE   HN117787   3.091   3.605   1.759 -0.3502 -0.4479  1.3868
  160SAPE   HN217788   3.065   3.762   1.735  2.6107 -0.6272 -4.7579
  160SAPE   HN317789   3.223   3.712   1.786 -0.4934  1.0737 -0.5940
  160SAPE   C1217790   3.069   3.701   1.938 -0.0423  0.3212  0.3217
  160SAPE  H12A17791   2.958   3.711   1.941  0.0611  1.5094  0.7622
  160SAPE  H12B17792   3.097   3.796   1.990  1.5939  0.3405 -0.5337
  160SAPE   C1117793   3.110   3.574   2.019  0.1537  0.1406  0.5257
  160SAPE  H11A17794   3.054   3.592   2.113 -1.0623  0.3660 -0.2199
  160SAPE  H11B17795   3.218   3.579   2.043  1.3871  0.8202 -4.0794
  160SAPE     P17796   2.970   3.350   1.982 -0.2948  0.1648  0.0509
  160SAPE   O1317797   2.832   3.383   1.927 -0.6344 -0.2354 -0.1650
  160SAPE   O1417798   3.015   3.217   1.944  0.0004  0.2833 -0.2695
  160SAPE   O1217799   3.080   3.457   1.940  0.0841 -0.0755 -0.2920
  160SAPE   O1117800   2.969   3.357   2.143 -0.0328  0.0914  0.3498
  160SAPE    C117801   2.859   3.420   2.201  1.2517 -0.3555  0.3846
  160SAPE    HA17802   2.856   3.528   2.175 -0.2997 -0.4354  0.1248
  160SAPE    HB17803   2.763   3.384   2.157  1.8258 -1.2799 -0.1485
  160SAPE    C217804   2.867   3.412   2.353  0.0329  0.7813 -0.1366
  160SAPE    HS17805   2.789   3.476   2.399  0.1439 -0.8758  2.5278
  160SAPE   O2117806   2.998   3.451   2.401 -0.0443 -0.1558 -0.1695
  160SAPE   C2117807   3.017   3.579   2.411 -0.1520 -0.5171  0.3002
  160SAPE   O2217808   2.942   3.666   2.367  0.3818  0.5142  0.0950
  160SAPE   C2217809   3.157   3.590   2.468  0.6515 -0.2392 -0.6227
  160SAPE   H2R17810   3.225   3.545   2.392 -0.6523  0.8475 -2.5188
  160SAPE   H2S17811   3.190   3.696   2.472  0.9033 -0.3347 -0.1050
  160SAPE    C317812   2.833   3.266   2.407 -0.1523 -0.1573 -0.2502
  160SAPE    HX17813   2.902   3.207   2.343  0.2551  2.9068 -2.8941
  160SAPE    HY17814   2.727   3.240   2.385 -0.4809  2.0160 -1.6327
  160SAPE   O3117815   2.849   3.260   2.553  0.0323 -0.0224  0.3493
  160SAPE   C3117816   2.957   3.188   2.592 -0.2645 -0.6348 -0.2382
  160SAPE   O3217817   3.050   3.156   2.524  0.9108 -0.5606 -0.2855
  160SAPE   C3217818   2.949   3.142   2.740  0.6680 -0.0741  0.7140
  160SAPE   H2X17819   2.858   3.080   2.747  0.3228  0.0262 -1.8461
  160SAPE   H2Y17820   2.946   3.229   2.810  1.6813  0.8478 -0.3330
  160SAPE   C2317821   3.178   3.536   2.613 -0.1384 -0.5188  0.2369
  160SAPE   H3R17822   3.289   3.532   2.620 -0.1383 -0.9888  0.0107
  160SAPE   H3S17823   3.135   3.434   2.620 -1.0106 -0.5861 -3.7509
  160SAPE   C2417824   3.135   3.632   2.729 -0.4318 -0.2106 -0.5525
  160SAPE   H4R17825   3.171   3.733   2.700  1.7799 -0.3359  1.4374
  160SAPE   H4S17826   3.203   3.609   2.814  1.4109  0.3423 -1.8172
  160SAPE   C2517827   2.984   3.644   2.747 -0.1141  0.1100  0.2840
  160SAPE   H5R17828   2.935   3.711   2.675  2.8663  1.9494 -0.2167
  160SAPE   C2617829   2.907   3.585   2.844 -0.7442 -0.9041 -0.6654
  160SAPE   H6R17830   2.799   3.607   2.851 -0.2830  1.8914 -1.3386
  160SAPE   C2717831   2.963   3.497   2.957  0.0345  0.6138 -0.1883
  160SAPE   H7R17832   3.040   3.552   3.015  1.4487  0.3172 -1.7435
  160SAPE   H7S17833   3.020   3.413   2.913 -2.7132 -2.2100  1.1801
  160SAPE   C2817834   2.856   3.433   3.053 -0.4089 -0.1922  0.5922
  160SAPE   H8R17835   2.754   3.455   3.020 -0.6352 -1.9613  0.0018
  160SAPE   C2917836   2.886   3.371   3.164 -0.7349 -0.4594  0.1602
  160SAPE   H9R17837   2.808   3.329   3.230  0.9593  0.3234  2.8230
  160SAPE  C21017838   3.020   3.349   3.221 -0.2026 -0.1711 -0.3949
  160SAPE  H10R17839   3.039   3.426   3.298  0.6117  1.5621 -2.2365
  160SAPE  H10S17840   3.098   3.375   3.146 -0.5264  1.9128 -0.0755
  160SAPE  C21117841   3.033   3.208   3.272 -0.0543 -0.1343  0.5543
  160SAPE  H11R17842   3.087   3.136   3.210  1.1130 -0.8182  2.3057
  160SAPE  C21217843   2.991   3.160   3.393 -0.2394 -0.0804  1.0787
  160SAPE  H12R17844   3.019   3.058   3.421  0.1441 -0.4852 -0.6509
  160SAPE  C21317845   2.921   3.240   3.496 -0.1449  0.2267 -0.1101
  160SAPE  H13R17846   2.813   3.252   3.475 -0.1942  2.2407  1.0715
  160SAPE  H13S17847   2.951   3.347   3.496 -1.3014  0.5976  1.7840
  160SAPE  C21417848   2.947   3.171   3.630 -0.7252 -0.6587 -0.3729
  160SAPE  H14R17849   2.903   3.070   3.631 -0.8740 -0.5970 -0.5016
  160SAPE  C21517850   3.019   3.223   3.728  0.8739  0.2886 -0.3423
  160SAPE  H15R17851   3.026   3.157   3.816 -0.2729 -1.4157 -1.4456
  160SAPE  C21617852   3.093   3.351   3.743  0.7004 -0.7266  0.8615
  160SAPE  H16R17853   3.045   3.441   3.699  2.8690  2.0181  3.6628
  160SAPE  H16S17854   3.198   3.343   3.706  0.5627  2.1381 -0.3893
  160SAPE  C21717855   3.124   3.382   3.886  0.0950 -0.8979 -0.2213
  160SAPE  H17R17856   3.212   3.451   3.890 -0.4509 -0.1794 -0.4210
  160SAPE  H17S17857   3.157   3.300   3.953 -1.4362  0.0873  1.8517
  160SAPE  C21817858   3.015   3.450   3.967 -0.0681  0.3097 -0.4374
  160SAPE  H18R17859   2.979   3.531   3.899  1.5140 -0.3115 -2.1038
  160SAPE  H18S17860   3.060   3.502   4.054 -0.8665  1.4623 -0.6842
  160SAPE  C21917861   2.888   3.372   4.007  0.1459  0.3067  0.2191
  160SAPE  H19R17862   2.922   3.280   4.060 -0.5032  0.5830  1.1159
  160SAPE  H19S17863   2.838   3.334   3.915 -0.8065  1.0582  0.4229
  160SAPE  C22017864   2.792   3.455   4.086  0.5577  0.2831  0.6033
  160SAPE  H20R17865   2.832   3.495   4.182 -2.4744  1.9387  1.3274
  160SAPE  H20S17866   2.702   3.397   4.117  0.4658  0.9866  1.7086
  160SAPE  H20T17867   2.752   3.544   4.033 -1.7758 -0.5004  0.8937
  160SAPE   C3317868   3.071   3.062   2.776  0.4288 -0.2368 -0.3835
  160SAPE   H3X17869   3.173   3.103   2.759  0.1550  0.9790  0.7112
  160SAPE   H3Y17870   3.057   2.971   2.714 -2.2764 -1.1064  1.3241
  160SAPE   C3417871   3.046   3.031   2.923 -0.2712 -0.4236  0.1233
  160SAPE   H4X17872   3.031   3.122   2.984 -1.4299 -0.0560 -0.6505
  160SAPE   H4Y17873   3.141   2.987   2.959 -0.3266  0.4016  1.3422
  160SAPE   C3517874   2.925   2.942   2.955  0.4477  0.0255 -0.3070
  160SAPE   H5X17875   2.956   2.862   2.885 -0.0113  0.2836 -0.8209
  160SAPE   H5Y17876   2.827   2.984   2.922  1.0035  0.9397 -0.8127
  160SAPE   C3617877   2.917   2.897   3.103  1.1422  0.4267  1.4102
  160SAPE   H6X17878   2.893   2.983   3.168 -3.5036 -0.9798  1.9112
  160SAPE   H6Y17879   3.010   2.838   3.119  0.6254 -2.1874 -3.2927
  160SAPE   C3717880   2.803   2.797   3.121  0.4275 -0.6497  0.0261
  160SAPE   H7X17881   2.826   2.696   3.079 -1.0397 -0.7934 -0.4937
  160SAPE   H7Y17882   2.710   2.843   3.082  2.0775  2.1774 -0.8312
  160SAPE   C3817883   2.767   2.778   3.280 -0.3258 -0.1407 -0.6230
  160SAPE   H8X17884   2.666   2.735   3.297 -0.7397  1.3392  0.9169
  160SAPE   H8Y17885   2.759   2.878   3.328 -0.3960  0.3105 -1.5479
  160SAPE   C3917886   2.870   2.700   3.362 -0.3002  0.1356 -0.0319
  160SAPE   H9X17887   2.963   2.760   3.372 -0.8685  0.9865  0.2046
  160SAPE   H9Y17888   2.906   2.610   3.307  0.4930  1.3657 -1.6095
  160SAPE  C31017889   2.821   2.662   3.502 -0.2184 -0.0203 -0.0944
  160SAPE  H10X17890   2.721   2.615   3.488 -0.0638 -0.9156  1.5731
  160SAPE  H10Y17891   2.806   2.756   3.559  0.9958 -1.4050  2.6696
  160SAPE  C31117892   2.931   2.574   3.575  0.5323 -0.3583 -0.5311
  160SAPE  H11X17893   3.023   2.637   3.576  1.9447 -2.3158 -0.7732
  160SAPE  H11Y17894   2.950   2.478   3.524  1.8345 -0.9058  0.8895
  160SAPE  C31217895   2.893   2.559   3.721  0.3800 -0.2903  0.1528
  160SAPE  H12X17896   2.805   2.495   3.742 -0.5609  1.8520  3.3818
  160SAPE  H12Y17897   2.858   2.657   3.759  0.1908 -0.4462  0.3781
  160SAPE  C31317898   3.018   2.522   3.803  0.1588  0.0788 -0.2148
  160SAPE  H13X17899   3.097   2.598   3.783  1.6949 -1.4280 -0.1466
  160SAPE  H13Y17900   3.051   2.422   3.766 -1.2737  0.1328 -1.7538
  160SAPE  C31417901   2.995   2.506   3.948  0.2136 -0.1136 -0.8638
  160SAPE  H14X17902   3.080   2.463   4.005 -0.6374 -0.4806  0.1486
  160SAPE  H14Y17903   2.919   2.427   3.962 -1.3475  1.2281 -1.3685
  160SAPE  C31517904   2.951   2.637   4.024 -0.3719  0.0590  0.6065
  160SAPE  H15X17905   2.941   2.620   4.133  0.0459  1.4101  0.8714
  160SAPE  H15Y17906   2.849   2.657   3.985  0.2845  0.2126 -1.1422
  160SAPE  C31617907   3.051   2.746   4.005 -0.3491 -0.7703 -0.3571
  160SAPE  H16X17908   3.059   2.786   3.901 -0.5001 -0.3080 -0.1950
  160SAPE  H16Y17909   3.151   2.707   4.031 -1.1932 -0.9176  3.1161
  160SAPE  C31717910   3.038   2.871   4.084  0.2788 -0.5277 -0.3247
  160SAPE  H17X17911   2.940   2.919   4.060  1.6872  1.7455 -2.0209
  160SAPE  H17Y17912   3.113   2.944   4.045 -0.0579 -1.3198 -2.6120
  160SAPE  C31817913   3.049   2.848   4.234 -0.4086  1.1802 -0.5093
  160SAPE  H18X17914   3.152   2.816   4.260 -1.4216 -2.3407 -0.1743
  160SAPE  H18Y17915   2.980   2.765   4.263 -1.3314  1.9631 -0.3953
  160SAPE  H18Z17916   3.032   2.944   4.287  1.8623  1.5784 -0.4405
  161SAPE     N17917   2.472   6.137   2.030  0.5209  0.2673 -0.3228
  161SAPE   HN117918   2.544   6.186   1.973  1.7715  0.3053  1.2234
  161SAPE   HN217919   2.496   6.172   2.125  2.3206 -0.2279 -0.5430
  161SAPE   HN317920   2.495   6.036   2.035 -0.5893  0.0590  1.3297
  161SAPE   C1217921   2.328   6.164   2.001  0.2507  0.2250 -0.6376
  161SAPE  H12A17922   2.313   6.132   1.895 -3.0270 -0.2183 -0.1470
  161SAPE  H12B17923   2.305   6.272   2.006 -2.7434 -0.3491 -0.0104
  161SAPE   C1117924   2.228   6.071   2.077  0.2201  0.4046 -0.2564
  161SAPE  H11A17925   2.264   5.970   2.050  1.8256  1.1026 -0.8147
  161SAPE  H11B17926   2.124   6.067   2.038 -0.2020  2.7355  0.4667
  161SAPE     P17927   2.135   6.189   2.286 -0.3220 -0.0179  0.3668
  161SAPE   O1317928   2.144   6.326   2.235  0.1207 -0.8776 -0.3474
  161SAPE   O1417929   2.001   6.127   2.279  0.0263  0.2896 -0.0583
  161SAPE   O1217930   2.227   6.085   2.216 -0.8113  0.2681 -0.3937
  161SAPE   O1117931   2.193   6.191   2.429 -0.3084  0.1839  0.2354
  161SAPE    C117932   2.222   6.062   2.481  0.2942  0.5280  0.6342
  161SAPE    HA17933   2.132   5.999   2.467  0.4272  0.3238  0.6941
  161SAPE    HB17934   2.311   6.013   2.437  0.4223 -0.1394  1.6026
  161SAPE    C217935   2.275   6.055   2.633 -0.6798 -0.0264 -0.1055
  161SAPE    HS17936   2.294   5.953   2.673 -0.7873 -0.2836 -0.7013
  161SAPE   O2117937   2.178   6.115   2.712 -0.2981 -0.5805 -0.4361
  161SAPE   C2117938   2.065   6.047   2.734 -0.3606 -0.1476 -0.1129
  161SAPE   O2217939   2.045   5.939   2.689 -0.0772  0.2967 -0.3142
  161SAPE   C2217940   1.965   6.135   2.818  0.8587  0.0047 -0.0564
  161SAPE   H2R17941   1.888   6.163   2.742  2.1466  0.9581 -1.0515
  161SAPE   H2S17942   1.919   6.071   2.896  1.5532 -1.1071 -0.5497
  161SAPE    C317943   2.418   6.121   2.628 -0.4321 -0.6867  0.1168
  161SAPE    HX17944   2.417   6.216   2.569  0.9422 -1.1754 -0.7589
  161SAPE    HY17945   2.472   6.043   2.570 -0.2600 -2.6871  2.7779
  161SAPE   O3117946   2.479   6.138   2.760  0.5025 -0.4092 -0.7304
  161SAPE   C3117947   2.460   6.258   2.815 -0.1646  0.5994  0.5954
  161SAPE   O3217948   2.400   6.354   2.766  0.1440  0.5944 -0.5338
  161SAPE   C3217949   2.542   6.260   2.937 -1.1475  0.3143 -1.3378
  161SAPE   H2X17950   2.641   6.209   2.937 -1.3151 -0.0267 -0.3160
  161SAPE   H2Y17951   2.489   6.199   3.013  1.4408 -2.0443 -1.2647
  161SAPE   C2317952   2.021   6.258   2.888  0.0252  0.1530  0.4945
  161SAPE   H3R17953   1.936   6.328   2.901  0.8221  1.2758 -0.1622
  161SAPE   H3S17954   2.083   6.318   2.819  0.9055  0.1599  1.2649
  161SAPE   C2417955   2.083   6.241   3.018  0.1285 -0.5639  0.6257
  161SAPE   H4R17956   2.164   6.165   3.010  0.1038 -0.7106  1.5720
  161SAPE   H4S17957   2.010   6.200   3.091  1.1889 -2.0938  0.8812
  161SAPE   C2517958   2.133   6.373   3.072  0.0255 -0.2848  0.1194
  161SAPE   H5R17959   2.182   6.442   3.001  2.7966  1.2548  3.2552
  161SAPE   C2617960   2.127   6.416   3.205 -1.2247  0.6513  0.6446
  161SAPE   H6R17961   2.177   6.509   3.235  3.1568 -1.2110 -0.1305
  161SAPE   C2717962   2.063   6.335   3.319  0.2789  0.7282  0.4906
  161SAPE   H7R17963   1.991   6.258   3.284 -2.1887  2.1966  2.0730
  161SAPE   H7S17964   1.993   6.407   3.367  0.1567  1.0441 -0.1594
  161SAPE   C2817965   2.161   6.275   3.416 -0.3702 -0.0319 -0.1722
  161SAPE   H8R17966   2.237   6.224   3.354  0.0941  0.2325  0.1738
  161SAPE   C2917967   2.169   6.286   3.549 -1.1022  0.1253 -0.6015
  161SAPE   H9R17968   2.253   6.233   3.596 -1.2623  1.4538  1.2926
  161SAPE  C21017969   2.082   6.351   3.656  0.0273  0.2496  0.5292
  161SAPE  H10R17970   2.007   6.412   3.601  1.0743  1.0643 -0.0311
  161SAPE  H10S17971   2.147   6.422   3.711  0.2615 -0.8556  1.7441
  161SAPE  C21117972   2.030   6.237   3.744 -0.2498  0.3283  0.1158
  161SAPE  H11R17973   2.011   6.142   3.691  2.7121 -1.1765  1.4615
  161SAPE  C21217974   2.007   6.252   3.875 -0.4595  0.4471  0.4378
  161SAPE  H12R17975   1.962   6.170   3.933 -0.2156  0.5580  0.7848
  161SAPE  C21317976   2.030   6.380   3.955  0.4755  0.4466  0.0264
  161SAPE  H13R17977   1.972   6.455   3.897  0.3384 -0.3083 -0.8293
  161SAPE  H13S17978   2.140   6.386   3.960  0.5612 -0.4805 -0.4240
  161SAPE  C21417979   1.969   6.378   4.090 -0.1684  0.2852 -0.2713
  161SAPE  H14R17980   1.864   6.412   4.092 -0.2419  0.0453  1.7032
  161SAPE  C21517981   2.023   6.358   4.207 -0.4456 -0.7725  0.5600
  161SAPE  H15R17982   1.955   6.366   4.294 -1.4943  0.4549 -0.3298
  161SAPE  C21617983   2.171   6.333   4.232 -0.6492  0.3532  0.8624
  161SAPE  H16R17984   2.220   6.289   4.142 -2.3264 -1.3503  0.7141
  161SAPE  H16S17985   2.194   6.267   4.318  0.3339  1.6241  1.6100
  161SAPE  C21717986   2.253   6.467   4.274 -0.5133 -0.1502 -0.6309
  161SAPE  H17R17987   2.225   6.550   4.206  1.6358 -0.8156 -2.4383
  161SAPE  H17S17988   2.359   6.440   4.257 -1.5467 -4.6866 -1.3350
  161SAPE  C21817989   2.226   6.533   4.407 -0.1060 -0.1071 -0.4644
  161SAPE  H18R17990   2.221   6.456   4.487 -1.5392 -0.6733 -1.0692
  161SAPE  H18S17991   2.129   6.587   4.405 -0.9037 -1.4868 -0.6200
  161SAPE  C21917992   2.345   6.624   4.442  0.1429 -0.2411  0.1729
  161SAPE  H19R17993   2.378   6.697   4.365 -1.5984  2.0120  1.4092
  161SAPE  H19S17994   2.425   6.549   4.453 -0.8281 -1.4961 -0.9903
  161SAPE  C22017995   2.339   6.701   4.580  0.5439  0.4785  0.0991
  161SAPE  H20R17996   2.300   6.634   4.659  1.0604  0.0155 -0.0291
  161SAPE  H20S17997   2.281   6.794   4.566  0.9274  0.8755  1.1112
  161SAPE  H20T17998   2.442   6.740   4.595  0.2662  2.6955 -2.7754
  161SAPE   C3317999   2.546   6.407   2.994  0.6299  0.2599  0.1764
  161SAPE   H3X18000   2.443   6.446   3.006 -0.2179 -1.5326 -0.8367
  161SAPE   H3Y18001   2.591   6.475   2.919 -0.2181  0.5814 -0.0476
  161SAPE   C3418002   2.610   6.414   3.126 -0.4974  0.2172 -0.5383
  161SAPE   H4X18003   2.615   6.520   3.157  1.5647 -0.5285  2.0337
  161SAPE   H4Y18004   2.708   6.363   3.116 -0.7659 -0.2576 -0.8071
  161SAPE   C3518005   2.538   6.337   3.237 -0.8463 -0.0772  0.8631
  161SAPE   H5X18006   2.533   6.231   3.204  0.3930 -0.4120  1.6861
  161SAPE   H5Y18007   2.438   6.379   3.262 -1.1365 -0.8578  1.0217
  161SAPE   C3618008   2.625   6.329   3.368  0.2795 -0.2215  0.0345
  161SAPE   H6X18009   2.627   6.426   3.421  3.0685 -1.2190  1.9886
  161SAPE   H6Y18010   2.729   6.294   3.353  0.6908  1.4414 -1.3200
  161SAPE   C3718011   2.563   6.224   3.465  0.4484  0.7785 -0.2405
  161SAPE   H7X18012   2.593   6.124   3.426 -0.5023  0.4955 -0.2582
  161SAPE   H7Y18013   2.452   6.224   3.463  0.4291  1.6249  0.4390
  161SAPE   C3818014   2.625   6.231   3.602 -0.4915 -0.2426  1.0853
  161SAPE   H8X18015   2.732   6.259   3.590 -0.2329 -1.7126 -0.4120
  161SAPE   H8Y18016   2.612   6.134   3.653  3.7844 -0.1605  2.7176
  161SAPE   C3918017   2.574   6.352   3.679 -1.0199 -0.1060  0.3050
  161SAPE   H9X18018   2.464   6.336   3.675 -1.1515  0.9672 -1.1535
  161SAPE   H9Y18019   2.589   6.452   3.634  0.5438  0.2343  1.4881
  161SAPE  C31018020   2.622   6.341   3.821  0.1189  0.2869  0.5145
  161SAPE  H10X18021   2.733   6.337   3.817  0.1647 -1.0957  2.1477
  161SAPE  H10Y18022   2.587   6.248   3.871  0.3753 -0.8056 -1.2484
  161SAPE  C31118023   2.593   6.472   3.904 -0.4425  0.1999 -0.0537
  161SAPE  H11X18024   2.487   6.503   3.897 -0.2302  1.2767  1.2154
  161SAPE  H11Y18025   2.659   6.553   3.867 -2.0013 -0.0525 -3.8350
  161SAPE  C31218026   2.604   6.465   4.059 -0.0847  0.3909  0.5732
  161SAPE  H12X18027   2.566   6.366   4.092 -1.0443  0.3144 -0.7106
  161SAPE  H12Y18028   2.552   6.555   4.098  1.5981  1.2528  0.9235
  161SAPE  C31318029   2.749   6.456   4.110 -0.0661  0.2340  0.2685
  161SAPE  H13X18030   2.814   6.539   4.076 -0.2830 -0.0640 -0.9214
  161SAPE  H13Y18031   2.802   6.367   4.069 -0.2234  0.7983 -1.2020
  161SAPE  C31418032   2.751   6.460   4.262 -0.7291  0.4472  0.2034
  161SAPE  H14X18033   2.847   6.416   4.296 -0.6896  0.3699 -0.0097
  161SAPE  H14Y18034   2.667   6.397   4.298 -0.4884  0.0719  0.1097
  161SAPE  C31518035   2.743   6.603   4.333 -0.4471 -0.2139  1.1961
  161SAPE  H15X18036   2.644   6.642   4.301  0.8373  2.3916  0.1160
  161SAPE  H15Y18037   2.822   6.668   4.290  1.9952 -3.8846 -0.3880
  161SAPE  C31618038   2.743   6.595   4.483  0.0967 -0.2120 -0.0491
  161SAPE  H16X18039   2.660   6.534   4.524 -1.6275  1.7148 -0.4707
  161SAPE  H16Y18040   2.734   6.687   4.545  0.8242 -0.5561  0.5843
  161SAPE  C31718041   2.876   6.536   4.529 -0.5614  0.3152 -0.4811
  161SAPE  H17X18042   2.951   6.570   4.454 -1.9492  1.6112 -1.3345
  161SAPE  H17Y18043   2.867   6.425   4.538  0.0186  0.4329  2.6664
  161SAPE  C31818044   2.921   6.574   4.672  0.5602  0.0197  0.7005
  161SAPE  H18X18045   3.012   6.516   4.698  1.1060  0.2838 -0.5823
  161SAPE  H18Y18046   2.835   6.581   4.742  0.6668 -0.2269  0.8569
  161SAPE  H18Z18047   2.973   6.671   4.681 -1.1419  0.8781  1.8325
  162SAPE     N18048   6.587   1.887   2.411  0.5269 -0.2117 -0.0034
  162SAPE   HN118049   6.628   1.976   2.444  0.1021  0.2819 -0.7929
  162SAPE   HN218050   6.512   1.917   2.345  1.2597  1.2282 -0.2091
  162SAPE   HN318051   6.544   1.831   2.488 -0.7338  0.6716 -0.0275
  162SAPE   C1218052   6.689   1.802   2.331  0.0996  0.1746  0.2999
  162SAPE  H12A18053   6.779   1.788   2.393  0.9182  1.1413 -0.6310
  162SAPE  H12B18054   6.704   1.859   2.236 -0.8562 -1.7726 -1.0761
  162SAPE   C1118055   6.632   1.661   2.306  0.2110 -0.0741 -0.2939
  162SAPE  H11A18056   6.709   1.595   2.262  0.4389  0.8676 -1.3716
  162SAPE  H11B18057   6.552   1.660   2.228 -0.9995 -0.6092  0.9062
  162SAPE     P18058   6.565   1.452   2.453 -0.3689  0.4155 -0.0073
  162SAPE   O1318059   6.538   1.389   2.323 -0.3155 -0.4091 -0.3004
  162SAPE   O1418060   6.666   1.396   2.546 -0.4938  0.2451 -0.1246
  162SAPE   O1218061   6.589   1.605   2.429  0.0495 -0.3178 -0.2111
  162SAPE   O1118062   6.433   1.438   2.533 -0.2298 -0.2359 -0.0869
  162SAPE    C118063   6.335   1.533   2.539  0.0990 -0.2047 -0.0630
  162SAPE    HA18064   6.348   1.627   2.481 -1.1617 -0.0862 -0.1896
  162SAPE    HB18065   6.250   1.492   2.482  2.0513 -1.9595 -1.8533
  162SAPE    C218066   6.296   1.578   2.681 -0.0297  0.1504 -0.6630
  162SAPE    HS18067   6.219   1.658   2.684 -1.7526 -1.4762  1.4977
  162SAPE   O2118068   6.414   1.600   2.773 -0.7086 -0.1870  0.1814
  162SAPE   C2118069   6.487   1.708   2.752 -0.7492 -0.6023 -0.2535
  162SAPE   O2218070   6.469   1.786   2.661  0.1575 -0.3592 -0.2298
  162SAPE   C2218071   6.595   1.721   2.856  0.5178 -0.0325 -0.0157
  162SAPE   H2R18072   6.568   1.818   2.903  2.4000  0.5527 -0.0405
  162SAPE   H2S18073   6.588   1.622   2.908 -1.4506 -0.9463 -1.8832
  162SAPE    C318074   6.223   1.455   2.743  0.4244 -0.3890  0.2544
  162SAPE    HX18075   6.294   1.374   2.716  1.1757  0.5097 -0.5367
  162SAPE    HY18076   6.128   1.446   2.686  0.9216 -0.1570 -0.6265
  162SAPE   O3118077   6.198   1.464   2.889 -0.8554  0.6641 -0.2748
  162SAPE   C3118078   6.141   1.360   2.940 -0.7374  0.2450 -0.2395
  162SAPE   O3218079   6.113   1.256   2.882 -0.1488 -0.0394  0.4510
  162SAPE   C3218080   6.113   1.394   3.084 -0.3500  0.1336  0.6988
  162SAPE   H2X18081   6.110   1.503   3.105  0.6228  0.1925  0.5834
  162SAPE   H2Y18082   6.184   1.348   3.156 -0.4898 -1.3237 -0.0388
  162SAPE   C2318083   6.733   1.758   2.795 -1.0336  0.4519  0.2282
  162SAPE   H3R18084   6.736   1.864   2.762  1.1341  0.3492 -0.1005
  162SAPE   H3S18085   6.756   1.683   2.715  1.6125  0.8313  0.5518
  162SAPE   C2418086   6.843   1.755   2.909  0.3090 -0.1401  0.2473
  162SAPE   H4R18087   6.826   1.851   2.961  3.1704  0.7129 -0.1985
  162SAPE   H4S18088   6.945   1.762   2.865  1.4304 -1.8963  2.3819
  162SAPE   C2518089   6.833   1.636   3.000  0.7125 -0.3237 -0.3835
  162SAPE   H5R18090   6.856   1.539   2.954  2.2669 -0.6042  0.8825
  162SAPE   C2618091   6.816   1.639   3.134  0.4980 -0.0170 -0.1672
  162SAPE   H6R18092   6.793   1.548   3.191 -1.1594  0.2025 -0.4186
  162SAPE   C2718093   6.787   1.775   3.198  0.1681  0.0049 -0.6126
  162SAPE   H7R18094   6.694   1.811   3.150 -3.0702 -1.9367  3.5565
  162SAPE   H7S18095   6.865   1.854   3.186  0.6722  0.5425  4.1309
  162SAPE   C2818096   6.740   1.777   3.343 -0.4431 -0.5159 -1.1517
  162SAPE   H8R18097   6.633   1.784   3.365 -0.5102 -0.5053 -1.4712
  162SAPE   C2918098   6.827   1.757   3.445 -0.7631  0.2890  0.1828
  162SAPE   H9R18099   6.790   1.768   3.548 -1.7211 -0.3511 -0.0773
  162SAPE  C21018100   6.981   1.750   3.429 -0.2885  0.7075  0.1583
  162SAPE  H10R18101   7.018   1.750   3.324 -0.6443 -0.7355  0.0136
  162SAPE  H10S18102   7.020   1.652   3.464 -2.0065 -0.4018 -0.8681
  162SAPE  C21118103   7.049   1.858   3.517  0.4428 -0.5438  0.3658
  162SAPE  H11R18104   7.063   1.957   3.472 -0.1725  1.0409  3.4186
  162SAPE  C21218105   7.120   1.831   3.626 -0.2002 -0.0280  0.0097
  162SAPE  H12R18106   7.191   1.904   3.667  1.0140 -1.9951  1.6494
  162SAPE  C21318107   7.119   1.706   3.712  0.3656  0.3155  0.3697
  162SAPE  H13R18108   7.212   1.708   3.772 -0.3188 -3.1052  1.7994
  162SAPE  H13S18109   7.133   1.620   3.643  2.0731 -0.3943  1.5501
  162SAPE  C21418110   6.998   1.665   3.790  0.4942  0.2458  0.5544
  162SAPE  H14R18111   6.922   1.745   3.798  0.7195  0.5363 -0.1168
  162SAPE  C21518112   6.990   1.562   3.878 -0.0469  0.3300 -0.3568
  162SAPE  H15R18113   6.898   1.548   3.937 -0.2161 -1.7992 -1.0398
  162SAPE  C21618114   7.098   1.461   3.909 -0.0590 -0.9482  0.2554
  162SAPE  H16R18115   7.187   1.508   3.861 -2.0411  2.8168 -0.1187
  162SAPE  H16S18116   7.076   1.362   3.864 -0.8516  0.2686 -2.2502
  162SAPE  C21718117   7.113   1.456   4.065 -0.2030  0.4065 -0.1475
  162SAPE  H17R18118   7.104   1.559   4.105  0.2840  0.0442  0.9322
  162SAPE  H17S18119   7.210   1.408   4.089 -1.2678 -2.2430 -0.8584
  162SAPE  C21818120   7.001   1.363   4.136 -0.4898 -0.2009 -0.6234
  162SAPE  H18R18121   6.897   1.390   4.106 -0.8716 -0.8567  0.0690
  162SAPE  H18S18122   7.023   1.388   4.242  0.3362  0.8495 -1.0179
  162SAPE  C21918123   7.016   1.218   4.107  0.2297 -0.5434 -0.5284
  162SAPE  H19R18124   7.120   1.189   4.134  0.1353 -0.4772 -0.0769
  162SAPE  H19S18125   6.990   1.195   4.001  0.8135  1.1346 -1.0575
  162SAPE  C22018126   6.918   1.128   4.190 -0.5124  0.6288  0.2975
  162SAPE  H20R18127   6.937   1.135   4.300 -0.7834  1.5474  0.2974
  162SAPE  H20S18128   6.938   1.025   4.153  0.6699  1.2521 -0.8503
  162SAPE  H20T18129   6.813   1.151   4.162 -0.4419 -1.4541 -1.9914
  162SAPE   C3318130   5.970   1.348   3.114 -0.2200 -0.4296  0.1273
  162SAPE   H3X18131   5.958   1.354   3.224 -1.5388  0.4948 -0.0452
  162SAPE   H3Y18132   5.971   1.242   3.083  2.3216 -0.4803  0.1537
  162SAPE   C3418133   5.869   1.434   3.031 -0.0153 -0.1555 -0.3010
  162SAPE   H4X18134   5.793   1.357   3.004  0.4470 -0.9005  0.4903
  162SAPE   H4Y18135   5.907   1.466   2.932 -0.1121 -0.1468 -0.3359
  162SAPE   C3518136   5.820   1.559   3.102 -0.3630 -0.1543  0.2478
  162SAPE   H5X18137   5.774   1.627   3.027  0.2828  1.0126  0.8625
  162SAPE   H5Y18138   5.901   1.623   3.144  1.4660 -2.0899 -0.1682
  162SAPE   C3618139   5.707   1.537   3.200 -0.4393 -1.0598  0.0873
  162SAPE   H6X18140   5.645   1.445   3.193 -0.0565 -1.3343  0.2617
  162SAPE   H6Y18141   5.629   1.616   3.190  1.8386  1.2999 -0.1563
  162SAPE   C3718142   5.759   1.541   3.347  0.9832 -0.0259 -0.1043
  162SAPE   H7X18143   5.795   1.643   3.373  0.8333 -0.5799  2.5242
  162SAPE   H7Y18144   5.844   1.472   3.361  0.8436 -0.2554 -0.3839
  162SAPE   C3818145   5.661   1.504   3.453  0.2476  0.0366  0.2877
  162SAPE   H8X18146   5.620   1.404   3.427  1.3456 -1.5687  4.0242
  162SAPE   H8Y18147   5.574   1.571   3.469  0.9760  0.9694  0.4557
  162SAPE   C3918148   5.729   1.473   3.591  0.4868  0.3861  0.8826
  162SAPE   H9X18149   5.762   1.569   3.636 -0.1326  0.7792  0.5167
  162SAPE   H9Y18150   5.814   1.403   3.578  0.9498  1.3747 -2.0205
  162SAPE  C31018151   5.639   1.406   3.697 -0.0576 -0.4026  0.0441
  162SAPE  H10X18152   5.622   1.302   3.661 -0.0990 -0.0510 -1.0045
  162SAPE  H10Y18153   5.543   1.462   3.692 -0.7033 -1.4591  0.4474
  162SAPE  C31118154   5.714   1.399   3.832 -0.5156  0.1816  0.9175
  162SAPE  H11X18155   5.725   1.500   3.876 -0.6235  0.1292  1.0642
  162SAPE  H11Y18156   5.808   1.346   3.804 -1.3536  0.3850 -2.8510
  162SAPE  C31218157   5.625   1.329   3.934  0.1030  0.5037  0.4387
  162SAPE  H12X18158   5.633   1.220   3.916  2.0231  0.4756  1.2758
  162SAPE  H12Y18159   5.521   1.365   3.918  0.1504  0.0717 -0.9943
  162SAPE  C31318160   5.665   1.352   4.075  0.3099 -0.3327  1.0497
  162SAPE  H13X18161   5.680   1.461   4.093 -3.1639  0.3787  0.3663
  162SAPE  H13Y18162   5.755   1.288   4.086 -0.4911 -2.4670 -2.8066
  162SAPE  C31418163   5.554   1.308   4.172 -0.0700  0.2445  0.5909
  162SAPE  H14X18164   5.527   1.202   4.153  2.7628 -0.6678  1.1749
  162SAPE  H14Y18165   5.462   1.366   4.149  0.1618  0.2891 -0.2795
  162SAPE  C31518166   5.579   1.319   4.320  0.2770 -0.8211 -0.1938
  162SAPE  H15X18167   5.676   1.267   4.330  0.3667 -0.6267 -0.0599
  162SAPE  H15Y18168   5.497   1.264   4.372  1.3655 -1.1666  1.1978
  162SAPE  C31618169   5.598   1.464   4.361 -0.0395 -0.0018 -0.2188
  162SAPE  H16X18170   5.506   1.520   4.333  0.3634 -0.5490 -2.8010
  162SAPE  H16Y18171   5.680   1.514   4.306  0.0760  0.9908  0.8037
  162SAPE  C31718172   5.644   1.488   4.506  0.2022  0.6504  0.4999
  162SAPE  H17X18173   5.654   1.596   4.531  0.0878  0.7241  0.2375
  162SAPE  H17Y18174   5.736   1.430   4.527 -0.2583 -0.1975  0.2611
  162SAPE  C31818175   5.541   1.428   4.604 -0.1058 -0.7710  0.2883
  162SAPE  H18X18176   5.443   1.480   4.612  0.6148  0.6073  0.3952
  162SAPE  H18Y18177   5.576   1.428   4.709 -0.9630  0.5495  0.5996
  162SAPE  H18Z18178   5.517   1.321   4.584 -2.2070 -0.5014  1.1045
  163SAPE     N18179   0.874   6.682   2.234 -0.5310  0.4279 -0.4496
  163SAPE   HN118180   0.774   6.655   2.228 -0.4729 -0.6350  2.1201
  163SAPE   HN218181   0.937   6.600   2.240  3.2294  3.0963 -0.1809
  163SAPE   HN318182   0.899   6.746   2.312 -2.3548 -0.5806  1.0508
  163SAPE   C1218183   0.908   6.758   2.111  0.2543 -0.3798 -0.4381
  163SAPE  H12A18184   0.838   6.844   2.110 -2.0889 -2.1076  1.8800
  163SAPE  H12B18185   0.880   6.705   2.018  0.5372  0.7688 -1.2029
  163SAPE   C1118186   1.048   6.809   2.116  0.7346  1.0292 -0.2971
  163SAPE  H11A18187   1.070   6.865   2.208 -1.9309  0.9264  0.4846
  163SAPE  H11B18188   1.056   6.871   2.024  0.7812  0.8966 -0.3828
  163SAPE     P18189   1.300   6.726   2.109  0.2252  0.5289  0.9863
  163SAPE   O1318190   1.377   6.601   2.109 -0.3098 -0.5079 -0.0161
  163SAPE   O1418191   1.325   6.831   1.998  0.6595  0.8215 -0.0782
  163SAPE   O1218192   1.140   6.695   2.102 -0.5176 -0.4155 -0.1016
  163SAPE   O1118193   1.320   6.803   2.249  0.3154  1.0177 -0.5245
  163SAPE    C118194   1.332   6.719   2.366 -0.0585  0.5939  0.5041
  163SAPE    HA18195   1.361   6.613   2.347 -3.2896 -0.3204 -0.0919
  163SAPE    HB18196   1.405   6.764   2.436  0.8175  1.1573 -0.7382
  163SAPE    C218197   1.192   6.701   2.432  0.2002  0.7091 -0.5007
  163SAPE    HS18198   1.108   6.678   2.363  0.0187  1.4304 -0.5214
  163SAPE   O2118199   1.169   6.821   2.502 -0.1817 -1.3596  0.0786
  163SAPE   C2118200   1.040   6.839   2.536 -0.0514  0.3818  0.8211
  163SAPE   O2218201   0.954   6.759   2.507  0.1837 -0.0227  0.0947
  163SAPE   C2218202   1.026   6.958   2.626  0.5566  0.5140 -0.5701
  163SAPE   H2R18203   1.124   7.010   2.622  0.1878  1.1445 -2.5935
  163SAPE   H2S18204   0.936   7.018   2.599 -0.0976 -0.7642 -1.3304
  163SAPE    C318205   1.205   6.577   2.527  0.3028  0.0054  0.7992
  163SAPE    HX18206   1.231   6.490   2.464  0.7709  0.8961 -0.2732
  163SAPE    HY18207   1.105   6.564   2.574  0.0998 -0.1782  0.3156
  163SAPE   O3118208   1.310   6.599   2.620  0.3916 -0.0848  0.2868
  163SAPE   C3118209   1.300   6.517   2.732 -0.6279  0.3575  0.4904
  163SAPE   O3218210   1.200   6.461   2.766 -0.3003 -0.9164 -1.1193
  163SAPE   C3218211   1.433   6.510   2.806  0.2561 -0.0111  0.7734
  163SAPE   H2X18212   1.518   6.538   2.741  1.0625 -2.3792  0.7093
  163SAPE   H2Y18213   1.432   6.400   2.824 -0.6044 -0.0052  0.8387
  163SAPE   C2318214   0.988   6.903   2.771 -0.2502  0.0731 -0.3108
  163SAPE   H3R18215   0.899   6.836   2.775  0.3118 -0.7404 -1.0049
  163SAPE   H3S18216   0.960   6.987   2.839 -0.3434 -0.1102 -0.1188
  163SAPE   C2418217   1.113   6.832   2.835 -0.7757  0.0082 -0.6468
  163SAPE   H4R18218   1.140   6.737   2.784  1.8543 -1.0960  2.4512
  163SAPE   H4S18219   1.083   6.797   2.936  1.2200  0.1600  0.0556
  163SAPE   C2518220   1.240   6.912   2.847 -0.3844  0.2800 -0.1030
  163SAPE   H5R18221   1.305   6.905   2.759  1.5012  1.1687  1.1587
  163SAPE   C2618222   1.292   6.977   2.954 -0.7524  0.5716  0.5800
  163SAPE   H6R18223   1.384   7.036   2.942  0.7492 -1.0894  3.0579
  163SAPE   C2718224   1.231   6.989   3.095  0.0168 -0.3030 -0.5326
  163SAPE   H7R18225   1.121   7.003   3.083  0.2798  2.4702 -0.2874
  163SAPE   H7S18226   1.254   7.085   3.145 -3.3055  1.1998 -1.6529
  163SAPE   C2818227   1.254   6.867   3.180  0.7352 -0.4061 -0.2716
  163SAPE   H8R18228   1.235   6.770   3.131  0.1847  0.2316 -1.3572
  163SAPE   C2918229   1.322   6.866   3.298  0.6782  0.6900 -0.5169
  163SAPE   H9R18230   1.335   6.778   3.363 -1.9332  0.4281 -0.2318
  163SAPE  C21018231   1.376   6.995   3.363  0.0222 -0.3399  0.5290
  163SAPE  H10R18232   1.294   7.022   3.432 -0.1553  0.0548  0.1639
  163SAPE  H10S18233   1.387   7.086   3.301  0.8091  0.5796  1.9538
  163SAPE  C21118234   1.508   6.969   3.435 -0.5910 -0.4324 -0.0141
  163SAPE  H11R18235   1.592   7.000   3.372 -0.7912 -0.2306 -0.1809
  163SAPE  C21218236   1.520   6.920   3.562 -0.0904 -0.2849  0.3424
  163SAPE  H12R18237   1.617   6.915   3.614 -0.4682  0.8310  1.1989
  163SAPE  C21318238   1.400   6.891   3.639  0.1879  0.0891  0.1719
  163SAPE  H13R18239   1.323   6.840   3.578 -0.5043 -0.9546  1.8696
  163SAPE  H13S18240   1.357   6.989   3.667 -2.1340 -0.5750 -0.7972
  163SAPE  C21418241   1.442   6.803   3.754 -0.1482 -0.5883 -0.9681
  163SAPE  H14R18242   1.443   6.696   3.727  0.8133 -0.2370 -2.4141
  163SAPE  C21518243   1.492   6.842   3.878  0.1083  0.5962 -0.2374
  163SAPE  H15R18244   1.514   6.761   3.949 -0.4088  0.4324 -0.2585
  163SAPE  C21618245   1.503   6.976   3.945  0.1387  0.7717  0.5584
  163SAPE  H16R18246   1.503   7.048   3.860 -0.9790  0.4202  0.2379
  163SAPE  H16S18247   1.605   6.978   3.988  0.6459 -2.0896 -0.2689
  163SAPE  C21718248   1.396   7.033   4.039  0.4382 -0.0272  0.4211
  163SAPE  H17R18249   1.299   7.059   3.991  0.5842  1.0603  0.6874
  163SAPE  H17S18250   1.432   7.132   4.076  2.9759 -1.4390  1.9799
  163SAPE  C21818251   1.367   6.944   4.157 -0.2262  0.4540 -0.5131
  163SAPE  H18R18252   1.458   6.934   4.221 -0.1123 -0.2401 -0.7744
  163SAPE  H18S18253   1.334   6.841   4.134  2.2179 -0.5851  0.3245
  163SAPE  C21918254   1.259   6.987   4.257  0.3537  0.5130 -0.3391
  163SAPE  H19R18255   1.269   6.905   4.332  1.0422  0.6507 -0.2701
  163SAPE  H19S18256   1.167   6.975   4.197 -0.3305  3.4560  0.0055
  163SAPE  C22018257   1.256   7.126   4.320 -0.1757  0.2441 -0.2400
  163SAPE  H20R18258   1.352   7.148   4.372 -1.6035 -1.1191  3.2690
  163SAPE  H20S18259   1.190   7.138   4.408 -1.2179 -1.9474 -0.6354
  163SAPE  H20T18260   1.238   7.208   4.247 -0.1745 -1.0010 -1.6999
  163SAPE   C3318261   1.433   6.577   2.941 -0.8258  0.1105 -0.1150
  163SAPE   H3X18262   1.381   6.516   3.018 -1.9288  0.9531 -0.1699
  163SAPE   H3Y18263   1.371   6.668   2.929 -2.1447 -0.9009 -1.2717
  163SAPE   C3418264   1.575   6.627   2.976 -0.2145  1.1218 -1.0159
  163SAPE   H4X18265   1.558   6.679   3.073 -1.9373  0.4506 -0.9258
  163SAPE   H4Y18266   1.605   6.701   2.899  2.7072 -0.2311 -1.3029
  163SAPE   C3518267   1.681   6.515   2.984  0.6012  0.2282  0.2103
  163SAPE   H5X18268   1.774   6.554   3.030  1.6566 -1.0026 -0.8095
  163SAPE   H5Y18269   1.705   6.481   2.881  0.7131  1.7569 -0.2845
  163SAPE   C3618270   1.635   6.413   3.086 -0.1727  0.0309  0.6790
  163SAPE   H6X18271   1.554   6.354   3.037 -0.3037  0.8432 -0.1213
  163SAPE   H6Y18272   1.598   6.466   3.177  1.2794 -1.2597  2.0786
  163SAPE   C3718273   1.735   6.311   3.142 -0.0704 -0.2111  0.0392
  163SAPE   H7X18274   1.818   6.383   3.160  1.1219 -1.7144  0.7417
  163SAPE   H7Y18275   1.769   6.240   3.064  0.2769  0.3246 -0.3010
  163SAPE   C3818276   1.693   6.249   3.278 -0.2723 -0.6157  0.5019
  163SAPE   H8X18277   1.773   6.182   3.314 -0.1874 -0.1727  1.1636
  163SAPE   H8Y18278   1.606   6.184   3.257 -1.1137  1.1006 -1.7904
  163SAPE   C3918279   1.659   6.350   3.395 -0.1569 -0.1398 -0.3894
  163SAPE   H9X18280   1.560   6.398   3.377 -0.3776 -0.5856 -0.3772
  163SAPE   H9Y18281   1.732   6.433   3.405  0.6219 -0.9380  0.7582
  163SAPE  C31018282   1.655   6.279   3.531 -0.4589 -0.2575 -0.6659
  163SAPE  H10X18283   1.756   6.238   3.552 -0.1462  0.8120 -0.0060
  163SAPE  H10Y18284   1.589   6.190   3.529 -0.2930 -0.4233  0.4396
  163SAPE  C31118285   1.612   6.372   3.646  0.0564  0.0813 -0.9332
  163SAPE  H11X18286   1.508   6.404   3.621 -0.0018 -0.2724 -1.1429
  163SAPE  H11Y18287   1.674   6.462   3.668  0.5759 -0.9653  2.4763
  163SAPE  C31218288   1.598   6.293   3.775  0.3707 -0.6056 -0.0080
  163SAPE  H12X18289   1.693   6.239   3.797  0.1121 -1.0788 -0.0263
  163SAPE  H12Y18290   1.507   6.230   3.769  1.0144 -1.8209  1.9209
  163SAPE  C31318291   1.575   6.392   3.898  0.3394  0.0061  0.0540
  163SAPE  H13X18292   1.502   6.474   3.882 -1.8183 -1.8271 -0.1017
  163SAPE  H13Y18293   1.679   6.426   3.913  1.4708 -2.8701 -0.5068
  163SAPE  C31418294   1.532   6.307   4.019 -0.7876 -0.0988 -0.0319
  163SAPE  H14X18295   1.603   6.223   4.011  1.1961  1.4657  0.3476
  163SAPE  H14Y18296   1.433   6.263   3.992 -1.8488  1.1565  1.6025
  163SAPE  C31518297   1.543   6.377   4.151  0.1795 -0.1209 -0.4214
  163SAPE  H15X18298   1.462   6.453   4.147  0.7554  0.5765  0.5324
  163SAPE  H15Y18299   1.642   6.427   4.156  0.3068 -0.3848 -0.2471
  163SAPE  C31618300   1.527   6.283   4.281 -0.4122 -0.4750 -0.2591
  163SAPE  H16X18301   1.474   6.199   4.233 -0.0640 -1.6836  1.3547
  163SAPE  H16Y18302   1.464   6.334   4.358  2.2180  1.1320  1.0285
  163SAPE  C31718303   1.656   6.228   4.340  1.3467  0.1589  0.1407
  163SAPE  H17X18304   1.707   6.296   4.412 -0.4033 -0.9577  2.5931
  163SAPE  H17Y18305   1.725   6.214   4.254 -0.1346  0.3401 -1.1231
  163SAPE  C31818306   1.634   6.087   4.401  0.3060  0.0329 -0.8666
  163SAPE  H18X18307   1.552   6.088   4.476 -0.5595 -0.7972 -1.7702
  163SAPE  H18Y18308   1.720   6.042   4.456 -0.5464  1.5001  1.8221
  163SAPE  H18Z18309   1.596   6.015   4.325 -0.8743 -2.1424  1.6253
  164SAPE     N18310   4.067   0.264   2.079 -0.0044  0.2852  0.2389
  164SAPE   HN118311   4.060   0.364   2.107 -0.6371  0.0822  0.8439
  164SAPE   HN218312   4.043   0.240   1.981 -1.8946 -1.7533  1.0995
  164SAPE   HN318313   3.985   0.226   2.131  0.0386  0.3530  0.3567
  164SAPE   C1218314   4.182   0.189   2.127  0.0820  0.5711 -0.5588
  164SAPE  H12A18315   4.163   0.081   2.108  3.1729 -0.4981  1.5699
  164SAPE  H12B18316   4.198   0.197   2.236  0.2869 -1.9473 -0.3357
  164SAPE   C1118317   4.308   0.235   2.053 -0.5528 -0.7474 -0.2469
  164SAPE  H11A18318   4.291   0.231   1.943  2.2178  0.2726 -0.8051
  164SAPE  H11B18319   4.394   0.169   2.079  1.0305 -0.3354 -3.8205
  164SAPE     P18320   4.462   0.437   2.060  0.0059 -0.2664 -0.3072
  164SAPE   O1318321   4.584   0.365   2.100 -0.5752 -0.1527 -0.3182
  164SAPE   O1418322   4.449   0.476   1.915 -0.1957  0.2520 -1.0699
  164SAPE   O1218323   4.332   0.363   2.104  0.0312  0.3646 -0.3331
  164SAPE   O1118324   4.452   0.567   2.151  0.0520  0.4187  0.1041
  164SAPE    C118325   4.371   0.578   2.262  0.3262  0.2148 -0.3206
  164SAPE    HA18326   4.315   0.673   2.253  0.2093  0.0704 -1.2665
  164SAPE    HB18327   4.300   0.495   2.284  0.0555  1.0809  2.3036
  164SAPE    C218328   4.458   0.586   2.390  0.0328  0.1161  0.1655
  164SAPE    HS18329   4.487   0.483   2.419 -0.3843 -0.5002 -1.4653
  164SAPE   O2118330   4.381   0.652   2.496 -0.0371  0.4982 -0.4018
  164SAPE   C2118331   4.384   0.588   2.615  0.3044 -0.2138 -0.1472
  164SAPE   O2218332   4.462   0.503   2.652  0.0600  0.3234 -0.1419
  164SAPE   C2218333   4.281   0.652   2.709 -0.0239 -0.0797 -0.1192
  164SAPE   H2R18334   4.318   0.755   2.728  0.3982 -0.2100 -0.2180
  164SAPE   H2S18335   4.180   0.649   2.662  0.9082  0.4448 -2.3020
  164SAPE    C318336   4.597   0.654   2.368  0.3465  0.6476  0.0851
  164SAPE    HX18337   4.592   0.765   2.370 -1.6367  0.6123 -1.0148
  164SAPE    HY18338   4.632   0.643   2.263 -0.9490  0.9435 -0.3967
  164SAPE   O3118339   4.691   0.596   2.458 -0.0482  0.6221  0.6757
  164SAPE   C3118340   4.725   0.665   2.562  0.1782  0.1909  0.1874
  164SAPE   O3218341   4.690   0.773   2.590 -0.7924 -0.4688 -0.1032
  164SAPE   C3218342   4.830   0.586   2.641  0.1079  0.0435  0.3177
  164SAPE   H2X18343   4.908   0.564   2.566  1.3965  0.1453  1.5836
  164SAPE   H2Y18344   4.788   0.489   2.674 -0.2722 -0.3057 -1.1294
  164SAPE   C2318345   4.261   0.566   2.835  0.5226  0.0383  0.4267
  164SAPE   H3R18346   4.289   0.460   2.821  1.6145  0.3159  0.3705
  164SAPE   H3S18347   4.154   0.580   2.860 -0.3300  0.0895 -2.8191
  164SAPE   C2418348   4.341   0.610   2.954 -0.6024 -0.9028 -0.1385
  164SAPE   H4R18349   4.326   0.717   2.977 -1.0999 -1.3389  1.7613
  164SAPE   H4S18350   4.446   0.602   2.918 -0.6004 -0.8407 -0.1459
  164SAPE   C2518351   4.324   0.522   3.074 -0.6207  0.1625  1.0496
  164SAPE   H5R18352   4.328   0.413   3.063  0.8470  0.3843 -1.2212
  164SAPE   C2618353   4.313   0.573   3.200 -0.7620 -0.1865 -0.7114
  164SAPE   H6R18354   4.304   0.496   3.278 -0.9775 -0.4655 -1.0091
  164SAPE   C2718355   4.318   0.717   3.245  0.6960 -0.5930 -0.7042
  164SAPE   H7R18356   4.371   0.779   3.169  0.3120 -0.2447 -0.6926
  164SAPE   H7S18357   4.380   0.739   3.334  0.5550  0.8435 -0.9381
  164SAPE   C2818358   4.175   0.761   3.276 -0.6517  0.0679  0.4347
  164SAPE   H8R18359   4.110   0.736   3.191  1.0928  0.0018 -0.9484
  164SAPE   C2918360   4.129   0.824   3.387 -0.2036 -0.1623  0.3406
  164SAPE   H9R18361   4.023   0.854   3.384 -0.2896 -0.4480  0.4691
  164SAPE  C21018362   4.209   0.875   3.504  0.4222 -0.3546  0.2110
  164SAPE  H10R18363   4.186   0.984   3.509 -0.3579 -0.4854 -0.2757
  164SAPE  H10S18364   4.311   0.887   3.460 -0.1000 -0.9044 -1.2300
  164SAPE  C21118365   4.191   0.806   3.640 -0.0259 -0.0091  0.3974
  164SAPE  H11R18366   4.103   0.761   3.687  1.0640 -0.2614  2.3072
  164SAPE  C21218367   4.301   0.798   3.723 -0.1860  0.3710  0.7946
  164SAPE  H12R18368   4.290   0.741   3.816  3.6182 -0.1783  1.0499
  164SAPE  C21318369   4.434   0.859   3.702  0.3469 -0.2803  0.4937
  164SAPE  H13R18370   4.416   0.966   3.679 -0.0307 -0.5584 -0.5367
  164SAPE  H13S18371   4.470   0.821   3.604  0.1108  1.4859 -0.3191
  164SAPE  C21418372   4.532   0.850   3.813 -0.6730  0.0981  0.0846
  164SAPE  H14R18373   4.624   0.792   3.797 -1.6288 -1.4507  0.0319
  164SAPE  C21518374   4.519   0.904   3.934 -0.7912  0.1597  0.0038
  164SAPE  H15R18375   4.597   0.886   4.010 -0.7635 -0.3620 -0.1449
  164SAPE  C21618376   4.409   0.992   3.984  0.7457  0.7728 -0.0507
  164SAPE  H16R18377   4.402   1.007   4.094 -0.6264 -0.2870  0.0260
  164SAPE  H16S18378   4.309   0.962   3.946  1.0521 -0.4348  0.0736
  164SAPE  C21718379   4.455   1.135   3.942  0.3099 -0.1734 -0.0290
  164SAPE  H17R18380   4.474   1.149   3.833  1.5125  0.4395  0.2549
  164SAPE  H17S18381   4.545   1.172   3.995  1.8527 -3.2536 -0.2862
  164SAPE  C21818382   4.351   1.246   3.964  0.4733 -0.1096 -0.3405
  164SAPE  H18R18383   4.397   1.344   3.941 -2.0769  1.4684  0.7592
  164SAPE  H18S18384   4.326   1.250   4.072  0.2651  0.8034 -0.4135
  164SAPE  C21918385   4.228   1.228   3.872  0.0076  0.2198 -0.2290
  164SAPE  H19R18386   4.162   1.313   3.903 -1.2449 -1.2289  1.2632
  164SAPE  H19S18387   4.167   1.138   3.893  1.2793 -0.6413 -0.1445
  164SAPE  C22018388   4.255   1.238   3.726  0.0411  0.2019  0.6651
  164SAPE  H20R18389   4.163   1.229   3.665  1.1111  1.6652 -1.2922
  164SAPE  H20S18390   4.316   1.150   3.695  0.4800 -0.0067  2.0633
  164SAPE  H20T18391   4.304   1.333   3.696  1.8190 -0.8654  0.0052
  164SAPE   C3318392   4.877   0.661   2.763 -0.5059  0.3759  0.0702
  164SAPE   H3X18393   4.901   0.764   2.729 -0.0351 -0.2206 -1.4588
  164SAPE   H3Y18394   4.972   0.618   2.800 -0.9446  1.4473  2.6778
  164SAPE   C3418395   4.777   0.663   2.872  0.4468  0.0179 -0.3265
  164SAPE   H4X18396   4.672   0.673   2.835  0.0473 -0.4774  0.6319
  164SAPE   H4Y18397   4.808   0.754   2.927 -0.6961  1.8295 -2.4796
  164SAPE   C3518398   4.792   0.546   2.962  0.2274 -0.4244 -0.2029
  164SAPE   H5X18399   4.821   0.462   2.896 -0.5045  0.6182 -1.9368
  164SAPE   H5Y18400   4.695   0.528   3.013  0.8790  4.0560  3.3094
  164SAPE   C3618401   4.897   0.574   3.075  0.6890 -0.1951 -0.0804
  164SAPE   H6X18402   4.872   0.668   3.128 -2.6836  0.5626 -2.6320
  164SAPE   H6Y18403   4.998   0.587   3.030 -0.0941  1.6021 -1.4539
  164SAPE   C3718404   4.895   0.459   3.181 -0.0746  1.0318 -0.3358
  164SAPE   H7X18405   4.935   0.368   3.132  1.3682  1.7595 -0.5509
  164SAPE   H7Y18406   4.786   0.448   3.200 -0.5569 -0.5080 -3.4038
  164SAPE   C3818407   4.995   0.492   3.292  0.1796  0.2335  0.7846
  164SAPE   H8X18408   5.032   0.597   3.290  1.0161 -0.0610  0.3708
  164SAPE   H8Y18409   5.086   0.432   3.274 -0.1427  0.2765 -1.1958
  164SAPE   C3918410   4.940   0.463   3.435 -0.8321  0.4057  0.4496
  164SAPE   H9X18411   4.864   0.383   3.434  0.2813 -0.6878 -0.2851
  164SAPE   H9Y18412   4.890   0.559   3.462 -2.8309 -0.5697  0.3405
  164SAPE  C31018413   5.056   0.425   3.527 -0.3006 -0.1882  0.4624
  164SAPE  H10X18414   5.151   0.480   3.509 -1.5459  1.8577 -0.1209
  164SAPE  H10Y18415   5.079   0.319   3.503 -0.3638 -0.1600  0.2782
  164SAPE  C31118416   5.038   0.444   3.677 -0.2783  1.0320 -0.6220
  164SAPE  H11X18417   4.952   0.382   3.710  1.4499  0.1070  2.5408
  164SAPE  H11Y18418   5.013   0.550   3.700  2.4272  2.1357 -2.2910
  164SAPE  C31218419   5.165   0.403   3.755 -0.1854  0.2601 -0.2783
  164SAPE  H12X18420   5.253   0.437   3.697 -0.6086 -3.6892 -3.7458
  164SAPE  H12Y18421   5.176   0.293   3.769  4.8774  0.6352  0.5843
  164SAPE  C31318422   5.169   0.465   3.900  0.2005 -0.1439 -0.4283
  164SAPE  H13X18423   5.106   0.413   3.976  0.9964 -0.1212  0.2664
  164SAPE  H13Y18424   5.140   0.572   3.901 -1.8935 -0.6634 -1.0701
  164SAPE  C31418425   5.316   0.454   3.947 -0.6639  0.2515  0.6202
  164SAPE  H14X18426   5.363   0.518   3.870  1.8513 -2.3855 -0.2054
  164SAPE  H14Y18427   5.348   0.349   3.930 -1.3878  0.2883 -1.1632
  164SAPE  C31518428   5.333   0.505   4.093 -0.1208  0.2666  0.4228
  164SAPE  H15X18429   5.279   0.600   4.106  0.7671  0.8741 -0.2105
  164SAPE  H15Y18430   5.442   0.524   4.104 -0.4369  0.9970  3.2192
  164SAPE  C31618431   5.295   0.412   4.204  0.8017 -0.4608 -0.2276
  164SAPE  H16X18432   5.362   0.323   4.198  1.8632  0.4035 -2.3852
  164SAPE  H16Y18433   5.188   0.385   4.205  0.7823 -0.8700  3.7618
  164SAPE  C31718434   5.335   0.472   4.340  0.4812  0.2039 -0.5088
  164SAPE  H17X18435   5.271   0.559   4.365 -0.9338 -0.8408 -0.4357
  164SAPE  H17Y18436   5.433   0.520   4.316 -0.1032  1.3016 -0.7323
  164SAPE  C31818437   5.339   0.373   4.461  0.0395 -0.4395 -0.5231
  164SAPE  H18X18438   5.395   0.284   4.427  1.4272  0.6143 -1.0551
  164SAPE  H18Y18439   5.236   0.334   4.478  0.4501 -0.7593  1.5679
  164SAPE  H18Z18440   5.388   0.406   4.555  2.2591 -4.1999 -0.1839
  165SAPE     N18441   3.178   2.082   2.002 -0.5660  0.0185  0.9132
  165SAPE   HN118442   3.140   1.991   1.968 -0.1487  0.6183 -1.3419
  165SAPE   HN218443   3.109   2.148   2.043 -0.3659  1.1883 -0.5696
  165SAPE   HN318444   3.226   2.144   1.934  0.1614 -1.2603  0.2358
  165SAPE   C1218445   3.265   2.050   2.107 -0.7937 -0.4558 -0.6530
  165SAPE  H12A18446   3.312   2.145   2.141 -2.1890 -0.5570  1.7308
  165SAPE  H12B18447   3.350   1.985   2.077  0.0484 -0.6895  2.0114
  165SAPE   C1118448   3.186   1.987   2.225  0.0351 -1.1119 -0.4085
  165SAPE  H11A18449   3.260   1.988   2.308  1.7765  0.3241 -1.9161
  165SAPE  H11B18450   3.158   1.882   2.202  2.0793 -1.9955  0.8167
  165SAPE     P18451   3.054   2.135   2.399  0.2752 -0.0947  0.4104
  165SAPE   O1318452   3.169   2.219   2.424 -0.7243 -0.2993  0.3667
  165SAPE   O1418453   2.918   2.199   2.396 -0.1296 -0.4248  0.3587
  165SAPE   O1218454   3.072   2.064   2.264  0.6052  0.1281  0.2182
  165SAPE   O1118455   3.064   2.015   2.498  0.3381  0.1448  0.1173
  165SAPE    C118456   3.039   1.876   2.484  0.0095  0.1132  0.7277
  165SAPE    HA18457   3.052   1.852   2.376  1.3247  2.8594  0.1596
  165SAPE    HB18458   3.114   1.821   2.545  0.0057 -0.0648  0.5725
  165SAPE    C218459   2.907   1.832   2.527 -0.3119 -0.2884  0.1757
  165SAPE    HS18460   2.822   1.888   2.483  1.4525  0.6856 -2.1852
  165SAPE   O2118461   2.906   1.837   2.672  0.3757 -0.1258 -1.0521
  165SAPE   C2118462   2.837   1.941   2.721 -0.2392 -0.8225  0.1829
  165SAPE   O2218463   2.763   2.028   2.669 -0.3024 -0.6237  0.1331
  165SAPE   C2218464   2.880   1.932   2.875  0.7637  0.5599  0.2616
  165SAPE   H2R18465   2.810   1.864   2.927 -1.1073  2.0313 -0.2076
  165SAPE   H2S18466   2.980   1.885   2.870  1.0580  1.2429 -0.6678
  165SAPE    C318467   2.887   1.680   2.499  0.2647  0.6041  1.0031
  165SAPE    HX18468   2.969   1.613   2.531  0.8101  0.2366 -0.9972
  165SAPE    HY18469   2.910   1.672   2.390  0.8294  1.5757  1.0369
  165SAPE   O3118470   2.755   1.620   2.528 -0.4414 -0.2370  1.0837
  165SAPE   C3118471   2.667   1.658   2.438  0.0563  0.3617 -0.4481
  165SAPE   O3218472   2.688   1.727   2.340  0.0601 -0.0531  0.6477
  165SAPE   C3218473   2.530   1.600   2.483  0.6643 -1.4472  0.2977
  165SAPE   H2X18474   2.541   1.514   2.553  2.2023 -1.1559  0.4409
  165SAPE   H2Y18475   2.473   1.574   2.391  0.5860  1.9341 -0.7283
  165SAPE   C2318476   2.883   2.065   2.948 -0.3867  0.4223 -0.3963
  165SAPE   H3R18477   2.942   2.031   3.035 -0.7831 -0.7586 -0.5741
  165SAPE   H3S18478   2.780   2.102   2.971  0.9787  3.5946  1.1861
  165SAPE   C2418479   2.976   2.173   2.878  0.2426 -1.1354 -0.7623
  165SAPE   H4R18480   2.960   2.266   2.936  2.1780 -2.4262  2.0968
  165SAPE   H4S18481   2.931   2.188   2.778 -0.7706 -1.4320 -0.3673
  165SAPE   C2518482   3.124   2.123   2.872 -0.2343  0.1562 -0.4089
  165SAPE   H5R18483   3.139   2.043   2.798  0.7913 -1.2289  1.2050
  165SAPE   C2618484   3.203   2.127   2.983  0.3976  0.6365  0.6799
  165SAPE   H6R18485   3.306   2.088   2.974  0.2504  0.1442  1.0909
  165SAPE   C2718486   3.185   2.218   3.099  0.4202 -1.1402 -0.1416
  165SAPE   H7R18487   3.104   2.294   3.090  2.0259  0.8781  1.4375
  165SAPE   H7S18488   3.273   2.284   3.114 -1.1519  1.2880 -0.9630
  165SAPE   C2818489   3.170   2.149   3.234  0.5266  0.5722  0.6904
  165SAPE   H8R18490   3.147   2.042   3.222  0.9384  0.6029 -0.4615
  165SAPE   C2918491   3.200   2.196   3.362  0.7688  0.6100  0.2890
  165SAPE   H9R18492   3.183   2.118   3.438 -1.8184  0.3338 -0.4677
  165SAPE  C21018493   3.240   2.337   3.391  0.3458  0.0300 -0.1587
  165SAPE  H10R18494   3.191   2.377   3.482  0.4228  0.8609 -0.4701
  165SAPE  H10S18495   3.189   2.398   3.313  1.2619 -2.2558 -2.6829
  165SAPE  C21118496   3.386   2.375   3.393  0.5603 -0.5638  0.5713
  165SAPE  H11R18497   3.430   2.389   3.293 -1.7721  0.2817 -0.4272
  165SAPE  C21218498   3.458   2.397   3.504  0.2782 -0.4267 -0.1413
  165SAPE  H12R18499   3.564   2.423   3.488  0.2125 -0.3442 -0.4478
  165SAPE  C21318500   3.420   2.382   3.648  0.4483  0.4596  0.4712
  165SAPE  H13R18501   3.457   2.283   3.681  1.0356 -0.3220 -2.3044
  165SAPE  H13S18502   3.310   2.377   3.660  0.6043 -2.2964  1.5432
  165SAPE  C21418503   3.466   2.492   3.741 -1.0212 -0.0175  0.2055
  165SAPE  H14R18504   3.482   2.590   3.693  2.3425 -0.4437  0.1700
  165SAPE  C21518505   3.508   2.468   3.862 -0.0294  0.8757 -0.9877
  165SAPE  H15R18506   3.516   2.548   3.936 -1.9239 -1.8082  2.4078
  165SAPE  C21618507   3.487   2.326   3.921  0.4560  0.5185  0.5498
  165SAPE  H16R18508   3.580   2.271   3.898  0.4512  0.6109  0.3042
  165SAPE  H16S18509   3.399   2.270   3.884  1.1367 -0.1536 -0.0663
  165SAPE  C21718510   3.465   2.346   4.076 -0.6973  0.3009 -0.4268
  165SAPE  H17R18511   3.561   2.387   4.115 -1.6436  1.9600  0.2646
  165SAPE  H17S18512   3.438   2.245   4.114  1.4709  0.3511  1.4948
  165SAPE  C21818513   3.360   2.451   4.122  0.3222  0.0820  0.5134
  165SAPE  H18R18514   3.266   2.438   4.065 -0.4583 -1.4091  2.0258
  165SAPE  H18S18515   3.406   2.551   4.108 -2.4925  1.3066 -0.6722
  165SAPE  C21918516   3.339   2.441   4.270  0.3892 -0.6541  0.2589
  165SAPE  H19R18517   3.436   2.437   4.323 -0.2108  1.1826  1.5760
  165SAPE  H19S18518   3.295   2.345   4.305 -1.6272 -0.1737 -0.7646
  165SAPE  C22018519   3.261   2.555   4.329  0.5691 -0.7274 -0.0240
  165SAPE  H20R18520   3.286   2.564   4.436  1.0958  1.2396 -0.2798
  165SAPE  H20S18521   3.153   2.532   4.313  0.7360 -0.4236 -1.7860
  165SAPE  H20T18522   3.287   2.651   4.279 -2.4301 -0.0129 -0.4485
  165SAPE   C3318523   2.450   1.715   2.561  0.7360  0.4344 -0.8710
  165SAPE   H3X18524   2.350   1.673   2.584  1.0026  0.9050  1.4077
  165SAPE   H3Y18525   2.437   1.800   2.491 -1.1269  2.4817  1.7652
  165SAPE   C3418526   2.517   1.764   2.694  0.6773  0.5487 -0.8598
  165SAPE   H4X18527   2.613   1.816   2.672  1.7469 -1.0856 -0.2110
  165SAPE   H4Y18528   2.535   1.672   2.753  1.1403 -0.2108 -2.1341
  165SAPE   C3518529   2.420   1.861   2.764  0.0429  0.5043  0.1025
  165SAPE   H5X18530   2.321   1.815   2.781 -0.5657  1.5601 -0.4751
  165SAPE   H5Y18531   2.414   1.950   2.697 -1.9957 -0.2345 -0.7566
  165SAPE   C3618532   2.468   1.904   2.896 -0.4369  0.3925 -0.0911
  165SAPE   H6X18533   2.432   2.005   2.928  1.9809  1.1109  0.6144
  165SAPE   H6Y18534   2.578   1.922   2.906 -0.5318  1.0526 -0.1947
  165SAPE   C3718535   2.439   1.804   3.008 -0.0168  0.0099  0.1656
  165SAPE   H7X18536   2.478   1.706   2.976 -0.1195  0.5818 -1.8099
  165SAPE   H7Y18537   2.330   1.795   3.029  0.0270 -1.8394 -0.2927
  165SAPE   C3818538   2.516   1.862   3.133  0.3498 -0.1730  0.4850
  165SAPE   H8X18539   2.494   1.968   3.156 -0.0378 -0.0027 -0.6466
  165SAPE   H8Y18540   2.622   1.852   3.102  0.0047  1.2501 -1.3194
  165SAPE   C3918541   2.481   1.777   3.255  0.4062 -0.3964 -0.2380
  165SAPE   H9X18542   2.470   1.670   3.227  0.1129 -0.5587  0.4733
  165SAPE   H9Y18543   2.376   1.807   3.278 -0.4335 -3.1857 -0.0852
  165SAPE  C31018544   2.581   1.797   3.366  0.3767  0.3895 -0.2768
  165SAPE  H10X18545   2.573   1.898   3.410  0.7779 -0.3972  1.7332
  165SAPE  H10Y18546   2.681   1.780   3.319 -0.0519 -2.0526 -0.4701
  165SAPE  C31118547   2.559   1.703   3.477 -0.0894  0.5866  0.1028
  165SAPE  H11X18548   2.577   1.599   3.442  2.0909  1.0342 -0.2699
  165SAPE  H11Y18549   2.456   1.717   3.517 -0.5859 -1.1380 -0.4664
  165SAPE  C31218550   2.661   1.720   3.592 -0.1875  0.0341 -0.4653
  165SAPE  H12X18551   2.658   1.828   3.618  2.9474 -0.1403  1.0498
  165SAPE  H12Y18552   2.767   1.695   3.570  0.0773  2.0477 -1.6976
  165SAPE  C31318553   2.634   1.623   3.704 -0.5896  0.0623 -0.0831
  165SAPE  H13X18554   2.658   1.520   3.671 -2.7878 -0.8919  1.1320
  165SAPE  H13Y18555   2.527   1.614   3.733 -0.6667 -3.5598 -1.0747
  165SAPE  C31418556   2.728   1.666   3.822  0.1187 -0.4103 -0.2243
  165SAPE  H14X18557   2.742   1.776   3.823 -0.8197 -0.2730  1.3195
  165SAPE  H14Y18558   2.829   1.623   3.807 -0.5623 -3.2303  2.2672
  165SAPE  C31518559   2.678   1.609   3.956  0.0227  0.0059 -0.3903
  165SAPE  H15X18560   2.654   1.501   3.956 -1.4269  0.2585  2.0842
  165SAPE  H15Y18561   2.581   1.660   3.972 -0.3400 -0.7912 -0.0355
  165SAPE  C31618562   2.781   1.633   4.068  0.1796  0.4567 -0.2779
  165SAPE  H16X18563   2.801   1.742   4.071 -1.0051  0.7009 -0.7908
  165SAPE  H16Y18564   2.871   1.580   4.031 -0.3192 -0.0171 -0.8323
  165SAPE  C31718565   2.750   1.575   4.203  0.1480 -0.0255  0.3334
  165SAPE  H17X18566   2.837   1.590   4.271 -1.3378 -0.0711  2.3371
  165SAPE  H17Y18567   2.729   1.467   4.190  0.8195 -0.0619 -0.5320
  165SAPE  C31818568   2.623   1.635   4.269  0.3151 -0.0400 -0.0184
  165SAPE  H18X18569   2.591   1.560   4.344  0.5882  0.9672  1.1517
  165SAPE  H18Y18570   2.550   1.650   4.187  0.0515  0.7996  0.3599
  165SAPE  H18Z18571   2.642   1.729   4.325  0.1926  0.7023 -1.1816
  166SAPE     N18572   4.201   1.702   2.547 -0.7595  0.0232  0.2159
  166SAPE   HN118573   4.192   1.800   2.580  0.6408  0.1935  0.1711
  166SAPE   HN218574   4.104   1.665   2.556 -1.0795  1.0089  1.1049
  166SAPE   HN318575   4.265   1.644   2.605 -1.2909 -0.8977 -0.1073
  166SAPE   C1218576   4.250   1.689   2.402 -0.6525 -0.0742 -0.2571
  166SAPE  H12A18577   4.327   1.767   2.382 -3.1434  1.7385 -3.8317
  166SAPE  H12B18578   4.171   1.719   2.330 -0.0040  0.3002 -0.8241
  166SAPE   C1118579   4.299   1.543   2.364 -0.6561 -0.4803 -0.3495
  166SAPE  H11A18580   4.400   1.526   2.407 -0.4820 -3.6007 -1.7097
  166SAPE  H11B18581   4.314   1.533   2.254  0.4006 -2.3001 -0.0940
  166SAPE     P18582   4.214   1.300   2.357 -0.4348 -0.5014  0.5972
  166SAPE   O1318583   4.110   1.302   2.251  0.3043  0.0222  0.3830
  166SAPE   O1418584   4.349   1.277   2.300 -0.2459  0.3236 -0.1287
  166SAPE   O1218585   4.216   1.445   2.424  0.2179  0.2290 -0.4114
  166SAPE   O1118586   4.179   1.194   2.472 -0.7828 -0.5351 -0.0034
  166SAPE    C118587   4.128   1.253   2.593  0.0272  0.1967 -0.1801
  166SAPE    HA18588   4.062   1.340   2.574  1.6315  1.4951 -0.0155
  166SAPE    HB18589   4.057   1.186   2.646 -1.1017  0.0607 -1.7737
  166SAPE    C218590   4.240   1.287   2.686  0.0301  0.4216 -0.3847
  166SAPE    HS18591   4.313   1.352   2.633 -1.3929  0.9312 -1.8393
  166SAPE   O2118592   4.297   1.167   2.729 -0.2525  0.0250 -0.3258
  166SAPE   C2118593   4.429   1.166   2.736  0.6402 -0.1118  0.0634
  166SAPE   O2218594   4.515   1.238   2.687  0.3847  0.1872  0.5746
  166SAPE   C2218595   4.458   1.045   2.823 -0.0208  0.2279 -0.5298
  166SAPE   H2R18596   4.412   1.054   2.924  1.8567 -1.1635  0.5035
  166SAPE   H2S18597   4.408   0.960   2.772 -0.4755 -0.7170  1.3985
  166SAPE    C318598   4.196   1.371   2.811 -0.7474  0.5123 -0.2568
  166SAPE    HX18599   4.131   1.303   2.870 -0.9206  0.6875 -0.2407
  166SAPE    HY18600   4.126   1.454   2.786 -0.9835 -0.2250 -2.2571
  166SAPE   O3118601   4.311   1.417   2.888 -0.3689  0.6375  0.2145
  166SAPE   C3118602   4.375   1.520   2.834  0.0632 -0.4991 -0.0468
  166SAPE   O3218603   4.351   1.575   2.729  0.9066 -0.0775 -0.1247
  166SAPE   C3218604   4.490   1.557   2.931  0.4498  0.0289  0.3354
  166SAPE   H2X18605   4.575   1.485   2.923 -0.8950 -1.4145 -2.3893
  166SAPE   H2Y18606   4.442   1.545   3.031 -0.4548  3.3617  0.4214
  166SAPE   C2318607   4.612   1.014   2.824  0.1736 -0.3809  0.0117
  166SAPE   H3R18608   4.657   1.022   2.722  0.2412  3.0301  0.1830
  166SAPE   H3S18609   4.652   0.920   2.867  0.0408  0.3323  1.7849
  166SAPE   C2418610   4.687   1.125   2.912 -0.6169  0.5582 -0.0974
  166SAPE   H4R18611   4.686   1.221   2.856 -0.3854  0.5271 -0.1557
  166SAPE   H4S18612   4.796   1.104   2.922 -0.2242  2.9457  1.5219
  166SAPE   C2518613   4.628   1.149   3.049 -0.1375 -0.2494 -0.5710
  166SAPE   H5R18614   4.551   1.228   3.057 -1.3466 -1.4464 -0.1338
  166SAPE   C2618615   4.660   1.078   3.159  0.0286 -0.5235 -0.2467
  166SAPE   H6R18616   4.598   1.084   3.250  0.7883  1.9632  0.1925
  166SAPE   C2718617   4.778   0.982   3.185 -0.1489  0.5248  0.0704
  166SAPE   H7R18618   4.847   1.028   3.259  1.2602 -1.1036 -0.1612
  166SAPE   H7S18619   4.837   0.957   3.094 -0.7433 -2.2034  0.3563
  166SAPE   C2818620   4.733   0.855   3.250 -0.2508 -0.7696  1.1146
  166SAPE   H8R18621   4.654   0.808   3.191  0.6804  1.2727 -2.0122
  166SAPE   C2918622   4.771   0.807   3.375 -0.0669  0.1238  0.9377
  166SAPE   H9R18623   4.717   0.720   3.416  1.8963 -0.6578  1.9993
  166SAPE  C21018624   4.874   0.854   3.477 -0.3011  0.0563 -0.2133
  166SAPE  H10R18625   4.946   0.909   3.413 -1.1352 -0.6281 -1.8141
  166SAPE  H10S18626   4.923   0.763   3.518 -1.3514  0.2193  1.4943
  166SAPE  C21118627   4.824   0.951   3.577 -0.2684 -0.3148 -0.6043
  166SAPE  H11R18628   4.771   1.033   3.526 -1.6959 -0.5318  0.4704
  166SAPE  C21218629   4.867   0.970   3.706  0.0977  0.4291  0.0514
  166SAPE  H12R18630   4.828   1.049   3.771 -0.7311 -0.4466  0.6542
  166SAPE  C21318631   4.960   0.871   3.780 -0.3944  0.3943  0.1850
  166SAPE  H13R18632   5.048   0.933   3.806  1.8317 -1.4220 -2.3836
  166SAPE  H13S18633   5.010   0.799   3.711 -0.8463  1.1736 -0.9990
  166SAPE  C21418634   4.915   0.796   3.904 -0.1012  0.2270 -0.0914
  166SAPE  H14R18635   4.827   0.731   3.886  2.5633 -4.9240  3.0194
  166SAPE  C21518636   4.961   0.787   4.030 -0.6103 -0.6095  0.9647
  166SAPE  H15R18637   4.900   0.729   4.101 -2.0049  0.0189  0.3192
  166SAPE  C21618638   5.096   0.838   4.071 -0.2595 -0.8530  0.1646
  166SAPE  H16R18639   5.162   0.863   3.985  2.0340 -2.6661  1.2670
  166SAPE  H16S18640   5.156   0.755   4.113  1.1842 -0.1917 -0.5225
  166SAPE  C21718641   5.099   0.954   4.179 -0.8781 -0.4530 -0.4552
  166SAPE  H17R18642   5.029   0.922   4.258 -0.9553  1.8019  0.4672
  166SAPE  H17S18643   5.047   1.044   4.140 -1.5026  0.2811  1.9136
  166SAPE  C21818644   5.234   0.984   4.245  0.4513 -0.2524  0.2261
  166SAPE  H18R18645   5.221   1.068   4.317  0.8723  0.1007 -0.1018
  166SAPE  H18S18646   5.300   1.025   4.166 -0.7009 -0.5596 -0.9243
  166SAPE  C21918647   5.289   0.863   4.315  0.5475  0.1603 -0.7835
  166SAPE  H19R18648   5.357   0.806   4.247 -0.9714  1.3198 -3.4155
  166SAPE  H19S18649   5.211   0.788   4.341  0.5952  0.7238  1.0847
  166SAPE  C22018650   5.361   0.889   4.447  0.1263  0.1436  0.0975
  166SAPE  H20R18651   5.439   0.968   4.439  0.7111 -0.2509  1.6956
  166SAPE  H20S18652   5.401   0.796   4.491  3.5532  1.5437  0.3063
  166SAPE  H20T18653   5.278   0.924   4.512 -0.9796 -1.2706 -0.5088
  166SAPE   C3318654   4.539   1.702   2.918 -0.6498  0.7046  0.5549
  166SAPE   H3X18655   4.456   1.767   2.953 -1.2691 -0.9337  2.2731
  166SAPE   H3Y18656   4.558   1.730   2.812 -1.0673  3.2578  1.0929
  166SAPE   C3418657   4.668   1.719   2.993  0.1029  0.0212 -0.3060
  166SAPE   H4X18658   4.716   1.818   2.978 -1.0831  0.6643 -0.0528
  166SAPE   H4Y18659   4.747   1.647   2.965 -0.2250 -1.0499  1.3717
  166SAPE   C3518660   4.645   1.700   3.150 -0.9046  0.3419 -0.3611
  166SAPE   H5X18661   4.619   1.594   3.171  1.8084 -0.6471 -1.5565
  166SAPE   H5Y18662   4.557   1.764   3.173  0.0727  1.5494  0.1075
  166SAPE   C3618663   4.763   1.728   3.239 -0.1487  0.3723  0.4537
  166SAPE   H6X18664   4.806   1.830   3.223 -1.2174  0.5060 -2.0691
  166SAPE   H6Y18665   4.839   1.657   3.199 -0.0128  0.2773  0.8751
  166SAPE   C3718666   4.749   1.709   3.391  0.2621  0.0491  0.0527
  166SAPE   H7X18667   4.714   1.606   3.409 -2.0821  1.0959  1.9980
  166SAPE   H7Y18668   4.671   1.776   3.432 -0.8814 -1.6587  0.7675
  166SAPE   C3818669   4.880   1.724   3.459  0.3617 -0.5269  0.7434
  166SAPE   H8X18670   4.910   1.826   3.427 -1.5015  0.1407  1.0214
  166SAPE   H8Y18671   4.951   1.648   3.419  0.4203 -0.3412  0.4959
  166SAPE   C3918672   4.869   1.719   3.614  0.4059  0.2549 -0.5555
  166SAPE   H9X18673   4.907   1.618   3.643 -1.0158 -0.2357 -0.3260
  166SAPE   H9Y18674   4.770   1.739   3.660  0.5466 -2.2934  1.0816
  166SAPE  C31018675   4.960   1.832   3.666  0.1997  0.3497 -0.5210
  166SAPE  H10X18676   4.939   1.930   3.616 -0.0335  0.1218 -0.8752
  166SAPE  H10Y18677   5.066   1.802   3.652 -0.2539 -0.6224 -2.2029
  166SAPE  C31118678   4.924   1.854   3.815 -0.4819  0.6863  0.4675
  166SAPE  H11X18679   4.941   1.759   3.871 -1.2375  0.2968  0.0516
  166SAPE  H11Y18680   4.814   1.865   3.821 -0.6081  1.4472 -2.0289
  166SAPE  C31218681   4.987   1.975   3.887 -0.5171 -0.1674  0.3989
  166SAPE  H12X18682   4.949   2.067   3.837  1.7724  0.4172 -0.4128
  166SAPE  H12Y18683   5.097   1.980   3.869 -0.9664  2.3536 -2.4449
  166SAPE  C31318684   4.950   1.986   4.040 -0.1548 -0.0072  0.2053
  166SAPE  H13X18685   4.988   1.901   4.101 -0.1129  0.0164  0.2119
  166SAPE  H13Y18686   4.839   1.985   4.031 -0.4870 -0.1196  3.2350
  166SAPE  C31418687   5.008   2.104   4.128  0.5570  0.8753  0.5259
  166SAPE  H14X18688   4.981   2.084   4.234  1.4195  3.4045  1.3028
  166SAPE  H14Y18689   4.957   2.198   4.098  1.6984  0.9656 -1.3225
  166SAPE  C31518690   5.159   2.111   4.114  0.3222  0.5513  0.0531
  166SAPE  H15X18691   5.190   2.122   4.008 -1.5944  1.1535 -0.4714
  166SAPE  H15Y18692   5.204   2.013   4.143  0.1435  0.3453 -0.3584
  166SAPE  C31618693   5.223   2.202   4.220 -0.0758 -0.1202 -0.4080
  166SAPE  H16X18694   5.175   2.176   4.316 -1.5559  0.3448 -1.0038
  166SAPE  H16Y18695   5.205   2.307   4.188  1.3423 -0.1490 -1.3915
  166SAPE  C31718696   5.381   2.174   4.226  0.7946  0.4634 -0.3670
  166SAPE  H17X18697   5.422   2.195   4.125  0.5876 -0.5256 -0.6691
  166SAPE  H17Y18698   5.393   2.064   4.234 -1.7941 -0.0907 -2.5401
  166SAPE  C31818699   5.454   2.246   4.337  0.4836 -0.5705  0.5461
  166SAPE  H18X18700   5.420   2.215   4.438  3.1718 -0.9351  1.4327
  166SAPE  H18Y18701   5.437   2.356   4.339 -0.7100 -0.7534  0.7792
  166SAPE  H18Z18702   5.560   2.215   4.347  1.1847  0.8792 -1.7083
  167SAPE     N18703   4.757   4.248   2.149 -0.2027  0.4244 -0.5350
  167SAPE   HN118704   4.745   4.245   2.045  3.1166 -3.8066 -1.1163
  167SAPE   HN218705   4.775   4.348   2.171  2.0279 -0.1605  0.6066
  167SAPE   HN318706   4.845   4.198   2.176 -0.9488 -0.7371 -0.1749
  167SAPE   C1218707   4.626   4.200   2.206 -0.2550  0.3147  0.1601
  167SAPE  H12A18708   4.625   4.198   2.317 -1.8081  0.7757  0.1839
  167SAPE  H12B18709   4.617   4.094   2.172 -1.6869 -0.0471  1.5132
  167SAPE   C1118710   4.512   4.269   2.140  0.1818 -1.0642  0.0156
  167SAPE  H11A18711   4.482   4.345   2.215  1.8493 -0.5242  0.1614
  167SAPE  H11B18712   4.427   4.199   2.122  1.1202 -2.0905 -0.5470
  167SAPE     P18713   4.433   4.384   1.921 -0.4605  0.0157  0.1049
  167SAPE   O1318714   4.498   4.481   1.828 -0.7287  0.1166 -0.0891
  167SAPE   O1418715   4.371   4.272   1.848  0.2125  0.7215  0.0121
  167SAPE   O1218716   4.541   4.331   2.015 -0.3284  0.0768 -0.5250
  167SAPE   O1118717   4.325   4.448   2.019 -0.4898  0.1137  0.4149
  167SAPE    C118718   4.326   4.596   2.041  0.5514 -0.3104  0.2741
  167SAPE    HA18719   4.420   4.638   2.000  0.6782 -0.5531  0.3137
  167SAPE    HB18720   4.239   4.642   1.990  2.5580  1.9879 -1.3252
  167SAPE    C218721   4.318   4.608   2.194  0.6297 -0.7672 -0.6337
  167SAPE    HS18722   4.413   4.567   2.236 -0.4170 -2.2391  0.4140
  167SAPE   O2118723   4.206   4.532   2.242 -0.2831 -0.0620  0.1660
  167SAPE   C2118724   4.229   4.482   2.363  0.6099 -0.0579 -0.4808
  167SAPE   O2218725   4.337   4.486   2.422  0.1981 -0.0966 -0.3592
  167SAPE   C2218726   4.095   4.422   2.428  0.5219 -0.4698 -0.2059
  167SAPE   H2R18727   4.111   4.312   2.423  0.5608 -0.4119 -1.9962
  167SAPE   H2S18728   4.091   4.444   2.537 -0.4478 -1.0979 -0.1007
  167SAPE    C318729   4.306   4.755   2.236 -0.0734  0.1645  0.2223
  167SAPE    HX18730   4.222   4.804   2.181  0.1405  2.0525  1.4599
  167SAPE    HY18731   4.389   4.822   2.204 -0.0636  0.8562  1.6222
  167SAPE   O3118732   4.278   4.764   2.370  0.1102  0.0067 -0.4855
  167SAPE   C3118733   4.324   4.871   2.428 -0.1470 -0.1066 -0.2041
  167SAPE   O3218734   4.395   4.957   2.380  0.7521 -0.2093  0.6342
  167SAPE   C3218735   4.270   4.880   2.570 -0.4231 -0.1486 -0.3390
  167SAPE   H2X18736   4.250   4.777   2.608  0.2681  0.4191  1.6839
  167SAPE   H2Y18737   4.176   4.939   2.576  0.0844  0.8356 -1.6483
  167SAPE   C2318738   3.964   4.449   2.349 -0.0921 -0.4941 -0.2811
  167SAPE   H3R18739   3.974   4.406   2.247 -1.8009  1.1324 -1.1946
  167SAPE   H3S18740   3.948   4.559   2.339 -2.2914 -0.6146  1.1596
  167SAPE   C2418741   3.850   4.386   2.421  0.2449 -0.0671 -0.0165
  167SAPE   H4R18742   3.889   4.287   2.451 -1.5574 -1.6295 -2.4680
  167SAPE   H4S18743   3.762   4.377   2.354  0.8268  2.1427 -1.1895
  167SAPE   C2518744   3.814   4.470   2.543  0.2857 -0.0496  0.3624
  167SAPE   H5R18745   3.778   4.571   2.518 -1.6105 -0.6200  0.6385
  167SAPE   C2618746   3.810   4.430   2.669  0.1770  1.0273  0.4019
  167SAPE   H6R18747   3.757   4.499   2.737  1.4483  2.4219  0.0224
  167SAPE   C2718748   3.829   4.291   2.717 -0.1171 -0.3434  0.3054
  167SAPE   H7R18749   3.923   4.255   2.672  0.5708  0.7066  0.8771
  167SAPE   H7S18750   3.754   4.225   2.668  0.5296  0.1265 -1.3833
  167SAPE   C2818751   3.844   4.260   2.859 -0.9172 -0.1987  0.0451
  167SAPE   H8R18752   3.941   4.230   2.902  0.4219  1.6374 -1.5060
  167SAPE   C2918753   3.734   4.260   2.940 -0.8876  1.0245  0.3534
  167SAPE   H9R18754   3.740   4.222   3.043 -0.7908 -0.7257 -0.2543
  167SAPE  C21018755   3.593   4.285   2.895  0.3451 -0.1674 -0.3309
  167SAPE  H10R18756   3.545   4.186   2.908  2.3809 -1.1169  0.4376
  167SAPE  H10S18757   3.586   4.313   2.788  0.1214 -1.0738 -0.5637
  167SAPE  C21118758   3.525   4.386   2.981  0.2229 -0.1501 -0.2621
  167SAPE  H11R18759   3.528   4.487   2.937 -2.4019  0.9777  1.8836
  167SAPE  C21218760   3.477   4.368   3.105  0.2149 -0.5453 -0.2514
  167SAPE  H12R18761   3.414   4.446   3.151  0.1857  0.6365 -2.1864
  167SAPE  C21318762   3.463   4.242   3.183 -0.0915 -0.2877  0.8848
  167SAPE  H13R18763   3.466   4.153   3.117  0.0208 -0.0303  0.5374
  167SAPE  H13S18764   3.362   4.234   3.228 -0.1828  0.5649  0.8561
  167SAPE  C21418765   3.562   4.226   3.302 -0.1249  0.1425  0.6170
  167SAPE  H14R18766   3.659   4.179   3.285  0.0528  1.3358 -2.1498
  167SAPE  C21518767   3.551   4.291   3.416  0.2842 -0.3382 -0.1304
  167SAPE  H15R18768   3.627   4.281   3.495  0.2602  1.2475  0.1354
  167SAPE  C21618769   3.431   4.363   3.466  0.5228 -0.1652 -0.4436
  167SAPE  H16R18770   3.355   4.387   3.388  0.3686 -0.2401 -0.3186
  167SAPE  H16S18771   3.464   4.456   3.516 -1.9436 -0.0895  1.2412
  167SAPE  C21718772   3.349   4.287   3.568  0.0188  0.7089 -0.5123
  167SAPE  H17R18773   3.318   4.185   3.537  1.1540 -0.2818  1.4720
  167SAPE  H17S18774   3.249   4.335   3.575 -1.8222 -2.5811 -1.9415
  167SAPE  C21818775   3.417   4.274   3.710  0.0215  0.4550  0.0452
  167SAPE  H18R18776   3.465   4.369   3.741  0.1372 -0.7812  4.3349
  167SAPE  H18S18777   3.489   4.189   3.708 -3.2777 -2.5801  0.1177
  167SAPE  C21918778   3.323   4.224   3.820 -0.4852 -0.0734 -0.1074
  167SAPE  H19R18779   3.386   4.210   3.910 -0.8188 -0.0934  0.1285
  167SAPE  H19S18780   3.287   4.121   3.800 -0.3231 -0.2779  0.5965
  167SAPE  C22018781   3.209   4.321   3.851  0.3581 -0.3386  0.2107
  167SAPE  H20R18782   3.165   4.287   3.947 -0.5985  1.5532  0.5080
  167SAPE  H20S18783   3.138   4.306   3.767  0.8045  0.8590 -0.4131
  167SAPE  H20T18784   3.234   4.430   3.850 -0.0874 -0.2197 -1.4695
  167SAPE   C3318785   4.364   4.958   2.667 -0.2020  0.8387  0.0872
  167SAPE   H3X18786   4.356   5.063   2.632  1.7423  1.4804  1.3909
  167SAPE   H3Y18787   4.473   4.938   2.655 -0.3585  0.6174 -1.1321
  167SAPE   C3418788   4.314   4.958   2.811 -0.3398  0.1820  0.0667
  167SAPE   H4X18789   4.311   4.864   2.870 -2.5486  0.1208 -0.0740
  167SAPE   H4Y18790   4.215   5.003   2.831 -0.3044 -0.9802  3.4071
  167SAPE   C3518791   4.395   5.060   2.902  0.0183 -0.6151 -0.2496
  167SAPE   H5X18792   4.384   5.166   2.871 -0.1095 -0.3553  0.6501
  167SAPE   H5Y18793   4.500   5.024   2.898  0.0479 -0.9380  2.0531
  167SAPE   C3618794   4.352   5.049   3.044  0.5688  0.7614 -0.2614
  167SAPE   H6X18795   4.343   4.940   3.061  1.5533  0.6628 -0.3212
  167SAPE   H6Y18796   4.260   5.105   3.070 -0.1473 -0.6603  0.3361
  167SAPE   C3718797   4.471   5.100   3.123 -0.3478  0.9449 -0.0548
  167SAPE   H7X18798   4.506   5.198   3.086 -0.7757  1.1319  0.0339
  167SAPE   H7Y18799   4.561   5.037   3.104 -0.7932  0.4586 -0.5950
  167SAPE   C3818800   4.441   5.086   3.272 -0.0980 -0.3237 -0.1346
  167SAPE   H8X18801   4.469   4.981   3.294  1.0416 -0.1066 -0.5219
  167SAPE   H8Y18802   4.339   5.115   3.306  0.0864  0.4917 -0.2423
  167SAPE   C3918803   4.539   5.164   3.367  0.2786 -0.4536  0.1745
  167SAPE   H9X18804   4.533   5.274   3.351 -2.2767 -0.7059 -1.2010
  167SAPE   H9Y18805   4.643   5.146   3.334  0.3329  0.2014 -0.0303
  167SAPE  C31018806   4.518   5.135   3.516  0.7047  1.0288  0.5501
  167SAPE  H10X18807   4.560   5.032   3.523 -0.2949  0.5668  0.0005
  167SAPE  H10Y18808   4.410   5.145   3.542  0.2359  0.3073 -1.0044
  167SAPE  C31118809   4.602   5.222   3.605 -0.1461  0.0157 -0.6352
  167SAPE  H11X18810   4.546   5.317   3.590  0.3411  0.1717 -1.5297
  167SAPE  H11Y18811   4.706   5.222   3.565 -0.3287  0.0637 -1.1092
  167SAPE  C31218812   4.606   5.175   3.751 -0.5932  0.3652 -0.0621
  167SAPE  H12X18813   4.668   5.242   3.814 -2.3822  1.0177  1.0836
  167SAPE  H12Y18814   4.649   5.072   3.753  1.1521  1.0247 -0.9875
  167SAPE  C31318815   4.471   5.171   3.821  0.0684  0.0443  0.0125
  167SAPE  H13X18816   4.392   5.126   3.756 -1.7537 -0.1151  2.2088
  167SAPE  H13Y18817   4.438   5.277   3.824 -1.8866 -0.5498  1.3031
  167SAPE  C31418818   4.483   5.118   3.966 -0.0229  0.0885 -0.2080
  167SAPE  H14X18819   4.538   5.193   4.027 -1.0929 -0.2638  1.2290
  167SAPE  H14Y18820   4.550   5.033   3.945 -0.2656 -0.0168 -0.5699
  167SAPE  C31518821   4.353   5.068   4.027 -0.6723  0.1684  0.0878
  167SAPE  H15X18822   4.378   4.979   4.089 -1.6675  0.5691  1.1123
  167SAPE  H15Y18823   4.271   5.043   3.956  0.2136 -0.5115 -0.7243
  167SAPE  C31618824   4.304   5.170   4.128 -0.3749 -0.5943 -0.1809
  167SAPE  H16X18825   4.270   5.262   4.076  0.7271  1.6839  2.8493
  167SAPE  H16Y18826   4.391   5.202   4.190 -1.1630  2.8824 -0.7102
  167SAPE  C31718827   4.206   5.119   4.230  0.2036 -0.3434  0.2255
  167SAPE  H17X18828   4.269   5.055   4.296  0.0371 -1.9002 -1.0724
  167SAPE  H17Y18829   4.131   5.060   4.174 -2.8706  2.3635  1.1510
  167SAPE  C31818830   4.129   5.233   4.298 -0.0736 -0.3632  0.2478
  167SAPE  H18X18831   4.100   5.308   4.222  0.3945 -0.2975  0.1333
  167SAPE  H18Y18832   4.192   5.276   4.379 -0.4502 -2.4499  1.7504
  167SAPE  H18Z18833   4.037   5.204   4.353  0.2539  1.2041  1.7108
  168SAPE     N18834   1.346   0.232   2.191 -0.4879  0.3897 -0.7027
  168SAPE   HN118835   1.448   0.239   2.177 -0.3455  0.4599  0.2688
  168SAPE   HN218836   1.313   0.134   2.184 -0.4098  0.1590  1.4409
  168SAPE   HN318837   1.297   0.287   2.117 -0.9515  1.2684  0.2189
  168SAPE   C1218838   1.326   0.292   2.333  0.3218  0.4504 -0.1363
  168SAPE  H12A18839   1.389   0.383   2.345  0.7231  0.1695 -0.0850
  168SAPE  H12B18840   1.355   0.213   2.405  0.7140 -1.0955 -1.9146
  168SAPE   C1118841   1.177   0.327   2.347  0.0523 -0.4584  0.0229
  168SAPE  H11A18842   1.162   0.371   2.448  1.9205 -0.8107  0.5019
  168SAPE  H11B18843   1.115   0.235   2.335 -1.1469  0.3904 -0.3955
  168SAPE     P18844   0.996   0.464   2.216  0.1661 -0.0740 -0.0563
  168SAPE   O1318845   1.012   0.608   2.237 -0.3140  0.3815  0.2008
  168SAPE   O1418846   0.944   0.409   2.085 -0.5891 -0.0408  0.3879
  168SAPE   O1218847   1.140   0.409   2.242  0.1933  0.6849  0.3751
  168SAPE   O1118848   0.908   0.411   2.338 -0.0207 -0.3325 -0.0207
  168SAPE    C118849   0.784   0.476   2.369 -0.6467  0.1249 -0.1786
  168SAPE    HA18850   0.745   0.538   2.286 -0.4535 -0.6899 -0.8850
  168SAPE    HB18851   0.707   0.397   2.384  2.0157 -2.8812 -1.1631
  168SAPE    C218852   0.804   0.559   2.496 -0.2794  0.9234 -0.5677
  168SAPE    HS18853   0.875   0.643   2.475  1.1165 -0.2119 -0.5832
  168SAPE   O2118854   0.849   0.479   2.610 -0.1864 -0.2373 -0.1260
  168SAPE   C2118855   0.907   0.549   2.705 -1.0487 -0.9923 -0.1494
  168SAPE   O2218856   0.916   0.673   2.713  0.1889 -0.0136 -0.4365
  168SAPE   C2218857   0.969   0.462   2.817  0.5681 -0.2776  0.0037
  168SAPE   H2R18858   0.941   0.355   2.802  0.2709 -0.5776  2.2960
  168SAPE   H2S18859   1.079   0.469   2.808  0.4080  0.2596 -2.1660
  168SAPE    C318860   0.671   0.630   2.542 -0.7297 -0.4801 -0.4283
  168SAPE    HX18861   0.637   0.685   2.451  0.1741 -1.3251 -1.3109
  168SAPE    HY18862   0.705   0.707   2.615 -0.8648 -0.4121 -0.4376
  168SAPE   O3118863   0.571   0.545   2.595 -0.1003 -0.7779 -0.1585
  168SAPE   C3118864   0.486   0.608   2.683 -0.1375  0.5218  0.2639
  168SAPE   O3218865   0.473   0.727   2.698  0.1098  0.3935 -0.1202
  168SAPE   C3218866   0.408   0.506   2.761  0.2740  0.0951 -0.0321
  168SAPE   H2X18867   0.368   0.436   2.684 -0.1935  1.1160 -0.7369
  168SAPE   H2Y18868   0.314   0.550   2.799 -0.3549  0.9162 -2.3892
  168SAPE   C2318869   0.907   0.497   2.956 -0.5411  0.4362 -0.6552
  168SAPE   H3R18870   0.811   0.442   2.965 -0.7305  0.8798  0.0547
  168SAPE   H3S18871   0.887   0.606   2.965  2.8957  1.1175  0.3809
  168SAPE   C2418872   0.991   0.445   3.077 -0.1100  0.0821 -0.3696
  168SAPE   H4R18873   1.020   0.341   3.053  3.1607  0.9043 -0.5343
  168SAPE   H4S18874   0.925   0.448   3.166  1.4005 -5.2346  1.3030
  168SAPE   C2518875   1.121   0.522   3.101 -0.1738  0.0770 -0.0654
  168SAPE   H5R18876   1.144   0.586   3.014  0.3260 -0.5482 -0.4031
  168SAPE   C2618877   1.192   0.516   3.213  0.2331  0.5258  0.2422
  168SAPE   H6R18878   1.288   0.570   3.209  1.0619 -0.9515 -0.9988
  168SAPE   C2718879   1.158   0.443   3.342 -0.0799 -0.6857 -0.0695
  168SAPE   H7R18880   1.249   0.403   3.391 -0.7497 -1.0743  0.8933
  168SAPE   H7S18881   1.104   0.349   3.316  1.1930 -0.7209 -2.9161
  168SAPE   C2818882   1.077   0.523   3.439  1.0356  1.1454 -0.8322
  168SAPE   H8R18883   0.993   0.576   3.392  0.1026  1.3052  0.9290
  168SAPE   C2918884   1.098   0.533   3.574 -0.2879 -1.2656 -0.2996
  168SAPE   H9R18885   1.030   0.597   3.630  3.0984  0.8942  1.7271
  168SAPE  C21018886   1.197   0.453   3.661  0.2390 -0.3482  1.2761
  168SAPE  H10R18887   1.301   0.481   3.634  0.0179 -1.1476 -0.5562
  168SAPE  H10S18888   1.200   0.350   3.618 -1.3806  0.8582 -2.1576
  168SAPE  C21118889   1.162   0.446   3.808  0.0949 -0.7332  0.0126
  168SAPE  H11R18890   1.060   0.413   3.834 -0.8631  0.0244 -2.5535
  168SAPE  C21218891   1.236   0.499   3.907  0.2365 -0.6543 -0.1684
  168SAPE  H12R18892   1.184   0.500   4.004 -2.9372  0.2194 -1.7468
  168SAPE  C21318893   1.365   0.585   3.895 -0.0502 -0.3168 -0.4197
  168SAPE  H13R18894   1.326   0.688   3.909  0.4815 -0.2441  0.6133
  168SAPE  H13S18895   1.416   0.593   3.797  1.7616  0.9932  0.5819
  168SAPE  C21418896   1.465   0.545   4.004  0.1213 -0.0683 -0.5035
  168SAPE  H14R18897   1.518   0.451   3.982 -2.9699 -1.9635 -0.3670
  168SAPE  C21518898   1.472   0.595   4.130  0.3289 -0.0963  0.5955
  168SAPE  H15R18899   1.555   0.561   4.194  0.3218  2.8617  2.3714
  168SAPE  C21618900   1.402   0.719   4.181  1.0048  0.2905 -0.3619
  168SAPE  H16R18901   1.295   0.701   4.159  0.9210 -1.4002  1.1320
  168SAPE  H16S18902   1.441   0.810   4.130 -0.0088  1.4135  0.7956
  168SAPE  C21718903   1.419   0.726   4.328 -0.5356 -0.0565  0.4662
  168SAPE  H17R18904   1.393   0.632   4.383  0.9686 -0.4912  0.4905
  168SAPE  H17S18905   1.345   0.803   4.359 -0.5982  0.6671 -1.3645
  168SAPE  C21818906   1.557   0.779   4.360  0.3764  0.5735  0.3067
  168SAPE  H18R18907   1.596   0.845   4.279 -0.7660 -0.4401 -1.1122
  168SAPE  H18S18908   1.631   0.697   4.367 -1.7191 -1.2818  1.8879
  168SAPE  C21918909   1.550   0.857   4.489  0.1210 -0.0345  0.0585
  168SAPE  H19R18910   1.508   0.785   4.562  0.0822 -0.6660 -0.5760
  168SAPE  H19S18911   1.477   0.941   4.480 -0.2391 -0.2712  0.6490
  168SAPE  C22018912   1.687   0.896   4.546 -0.5379 -0.8376  0.2020
  168SAPE  H20R18913   1.729   0.986   4.498 -0.8228 -1.2281 -0.8054
  168SAPE  H20S18914   1.748   0.808   4.516 -0.1007 -0.5364  0.2072
  168SAPE  H20T18915   1.678   0.907   4.656 -1.9401  0.8607 -0.0486
  168SAPE   C3318916   0.491   0.449   2.882  0.1782 -0.2881 -0.0370
  168SAPE   H3X18917   0.595   0.438   2.843 -0.1737 -2.1191 -0.5325
  168SAPE   H3Y18918   0.457   0.347   2.908 -0.7223 -0.5597 -2.0639
  168SAPE   C3418919   0.484   0.543   3.003  0.5662 -0.4086 -0.3437
  168SAPE   H4X18920   0.378   0.552   3.036  0.6006  0.1609 -0.3874
  168SAPE   H4Y18921   0.528   0.642   2.980 -1.2802  1.0198  1.7295
  168SAPE   C3518922   0.561   0.490   3.124  0.0486  0.6647  0.9048
  168SAPE   H5X18923   0.665   0.456   3.102 -0.4040 -1.3325  1.6694
  168SAPE   H5Y18924   0.509   0.399   3.161  0.8013  0.5076  1.5937
  168SAPE   C3618925   0.561   0.576   3.245 -0.0945  0.2068  0.8999
  168SAPE   H6X18926   0.456   0.585   3.279  0.4266  1.7740  2.2465
  168SAPE   H6Y18927   0.606   0.673   3.213  0.1608 -0.8375 -2.2460
  168SAPE   C3718928   0.619   0.513   3.368 -0.5085 -0.2126  0.0038
  168SAPE   H7X18929   0.728   0.502   3.350 -0.5014 -0.8034  0.3703
  168SAPE   H7Y18930   0.570   0.415   3.386  0.3036 -0.2753  2.2681
  168SAPE   C3818931   0.611   0.613   3.488  0.3493  0.2716 -0.1746
  168SAPE   H8X18932   0.513   0.633   3.536  1.7957  2.4030  2.1757
  168SAPE   H8Y18933   0.636   0.713   3.447 -1.4901  0.7029 -0.3407
  168SAPE   C3918934   0.699   0.564   3.607 -0.4270 -0.0415  0.6204
  168SAPE   H9X18935   0.806   0.576   3.582 -0.5472  0.1988  0.2032
  168SAPE   H9Y18936   0.677   0.457   3.625  1.0982 -1.0362 -2.6236
  168SAPE  C31018937   0.659   0.656   3.725 -0.0369  0.2256  0.6961
  168SAPE  H10X18938   0.549   0.640   3.736 -0.4551  2.5618  0.4825
  168SAPE  H10Y18939   0.674   0.765   3.709 -3.8668  0.6996 -0.8153
  168SAPE  C31118940   0.729   0.602   3.860  0.2150  0.3038  0.1572
  168SAPE  H11X18941   0.829   0.579   3.818  1.2844  0.0300  2.7116
  168SAPE  H11Y18942   0.666   0.515   3.888  0.9921 -0.6282 -0.9168
  168SAPE  C31218943   0.734   0.695   3.982 -0.5318 -0.3515  0.3237
  168SAPE  H12X18944   0.631   0.732   4.000 -1.0600 -0.4645 -2.1069
  168SAPE  H12Y18945   0.796   0.781   3.947  0.0433 -1.2621 -0.9584
  168SAPE  C31318946   0.794   0.626   4.108  0.1223 -0.1055  0.6145
  168SAPE  H13X18947   0.742   0.528   4.106 -1.1606  0.5584 -1.7848
  168SAPE  H13Y18948   0.767   0.685   4.198 -0.2279  1.5572 -0.5292
  168SAPE  C31418949   0.946   0.603   4.112  1.4855 -0.6443 -0.0778
  168SAPE  H14X18950   1.003   0.698   4.106 -0.3900  0.5792  0.5664
  168SAPE  H14Y18951   0.969   0.551   4.016 -0.7486  1.3244 -1.8033
  168SAPE  C31518952   0.987   0.532   4.240 -0.2434 -0.9504 -0.3147
  168SAPE  H15X18953   1.079   0.476   4.213  0.8173  0.1908  0.8234
  168SAPE  H15Y18954   0.914   0.451   4.265 -0.4572 -0.2739  1.4159
  168SAPE  C31618955   1.011   0.628   4.349  0.3869 -0.0128  0.7611
  168SAPE  H16X18956   0.920   0.686   4.375  0.3148  2.2649 -3.7097
  168SAPE  H16Y18957   1.077   0.708   4.308 -0.6716 -0.0451 -1.1154
  168SAPE  C31718958   1.062   0.566   4.477  0.5574 -0.4250 -0.1834
  168SAPE  H17X18959   1.159   0.512   4.463  0.4917 -0.8210  0.8109
  168SAPE  H17Y18960   0.994   0.488   4.518 -1.8233  2.8903  2.7945
  168SAPE  C31818961   1.079   0.661   4.597  0.4586  0.1468 -0.3666
  168SAPE  H18X18962   1.160   0.624   4.663  1.2003 -0.4952 -1.5901
  168SAPE  H18Y18963   0.985   0.675   4.654 -0.1723 -2.9646 -0.4412
  168SAPE  H18Z18964   1.113   0.764   4.574  0.3916  1.0043  2.9906
  169SAPE     N18965   5.084   4.787   2.356 -0.2358 -0.1634 -0.5349
  169SAPE   HN118966   5.041   4.840   2.435 -2.3214 -2.0133 -0.3120
  169SAPE   HN218967   5.027   4.807   2.271  1.5534  0.1165 -1.7267
  169SAPE   HN318968   5.084   4.686   2.380  1.8480  0.3749  2.1976
  169SAPE   C1218969   5.219   4.831   2.299  0.0419 -0.0295 -0.6521
  169SAPE  H12A18970   5.211   4.939   2.277 -1.3785 -0.1242 -0.6749
  169SAPE  H12B18971   5.238   4.775   2.205  0.8537  2.2430 -1.9101
  169SAPE   C1118972   5.338   4.825   2.401 -0.3255 -0.1563 -0.4033
  169SAPE  H11A18973   5.302   4.871   2.496 -0.5719  0.6313 -0.8665
  169SAPE  H11B18974   5.430   4.874   2.363  0.0053 -0.0977  0.4520
  169SAPE     P18975   5.441   4.643   2.551 -0.1739 -0.1170 -0.3668
  169SAPE   O1318976   5.446   4.501   2.546  0.3164  0.3890  0.0618
  169SAPE   O1418977   5.576   4.712   2.561  0.1683  0.1214 -0.3842
  169SAPE   O1218978   5.373   4.688   2.418  0.1072  0.0467 -0.5394
  169SAPE   O1118979   5.333   4.686   2.656 -0.2796  0.0881  0.0211
  169SAPE    C118980   5.203   4.619   2.655 -0.0445 -0.7625 -0.3994
  169SAPE    HA18981   5.157   4.611   2.554  0.4262 -0.8103 -0.6111
  169SAPE    HB18982   5.218   4.514   2.688  2.8184 -0.6225 -1.0276
  169SAPE    C218983   5.101   4.679   2.767 -0.1394  0.4859 -0.5967
  169SAPE    HS18984   5.078   4.784   2.740 -2.6040 -0.1453 -1.1314
  169SAPE   O2118985   5.160   4.671   2.901  0.3050 -0.2883 -0.0638
  169SAPE   C2118986   5.207   4.788   2.945 -0.1362  0.2028 -0.7460
  169SAPE   O2218987   5.237   4.885   2.877 -0.3999  0.1304  0.0072
  169SAPE   C2218988   5.225   4.792   3.095  0.4086 -0.4850  0.0520
  169SAPE   H2R18989   5.221   4.900   3.121  2.0335 -0.4056  0.0647
  169SAPE   H2S18990   5.141   4.751   3.154 -2.4755  0.7650 -2.8710
  169SAPE    C318991   4.974   4.610   2.762  0.0279  1.0637 -0.4247
  169SAPE    HX18992   4.984   4.514   2.816 -0.0755  1.3658  0.1310
  169SAPE    HY18993   4.936   4.593   2.659 -1.0521 -1.1930  0.2926
  169SAPE   O3118994   4.874   4.680   2.831  0.4878  0.4460 -0.1302
  169SAPE   C3118995   4.750   4.641   2.804 -0.3611 -0.3773  0.0700
  169SAPE   O3218996   4.716   4.544   2.735 -0.1825  0.1096  0.0413
  169SAPE   C3218997   4.656   4.741   2.877 -0.3041  0.3822 -0.6478
  169SAPE   H2X18998   4.575   4.776   2.809 -1.2390  0.9719  0.7082
  169SAPE   H2Y18999   4.699   4.834   2.921 -1.9201  0.8244  0.1139
  169SAPE   C2319000   5.359   4.732   3.140 -0.0531 -0.3186  0.3190
  169SAPE   H3R19001   5.434   4.793   3.085 -0.4229  0.0769  0.2499
  169SAPE   H3S19002   5.369   4.628   3.101  0.8856  0.7036 -2.3295
  169SAPE   C2419003   5.385   4.740   3.290  0.3556 -0.4217 -0.0717
  169SAPE   H4R19004   5.378   4.843   3.331  0.1827 -0.5500  0.2248
  169SAPE   H4S19005   5.490   4.704   3.302  1.5554  2.0862 -2.1170
  169SAPE   C2519006   5.285   4.651   3.366  0.1448  0.3149 -0.6768
  169SAPE   H5R19007   5.232   4.574   3.308  1.6829  0.0381 -1.8002
  169SAPE   C2619008   5.251   4.656   3.495 -0.3725  0.2478  0.1502
  169SAPE   H6R19009   5.175   4.583   3.525 -2.1184  1.5535 -0.9213
  169SAPE   C2719010   5.301   4.752   3.589  0.4729  0.5280  0.2455
  169SAPE   H7R19011   5.216   4.798   3.644 -0.3953  0.5040 -1.0230
  169SAPE   H7S19012   5.344   4.841   3.539  0.5463 -0.0664 -0.7726
  169SAPE   C2819013   5.418   4.714   3.684 -0.1859 -0.8557  0.3471
  169SAPE   H8R19014   5.507   4.701   3.621 -1.1283  0.4117 -1.3502
  169SAPE   C2919015   5.419   4.694   3.818 -0.1110  0.2345  0.2068
  169SAPE   H9R19016   5.512   4.677   3.874  0.5930 -1.3053 -1.3372
  169SAPE  C21019017   5.299   4.683   3.905 -0.0592  0.0982 -0.6019
  169SAPE  H10R19018   5.288   4.583   3.953 -2.1654 -0.1478 -1.5057
  169SAPE  H10S19019   5.205   4.690   3.847 -0.8153  1.5506  0.7442
  169SAPE  C21119020   5.301   4.784   4.011 -0.0726 -0.4779 -1.0242
  169SAPE  H11R19021   5.357   4.878   3.995 -0.1497 -0.3505 -0.5719
  169SAPE  C21219022   5.245   4.767   4.134  0.6231  0.0511 -0.5596
  169SAPE  H12R19023   5.254   4.847   4.209  1.2208 -0.1108 -0.4544
  169SAPE  C21319024   5.157   4.653   4.171  0.6034  0.5710 -0.6322
  169SAPE  H13R19025   5.228   4.594   4.233  0.9277  0.2659 -1.2854
  169SAPE  H13S19026   5.125   4.602   4.078  1.8815 -1.4163 -0.0583
  169SAPE  C21419027   5.046   4.691   4.267 -1.0341 -0.0785 -0.5168
  169SAPE  H14R19028   4.964   4.743   4.215  0.5658  1.2575 -1.8103
  169SAPE  C21519029   5.031   4.658   4.399 -0.6321  0.5125 -0.5439
  169SAPE  H15R19030   4.949   4.705   4.455  0.7602  1.2003  0.9997
  169SAPE  C21619031   5.136   4.584   4.480  0.1957 -0.3472 -0.5714
  169SAPE  H16R19032   5.158   4.636   4.576  0.2040  0.1950 -0.8584
  169SAPE  H16S19033   5.233   4.586   4.426 -0.2258 -0.8177 -1.3625
  169SAPE  C21719034   5.113   4.438   4.515  0.3372  0.3161 -0.4129
  169SAPE  H17R19035   5.024   4.427   4.580  1.6587  0.2251  1.4442
  169SAPE  H17S19036   5.190   4.408   4.589 -1.6353  2.3337  2.7030
  169SAPE  C21819037   5.117   4.331   4.401  0.5017  0.1356 -0.0094
  169SAPE  H18R19038   5.225   4.314   4.381  0.0971 -0.8715 -1.5012
  169SAPE  H18S19039   5.065   4.366   4.309 -0.5027  2.7784  1.4453
  169SAPE  C21919040   5.074   4.188   4.432 -0.2781  0.4587 -0.4558
  169SAPE  H19R19041   4.986   4.188   4.500  0.3413  0.9509  0.3652
  169SAPE  H19S19042   5.148   4.130   4.491 -0.0845  0.8391 -0.3256
  169SAPE  C22019043   5.043   4.110   4.302 -1.2269 -0.1433 -0.1698
  169SAPE  H20R19044   4.951   4.135   4.245 -0.8001 -3.7160 -2.7431
  169SAPE  H20S19045   5.046   4.000   4.316  1.1750 -0.5771 -3.0671
  169SAPE  H20T19046   5.126   4.133   4.232 -1.1070 -1.9579 -0.6804
  169SAPE   C3319047   4.581   4.677   3.004  0.8100  0.1898  0.3279
  169SAPE   H3X19048   4.519   4.603   2.948  1.5449  0.8462 -1.4204
  169SAPE   H3Y19049   4.520   4.754   3.056 -0.9352  0.4015 -1.8623
  169SAPE   C3419050   4.670   4.596   3.101 -0.1512 -0.7931  0.1177
  169SAPE   H4X19051   4.704   4.504   3.047  0.9688  0.6997 -1.8753
  169SAPE   H4Y19052   4.604   4.558   3.182 -2.3058  3.8479  0.8270
  169SAPE   C3519053   4.778   4.682   3.168  0.1548  0.1835 -0.6638
  169SAPE   H5X19054   4.826   4.752   3.097  0.2297 -1.0095 -1.8337
  169SAPE   H5Y19055   4.854   4.623   3.224 -1.8220 -2.4975 -0.5992
  169SAPE   C3619056   4.712   4.764   3.284 -0.0002 -0.0939 -1.2394
  169SAPE   H6X19057   4.601   4.757   3.284 -0.0547  0.0233  1.0371
  169SAPE   H6Y19058   4.760   4.864   3.291 -1.4203  0.6107 -1.1940
  169SAPE   C3719059   4.733   4.701   3.425  0.7579  0.2625 -0.1809
  169SAPE   H7X19060   4.843   4.692   3.432  0.5911 -0.8234  1.5253
  169SAPE   H7Y19061   4.693   4.599   3.407  1.0718  0.6461 -3.7602
  169SAPE   C3819062   4.662   4.777   3.538  0.0200 -0.9913  0.6110
  169SAPE   H8X19063   4.551   4.778   3.527 -0.0061  0.6472  0.7394
  169SAPE   H8Y19064   4.708   4.878   3.550  2.8861 -1.9506 -1.3891
  169SAPE   C3919065   4.664   4.695   3.668  0.3831 -0.1865 -0.2773
  169SAPE   H9X19066   4.771   4.674   3.687  0.2306 -1.5912 -0.8846
  169SAPE   H9Y19067   4.611   4.600   3.647 -1.2999  1.3501 -3.9255
  169SAPE  C31019068   4.591   4.763   3.786  0.2217 -0.0782 -0.6012
  169SAPE  H10X19069   4.489   4.793   3.756 -0.1047 -0.7729 -0.2098
  169SAPE  H10Y19070   4.645   4.856   3.816 -0.9152  0.2349  0.5615
  169SAPE  C31119071   4.586   4.675   3.908 -0.5819  0.4506 -0.2239
  169SAPE  H11X19072   4.534   4.585   3.871  0.0141 -0.3665  0.8748
  169SAPE  H11Y19073   4.514   4.725   3.977  1.1066  1.2150  1.0562
  169SAPE  C31219074   4.726   4.655   3.976  0.1360 -0.3045 -0.7745
  169SAPE  H12X19075   4.748   4.759   4.006 -1.8600  0.6354 -2.3319
  169SAPE  H12Y19076   4.792   4.621   3.892 -2.4820 -2.6165 -2.0659
  169SAPE  C31319077   4.719   4.546   4.083 -0.0858  0.1717 -0.3350
  169SAPE  H13X19078   4.652   4.578   4.166 -0.1973 -0.6689 -0.0966
  169SAPE  H13Y19079   4.821   4.543   4.127 -0.5867  3.4869  1.4185
  169SAPE  C31419080   4.669   4.405   4.038 -0.4701  0.0465  0.1678
  169SAPE  H14X19081   4.720   4.379   3.943 -0.9319  0.5709 -0.2209
  169SAPE  H14Y19082   4.562   4.404   4.010 -0.1770 -1.6328 -1.0452
  169SAPE  C31519083   4.713   4.304   4.142 -0.5603 -0.3285 -0.8424
  169SAPE  H15X19084   4.824   4.304   4.145 -0.5809 -0.3111  1.0600
  169SAPE  H15Y19085   4.687   4.197   4.126  1.5154 -1.6325  3.0933
  169SAPE  C31619086   4.663   4.337   4.287  0.5645 -0.0354  0.0759
  169SAPE  H16X19087   4.553   4.348   4.274  0.6186  1.3519  0.5831
  169SAPE  H16Y19088   4.691   4.437   4.327 -0.3491 -0.1080  0.9428
  169SAPE  C31719089   4.686   4.231   4.396  0.0195 -0.1144  0.9467
  169SAPE  H17X19090   4.791   4.233   4.433  1.7634  0.7449 -3.4297
  169SAPE  H17Y19091   4.663   4.133   4.349  0.6373 -0.2828  0.9872
  169SAPE  C31819092   4.596   4.251   4.519 -0.3805 -0.0018  0.2139
  169SAPE  H18X19093   4.598   4.163   4.587 -3.2580 -0.3657 -0.0304
  169SAPE  H18Y19094   4.488   4.263   4.494 -0.2035  0.9547 -0.1375
  169SAPE  H18Z19095   4.626   4.339   4.578 -1.1174 -0.7951  1.8342
  170SAPE     N19096   5.206   0.494   2.254  0.1877  0.2334 -0.8554
  170SAPE   HN119097   5.302   0.529   2.273 -0.1275  0.9006 -0.4743
  170SAPE   HN219098   5.202   0.457   2.157  0.8294 -2.9433  0.2005
  170SAPE   HN319099   5.132   0.565   2.266  0.0255 -0.2156  1.4533
  170SAPE   C1219100   5.179   0.370   2.335  0.5568 -0.6372  0.5239
  170SAPE  H12A19101   5.089   0.317   2.296  1.2265 -0.6133 -1.0858
  170SAPE  H12B19102   5.157   0.412   2.436 -0.8015 -0.6529  0.2579
  170SAPE   C1119103   5.289   0.273   2.313  0.2661 -0.4652 -0.1751
  170SAPE  H11A19104   5.279   0.235   2.210 -1.8119  3.0122 -1.4235
  170SAPE  H11B19105   5.287   0.192   2.389  0.7639  0.5898  1.0066
  170SAPE     P19106   5.547   0.270   2.373  0.2549 -0.2676 -0.5945
  170SAPE   O1319107   5.537   0.122   2.365  0.4433 -0.2855  0.3316
  170SAPE   O1419108   5.662   0.324   2.294  0.2032 -0.8887 -0.2723
  170SAPE   O1219109   5.416   0.337   2.320 -0.2778 -0.1114  0.1364
  170SAPE   O1119110   5.556   0.320   2.524 -0.3673 -0.3805  0.1527
  170SAPE    C119111   5.487   0.424   2.587  0.1264 -0.6413  0.1746
  170SAPE    HA19112   5.533   0.518   2.549 -0.1472 -0.3197  0.6285
  170SAPE    HB19113   5.385   0.418   2.545 -0.9776  5.0723  1.2358
  170SAPE    C219114   5.496   0.409   2.735  0.1420  0.3237  0.1320
  170SAPE    HS19115   5.440   0.491   2.784 -0.5626  0.7963 -1.4111
  170SAPE   O2119116   5.635   0.411   2.782 -0.1283  0.2621  0.0496
  170SAPE   C2119117   5.680   0.538   2.795 -0.3760 -0.5229  0.0631
  170SAPE   O2219118   5.611   0.636   2.767  0.3557  0.1680 -0.8396
  170SAPE   C2219119   5.819   0.558   2.853  0.5763 -0.4414  0.2725
  170SAPE   H2R19120   5.822   0.643   2.925  1.4187  0.6063 -0.9673
  170SAPE   H2S19121   5.833   0.468   2.917 -1.8429 -3.5233 -3.1371
  170SAPE    C319122   5.423   0.277   2.770 -0.3763  0.0133 -0.1003
  170SAPE    HX19123   5.475   0.187   2.730 -1.1040 -1.1878  1.5208
  170SAPE    HY19124   5.321   0.285   2.726 -0.9901  0.3136  1.3353
  170SAPE   O3119125   5.414   0.264   2.912  0.3242  0.0839  0.6247
  170SAPE   C3119126   5.297   0.288   2.970  0.5054  0.3960 -0.7775
  170SAPE   O3219127   5.197   0.328   2.914 -0.4231 -0.1441  0.0151
  170SAPE   C3219128   5.301   0.257   3.118 -0.4211  0.7079  0.2221
  170SAPE   H2X19129   5.316   0.149   3.138 -0.7825  0.6108 -0.0057
  170SAPE   H2Y19130   5.198   0.279   3.154 -0.3492  1.7818 -0.1871
  170SAPE   C2319131   5.932   0.558   2.745 -0.2162 -0.0678  1.0582
  170SAPE   H3R19132   5.944   0.662   2.708 -0.4493  0.9416  3.5756
  170SAPE   H3S19133   5.913   0.492   2.658 -1.6463  0.6742  0.7848
  170SAPE   C2419134   6.073   0.538   2.803  0.3476  0.3789  0.1909
  170SAPE   H4R19135   6.087   0.609   2.888  0.4204 -0.4126  0.8557
  170SAPE   H4S19136   6.150   0.563   2.727  1.0198  0.5552  0.9061
  170SAPE   C2519137   6.082   0.393   2.858  0.1802 -0.3223 -0.6827
  170SAPE   H5R19138   6.093   0.327   2.771 -0.6187  1.9752 -2.6520
  170SAPE   C2619139   6.076   0.347   2.987 -0.5414  0.1086  0.1529
  170SAPE   H6R19140   6.085   0.239   3.003 -0.3470  0.0600 -0.2622
  170SAPE   C2719141   6.070   0.434   3.111  0.8938  0.1772 -0.0823
  170SAPE   H7R19142   6.087   0.542   3.092  1.2485 -0.3389 -3.1561
  170SAPE   H7S19143   6.157   0.396   3.169  2.3480  1.6783 -1.1845
  170SAPE   C2819144   5.941   0.409   3.177  0.0848 -0.0801 -0.9341
  170SAPE   H8R19145   5.848   0.430   3.122 -0.8425 -0.4955  0.4372
  170SAPE   C2919146   5.916   0.350   3.297  0.0557 -0.3859 -0.0845
  170SAPE   H9R19147   5.816   0.309   3.315 -0.0026 -1.1046 -1.8098
  170SAPE  C21019148   6.023   0.308   3.397 -0.6001  0.6315 -0.0561
  170SAPE  H10R19149   6.113   0.265   3.347  0.0267  0.9929  0.7399
  170SAPE  H10S19150   5.993   0.219   3.457  0.4319  0.2878 -0.0263
  170SAPE  C21119151   6.083   0.426   3.470  0.1044  0.3492  0.2188
  170SAPE  H11R19152   6.087   0.519   3.410 -0.5220 -0.8093 -1.7198
  170SAPE  C21219153   6.109   0.423   3.604  0.1066 -0.4795 -0.2349
  170SAPE  H12R19154   6.155   0.516   3.642  0.0265 -0.9558  1.0669
  170SAPE  C21319155   6.092   0.303   3.692  0.6969 -0.5508  0.1904
  170SAPE  H13R19156   6.117   0.212   3.634 -1.0415  1.0185 -3.3156
  170SAPE  H13S19157   5.983   0.288   3.704  0.7967 -0.9129  0.6801
  170SAPE  C21419158   6.175   0.314   3.820 -0.4418  0.4816  0.1084
  170SAPE  H14R19159   6.225   0.412   3.827 -1.5514  1.0423  0.4210
  170SAPE  C21519160   6.193   0.219   3.920  0.0589 -0.1524  1.2149
  170SAPE  H15R19161   6.248   0.241   4.013  0.9588 -1.1251  0.9296
  170SAPE  C21619162   6.136   0.079   3.922 -0.2365  0.5438  0.1170
  170SAPE  H16R19163   6.214   0.006   3.891  1.0110  1.5119  0.8623
  170SAPE  H16S19164   6.056   0.070   3.846  1.2279  1.6503 -1.6433
  170SAPE  C21719165   6.080   0.020   4.055  0.7620  0.0118 -0.6927
  170SAPE  H17R19166   6.016  -0.070   4.040 -1.0788  0.9926  0.7350
  170SAPE  H17S19167   6.011   0.095   4.101  2.1612  0.7921  0.1880
  170SAPE  C21819168   6.202  -0.006   4.150  0.1446 -0.5043 -0.1200
  170SAPE  H18R19169   6.237   0.089   4.195  0.1389 -0.4192 -0.2980
  170SAPE  H18S19170   6.286  -0.054   4.094  1.1658 -0.0983  1.0068
  170SAPE  C21919171   6.175  -0.094   4.269  0.5465  0.9537 -0.1167
  170SAPE  H19R19172   6.174  -0.195   4.223 -1.5964  0.4654  0.8985
  170SAPE  H19S19173   6.078  -0.067   4.315  1.0939 -0.1305  1.7643
  170SAPE  C22019174   6.273  -0.092   4.384 -0.2137 -0.0912 -0.3602
  170SAPE  H20R19175   6.379  -0.088   4.354  0.1822  0.4366  0.9945
  170SAPE  H20S19176   6.269  -0.178   4.454 -0.5210  0.0232 -0.2303
  170SAPE  H20T19177   6.256   0.003   4.440 -0.9327  0.7784 -1.9770
  170SAPE   C3319178   5.413   0.336   3.187  0.4969  0.1851 -0.5209
  170SAPE   H3X19179   5.514   0.322   3.143  0.0247 -4.2299 -0.7215
  170SAPE   H3Y19180   5.417   0.286   3.286  0.7952  0.2378 -0.5056
  170SAPE   C3419181   5.368   0.484   3.208 -0.0278  0.3616 -0.1803
  170SAPE   H4X19182   5.295   0.491   3.291 -2.0270 -2.3275 -1.5580
  170SAPE   H4Y19183   5.312   0.513   3.116  1.2826  1.3413 -0.7031
  170SAPE   C3519184   5.486   0.581   3.224  0.3437 -0.6778 -0.5569
  170SAPE   H5X19185   5.437   0.677   3.252 -0.8733 -1.5492  0.3926
  170SAPE   H5Y19186   5.544   0.596   3.130 -3.5920  1.5231 -2.9430
  170SAPE   C3619187   5.573   0.551   3.346  0.5423  0.2280 -0.1289
  170SAPE   H6X19188   5.657   0.624   3.354 -1.2970  2.6469 -1.4563
  170SAPE   H6Y19189   5.620   0.453   3.322 -0.1051 -0.7632  2.3567
  170SAPE   C3719190   5.496   0.526   3.473 -0.2725 -0.0509 -0.8142
  170SAPE   H7X19191   5.411   0.456   3.463 -1.8796  1.9861 -2.0343
  170SAPE   H7Y19192   5.459   0.625   3.508  0.1149 -0.2936  0.3415
  170SAPE   C3819193   5.587   0.491   3.585  0.3690  0.1304 -0.4348
  170SAPE   H8X19194   5.540   0.538   3.674  0.9381  0.9685 -0.5665
  170SAPE   H8Y19195   5.682   0.547   3.575  0.4861  0.1919  0.8675
  170SAPE   C3919196   5.616   0.350   3.615 -0.2940 -0.0178 -1.0603
  170SAPE   H9X19197   5.658   0.307   3.522  0.7029 -0.9499 -0.2041
  170SAPE   H9Y19198   5.533   0.285   3.647  0.1220  0.1139  0.3531
  170SAPE  C31019199   5.730   0.334   3.722 -0.6444 -0.0257  0.2086
  170SAPE  H10X19200   5.812   0.401   3.687 -1.1022  1.6895  2.2477
  170SAPE  H10Y19201   5.774   0.232   3.714 -1.1870 -0.3267  1.0138
  170SAPE  C31119202   5.676   0.353   3.866 -0.3745 -0.2981 -0.1670
  170SAPE  H11X19203   5.581   0.298   3.880 -1.0201  1.1329  1.4277
  170SAPE  H11Y19204   5.645   0.458   3.883 -0.9755 -0.0330 -2.5840
  170SAPE  C31219205   5.792   0.320   3.972 -0.4160 -0.5355 -0.4184
  170SAPE  H12X19206   5.883   0.374   3.938 -1.1014  1.5353  0.8707
  170SAPE  H12Y19207   5.816   0.212   3.977 -0.4833 -0.4952  2.4639
  170SAPE  C31319208   5.759   0.370   4.115  0.8975 -0.1407 -0.7769
  170SAPE  H13X19209   5.677   0.314   4.165  0.7784  0.1848 -0.6062
  170SAPE  H13Y19210   5.724   0.475   4.103  0.6636 -0.1752 -0.4072
  170SAPE  C31419211   5.879   0.364   4.204  0.3900 -0.4734  0.2257
  170SAPE  H14X19212   5.950   0.442   4.170 -0.0114 -0.2593 -0.1346
  170SAPE  H14Y19213   5.927   0.264   4.205  0.2030 -0.5968 -1.1641
  170SAPE  C31519214   5.844   0.397   4.345 -0.4792  0.8732 -0.4709
  170SAPE  H15X19215   5.762   0.326   4.369  1.4597 -1.0733  0.8974
  170SAPE  H15Y19216   5.808   0.502   4.347  2.0442  1.8295 -1.3861
  170SAPE  C31619217   5.963   0.380   4.442 -0.5255 -0.2994 -0.4118
  170SAPE  H16X19218   6.053   0.385   4.377 -1.1973  0.7117 -1.2950
  170SAPE  H16Y19219   5.968   0.276   4.481 -1.1939 -0.4134 -0.6239
  170SAPE  C31719220   5.981   0.484   4.556  0.1252  0.1620  0.3124
  170SAPE  H17X19221   5.889   0.485   4.618 -1.7724 -1.7315 -2.2519
  170SAPE  H17Y19222   5.976   0.583   4.506 -1.4220  0.9936  2.0253
  170SAPE  C31819223   6.103   0.486   4.651 -0.1045 -0.8309  0.1268
  170SAPE  H18X19224   6.201   0.514   4.606  0.1993  0.0558  1.2963
  170SAPE  H18Y19225   6.108   0.392   4.709 -1.1757 -0.4519  0.8536
  170SAPE  H18Z19226   6.089   0.561   4.731  2.5161 -1.2874  1.1098
  171SAPE     N19227   4.930   6.471   2.707  0.7139 -0.4267  1.0485
  171SAPE   HN119228   4.915   6.567   2.670 -0.3587 -0.8863  0.2461
  171SAPE   HN219229   4.841   6.429   2.739  1.4176 -1.3674  1.8183
  171SAPE   HN319230   4.998   6.484   2.785  1.5375  1.1049  0.1128
  171SAPE   C1219231   4.984   6.382   2.598  0.0466 -0.0129  0.0276
  171SAPE  H12A19232   5.044   6.450   2.535  0.9096  0.2714  1.1271
  171SAPE  H12B19233   4.899   6.344   2.537 -0.9184 -2.5497  2.7030
  171SAPE   C1119234   5.063   6.263   2.652 -0.1262  0.2880 -0.3342
  171SAPE  H11A19235   5.003   6.220   2.735 -0.6369  0.0276 -0.8374
  171SAPE  H11B19236   5.157   6.298   2.701 -0.8459  0.4842  0.9641
  171SAPE     P19237   5.204   6.187   2.442 -0.1127 -0.4001 -0.5416
  171SAPE   O1319238   5.220   6.066   2.365 -0.4742  0.0091  0.2215
  171SAPE   O1419239   5.189   6.318   2.369  0.4516  0.4230 -0.2351
  171SAPE   O1219240   5.082   6.167   2.544 -0.2797 -0.0408  0.3105
  171SAPE   O1119241   5.336   6.200   2.530  0.2406  0.5888  0.3069
  171SAPE    C119242   5.383   6.079   2.590 -0.4950  0.7758 -1.1540
  171SAPE    HA19243   5.379   5.988   2.525 -1.0916  0.5870 -0.8576
  171SAPE    HB19244   5.492   6.088   2.613 -0.4856 -0.2978 -0.6956
  171SAPE    C219245   5.321   6.058   2.738 -0.1218 -0.1707 -0.7598
  171SAPE    HS19246   5.213   6.038   2.723  0.3256 -0.2888 -4.9464
  171SAPE   O2119247   5.352   6.173   2.816 -0.3645  0.4946 -0.1156
  171SAPE   C2119248   5.274   6.192   2.922 -0.8607  0.4776 -0.2503
  171SAPE   O2219249   5.165   6.135   2.939 -0.4056  0.2847  0.0289
  171SAPE   C2219250   5.341   6.296   3.015  0.1475 -0.1304  0.5546
  171SAPE   H2R19251   5.448   6.300   2.987 -0.6197 -0.2943 -2.8453
  171SAPE   H2S19252   5.281   6.381   2.977 -0.6316 -1.7022 -1.9506
  171SAPE    C319253   5.380   5.921   2.790 -0.0832  0.5803 -0.1973
  171SAPE    HX19254   5.357   5.834   2.724 -0.4147  0.7435 -0.3001
  171SAPE    HY19255   5.333   5.899   2.888  1.2998  1.1232  0.6151
  171SAPE   O3119256   5.530   5.932   2.793  0.8199 -0.3572  0.5841
  171SAPE   C3119257   5.585   5.964   2.912  0.2107 -0.0330 -0.1228
  171SAPE   O3219258   5.523   5.978   3.017  0.0520 -0.6144  0.1425
  171SAPE   C3219259   5.732   5.981   2.895  0.2718  0.1835 -0.1679
  171SAPE   H2X19260   5.769   5.947   2.796 -2.6476  1.1262 -1.7000
  171SAPE   H2Y19261   5.789   5.923   2.971  0.2967  1.8465  1.1325
  171SAPE   C2319262   5.307   6.257   3.160 -0.0930 -0.2688  0.3278
  171SAPE   H3R19263   5.353   6.159   3.185 -1.0699 -1.1175 -1.0452
  171SAPE   H3S19264   5.197   6.260   3.175 -0.4155  0.2889 -1.8620
  171SAPE   C2419265   5.362   6.364   3.263  0.0213  1.0450 -0.1304
  171SAPE   H4R19266   5.469   6.392   3.254  0.0943  0.7654 -0.1323
  171SAPE   H4S19267   5.348   6.310   3.359  2.7541  0.0966 -0.1783
  171SAPE   C2519268   5.272   6.482   3.267  0.2138 -0.0031  0.7751
  171SAPE   H5R19269   5.168   6.462   3.296  1.4745 -3.8031  3.5117
  171SAPE   C2619270   5.305   6.608   3.234  0.6335 -0.6451 -0.2402
  171SAPE   H6R19271   5.222   6.680   3.242 -1.4290 -2.9806  0.6212
  171SAPE   C2719272   5.441   6.666   3.203  0.2040  0.7175 -0.2700
  171SAPE   H7R19273   5.457   6.653   3.093  2.7820 -0.4950  0.1877
  171SAPE   H7S19274   5.522   6.600   3.241  0.7535  1.0148 -0.8979
  171SAPE   C2819275   5.483   6.810   3.229  0.4046  0.5072  0.3595
  171SAPE   H8R19276   5.486   6.886   3.150  3.4078  0.0192 -0.1093
  171SAPE   C2919277   5.545   6.859   3.336 -0.2510  0.4150 -0.0446
  171SAPE   H9R19278   5.592   6.958   3.329  0.5144  0.2276  1.8616
  171SAPE  C21019279   5.561   6.801   3.473 -0.1479  0.0634 -0.1755
  171SAPE  H10R19280   5.525   6.696   3.472 -1.8881  0.6109  0.5650
  171SAPE  H10S19281   5.496   6.851   3.548 -1.0615  0.8224 -1.4389
  171SAPE  C21119282   5.709   6.787   3.520  0.5531 -0.8959  0.1231
  171SAPE  H11R19283   5.786   6.831   3.455  0.0531  2.1595  1.4101
  171SAPE  C21219284   5.730   6.721   3.633 -0.6328  0.2935  0.0667
  171SAPE  H12R19285   5.830   6.701   3.675 -0.2912 -1.2687 -1.3780
  171SAPE  C21319286   5.627   6.676   3.733  0.0124  0.5669 -0.4817
  171SAPE  H13R19287   5.676   6.597   3.794 -1.7243  0.8398  1.3505
  171SAPE  H13S19288   5.545   6.625   3.678 -0.2700  1.5734 -1.0182
  171SAPE  C21419289   5.583   6.792   3.819  0.6277 -0.3517  0.2896
  171SAPE  H14R19290   5.516   6.860   3.763  1.8103 -0.6157 -1.5166
  171SAPE  C21519291   5.615   6.824   3.944 -0.3173  0.8397 -0.8094
  171SAPE  H15R19292   5.577   6.916   3.990 -0.6928  0.7103 -0.8555
  171SAPE  C21619293   5.693   6.729   4.034 -0.1930 -0.2897  0.0037
  171SAPE  H16R19294   5.791   6.713   3.984 -0.2356  0.9703 -0.5313
  171SAPE  H16S19295   5.645   6.631   4.055 -0.7714 -0.0802 -0.3340
  171SAPE  C21719296   5.711   6.789   4.173 -0.5393  0.4303 -0.3950
  171SAPE  H17R19297   5.720   6.900   4.163  1.3388  0.2495 -1.0257
  171SAPE  H17S19298   5.804   6.751   4.221 -1.2622 -0.0863  0.6251
  171SAPE  C21819299   5.580   6.756   4.253 -0.0216 -0.2969  0.0285
  171SAPE  H18R19300   5.546   6.651   4.270  0.3026 -0.4111 -0.0153
  171SAPE  H18S19301   5.495   6.802   4.198  1.0627 -0.9883 -2.3813
  171SAPE  C21919302   5.580   6.831   4.391 -0.5929  0.2161 -0.6908
  171SAPE  H19R19303   5.597   6.938   4.365  1.0247 -0.0055 -0.6541
  171SAPE  H19S19304   5.666   6.807   4.458  0.3520  1.3570 -1.4508
  171SAPE  C22019305   5.455   6.802   4.466 -0.0861 -0.0464  0.5739
  171SAPE  H20R19306   5.444   6.694   4.492 -2.0597 -0.5429 -1.8727
  171SAPE  H20S19307   5.364   6.828   4.408  0.4521 -0.6358 -0.5848
  171SAPE  H20T19308   5.443   6.861   4.559 -1.4148 -0.2583  0.5636
  171SAPE   C3319309   5.765   6.128   2.922  0.0058  1.1140 -0.4481
  171SAPE   H3X19310   5.713   6.194   2.848 -2.2584 -1.5562 -1.4316
  171SAPE   H3Y19311   5.875   6.126   2.910 -0.0706 -0.3468 -1.1565
  171SAPE   C3419312   5.748   6.173   3.070  0.6007  0.0124  0.1012
  171SAPE   H4X19313   5.640   6.198   3.082 -0.2095 -2.2491 -1.7397
  171SAPE   H4Y19314   5.805   6.268   3.079 -1.5733  1.4164 -0.1202
  171SAPE   C3519315   5.812   6.077   3.166  0.2355 -0.0248 -0.5633
  171SAPE   H5X19316   5.907   6.031   3.133 -0.1969 -2.0733  0.8305
  171SAPE   H5Y19317   5.745   5.988   3.173  2.5111 -1.7188  1.1184
  171SAPE   C3619318   5.827   6.130   3.305 -0.7156 -1.1767 -0.1717
  171SAPE   H6X19319   5.876   6.229   3.293  0.1319 -1.7859 -2.1563
  171SAPE   H6Y19320   5.898   6.062   3.356  0.1095  0.2751  0.6769
  171SAPE   C3719321   5.696   6.141   3.388  0.0516 -0.4572  0.1181
  171SAPE   H7X19322   5.666   6.041   3.428 -0.4191 -0.3497  0.0414
  171SAPE   H7Y19323   5.614   6.174   3.319 -0.4716 -1.3457  0.2979
  171SAPE   C3819324   5.683   6.254   3.488 -0.2440  0.3660  0.5552
  171SAPE   H8X19325   5.575   6.276   3.495 -0.3240  0.1789 -0.0565
  171SAPE   H8Y19326   5.754   6.334   3.458 -0.4245  0.0205 -0.8253
  171SAPE   C3919327   5.752   6.210   3.619 -0.9537 -0.0019  0.3870
  171SAPE   H9X19328   5.859   6.187   3.606 -1.2465 -1.0161 -0.3859
  171SAPE   H9Y19329   5.711   6.111   3.648  0.9663 -0.6436  1.0420
  171SAPE  C31019330   5.733   6.308   3.735  0.1689 -0.3621 -0.0489
  171SAPE  H10X19331   5.758   6.413   3.711 -0.0949 -0.1167  0.7361
  171SAPE  H10Y19332   5.792   6.273   3.822  2.1116  1.4825 -0.5410
  171SAPE  C31119333   5.580   6.309   3.770 -0.2586 -0.6253  0.2023
  171SAPE  H11X19334   5.558   6.201   3.756 -0.8462 -0.3024 -1.5324
  171SAPE  H11Y19335   5.529   6.370   3.693 -0.3493  0.0951  0.8269
  171SAPE  C31219336   5.556   6.334   3.919  0.2087  0.2343 -0.1120
  171SAPE  H12X19337   5.639   6.397   3.957  1.2494 -0.6126 -0.9329
  171SAPE  H12Y19338   5.569   6.239   3.974 -1.2456  1.3229  2.2756
  171SAPE  C31319339   5.411   6.391   3.939 -0.4719  0.1317  0.3942
  171SAPE  H13X19340   5.328   6.319   3.922  1.4656 -2.2841  0.6133
  171SAPE  H13Y19341   5.400   6.473   3.864  0.2460  0.2738  0.4397
  171SAPE  C31419342   5.387   6.451   4.077  0.4743  0.0762 -0.0161
  171SAPE  H14X19343   5.466   6.526   4.100  0.4951  0.0181  0.1029
  171SAPE  H14Y19344   5.407   6.367   4.147 -0.3069  0.6257  0.8869
  171SAPE  C31519345   5.254   6.525   4.101 -0.0778  0.9395  0.0064
  171SAPE  H15X19346   5.244   6.605   4.025 -1.5354 -0.7134 -1.6324
  171SAPE  H15Y19347   5.245   6.567   4.204  1.8119  3.1087 -0.6521
  171SAPE  C31619348   5.126   6.434   4.076  0.0813 -0.6529  0.2054
  171SAPE  H16X19349   5.139   6.343   4.139 -0.4543 -1.9747 -1.4862
  171SAPE  H16Y19350   5.130   6.402   3.970  1.4659  0.1362  0.0058
  171SAPE  C31719351   4.999   6.511   4.118 -0.5288  0.9976 -0.2924
  171SAPE  H17X19352   4.980   6.601   4.056 -0.9501  0.6596 -0.6712
  171SAPE  H17Y19353   5.024   6.540   4.222  0.4565  0.6928 -0.4381
  171SAPE  C31819354   4.879   6.418   4.113  0.0597 -0.2552 -0.4451
  171SAPE  H18X19355   4.914   6.318   4.147  2.7006  1.5862  2.9798
  171SAPE  H18Y19356   4.847   6.395   4.010  2.3923 -2.4011 -0.7910
  171SAPE  H18Z19357   4.797   6.451   4.180  0.1666  0.3518 -0.6063
  172SAPE     N19358   5.284   1.235   2.632  0.3847 -0.1245  0.7955
  172SAPE   HN119359   5.323   1.175   2.557  1.0758  1.0849  0.1507
  172SAPE   HN219360   5.251   1.171   2.708 -1.6748 -0.5533 -0.3739
  172SAPE   HN319361   5.192   1.260   2.590 -0.8569 -0.6639  2.9888
  172SAPE   C1219362   5.368   1.343   2.685  0.6135 -0.2932  0.0033
  172SAPE  H12A19363   5.466   1.301   2.716  0.8487 -0.0273 -0.3704
  172SAPE  H12B19364   5.314   1.392   2.769  1.1577 -0.8221  0.6687
  172SAPE   C1119365   5.396   1.455   2.577 -0.4032  0.6126 -0.9669
  172SAPE  H11A19366   5.468   1.426   2.498 -1.3242 -0.9048 -1.2894
  172SAPE  H11B19367   5.426   1.542   2.639 -2.2482  1.4364 -1.1548
  172SAPE     P19368   5.278   1.625   2.429 -0.5387 -0.2597 -0.1498
  172SAPE   O1319369   5.364   1.729   2.496  0.1809 -0.0621 -0.1732
  172SAPE   O1419370   5.314   1.592   2.292  0.4831  0.6292  0.8186
  172SAPE   O1219371   5.280   1.489   2.513  0.1737 -0.3678 -0.0107
  172SAPE   O1119372   5.129   1.669   2.437  0.3963  0.1072 -0.5303
  172SAPE    C119373   5.073   1.668   2.569 -0.8946  0.3202  0.1322
  172SAPE    HA19374   4.991   1.593   2.581 -0.2651 -0.4733 -0.4014
  172SAPE    HB19375   5.148   1.654   2.649  0.2230  2.4269 -0.4793
  172SAPE    C219376   5.025   1.813   2.613 -0.1622  1.3383  0.1154
  172SAPE    HS19377   4.962   1.849   2.529  0.6376  0.8480 -0.7101
  172SAPE   O2119378   5.137   1.900   2.638  0.5019 -0.0456  0.1180
  172SAPE   C2119379   5.144   2.019   2.576  0.7872 -0.0736 -0.6393
  172SAPE   O2219380   5.056   2.062   2.499 -0.3175  0.9002  0.2138
  172SAPE   C2219381   5.267   2.101   2.627 -0.0035 -0.3874  0.5500
  172SAPE   H2R19382   5.320   2.059   2.715 -1.8452  1.3481  2.6113
  172SAPE   H2S19383   5.336   2.127   2.544 -1.0792  2.2863  0.4044
  172SAPE    C319384   4.944   1.807   2.744  0.4202 -0.1446  0.2949
  172SAPE    HX19385   4.859   1.741   2.718  0.7050 -0.1341 -0.7305
  172SAPE    HY19386   4.904   1.909   2.761  1.1257 -0.1308  2.1119
  172SAPE   O3119387   5.026   1.750   2.849 -0.0487 -0.5378  0.2692
  172SAPE   C3119388   5.073   1.840   2.932  0.1207  1.0634  0.1952
  172SAPE   O3219389   5.030   1.953   2.939  0.8349 -0.4325  0.6073
  172SAPE   C3219390   5.155   1.780   3.035 -0.8542 -0.3130  0.4363
  172SAPE   H2X19391   5.257   1.756   2.998 -1.8853 -1.1120 -2.0931
  172SAPE   H2Y19392   5.110   1.683   3.067  1.3980 -1.4632  0.3307
  172SAPE   C2319393   5.221   2.239   2.678 -0.4355  0.4699 -0.0553
  172SAPE   H3R19394   5.161   2.289   2.599  0.6026  2.0360  0.1000
  172SAPE   H3S19395   5.311   2.301   2.694  0.1999 -0.1855 -0.9537
  172SAPE   C2419396   5.132   2.233   2.807  0.5821 -0.5701  0.7603
  172SAPE   H4R19397   5.182   2.169   2.883 -1.5723 -3.5603 -0.1846
  172SAPE   H4S19398   5.040   2.182   2.771  0.8311 -1.1210  0.8985
  172SAPE   C2519399   5.098   2.369   2.865 -0.6378 -0.1460  0.5430
  172SAPE   H5R19400   5.110   2.456   2.798  1.6103 -0.1096  0.9398
  172SAPE   C2619401   5.074   2.391   2.997 -0.6680  0.3012  0.1200
  172SAPE   H6R19402   5.057   2.495   3.028 -0.5512  0.6412 -0.9226
  172SAPE   C2719403   5.081   2.291   3.109 -0.6998 -0.2677  0.3932
  172SAPE   H7R19404   5.026   2.197   3.086  0.8721 -1.2922  0.7447
  172SAPE   H7S19405   5.019   2.330   3.193 -0.8285  0.8631 -0.2047
  172SAPE   C2819406   5.227   2.280   3.156 -0.2816  0.1671 -0.4867
  172SAPE   H8R19407   5.305   2.264   3.080  1.1581  1.2037  0.7369
  172SAPE   C2919408   5.272   2.314   3.283 -0.2879  0.8213  0.2782
  172SAPE   H9R19409   5.377   2.288   3.304 -0.6281  0.7396  2.1171
  172SAPE  C21019410   5.193   2.365   3.401 -0.2656  0.0890 -0.0717
  172SAPE  H10R19411   5.082   2.373   3.390 -0.6024 -1.3842  1.6836
  172SAPE  H10S19412   5.214   2.473   3.410 -0.3194  0.1595 -0.7791
  172SAPE  C21119413   5.216   2.290   3.533 -0.8149  0.3589  0.1044
  172SAPE  H11R19414   5.166   2.193   3.549  2.2226 -1.1406  1.2277
  172SAPE  C21219415   5.297   2.320   3.638  0.1887  0.2052 -0.2429
  172SAPE  H12R19416   5.284   2.263   3.731 -2.5832  0.1917 -0.5398
  172SAPE  C21319417   5.401   2.437   3.643  0.0102  1.4386 -0.0899
  172SAPE  H13R19418   5.437   2.457   3.540 -1.1308  2.5360 -0.3098
  172SAPE  H13S19419   5.489   2.392   3.692  0.2058  2.0871  0.1688
  172SAPE  C21419420   5.355   2.565   3.714  0.8661 -0.0438 -0.1762
  172SAPE  H14R19421   5.313   2.643   3.649  1.8691  0.1698 -0.5890
  172SAPE  C21519422   5.376   2.594   3.842 -0.5265 -0.4016 -0.6562
  172SAPE  H15R19423   5.356   2.694   3.884  0.6535 -0.9857  1.4134
  172SAPE  C21619424   5.432   2.496   3.941 -0.0429  0.2251  0.0175
  172SAPE  H16R19425   5.524   2.451   3.899  0.0889  0.8216 -0.3459
  172SAPE  H16S19426   5.359   2.413   3.954  1.6847 -1.3109  0.2986
  172SAPE  C21719427   5.461   2.563   4.079  0.3056  0.5418 -0.4717
  172SAPE  H17R19428   5.535   2.641   4.049 -0.4204  1.0830 -0.9055
  172SAPE  H17S19429   5.506   2.484   4.143 -1.8037 -0.9674 -0.7818
  172SAPE  C21819430   5.340   2.638   4.147 -0.4531 -0.2821  0.2230
  172SAPE  H18R19431   5.250   2.573   4.133  0.7824 -2.0774  0.2240
  172SAPE  H18S19432   5.325   2.734   4.094  1.1425 -1.6830 -3.1161
  172SAPE  C21919433   5.372   2.683   4.298  0.3760 -0.4168  0.6473
  172SAPE  H19R19434   5.397   2.587   4.349  0.8752 -1.2060 -1.0255
  172SAPE  H19S19435   5.278   2.718   4.346 -0.1999  1.5046 -1.6775
  172SAPE  C22019436   5.487   2.787   4.314  0.8352  0.4920 -0.2972
  172SAPE  H20R19437   5.493   2.788   4.425  0.0994 -1.9951 -0.1541
  172SAPE  H20S19438   5.456   2.886   4.275 -1.1121  0.1243  0.2017
  172SAPE  H20T19439   5.584   2.757   4.268  2.4196  1.5888  2.1206
  172SAPE   C3319440   5.168   1.878   3.154  0.0478  0.0739 -0.4534
  172SAPE   H3X19441   5.063   1.908   3.176  0.2774  0.2015  0.5040
  172SAPE   H3Y19442   5.227   1.963   3.114  2.3689 -0.6533  1.2200
  172SAPE   C3419443   5.232   1.813   3.272 -0.0787  0.2368 -0.8765
  172SAPE   H4X19444   5.329   1.773   3.234 -0.4958 -1.5367 -0.1990
  172SAPE   H4Y19445   5.166   1.728   3.300 -0.1001  0.3533 -0.5747
  172SAPE   C3519446   5.237   1.904   3.390 -0.3987 -0.1623 -0.4096
  172SAPE   H5X19447   5.132   1.927   3.419 -0.2240 -2.4666  2.6024
  172SAPE   H5Y19448   5.295   1.995   3.366 -0.0065  0.5678  2.8840
  172SAPE   C3619449   5.313   1.840   3.511 -0.3590  0.1485  0.5565
  172SAPE   H6X19450   5.410   1.799   3.473 -1.7150 -1.3590 -1.4966
  172SAPE   H6Y19451   5.263   1.751   3.555 -0.9983  1.1002  1.8108
  172SAPE   C3719452   5.332   1.945   3.613  0.6758  0.5493 -0.3526
  172SAPE   H7X19453   5.236   1.999   3.624  0.5896  0.0079  2.0593
  172SAPE   H7Y19454   5.394   2.024   3.567 -0.0929  3.4413  3.1638
  172SAPE   C3819455   5.389   1.899   3.745 -0.1555 -0.0683 -0.5929
  172SAPE   H8X19456   5.313   1.830   3.788  0.3268  0.1817  0.7003
  172SAPE   H8Y19457   5.379   1.986   3.813 -2.1557 -0.3956 -0.3879
  172SAPE   C3919458   5.519   1.815   3.747  0.2404  0.0893 -0.7764
  172SAPE   H9X19459   5.610   1.875   3.725  0.6206  0.3464  1.2604
  172SAPE   H9Y19460   5.511   1.725   3.682  2.4280 -1.9544  1.5742
  172SAPE  C31019461   5.525   1.750   3.887 -0.3850 -0.5462 -0.5711
  172SAPE  H10X19462   5.573   1.650   3.875 -0.5398 -0.7067  0.1328
  172SAPE  H10Y19463   5.432   1.743   3.947 -1.1807  1.6984 -1.4298
  172SAPE  C31119464   5.611   1.846   3.975 -0.3922 -0.1599  0.5162
  172SAPE  H11X19465   5.546   1.934   3.992  0.5761  0.6124  0.2698
  172SAPE  H11Y19466   5.704   1.888   3.933 -0.9288 -1.3422 -2.0682
  172SAPE  C31219467   5.631   1.799   4.119  0.2792 -0.5323  0.4801
  172SAPE  H12X19468   5.690   1.706   4.102  0.3929 -0.0785 -2.1604
  172SAPE  H12Y19469   5.537   1.769   4.169  1.0489 -2.3498  0.9044
  172SAPE  C31319470   5.704   1.905   4.202  0.2243 -0.4492 -0.4982
  172SAPE  H13X19471   5.638   1.993   4.217  1.6856  0.4800  0.8255
  172SAPE  H13Y19472   5.797   1.944   4.156  2.0492 -0.4061  2.8549
  172SAPE  C31419473   5.753   1.858   4.338 -0.2925  0.3500  0.3187
  172SAPE  H14X19474   5.823   1.773   4.330  0.3984  1.0384 -1.3544
  172SAPE  H14Y19475   5.663   1.831   4.398 -1.3669 -2.8695 -2.3875
  172SAPE  C31519476   5.838   1.957   4.411 -0.5129 -0.6990 -0.0733
  172SAPE  H15X19477   5.933   1.977   4.357 -0.1682  0.4170  0.8930
  172SAPE  H15Y19478   5.883   1.922   4.506 -0.8852 -1.1135 -0.0486
  172SAPE  C31619479   5.767   2.093   4.434  0.2263  0.2550 -0.3174
  172SAPE  H16X19480   5.662   2.075   4.465  0.3489  2.8193  1.9337
  172SAPE  H16Y19481   5.768   2.145   4.336 -2.9237 -2.4164 -1.9667
  172SAPE  C31719482   5.833   2.169   4.551  0.1002  0.0974 -0.2848
  172SAPE  H17X19483   5.932   2.193   4.505  0.0226 -1.3246 -1.2577
  172SAPE  H17Y19484   5.850   2.097   4.634 -0.4064  0.6635  0.3198
  172SAPE  C31819485   5.748   2.286   4.602  0.2899  0.3231  0.2762
  172SAPE  H18X19486   5.816   2.353   4.659 -2.0446  1.7564  1.5664
  172SAPE  H18Y19487   5.671   2.260   4.679 -0.4544  0.8008 -0.2964
  172SAPE  H18Z19488   5.706   2.355   4.526  0.1417  1.9038  1.7320
  173SLPC     N19489   2.226   3.020   6.225 -0.3467  0.0754 -0.2632
  173SLPC   C1319490   2.082   3.026   6.270  0.8298 -0.1283  0.1528
  173SLPC  H13A19491   2.018   3.021   6.183 -1.5536  1.2055  1.7250
  173SLPC  H13B19492   2.055   2.939   6.328 -1.4513 -2.0756 -3.4311
  173SLPC  H13C19493   2.066   3.124   6.312  0.2379  0.2480 -0.9122
  173SLPC   C1419494   2.240   3.144   6.139  0.6115  1.0623 -0.3600
  173SLPC  H14A19495   2.178   3.137   6.051  1.2575 -0.5466 -0.7332
  173SLPC  H14B19496   2.219   3.235   6.192  0.0959  1.9954 -2.0888
  173SLPC  H14C19497   2.345   3.151   6.113  0.1806  0.8623 -2.3266
  173SLPC   C1519498   2.231   2.899   6.138  0.4868 -0.0801  0.4445
  173SLPC  H15A19499   2.227   2.812   6.201  0.1885 -1.3138 -1.2296
  173SLPC  H15B19500   2.144   2.891   6.075  1.6173 -0.0838 -1.1710
  173SLPC  H15C19501   2.326   2.906   6.088 -0.6953  0.5809 -1.8291
  173SLPC   C1219502   2.323   3.009   6.340  0.4085 -0.2503  0.3022
  173SLPC  H12A19503   2.311   3.089   6.412  2.1718 -1.0251  1.5273
  173SLPC  H12B19504   2.426   3.007   6.307  0.7515 -0.0321  1.3098
  173SLPC   C1119505   2.304   2.877   6.419  0.5221 -0.6854 -0.1612
  173SLPC  H11A19506   2.209   2.826   6.392  0.1133  1.1493 -2.4746
  173SLPC  H11B19507   2.299   2.897   6.528 -1.4026 -1.5032 -0.0645
  173SLPC     P19508   2.514   2.732   6.468 -0.1623  0.0252 -0.3600
  173SLPC   O1319509   2.514   2.808   6.595 -0.6143 -0.1314 -0.1700
  173SLPC   O1419510   2.478   2.587   6.479  0.5028  0.4341  0.3001
  173SLPC   O1219511   2.406   2.795   6.370  0.0870 -0.1289 -0.3314
  173SLPC   O1119512   2.653   2.735   6.390 -0.3243  0.0712 -0.5992
  173SLPC    C119513   2.666   2.818   6.276  0.5029 -0.5399  1.0991
  173SLPC    HA19514   2.611   2.913   6.295 -0.4858 -1.6637  4.3542
  173SLPC    HB19515   2.773   2.848   6.266  0.7106 -0.7001  2.6520
  173SLPC    C219516   2.616   2.762   6.143  0.3350 -0.2627 -0.7442
  173SLPC    HS19517   2.509   2.733   6.137  0.2351  0.1297 -0.9107
  173SLPC   O2119518   2.696   2.648   6.111  0.1786  0.8724 -0.5819
  173SLPC   C2119519   2.634   2.538   6.058  0.1128  0.5230 -0.0372
  173SLPC   O2219520   2.519   2.535   6.030  0.2144  0.5382 -0.7497
  173SLPC   C2219521   2.742   2.428   6.036  0.3291 -0.8588 -0.9904
  173SLPC   H2R19522   2.824   2.480   5.983 -0.7636  0.5537 -1.3722
  173SLPC   H2S19523   2.785   2.390   6.131 -1.5421  1.5396  0.9671
  173SLPC    C319524   2.630   2.872   6.029 -1.2086  0.0380  0.8431
  173SLPC    HX19525   2.739   2.894   6.029 -0.8411 -1.6695  0.7137
  173SLPC    HY19526   2.575   2.968   6.040  0.2156  0.8003  1.7014
  173SLPC   O3119527   2.622   2.807   5.897  0.4215  0.0888 -0.1863
  173SLPC   C3119528   2.502   2.821   5.837  0.6726  0.8067 -0.2439
  173SLPC   O3219529   2.409   2.881   5.884  0.2399 -0.0824 -0.1874
  173SLPC   C3219530   2.499   2.757   5.696  0.0178  0.0268 -0.2699
  173SLPC   H2X19531   2.597   2.714   5.665  1.2322  3.2074 -1.2182
  173SLPC   H2Y19532   2.477   2.842   5.628  1.6280  0.1409 -0.6999
  173SLPC   C2319533   2.683   2.317   5.941  0.2519 -0.4445 -0.4757
  173SLPC   H3R19534   2.573   2.324   5.930  0.4494  3.2516 -1.2663
  173SLPC   H3S19535   2.719   2.220   5.982  0.5102 -0.8479 -1.6171
  173SLPC   C2419536   2.746   2.319   5.798 -0.0261 -0.0415  0.1871
  173SLPC   H4R19537   2.856   2.306   5.806 -0.1806 -1.2558  0.4332
  173SLPC   H4S19538   2.727   2.415   5.744  0.5631 -0.0447 -0.0388
  173SLPC   C2519539   2.690   2.204   5.708 -0.4833  0.2521 -0.2268
  173SLPC   H5R19540   2.581   2.217   5.696 -0.4007  1.0224 -0.2461
  173SLPC   H5S19541   2.715   2.104   5.749  1.7976  0.1468 -1.6806
  173SLPC   C2619542   2.756   2.208   5.576 -0.7193  0.0130  0.3574
  173SLPC   H6R19543   2.865   2.217   5.591 -1.0035  0.8925  2.3013
  173SLPC   H6S19544   2.715   2.294   5.519  0.7047 -0.6438 -1.7578
  173SLPC   C2719545   2.740   2.077   5.495  0.0953 -0.2255  1.2056
  173SLPC   H7R19546   2.638   2.075   5.453  0.5998  0.3857 -0.0939
  173SLPC   H7S19547   2.750   1.995   5.570 -3.0972 -2.3626 -0.4808
  173SLPC   C2819548   2.835   2.068   5.375 -0.4846  0.5014  0.0835
  173SLPC   H8R19549   2.820   1.975   5.317  1.2411 -0.5685  1.2689
  173SLPC   H8S19550   2.937   2.053   5.416 -1.3200 -3.6715  1.1272
  173SLPC   C2919551   2.819   2.191   5.283 -0.1455 -0.2327  0.1284
  173SLPC   H9R19552   2.838   2.284   5.340 -1.5347 -0.3438  0.7932
  173SLPC  C21019553   2.792   2.194   5.149  1.0889 -0.0478  0.0557
  173SLPC  H10R19554   2.798   2.291   5.097  0.1337  0.1567  0.3171
  173SLPC  C21119555   2.752   2.074   5.062 -0.3081  0.0602 -0.1682
  173SLPC  H11R19556   2.736   1.982   5.121 -1.3511  0.8582  0.8393
  173SLPC  H11S19557   2.825   2.044   4.983 -0.3071 -1.0161  0.2289
  173SLPC  C21219558   2.619   2.117   5.008 -0.2975  0.7218 -0.1525
  173SLPC  H12R19559   2.544   2.120   5.088  0.6776 -1.4930  0.9224
  173SLPC  C21319560   2.593   2.141   4.884 -0.3813 -0.2143  0.0361
  173SLPC  H13R19561   2.489   2.165   4.857  0.8087  2.5125 -2.7485
  173SLPC  C21419562   2.687   2.138   4.765 -0.2833  0.1939  0.2525
  173SLPC  H14R19563   2.776   2.075   4.785 -0.8189 -0.8866 -0.6490
  173SLPC  H14S19564   2.723   2.240   4.740  0.0166 -0.0958 -0.5440
  173SLPC  C21519565   2.611   2.087   4.643 -0.3155 -0.0272  0.0222
  173SLPC  H15R19566   2.523   2.153   4.626  0.6206  1.1407 -0.4118
  173SLPC  H15S19567   2.578   1.981   4.650 -0.3667  0.0208  0.5437
  173SLPC  C21619568   2.705   2.098   4.515 -0.4861  0.7130 -0.1460
  173SLPC  H16R19569   2.803   2.059   4.552 -0.8079  1.0377  1.1150
  173SLPC  H16S19570   2.723   2.207   4.501 -0.1572  0.5421 -1.0644
  173SLPC  C21719571   2.649   2.042   4.381 -0.1041 -0.4863 -0.0884
  173SLPC  H17R19572   2.562   2.103   4.349 -1.0068 -0.5054  2.1347
  173SLPC  H17S19573   2.616   1.936   4.395 -0.4816 -0.7267 -2.4180
  173SLPC  C21819574   2.747   2.033   4.268 -0.2979  0.1423  0.1011
  173SLPC  H18R19575   2.777   2.137   4.242 -0.1312  0.1595  0.3568
  173SLPC  H18S19576   2.698   1.984   4.182 -1.2918  0.7539  0.3006
  173SLPC  H18T19577   2.844   1.990   4.302 -0.1124  0.0161 -0.5726
  173SLPC   C3319578   2.368   2.667   5.684  0.0777 -0.2686 -0.3332
  173SLPC   H3X19579   2.279   2.732   5.695 -0.5073 -1.0835 -0.1586
  173SLPC   H3Y19580   2.366   2.591   5.765  3.3970  0.2453  0.3831
  173SLPC   C3419581   2.340   2.612   5.542 -0.4850 -0.1690 -0.4515
  173SLPC   H4X19582   2.337   2.697   5.471 -0.7159 -0.1132 -0.3752
  173SLPC   H4Y19583   2.238   2.568   5.544 -0.4918 -0.1494 -0.3774
  173SLPC   C3519584   2.445   2.510   5.501 -0.0616  0.6548 -0.6915
  173SLPC   H5X19585   2.411   2.424   5.562 -1.1926  1.6811  0.1780
  173SLPC   H5Y19586   2.551   2.526   5.530  0.2717 -0.8366 -1.0106
  173SLPC   C3619587   2.451   2.466   5.359  0.2966 -0.3637 -0.4970
  173SLPC   H6X19588   2.349   2.471   5.315 -0.2421 -1.0551  0.6180
  173SLPC   H6Y19589   2.487   2.362   5.343 -5.0866 -2.5394 -0.5835
  173SLPC   C3719590   2.529   2.564   5.268 -0.2614 -0.4597  0.6798
  173SLPC   H7X19591   2.638   2.565   5.290 -0.0789  0.7024 -0.1482
  173SLPC   H7Y19592   2.487   2.667   5.278  1.7707  0.3567  1.3272
  173SLPC   C3819593   2.512   2.535   5.121 -0.4510 -0.7883 -0.3214
  173SLPC   H8X19594   2.415   2.483   5.106 -1.6076  0.7024  1.5375
  173SLPC   H8Y19595   2.593   2.469   5.084  0.4060  1.1384 -2.1153
  173SLPC   C3919596   2.513   2.654   5.028  0.4632  0.7110  0.2897
  173SLPC   H9X19597   2.605   2.716   5.035  0.9111 -0.0763  2.1036
  173SLPC   H9Y19598   2.423   2.716   5.043 -0.5746 -1.1830  2.7333
  173SLPC  C31019599   2.487   2.619   4.876 -0.3115 -0.8322 -0.1531
  173SLPC  H10X19600   2.479   2.711   4.815  0.6696 -0.1679  0.6905
  173SLPC  H10Y19601   2.386   2.573   4.873 -1.0434  0.7665 -1.3293
  173SLPC  C31119602   2.578   2.512   4.816 -0.3701  0.3144 -0.1078
  173SLPC  H11X19603   2.554   2.410   4.854 -1.6844  0.5296 -0.3053
  173SLPC  H11Y19604   2.683   2.542   4.834  0.4211 -0.6650 -2.6962
  173SLPC  C31219605   2.565   2.504   4.661 -0.3475 -0.0145 -0.0909
  173SLPC  H12X19606   2.630   2.423   4.623  0.1077  1.0747 -1.7560
  173SLPC  H12Y19607   2.577   2.605   4.617 -0.8413 -0.3819 -1.0900
  173SLPC  C31319608   2.424   2.469   4.608 -0.2820 -0.1109  0.2674
  173SLPC  H13X19609   2.346   2.546   4.629  0.1831  1.0215 -1.9177
  173SLPC  H13Y19610   2.388   2.376   4.656  0.6906 -0.4701  0.3192
  173SLPC  C31419611   2.418   2.453   4.456  0.2322 -0.4565 -0.3922
  173SLPC  H14X19612   2.502   2.398   4.408  0.4041 -0.6110  0.0812
  173SLPC  H14Y19613   2.425   2.556   4.414  1.9099 -0.2805  0.2180
  173SLPC  C31519614   2.274   2.411   4.407 -0.2496  1.0321 -0.8968
  173SLPC  H15X19615   2.262   2.433   4.299 -1.9786  0.0470 -0.9308
  173SLPC  H15Y19616   2.194   2.464   4.462  0.4339  0.4026  0.7817
  173SLPC  C31619617   2.237   2.262   4.416  0.4669 -0.1350 -0.2666
  173SLPC  H16X19618   2.274   2.219   4.511  0.3547  0.1585 -0.0874
  173SLPC  H16Y19619   2.287   2.212   4.330  1.0815 -0.7177  0.4253
  173SLPC  C31719620   2.088   2.224   4.409  0.8504  0.1252 -0.3886
  173SLPC  H17X19621   2.042   2.258   4.505  2.3310  0.5757  0.1833
  173SLPC  H17Y19622   2.067   2.116   4.395  0.9420  0.1722 -0.8933
  173SLPC  C31819623   2.021   2.292   4.294 -0.0521  0.1352  0.2352
  173SLPC  H18X19624   2.066   2.251   4.201 -2.8222 -3.2618  0.2037
  173SLPC  H18Y19625   2.005   2.401   4.285 -0.6276 -0.0811 -1.9701
  173SLPC  H18Z19626   1.917   2.253   4.293 -0.4780  1.2465 -1.3761
  174SLPC     N19627   5.353   3.470   6.928  0.0861 -0.1068  0.2826
  174SLPC   C1319628   5.463   3.492   7.031 -0.3554  0.5357 -0.0615
  174SLPC  H13A19629   5.517   3.401   7.052 -0.1902  0.8525  0.9426
  174SLPC  H13B19630   5.528   3.572   6.999 -2.4453  2.5937  0.5551
  174SLPC  H13C19631   5.413   3.536   7.116 -2.4101  0.0510 -0.9651
  174SLPC   C1419632   5.262   3.591   6.911  0.0827 -0.0274  0.1418
  174SLPC  H14A19633   5.303   3.679   6.864 -2.5062  1.4979  0.5862
  174SLPC  H14B19634   5.184   3.566   6.840 -1.3526  0.2540  1.5755
  174SLPC  H14C19635   5.219   3.610   7.008 -0.6146 -0.1411 -0.1353
  174SLPC   C1519636   5.270   3.355   6.981 -0.1209  0.2423  0.3526
  174SLPC  H15A19637   5.216   3.366   7.074 -0.9292  0.1794 -0.1001
  174SLPC  H15B19638   5.195   3.334   6.906 -1.4664 -1.3507  2.0571
  174SLPC  H15C19639   5.324   3.263   6.997 -1.3403 -0.7275 -0.8539
  174SLPC   C1219640   5.406   3.421   6.796 -0.1567 -0.4511 -0.1489
  174SLPC  H12A19641   5.351   3.468   6.715 -0.7590 -1.0562 -0.0974
  174SLPC  H12B19642   5.391   3.315   6.789  0.4471 -0.8283  3.0008
  174SLPC   C1119643   5.551   3.464   6.765  0.2461 -0.5180 -0.3151
  174SLPC  H11A19644   5.582   3.436   6.663 -1.4313  1.1285 -1.3488
  174SLPC  H11B19645   5.616   3.411   6.838 -0.9490 -2.3002 -0.5025
  174SLPC     P19646   5.700   3.682   6.748 -0.0791  0.0728 -0.2538
  174SLPC   O1319647   5.665   3.802   6.669 -0.0069  0.2416  0.4504
  174SLPC   O1419648   5.776   3.708   6.873 -0.1122  0.2467 -0.1305
  174SLPC   O1219649   5.567   3.603   6.785 -0.1935  0.0153 -0.1094
  174SLPC   O1119650   5.783   3.577   6.661 -0.5045  0.6503 -0.2454
  174SLPC    C119651   5.882   3.622   6.568 -0.6225 -0.7462 -0.1310
  174SLPC    HA19652   5.946   3.706   6.604 -1.2038  0.7586 -2.4110
  174SLPC    HB19653   5.957   3.544   6.541  0.9057  1.6020 -3.2805
  174SLPC    C219654   5.826   3.662   6.429 -0.1423 -0.7030  0.3670
  174SLPC    HS19655   5.813   3.772   6.437 -0.2320 -0.4135 -2.5166
  174SLPC   O2119656   5.699   3.602   6.401  0.1581  0.1624  0.2491
  174SLPC   C2119657   5.695   3.469   6.387  0.1252  0.6217  0.5303
  174SLPC   O2219658   5.798   3.396   6.388  0.2144 -0.6616 -0.5857
  174SLPC   C2219659   5.548   3.426   6.375  0.2920 -0.3030 -0.4606
  174SLPC   H2R19660   5.513   3.399   6.477  0.5384  0.1122 -0.2692
  174SLPC   H2S19661   5.483   3.509   6.341 -0.0861 -0.3258  0.2066
  174SLPC    C319662   5.925   3.630   6.306  0.4993 -0.9245 -0.5338
  174SLPC    HX19663   5.964   3.526   6.315  0.6993 -0.7520  0.8343
  174SLPC    HY19664   6.010   3.701   6.312  0.8225 -1.1990 -1.6348
  174SLPC   O3119665   5.862   3.655   6.181  0.3691  0.0681  0.2541
  174SLPC   C3119666   5.938   3.629   6.074  0.0007 -0.3403  0.6578
  174SLPC   O3219667   6.054   3.584   6.077 -0.0427  0.4214 -0.2284
  174SLPC   C3219668   5.873   3.662   5.936 -0.2155 -0.4296 -0.8986
  174SLPC   H2X19669   5.839   3.767   5.947 -0.1446 -0.5341  0.6143
  174SLPC   H2Y19670   5.777   3.610   5.917 -1.5383  2.5544 -3.2629
  174SLPC   C2319671   5.542   3.324   6.264 -0.1360  0.4315 -0.4028
  174SLPC   H3R19672   5.444   3.274   6.282 -0.3086  1.3548  1.4385
  174SLPC   H3S19673   5.619   3.244   6.271 -0.0171  0.4683 -1.2749
  174SLPC   C2419674   5.561   3.386   6.124 -0.1475  0.0818  0.0266
  174SLPC   H4R19675   5.668   3.414   6.110 -0.4905  0.2806 -2.8177
  174SLPC   H4S19676   5.509   3.483   6.109 -1.2953 -0.7146 -1.3849
  174SLPC   C2519677   5.539   3.278   6.015 -0.6172 -0.1447 -0.2080
  174SLPC   H5R19678   5.440   3.227   6.013 -0.6862  0.0209 -2.1544
  174SLPC   H5S19679   5.618   3.202   6.036 -0.1207  0.7203  1.2516
  174SLPC   C2619680   5.550   3.352   5.881 -0.0513  0.1464 -0.1318
  174SLPC   H6R19681   5.640   3.414   5.865 -0.9462  1.6536  0.4484
  174SLPC   H6S19682   5.470   3.429   5.890  0.1495  0.2158  1.3893
  174SLPC   C2719683   5.521   3.251   5.759 -0.5213 -0.2546  0.0850
  174SLPC   H7R19684   5.446   3.174   5.786  0.2016 -1.5226 -1.3949
  174SLPC   H7S19685   5.618   3.202   5.738  1.0924  2.5095  0.5976
  174SLPC   C2819686   5.479   3.323   5.628  1.0800  0.0095  0.4263
  174SLPC   H8R19687   5.387   3.383   5.647  1.1021  1.5212 -3.4648
  174SLPC   H8S19688   5.447   3.244   5.556  2.3724  0.0907 -0.2458
  174SLPC   C2919689   5.587   3.404   5.570 -0.0681 -0.1791 -0.1124
  174SLPC   H9R19690   5.680   3.350   5.547  1.0154  2.1445 -1.5433
  174SLPC  C21019691   5.593   3.536   5.564 -0.3271 -0.4557  0.1823
  174SLPC  H10R19692   5.684   3.582   5.523 -0.0167 -0.3930  0.9131
  174SLPC  C21119693   5.476   3.633   5.597 -0.0008  0.1771 -0.1822
  174SLPC  H11R19694   5.375   3.587   5.592 -0.2989  0.6913  0.7040
  174SLPC  H11S19695   5.472   3.710   5.518 -2.7357  0.6331  0.3255
  174SLPC  C21219696   5.482   3.692   5.739  0.5469  0.6751 -0.2319
  174SLPC  H12R19697   5.439   3.621   5.810  1.2764 -1.6596 -2.0164
  174SLPC  C21319698   5.523   3.814   5.777 -0.1555 -1.2888  0.5764
  174SLPC  H13R19699   5.523   3.831   5.885  2.1592 -2.2153  0.7740
  174SLPC  C21419700   5.560   3.936   5.684 -0.3676  0.8296  0.1906
  174SLPC  H14R19701   5.607   3.883   5.599  0.9048 -0.8945  1.8932
  174SLPC  H14S19702   5.628   3.998   5.746 -0.7892  0.7385  0.7589
  174SLPC  C21519703   5.431   4.003   5.630  0.3496 -0.0890 -0.3272
  174SLPC  H15R19704   5.354   4.024   5.708  0.1828 -0.2730 -0.4424
  174SLPC  H15S19705   5.377   3.932   5.564  0.5885 -0.3389 -0.2601
  174SLPC  C21619706   5.474   4.129   5.548  0.6306  0.3611 -0.6819
  174SLPC  H16R19707   5.535   4.193   5.615  0.4168 -0.0588 -0.0805
  174SLPC  H16S19708   5.382   4.186   5.523  1.7499  2.5003 -0.1496
  174SLPC  C21719709   5.535   4.092   5.415  0.4088 -0.5990  0.1742
  174SLPC  H17R19710   5.624   4.027   5.426 -0.7453 -2.6151 -1.7319
  174SLPC  H17S19711   5.561   4.195   5.383 -4.3860  0.8182  0.0142
  174SLPC  C21819712   5.439   4.033   5.313  0.5594  1.2386 -0.4759
  174SLPC  H18R19713   5.399   3.936   5.348  0.6258  0.8760 -1.3753
  174SLPC  H18S19714   5.486   4.007   5.216  2.3410 -0.3482  0.7523
  174SLPC  H18T19715   5.348   4.096   5.303 -0.1143  0.3621 -0.0085
  174SLPC   C3319716   5.958   3.640   5.805  0.0766  0.4473 -0.9039
  174SLPC   H3X19717   5.986   3.532   5.796  0.6330  0.3447  1.4938
  174SLPC   H3Y19718   6.059   3.682   5.822  0.8110 -1.5970  0.0856
  174SLPC   C3419719   5.900   3.697   5.675  0.2333 -0.3759  0.5598
  174SLPC   H4X19720   5.906   3.807   5.686  0.3640 -0.1561 -1.4044
  174SLPC   H4Y19721   5.791   3.673   5.669  0.2616 -0.7155  1.2590
  174SLPC   C3519722   5.977   3.664   5.545  0.4314  0.0063  0.2542
  174SLPC   H5X19723   5.975   3.556   5.515  2.7282 -0.1159  0.3660
  174SLPC   H5Y19724   6.087   3.682   5.553  0.2946  1.1784 -0.3476
  174SLPC   C3619725   5.911   3.735   5.423  0.1108  0.3192  0.2912
  174SLPC   H6X19726   5.929   3.842   5.449  1.5094  0.0208  0.6573
  174SLPC   H6Y19727   5.802   3.714   5.418 -0.6443  3.0440  2.6651
  174SLPC   C3719728   5.989   3.705   5.294 -0.9624 -0.4546  0.2962
  174SLPC   H7X19729   6.095   3.722   5.323 -0.4817 -3.2193  0.4073
  174SLPC   H7Y19730   5.963   3.782   5.219 -0.9209 -0.7586 -0.0286
  174SLPC   C3819731   5.979   3.569   5.235  0.5626  0.2246  0.1049
  174SLPC   H8X19732   5.874   3.541   5.256  0.1442  0.9754 -0.9135
  174SLPC   H8Y19733   6.028   3.488   5.294 -1.7753 -0.9918  0.4747
  174SLPC   C3919734   6.021   3.560   5.091 -0.2699 -0.3570  0.3217
  174SLPC   H9X19735   6.131   3.571   5.081 -0.3265 -0.7739 -0.9427
  174SLPC   H9Y19736   5.978   3.648   5.039  0.7876 -0.0867 -0.1387
  174SLPC  C31019737   5.964   3.434   5.028  0.5783  0.2425  0.7310
  174SLPC  H10X19738   5.992   3.439   4.921  1.5036  1.7388  1.0048
  174SLPC  H10Y19739   5.854   3.441   5.040  0.7619  0.9838  2.3267
  174SLPC  C31119740   6.008   3.309   5.097 -0.1700  0.2458  0.1837
  174SLPC  H11X19741   5.980   3.302   5.204  3.0084 -0.7256  1.0742
  174SLPC  H11Y19742   6.118   3.294   5.097 -0.4248 -2.0015 -0.4612
  174SLPC  C31219743   5.945   3.183   5.025  0.2434  0.4660  0.7148
  174SLPC  H12X19744   5.839   3.208   5.002  1.3601  4.8647 -0.6705
  174SLPC  H12Y19745   5.953   3.093   5.089  0.5022 -0.7639 -0.9719
  174SLPC  C31319746   6.037   3.147   4.900  0.5613 -0.1665  0.2129
  174SLPC  H13X19747   6.140   3.177   4.929  0.2333  2.4654 -1.0647
  174SLPC  H13Y19748   6.006   3.211   4.815  0.1555 -0.1780  0.3512
  174SLPC  C31419749   6.039   2.999   4.854 -0.1282 -0.0541  0.4776
  174SLPC  H14X19750   5.940   2.970   4.811  0.5050 -1.5454 -0.0388
  174SLPC  H14Y19751   6.054   2.941   4.947  1.5845  0.4881  0.5686
  174SLPC  C31519752   6.147   2.971   4.753 -0.2362  0.0722  0.0308
  174SLPC  H15X19753   6.240   2.966   4.814 -0.6328  2.6364  0.9566
  174SLPC  H15Y19754   6.159   3.050   4.677 -1.6032  0.6075  0.3477
  174SLPC  C31619755   6.130   2.831   4.685 -0.2990 -0.2572  0.1442
  174SLPC  H16X19756   6.036   2.838   4.626 -0.6517  1.3994  0.8389
  174SLPC  H16Y19757   6.113   2.747   4.756 -0.6508 -1.4453 -1.2930
  174SLPC  C31719758   6.254   2.793   4.602 -0.0604  0.1763 -0.1463
  174SLPC  H17X19759   6.237   2.710   4.531  1.4520 -1.0052  0.8123
  174SLPC  H17Y19760   6.333   2.769   4.676  0.8555  2.7600 -0.1699
  174SLPC  C31819761   6.327   2.901   4.518  0.8941  0.0886  0.4382
  174SLPC  H18X19762   6.392   2.965   4.582  0.6212  0.4507  0.3542
  174SLPC  H18Y19763   6.254   2.966   4.464  2.4645  1.2986 -0.3241
  174SLPC  H18Z19764   6.381   2.855   4.433 -3.5673  1.2856 -3.4262
  175SLPC     N19765   1.408   5.607   6.744  0.3547  0.6776 -0.3214
  175SLPC   C1319766   1.453   5.744   6.770  0.4878  0.2995  0.5378
  175SLPC  H13A19767   1.464   5.799   6.678  1.9307  0.1383  0.5881
  175SLPC  H13B19768   1.388   5.792   6.841  1.8508 -0.8331  2.6600
  175SLPC  H13C19769   1.556   5.756   6.801  1.8018  2.5641 -3.9018
  175SLPC   C1419770   1.270   5.614   6.684  0.1170  0.4462 -0.3767
  175SLPC  H14A19771   1.231   5.514   6.675 -0.5248  0.4618  1.6400
  175SLPC  H14B19772   1.207   5.664   6.757 -0.6725 -2.4504  1.0661
  175SLPC  H14C19773   1.283   5.670   6.593  0.2357 -1.5976 -1.6798
  175SLPC   C1519774   1.399   5.520   6.870 -0.5139  0.3940 -0.5728
  175SLPC  H15A19775   1.314   5.550   6.930 -0.6085  0.7629 -0.8878
  175SLPC  H15B19776   1.369   5.422   6.836 -1.0054  0.8407 -1.4520
  175SLPC  H15C19777   1.493   5.523   6.923 -0.5606 -0.8338 -0.3996
  175SLPC   C1219778   1.501   5.528   6.652  0.2722 -0.1183  0.5381
  175SLPC  H12A19779   1.465   5.427   6.639 -0.7810  0.4031 -0.8595
  175SLPC  H12B19780   1.597   5.525   6.701  0.6508  1.6899 -0.0076
  175SLPC   C1119781   1.517   5.582   6.507 -0.5782 -0.3867 -0.5384
  175SLPC  H11A19782   1.412   5.604   6.478 -0.8492  1.4584  1.5446
  175SLPC  H11B19783   1.557   5.500   6.443 -0.7087 -1.6884  1.0009
  175SLPC     P19784   1.752   5.684   6.506 -0.2540  0.1767  0.2883
  175SLPC   O1319785   1.812   5.803   6.571 -0.8429 -0.1643  0.1885
  175SLPC   O1419786   1.780   5.551   6.565 -0.4007 -0.6098  0.3163
  175SLPC   O1219787   1.593   5.700   6.513 -0.0175 -0.1952  0.5146
  175SLPC   O1119788   1.780   5.673   6.352  0.1177  0.1084 -0.3903
  175SLPC    C119789   1.688   5.660   6.243 -0.2693 -0.1670  0.3685
  175SLPC    HA19790   1.599   5.599   6.272 -0.4890  0.6545  1.4878
  175SLPC    HB19791   1.650   5.758   6.208  0.8681 -0.1216 -0.7883
  175SLPC    C219792   1.755   5.596   6.118  0.0303 -0.1251 -0.3963
  175SLPC    HS19793   1.837   5.661   6.082  1.2227 -0.6029  1.3478
  175SLPC   O2119794   1.656   5.568   6.012 -0.9537  0.0618 -0.1037
  175SLPC   C2119795   1.619   5.676   5.949 -0.1352 -0.9046 -0.6543
  175SLPC   O2219796   1.649   5.792   5.974  0.6406 -0.5566  0.2306
  175SLPC   C2219797   1.528   5.645   5.839 -0.5347  0.0737  0.1066
  175SLPC   H2R19798   1.575   5.578   5.763  0.5884  2.7180 -1.6804
  175SLPC   H2S19799   1.432   5.598   5.868 -0.2472 -1.2254 -0.9079
  175SLPC    C319800   1.824   5.462   6.145  0.2109 -0.6195 -0.2459
  175SLPC    HX19801   1.743   5.421   6.209 -0.0060 -0.7912 -0.6287
  175SLPC    HY19802   1.905   5.471   6.220 -1.3401  3.1970  1.2184
  175SLPC   O3119803   1.853   5.374   6.036  0.0272 -0.6142  0.0221
  175SLPC   C3119804   1.799   5.258   6.027  0.3217  0.6196 -0.3674
  175SLPC   O3219805   1.722   5.211   6.109 -0.0800  0.0305 -0.3143
  175SLPC   C3219806   1.859   5.178   5.907  0.4617  0.6334  0.1072
  175SLPC   H2X19807   1.859   5.068   5.927  1.1894  0.6279  0.0857
  175SLPC   H2Y19808   1.965   5.208   5.895  1.0397 -0.4237  2.0294
  175SLPC   C2319809   1.501   5.763   5.749 -0.6697 -0.4868 -0.2317
  175SLPC   H3R19810   1.585   5.800   5.686  0.1811  0.3932  1.3742
  175SLPC   H3S19811   1.456   5.846   5.808  0.8318 -0.0547  0.3582
  175SLPC   C2419812   1.385   5.744   5.641  0.0905  0.1517 -0.6915
  175SLPC   H4R19813   1.328   5.654   5.674  1.1463 -0.4423 -0.3984
  175SLPC   H4S19814   1.432   5.719   5.544  0.1967  1.2706 -0.9375
  175SLPC   C2519815   1.304   5.876   5.618  0.5365  0.2099  0.0549
  175SLPC   H5R19816   1.256   5.913   5.711  0.0490 -3.6087  1.4984
  175SLPC   H5S19817   1.221   5.854   5.548  0.6438 -0.9272  0.2495
  175SLPC   C2619818   1.409   5.970   5.549 -0.0790 -0.5104  0.5374
  175SLPC   H6R19819   1.467   5.912   5.475 -0.6263  0.0322 -0.3312
  175SLPC   H6S19820   1.488   5.992   5.624  1.2230 -4.4057  0.5253
  175SLPC   C2719821   1.336   6.090   5.486  0.1850  0.6955  0.6022
  175SLPC   H7R19822   1.400   6.179   5.468  0.6452  0.3840  0.6886
  175SLPC   H7S19823   1.249   6.124   5.547 -1.9325 -1.1860 -1.1751
  175SLPC   C2819824   1.298   6.050   5.336 -0.7511  0.4438 -0.0534
  175SLPC   H8R19825   1.248   5.952   5.323  1.8065 -0.8070 -1.0941
  175SLPC   H8S19826   1.393   6.029   5.282 -0.4482 -0.9303  0.9553
  175SLPC   C2919827   1.232   6.164   5.258  0.2739  0.5980 -0.5209
  175SLPC   H9R19828   1.122   6.162   5.269  0.2731  0.9227 -0.4609
  175SLPC  C21019829   1.291   6.255   5.181  0.1988  0.3728  0.0849
  175SLPC  H10R19830   1.224   6.332   5.141  0.0578  1.2411  1.9309
  175SLPC  C21119831   1.429   6.284   5.130  0.2288 -0.3306  0.5153
  175SLPC  H11R19832   1.502   6.248   5.207 -0.6245 -2.5547  0.3466
  175SLPC  H11S19833   1.424   6.395   5.128 -0.2098 -0.3570  0.1749
  175SLPC  C21219834   1.463   6.219   4.997 -0.5391 -1.1087  0.0631
  175SLPC  H12R19835   1.503   6.117   5.009  0.2087 -0.4865  3.7518
  175SLPC  C21319836   1.448   6.272   4.871  0.3096  0.4525 -0.6286
  175SLPC  H13R19837   1.468   6.203   4.787 -2.4712 -1.8727  0.4798
  175SLPC  C21419838   1.411   6.411   4.836  0.5946 -0.5182  0.6394
  175SLPC  H14R19839   1.388   6.473   4.926  1.5786  1.3087 -0.3256
  175SLPC  H14S19840   1.323   6.416   4.768 -1.3445  3.1342  3.0595
  175SLPC  C21519841   1.517   6.493   4.766 -0.8919 -0.3526 -0.1119
  175SLPC  H15R19842   1.570   6.437   4.686  1.2894  0.7914  0.4696
  175SLPC  H15S19843   1.591   6.527   4.841 -0.9036  0.3013 -0.3882
  175SLPC  C21619844   1.464   6.623   4.712 -0.2574 -0.1251  0.1251
  175SLPC  H16R19845   1.401   6.673   4.789  1.3422  1.1856  0.6355
  175SLPC  H16S19846   1.396   6.589   4.631 -2.7783  1.2739  1.5120
  175SLPC  C21719847   1.570   6.715   4.658 -0.4634  0.5181 -0.4366
  175SLPC  H17R19848   1.637   6.660   4.589 -0.7411 -0.4650  0.0665
  175SLPC  H17S19849   1.637   6.742   4.743  0.2572 -0.0544 -0.8087
  175SLPC  C21819850   1.511   6.835   4.581  0.3967 -0.1164 -0.1041
  175SLPC  H18R19851   1.589   6.909   4.555 -0.2026  0.2773 -0.8661
  175SLPC  H18S19852   1.439   6.883   4.651 -0.7570  0.6540 -1.7287
  175SLPC  H18T19853   1.460   6.802   4.487  0.5320  0.7099 -0.4734
  175SLPC   C3319854   1.777   5.192   5.776  0.1044 -0.4225 -0.3014
  175SLPC   H3X19855   1.683   5.135   5.791 -0.7506  1.1317  0.4750
  175SLPC   H3Y19856   1.839   5.158   5.690 -0.6990 -1.0514 -0.6375
  175SLPC   C3419857   1.749   5.336   5.737 -0.4764 -0.6581  0.1002
  175SLPC   H4X19858   1.844   5.386   5.763  1.0902 -3.1988 -0.3845
  175SLPC   H4Y19859   1.667   5.371   5.803 -0.1464 -0.2385  0.2859
  175SLPC   C3519860   1.717   5.362   5.589  0.1564 -0.1189 -0.6782
  175SLPC   H5X19861   1.800   5.321   5.528  1.1341  3.7045 -2.1859
  175SLPC   H5Y19862   1.721   5.470   5.564 -0.6742 -0.0121 -0.3773
  175SLPC   C3619863   1.585   5.303   5.556 -0.5849  0.5105  0.4589
  175SLPC   H6X19864   1.509   5.352   5.621 -1.0509 -1.1965  1.2625
  175SLPC   H6Y19865   1.580   5.193   5.563  0.5909  0.3275 -1.0834
  175SLPC   C3719866   1.522   5.351   5.427 -0.1164 -0.3495 -0.1631
  175SLPC   H7X19867   1.445   5.274   5.403  2.6352 -2.8544 -1.5682
  175SLPC   H7Y19868   1.604   5.333   5.354  1.0148 -0.2669  1.0614
  175SLPC   C3819869   1.465   5.492   5.414  0.5781  0.2492 -0.2366
  175SLPC   H8X19870   1.550   5.554   5.450  0.2215  0.1473  0.8033
  175SLPC   H8Y19871   1.381   5.496   5.486 -0.4144 -1.7945 -1.1851
  175SLPC   C3919872   1.424   5.530   5.271 -0.3356 -0.7055 -0.0713
  175SLPC   H9X19873   1.342   5.460   5.246 -3.4366  2.8785 -0.8901
  175SLPC   H9Y19874   1.506   5.519   5.197  1.4119 -1.9636  1.9274
  175SLPC  C31019875   1.382   5.677   5.264 -0.2028 -0.2893 -0.6186
  175SLPC  H10X19876   1.474   5.734   5.288  0.2555  0.1271 -3.1287
  175SLPC  H10Y19877   1.307   5.713   5.338 -1.0135  0.3851 -1.7379
  175SLPC  C31119878   1.358   5.731   5.125 -0.3584 -0.0407  0.3584
  175SLPC  H11X19879   1.455   5.703   5.080  0.5432 -0.7823  2.6049
  175SLPC  H11Y19880   1.357   5.842   5.127  2.0079  0.0083  1.7202
  175SLPC  C31219881   1.234   5.678   5.055 -0.6262  0.5879 -0.0782
  175SLPC  H12X19882   1.148   5.700   5.122 -0.7686 -1.3197  0.4184
  175SLPC  H12Y19883   1.233   5.567   5.060  0.5317  0.6233  1.9779
  175SLPC  C31319884   1.221   5.726   4.909  0.1555 -0.4527 -0.3421
  175SLPC  H13X19885   1.300   5.686   4.842 -2.4033 -0.0345 -3.9363
  175SLPC  H13Y19886   1.232   5.837   4.903  2.2823 -0.6351 -0.2837
  175SLPC  C31419887   1.091   5.677   4.846 -0.0263 -0.4235 -0.4102
  175SLPC  H14X19888   1.009   5.734   4.896  0.1508  1.2903 -1.9671
  175SLPC  H14Y19889   1.059   5.573   4.865 -0.5316 -0.3336 -0.7501
  175SLPC  C31519890   1.069   5.718   4.697 -0.1867 -0.1500 -0.1783
  175SLPC  H15X19891   1.130   5.648   4.635 -2.4664 -0.1646 -2.5661
  175SLPC  H15Y19892   1.106   5.822   4.686  1.3885 -0.8541 -2.0328
  175SLPC  C31619893   0.923   5.711   4.650  0.1869  0.0190  0.5452
  175SLPC  H16X19894   0.852   5.777   4.705  1.2248  0.1119  1.8227
  175SLPC  H16Y19895   0.877   5.610   4.656 -2.6074  1.2210  0.8123
  175SLPC  C31719896   0.920   5.741   4.498  0.0161  0.7322 -0.0559
  175SLPC  H17X19897   0.940   5.849   4.486  0.9227  0.3302 -2.7838
  175SLPC  H17Y19898   0.818   5.707   4.469  0.2808 -2.4389  2.1891
  175SLPC  C31819899   1.010   5.657   4.407 -0.1057  0.5905  0.1371
  175SLPC  H18X19900   1.115   5.691   4.397  0.8621 -2.2971 -0.4267
  175SLPC  H18Y19901   0.975   5.652   4.302  0.5681 -0.7355 -0.0437
  175SLPC  H18Z19902   1.024   5.555   4.448  3.5108  0.2074 -1.5910
  176SLPC     N19903   0.723   3.841   6.820 -0.2697 -0.2760 -0.0609
  176SLPC   C1319904   0.760   3.711   6.889  0.5226  0.0967 -0.1981
  176SLPC  H13A19905   0.850   3.673   6.841  0.8940  0.3394  0.2992
  176SLPC  H13B19906   0.793   3.727   6.990 -0.2139  1.0576 -0.1014
  176SLPC  H13C19907   0.687   3.632   6.882  0.0670  0.2630  2.0422
  176SLPC   C1419908   0.663   3.807   6.685  0.5290  0.3083  1.2954
  176SLPC  H14A19909   0.632   3.889   6.622  0.2428 -0.0656  0.9390
  176SLPC  H14B19910   0.737   3.763   6.619 -1.5936  0.7530 -1.5964
  176SLPC  H14C19911   0.583   3.735   6.687  0.0683  0.6984 -0.6088
  176SLPC   C1519912   0.854   3.920   6.810 -0.2072 -0.0622 -0.0560
  176SLPC  H15A19913   0.884   3.953   6.909  1.9151 -0.9120 -0.3540
  176SLPC  H15B19914   0.930   3.855   6.768  0.1265  1.1106 -1.3178
  176SLPC  H15C19915   0.853   4.005   6.744  0.9593  0.2958  0.3520
  176SLPC   C1219916   0.628   3.913   6.911 -0.2434 -0.2124 -0.0213
  176SLPC  H12A19917   0.668   3.940   7.008  0.8366 -1.1772 -0.1764
  176SLPC  H12B19918   0.541   3.853   6.935 -0.6753 -0.0012 -1.0336
  176SLPC   C1119919   0.564   4.043   6.854 -0.3321  0.6172  0.1761
  176SLPC  H11A19920   0.494   4.067   6.936  0.1254  1.5581  0.3123
  176SLPC  H11B19921   0.513   4.021   6.758  0.3350 -1.3423  0.2354
  176SLPC     P19922   0.624   4.288   6.806  0.1459 -0.2647  0.2295
  176SLPC   O1319923   0.499   4.322   6.872  0.1780 -0.0306  0.4250
  176SLPC   O1419924   0.740   4.381   6.833 -0.1819  0.4978 -0.4714
  176SLPC   O1219925   0.665   4.140   6.849 -0.3905 -0.5780 -0.4389
  176SLPC   O1119926   0.613   4.273   6.648  0.2273  0.1161  1.0038
  176SLPC    C119927   0.679   4.187   6.560  0.4075 -0.3228  0.3596
  176SLPC    HA19928   0.786   4.170   6.585  0.7905  3.3250  1.8526
  176SLPC    HB19929   0.617   4.095   6.551 -0.5267  0.3037  0.1886
  176SLPC    C219930   0.684   4.233   6.412 -0.2740 -0.4096  0.1632
  176SLPC    HS19931   0.725   4.149   6.351  0.5429 -1.5110  2.1532
  176SLPC   O2119932   0.763   4.353   6.401 -0.1790 -0.1173 -0.2283
  176SLPC   C2119933   0.900   4.333   6.388  0.9146  0.1917 -0.1475
  176SLPC   O2219934   0.955   4.226   6.385 -0.1611  0.4836 -0.1080
  176SLPC   C2219935   0.972   4.459   6.393  0.1424 -0.4687  0.5869
  176SLPC   H2R19936   0.902   4.543   6.413  2.9442  2.3558 -0.6247
  176SLPC   H2S19937   1.038   4.447   6.482  0.6382  0.8179  0.4089
  176SLPC    C319938   0.541   4.261   6.355  0.2359 -0.0382 -0.5517
  176SLPC    HX19939   0.491   4.345   6.406 -2.2333 -0.2525 -2.4530
  176SLPC    HY19940   0.478   4.170   6.360  0.3610 -0.1454 -0.9006
  176SLPC   O3119941   0.558   4.304   6.215 -0.5038 -0.3656 -0.2090
  176SLPC   C3119942   0.553   4.430   6.185  0.7807 -0.1024  0.2366
  176SLPC   O3219943   0.502   4.520   6.257  0.3489 -0.2697  0.3283
  176SLPC   C3219944   0.587   4.445   6.037  0.0253  0.2984  0.4844
  176SLPC   H2X19945   0.527   4.367   5.986  1.6138  0.2098 -1.3724
  176SLPC   H2Y19946   0.697   4.434   6.023 -0.0630 -1.1202  0.7481
  176SLPC   C2319947   1.057   4.479   6.270 -0.1818 -0.4151  0.2371
  176SLPC   H3R19948   1.122   4.390   6.253 -0.3605 -0.6198  0.6123
  176SLPC   H3S19949   1.131   4.561   6.285 -0.5256  0.0392 -0.4700
  176SLPC   C2419950   0.970   4.525   6.149 -0.1738 -0.9305  0.2897
  176SLPC   H4R19951   0.944   4.631   6.173  1.1737 -0.4908 -0.0817
  176SLPC   H4S19952   0.873   4.473   6.135  0.5895 -2.1763 -0.5692
  176SLPC   C2519953   1.042   4.505   6.014 -0.0172  0.5415 -1.0548
  176SLPC   H5R19954   1.090   4.405   6.021 -0.2646  0.4579 -0.3992
  176SLPC   H5S19955   1.117   4.585   5.996 -2.0674  2.8228  0.0763
  176SLPC   C2619956   0.944   4.534   5.901 -0.4551 -0.2379 -0.2671
  176SLPC   H6R19957   0.887   4.629   5.901 -1.5837 -0.6053 -5.0841
  176SLPC   H6S19958   0.860   4.461   5.907 -1.6186  1.1784  2.0859
  176SLPC   C2719959   1.014   4.524   5.762  0.4603  0.1144  0.5478
  176SLPC   H7R19960   1.083   4.437   5.753 -1.5502 -1.4915 -0.0555
  176SLPC   H7S19961   1.067   4.619   5.739 -1.1563  0.6653 -1.1724
  176SLPC   C2819962   0.908   4.513   5.646  0.9225 -0.3456 -0.1867
  176SLPC   H8R19963   0.842   4.600   5.670  1.5409 -0.0382  0.4609
  176SLPC   H8S19964   0.835   4.431   5.659 -1.0330  1.2907 -0.3572
  176SLPC   C2919965   0.982   4.530   5.516 -0.4464 -0.0375  0.5293
  176SLPC   H9R19966   1.053   4.614   5.510 -0.9360  0.4023  0.8034
  176SLPC  C21019967   0.993   4.442   5.414  0.7297 -0.5164 -0.0598
  176SLPC  H10R19968   1.068   4.454   5.334 -0.4100 -1.7675 -1.3811
  176SLPC  C21119969   0.922   4.312   5.403  0.2416 -0.7715  0.2093
  176SLPC  H11R19970   0.814   4.333   5.423  0.6609  1.7074  0.1682
  176SLPC  H11S19971   0.955   4.247   5.487 -0.8329 -0.8092  0.6227
  176SLPC  C21219972   0.928   4.243   5.264  0.3400 -0.0025  0.7201
  176SLPC  H12R19973   0.994   4.154   5.262  1.0983  0.5405 -1.2497
  176SLPC  C21319974   0.876   4.287   5.148 -0.1347 -0.5272 -0.1282
  176SLPC  H13R19975   0.908   4.244   5.052 -0.6821  0.1982 -0.6487
  176SLPC  C21419976   0.787   4.418   5.141 -0.2693  0.2619 -0.1375
  176SLPC  H14R19977   0.768   4.456   5.243 -0.3317  2.0336 -0.7736
  176SLPC  H14S19978   0.685   4.396   5.104  0.2234 -2.5735 -0.1010
  176SLPC  C21519979   0.843   4.529   5.057 -0.1732 -0.3016 -0.4075
  176SLPC  H15R19980   0.942   4.561   5.094 -1.1616  0.3073  1.8684
  176SLPC  H15S19981   0.773   4.614   5.066 -0.2829 -0.3971 -0.3521
  176SLPC  C21619982   0.864   4.490   4.908  0.6829  0.2019  0.0073
  176SLPC  H16R19983   0.771   4.452   4.860  1.2818 -0.8140 -0.3744
  176SLPC  H16S19984   0.940   4.409   4.907  1.9756  1.3179  2.0972
  176SLPC  C21719985   0.915   4.608   4.830  0.1261  0.9863  0.6945
  176SLPC  H17R19986   1.024   4.627   4.842 -0.1339  1.0699  3.5494
  176SLPC  H17S19987   0.861   4.701   4.856  0.6010  1.0187  1.6011
  176SLPC  C21819988   0.878   4.583   4.680 -0.7996 -0.2345 -1.0888
  176SLPC  H18R19989   0.768   4.565   4.675 -0.9359 -2.0374  3.6772
  176SLPC  H18S19990   0.934   4.488   4.673 -0.8858 -0.2572 -1.5175
  176SLPC  H18T19991   0.917   4.653   4.603 -0.4136 -1.0589 -1.6498
  176SLPC   C3319992   0.545   4.581   5.971  0.4825  0.3166 -0.0462
  176SLPC   H3X19993   0.602   4.671   6.001 -2.3759  1.9425  0.9596
  176SLPC   H3Y19994   0.441   4.608   6.002  1.0063  1.3369  0.8872
  176SLPC   C3419995   0.555   4.577   5.819  0.4856 -0.8638  0.1566
  176SLPC   H4X19996   0.507   4.485   5.781  0.8777 -0.9706 -0.0822
  176SLPC   H4Y19997   0.664   4.579   5.796  0.5318 -0.8256  0.3764
  176SLPC   C3519998   0.485   4.701   5.754 -0.0606 -0.2489  0.5518
  176SLPC   H5X19999   0.556   4.783   5.729  0.4779 -0.8395  0.0942
  176SLPC   H5Y20000   0.401   4.736   5.817 -2.1271 -1.5526 -1.3477
  176SLPC   C3620001   0.445   4.667   5.610  0.2533  0.3831 -1.1508
  176SLPC   H6X20002   0.348   4.613   5.614 -0.4477  1.6624  1.0391
  176SLPC   H6Y20003   0.523   4.597   5.574 -0.5911 -0.9792 -0.4273
  176SLPC   C3720004   0.430   4.795   5.527 -0.0995  0.5475  0.0346
  176SLPC   H7X20005   0.530   4.842   5.523  0.2150 -0.1756 -0.8557
  176SLPC   H7Y20006   0.362   4.862   5.584 -0.7478 -1.1322  1.3141
  176SLPC   C3820007   0.386   4.749   5.389  1.2075 -0.1628  0.7512
  176SLPC   H8X20008   0.293   4.691   5.407 -1.7546  3.1400 -2.2842
  176SLPC   H8Y20009   0.462   4.698   5.327 -0.4870 -1.5119 -0.3337
  176SLPC   C3920010   0.344   4.879   5.322 -0.6694  0.2888 -0.6619
  176SLPC   H9X20011   0.426   4.954   5.326  1.7440 -2.2198  0.2835
  176SLPC   H9Y20012   0.251   4.924   5.362 -0.2854  0.3821  0.1566
  176SLPC  C31020013   0.304   4.860   5.173 -0.1719 -0.0890  0.1120
  176SLPC  H10X20014   0.366   4.788   5.116 -0.7593 -0.1614 -0.4484
  176SLPC  H10Y20015   0.313   4.960   5.125  0.0760 -0.8611 -1.4917
  176SLPC  C31120016   0.157   4.822   5.160  0.6317  0.5589  0.1522
  176SLPC  H11X20017   0.101   4.894   5.224  0.1449  0.4489 -0.1428
  176SLPC  H11Y20018   0.158   4.723   5.209  2.0748 -0.1056 -1.1435
  176SLPC  C31220019   0.113   4.812   5.016 -0.1349  0.1325  0.1104
  176SLPC  H12X20020   0.178   4.741   4.960  3.4351  2.6517  0.7437
  176SLPC  H12Y20021   0.143   4.905   4.963 -0.8764  0.2302 -0.1510
  176SLPC  C31320022  -0.038   4.784   4.989 -0.1096 -0.2808 -0.6578
  176SLPC  H13X20023  -0.094   4.854   5.055  1.0012 -0.0009  0.0204
  176SLPC  H13Y20024  -0.061   4.679   5.018  1.8860 -0.9464 -1.3017
  176SLPC  C31420025  -0.073   4.814   4.842 -0.7638 -0.0608  0.2362
  176SLPC  H14X20026  -0.016   4.907   4.818 -1.1689  0.2203  0.3610
  176SLPC  H14Y20027  -0.182   4.833   4.839 -1.1430 -2.0884 -0.2839
  176SLPC  C31520028  -0.018   4.715   4.742 -1.1043 -0.4214  0.4281
  176SLPC  H15X20029  -0.065   4.615   4.747  2.7824 -2.4832 -0.4628
  176SLPC  H15Y20030   0.091   4.695   4.756  0.0125  2.4480 -2.7200
  176SLPC  C31620031  -0.015   4.761   4.598 -0.7990 -0.3411  0.2290
  176SLPC  H16X20032   0.055   4.847   4.591 -1.9174  0.5481 -0.1786
  176SLPC  H16Y20033  -0.119   4.790   4.572 -0.1106  3.0419  0.8165
  176SLPC  C31720034   0.037   4.666   4.491 -0.9308 -0.0436  0.4824
  176SLPC  H17X20035  -0.028   4.577   4.474  0.2363 -0.7671 -0.3358
  176SLPC  H17Y20036   0.135   4.626   4.525 -1.2285 -0.5416  0.7707
  176SLPC  C31820037   0.059   4.744   4.357  0.0955 -0.0601  0.2471
  176SLPC  H18X20038  -0.034   4.784   4.310 -0.3763 -0.7869  0.5446
  176SLPC  H18Y20039   0.111   4.684   4.279  0.6453  2.1559 -1.1929
  176SLPC  H18Z20040   0.123   4.833   4.373  0.9077 -0.1980 -1.8563
  177SLPC     N20041   2.796   4.657   6.738 -0.1407 -0.0655 -0.1557
  177SLPC   C1320042   2.917   4.737   6.719  0.7607 -0.2698  0.8183
  177SLPC  H13A20043   3.007   4.683   6.697  1.1197 -0.7702  3.2340
  177SLPC  H13B20044   2.896   4.825   6.659  1.1112 -0.4252  0.4685
  177SLPC  H13C20045   2.929   4.787   6.814 -0.3498  0.1218  0.7733
  177SLPC   C1420046   2.683   4.757   6.746 -0.7027  0.2890 -0.2623
  177SLPC  H14A20047   2.590   4.707   6.767 -1.0362  1.8154  2.2899
  177SLPC  H14B20048   2.708   4.820   6.830  0.1442 -0.2008 -0.1315
  177SLPC  H14C20049   2.675   4.812   6.653  0.9540  1.2174  0.1040
  177SLPC   C1520050   2.806   4.581   6.870 -0.3623 -0.2944  0.5059
  177SLPC  H15A20051   2.717   4.520   6.876  0.6265 -1.6988  1.4909
  177SLPC  H15B20052   2.888   4.512   6.865 -0.3515 -0.1917 -2.8150
  177SLPC  H15C20053   2.828   4.646   6.953  0.9168 -1.2657  0.9580
  177SLPC   C1220054   2.771   4.563   6.624  0.4014 -0.0341  0.5506
  177SLPC  H12A20055   2.860   4.506   6.603  0.7674  0.1535  1.5030
  177SLPC  H12B20056   2.738   4.612   6.534 -1.1928 -0.9964  0.5787
  177SLPC   C1120057   2.651   4.464   6.634  0.0746 -0.2559  0.0226
  177SLPC  H11A20058   2.630   4.423   6.735  0.3841 -0.0360  0.1812
  177SLPC  H11B20059   2.691   4.383   6.569  1.4886  1.8702 -1.9370
  177SLPC     P20060   2.507   4.531   6.430  0.2140 -0.1150 -0.0096
  177SLPC   O1320061   2.363   4.527   6.404 -0.7511 -0.7956 -0.4419
  177SLPC   O1420062   2.578   4.654   6.380  0.4007  0.4223  0.2844
  177SLPC   O1220063   2.534   4.519   6.587  0.0097  0.1573  0.2884
  177SLPC   O1120064   2.567   4.400   6.371  0.2586  0.0025 -0.1144
  177SLPC    C120065   2.689   4.388   6.293 -0.1978 -0.5882 -0.0365
  177SLPC    HA20066   2.751   4.475   6.322 -3.4354  1.3056  1.8535
  177SLPC    HB20067   2.745   4.294   6.313  2.1548  0.4296 -1.4229
  177SLPC    C220068   2.646   4.374   6.140 -0.9091 -0.1108 -0.3095
  177SLPC    HS20069   2.740   4.385   6.081 -0.7916  0.9953  0.0598
  177SLPC   O2120070   2.563   4.485   6.090 -0.3982  0.3033 -0.1452
  177SLPC   C2120071   2.621   4.602   6.084  0.0833 -0.0170 -0.1926
  177SLPC   O2220072   2.739   4.627   6.100  0.3849 -0.0298  0.2000
  177SLPC   C2220073   2.502   4.711   6.064  0.7050  0.3202 -0.1520
  177SLPC   H2R20074   2.403   4.665   6.086  1.0191  0.3306  1.4556
  177SLPC   H2S20075   2.522   4.794   6.135  0.3829 -0.1643  0.5281
  177SLPC    C320076   2.592   4.233   6.112  0.0088  0.0681 -0.2735
  177SLPC    HX20077   2.520   4.220   6.195  1.6811  0.1047  1.2232
  177SLPC    HY20078   2.670   4.154   6.124 -1.8699 -1.6725  1.1839
  177SLPC   O3120079   2.514   4.224   5.988  0.3413 -0.1824  0.6627
  177SLPC   C3120080   2.591   4.226   5.880 -0.5903 -0.0912 -0.1477
  177SLPC   O3220081   2.718   4.238   5.882 -0.0148 -0.2995  0.0275
  177SLPC   C3220082   2.515   4.213   5.752 -0.1806 -0.9768  0.9135
  177SLPC   H2X20083   2.459   4.309   5.752  2.0594  0.4617 -1.2075
  177SLPC   H2Y20084   2.442   4.130   5.746 -1.7418  0.4250 -3.0294
  177SLPC   C2320085   2.506   4.788   5.929 -0.0422  0.5758 -0.3803
  177SLPC   H3R20086   2.593   4.856   5.926  0.1472  0.3165 -1.5523
  177SLPC   H3S20087   2.414   4.849   5.920  0.6076  2.0248  1.9514
  177SLPC   C2420088   2.529   4.690   5.802 -0.6809 -0.4905 -0.1410
  177SLPC   H4R20089   2.456   4.608   5.801 -0.5689 -0.6073 -1.7430
  177SLPC   H4S20090   2.633   4.652   5.807  0.1824  1.7593  0.5269
  177SLPC   C2520091   2.503   4.776   5.673  0.3599 -0.9435  0.4596
  177SLPC   H5R20092   2.572   4.863   5.672 -1.2514  0.3762 -1.1909
  177SLPC   H5S20093   2.399   4.809   5.691 -0.5609 -3.5928  0.5579
  177SLPC   C2620094   2.500   4.695   5.546 -0.4289 -0.0218  0.8843
  177SLPC   H6R20095   2.428   4.612   5.559 -0.0874 -0.1076  2.4960
  177SLPC   H6S20096   2.602   4.650   5.537  0.2347  1.8322 -2.2574
  177SLPC   C2720097   2.488   4.783   5.418  0.2814  0.4843  0.0468
  177SLPC   H7R20098   2.556   4.870   5.421  1.1300 -0.0578 -1.8518
  177SLPC   H7S20099   2.392   4.836   5.435  1.1091  1.7074  1.0902
  177SLPC   C2820100   2.493   4.703   5.281  0.3847 -0.0638 -0.6751
  177SLPC   H8R20101   2.400   4.642   5.282  0.3996 -0.0879 -0.2041
  177SLPC   H8S20102   2.568   4.621   5.291  1.0487  0.4630 -1.2666
  177SLPC   C2920103   2.525   4.789   5.165  0.3049 -0.4482  0.3578
  177SLPC   H9R20104   2.611   4.857   5.177  0.1783 -0.2219 -0.0103
  177SLPC  C21020105   2.459   4.778   5.048 -0.5805  0.0987 -0.2281
  177SLPC  H10R20106   2.495   4.850   4.973 -0.2592  0.7228  0.5238
  177SLPC  C21120107   2.343   4.689   5.002 -0.5062 -0.4191  0.2384
  177SLPC  H11R20108   2.270   4.674   5.084  2.7284 -0.9573  3.2542
  177SLPC  H11S20109   2.382   4.586   4.985  1.5163  0.2104  0.7854
  177SLPC  C21220110   2.300   4.769   4.881 -0.4936  0.1443 -0.2562
  177SLPC  H12R20111   2.260   4.869   4.904  0.0713  0.5023 -0.8162
  177SLPC  C21320112   2.326   4.742   4.753  0.0924  0.3886  0.2603
  177SLPC  H13R20113   2.288   4.811   4.677  0.3642 -0.5284 -0.7201
  177SLPC  C21420114   2.385   4.608   4.686 -0.5389  0.4528 -0.0525
  177SLPC  H14R20115   2.316   4.571   4.608 -2.8979  2.9286  0.7153
  177SLPC  H14S20116   2.410   4.533   4.764  4.3703  1.5641 -0.1932
  177SLPC  C21520117   2.516   4.652   4.615  0.3308 -0.1201  0.1326
  177SLPC  H15R20118   2.502   4.744   4.554 -1.5910 -0.2899  0.2667
  177SLPC  H15S20119   2.544   4.576   4.538  0.8239  0.6360 -0.4534
  177SLPC  C21620120   2.634   4.687   4.701  0.6559 -0.3662 -0.0570
  177SLPC  H16R20121   2.672   4.600   4.760  2.0820 -1.4749 -2.4654
  177SLPC  H16S20122   2.600   4.766   4.772 -0.8209 -2.2654  1.4528
  177SLPC  C21720123   2.747   4.749   4.617  0.4121 -0.3564 -0.0511
  177SLPC  H17R20124   2.826   4.787   4.687 -0.0356 -0.3165  0.4408
  177SLPC  H17S20125   2.708   4.842   4.571  1.9921  0.2418 -0.2731
  177SLPC  C21820126   2.806   4.666   4.511 -0.2456  0.1168  0.3985
  177SLPC  H18R20127   2.838   4.569   4.556  1.8210  0.8238  0.5771
  177SLPC  H18S20128   2.889   4.718   4.458 -1.8078 -0.5818 -3.0023
  177SLPC  H18T20129   2.736   4.642   4.429 -1.2210 -0.2796  1.3182
  177SLPC   C3320130   2.601   4.213   5.620  0.0678 -0.6449  0.8158
  177SLPC   H3X20131   2.635   4.114   5.583  0.3327 -0.2677  0.0360
  177SLPC   H3Y20132   2.687   4.282   5.634  1.3042 -1.7880 -0.8840
  177SLPC   C3420133   2.529   4.273   5.502 -0.4314 -0.7354  0.7225
  177SLPC   H4X20134   2.475   4.370   5.515  1.3179  0.7230 -1.9452
  177SLPC   H4Y20135   2.445   4.203   5.482 -0.9987 -0.4096  1.8501
  177SLPC   C3520136   2.621   4.303   5.380 -0.0667  0.6505 -0.3953
  177SLPC   H5X20137   2.683   4.211   5.369 -0.2683  0.7220 -2.5769
  177SLPC   H5Y20138   2.689   4.388   5.405 -1.8352  0.9995  4.2582
  177SLPC   C3620139   2.550   4.350   5.253 -0.1772 -0.2002  0.0478
  177SLPC   H6X20140   2.631   4.395   5.192  0.4107 -0.5290  0.5668
  177SLPC   H6Y20141   2.473   4.427   5.275 -1.6100 -1.2896 -1.0255
  177SLPC   C3720142   2.501   4.249   5.146  0.4418 -0.7924 -0.5152
  177SLPC   H7X20143   2.405   4.204   5.180  0.3043  0.5852  1.0586
  177SLPC   H7Y20144   2.572   4.166   5.131  1.2272 -0.2467  0.0881
  177SLPC   C3820145   2.480   4.311   5.007 -0.3049  0.8646  0.0642
  177SLPC   H8X20146   2.576   4.356   4.974  0.8467 -0.5453  1.3621
  177SLPC   H8Y20147   2.399   4.388   5.010 -0.8529  0.3174 -0.3538
  177SLPC   C3920148   2.432   4.204   4.903  0.3059  0.6085  0.7732
  177SLPC   H9X20149   2.336   4.171   4.947 -0.2128  1.4423  0.2795
  177SLPC   H9Y20150   2.497   4.114   4.907 -0.1632  0.0873 -1.6937
  177SLPC  C31020151   2.405   4.263   4.770 -0.5499  0.4727  0.1486
  177SLPC  H10X20152   2.494   4.325   4.743 -0.6968  0.9056  0.6285
  177SLPC  H10Y20153   2.319   4.334   4.769 -1.5939 -0.7642 -0.0014
  177SLPC  C31120154   2.369   4.158   4.658  0.0525  0.5928  0.5055
  177SLPC  H11X20155   2.280   4.103   4.694 -0.3160  1.0253  0.2657
  177SLPC  H11Y20156   2.453   4.087   4.642 -1.0084 -0.2033 -2.1107
  177SLPC  C31220157   2.338   4.225   4.522 -0.3219 -0.1877 -0.0420
  177SLPC  H12X20158   2.433   4.265   4.481  1.0968 -1.2340  2.0795
  177SLPC  H12Y20159   2.273   4.315   4.532  0.4735  0.3607  0.2933
  177SLPC  C31320160   2.285   4.118   4.428  0.0151 -0.0849 -0.8681
  177SLPC  H13X20161   2.194   4.071   4.471  1.8056 -2.7693  0.3109
  177SLPC  H13Y20162   2.361   4.037   4.430  2.9310  2.5116  0.6293
  177SLPC  C31420163   2.269   4.177   4.283 -0.4046 -0.3134 -0.4531
  177SLPC  H14X20164   2.358   4.155   4.222  0.3753  1.0714  0.1206
  177SLPC  H14Y20165   2.267   4.288   4.295  2.1417 -0.2571  0.0548
  177SLPC  C31520166   2.152   4.116   4.201 -0.4196 -0.0430  0.4171
  177SLPC  H15X20167   2.053   4.135   4.248 -0.9993  0.9444 -1.1070
  177SLPC  H15Y20168   2.169   4.006   4.198 -0.0917 -0.0318 -3.3449
  177SLPC  C31620169   2.161   4.164   4.056  0.1583  0.7773  0.1669
  177SLPC  H16X20170   2.240   4.104   4.005 -0.3066  0.6290 -0.3862
  177SLPC  H16Y20171   2.200   4.268   4.056 -1.0303  1.2433  0.7219
  177SLPC  C31720172   2.026   4.149   3.976 -0.0097 -0.5823 -0.5276
  177SLPC  H17X20173   2.046   4.183   3.872  2.0204 -0.4005 -0.1273
  177SLPC  H17Y20174   1.937   4.192   4.025  0.5652  0.2374 -0.1873
  177SLPC  C31820175   1.996   3.993   3.952  0.1419 -0.4802 -0.7423
  177SLPC  H18X20176   2.088   3.932   3.956 -0.1366 -1.0800 -2.6433
  177SLPC  H18Y20177   1.940   3.973   3.858  0.7069  0.5353 -1.3092
  177SLPC  H18Z20178   1.924   3.956   4.029  0.1008 -1.0617 -1.0521
  178SLPC     N20179   6.123   3.176   6.433 -0.2946 -0.1738 -0.3577
  178SLPC   C1320180   6.015   3.073   6.410 -0.3313  0.0342 -1.1932
  178SLPC  H13A20181   5.967   3.045   6.502  1.6489  2.3703  0.7222
  178SLPC  H13B20182   5.937   3.119   6.351  0.2975 -0.5491 -2.5209
  178SLPC  H13C20183   6.042   2.980   6.362 -2.7426 -1.0074 -0.6619
  178SLPC   C1420184   6.059   3.294   6.502  0.4494  0.4328  0.2259
  178SLPC  H14A20185   6.017   3.263   6.597  2.2858  0.6572  1.1581
  178SLPC  H14B20186   6.136   3.368   6.522  0.6847  0.5759 -1.1559
  178SLPC  H14C20187   5.983   3.344   6.445 -0.5018  0.2382  1.2727
  178SLPC   C1520188   6.177   3.229   6.298  0.1170  0.5389 -0.4163
  178SLPC  H15A20189   6.105   3.295   6.252  0.7963  0.8307 -1.0733
  178SLPC  H15B20190   6.267   3.284   6.322  0.8408 -0.4804 -0.7146
  178SLPC  H15C20191   6.203   3.140   6.242  1.9270  1.9412 -1.9138
  178SLPC   C1220192   6.236   3.119   6.518 -0.7262  0.1241  0.3821
  178SLPC  H12A20193   6.262   3.025   6.471 -0.0524  1.3300 -1.7521
  178SLPC  H12B20194   6.185   3.075   6.603  0.9318 -0.1985  1.2560
  178SLPC   C1120195   6.365   3.198   6.548 -0.2137 -0.4887  0.2852
  178SLPC  H11A20196   6.420   3.160   6.637 -0.7470 -0.0821  0.8014
  178SLPC  H11B20197   6.331   3.296   6.589 -3.6082 -1.5704  0.4515
  178SLPC     P20198   6.609   3.222   6.422 -0.1167 -0.0684 -0.1939
  178SLPC   O1320199   6.647   3.362   6.441  0.0567  0.1882  0.4111
  178SLPC   O1420200   6.675   3.126   6.520 -0.0687 -0.1166 -0.0659
  178SLPC   O1220201   6.447   3.208   6.427 -0.3423 -0.6698  0.0958
  178SLPC   O1120202   6.643   3.175   6.275  0.1626 -0.0544  0.6373
  178SLPC    C120203   6.563   3.237   6.172  0.2555 -0.0831  0.1466
  178SLPC    HA20204   6.462   3.191   6.182 -0.0186  0.7303  1.2846
  178SLPC    HB20205   6.561   3.348   6.180 -4.5464  0.0112  0.6797
  178SLPC    C220206   6.610   3.193   6.032  0.0672 -0.3128 -0.2620
  178SLPC    HS20207   6.550   3.259   5.965 -0.5828 -0.8697 -0.2433
  178SLPC   O2120208   6.588   3.053   6.019 -0.5577 -0.2464  0.4289
  178SLPC   C2120209   6.548   3.019   5.899  1.2059  0.1153  0.2438
  178SLPC   O2220210   6.531   3.094   5.806 -0.5745 -0.4255  0.2465
  178SLPC   C2220211   6.528   2.864   5.900 -0.7406  0.8883 -0.2918
  178SLPC   H2R20212   6.583   2.840   5.993 -0.6133 -0.1718 -0.6309
  178SLPC   H2S20213   6.421   2.839   5.919  0.1325 -2.1981  1.0627
  178SLPC    C320214   6.756   3.235   6.010 -0.4584  0.1624 -0.5937
  178SLPC    HX20215   6.827   3.160   6.051 -0.0572  0.2166 -1.1887
  178SLPC    HY20216   6.771   3.331   6.065 -1.7542 -0.1413  0.3529
  178SLPC   O3120217   6.791   3.242   5.867 -0.2831  0.3669 -0.2028
  178SLPC   C3120218   6.744   3.344   5.795 -0.3497 -0.1424  0.9839
  178SLPC   O3220219   6.707   3.448   5.840  0.3224 -0.4008  0.3797
  178SLPC   C3220220   6.741   3.290   5.653 -0.0401  0.0211 -0.4356
  178SLPC   H2X20221   6.633   3.273   5.630 -0.1404  2.2582 -2.0150
  178SLPC   H2Y20222   6.796   3.194   5.645  0.5288  0.4794 -2.9488
  178SLPC   C2320223   6.564   2.797   5.765 -0.1379 -0.3464 -0.3625
  178SLPC   H3R20224   6.657   2.836   5.720 -0.1473  0.9924  0.7334
  178SLPC   H3S20225   6.492   2.832   5.688  1.3615  2.0256 -0.7900
  178SLPC   C2420226   6.581   2.652   5.778  0.1129 -0.2275 -0.0346
  178SLPC   H4R20227   6.487   2.599   5.803  0.0995 -1.2289 -2.0309
  178SLPC   H4S20228   6.658   2.632   5.856  0.1191 -2.7524 -0.6099
  178SLPC   C2520229   6.654   2.593   5.658 -0.0562 -0.1594  0.4981
  178SLPC   H5R20230   6.707   2.499   5.685 -2.8683 -2.1842 -0.6319
  178SLPC   H5S20231   6.737   2.658   5.620  0.0212 -2.0392 -2.9452
  178SLPC   C2620232   6.572   2.570   5.537 -0.2198 -0.0578 -0.3630
  178SLPC   H6R20233   6.508   2.660   5.536  2.0114  1.7951  3.7307
  178SLPC   H6S20234   6.510   2.480   5.556  2.0099 -1.6702 -0.3206
  178SLPC   C2720235   6.655   2.559   5.409  0.0693 -0.4357 -0.1911
  178SLPC   H7R20236   6.737   2.484   5.411  1.9005  1.4978  1.3393
  178SLPC   H7S20237   6.714   2.653   5.400 -0.5823 -0.0210 -0.2144
  178SLPC   C2820238   6.570   2.562   5.279  0.3377 -0.3890 -0.2110
  178SLPC   H8R20239   6.651   2.555   5.203 -0.2230 -0.6635 -0.7933
  178SLPC   H8S20240   6.525   2.663   5.274  0.0948 -0.4850  0.0372
  178SLPC   C2920241   6.462   2.459   5.269  0.5778  0.7211  0.3467
  178SLPC   H9R20242   6.379   2.478   5.339 -1.9814  0.2156 -2.3219
  178SLPC  C21020243   6.451   2.365   5.174  0.0091  0.7810  1.2593
  178SLPC  H10R20244   6.359   2.304   5.174  0.3326  0.2448 -0.0289
  178SLPC  C21120245   6.545   2.353   5.057  0.6260  0.0069 -0.1919
  178SLPC  H11R20246   6.546   2.442   4.991  2.2509 -1.3315 -2.1438
  178SLPC  H11S20247   6.493   2.283   4.987  0.8856 -1.0208  0.6187
  178SLPC  C21220248   6.693   2.316   5.078 -0.5759  0.0977  0.6291
  178SLPC  H12R20249   6.732   2.352   5.175  0.6096  0.6630 -0.0330
  178SLPC  C21320250   6.771   2.250   4.988 -0.0624 -0.7307 -0.5265
  178SLPC  H13R20251   6.877   2.257   5.020 -0.4972  0.5170  0.7456
  178SLPC  C21420252   6.735   2.175   4.862 -0.2973  0.0254 -0.2104
  178SLPC  H14R20253   6.628   2.185   4.833 -0.3301  0.7987  0.1366
  178SLPC  H14S20254   6.767   2.069   4.865  2.0767  0.6789 -0.4253
  178SLPC  C21520255   6.816   2.235   4.748 -0.2064 -0.1180  0.6399
  178SLPC  H15R20256   6.924   2.256   4.762  0.3325 -0.9441 -1.8587
  178SLPC  H15S20257   6.766   2.331   4.722 -0.2709 -0.6959 -1.5884
  178SLPC  C21620258   6.805   2.154   4.616 -0.1280 -0.1231 -1.0849
  178SLPC  H16R20259   6.852   2.055   4.634 -2.4254 -1.1392 -0.3264
  178SLPC  H16S20260   6.862   2.208   4.537 -0.7106  1.6177 -0.3482
  178SLPC  C21720261   6.657   2.128   4.566 -1.0287  0.6681  0.3886
  178SLPC  H17R20262   6.616   2.230   4.549 -2.0629  0.2679  0.4368
  178SLPC  H17S20263   6.597   2.084   4.649  0.8631 -2.2831  0.3448
  178SLPC  C21820264   6.657   2.028   4.451 -0.6696 -0.3833 -0.1923
  178SLPC  H18R20265   6.726   1.943   4.468 -2.9362 -2.3798 -0.5104
  178SLPC  H18S20266   6.692   2.076   4.357 -0.1559  2.5719  1.3670
  178SLPC  H18T20267   6.563   1.969   4.447  0.5396 -2.3241 -2.1193
  178SLPC   C3320268   6.804   3.397   5.556 -0.3638 -0.2627  0.1657
  178SLPC   H3X20269   6.911   3.422   5.576 -0.4969  0.7320 -0.3378
  178SLPC   H3Y20270   6.753   3.494   5.576  0.6470  0.0585  1.3259
  178SLPC   C3420271   6.776   3.361   5.410 -0.2324  0.8677  0.5120
  178SLPC   H4X20272   6.667   3.354   5.389 -0.0262  1.0525 -0.7496
  178SLPC   H4Y20273   6.819   3.260   5.391 -1.1765  0.7130 -0.9612
  178SLPC   C3520274   6.858   3.445   5.311 -0.3284  0.2200 -0.3485
  178SLPC   H5X20275   6.967   3.439   5.335  0.2405  0.5896 -2.6366
  178SLPC   H5Y20276   6.829   3.552   5.316  0.1621  0.3240  0.5096
  178SLPC   C3620277   6.839   3.391   5.169 -0.2556 -0.2502  0.6940
  178SLPC   H6X20278   6.729   3.389   5.155 -0.1037 -0.0711 -0.6685
  178SLPC   H6Y20279   6.880   3.287   5.168  1.7879  0.4968 -0.6742
  178SLPC   C3720280   6.893   3.482   5.057 -0.2992 -0.1104  0.0898
  178SLPC   H7X20281   7.001   3.479   5.079 -0.4307 -3.3089  0.7127
  178SLPC   H7Y20282   6.846   3.583   5.060 -0.3090 -0.0603 -1.1767
  178SLPC   C3820283   6.893   3.423   4.915 -0.0758  0.9550 -0.2165
  178SLPC   H8X20284   6.790   3.439   4.876 -0.7743  0.0633  1.1644
  178SLPC   H8Y20285   6.907   3.313   4.920  0.5093  0.9353 -1.8987
  178SLPC   C3920286   6.998   3.479   4.831 -0.0639  0.0318 -0.1616
  178SLPC   H9X20287   7.101   3.479   4.872  0.6786 -0.6765 -1.9103
  178SLPC   H9Y20288   6.969   3.581   4.799  2.1769  0.3300 -1.4606
  178SLPC  C31020289   7.013   3.411   4.697  0.5488  1.0017  0.4360
  178SLPC  H10X20290   7.075   3.481   4.638 -1.4936  3.4341  1.0206
  178SLPC  H10Y20291   6.910   3.391   4.659  1.3480  0.1354 -1.4124
  178SLPC  C31120292   7.076   3.274   4.712 -0.1109 -0.4774  0.2890
  178SLPC  H11X20293   7.031   3.203   4.784 -1.0125  0.7159  0.9350
  178SLPC  H11Y20294   7.183   3.288   4.738  0.0519 -1.9182  0.4213
  178SLPC  C31220295   7.083   3.202   4.571 -0.4238 -0.3628 -0.7317
  178SLPC  H12X20296   7.138   3.270   4.503 -1.3503  1.1206 -0.0574
  178SLPC  H12Y20297   6.985   3.181   4.523  0.7950 -1.1574 -2.9682
  178SLPC  C31320298   7.168   3.074   4.570 -0.6125 -0.3418 -0.0502
  178SLPC  H13X20299   7.118   2.996   4.631  2.8052 -1.6327  1.3813
  178SLPC  H13Y20300   7.252   3.096   4.640  0.1738  1.6618 -1.5264
  178SLPC  C31420301   7.211   3.008   4.440 -0.0996  0.0293 -0.7121
  178SLPC  H14X20302   7.269   2.917   4.468  1.2475  0.5021 -1.8544
  178SLPC  H14Y20303   7.279   3.073   4.382  3.0118 -1.1823  1.3045
  178SLPC  C31520304   7.102   2.973   4.343 -0.1298  0.2279 -0.5699
  178SLPC  H15X20305   7.142   2.902   4.267 -2.1461  0.0821 -1.5612
  178SLPC  H15Y20306   7.068   3.066   4.293  0.2197  0.0467 -1.1582
  178SLPC  C31620307   6.986   2.895   4.405 -0.4496  0.0751 -0.2376
  178SLPC  H16X20308   6.937   2.960   4.480 -0.5523 -0.3374  0.0545
  178SLPC  H16Y20309   7.031   2.810   4.460 -1.9139 -0.3233  0.4008
  178SLPC  C31720310   6.889   2.831   4.302 -0.0289  0.4111  0.6435
  178SLPC  H17X20311   6.937   2.757   4.235 -1.8061 -1.6316  1.4969
  178SLPC  H17Y20312   6.848   2.896   4.222 -0.5134 -0.0982  0.4711
  178SLPC  C31820313   6.780   2.753   4.380 -0.1661 -0.4170  0.8134
  178SLPC  H18X20314   6.824   2.678   4.448 -0.0083 -2.5384 -1.4770
  178SLPC  H18Y20315   6.721   2.701   4.301 -2.6453  0.6352  1.8612
  178SLPC  H18Z20316   6.715   2.824   4.436  0.6760 -0.0060  1.2821
  179SLPC     N20317   1.837   3.107   1.989  0.3856  0.2139  0.1659
  179SLPC   C1320318   1.763   3.202   1.899 -0.6427  0.2756 -0.1343
  179SLPC  H13A20319   1.799   3.197   1.797 -0.8146 -2.7614 -0.1652
  179SLPC  H13B20320   1.656   3.186   1.898 -1.0264  2.5932  0.0764
  179SLPC  H13C20321   1.788   3.299   1.937  2.0032  0.3334 -1.7822
  179SLPC   C1420322   1.984   3.137   1.993 -0.5738  0.3708  0.0067
  179SLPC  H14A20323   2.040   3.104   1.906 -1.3133 -1.3334  0.1247
  179SLPC  H14B20324   2.008   3.241   2.008  0.2717  0.2133 -0.1924
  179SLPC  H14C20325   2.028   3.068   2.064 -1.0981 -1.1442 -1.0677
  179SLPC   C1520326   1.811   2.968   1.940 -0.2646  0.1245  0.3271
  179SLPC  H15A20327   1.867   2.961   1.848  0.4031  2.8907  0.4163
  179SLPC  H15B20328   1.859   2.902   2.010 -0.4569  2.4364  2.8386
  179SLPC  H15C20329   1.705   2.956   1.923 -0.1513 -0.1650 -0.1849
  179SLPC   C1220330   1.769   3.121   2.122 -0.7231 -0.2938  0.5323
  179SLPC  H12A20331   1.831   3.058   2.183  4.0338  0.8362 -2.6000
  179SLPC  H12B20332   1.675   3.071   2.107 -1.3064  1.0207 -0.4315
  179SLPC   C1120333   1.756   3.257   2.197 -0.1590  0.0883  0.2448
  179SLPC  H11A20334   1.855   3.304   2.214 -0.0317  0.0352 -0.3251
  179SLPC  H11B20335   1.714   3.228   2.295  0.6698 -1.5049  0.1525
  179SLPC     P20336   1.522   3.323   2.118  0.1507  0.5327 -0.1252
  179SLPC   O1320337   1.468   3.434   2.044  0.1664  0.0315  0.5712
  179SLPC   O1420338   1.501   3.192   2.062 -0.0855  0.8328  0.7263
  179SLPC   O1220339   1.674   3.351   2.131 -0.5781 -0.0282 -0.2461
  179SLPC   O1120340   1.476   3.313   2.272 -0.7395  0.2152  0.4762
  179SLPC    C120341   1.349   3.354   2.317  0.2276  0.3011  0.2784
  179SLPC    HA20342   1.272   3.338   2.238  2.7279 -0.1963 -2.2290
  179SLPC    HB20343   1.331   3.305   2.415  0.6578  0.6491  0.5312
  179SLPC    C220344   1.335   3.510   2.338 -0.0047 -0.2920  0.1180
  179SLPC    HS20345   1.422   3.559   2.289  0.1699  1.6640  2.2211
  179SLPC   O2120346   1.319   3.540   2.476  0.1682 -0.0449  0.6921
  179SLPC   C2120347   1.419   3.521   2.558 -0.3829 -0.5268  0.1131
  179SLPC   O2220348   1.532   3.494   2.531 -0.3670  0.0201  0.6854
  179SLPC   C2220349   1.373   3.558   2.699 -0.3051 -0.2978 -0.4994
  179SLPC   H2R20350   1.346   3.666   2.692 -0.2116 -0.2849 -0.6607
  179SLPC   H2S20351   1.277   3.507   2.722 -0.4483  0.6524  1.2362
  179SLPC    C320352   1.209   3.586   2.261 -1.0261  0.0216 -0.6454
  179SLPC    HX20353   1.123   3.516   2.256  0.5610 -2.0350 -0.6274
  179SLPC    HY20354   1.262   3.603   2.165 -0.9647  0.8591 -0.4763
  179SLPC   O3120355   1.182   3.713   2.323 -1.3894 -0.3508 -1.0144
  179SLPC   C3120356   1.081   3.713   2.411  0.0420 -0.7324  0.0080
  179SLPC   O3220357   1.002   3.622   2.436 -0.0147 -0.6070  0.5508
  179SLPC   C3220358   1.064   3.851   2.472 -0.1214  0.1499  0.4526
  179SLPC   H2X20359   0.956   3.874   2.468 -0.4990 -0.9664  2.7353
  179SLPC   H2Y20360   1.117   3.921   2.404 -2.7589  0.0195 -1.9239
  179SLPC   C2320361   1.483   3.554   2.810  0.6659 -0.8336 -0.1102
  179SLPC   H3R20362   1.584   3.587   2.778 -0.1806  1.9775 -0.1260
  179SLPC   H3S20363   1.493   3.448   2.842  0.2221  0.0677  3.4975
  179SLPC   C2420364   1.456   3.642   2.930  0.5194  0.1944  0.2888
  179SLPC   H4R20365   1.351   3.634   2.965  0.1798 -0.7746 -0.8872
  179SLPC   H4S20366   1.472   3.746   2.895 -1.0067  0.4425  0.2369
  179SLPC   C2520367   1.542   3.602   3.050  0.9550 -0.4724  0.4777
  179SLPC   H5R20368   1.641   3.643   3.018  0.0872  1.6975  0.3816
  179SLPC   H5S20369   1.555   3.492   3.057  0.9007 -0.4257  1.3351
  179SLPC   C2620370   1.504   3.678   3.173  0.2898  0.4123  0.3035
  179SLPC   H6R20371   1.413   3.640   3.225  0.8446 -2.1501 -0.4652
  179SLPC   H6S20372   1.472   3.779   3.139  1.6288  0.0638 -2.2311
  179SLPC   C2720373   1.628   3.693   3.264  0.4294 -0.4757  0.2499
  179SLPC   H7R20374   1.684   3.780   3.223 -0.3840  0.1446  0.4335
  179SLPC   H7S20375   1.697   3.606   3.254 -0.4264 -1.3602  1.7383
  179SLPC   C2820376   1.604   3.717   3.412 -0.7019  0.2117  0.2836
  179SLPC   H8R20377   1.558   3.635   3.471  0.6227  0.9814  2.4768
  179SLPC   H8S20378   1.521   3.791   3.418 -0.3678  0.6619 -0.4605
  179SLPC   C2920379   1.732   3.742   3.482 -0.3688  0.0931 -0.1172
  179SLPC   H9R20380   1.813   3.792   3.429 -0.1778  0.8946  0.9083
  179SLPC  C21020381   1.754   3.693   3.611 -0.3008  0.1968  0.3903
  179SLPC  H10R20382   1.838   3.739   3.665  0.1744  1.0601 -1.0226
  179SLPC  C21120383   1.656   3.625   3.698  0.3476 -0.0170 -0.4328
  179SLPC  H11R20384   1.551   3.643   3.667  0.8542  1.8906 -1.1637
  179SLPC  H11S20385   1.668   3.667   3.800 -0.0372 -0.2065 -0.3074
  179SLPC  C21220386   1.686   3.474   3.709  0.7625  0.2304 -0.5785
  179SLPC  H12R20387   1.738   3.426   3.625  0.6209 -1.3118  0.1794
  179SLPC  C21320388   1.640   3.397   3.811  0.3866  0.4536  0.3783
  179SLPC  H13R20389   1.653   3.290   3.789  0.2457  0.2986  1.0302
  179SLPC  C21420390   1.557   3.431   3.934  0.2715 -0.2088  0.4787
  179SLPC  H14R20391   1.460   3.379   3.923  0.0032  0.2320  0.7138
  179SLPC  H14S20392   1.528   3.539   3.933  1.8219  0.3033 -2.7392
  179SLPC  C21520393   1.631   3.381   4.051 -0.5419 -0.5212  0.0054
  179SLPC  H15R20394   1.740   3.363   4.043 -0.1069  1.2432  1.3934
  179SLPC  H15S20395   1.582   3.286   4.079  0.2108 -0.3341  2.1037
  179SLPC  C21620396   1.601   3.471   4.172  0.4781  0.6668  0.5336
  179SLPC  H16R20397   1.490   3.476   4.178  0.2867 -1.6771 -0.1800
  179SLPC  H16S20398   1.633   3.576   4.152 -1.0723  0.5909 -3.1473
  179SLPC  C21720399   1.652   3.434   4.311 -0.5722  0.7101  0.7941
  179SLPC  H17R20400   1.671   3.524   4.373  1.7948  0.4970  0.4880
  179SLPC  H17S20401   1.751   3.384   4.300 -1.5223 -0.9511 -0.9482
  179SLPC  C21820402   1.553   3.345   4.391 -0.4171 -0.2090  0.3627
  179SLPC  H18R20403   1.465   3.412   4.394  1.3807  2.3672 -0.5954
  179SLPC  H18S20404   1.592   3.326   4.494 -1.4350  1.0107  1.0026
  179SLPC  H18T20405   1.517   3.257   4.335 -1.4622  1.5844 -1.9581
  179SLPC   C3320406   1.110   3.868   2.617 -0.0035 -0.0626  0.3267
  179SLPC   H3X20407   1.088   3.974   2.643 -0.0572  0.0880 -0.3288
  179SLPC   H3Y20408   1.219   3.851   2.630 -0.1300 -1.4615 -0.2707
  179SLPC   C3420409   1.033   3.779   2.714  0.4703  0.1177 -0.1703
  179SLPC   H4X20410   1.071   3.675   2.708 -0.3352 -0.1192 -1.5575
  179SLPC   H4Y20411   0.924   3.770   2.699  0.5149  0.8385 -1.0383
  179SLPC   C3520412   1.066   3.833   2.855 -0.6913 -0.2838 -0.0028
  179SLPC   H5X20413   1.175   3.849   2.870 -0.9811  0.1919  1.8636
  179SLPC   H5Y20414   1.013   3.930   2.857 -0.0404  0.1595 -2.1932
  179SLPC   C3620415   1.030   3.742   2.972  0.1430  0.4062  0.4437
  179SLPC   H6X20416   1.094   3.654   2.948 -0.7577  0.6084 -3.3830
  179SLPC   H6Y20417   0.930   3.695   2.968  1.3423 -2.3286  0.6095
  179SLPC   C3720418   1.081   3.799   3.103 -0.5609  0.0992  0.1305
  179SLPC   H7X20419   1.032   3.894   3.132 -2.3239 -0.2799 -1.3865
  179SLPC   H7Y20420   1.186   3.834   3.093 -0.5728 -0.0504 -0.6254
  179SLPC   C3820421   1.100   3.689   3.215  0.3728  0.2578  0.2256
  179SLPC   H8X20422   1.172   3.612   3.180  0.3520 -1.0925  2.9458
  179SLPC   H8Y20423   0.995   3.653   3.222  0.2707  0.8084  1.6834
  179SLPC   C3920424   1.142   3.751   3.352 -0.3526  0.7933  0.4615
  179SLPC   H9X20425   1.063   3.826   3.375  0.0659  1.8413 -1.3462
  179SLPC   H9Y20426   1.237   3.802   3.329 -1.0106  2.0148  0.3533
  179SLPC  C31020427   1.162   3.637   3.458 -1.0376  0.4673 -0.5792
  179SLPC  H10X20428   1.220   3.555   3.411  0.8269  0.1698  2.0362
  179SLPC  H10Y20429   1.069   3.590   3.497  0.5110 -1.5391  0.9502
  179SLPC  C31120430   1.243   3.675   3.582 -0.3962  0.9379 -0.2854
  179SLPC  H11X20431   1.350   3.689   3.558 -0.0602 -1.1251 -0.1224
  179SLPC  H11Y20432   1.235   3.586   3.649 -0.5129  0.7354 -0.5688
  179SLPC  C31220433   1.194   3.799   3.658  0.6615  0.3744  0.3048
  179SLPC  H12X20434   1.083   3.791   3.669  0.7431 -1.1105  0.1727
  179SLPC  H12Y20435   1.205   3.880   3.582  1.0987  1.0922  1.1195
  179SLPC  C31320436   1.268   3.808   3.791 -0.0631 -0.1955 -0.3596
  179SLPC  H13X20437   1.266   3.904   3.846 -1.5366 -0.9418  0.9877
  179SLPC  H13Y20438   1.372   3.779   3.766 -0.0678  1.3801 -2.5434
  179SLPC  C31420439   1.225   3.703   3.888 -0.5086  0.9702 -0.3642
  179SLPC  H14X20440   1.258   3.600   3.862  1.1784  1.0811  1.1376
  179SLPC  H14Y20441   1.114   3.707   3.887 -0.7678 -2.5364 -0.8732
  179SLPC  C31520442   1.281   3.740   4.025 -0.4086  0.2264  0.0779
  179SLPC  H15X20443   1.235   3.839   4.047  1.8465  1.2849  0.3351
  179SLPC  H15Y20444   1.390   3.761   4.026 -0.0697 -1.3148  1.7048
  179SLPC  C31620445   1.239   3.646   4.141 -0.4515  0.0326 -0.4795
  179SLPC  H16X20446   1.294   3.551   4.159 -2.1030 -0.4689  2.5522
  179SLPC  H16Y20447   1.138   3.609   4.115  0.0152 -1.3069 -0.4313
  179SLPC  C31720448   1.241   3.737   4.269  0.1179  0.0278  0.2120
  179SLPC  H17X20449   1.166   3.700   4.342  0.2730 -0.6784  0.0176
  179SLPC  H17Y20450   1.208   3.839   4.239 -0.0688  0.1885  0.9364
  179SLPC  C31820451   1.373   3.732   4.337 -0.4348 -0.0003  0.8124
  179SLPC  H18X20452   1.455   3.773   4.275 -0.6144  0.5879  0.9532
  179SLPC  H18Y20453   1.408   3.628   4.353  1.0571  0.3320 -0.1608
  179SLPC  H18Z20454   1.367   3.779   4.438 -0.9266 -0.8289  1.1880
  180SLPC     N20455   6.502   2.880   2.124 -0.8063 -0.1719 -0.0376
  180SLPC   C1320456   6.452   3.020   2.149  0.6512 -0.6381 -0.2021
  180SLPC  H13A20457   6.404   3.019   2.245  3.4811 -3.0986  1.3540
  180SLPC  H13B20458   6.537   3.087   2.146 -0.3176  0.6318 -0.4068
  180SLPC  H13C20459   6.379   3.049   2.074  0.0327  0.5913  0.8258
  180SLPC   C1420460   6.574   2.840   2.249  0.0146  0.1538  0.5242
  180SLPC  H14A20461   6.605   2.738   2.234 -0.6133 -0.1910  1.4506
  180SLPC  H14B20462   6.662   2.900   2.268 -0.9284  1.0790  2.1737
  180SLPC  H14C20463   6.502   2.839   2.329  1.5651 -0.2548  1.9864
  180SLPC   C1520464   6.595   2.887   2.009  0.9415  0.0310  0.1080
  180SLPC  H15A20465   6.619   2.788   1.971  1.2563  0.2926 -0.3872
  180SLPC  H15B20466   6.547   2.932   1.923 -1.0049 -1.9164  0.0726
  180SLPC  H15C20467   6.684   2.947   2.020 -0.3086  2.1819 -0.8083
  180SLPC   C1220468   6.388   2.787   2.086 -0.0523 -0.0977 -0.2758
  180SLPC  H12A20469   6.340   2.814   1.992 -2.1902  1.9351  1.2471
  180SLPC  H12B20470   6.305   2.812   2.151 -1.7743 -1.9171 -1.6431
  180SLPC   C1120471   6.422   2.635   2.091  0.1855  0.0523 -0.6408
  180SLPC  H11A20472   6.332   2.582   2.050 -0.8704  0.3049  1.2266
  180SLPC  H11B20473   6.429   2.598   2.196  0.6314 -1.2618 -1.1160
  180SLPC     P20474   6.605   2.467   2.025 -0.5098  0.4521  0.1943
  180SLPC   O1320475   6.501   2.370   2.055  0.5119  0.2175 -0.1782
  180SLPC   O1420476   6.674   2.438   1.894  0.7842  0.1550 -0.0915
  180SLPC   O1220477   6.546   2.609   2.020 -0.5550 -0.2181  0.0057
  180SLPC   O1120478   6.707   2.468   2.139 -0.4659  0.1752 -0.1096
  180SLPC    C120479   6.824   2.542   2.122  0.3329  0.8641 -0.0345
  180SLPC    HA20480   6.895   2.478   2.065  2.1796  1.0519  1.9305
  180SLPC    HB20481   6.818   2.639   2.068  3.7862  0.5467 -1.2734
  180SLPC    C220482   6.893   2.568   2.262  0.1090 -0.2972  0.0723
  180SLPC    HS20483   6.946   2.474   2.288  1.1492 -0.2710 -1.8290
  180SLPC   O2120484   6.793   2.598   2.366 -0.4090 -0.1281  0.0860
  180SLPC   C2120485   6.733   2.504   2.425  1.1084  0.7557 -0.2847
  180SLPC   O2220486   6.765   2.383   2.426  0.2813 -0.0918  0.1256
  180SLPC   C2220487   6.612   2.563   2.502  0.3523  0.0703 -1.0490
  180SLPC   H2R20488   6.571   2.652   2.450 -0.6647  1.6734  2.2045
  180SLPC   H2S20489   6.535   2.483   2.494  0.1036 -0.0891  1.7546
  180SLPC    C320490   7.009   2.680   2.263 -0.1048  0.3644  0.5151
  180SLPC    HX20491   6.950   2.756   2.207 -1.6157 -0.2399  1.2450
  180SLPC    HY20492   7.098   2.662   2.199  0.4062 -0.6222  1.4740
  180SLPC   O3120493   7.044   2.727   2.394  0.4531  0.2381  0.1475
  180SLPC   C3120494   7.166   2.684   2.440  0.1390  0.0054 -0.3394
  180SLPC   O3220495   7.236   2.599   2.387 -0.2549 -0.0310 -0.3152
  180SLPC   C3220496   7.191   2.761   2.574  0.1834  0.4301  0.3642
  180SLPC   H2X20497   7.095   2.764   2.630 -0.0401  1.0485 -0.0452
  180SLPC   H2Y20498   7.214   2.864   2.541  1.6637  0.2862  0.8748
  180SLPC   C2320499   6.633   2.598   2.646  0.0702  0.1581  0.0327
  180SLPC   H3R20500   6.687   2.694   2.664 -0.6175  0.1302  2.8000
  180SLPC   H3S20501   6.694   2.518   2.694  0.8642  0.4801 -0.4234
  180SLPC   C2420502   6.497   2.615   2.717  0.6029 -0.0003 -0.0336
  180SLPC   H4R20503   6.433   2.529   2.688  0.2157 -0.4801  2.0450
  180SLPC   H4S20504   6.443   2.698   2.669  1.8895  0.4701 -0.7181
  180SLPC   C2520505   6.510   2.628   2.862  0.4141  0.3058 -0.2028
  180SLPC   H5R20506   6.584   2.709   2.882  1.9270 -0.5343 -2.0372
  180SLPC   H5S20507   6.557   2.540   2.911 -0.7277 -0.7798 -0.9896
  180SLPC   C2620508   6.369   2.653   2.930 -0.6425 -0.2344  0.4182
  180SLPC   H6R20509   6.305   2.586   2.869  0.2311  0.2930 -1.1339
  180SLPC   H6S20510   6.341   2.759   2.914 -0.5227  0.0559  1.9218
  180SLPC   C2720511   6.363   2.602   3.072  0.0110 -0.7412 -0.0797
  180SLPC   H7R20512   6.392   2.495   3.080 -1.0289 -0.9065  2.5656
  180SLPC   H7S20513   6.260   2.622   3.108 -0.1432  0.7811 -1.2700
  180SLPC   C2820514   6.451   2.693   3.160  0.1187 -0.0808  0.4208
  180SLPC   H8R20515   6.422   2.799   3.142 -1.1887 -0.5021 -0.0389
  180SLPC   H8S20516   6.555   2.682   3.121 -0.1027 -0.1065 -0.1683
  180SLPC   C2920517   6.436   2.655   3.305  1.0316  0.1500  0.1137
  180SLPC   H9R20518   6.332   2.646   3.340  1.2358 -0.8482  0.5191
  180SLPC  C21020519   6.530   2.617   3.395  0.0259  0.3355  0.6925
  180SLPC  H10R20520   6.507   2.565   3.489  1.7377 -0.3630  0.7647
  180SLPC  C21120521   6.681   2.621   3.367  0.4506  0.2381  0.0906
  180SLPC  H11R20522   6.711   2.717   3.320  0.9924 -0.9100 -2.0392
  180SLPC  H11S20523   6.708   2.538   3.298 -1.0663 -0.8595  0.7719
  180SLPC  C21220524   6.762   2.610   3.494 -0.4513 -0.9444 -0.0147
  180SLPC  H12R20525   6.813   2.513   3.504 -1.5723 -1.3392  2.9495
  180SLPC  C21320526   6.760   2.695   3.595  0.1026 -0.2839  0.0484
  180SLPC  H13R20527   6.816   2.672   3.687 -1.5818  1.6545  1.6520
  180SLPC  C21420528   6.698   2.836   3.605  0.6693 -0.2946  0.6731
  180SLPC  H14R20529   6.627   2.842   3.690 -0.6907  1.6004 -0.5252
  180SLPC  H14S20530   6.645   2.865   3.512  0.1682  0.6887  1.2569
  180SLPC  C21520531   6.799   2.957   3.628 -0.2615 -0.7090  1.1114
  180SLPC  H15R20532   6.734   3.042   3.600  0.6067  0.2041  1.7895
  180SLPC  H15S20533   6.876   2.946   3.548 -1.2549  0.9476 -0.1405
  180SLPC  C21620534   6.864   2.963   3.764  0.3151  0.0960  0.2920
  180SLPC  H16R20535   6.926   2.871   3.761  0.3335  0.1240 -1.7758
  180SLPC  H16S20536   6.790   2.947   3.846 -3.7449  0.9107 -2.8677
  180SLPC  C21720537   6.939   3.087   3.784  0.2493  0.2405 -0.3872
  180SLPC  H17R20538   6.861   3.162   3.807 -0.3695 -0.2816 -0.7513
  180SLPC  H17S20539   6.978   3.114   3.683 -1.3544 -0.4975 -1.2375
  180SLPC  C21820540   7.045   3.084   3.896  0.6443  0.3695 -0.2673
  180SLPC  H18R20541   7.009   3.016   3.975  0.2531  0.0325 -0.7268
  180SLPC  H18S20542   7.059   3.185   3.939 -1.6035  0.6099  0.0238
  180SLPC  H18T20543   7.143   3.049   3.856 -0.0562 -0.4522 -1.3544
  180SLPC   C3320544   7.317   2.704   2.641 -0.5524 -0.5322  0.4112
  180SLPC   H3X20545   7.395   2.677   2.567  0.4247  1.2661  0.7359
  180SLPC   H3Y20546   7.288   2.617   2.705  0.9155 -0.9760  0.5075
  180SLPC   C3420547   7.385   2.808   2.730 -0.7981  0.1506 -0.1004
  180SLPC   H4X20548   7.315   2.865   2.795  1.9268  1.1959  2.1118
  180SLPC   H4Y20549   7.445   2.878   2.668 -1.2437 -0.1787 -0.9326
  180SLPC   C3520550   7.483   2.747   2.831  0.3191  1.0482  0.3959
  180SLPC   H5X20551   7.574   2.702   2.785 -1.6073 -1.2982 -1.4623
  180SLPC   H5Y20552   7.426   2.672   2.891 -1.5012  2.4145  0.4588
  180SLPC   C3620553   7.539   2.853   2.924  1.0984 -0.4363 -0.3348
  180SLPC   H6X20554   7.458   2.901   2.982  1.2085 -1.0360  0.3323
  180SLPC   H6Y20555   7.584   2.929   2.856 -0.2864  0.4235 -0.3317
  180SLPC   C3720556   7.635   2.804   3.031 -0.7931 -0.1590 -0.2499
  180SLPC   H7X20557   7.696   2.891   3.064 -2.5659  1.0186  0.0313
  180SLPC   H7Y20558   7.713   2.742   2.981 -0.0265 -0.0190  0.7325
  180SLPC   C3820559   7.561   2.746   3.154 -0.0941  0.4913 -0.3916
  180SLPC   H8X20560   7.497   2.660   3.124 -0.9854  0.9004  0.2965
  180SLPC   H8Y20561   7.491   2.821   3.198  0.7092  1.1527 -0.2279
  180SLPC   C3920562   7.656   2.693   3.264 -0.3853 -1.4069 -0.6642
  180SLPC   H9X20563   7.736   2.632   3.217 -1.5684 -2.3802 -1.4734
  180SLPC   H9Y20564   7.601   2.621   3.329 -1.5907  0.4326  0.4424
  180SLPC  C31020565   7.697   2.801   3.360 -0.5977 -0.4325  0.3224
  180SLPC  H10X20566   7.614   2.863   3.402  0.1672  2.0350 -1.5541
  180SLPC  H10Y20567   7.750   2.874   3.296 -1.8506  0.1755 -0.0715
  180SLPC  C31120568   7.793   2.745   3.467 -0.8451 -0.0323 -0.8257
  180SLPC  H11X20569   7.881   2.706   3.411  1.2764  1.1697  1.4510
  180SLPC  H11Y20570   7.725   2.667   3.507  0.9608 -1.8868 -1.2292
  180SLPC  C31220571   7.848   2.846   3.568  0.0758 -0.4263 -0.3624
  180SLPC  H12X20572   7.900   2.931   3.521 -0.4267  0.3558  0.4634
  180SLPC  H12Y20573   7.934   2.802   3.622  1.8058  0.9696 -1.8534
  180SLPC  C31320574   7.748   2.906   3.658  0.0826 -0.2882  0.3301
  180SLPC  H13X20575   7.645   2.891   3.620 -0.2497  3.9542 -1.0166
  180SLPC  H13Y20576   7.761   3.016   3.667 -1.0946 -0.0481 -0.7026
  180SLPC  C31420577   7.751   2.835   3.794  0.3397  0.2609 -0.4787
  180SLPC  H14X20578   7.854   2.848   3.833  1.0773 -0.5468 -2.0880
  180SLPC  H14Y20579   7.748   2.727   3.769 -0.9137  0.4549 -1.2936
  180SLPC  C31520580   7.641   2.872   3.891  0.6005  1.0316 -0.1769
  180SLPC  H15X20581   7.547   2.872   3.831  1.9304 -0.4593 -2.4142
  180SLPC  H15Y20582   7.659   2.972   3.936  2.6059  0.5274  0.2423
  180SLPC  C31620583   7.614   2.766   4.006  0.4032 -0.1257  0.2326
  180SLPC  H16X20584   7.710   2.736   4.052  0.8229  1.7339  0.6407
  180SLPC  H16Y20585   7.569   2.674   3.963  0.4118 -1.5057  2.9572
  180SLPC  C31720586   7.514   2.821   4.107 -0.7842 -0.2547 -0.1060
  180SLPC  H17X20587   7.423   2.828   4.044 -1.4544  1.0694  0.9632
  180SLPC  H17Y20588   7.553   2.920   4.139  0.9286 -0.5105 -1.2722
  180SLPC  C31820589   7.506   2.741   4.235 -0.2307  0.1570  0.5129
  180SLPC  H18X20590   7.422   2.777   4.298 -2.0579  0.0661 -1.7383
  180SLPC  H18Y20591   7.603   2.738   4.287  0.8328  1.6687 -1.2542
  180SLPC  H18Z20592   7.480   2.637   4.207 -1.3424  0.3003  0.9728
  181SLPC     N20593   5.781   2.469   1.993 -0.3251 -0.4484  0.4005
  181SLPC   C1320594   5.773   2.586   1.894  0.6292  0.6129  0.5601
  181SLPC  H13A20595   5.842   2.576   1.811  0.5188  1.0091  0.4175
  181SLPC  H13B20596   5.672   2.580   1.857  1.9675 -1.3442 -3.3873
  181SLPC  H13C20597   5.793   2.680   1.943  0.8731  1.1110 -0.4605
  181SLPC   C1420598   5.921   2.436   2.042  0.5030 -0.0733  0.4484
  181SLPC  H14A20599   5.924   2.359   2.117  0.2691  1.3783  1.9997
  181SLPC  H14B20600   5.994   2.435   1.963 -1.1099  3.3118 -1.3113
  181SLPC  H14C20601   5.951   2.518   2.105 -1.7518  1.1273  0.0759
  181SLPC   C1520602   5.738   2.346   1.919  0.8111 -0.1548  0.4845
  181SLPC  H15A20603   5.732   2.268   1.993  1.1165  0.0902  0.7709
  181SLPC  H15B20604   5.654   2.362   1.852  0.7386 -0.6519  0.4486
  181SLPC  H15C20605   5.819   2.317   1.854  0.2177  0.3380 -0.4960
  181SLPC   C1220606   5.690   2.496   2.112  0.3630 -0.2040  0.3425
  181SLPC  H12A20607   5.665   2.407   2.168  1.6357 -0.0430  1.2033
  181SLPC  H12B20608   5.594   2.528   2.073 -0.1978 -1.7895  0.3074
  181SLPC   C1120609   5.729   2.605   2.214  0.2014 -0.2526 -0.3171
  181SLPC  H11A20610   5.821   2.579   2.272 -0.3688 -1.0499  0.2645
  181SLPC  H11B20611   5.643   2.603   2.285  0.4050  0.6326 -0.0290
  181SLPC     P20612   5.620   2.823   2.112 -0.2211 -0.0789  0.3737
  181SLPC   O1320613   5.602   2.807   1.970  0.2107 -0.2189  0.1315
  181SLPC   O1420614   5.507   2.783   2.194 -0.1108  0.1089 -0.0696
  181SLPC   O1220615   5.740   2.733   2.158 -0.2578  0.0534 -0.0605
  181SLPC   O1120616   5.676   2.967   2.145  0.5396  0.3403  0.3677
  181SLPC    C120617   5.774   2.986   2.246  0.1885  0.1863 -0.1835
  181SLPC    HA20618   5.860   2.917   2.239  1.6372  1.9861 -0.9637
  181SLPC    HB20619   5.821   3.085   2.228  3.5582 -1.3938 -0.7007
  181SLPC    C220620   5.715   2.975   2.393  0.2385  0.0372 -0.6011
  181SLPC    HS20621   5.704   2.865   2.399 -1.4445  0.2025 -0.0926
  181SLPC   O2120622   5.592   3.039   2.407 -0.3680  0.1109 -0.1423
  181SLPC   C2120623   5.513   2.995   2.506  0.1110  0.3283  0.3236
  181SLPC   O2220624   5.541   2.910   2.592 -0.3866  0.2101  0.4687
  181SLPC   C2220625   5.379   3.069   2.501 -0.6685  0.6736  0.1246
  181SLPC   H2R20626   5.395   3.173   2.535 -1.6261  1.4955 -1.7693
  181SLPC   H2S20627   5.351   3.067   2.393  0.8195  2.0826 -0.3197
  181SLPC    C320628   5.811   3.039   2.493  0.2999 -0.2846 -0.4419
  181SLPC    HX20629   5.791   3.148   2.484  0.1615 -0.2028  0.7583
  181SLPC    HY20630   5.917   3.013   2.473  0.7580 -0.3885  1.8361
  181SLPC   O3120631   5.785   3.017   2.635 -0.8011 -0.3788  0.5828
  181SLPC   C3120632   5.827   2.907   2.679 -0.1336  0.4768  0.0457
  181SLPC   O3220633   5.882   2.814   2.616  0.6394 -0.3611 -0.1408
  181SLPC   C3220634   5.787   2.888   2.832 -0.5711  0.7015  0.3210
  181SLPC   H2X20635   5.682   2.853   2.832 -1.1126  2.1071 -1.5907
  181SLPC   H2Y20636   5.799   2.987   2.882  0.1875 -0.3244  2.2380
  181SLPC   C2320637   5.265   2.991   2.575 -0.0997 -0.9435  0.2328
  181SLPC   H3R20638   5.276   2.881   2.577 -4.3337 -1.5112  0.0721
  181SLPC   H3S20639   5.170   3.013   2.521  0.0938  2.0793  0.9504
  181SLPC   C2420640   5.242   3.046   2.706  0.1185  0.1249 -1.0722
  181SLPC   H4R20641   5.138   3.023   2.736 -0.3605 -0.0553 -2.7633
  181SLPC   H4S20642   5.241   3.157   2.706 -1.2067  0.1694  1.1498
  181SLPC   C2520643   5.345   2.998   2.810 -0.0163 -0.0514  0.1758
  181SLPC   H5R20644   5.441   3.025   2.762 -1.7838  1.2248 -2.9725
  181SLPC   H5S20645   5.334   2.889   2.826  0.2412 -0.5026 -2.4172
  181SLPC   C2620646   5.335   3.061   2.954 -0.2097 -0.0296 -0.0742
  181SLPC   H6R20647   5.337   3.170   2.936 -1.0753  0.3473  1.8503
  181SLPC   H6S20648   5.425   3.032   3.013 -1.7449  1.2374  3.1201
  181SLPC   C2720649   5.214   3.034   3.041  0.0028  0.0134  0.3979
  181SLPC   H7R20650   5.207   2.923   3.051  2.3703 -0.2961 -0.6258
  181SLPC   H7S20651   5.124   3.063   2.983 -0.4888  0.0031  1.1482
  181SLPC   C2820652   5.210   3.093   3.186 -0.5113  0.5001  0.4919
  181SLPC   H8R20653   5.291   3.053   3.251 -0.3623 -1.2153 -0.6845
  181SLPC   H8S20654   5.109   3.069   3.225  0.0018 -1.0730  0.9325
  181SLPC   C2920655   5.214   3.246   3.172  0.5057 -0.0207 -0.3680
  181SLPC   H9R20656   5.195   3.301   3.079 -1.6406 -0.6996 -0.3966
  181SLPC  C21020657   5.221   3.324   3.278 -0.6329 -0.3532 -0.3044
  181SLPC  H10R20658   5.212   3.431   3.259 -1.1323 -0.1168  1.0936
  181SLPC  C21120659   5.241   3.294   3.428 -0.0263 -0.8324  1.0457
  181SLPC  H11R20660   5.164   3.221   3.460 -2.4693  0.4016 -1.5240
  181SLPC  H11S20661   5.195   3.385   3.473 -1.4346 -0.2119 -1.4784
  181SLPC  C21220662   5.385   3.272   3.479  0.5319 -0.4705 -0.1476
  181SLPC  H12R20663   5.466   3.294   3.408 -0.1134  0.0489 -0.7376
  181SLPC  C21320664   5.414   3.234   3.606 -0.0611  0.6190 -0.4387
  181SLPC  H13R20665   5.520   3.244   3.634 -0.3802  2.1111  0.3683
  181SLPC  C21420666   5.319   3.215   3.725  0.2255  0.5429  0.5281
  181SLPC  H14R20667   5.332   3.108   3.754  3.4520  0.1618 -1.7327
  181SLPC  H14S20668   5.214   3.242   3.700  0.5259  0.4125 -0.9481
  181SLPC  C21520669   5.354   3.301   3.848  0.3490  0.4229 -0.0013
  181SLPC  H15R20670   5.274   3.309   3.924  0.3248  0.5737 -0.0421
  181SLPC  H15S20671   5.373   3.405   3.812  0.3297  0.6950  0.7536
  181SLPC  C21620672   5.470   3.251   3.926  0.3370  0.6068  0.5541
  181SLPC  H16R20673   5.559   3.247   3.860 -0.4946 -3.0499 -0.5917
  181SLPC  H16S20674   5.454   3.148   3.966 -1.4302  0.7598  0.3370
  181SLPC  C21720675   5.516   3.331   4.052 -0.2673  0.1457  0.1648
  181SLPC  H17R20676   5.516   3.440   4.029  1.3393  0.0843 -0.2044
  181SLPC  H17S20677   5.618   3.306   4.087  0.1656  1.3080 -0.2370
  181SLPC  C21820678   5.406   3.322   4.166 -1.2344  0.1327 -0.3106
  181SLPC  H18R20679   5.400   3.217   4.202  0.6188 -0.1475 -0.7163
  181SLPC  H18S20680   5.307   3.345   4.121 -1.6683 -0.7809  0.1390
  181SLPC  H18T20681   5.431   3.385   4.254 -1.2982  0.9632 -0.8779
  181SLPC   C3320682   5.872   2.792   2.914  0.1564  0.3475  0.7236
  181SLPC   H3X20683   5.901   2.715   2.839 -1.7504  1.1415 -0.9127
  181SLPC   H3Y20684   5.817   2.742   2.997 -0.4750  1.3214  0.8984
  181SLPC   C3420685   6.004   2.854   2.959  1.2926 -0.9100 -0.2568
  181SLPC   H4X20686   5.976   2.952   3.002 -0.6114 -2.7511  3.1257
  181SLPC   H4Y20687   6.072   2.857   2.871 -0.1750  0.3731 -1.4180
  181SLPC   C3520688   6.059   2.778   3.083  0.3263  0.2567  0.4267
  181SLPC   H5X20689   6.161   2.819   3.075  0.2254  0.7432  1.4712
  181SLPC   H5Y20690   6.061   2.668   3.071  1.7856  0.5717 -3.8967
  181SLPC   C3620691   6.004   2.828   3.213  0.2192  0.0507  0.0885
  181SLPC   H6X20692   5.895   2.810   3.228  0.3088 -0.0047  0.6908
  181SLPC   H6Y20693   6.018   2.938   3.216 -0.6240  0.2109 -1.0804
  181SLPC   C3720694   6.087   2.782   3.333  0.2727 -0.4084 -0.0864
  181SLPC   H7X20695   6.196   2.797   3.317  0.2482 -2.2511 -2.6124
  181SLPC   H7Y20696   6.081   2.672   3.319  2.0767 -0.2387 -3.2144
  181SLPC   C3820697   6.031   2.823   3.465  0.0105 -0.4160  0.2966
  181SLPC   H8X20698   5.929   2.779   3.473  0.9111 -2.7546 -0.2824
  181SLPC   H8Y20699   6.017   2.934   3.464 -1.6251 -0.5452 -2.6079
  181SLPC   C3920700   6.121   2.782   3.578  0.1433  0.3495  0.5092
  181SLPC   H9X20701   6.225   2.822   3.577 -0.5034  2.1010  0.7645
  181SLPC   H9Y20702   6.137   2.672   3.586 -2.6641 -0.1645  0.1703
  181SLPC  C31020703   6.071   2.815   3.719  0.3091  0.1200 -0.1304
  181SLPC  H10X20704   5.965   2.784   3.707  1.1347 -2.1623 -2.6035
  181SLPC  H10Y20705   6.064   2.925   3.729  2.1487  0.1802  1.0044
  181SLPC  C31120706   6.138   2.741   3.838  0.1249 -0.3317  0.0647
  181SLPC  H11X20707   6.135   2.633   3.812  0.5998 -0.4903  0.6689
  181SLPC  H11Y20708   6.081   2.749   3.933  0.7821 -1.9145  0.6136
  181SLPC  C31220709   6.284   2.775   3.858 -0.1497 -0.9314 -0.2510
  181SLPC  H12X20710   6.296   2.885   3.861  0.1980 -0.9820  0.8987
  181SLPC  H12Y20711   6.332   2.741   3.764 -0.9388 -1.1420 -0.5856
  181SLPC  C31320712   6.354   2.720   3.987  0.1991 -0.3350  0.0351
  181SLPC  H13X20713   6.326   2.613   3.999 -0.2912 -0.1002  1.1170
  181SLPC  H13Y20714   6.325   2.762   4.086  1.8138  0.1030  0.3581
  181SLPC  C31420715   6.511   2.721   3.985  0.6022  0.2296 -0.2610
  181SLPC  H14X20716   6.547   2.825   4.002  2.7197 -0.3789 -0.6322
  181SLPC  H14Y20717   6.545   2.690   3.884  0.1371 -4.9546  0.9126
  181SLPC  C31520718   6.570   2.629   4.094  0.0862 -0.3961 -0.4518
  181SLPC  H15X20719   6.530   2.651   4.196 -1.3870 -3.9239 -0.1525
  181SLPC  H15Y20720   6.680   2.641   4.088 -0.1295  2.0249 -0.7672
  181SLPC  C31620721   6.543   2.482   4.059  0.0476  0.2218  0.1593
  181SLPC  H16X20722   6.506   2.482   3.954 -0.2785  0.9995  0.2722
  181SLPC  H16Y20723   6.460   2.443   4.122 -0.0340  0.0249 -0.0648
  181SLPC  C31720724   6.662   2.389   4.060  0.3174  0.3319  0.2569
  181SLPC  H17X20725   6.720   2.401   4.154 -0.8868  0.4869  1.0087
  181SLPC  H17Y20726   6.726   2.402   3.971  1.3817 -0.5831  0.8701
  181SLPC  C31820727   6.620   2.242   4.057  0.4189  0.0760 -0.2929
  181SLPC  H18X20728   6.705   2.171   4.050  0.3791  0.1736 -2.5858
  181SLPC  H18Y20729   6.566   2.229   3.961  0.4523  0.9236 -0.4306
  181SLPC  H18Z20730   6.539   2.216   4.128 -0.1305 -0.1348 -0.9892
  182SLPC     N20731   1.481   2.158   1.507 -0.1891 -0.1475 -0.2864
  182SLPC   C1320732   1.586   2.133   1.406 -0.1646  0.0814 -0.0038
  182SLPC  H13A20733   1.582   2.027   1.383 -0.2159 -0.5533  2.6632
  182SLPC  H13B20734   1.567   2.189   1.315  0.0615  0.0694 -0.0585
  182SLPC  H13C20735   1.680   2.167   1.446 -1.2681  1.4387  1.5622
  182SLPC   C1420736   1.483   2.057   1.615 -0.0319 -0.0246 -0.2112
  182SLPC  H14A20737   1.404   2.065   1.687 -2.1346 -0.1811 -2.3788
  182SLPC  H14B20738   1.490   1.958   1.571  1.3760  1.0967 -2.7389
  182SLPC  H14C20739   1.578   2.067   1.666  0.5259 -0.8751 -1.0264
  182SLPC   C1520740   1.342   2.142   1.448 -0.3428 -0.1379 -0.3465
  182SLPC  H15A20741   1.311   2.217   1.378 -3.4121 -0.4038  0.5735
  182SLPC  H15B20742   1.321   2.047   1.401 -0.1726  0.5770 -1.9220
  182SLPC  H15C20743   1.267   2.144   1.526  1.6854 -2.2282  1.8155
  182SLPC   C1220744   1.495   2.303   1.551 -0.1483 -0.4229  0.8236
  182SLPC  H12A20745   1.409   2.341   1.603  2.2960  0.8604  4.3236
  182SLPC  H12B20746   1.499   2.362   1.461 -1.5801 -0.4825  0.6968
  182SLPC   C1120747   1.611   2.339   1.638  0.6634  0.5663 -0.3399
  182SLPC  H11A20748   1.602   2.449   1.633 -1.6736  0.4948  0.7881
  182SLPC  H11B20749   1.708   2.307   1.596  1.0473  0.3223  0.7133
  182SLPC     P20750   1.469   2.332   1.861 -0.1388 -0.7851 -0.1435
  182SLPC   O1320751   1.385   2.440   1.803 -0.2523  0.0180 -0.7496
  182SLPC   O1420752   1.400   2.204   1.877  0.0005 -0.0717  0.1465
  182SLPC   O1220753   1.590   2.286   1.773 -0.7624 -0.1093 -0.0940
  182SLPC   O1120754   1.527   2.375   1.999  0.0527 -0.0935 -0.2139
  182SLPC    C120755   1.630   2.300   2.072  0.2588  0.6878 -0.4198
  182SLPC    HA20756   1.660   2.207   2.019 -0.7954 -1.3872  2.4014
  182SLPC    HB20757   1.719   2.365   2.084  0.7519 -0.4739  3.3682
  182SLPC    C220758   1.582   2.288   2.210 -0.1957 -0.0798 -1.1312
  182SLPC    HS20759   1.485   2.234   2.215 -0.5841  0.7538  1.3962
  182SLPC   O2120760   1.581   2.414   2.286 -0.1312 -0.5278  0.0742
  182SLPC   C2120761   1.474   2.484   2.286  0.4673  0.0033 -0.0979
  182SLPC   O2220762   1.372   2.460   2.232  0.4001  0.8329  0.1928
  182SLPC   C2220763   1.497   2.612   2.379  0.8952  0.5559  0.5661
  182SLPC   H2R20764   1.603   2.646   2.372  1.0109  0.2607  0.9190
  182SLPC   H2S20765   1.435   2.689   2.327  0.2289  0.8703  1.7875
  182SLPC    C320766   1.678   2.189   2.292  0.8488 -0.6993  0.3032
  182SLPC    HX20767   1.768   2.253   2.298 -0.2190  0.8110  0.6682
  182SLPC    HY20768   1.688   2.101   2.225  0.0590 -0.7924  0.3010
  182SLPC   O3120769   1.625   2.144   2.419  0.3533 -0.1079 -0.2990
  182SLPC   C3120770   1.721   2.083   2.493  0.2790  0.0083 -0.2111
  182SLPC   O3220771   1.841   2.083   2.460  0.3751  0.1793  0.4251
  182SLPC   C3220772   1.665   2.004   2.617 -0.5145 -0.9144 -0.5828
  182SLPC   H2X20773   1.726   1.913   2.633 -0.0019 -0.4709  0.0340
  182SLPC   H2Y20774   1.558   1.990   2.593 -1.0409  0.6242  0.6573
  182SLPC   C2320775   1.451   2.608   2.527  0.1566  0.2408  0.4438
  182SLPC   H3R20776   1.346   2.570   2.528 -0.7604  2.6254  0.2855
  182SLPC   H3S20777   1.453   2.713   2.564 -0.3871  1.2281 -2.1184
  182SLPC   C2420778   1.542   2.521   2.621 -0.2659  0.0804  0.2402
  182SLPC   H4R20779   1.650   2.546   2.606  0.3543 -1.0025  2.4715
  182SLPC   H4S20780   1.528   2.416   2.587 -1.8564  0.8207 -1.6017
  182SLPC   C2520781   1.506   2.535   2.771  0.1319  0.1888 -0.0235
  182SLPC   H5R20782   1.427   2.459   2.783  0.8470 -0.7361 -0.9429
  182SLPC   H5S20783   1.476   2.642   2.778  0.8760  0.3014  1.9583
  182SLPC   C2620784   1.625   2.502   2.857  0.4768  0.2828 -0.0840
  182SLPC   H6R20785   1.713   2.567   2.836  0.0399  0.1606 -2.6475
  182SLPC   H6S20786   1.644   2.394   2.842 -0.4803  0.1451 -0.4342
  182SLPC   C2720787   1.604   2.517   3.008  0.3205  0.1125 -0.4111
  182SLPC   H7R20788   1.517   2.451   3.027  1.1750 -0.9609 -0.1465
  182SLPC   H7S20789   1.583   2.620   3.044  0.3930 -0.5878  1.7519
  182SLPC   C2820790   1.716   2.455   3.091  0.0083  0.0382 -0.0206
  182SLPC   H8R20791   1.818   2.494   3.072  0.6252 -0.8743  1.3260
  182SLPC   H8S20792   1.722   2.352   3.050 -0.1961 -0.6178  1.5250
  182SLPC   C2920793   1.675   2.448   3.239  0.2147 -0.0550  0.1158
  182SLPC   H9R20794   1.584   2.393   3.268 -0.6886  1.1855 -0.3028
  182SLPC  C21020795   1.750   2.492   3.347  0.3487  0.6004  0.1760
  182SLPC  H10R20796   1.714   2.459   3.445  1.3397  1.0764  0.7184
  182SLPC  C21120797   1.877   2.573   3.338 -0.1158  0.4844 -0.1702
  182SLPC  H11R20798   1.900   2.622   3.242 -0.7145 -0.0077 -0.5736
  182SLPC  H11S20799   1.956   2.498   3.361  0.1568  1.0454  0.7903
  182SLPC  C21220800   1.862   2.686   3.445 -0.4944  0.0868  0.7101
  182SLPC  H12R20801   1.811   2.770   3.396  0.7425  0.5099  0.0850
  182SLPC  C21320802   1.907   2.699   3.574  0.0534 -0.6729 -1.0694
  182SLPC  H13R20803   1.875   2.789   3.630  0.1485 -1.6958  0.6781
  182SLPC  C21420804   1.990   2.603   3.659 -0.1355  0.0186  0.0954
  182SLPC  H14R20805   2.080   2.654   3.699 -1.3238  1.1962  1.3049
  182SLPC  H14S20806   2.024   2.507   3.612  0.0894  0.0750  0.1422
  182SLPC  C21520807   1.906   2.571   3.780  0.6972 -0.2393 -0.6756
  182SLPC  H15R20808   1.835   2.489   3.757 -0.3396  0.9518 -1.8669
  182SLPC  H15S20809   1.833   2.648   3.811 -0.8584 -1.8737 -0.1147
  182SLPC  C21620810   1.990   2.531   3.899  0.1710  0.3511 -0.0707
  182SLPC  H16R20811   2.072   2.462   3.870  0.3514 -0.3544  1.9092
  182SLPC  H16S20812   1.929   2.459   3.958 -1.1384  0.3719 -1.3629
  182SLPC  C21720813   2.054   2.649   3.982  0.1502  0.4087 -0.1840
  182SLPC  H17R20814   1.962   2.686   4.031 -1.3010 -0.3609 -2.1972
  182SLPC  H17S20815   2.101   2.726   3.918  1.2787 -0.7321 -0.7835
  182SLPC  C21820816   2.166   2.611   4.084 -0.3758 -0.0095  0.2677
  182SLPC  H18R20817   2.138   2.553   4.175  0.1820  2.4924  2.1402
  182SLPC  H18S20818   2.214   2.703   4.122  0.9395 -1.3094  1.9438
  182SLPC  H18T20819   2.247   2.559   4.028  0.0005  0.3915  0.4326
  182SLPC   C3320820   1.687   2.084   2.748 -0.0165  0.5315  0.2399
  182SLPC   H3X20821   1.635   2.182   2.742  0.1442  0.5587 -0.8073
  182SLPC   H3Y20822   1.795   2.109   2.757  0.0714 -0.3392  2.1923
  182SLPC   C3420823   1.630   1.993   2.858  0.2478 -0.3300  0.1166
  182SLPC   H4X20824   1.688   1.899   2.867 -0.3574 -0.5759  1.6660
  182SLPC   H4Y20825   1.526   1.966   2.829 -1.0567  3.2222  0.9916
  182SLPC   C3520826   1.608   2.070   2.992  0.7766 -0.6884 -0.3745
  182SLPC   H5X20827   1.532   2.149   2.971  1.0402 -0.4976 -0.6327
  182SLPC   H5Y20828   1.708   2.108   3.024  1.0472 -0.1154 -1.8064
  182SLPC   C3620829   1.572   1.983   3.109 -0.2391  0.5329 -0.2322
  182SLPC   H6X20830   1.637   1.892   3.113 -1.7700 -0.7789 -2.6937
  182SLPC   H6Y20831   1.466   1.953   3.097 -0.6467  2.1714 -0.8951
  182SLPC   C3720832   1.571   2.056   3.240 -0.0318 -0.0606 -0.1543
  182SLPC   H7X20833   1.501   2.142   3.241 -2.5873 -1.8697  3.7698
  182SLPC   H7Y20834   1.670   2.095   3.272  2.2171 -3.6528 -2.0286
  182SLPC   C3820835   1.519   1.974   3.356  0.0621 -0.4126  0.4727
  182SLPC   H8X20836   1.592   1.892   3.375 -0.1127 -0.8374 -0.6249
  182SLPC   H8Y20837   1.413   1.948   3.337 -0.1345  0.1386  0.7830
  182SLPC   C3920838   1.498   2.057   3.490 -1.0117  0.6136  0.9794
  182SLPC   H9X20839   1.442   1.993   3.562  0.3368 -1.1754  0.5150
  182SLPC   H9Y20840   1.439   2.149   3.472 -0.6295  0.9726  1.5283
  182SLPC  C31020841   1.620   2.108   3.566 -0.1774 -0.2253 -0.0370
  182SLPC  H10X20842   1.687   2.171   3.504  0.1987 -1.8849 -1.3995
  182SLPC  H10Y20843   1.680   2.020   3.597  1.7513  0.8323 -0.6540
  182SLPC  C31120844   1.579   2.184   3.693  0.2552 -0.5873  0.0750
  182SLPC  H11X20845   1.509   2.116   3.746  0.9301  0.0209  1.8114
  182SLPC  H11Y20846   1.525   2.278   3.668 -1.1061 -1.4000 -0.1662
  182SLPC  C31220847   1.704   2.213   3.773  0.4552  0.3337 -0.3953
  182SLPC  H12X20848   1.795   2.267   3.738 -0.2677  0.7981 -1.6223
  182SLPC  H12Y20849   1.748   2.114   3.798 -1.2697 -0.6735 -1.1973
  182SLPC  C31320850   1.672   2.256   3.921 -0.5508 -0.1787 -0.0426
  182SLPC  H13X20851   1.758   2.274   3.988 -1.2880  0.7419  0.6939
  182SLPC  H13Y20852   1.620   2.171   3.969 -0.1760  0.0525  0.7791
  182SLPC  C31420853   1.578   2.378   3.941 -0.2544 -0.0152 -0.7995
  182SLPC  H14X20854   1.479   2.364   3.892  0.5846  0.1211 -2.6122
  182SLPC  H14Y20855   1.631   2.463   3.892 -0.6592 -0.1832 -1.5360
  182SLPC  C31520856   1.554   2.395   4.094  0.4202 -0.3386  0.3966
  182SLPC  H15X20857   1.538   2.505   4.106  0.2916 -0.4625  1.4701
  182SLPC  H15Y20858   1.642   2.364   4.153 -0.1764  0.9025  2.0273
  182SLPC  C31620859   1.424   2.345   4.163  0.3817  1.0716  0.3139
  182SLPC  H16X20860   1.430   2.234   4.156  0.6535  0.6848  4.5975
  182SLPC  H16Y20861   1.332   2.377   4.109 -0.8409 -0.2369  1.5740
  182SLPC  C31720862   1.421   2.378   4.315 -0.5171  0.7564  0.0972
  182SLPC  H17X20863   1.333   2.330   4.362  0.3443  0.7492  1.7830
  182SLPC  H17Y20864   1.402   2.487   4.321  3.3505  1.6963 -1.3084
  182SLPC  C31820865   1.546   2.335   4.397  0.1770  0.4627 -0.5472
  182SLPC  H18X20866   1.525   2.343   4.506  1.1777 -0.4750 -0.2575
  182SLPC  H18Y20867   1.632   2.404   4.381  0.2137  0.6529  0.4067
  182SLPC  H18Z20868   1.570   2.228   4.378 -3.3988 -0.6304  0.4019
  183SLPC     N20869   5.550   3.292   2.082 -0.1621 -0.6064  0.0730
  183SLPC   C1320870   5.447   3.188   2.118 -0.0985  0.6554  0.2899
  183SLPC  H13A20871   5.368   3.215   2.187  0.2556 -0.1074  1.0201
  183SLPC  H13B20872   5.410   3.153   2.023  1.3161 -1.9162  0.5959
  183SLPC  H13C20873   5.499   3.098   2.149  0.1589  0.5231 -0.5167
  183SLPC   C1420874   5.641   3.235   1.980  0.5300  0.2799 -0.7134
  183SLPC  H14A20875   5.667   3.136   2.013  0.4017  0.3889 -0.2778
  183SLPC  H14B20876   5.582   3.213   1.892 -0.3843  0.8311 -0.2492
  183SLPC  H14C20877   5.728   3.295   1.957  0.3361  1.3271  1.1026
  183SLPC   C1520878   5.637   3.328   2.203 -0.2565  0.9286  0.7744
  183SLPC  H15A20879   5.700   3.245   2.234 -0.1094 -0.0806 -1.9997
  183SLPC  H15B20880   5.694   3.417   2.179  0.5355  0.4131  0.7021
  183SLPC  H15C20881   5.576   3.360   2.286  1.4254 -0.1686  2.5309
  183SLPC   C1220882   5.479   3.409   2.025 -0.0797  0.0966 -0.6051
  183SLPC  H12A20883   5.441   3.375   1.929 -0.6279  0.9266 -0.6974
  183SLPC  H12B20884   5.547   3.485   1.991  1.3332  0.1136  2.0566
  183SLPC   C1120885   5.363   3.471   2.105 -0.3305 -0.5996 -0.4114
  183SLPC  H11A20886   5.335   3.567   2.057  0.3283  0.7064  1.6866
  183SLPC  H11B20887   5.404   3.492   2.206 -2.3394 -2.7364  0.9618
  183SLPC     P20888   5.162   3.371   2.004  0.0621 -0.1543 -0.3602
  183SLPC   O1320889   5.141   3.509   1.950  0.3499 -0.1762  0.0790
  183SLPC   O1420890   5.221   3.275   1.909  0.4953  0.0971 -0.0669
  183SLPC   O1220891   5.255   3.379   2.130 -0.2960 -0.5214  0.5376
  183SLPC   O1120892   5.031   3.311   2.064  0.7096  0.2532 -0.1605
  183SLPC    C120893   4.937   3.394   2.129 -0.2950  0.4880 -0.0274
  183SLPC    HA20894   4.984   3.491   2.160 -1.5550  1.3501 -0.7317
  183SLPC    HB20895   4.851   3.427   2.068 -1.9236 -0.2443  1.7866
  183SLPC    C220896   4.878   3.329   2.251  0.1657 -0.7617  0.1717
  183SLPC    HS20897   4.795   3.392   2.290  2.5164  1.9459  1.1817
  183SLPC   O2120898   4.978   3.300   2.346  0.4589  0.4542 -0.1898
  183SLPC   C2120899   4.995   3.402   2.430 -0.9259 -0.0140 -0.1687
  183SLPC   O2220900   4.948   3.515   2.417 -0.1660 -0.4578 -0.0381
  183SLPC   C2220901   5.061   3.348   2.555 -0.5166 -0.4171  0.2477
  183SLPC   H2R20902   5.005   3.255   2.578 -0.1959 -0.9656 -1.0588
  183SLPC   H2S20903   5.168   3.327   2.533 -0.3955  1.5401 -1.3825
  183SLPC    C320904   4.805   3.195   2.203 -0.6707  0.1545  0.4854
  183SLPC    HX20905   4.877   3.124   2.156 -1.7763 -0.2204 -0.6952
  183SLPC    HY20906   4.739   3.219   2.118  0.5350 -1.6515 -1.0374
  183SLPC   O3120907   4.736   3.132   2.320  0.8114 -0.1381 -0.0964
  183SLPC   C3120908   4.802   3.038   2.379  0.3360  0.4373  0.1619
  183SLPC   O3220909   4.922   3.015   2.368 -0.4966 -0.3093  0.0364
  183SLPC   C3220910   4.723   2.958   2.488  0.1854 -0.0784  0.1176
  183SLPC   H2X20911   4.749   2.855   2.455  1.5327  0.0604  0.6781
  183SLPC   H2Y20912   4.613   2.973   2.486  0.2030 -0.0492 -0.8193
  183SLPC   C2320913   5.049   3.450   2.678  0.2185 -0.1737  0.4469
  183SLPC   H3R20914   4.940   3.467   2.690  0.4789  3.5191 -0.9015
  183SLPC   H3S20915   5.083   3.552   2.651 -1.4195  0.3324  0.1503
  183SLPC   C2420916   5.126   3.408   2.805 -0.2684 -0.5234 -0.1216
  183SLPC   H4R20917   5.108   3.300   2.824  0.4495 -0.1747  3.1242
  183SLPC   H4S20918   5.087   3.465   2.892  0.0751  0.8467 -0.8314
  183SLPC   C2520919   5.283   3.438   2.809  0.4916  0.3484  0.2171
  183SLPC   H5R20920   5.323   3.410   2.709  1.3121 -0.9144  0.8730
  183SLPC   H5S20921   5.333   3.370   2.881  1.9467 -0.3186 -1.3572
  183SLPC   C2620922   5.320   3.588   2.846  0.3814  0.1584 -0.7433
  183SLPC   H6R20923   5.268   3.652   2.771 -0.4518  1.0808  0.5926
  183SLPC   H6S20924   5.427   3.601   2.819  1.3578 -2.9992  1.0861
  183SLPC   C2720925   5.290   3.644   2.984 -0.2805  0.2308 -0.2693
  183SLPC   H7R20926   5.315   3.559   3.051 -4.1025 -0.3800  0.5738
  183SLPC   H7S20927   5.186   3.675   3.004 -1.5357 -3.0169 -1.0718
  183SLPC   C2820928   5.378   3.773   3.011 -0.5492  0.0956 -0.0979
  183SLPC   H8R20929   5.343   3.849   2.937 -0.4511  0.3351  0.0999
  183SLPC   H8S20930   5.483   3.737   2.996 -0.0930 -0.1477  3.0764
  183SLPC   C2920931   5.351   3.828   3.153 -0.3664  0.2417  0.7582
  183SLPC   H9R20932   5.253   3.877   3.161  0.1144  1.3372  0.1030
  183SLPC  C21020933   5.438   3.836   3.249 -0.5641  0.4693 -0.1661
  183SLPC  H10R20934   5.401   3.876   3.344  0.9415  2.1384 -0.2171
  183SLPC  C21120935   5.579   3.781   3.255  0.2989  0.0702 -0.6003
  183SLPC  H11R20936   5.643   3.850   3.314  0.2315  0.8439 -1.4148
  183SLPC  H11S20937   5.628   3.803   3.158  0.0214 -0.2598 -0.8150
  183SLPC  C21220938   5.577   3.630   3.296  0.2618  0.9040  0.5284
  183SLPC  H12R20939   5.521   3.568   3.226 -1.4022  3.1418 -0.2439
  183SLPC  C21320940   5.612   3.581   3.418  0.2287  0.1660 -0.4862
  183SLPC  H13R20941   5.587   3.475   3.433 -0.6784  0.2709 -1.1482
  183SLPC  C21420942   5.674   3.654   3.534  0.2873 -0.5660 -0.4037
  183SLPC  H14R20943   5.692   3.762   3.519 -1.1425  0.2135  2.6818
  183SLPC  H14S20944   5.773   3.616   3.568  0.6253  0.1793 -0.5437
  183SLPC  C21520945   5.575   3.657   3.657  0.0129  0.4843 -0.3453
  183SLPC  H15R20946   5.520   3.561   3.669 -0.0278  0.6168  0.6458
  183SLPC  H15S20947   5.487   3.723   3.639  1.3307  1.9092 -1.7958
  183SLPC  C21620948   5.643   3.687   3.797 -0.4864 -0.0248 -0.1130
  183SLPC  H16R20949   5.713   3.770   3.772 -0.2753 -0.0420  0.4210
  183SLPC  H16S20950   5.706   3.600   3.826 -0.6928  0.4688  1.9497
  183SLPC  C21720951   5.561   3.729   3.919  0.8014 -0.7709  0.3947
  183SLPC  H17R20952   5.471   3.674   3.953 -0.7490  1.4598  0.0808
  183SLPC  H17S20953   5.527   3.831   3.892  2.3532 -1.0364 -3.1351
  183SLPC  C21820954   5.652   3.736   4.035  0.0109 -0.0719  0.1113
  183SLPC  H18R20955   5.599   3.768   4.127 -0.1548 -1.0363  0.3656
  183SLPC  H18S20956   5.743   3.800   4.025  0.7284 -0.9920  0.5446
  183SLPC  H18T20957   5.675   3.633   4.071 -1.2745 -0.7500 -0.9486
  183SLPC   C3320958   4.793   2.966   2.620  0.0986 -0.9467 -0.0555
  183SLPC   H3X20959   4.901   2.940   2.612  0.2950 -2.2290  4.2586
  183SLPC   H3Y20960   4.755   2.876   2.674  0.6975  0.0919  2.2104
  183SLPC   C3420961   4.765   3.092   2.696 -0.4378  0.3512 -0.1489
  183SLPC   H4X20962   4.658   3.107   2.722  0.0005 -1.3745  3.2399
  183SLPC   H4Y20963   4.821   3.175   2.648  0.5902  0.0930  0.5765
  183SLPC   C3520964   4.821   3.078   2.833 -0.7229  0.9953 -0.2633
  183SLPC   H5X20965   4.931   3.079   2.821 -0.4588  1.0171  1.8186
  183SLPC   H5Y20966   4.787   2.984   2.882 -0.9281  0.9585 -0.4708
  183SLPC   C3620967   4.773   3.196   2.920  0.1432 -0.6545  0.4120
  183SLPC   H6X20968   4.662   3.196   2.920  0.1088  1.3669 -0.6586
  183SLPC   H6Y20969   4.817   3.292   2.886  1.3015 -0.0663  3.2559
  183SLPC   C3720970   4.830   3.170   3.065 -0.7360  0.1765 -0.2119
  183SLPC   H7X20971   4.940   3.156   3.059 -1.0448 -1.8468 -2.6935
  183SLPC   H7Y20972   4.803   3.065   3.092  3.0447 -1.1977 -1.1457
  183SLPC   C3820973   4.771   3.263   3.173 -0.4888 -0.0362  0.2965
  183SLPC   H8X20974   4.665   3.230   3.181 -0.3909 -0.6206 -0.6412
  183SLPC   H8Y20975   4.778   3.369   3.140 -0.9288 -0.1663 -0.2328
  183SLPC   C3920976   4.826   3.259   3.311 -0.0770  0.3744 -0.0548
  183SLPC   H9X20977   4.920   3.315   3.327 -0.4549  1.6778 -2.0716
  183SLPC   H9Y20978   4.842   3.151   3.330 -1.2649  0.0292 -0.8958
  183SLPC  C31020979   4.729   3.299   3.425  0.1100  0.4588 -0.1835
  183SLPC  H10X20980   4.628   3.251   3.427 -0.6843  2.0518 -0.6414
  183SLPC  H10Y20981   4.723   3.408   3.407  0.4616  0.2563 -1.6040
  183SLPC  C31120982   4.789   3.275   3.563 -0.4635  0.0156 -0.5195
  183SLPC  H11X20983   4.889   3.322   3.565 -0.8093  0.7712  0.6265
  183SLPC  H11Y20984   4.811   3.168   3.586  2.6135  0.4539 -1.1363
  183SLPC  C31220985   4.691   3.326   3.664 -0.1404 -0.3706  0.1358
  183SLPC  H12X20986   4.589   3.282   3.669 -0.0263 -0.6213  0.2598
  183SLPC  H12Y20987   4.669   3.434   3.649 -4.4338 -0.7678  2.0814
  183SLPC  C31320988   4.743   3.290   3.807 -0.3318  1.0925 -0.0003
  183SLPC  H13X20989   4.854   3.289   3.804 -0.2985 -1.4914 -0.0697
  183SLPC  H13Y20990   4.717   3.184   3.830  1.4724  0.3803 -0.9766
  183SLPC  C31420991   4.692   3.358   3.940 -0.8371 -0.1748  0.0045
  183SLPC  H14X20992   4.700   3.469   3.950 -3.0844 -0.0619  1.0394
  183SLPC  H14Y20993   4.758   3.323   4.022  0.9649 -0.5442 -1.5322
  183SLPC  C31520994   4.552   3.316   3.970  0.3601 -0.2329 -0.1485
  183SLPC  H15X20995   4.549   3.207   3.990 -2.5080 -0.4622 -1.3344
  183SLPC  H15Y20996   4.479   3.333   3.888 -1.6883  1.4111  1.8747
  183SLPC  C31620997   4.499   3.385   4.097 -0.0044  0.1085 -0.5901
  183SLPC  H16X20998   4.396   3.344   4.108  1.2061 -3.2021 -0.5151
  183SLPC  H16Y20999   4.504   3.495   4.084  0.3827  0.1896  0.1711
  183SLPC  C31721000   4.566   3.343   4.226  0.2510  0.0577  1.2062
  183SLPC  H17X21001   4.668   3.387   4.225  0.7673 -0.7758  4.8592
  183SLPC  H17Y21002   4.584   3.233   4.221 -1.7489 -0.2600 -1.1813
  183SLPC  C31821003   4.492   3.384   4.349  0.2560  0.7406  0.3444
  183SLPC  H18X21004   4.406   3.319   4.373  0.7827  0.5718  1.8727
  183SLPC  H18Y21005   4.464   3.490   4.330  1.7269  1.0571 -0.1618
  183SLPC  H18Z21006   4.559   3.383   4.437  0.8477  0.2976 -0.1014
  184SLPC     N21007   4.917   6.165   2.044 -0.3766 -1.2577  0.6014
  184SLPC   C1321008   4.968   6.115   2.174  0.1456 -0.1006 -0.2634
  184SLPC  H13A21009   5.003   6.203   2.225 -3.0561  2.5575 -2.2393
  184SLPC  H13B21010   4.893   6.062   2.231 -0.8061 -1.5745 -2.7350
  184SLPC  H13C21011   5.047   6.042   2.161 -0.0141  0.0120 -2.1076
  184SLPC   C1421012   5.018   6.266   1.988 -1.3705  0.3055  0.4140
  184SLPC  H14A21013   5.110   6.220   1.957 -1.7789  1.2678 -2.4487
  184SLPC  H14B21014   4.978   6.310   1.898 -3.7456 -1.7012  0.3575
  184SLPC  H14C21015   5.044   6.350   2.050 -0.3519  1.6350 -1.7224
  184SLPC   C1521016   4.796   6.242   2.062  0.3780 -0.7324  0.2682
  184SLPC  H15A21017   4.808   6.323   2.133  3.3119 -1.6734  0.9890
  184SLPC  H15B21018   4.758   6.284   1.970 -2.3699 -1.6902  0.8655
  184SLPC  H15C21019   4.717   6.186   2.110  0.6335 -1.7800 -0.5153
  184SLPC   C1221020   4.892   6.054   1.947  0.5411 -0.2924  0.2953
  184SLPC  H12A21021   4.973   5.983   1.956 -0.3059 -1.4721 -1.0131
  184SLPC  H12B21022   4.889   6.101   1.850  1.1493 -1.2440 -0.2018
  184SLPC   C1121023   4.761   5.968   1.961  0.1220 -0.7442 -0.3728
  184SLPC  H11A21024   4.774   5.879   1.896 -1.1516 -2.0169  1.0556
  184SLPC  H11B21025   4.673   6.020   1.918  0.1471 -1.1636 -0.9463
  184SLPC     P21026   4.595   5.899   2.147 -0.3536 -0.5808  0.3635
  184SLPC   O1321027   4.539   6.003   2.235  0.2963  0.3069 -0.3367
  184SLPC   O1421028   4.507   5.862   2.036  0.2580 -0.0068  0.1018
  184SLPC   O1221029   4.744   5.936   2.100  0.0573 -0.4906  0.8082
  184SLPC   O1121030   4.623   5.765   2.232  0.1078  0.3898 -0.4826
  184SLPC    C121031   4.713   5.760   2.346  0.2645  0.3925  0.4075
  184SLPC    HA21032   4.787   5.679   2.330 -0.3611  0.0470 -0.9135
  184SLPC    HB21033   4.780   5.848   2.344  0.3395  0.3643 -2.5516
  184SLPC    C221034   4.648   5.726   2.484  0.3469  0.8305  0.4416
  184SLPC    HS21035   4.728   5.742   2.558  1.8221 -0.3743 -0.8248
  184SLPC   O2121036   4.599   5.591   2.493  0.4030  0.0748  0.5110
  184SLPC   C2121037   4.690   5.503   2.503 -0.4305 -0.4588  0.1793
  184SLPC   O2221038   4.808   5.517   2.507 -0.4983 -0.0744 -0.2056
  184SLPC   C2221039   4.615   5.373   2.510 -0.2846 -0.0873 -1.1405
  184SLPC   H2R21040   4.572   5.350   2.411 -0.1783 -1.7335 -0.8355
  184SLPC   H2S21041   4.688   5.291   2.526 -1.4980 -1.1374 -0.7856
  184SLPC    C321042   4.530   5.821   2.515  0.1021  0.0818 -0.9578
  184SLPC    HX21043   4.465   5.824   2.425  1.2025  2.2724 -1.7639
  184SLPC    HY21044   4.578   5.919   2.537 -0.9099 -0.0335  2.4992
  184SLPC   O3121045   4.465   5.788   2.642  0.9139 -0.3924  0.1112
  184SLPC   C3121046   4.347   5.853   2.664  0.6389  0.6899  0.7184
  184SLPC   O3221047   4.303   5.944   2.598  0.3619 -0.2255  0.2119
  184SLPC   C3221048   4.282   5.782   2.782  1.1527  0.0556 -0.0762
  184SLPC   H2X21049   4.308   5.674   2.782  1.2413  0.0474  1.4852
  184SLPC   H2Y21050   4.173   5.799   2.775  0.9964 -0.3052  1.2095
  184SLPC   C2321051   4.509   5.357   2.621 -0.0913  0.0695  0.8777
  184SLPC   H3R21052   4.462   5.257   2.620  0.4432 -0.2039  2.2076
  184SLPC   H3S21053   4.424   5.426   2.603 -0.9372 -1.1759 -0.0485
  184SLPC   C2421054   4.551   5.373   2.765  0.3434 -0.8019 -0.0163
  184SLPC   H4R21055   4.643   5.319   2.797  0.1451 -1.5823 -0.7394
  184SLPC   H4S21056   4.474   5.340   2.838  0.3963  2.1394  1.5025
  184SLPC   C2521057   4.577   5.520   2.821  0.3968  0.6132  0.0172
  184SLPC   H5R21058   4.489   5.588   2.807 -0.4763 -0.0855  1.8859
  184SLPC   H5S21059   4.665   5.570   2.774  0.8559  1.0478  1.3080
  184SLPC   C2621060   4.606   5.540   2.970  0.4696 -0.3126 -0.2335
  184SLPC   H6R21061   4.515   5.526   3.032  1.4928  2.2681  2.0831
  184SLPC   H6S21062   4.645   5.642   2.992 -0.6206 -0.0716  0.6655
  184SLPC   C2721063   4.696   5.430   3.036 -0.3742 -0.3039 -0.5819
  184SLPC   H7R21064   4.795   5.434   2.985 -1.0359  0.0765 -1.8612
  184SLPC   H7S21065   4.654   5.331   3.007 -0.8895  0.5108 -2.8014
  184SLPC   C2821066   4.710   5.444   3.183 -0.5087  0.1682 -0.9512
  184SLPC   H8R21067   4.773   5.357   3.213 -0.2416  0.3305 -1.0349
  184SLPC   H8S21068   4.611   5.437   3.232 -0.7952  1.0266 -1.3985
  184SLPC   C2921069   4.790   5.554   3.247 -0.2561  0.1207  0.1097
  184SLPC   H9R21070   4.879   5.588   3.194  0.6671 -3.3689 -0.8527
  184SLPC  C21021071   4.765   5.618   3.364 -0.8153 -0.3060  0.3514
  184SLPC  H10R21072   4.848   5.683   3.395  2.0536 -2.9944 -1.0561
  184SLPC  C21121073   4.650   5.597   3.453  0.0128 -0.2347  0.3098
  184SLPC  H11R21074   4.677   5.518   3.526  0.7753 -0.5230 -0.2649
  184SLPC  H11S21075   4.557   5.557   3.407 -0.9038 -0.4840  2.2653
  184SLPC  C21221076   4.630   5.729   3.521  0.7879 -0.4760  0.4251
  184SLPC  H12R21077   4.622   5.820   3.460  2.6011 -0.2865  0.3982
  184SLPC  C21321078   4.615   5.752   3.655 -0.5861  0.0636 -0.0406
  184SLPC  H13R21079   4.609   5.852   3.700 -0.2411 -0.1385  0.4696
  184SLPC  C21421080   4.618   5.643   3.752 -0.4531 -0.1666 -0.0760
  184SLPC  H14R21081   4.700   5.569   3.734 -1.4954 -1.2594 -0.4661
  184SLPC  H14S21082   4.524   5.584   3.758 -1.7011  1.7935  0.5767
  184SLPC  C21521083   4.634   5.683   3.899  0.1537  0.1440 -0.1324
  184SLPC  H15R21084   4.535   5.727   3.924  1.0400  1.5900  0.9899
  184SLPC  H15S21085   4.720   5.753   3.912  0.9052 -0.6907 -0.5197
  184SLPC  C21621086   4.651   5.565   3.996 -1.2192 -0.2303 -0.2489
  184SLPC  H16R21087   4.749   5.517   3.976 -0.8961  1.2877 -2.7216
  184SLPC  H16S21088   4.561   5.504   3.972 -1.9443  1.8933 -3.6232
  184SLPC  C21721089   4.638   5.614   4.139  0.2762 -0.0565 -0.7352
  184SLPC  H17R21090   4.578   5.707   4.153  1.1807  0.2784  1.2587
  184SLPC  H17S21091   4.738   5.653   4.167 -0.3260  0.6235  0.5313
  184SLPC  C21821092   4.588   5.512   4.237 -0.1533  0.1298 -0.5396
  184SLPC  H18R21093   4.492   5.484   4.187 -1.1555  2.4366 -0.0324
  184SLPC  H18S21094   4.564   5.560   4.334 -0.1635 -1.0871  0.0913
  184SLPC  H18T21095   4.651   5.422   4.255 -1.2624 -0.2507  2.0132
  184SLPC   C3321096   4.321   5.842   2.921 -0.8305 -0.1656  0.2802
  184SLPC   H3X21097   4.432   5.850   2.924 -0.9302  1.5905  0.1869
  184SLPC   H3Y21098   4.281   5.778   3.002 -0.8232 -2.6516 -1.5507
  184SLPC   C3421099   4.259   5.987   2.937 -0.2095  0.5198  0.2857
  184SLPC   H4X21100   4.152   5.982   2.905 -0.4766  0.9058  1.0955
  184SLPC   H4Y21101   4.323   6.053   2.876  0.4626  0.0437  0.4597
  184SLPC   C3521102   4.254   6.043   3.079  0.2947  0.2898  0.0488
  184SLPC   H5X21103   4.200   6.140   3.077 -1.4999 -0.6376  0.6316
  184SLPC   H5Y21104   4.355   6.075   3.111  0.2132  1.9426 -1.2402
  184SLPC   C3621105   4.189   5.958   3.186  0.0094  0.3047 -0.4408
  184SLPC   H6X21106   4.258   5.871   3.192 -1.1508 -0.5530  0.9668
  184SLPC   H6Y21107   4.084   5.927   3.165 -0.8961  2.0350  1.2522
  184SLPC   C3721108   4.184   6.030   3.318  0.2073  0.4122 -0.2350
  184SLPC   H7X21109   4.111   6.114   3.321 -1.1337 -0.7093 -0.5431
  184SLPC   H7Y21110   4.283   6.081   3.313 -0.8460  2.4269 -3.7755
  184SLPC   C3821111   4.175   5.936   3.448  0.4472  0.0085  0.1286
  184SLPC   H8X21112   4.266   5.874   3.461 -0.4682 -1.1173  1.4094
  184SLPC   H8Y21113   4.092   5.867   3.422  1.6042 -1.0935 -0.7662
  184SLPC   C3921114   4.143   6.005   3.578  0.4623  0.6149 -0.1216
  184SLPC   H9X21115   4.054   6.072   3.568  0.0156  0.0580  0.0901
  184SLPC   H9Y21116   4.214   6.086   3.606  1.8141  0.2647 -2.2661
  184SLPC  C31021117   4.107   5.911   3.697 -0.3155 -0.6535  0.1539
  184SLPC  H10X21118   4.188   5.835   3.710 -0.9617 -1.8717 -2.3215
  184SLPC  H10Y21119   4.018   5.855   3.661 -1.4334  1.9339 -1.3797
  184SLPC  C31121120   4.068   5.992   3.820  0.0599 -0.2070  0.2016
  184SLPC  H11X21121   3.978   6.057   3.813  0.9565  0.9173 -1.7022
  184SLPC  H11Y21122   4.150   6.063   3.842 -0.5428 -0.2813  3.1098
  184SLPC  C31221123   4.044   5.910   3.954  0.2628  0.2503  0.2430
  184SLPC  H12X21124   4.137   5.864   3.991  0.5519  1.4590  1.0666
  184SLPC  H12Y21125   3.985   5.817   3.938  3.0528 -2.0009  2.0186
  184SLPC  C31321126   3.971   5.993   4.064  0.4820  0.3205  0.8260
  184SLPC  H13X21127   3.910   5.922   4.124  1.4253 -0.8939  0.3834
  184SLPC  H13Y21128   3.899   6.066   4.020 -1.1272 -1.5440  0.1994
  184SLPC  C31421129   4.072   6.057   4.160 -0.0479  0.3150 -0.3387
  184SLPC  H14X21130   4.132   6.134   4.106  1.4743 -1.9603 -2.0403
  184SLPC  H14Y21131   4.140   5.984   4.208  0.3842  0.2968 -0.9733
  184SLPC  C31521132   4.006   6.132   4.275  0.1126  0.3222  0.1219
  184SLPC  H15X21133   3.951   6.051   4.328  1.7113  0.5400  2.2667
  184SLPC  H15Y21134   3.929   6.205   4.242  1.0960  1.6362  0.6634
  184SLPC  C31621135   4.108   6.202   4.366 -0.7944  0.0642 -0.1592
  184SLPC  H16X21136   4.139   6.297   4.318  1.4081 -1.5185 -2.0913
  184SLPC  H16Y21137   4.196   6.134   4.371 -0.1854  0.6867 -1.7914
  184SLPC  C31721138   4.047   6.217   4.506  0.3379 -0.3197 -0.2194
  184SLPC  H17X21139   4.017   6.112   4.530  0.7258 -0.3260  0.2540
  184SLPC  H17Y21140   3.951   6.273   4.509  1.7118  2.0990  0.8105
  184SLPC  C31821141   4.144   6.262   4.614  0.3748  0.0036  0.2444
  184SLPC  H18X21142   4.208   6.176   4.643  1.1828  0.5892  0.2180
  184SLPC  H18Y21143   4.093   6.299   4.706 -0.1776 -0.3396  0.0860
  184SLPC  H18Z21144   4.221   6.333   4.579  0.5349  0.4491  1.4350
  185POPC     N21145   6.778   1.016   7.091  0.2436 -0.3986  0.9161
  185POPC   C1221146   6.711   1.113   6.987 -0.0751  0.2569 -0.2821
  185POPC  H12A21147   6.689   1.212   7.025  1.0815  0.7470 -0.8163
  185POPC  H12B21148   6.619   1.069   6.952 -0.9623  1.1782  0.7969
  185POPC   C1321149   6.870   1.093   7.181 -0.0625 -0.6195  0.0598
  185POPC  H13A21150   6.916   1.174   7.126  0.4720 -0.3612  0.8633
  185POPC  H13B21151   6.811   1.142   7.258  1.0745  0.8441  0.0530
  185POPC  H13C21152   6.938   1.041   7.246 -1.7856 -0.1650  2.3972
  185POPC   C1421153   6.672   0.950   7.181  0.0662 -0.1824  0.3410
  185POPC  H14A21154   6.614   1.023   7.236 -2.7371 -0.5508 -1.9299
  185POPC  H14B21155   6.609   0.875   7.135  0.0921 -0.0077  0.0185
  185POPC  H14C21156   6.737   0.893   7.246  2.8225  1.4905 -0.7621
  185POPC   C1521157   6.849   0.905   7.018  0.3243 -0.4635 -0.2219
  185POPC  H15A21158   6.766   0.844   6.985  0.1031 -1.0417  1.3241
  185POPC  H15B21159   6.904   0.844   7.087  1.4902 -0.3429 -1.0128
  185POPC  H15C21160   6.907   0.939   6.933  2.1578 -0.9359  0.7948
  185POPC   C1121161   6.801   1.138   6.857  0.3192  0.0634  0.5620
  185POPC  H11A21162   6.739   1.196   6.785 -1.5240 -0.0574  1.9672
  185POPC  H11B21163   6.808   1.042   6.803  0.8448  1.6171 -2.3634
  185POPC     P21164   6.924   1.343   6.933 -0.5177 -0.3647  0.4131
  185POPC   O1321165   7.037   1.343   7.021 -0.0569 -0.1152 -0.2474
  185POPC   O1421166   6.790   1.385   6.973 -0.2490 -0.4925  0.1330
  185POPC   O1221167   6.925   1.195   6.881  0.2653  0.4923 -0.0764
  185POPC   O1121168   6.965   1.424   6.804 -0.2261 -0.7934  0.0119
  185POPC    C121169   6.884   1.424   6.685  0.7846  0.1737  0.6158
  185POPC    HA21170   6.896   1.516   6.623 -0.1619 -0.8780 -1.2063
  185POPC    HB21171   6.775   1.432   6.704  0.4980 -0.5910 -0.6123
  185POPC    C221172   6.923   1.313   6.584  0.2140 -0.5127 -0.6783
  185POPC    HS21173   6.870   1.217   6.602 -1.0046 -0.3151 -2.8971
  185POPC   O2121174   7.067   1.291   6.592 -0.1917 -1.6064  0.4582
  185POPC   C2121175   7.112   1.164   6.586 -0.2125 -0.3119  0.4105
  185POPC   O2221176   7.040   1.068   6.560 -0.4374  0.1467  0.6355
  185POPC   C2221177   7.258   1.150   6.621 -0.0650  0.5185  0.9985
  185POPC   H2R21178   7.264   1.135   6.730  0.8738 -2.4897  0.6288
  185POPC   H2S21179   7.310   1.245   6.595 -2.3930  2.2412  2.2882
  185POPC    C321180   6.893   1.349   6.431 -0.3591 -0.1758 -0.4241
  185POPC    HX21181   6.926   1.258   6.377 -0.1977 -0.0520 -0.5331
  185POPC    HY21182   6.965   1.430   6.406  0.0187  0.4739  2.3815
  185POPC   O3121183   6.756   1.379   6.411 -0.0104  0.2439 -0.0603
  185POPC   C3121184   6.731   1.442   6.299  0.1280  0.1145  0.6659
  185POPC   O3221185   6.812   1.457   6.208 -0.5252  0.3775 -0.1406
  185POPC   C3221186   6.575   1.448   6.280  0.0061 -0.2903 -0.4462
  185POPC   H2X21187   6.553   1.524   6.202 -0.0355  1.7599  1.4669
  185POPC   H2Y21188   6.528   1.478   6.376  0.9747  2.5636 -0.7803
  185POPC   C2321189   7.325   1.034   6.550 -0.5117 -0.3020 -0.5259
  185POPC   H3R21190   7.281   0.936   6.580  0.1150 -0.8201 -1.2520
  185POPC   H3S21191   7.433   1.047   6.575 -0.5772  2.0066 -1.2226
  185POPC   C2421192   7.325   1.037   6.393  0.6406  0.1838 -0.2280
  185POPC   H4R21193   7.341   1.142   6.360 -1.6106  1.0807  1.2727
  185POPC   H4S21194   7.225   1.006   6.355  0.2129  0.5004  0.6098
  185POPC   C2521195   7.432   0.952   6.337 -0.2912  0.1787  0.0631
  185POPC   H5R21196   7.447   0.859   6.396  0.1939  0.4353  0.3486
  185POPC   H5S21197   7.526   1.011   6.329 -1.2215  1.9300  1.2965
  185POPC   C2621198   7.405   0.911   6.191  0.0307 -0.8295  0.3399
  185POPC   H6R21199   7.392   1.009   6.141  0.9946 -0.2135  1.2463
  185POPC   H6S21200   7.306   0.862   6.186 -0.7121  0.5551  1.0319
  185POPC   C2721201   7.510   0.826   6.123 -0.2440  0.9154  0.0582
  185POPC   H7R21202   7.517   0.731   6.181 -1.4443 -0.5592 -2.0971
  185POPC   H7S21203   7.610   0.874   6.118  0.4932 -0.7039 -1.8623
  185POPC   C2821204   7.485   0.781   5.986  0.2187 -0.2322  0.0266
  185POPC   H8R21205   7.583   0.747   5.947 -1.1102 -2.3202 -1.7388
  185POPC   H8S21206   7.455   0.872   5.929  0.7650 -1.0328 -1.6000
  185POPC   C2921207   7.379   0.673   5.974 -0.5053 -1.1100  0.6697
  185POPC   H9121208   7.337   0.613   6.056 -4.0754 -1.7905 -1.4528
  185POPC  C21021209   7.343   0.613   5.858 -0.0092 -0.6834 -0.3564
  185POPC  H10121210   7.281   0.523   5.858  0.0164 -0.7058 -0.8112
  185POPC  C21121211   7.378   0.675   5.728 -0.1341  0.6816  0.2007
  185POPC  H11R21212   7.422   0.777   5.738 -0.2203  0.8363 -0.9441
  185POPC  H11S21213   7.287   0.682   5.665  0.4912 -0.6750 -0.9113
  185POPC  C21221214   7.484   0.597   5.654 -0.1389  0.2334  0.0960
  185POPC  H12R21215   7.575   0.570   5.712  0.9074  0.1440 -1.5244
  185POPC  H12S21216   7.515   0.660   5.568  2.6640  2.5092  2.5727
  185POPC  C21321217   7.412   0.474   5.598  0.1504 -0.5329  0.0891
  185POPC  H13R21218   7.312   0.513   5.570 -0.7193 -1.7094  1.4109
  185POPC  H13S21219   7.392   0.400   5.679  2.2456 -0.7238  0.4828
  185POPC  C21421220   7.478   0.405   5.475  0.2184 -0.5796  0.0475
  185POPC  H14R21221   7.521   0.482   5.408  2.8748 -2.5269 -0.6774
  185POPC  H14S21222   7.397   0.355   5.418 -0.6404 -0.2235  0.9351
  185POPC  C21521223   7.593   0.313   5.521 -0.7973  1.5791 -0.2153
  185POPC  H15R21224   7.565   0.222   5.579 -0.6377  1.1540 -0.7998
  185POPC  H15S21225   7.649   0.372   5.596 -1.3769 -0.1519  1.6690
  185POPC  C21621226   7.689   0.276   5.414 -0.6167 -0.2529 -0.0453
  185POPC  H16R21227   7.776   0.232   5.469 -0.3554 -0.2807 -0.4763
  185POPC  H16S21228   7.729   0.372   5.376  2.5421 -1.4429 -0.0807
  185POPC  C21721229   7.648   0.174   5.305 -0.5605 -1.0399  0.3525
  185POPC  H17R21230   7.554   0.215   5.261 -0.1624 -1.7360 -1.2091
  185POPC  H17S21231   7.623   0.082   5.362 -1.4447 -1.2480 -0.3532
  185POPC  C21821232   7.747   0.134   5.196  0.5779  0.9366  0.2893
  185POPC  H18R21233   7.780   0.225   5.141  0.9617  0.6003 -0.0355
  185POPC  H18S21234   7.702   0.059   5.128  1.0779  0.2495  0.7151
  185POPC  H18T21235   7.839   0.087   5.235  1.0242  2.0432  0.5965
  185POPC   C3321236   6.518   1.308   6.237  0.4179 -0.0731 -0.4216
  185POPC   H3X21237   6.407   1.307   6.233  0.3601  2.4383 -1.0729
  185POPC   H3Y21238   6.553   1.244   6.322  0.7817  1.7076  0.8425
  185POPC   C3421239   6.575   1.255   6.104  0.3959 -0.1005 -0.1274
  185POPC   H4X21240   6.533   1.153   6.089 -0.4672  0.2859 -0.3537
  185POPC   H4Y21241   6.686   1.258   6.111  0.7031  0.0879 -3.2993
  185POPC   C3521242   6.525   1.343   5.986  0.4122  0.3233  0.2157
  185POPC   H5X21243   6.567   1.444   6.004 -1.3712  0.6737  3.0438
  185POPC   H5Y21244   6.414   1.340   5.993  0.2057  2.0284 -1.4525
  185POPC   C3621245   6.572   1.292   5.851  0.2376  0.1634  0.1268
  185POPC   H6X21246   6.551   1.183   5.850  0.1345  0.1823  0.2421
  185POPC   H6Y21247   6.683   1.301   5.847  0.1329  1.4913 -0.1218
  185POPC   C3721248   6.502   1.351   5.738  0.4817  0.4055 -0.2629
  185POPC   H7X21249   6.528   1.458   5.745  0.2309  0.4225  0.4979
  185POPC   H7Y21250   6.392   1.336   5.746  0.4302  0.6573 -0.5120
  185POPC   C3821251   6.549   1.289   5.613 -0.4491 -0.1093  0.4507
  185POPC   H8X21252   6.530   1.180   5.601  4.6117 -1.1368 -0.9053
  185POPC   H8Y21253   6.660   1.294   5.605 -0.3411  0.2684  1.9614
  185POPC   C3921254   6.489   1.357   5.490  0.2777  0.1706  0.0243
  185POPC   H9X21255   6.529   1.459   5.469  0.0169  0.8448  2.5089
  185POPC   H9Y21256   6.380   1.356   5.512  0.5070 -3.0800  1.6534
  185POPC  C31021257   6.511   1.279   5.361 -0.2546 -0.2149 -0.2794
  185POPC  H10X21258   6.475   1.174   5.368  1.6565 -0.8050  1.8288
  185POPC  H10Y21259   6.621   1.272   5.347  0.0444  0.6606  1.3362
  185POPC  C31121260   6.440   1.339   5.240 -0.4463 -0.6036  0.1133
  185POPC  H11X21261   6.474   1.444   5.225  0.1629 -0.8429 -0.1929
  185POPC  H11Y21262   6.330   1.340   5.258 -0.4165  1.6291  0.4673
  185POPC  C31221263   6.473   1.266   5.108  0.7522  0.1944 -0.0631
  185POPC  H12X21264   6.451   1.158   5.119  0.7510  0.2165  0.1491
  185POPC  H12Y21265   6.578   1.286   5.079 -0.1251  3.3956 -1.5704
  185POPC  C31321266   6.397   1.321   4.983  0.1796  0.3698 -0.3066
  185POPC  H13X21267   6.409   1.431   4.987  0.7809  0.2996  0.0875
  185POPC  H13Y21268   6.293   1.283   4.993  0.6755 -0.7651  0.8157
  185POPC  C31421269   6.449   1.275   4.844  0.1272  0.2001  0.6930
  185POPC  H14X21270   6.414   1.171   4.825  0.3354  0.0185  1.2814
  185POPC  H14Y21271   6.560   1.285   4.841  0.4770 -2.6601 -2.8611
  185POPC  C31521272   6.393   1.361   4.728 -0.7201  0.3875 -0.3668
  185POPC  H15X21273   6.430   1.304   4.640  0.4771  0.3261  0.1578
  185POPC  H15Y21274   6.445   1.459   4.721 -1.4475  0.7694 -0.5397
  185POPC  C31621275   6.241   1.368   4.703 -0.0775 -0.3699  0.2451
  185POPC  H16X21276   6.193   1.275   4.666  2.4384 -0.9213 -1.8925
  185POPC  H16Y21277   6.222   1.458   4.641 -0.8091 -0.0798  0.8778
  185POPC  H16Z21278   6.198   1.406   4.799  0.9244  1.1211  0.1454
  186POPC     N21279   4.543   6.809   6.791 -0.3608 -0.1945 -0.1455
  186POPC   C1221280   4.528   6.748   6.659 -0.4069  0.2854  0.6972
  186POPC  H12A21281   4.473   6.818   6.598 -1.3785  0.8996  2.2135
  186POPC  H12B21282   4.471   6.657   6.665 -1.3078  0.8078  0.3103
  186POPC   C1321283   4.606   6.722   6.894  1.3810  0.2685  0.0842
  186POPC  H13A21284   4.549   6.630   6.892 -2.2879  2.3319 -1.2661
  186POPC  H13B21285   4.707   6.695   6.866  1.0942 -0.7067 -0.0439
  186POPC  H13C21286   4.622   6.763   6.993  0.6529  0.5875  0.0744
  186POPC   C1421287   4.631   6.926   6.785  0.1334 -0.8439  0.0787
  186POPC  H14A21288   4.619   6.982   6.876  0.3756 -1.4456  0.4888
  186POPC  H14B21289   4.731   6.890   6.764  1.2337  1.7947  0.3297
  186POPC  H14C21290   4.613   6.989   6.698  1.5210  1.3010  1.2555
  186POPC   C1521291   4.412   6.865   6.833  0.6096  0.0036  0.4290
  186POPC  H15A21292   4.420   6.900   6.935 -2.5989  0.5354  0.5976
  186POPC  H15B21293   4.330   6.795   6.830  0.4901  0.0979  1.2217
  186POPC  H15C21294   4.378   6.948   6.773 -0.6943 -0.7456  0.0940
  186POPC   C1121295   4.649   6.701   6.577 -0.5283  0.1184  0.1855
  186POPC  H11A21296   4.711   6.791   6.558 -0.6357 -0.1672 -1.7032
  186POPC  H11B21297   4.620   6.658   6.478 -2.0340 -0.9926  1.0733
  186POPC     P21298   4.744   6.453   6.620  0.3877  0.4106 -0.1650
  186POPC   O1321299   4.608   6.392   6.601  0.4642  0.2353  0.2057
  186POPC   O1421300   4.834   6.380   6.711  0.2393 -0.4571 -0.0189
  186POPC   O1221301   4.719   6.604   6.658 -0.1340  0.6020 -0.2421
  186POPC   O1121302   4.818   6.461   6.483  0.1085  0.1779  0.4386
  186POPC    C121303   4.959   6.483   6.479 -0.7763  0.3410 -0.0513
  186POPC    HA21304   5.017   6.393   6.507  0.7352  1.4956  0.6529
  186POPC    HB21305   4.998   6.556   6.553  1.4359 -2.6263  1.9516
  186POPC    C221306   5.011   6.543   6.343 -0.3804  0.1753  0.5010
  186POPC    HS21307   5.108   6.585   6.376 -0.5852 -1.0807  2.9373
  186POPC   O2121308   4.914   6.642   6.289  0.1882 -0.1841  0.6431
  186POPC   C2121309   4.920   6.759   6.343 -0.4863 -0.0887 -0.2409
  186POPC   O2221310   4.997   6.790   6.434 -0.1360 -0.6455  0.5606
  186POPC   C2221311   4.814   6.848   6.283 -0.9035 -0.1483 -0.4125
  186POPC   H2R21312   4.823   6.948   6.330 -0.1720  0.0570 -0.9684
  186POPC   H2S21313   4.714   6.801   6.295  0.3528 -2.8590  0.1329
  186POPC    C321314   5.038   6.429   6.241 -0.0941 -0.6027  0.6492
  186POPC    HX21315   4.951   6.362   6.227  0.6081 -1.6228  1.0623
  186POPC    HY21316   5.115   6.354   6.270  1.1333  0.2987 -0.1482
  186POPC   O3121317   5.078   6.484   6.113  0.1005 -0.9765  0.2664
  186POPC   C3121318   4.980   6.511   6.024  0.1042  0.3814  0.0334
  186POPC   O3221319   4.858   6.490   6.043  0.5602 -0.1023 -0.5100
  186POPC   C3221320   5.039   6.581   5.902 -0.3410 -0.2130 -0.2938
  186POPC   H2X21321   5.150   6.582   5.900 -0.2351 -3.0411 -1.1255
  186POPC   H2Y21322   5.007   6.687   5.901  0.4841  0.0813 -2.4106
  186POPC   C2321323   4.834   6.868   6.131 -0.0623 -0.9226  0.0365
  186POPC   H3R21324   4.761   6.941   6.090  0.2897 -0.4320  0.2736
  186POPC   H3S21325   4.812   6.776   6.073 -0.5045 -0.3619 -0.7028
  186POPC   C2421326   4.969   6.926   6.100 -0.2789  0.1949 -0.1377
  186POPC   H4R21327   5.039   6.840   6.093 -0.1127  0.4509 -2.8370
  186POPC   H4S21328   5.006   6.985   6.187  2.1161 -2.0325  0.4906
  186POPC   C2521329   4.982   7.005   5.970  0.2437 -0.5158 -0.1974
  186POPC   H5R21330   4.896   7.074   5.966 -1.3303 -2.3136  0.9968
  186POPC   H5S21331   4.962   6.925   5.895 -0.6539  1.2123 -1.9079
  186POPC   C2621332   5.112   7.075   5.955  0.2025  0.5697 -0.5025
  186POPC   H6R21333   5.191   6.997   5.969  1.0691  1.6581  1.0031
  186POPC   H6S21334   5.116   7.153   6.034 -0.0171  1.1630 -1.0672
  186POPC   C2721335   5.147   7.149   5.822 -0.2170  0.8589  0.5190
  186POPC   H7R21336   5.256   7.163   5.838 -0.1358  0.2757  0.5003
  186POPC   H7S21337   5.104   7.252   5.818  2.8036  2.2375  0.9105
  186POPC   C2821338   5.124   7.077   5.693 -0.0059 -0.5930  0.3199
  186POPC   H8R21339   5.147   7.146   5.609  0.5011  1.6905  2.2156
  186POPC   H8S21340   5.014   7.075   5.681 -0.2340 -1.5216  2.1920
  186POPC   C2921341   5.181   6.938   5.676 -0.1178  0.2144 -0.5208
  186POPC   H9121342   5.113   6.856   5.702 -1.8085  2.2213  1.9005
  186POPC  C21021343   5.302   6.909   5.628 -0.0352  0.1719  0.6301
  186POPC  H10121344   5.335   6.805   5.617 -1.8752 -0.4276  0.4483
  186POPC  C21121345   5.402   7.005   5.579 -0.2062  0.1801 -0.0826
  186POPC  H11R21346   5.482   7.018   5.654 -0.0223  0.8484 -0.3856
  186POPC  H11S21347   5.373   7.112   5.574 -1.6557 -0.2440 -1.7680
  186POPC  C21221348   5.470   6.967   5.450 -0.2507 -0.5487  0.2639
  186POPC  H12R21349   5.391   6.963   5.373  0.5602  0.4286 -0.6525
  186POPC  H12S21350   5.503   6.861   5.450  2.2811  0.1599  0.2501
  186POPC  C21321351   5.593   7.056   5.414  0.6003 -0.2357 -0.3262
  186POPC  H13R21352   5.672   7.043   5.491  1.0654  1.9152 -0.3743
  186POPC  H13S21353   5.561   7.162   5.417  2.1496  0.2828 -1.0127
  186POPC  C21421354   5.635   7.033   5.274 -0.2965  0.4667  0.7788
  186POPC  H14R21355   5.655   6.926   5.251 -0.7474  0.8088 -1.4543
  186POPC  H14S21356   5.735   7.072   5.247 -0.3403 -0.1309 -0.3197
  186POPC  C21521357   5.544   7.083   5.162 -0.1359  0.4409 -0.0288
  186POPC  H15R21358   5.515   7.187   5.186 -0.1945  0.1300  1.2932
  186POPC  H15S21359   5.448   7.027   5.153  0.3371 -0.5804  0.9556
  186POPC  C21621360   5.612   7.088   5.028 -0.2510 -0.1033  0.3724
  186POPC  H16R21361   5.704   7.150   5.019 -0.8333  0.5688 -1.8309
  186POPC  H16S21362   5.546   7.151   4.964  1.5270  0.3459 -1.1411
  186POPC  C21721363   5.663   6.959   4.961  0.5316  0.2040 -0.3204
  186POPC  H17R21364   5.579   6.888   4.945 -2.1953  2.3452  3.1230
  186POPC  H17S21365   5.722   6.913   5.043 -1.2521 -2.9891 -0.6887
  186POPC  C21821366   5.721   6.976   4.822  0.4744  0.5465 -0.5046
  186POPC  H18R21367   5.816   7.034   4.817  1.0432 -0.2471  0.5685
  186POPC  H18S21368   5.653   7.024   4.749  0.9656  1.8857 -0.1069
  186POPC  H18T21369   5.744   6.872   4.788  2.6566 -0.1866  2.7479
  186POPC   C3321370   4.982   6.532   5.763  0.0382  1.0023 -0.2571
  186POPC   H3X21371   5.015   6.605   5.686 -0.9790 -0.2694 -1.9668
  186POPC   H3Y21372   4.873   6.547   5.774  0.0027  1.6376 -1.3353
  186POPC   C3421373   5.039   6.392   5.722  0.8762 -0.0985 -0.0923
  186POPC   H4X21374   4.974   6.353   5.641  0.0357  2.1924 -0.5980
  186POPC   H4Y21375   5.053   6.325   5.809  1.2168  0.6222  0.4138
  186POPC   C3521376   5.167   6.406   5.643 -0.0628  0.4912  0.0685
  186POPC   H5X21377   5.202   6.306   5.610 -0.2425  0.8877 -1.3961
  186POPC   H5Y21378   5.236   6.452   5.717  0.9002 -1.3250  0.3657
  186POPC   C3621379   5.166   6.493   5.522 -0.2641 -0.5663  0.0282
  186POPC   H6X21380   5.151   6.601   5.546  0.5745 -0.1518 -1.1967
  186POPC   H6Y21381   5.098   6.457   5.442 -0.1828 -2.3027  0.6946
  186POPC   C3721382   5.313   6.488   5.471  0.8082 -0.4971  0.8327
  186POPC   H7X21383   5.346   6.383   5.462  0.4273 -0.6668  1.3919
  186POPC   H7Y21384   5.382   6.545   5.538  0.6432  0.9908 -0.2054
  186POPC   C3821385   5.330   6.549   5.331  0.2515  0.4416  0.5474
  186POPC   H8X21386   5.299   6.655   5.317 -1.6554 -0.2862 -1.2394
  186POPC   H8Y21387   5.271   6.483   5.264  2.7658 -0.3740 -1.0019
  186POPC   C3921388   5.470   6.541   5.285  0.6445  0.3631  0.7358
  186POPC   H9X21389   5.525   6.446   5.307  0.9380  0.3041 -0.1960
  186POPC   H9Y21390   5.532   6.623   5.325  0.2971  1.1407 -0.2772
  186POPC  C31021391   5.497   6.545   5.130 -0.3779  0.3970  0.7798
  186POPC  H10X21392   5.440   6.465   5.079 -0.4147 -0.0607  1.5265
  186POPC  H10Y21393   5.598   6.520   5.093 -1.4773  0.1905 -2.4058
  186POPC  C31121394   5.449   6.678   5.068  0.2670 -0.2021 -0.0972
  186POPC  H11X21395   5.503   6.765   5.111  1.0147 -0.2403 -0.9520
  186POPC  H11Y21396   5.342   6.681   5.100 -0.4359 -0.8984 -2.2361
  186POPC  C31221397   5.441   6.667   4.915  0.2940 -0.1856  0.6925
  186POPC  H12X21398   5.541   6.633   4.880 -1.6643 -2.7314 -3.1319
  186POPC  H12Y21399   5.431   6.769   4.873  2.2477  0.2924  1.2916
  186POPC  C31321400   5.337   6.568   4.871 -0.5089 -0.1671 -0.0771
  186POPC  H13X21401   5.248   6.574   4.938  0.4559  2.4763  1.1230
  186POPC  H13Y21402   5.373   6.463   4.869 -1.7086 -0.6053 -2.6605
  186POPC  C31421403   5.314   6.583   4.725  0.1506 -0.0120  0.3227
  186POPC  H14X21404   5.398   6.540   4.666 -0.2101  2.8697 -2.5685
  186POPC  H14Y21405   5.316   6.692   4.700  1.2916 -0.0901 -0.0033
  186POPC  C31521406   5.179   6.521   4.679 -0.2906 -0.7431 -0.5199
  186POPC  H15X21407   5.096   6.580   4.723  2.5707  0.7869  3.3819
  186POPC  H15Y21408   5.180   6.420   4.723 -2.5983 -0.1071  1.1675
  186POPC  C31621409   5.160   6.509   4.526  0.0216  0.1648  0.0746
  186POPC  H16X21410   5.229   6.434   4.481 -0.0034 -0.0397  0.3786
  186POPC  H16Y21411   5.183   6.609   4.482 -0.6033 -0.0419 -0.7489
  186POPC  H16Z21412   5.054   6.485   4.501  0.4365  0.4779 -2.1769
  187POPC     N21413   4.845   0.012   2.144  0.5929 -0.1238  0.5450
  187POPC   C1221414   4.934  -0.053   2.245 -0.3403  0.4460  0.3623
  187POPC  H12A21415   5.037  -0.066   2.214 -0.4855 -4.2748  1.1061
  187POPC  H12B21416   4.896  -0.146   2.284 -1.0266  1.2483  1.7013
  187POPC   C1321417   4.832  -0.079   2.021  0.7678  0.3616 -0.5857
  187POPC  H13A21418   4.784  -0.173   2.046  1.0147  0.0580 -1.2539
  187POPC  H13B21419   4.781  -0.033   1.938  0.5509  0.7418 -0.2519
  187POPC  H13C21420   4.927  -0.104   1.976 -0.1093 -0.1236 -2.2576
  187POPC   C1421421   4.704   0.025   2.202 -0.3041 -0.0088 -0.1993
  187POPC  H14A21422   4.648   0.100   2.148 -1.4715 -0.0900  0.8477
  187POPC  H14B21423   4.658  -0.072   2.200  1.0523 -0.7653  1.8297
  187POPC  H14C21424   4.707   0.063   2.304  0.1931  0.0183 -0.2179
  187POPC   C1521425   4.890   0.147   2.117  0.1637 -0.8577 -0.0624
  187POPC  H15A21426   4.890   0.200   2.211 -1.1576 -0.0334 -0.4958
  187POPC  H15B21427   4.819   0.196   2.052 -0.1402 -0.1030  0.8190
  187POPC  H15C21428   4.986   0.142   2.068  0.2818  0.5027 -0.0148
  187POPC   C1121429   4.933   0.020   2.384 -0.5488  0.8291  0.5243
  187POPC  H11A21430   4.961   0.127   2.372  0.5244  0.5093  0.0269
  187POPC  H11B21431   5.011  -0.039   2.437 -1.9077  0.1363  1.7892
  187POPC     P21432   4.772  -0.126   2.531  0.1233  0.1573  0.5016
  187POPC   O1321433   4.815  -0.246   2.455 -0.1545 -0.4997  0.1592
  187POPC   O1421434   4.628  -0.116   2.559 -0.2385 -0.0280  0.4515
  187POPC   O1221435   4.813   0.015   2.455 -0.0149 -0.1694  0.3784
  187POPC   O1121436   4.855  -0.122   2.666  0.0375 -0.0681  0.5500
  187POPC    C121437   4.897  -0.008   2.739  0.0470 -0.2017  0.0347
  187POPC    HA21438   4.854   0.090   2.707 -1.0881 -0.1494  1.5783
  187POPC    HB21439   5.007  -0.005   2.724  0.2358  1.5277  1.3169
  187POPC    C221440   4.869  -0.007   2.893  0.9373  0.2609 -0.2735
  187POPC    HS21441   4.929  -0.081   2.951 -1.0848 -2.9989 -2.0878
  187POPC   O2121442   4.724  -0.025   2.909 -0.0833 -1.3617 -0.3095
  187POPC   C2121443   4.696  -0.156   2.927  0.9767  0.5021 -0.3339
  187POPC   O2221444   4.773  -0.248   2.950  0.8723 -0.4548 -0.3502
  187POPC   C2221445   4.544  -0.180   2.932  0.0254 -0.3486  0.1186
  187POPC   H2R21446   4.504  -0.184   2.828  0.1235 -2.2126  0.1073
  187POPC   H2S21447   4.484  -0.094   2.970 -1.4177 -0.7346 -1.1499
  187POPC    C321448   4.903   0.129   2.960 -0.3650 -0.1543  0.7551
  187POPC    HX21449   4.844   0.206   2.907  0.4200  0.3361  0.5712
  187POPC    HY21450   5.009   0.155   2.935 -0.4437 -0.7224 -0.2363
  187POPC   O3121451   4.873   0.128   3.100  1.2151  0.1992  0.1722
  187POPC   C3121452   4.959   0.072   3.179  0.2274 -0.2945 -0.1147
  187POPC   O3221453   5.060   0.010   3.145 -0.4744 -0.4698  0.4668
  187POPC   C3221454   4.913   0.102   3.325 -0.2666  0.2675 -0.2528
  187POPC   H2X21455   4.805   0.126   3.336 -0.5829 -0.5716 -1.3664
  187POPC   H2Y21456   4.976   0.185   3.363 -1.5076  0.2478  2.0101
  187POPC   C2321457   4.510  -0.299   3.013  1.2479 -1.0382 -0.2909
  187POPC   H3R21458   4.576  -0.383   2.983  1.8789 -0.1017 -1.6020
  187POPC   H3S21459   4.401  -0.320   3.003  0.8644 -0.3052  1.8026
  187POPC   C2421460   4.532  -0.274   3.165  0.4968  0.5691  0.3402
  187POPC   H4R21461   4.465  -0.191   3.195 -0.3623  0.6645 -1.7138
  187POPC   H4S21462   4.634  -0.236   3.183 -0.1503  1.4139  2.5536
  187POPC   C2521463   4.509  -0.412   3.237  0.5256 -0.1554 -0.1551
  187POPC   H5R21464   4.584  -0.481   3.193 -0.4952 -1.4742  0.0989
  187POPC   H5S21465   4.408  -0.443   3.201  0.4565  0.7697 -0.7923
  187POPC   C2621466   4.517  -0.411   3.391  0.6882 -0.1466  0.1315
  187POPC   H6R21467   4.441  -0.338   3.426 -0.8389 -0.4146 -2.3776
  187POPC   H6S21468   4.615  -0.376   3.428  0.8804 -1.6180  1.1094
  187POPC   C2721469   4.475  -0.554   3.443 -0.7502  0.9794 -1.1636
  187POPC   H7R21470   4.500  -0.629   3.365 -1.0460 -0.2420 -0.1218
  187POPC   H7S21471   4.366  -0.554   3.461 -0.6816  1.3882 -0.7213
  187POPC   C2821472   4.564  -0.588   3.569 -0.0175 -0.1549  0.4343
  187POPC   H8R21473   4.586  -0.496   3.627  2.1950 -0.2254 -0.1839
  187POPC   H8S21474   4.660  -0.617   3.521 -0.3579 -1.8523  0.7098
  187POPC   C2921475   4.501  -0.704   3.646 -0.0986 -0.0732  0.1747
  187POPC   H9121476   4.507  -0.807   3.608 -1.6881 -0.8565  1.8905
  187POPC  C21021477   4.436  -0.684   3.762 -0.3039 -0.3488 -0.3190
  187POPC  H10121478   4.397  -0.775   3.811 -1.2037 -0.5734 -1.4203
  187POPC  C21121479   4.405  -0.561   3.842  0.3711 -0.5075  0.4925
  187POPC  H11R21480   4.420  -0.468   3.784 -0.1271  0.3160  1.6473
  187POPC  H11S21481   4.470  -0.555   3.933  0.8152 -0.4925  0.1779
  187POPC  C21221482   4.266  -0.570   3.892 -0.0011 -0.8997  1.0638
  187POPC  H12R21483   4.264  -0.666   3.946 -0.8019 -1.7584 -0.4283
  187POPC  H12S21484   4.201  -0.584   3.803  1.7496  1.2358 -0.6736
  187POPC  C21321485   4.211  -0.461   3.984  0.4500  0.1706  0.1590
  187POPC  H13R21486   4.283  -0.430   4.063 -0.2787  0.0623  0.8757
  187POPC  H13S21487   4.125  -0.519   4.023 -0.3893 -0.6563 -2.6380
  187POPC  C21421488   4.148  -0.342   3.908  0.3226 -1.3199  0.3171
  187POPC  H14R21489   4.237  -0.286   3.872 -0.9419 -0.0271 -0.9773
  187POPC  H14S21490   4.099  -0.282   3.987  0.5329 -0.3713 -0.2471
  187POPC  C21521491   4.062  -0.362   3.783 -0.2090  0.3626  0.0765
  187POPC  H15R21492   3.984  -0.436   3.811 -0.9007  0.9132 -0.3682
  187POPC  H15S21493   4.111  -0.416   3.699 -1.3835  0.8588 -0.9595
  187POPC  C21621494   3.982  -0.234   3.732 -0.1544  0.0530 -0.3556
  187POPC  H16R21495   3.915  -0.200   3.813  2.6878 -1.1521  2.7563
  187POPC  H16S21496   3.921  -0.258   3.642 -0.7085  1.1467 -0.2835
  187POPC  C21721497   4.083  -0.119   3.709  0.5049 -0.4803 -0.2654
  187POPC  H17R21498   4.121  -0.084   3.807 -0.2611  1.5019 -0.6321
  187POPC  H17S21499   4.027  -0.029   3.676 -0.9172 -1.4400 -0.6183
  187POPC  C21821500   4.201  -0.151   3.615  0.0943 -0.2719 -0.0922
  187POPC  H18R21501   4.269  -0.227   3.659  0.2179 -0.4808 -0.6396
  187POPC  H18S21502   4.258  -0.056   3.601 -1.4925  0.7199 -0.1094
  187POPC  H18T21503   4.178  -0.200   3.518  0.1434  1.8932 -1.2604
  187POPC   C3321504   4.935  -0.021   3.411 -0.1069  0.6606  0.1345
  187POPC   H3X21505   5.041  -0.045   3.434 -0.1620  0.1189 -0.1571
  187POPC   H3Y21506   4.903  -0.114   3.360 -2.4090  0.6536  1.4733
  187POPC   C3421507   4.855  -0.013   3.541  0.2030  0.1760  0.3842
  187POPC   H4X21508   4.852   0.095   3.569 -0.0881  0.0223  0.9541
  187POPC   H4Y21509   4.895  -0.072   3.626 -0.4279  0.7682  1.1130
  187POPC   C3521510   4.709  -0.063   3.538  0.9719 -0.6284 -0.4239
  187POPC   H5X21511   4.694  -0.172   3.527  0.8424 -0.8316  1.4359
  187POPC   H5Y21512   4.653  -0.017   3.453  0.6678 -1.3904 -0.6464
  187POPC   C3621513   4.631  -0.015   3.662  0.5147 -0.2830 -0.2342
  187POPC   H6X21514   4.531  -0.058   3.643 -1.0789  1.1546  3.7962
  187POPC   H6Y21515   4.626   0.096   3.657 -0.9115 -0.2317  1.4690
  187POPC   C3721516   4.682  -0.077   3.793  0.4581 -0.3272 -0.3364
  187POPC   H7X21517   4.770  -0.022   3.832 -0.2895  0.7540 -0.1290
  187POPC   H7Y21518   4.721  -0.180   3.776  1.4370  0.2708 -1.9012
  187POPC   C3821519   4.573  -0.087   3.904 -0.4462 -0.0363 -0.0008
  187POPC   H8X21520   4.479  -0.128   3.863  1.1358 -3.0424 -0.9297
  187POPC   H8Y21521   4.567   0.022   3.925 -1.4651 -0.1046  0.1077
  187POPC   C3921522   4.615  -0.173   4.026  0.0931  0.0342 -0.6977
  187POPC   H9X21523   4.720  -0.144   4.047  0.5970 -2.2153  0.1097
  187POPC   H9Y21524   4.607  -0.279   3.994 -0.9240  0.0555 -0.5261
  187POPC  C31021525   4.549  -0.130   4.157  0.2294  0.7580  1.1850
  187POPC  H10X21526   4.439  -0.140   4.142  0.7777 -1.7498 -2.1961
  187POPC  H10Y21527   4.579  -0.026   4.183  0.8284  2.0100 -3.4936
  187POPC  C31121528   4.582  -0.220   4.279  0.4251  0.4077  0.2947
  187POPC  H11X21529   4.556  -0.181   4.380  2.4420 -1.5305  1.6677
  187POPC  H11Y21530   4.692  -0.234   4.278  0.2447 -1.1814 -0.6902
  187POPC  C31221531   4.525  -0.365   4.267 -0.0430 -0.2344  0.6074
  187POPC  H12X21532   4.544  -0.416   4.171 -0.5958 -0.1044  0.4246
  187POPC  H12Y21533   4.414  -0.353   4.266 -0.1702 -1.3466  0.9135
  187POPC  C31321534   4.560  -0.448   4.384  0.3590  0.1323 -0.5599
  187POPC  H13X21535   4.526  -0.395   4.476  1.4876 -0.1836  0.0610
  187POPC  H13Y21536   4.668  -0.473   4.380  0.0667 -1.2385 -0.4322
  187POPC  C31421537   4.481  -0.584   4.386  0.2874 -0.1927  0.1338
  187POPC  H14X21538   4.372  -0.567   4.385 -0.0342 -2.0142 -0.5964
  187POPC  H14Y21539   4.505  -0.644   4.476  1.3156 -2.4651 -1.5361
  187POPC  C31521540   4.516  -0.673   4.264  0.7779  1.0616 -1.2969
  187POPC  H15X21541   4.624  -0.676   4.237  0.7023  0.8309 -1.5872
  187POPC  H15Y21542   4.449  -0.638   4.183 -2.1916 -1.4507 -0.0960
  187POPC  C31621543   4.468  -0.817   4.296 -0.7636  0.6609 -0.5090
  187POPC  H16X21544   4.358  -0.832   4.303 -0.5003 -0.5381  2.6744
  187POPC  H16Y21545   4.510  -0.850   4.393 -0.6733 -0.1128 -0.8055
  187POPC  H16Z21546   4.509  -0.889   4.221  0.9618 -0.3863  1.3335
  188POPC     N21547   3.649   4.792   1.417 -0.0503  0.1458  0.4903
  188POPC   C1221548   3.681   4.828   1.557 -0.5475  0.0938 -0.3049
  188POPC  H12A21549   3.787   4.843   1.572 -0.7736  0.2880  1.3697
  188POPC  H12B21550   3.658   4.743   1.620  0.5833 -0.7779 -1.0260
  188POPC   C1321551   3.722   4.884   1.326 -0.1946  0.1856 -0.9724
  188POPC  H13A21552   3.688   4.986   1.339 -0.3166  0.0782 -0.4381
  188POPC  H13B21553   3.827   4.880   1.352 -0.2897 -1.5426 -0.7640
  188POPC  H13C21554   3.713   4.858   1.221 -0.2494 -0.2366 -0.8628
  188POPC   C1421555   3.688   4.644   1.390  0.1432 -0.1050 -0.6340
  188POPC  H14A21556   3.795   4.638   1.407 -0.0434 -2.5649  0.1734
  188POPC  H14B21557   3.638   4.586   1.466 -0.3229  1.5551  0.3743
  188POPC  H14C21558   3.669   4.612   1.289 -0.2270 -2.2030  0.0313
  188POPC   C1521559   3.500   4.800   1.386  0.4813 -0.4161 -0.2026
  188POPC  H15A21560   3.459   4.899   1.399 -1.1179 -0.9745 -0.7345
  188POPC  H15B21561   3.443   4.733   1.449  1.5906 -1.0269  0.1783
  188POPC  H15C21562   3.480   4.781   1.282 -3.2030 -0.2216  0.3297
  188POPC   C1121563   3.616   4.953   1.627  0.6620 -0.2409  0.6304
  188POPC  H11A21564   3.641   4.942   1.735 -1.1618  2.9847  1.5126
  188POPC  H11B21565   3.506   4.940   1.625  0.9643 -3.3456 -1.0376
  188POPC     P21566   3.819   5.110   1.597  0.3859  0.1127  0.2097
  188POPC   O1321567   3.848   5.249   1.564 -0.3922  0.1361 -0.2465
  188POPC   O1421568   3.907   5.015   1.523 -0.0175  0.6465 -0.0146
  188POPC   O1221569   3.662   5.080   1.570  1.0606 -0.1298  0.4552
  188POPC   O1121570   3.824   5.087   1.756 -0.6709  0.1675 -0.1773
  188POPC    C121571   3.765   5.184   1.840  0.2929 -1.0906  0.2049
  188POPC    HA21572   3.656   5.191   1.819 -0.0172 -3.4148  0.7840
  188POPC    HB21573   3.814   5.283   1.837 -0.3296 -0.7479  0.9929
  188POPC    C221574   3.762   5.141   1.990 -0.2931 -0.5254  0.4763
  188POPC    HS21575   3.704   5.218   2.043  1.9842  1.8691 -0.2862
  188POPC   O2121576   3.900   5.144   2.045  0.1471 -0.0647  0.0852
  188POPC   C2121577   3.947   5.261   2.069  0.3834  0.0689 -0.1567
  188POPC   O2221578   3.884   5.368   2.049 -0.5773 -0.3805  0.3392
  188POPC   C2221579   4.084   5.251   2.128 -0.5856  0.0926  0.4808
  188POPC   H2R21580   4.112   5.352   2.164 -0.4047  0.7654 -1.4012
  188POPC   H2S21581   4.149   5.232   2.040  0.1007  0.5085  0.8897
  188POPC    C321582   3.688   5.000   2.020  0.1356 -0.9204 -1.0707
  188POPC    HX21583   3.720   4.920   1.950  0.4957 -2.1120  0.4112
  188POPC    HY21584   3.583   5.025   1.997 -0.0485  0.4709  1.0016
  188POPC   O3121585   3.692   4.958   2.155  0.3472  0.3238 -0.0374
  188POPC   C3121586   3.798   4.894   2.196 -0.0147 -0.0614  0.0730
  188POPC   O3221587   3.890   4.862   2.125 -0.0998 -0.0988  0.6054
  188POPC   C3221588   3.795   4.876   2.348  0.7129 -0.0070  0.1316
  188POPC   H2X21589   3.721   4.795   2.365 -1.1879  1.6656  0.1982
  188POPC   H2Y21590   3.738   4.962   2.389  0.2875 -0.5473  0.6883
  188POPC   C2321591   4.113   5.149   2.244  0.2647  0.2155  0.8542
  188POPC   H3R21592   4.188   5.077   2.204 -0.6404  0.3691 -1.2765
  188POPC   H3S21593   4.014   5.102   2.265  1.0805 -1.7647  0.5229
  188POPC   C2421594   4.174   5.206   2.377  0.0204 -1.0495 -0.1040
  188POPC   H4R21595   4.265   5.269   2.362  0.4023 -0.7869  2.7700
  188POPC   H4S21596   4.215   5.122   2.436  1.6550 -0.9975 -1.1122
  188POPC   C2521597   4.072   5.275   2.476  0.1242  0.0300  0.3753
  188POPC   H5R21598   3.979   5.215   2.478 -1.7611  2.7635 -0.5843
  188POPC   H5S21599   4.041   5.376   2.442 -2.6683 -0.0300  2.3994
  188POPC   C2621600   4.142   5.286   2.617 -0.2526 -0.3076 -0.0867
  188POPC   H6R21601   4.230   5.353   2.607  0.8103 -1.6631 -0.0895
  188POPC   H6S21602   4.169   5.185   2.655 -3.1917  0.1304  3.9180
  188POPC   C2721603   4.058   5.362   2.734 -0.4229 -0.7119  0.5637
  188POPC   H7R21604   3.975   5.292   2.758  0.4455 -1.3129  1.8873
  188POPC   H7S21605   4.017   5.458   2.696 -1.1345 -1.3035 -0.2180
  188POPC   C2821606   4.136   5.407   2.856 -0.0967  0.2942 -0.2914
  188POPC   H8R21607   4.177   5.506   2.824 -2.0041  1.1696 -0.1681
  188POPC   H8S21608   4.208   5.326   2.877 -0.1359 -0.0639 -1.4419
  188POPC   C2921609   4.036   5.423   2.970 -0.3177 -0.1798  0.1611
  188POPC   H9121610   3.936   5.446   2.932 -0.3914 -3.5883 -2.1376
  188POPC  C21021611   4.066   5.420   3.101  0.1326 -0.2332 -0.1584
  188POPC  H10121612   3.997   5.436   3.185 -2.8298  1.0732 -2.6513
  188POPC  C21121613   4.210   5.396   3.145  0.3419  0.1864  0.0943
  188POPC  H11R21614   4.278   5.353   3.069 -1.9006  0.2425 -2.0859
  188POPC  H11S21615   4.209   5.306   3.210  3.2901  0.5541  0.7548
  188POPC  C21221616   4.275   5.521   3.207 -0.0639 -0.0573  0.1990
  188POPC  H12R21617   4.264   5.591   3.121  0.3674  2.0207  1.7556
  188POPC  H12S21618   4.385   5.506   3.212 -0.1043 -1.2034 -1.5260
  188POPC  C21321619   4.226   5.584   3.341  0.4120 -0.3244 -0.0419
  188POPC  H13R21620   4.116   5.594   3.332 -0.0915 -2.0296  2.9116
  188POPC  H13S21621   4.280   5.680   3.353 -0.1968  0.5792 -3.4212
  188POPC  C21421622   4.254   5.502   3.464  0.2539  0.3998 -0.6132
  188POPC  H14R21623   4.362   5.483   3.484  0.7092  0.6283 -2.6397
  188POPC  H14S21624   4.202   5.407   3.437 -1.3382  1.0778 -0.0667
  188POPC  C21521625   4.194   5.561   3.583  0.6000 -0.6832 -0.3988
  188POPC  H15R21626   4.087   5.567   3.553  0.5041  1.1043  0.2315
  188POPC  H15S21627   4.230   5.665   3.594  0.7560 -0.8624  0.9354
  188POPC  C21621628   4.221   5.491   3.723  0.3119  0.2046 -0.0768
  188POPC  H16R21629   4.322   5.445   3.719  0.5766  0.8363 -1.7091
  188POPC  H16S21630   4.150   5.408   3.742  1.4972 -1.0346 -0.9309
  188POPC  C21721631   4.219   5.586   3.848 -0.0394 -0.4833 -0.0479
  188POPC  H17R21632   4.116   5.624   3.834  0.0327 -1.0481 -2.4488
  188POPC  H17S21633   4.296   5.664   3.831 -0.7261  1.0316  3.0125
  188POPC  C21821634   4.243   5.523   3.987  0.4487  0.0114 -0.0110
  188POPC  H18R21635   4.158   5.455   4.011 -0.5284  1.0915 -0.3281
  188POPC  H18S21636   4.229   5.597   4.069  0.3276 -2.9071  2.7859
  188POPC  H18T21637   4.345   5.478   3.984  0.5600  0.2980 -0.7872
  188POPC   C3321638   3.931   4.861   2.413 -0.3012  0.5822 -0.8777
  188POPC   H3X21639   4.001   4.944   2.394  3.0132 -2.5177 -3.8461
  188POPC   H3Y21640   3.991   4.773   2.379  1.4826  1.7504 -0.8932
  188POPC   C3421641   3.905   4.828   2.564  0.4076  0.5441 -1.0458
  188POPC   H4X21642   3.989   4.767   2.602  0.3925 -0.5392 -2.6410
  188POPC   H4Y21643   3.820   4.758   2.578 -0.7828  2.0506 -0.4754
  188POPC   C3521644   3.886   4.961   2.638 -0.2862  0.1826  0.2393
  188POPC   H5X21645   3.828   5.028   2.571 -1.3182  0.3088  1.2239
  188POPC   H5Y21646   3.992   4.993   2.638 -0.1400  0.2677 -3.9701
  188POPC   C3621647   3.817   4.947   2.778  0.1474 -0.2730  0.1849
  188POPC   H6X21648   3.847   4.852   2.826 -0.6896 -1.1352 -0.9276
  188POPC   H6Y21649   3.707   4.942   2.763  0.0459  3.2004 -1.1398
  188POPC   C3721650   3.841   5.074   2.865  0.8454 -0.6676 -0.1051
  188POPC   H7X21651   3.784   5.163   2.832  2.8742  0.1539 -1.6781
  188POPC   H7Y21652   3.946   5.106   2.845  0.1512  1.8749 -0.0583
  188POPC   C3821653   3.818   5.047   3.018 -0.4868 -0.0590  0.4191
  188POPC   H8X21654   3.839   4.939   3.035 -0.8632  0.0514  1.6432
  188POPC   H8Y21655   3.711   5.063   3.039 -0.2080 -0.3733  2.2520
  188POPC   C3921656   3.894   5.129   3.112 -0.2547  0.1280 -0.5045
  188POPC   H9X21657   3.850   5.231   3.110  0.5763  0.5520  1.1768
  188POPC   H9Y21658   3.999   5.133   3.076  0.1955 -0.7038  0.6381
  188POPC  C31021659   3.891   5.085   3.258  0.3141 -0.6131 -0.7077
  188POPC  H10X21660   3.941   4.988   3.277  1.2966  0.1081  0.6054
  188POPC  H10Y21661   3.786   5.057   3.283  0.4867 -1.0110 -0.4136
  188POPC  C31121662   3.943   5.196   3.348 -0.6715 -0.3608 -0.3570
  188POPC  H11X21663   3.889   5.290   3.323  1.6164  0.6297 -1.9676
  188POPC  H11Y21664   4.041   5.223   3.302 -0.0434  1.1615  1.6872
  188POPC  C31221665   3.967   5.149   3.497  0.5096 -0.0869 -0.1048
  188POPC  H12X21666   3.871   5.107   3.535  0.2376  1.7652  1.4419
  188POPC  H12Y21667   3.977   5.236   3.565 -1.9395  1.2364 -1.3308
  188POPC  C31321668   4.087   5.059   3.507  0.0679  1.0567  0.3339
  188POPC  H13X21669   4.170   5.131   3.525  1.7606 -0.0021 -2.5410
  188POPC  H13Y21670   4.118   5.012   3.411  0.9542  3.1017 -0.4264
  188POPC  C31421671   4.086   4.951   3.618 -0.5428  0.6948 -0.0176
  188POPC  H14X21672   4.020   4.864   3.598  0.7533 -0.9968  2.5201
  188POPC  H14Y21673   4.037   4.998   3.706 -1.1519  1.1377 -0.5852
  188POPC  C31521674   4.226   4.890   3.652  0.0272  0.1907 -0.4105
  188POPC  H15X21675   4.213   4.852   3.756  3.5317  0.4713  0.2689
  188POPC  H15Y21676   4.310   4.962   3.663  0.6597 -0.2447 -2.0728
  188POPC  C31621677   4.252   4.774   3.554 -0.0970  0.0039  0.1107
  188POPC  H16X21678   4.156   4.730   3.519 -1.0355  1.3537  0.8735
  188POPC  H16Y21679   4.311   4.697   3.608  0.1372 -2.7447 -3.7200
  188POPC  H16Z21680   4.325   4.805   3.477 -0.3404 -2.7571 -1.3257
  189SAPI   C1221681   3.198   2.339   6.886 -0.9450 -0.0069  0.2372
  189SAPI    H221682   3.204   2.228   6.884  1.0948 -0.0511  2.6650
  189SAPI    O221683   3.164   2.383   7.011 -0.5083  0.1719 -0.3331
  189SAPI   HO221684   3.103   2.319   7.049 -0.3595  0.3479  0.2113
  189SAPI   C1321685   3.343   2.381   6.853 -0.4435  0.0903  0.3405
  189SAPI    H321686   3.371   2.315   6.768  0.5825  1.0442 -0.0820
  189SAPI    O321687   3.438   2.360   6.961 -0.2710 -0.3543  0.2008
  189SAPI   HO321688   3.422   2.278   7.009  0.2628  0.0558  1.1136
  189SAPI   C1421689   3.352   2.525   6.790 -0.3904  0.4382 -0.4536
  189SAPI    H421690   3.361   2.584   6.883 -0.2170 -0.4194  0.0834
  189SAPI    O421691   3.471   2.552   6.713 -0.0646 -0.2859 -0.3312
  189SAPI   HO421692   3.500   2.487   6.649  1.0386 -0.5328  0.3761
  189SAPI   C1521693   3.229   2.572   6.710  0.1773 -0.8844 -0.2181
  189SAPI    H521694   3.236   2.534   6.606  0.1127  0.5641 -0.7837
  189SAPI    O521695   3.228   2.716   6.699  0.2888 -0.1538  1.0434
  189SAPI   HO521696   3.171   2.736   6.624 -3.6585 -3.1807  2.8347
  189SAPI   C1621697   3.085   2.520   6.754  0.6104 -0.7984  0.2924
  189SAPI    H621698   3.052   2.587   6.836 -1.5826  2.1388 -2.6972
  189SAPI    O621699   2.993   2.532   6.639  0.1938  0.8904 -0.7704
  189SAPI   HO621700   2.922   2.471   6.663  0.9223  0.8328  1.4722
  189SAPI   C1121701   3.091   2.376   6.787 -0.3093 -0.1471  0.6290
  189SAPI    H121702   3.128   2.337   6.690  0.9013  1.2377  0.5013
  189SAPI     P21703   2.920   2.170   6.743  0.1757  0.0414  0.2825
  189SAPI   O1321704   2.776   2.140   6.787 -1.1911  0.1919  0.3061
  189SAPI   O1421705   3.022   2.061   6.777  0.1203 -0.1120 -0.8325
  189SAPI   O1221706   2.960   2.317   6.813  0.3953  0.5960  0.5629
  189SAPI   O1121707   2.912   2.193   6.583 -0.7658  0.0596 -0.6326
  189SAPI    C121708   2.802   2.245   6.513  0.1478 -0.2655  0.2918
  189SAPI    HA21709   2.705   2.203   6.547  0.8319 -1.4967  0.8047
  189SAPI    HB21710   2.804   2.356   6.517 -4.1591 -0.0066  0.2834
  189SAPI    C221711   2.821   2.214   6.363 -0.2635  0.1945 -0.1360
  189SAPI    HS21712   2.744   2.251   6.292 -1.0702  3.2926  2.1408
  189SAPI   O2121713   2.840   2.075   6.347  0.0329  0.1201 -0.5364
  189SAPI   C2121714   2.730   2.007   6.347  0.3486  0.0858  0.0090
  189SAPI   O2221715   2.621   2.061   6.373  0.1960  0.1224  0.3145
  189SAPI   C2221716   2.748   1.856   6.304  0.3950  0.0610  0.0852
  189SAPI   H2R21717   2.803   1.807   6.387  0.2590 -1.1918 -0.5449
  189SAPI   H2S21718   2.644   1.819   6.290  0.5365  0.6519 -3.2665
  189SAPI    C321719   2.954   2.275   6.318  0.4740  0.3075  0.5658
  189SAPI    HX21720   3.028   2.243   6.394 -0.6178 -3.2059  0.3077
  189SAPI    HY21721   2.951   2.386   6.317 -0.1894  0.3523 -2.5953
  189SAPI   O3121722   2.976   2.244   6.184 -0.2258 -0.2684 -0.1541
  189SAPI   C3121723   3.076   2.159   6.157 -0.1887 -0.5126  0.1924
  189SAPI   O3221724   3.129   2.079   6.235 -0.4659 -0.1208  0.9418
  189SAPI   C3221725   3.120   2.190   6.010  0.4209  0.2251 -0.3164
  189SAPI   H2X21726   3.132   2.299   5.991 -1.7346  1.1716  2.8000
  189SAPI   H2Y21727   3.034   2.156   5.950  0.0992 -1.4041  0.9874
  189SAPI   C2321728   2.821   1.847   6.170 -0.0492  0.2068 -0.3641
  189SAPI   H3R21729   2.837   1.740   6.146 -1.5343 -1.0567  3.4989
  189SAPI   H3S21730   2.920   1.896   6.180 -0.9476  2.0482 -0.0192
  189SAPI   C2421731   2.737   1.913   6.059  0.3530  0.0667 -0.5380
  189SAPI   H4R21732   2.746   2.020   6.084  0.8552  0.5314 -2.5485
  189SAPI   H4S21733   2.632   1.878   6.071 -0.7296  3.3111  0.2376
  189SAPI   C2521734   2.794   1.874   5.920 -0.4683 -0.7283  0.3698
  189SAPI   H5R21735   2.898   1.909   5.910 -0.7994  0.2031  0.1582
  189SAPI   C2621736   2.724   1.825   5.815  0.0417 -0.0723  0.6113
  189SAPI   H6R21737   2.780   1.816   5.721  2.0424 -1.6913  1.8722
  189SAPI   C2721738   2.580   1.777   5.819 -0.0168  0.2704  0.2833
  189SAPI   H7R21739   2.552   1.746   5.922  2.3547  1.1257  1.2629
  189SAPI   H7S21740   2.562   1.678   5.773 -0.3582  0.6320 -0.3672
  189SAPI   C2821741   2.482   1.872   5.779 -0.2994 -0.1394  0.2943
  189SAPI   H8R21742   2.470   1.949   5.856 -2.5565 -0.0639 -0.0652
  189SAPI   C2921743   2.409   1.869   5.665  0.1314  0.3170 -0.1448
  189SAPI   H9R21744   2.329   1.944   5.663  1.0155  1.3390  0.9408
  189SAPI  C21021745   2.419   1.778   5.546 -0.2570  0.4131  0.0468
  189SAPI  H10R21746   2.327   1.797   5.486  1.0910  2.0892 -1.5929
  189SAPI  H10S21747   2.416   1.668   5.565  0.8603  0.1579 -1.1639
  189SAPI  C21121748   2.522   1.809   5.446 -0.2335  0.2111  1.0080
  189SAPI  H11R21749   2.608   1.867   5.484  1.2250 -0.0314 -1.6990
  189SAPI  C21221750   2.522   1.786   5.315  0.4361  0.0572  0.4795
  189SAPI  H12R21751   2.612   1.789   5.251 -1.0153 -2.2473 -1.9051
  189SAPI  C21321752   2.414   1.709   5.239 -0.1011 -0.2856  0.1179
  189SAPI  H13R21753   2.334   1.662   5.302 -0.1749  0.6850  0.7600
  189SAPI  H13S21754   2.460   1.625   5.183  3.1224  1.1984  0.3656
  189SAPI  C21421755   2.343   1.815   5.158  0.8360  0.7501  0.5780
  189SAPI  H14R21756   2.269   1.870   5.218 -1.5583  0.3707 -1.8468
  189SAPI  C21521757   2.353   1.838   5.025  0.9125 -0.0569  0.0149
  189SAPI  H15R21758   2.293   1.918   4.980 -0.2648  0.5607  2.4909
  189SAPI  C21621759   2.440   1.760   4.931 -0.3716 -0.5733  0.0828
  189SAPI  H16R21760   2.442   1.654   4.967 -0.2764 -0.8062 -0.5984
  189SAPI  H16S21761   2.537   1.813   4.930 -1.1979  1.0459 -2.4639
  189SAPI  C21721762   2.393   1.740   4.786  0.4316 -0.1782  0.3173
  189SAPI  H17R21763   2.320   1.657   4.791 -1.2435  1.2374  0.1573
  189SAPI  H17S21764   2.485   1.713   4.730  0.0515  0.0419 -0.4346
  189SAPI  C21821765   2.320   1.862   4.709  0.3501 -1.0946  0.0286
  189SAPI  H18R21766   2.392   1.946   4.718  0.4531 -0.9800 -1.6200
  189SAPI  H18S21767   2.230   1.895   4.764 -0.2595  0.9442 -2.0413
  189SAPI  C21921768   2.280   1.840   4.564 -0.9214 -0.4339  0.5142
  189SAPI  H19R21769   2.255   1.938   4.518 -0.1067 -1.4756 -2.3383
  189SAPI  H19S21770   2.190   1.775   4.566 -0.7451 -0.7012  0.0311
  189SAPI  C22021771   2.380   1.767   4.472  0.4467 -0.7013 -0.0447
  189SAPI  H20R21772   2.403   1.662   4.502 -0.0127 -0.8240 -0.1233
  189SAPI  H20S21773   2.475   1.824   4.475 -0.7259  1.3010  1.5762
  189SAPI  H20T21774   2.347   1.757   4.367  1.7233  0.5981 -0.6037
  189SAPI   C3321775   3.249   2.114   5.967  0.2140  0.1122  0.4504
  189SAPI   H3X21776   3.226   2.006   5.975 -0.4801 -0.1324 -3.2664
  189SAPI   H3Y21777   3.338   2.142   6.028  1.3178  1.7439 -1.7525
  189SAPI   C3421778   3.293   2.133   5.816  0.4084  0.4082  0.4420
  189SAPI   H4X21779   3.393   2.090   5.796  0.0445 -0.2492  0.0262
  189SAPI   H4Y21780   3.292   2.243   5.802 -2.9490  0.4320  0.0639
  189SAPI   C3521781   3.193   2.071   5.715 -0.3155 -0.0560  0.0397
  189SAPI   H5X21782   3.097   2.125   5.732  0.5913  1.3459  0.8209
  189SAPI   H5Y21783   3.177   1.968   5.752  0.1453  0.0195  0.4520
  189SAPI   C3621784   3.227   2.086   5.568  0.2006  0.4815  0.2897
  189SAPI   H6X21785   3.152   2.031   5.507 -0.6895 -0.0879  1.8528
  189SAPI   H6Y21786   3.326   2.040   5.553 -1.1268 -2.5994  0.3289
  189SAPI   C3721787   3.212   2.228   5.524 -0.5397 -0.3616  0.5001
  189SAPI   H7X21788   3.300   2.276   5.572 -1.3059  1.8848 -0.2660
  189SAPI   H7Y21789   3.118   2.271   5.567 -0.8034  0.1016 -0.5221
  189SAPI   C3821790   3.211   2.235   5.370 -0.1524  0.2758 -0.5564
  189SAPI   H8X21791   3.208   2.340   5.334 -1.3315  0.7066  0.6990
  189SAPI   H8Y21792   3.116   2.182   5.348 -0.4550 -0.0205  1.2847
  189SAPI   C3921793   3.327   2.158   5.308  0.5998 -0.1053  0.0325
  189SAPI   H9X21794   3.317   2.048   5.315  0.1873 -0.0673  0.0538
  189SAPI   H9Y21795   3.420   2.176   5.367 -1.5366 -1.3869  4.2460
  189SAPI  C31021796   3.353   2.192   5.161  0.3086  0.8970 -0.0036
  189SAPI  H10X21797   3.428   2.123   5.117 -0.6993  1.5414 -2.9892
  189SAPI  H10Y21798   3.390   2.296   5.150 -0.2495  1.0911 -0.0666
  189SAPI  C31121799   3.233   2.180   5.072 -0.0989  0.0663  0.3887
  189SAPI  H11X21800   3.164   2.264   5.096  1.3568  0.9218  1.7619
  189SAPI  H11Y21801   3.176   2.092   5.106  0.0214 -1.0095 -1.9819
  189SAPI  C31221802   3.270   2.148   4.928 -0.2202  0.1812  0.6595
  189SAPI  H12X21803   3.321   2.050   4.919 -0.1455  0.3155 -0.4092
  189SAPI  H12Y21804   3.340   2.222   4.883  0.1357 -0.5340  0.0212
  189SAPI  C31321805   3.135   2.131   4.849  0.0796 -0.8902  1.5889
  189SAPI  H13X21806   3.068   2.215   4.877 -0.7569 -1.5844  1.7290
  189SAPI  H13Y21807   3.088   2.039   4.889 -0.2471 -2.4125 -1.8954
  189SAPI  C31421808   3.131   2.108   4.698 -0.3186 -0.2103  0.8487
  189SAPI  H14X21809   3.022   2.090   4.680 -0.3524 -2.6426  2.8887
  189SAPI  H14Y21810   3.196   2.025   4.664 -1.7516 -1.6323  1.4186
  189SAPI  C31521811   3.167   2.230   4.614  0.0220  0.0812  0.0208
  189SAPI  H15X21812   3.157   2.225   4.504 -0.3122  1.8368 -0.0664
  189SAPI  H15Y21813   3.273   2.249   4.641 -0.4107 -0.0318  1.9828
  189SAPI  C31621814   3.096   2.360   4.651 -0.1099  0.7303  0.1993
  189SAPI  H16X21815   3.158   2.442   4.609  1.8923 -0.9549 -0.3032
  189SAPI  H16Y21816   3.081   2.375   4.760 -1.7186 -1.3025  0.3263
  189SAPI  C31721817   2.960   2.390   4.570 -0.1061  0.7335  0.1023
  189SAPI  H17X21818   2.873   2.331   4.606  0.5912 -0.9544 -0.8308
  189SAPI  H17Y21819   2.981   2.368   4.463 -0.6706  2.0274 -0.2940
  189SAPI  C31821820   2.921   2.539   4.560  0.0621 -0.4122 -0.6019
  189SAPI  H18X21821   3.010   2.602   4.537 -0.2773 -0.4161 -1.9964
  189SAPI  H18Y21822   2.876   2.575   4.655  0.8122  0.8122 -0.6832
  189SAPI  H18Z21823   2.850   2.563   4.479  0.5613  1.2122 -0.5870
  190SAPI   C1221824   4.932   4.019   6.538  0.5063  0.2727 -0.2366
  190SAPI    H221825   4.847   4.070   6.488  1.7646  0.6498 -2.1077
  190SAPI    O221826   4.908   3.879   6.539 -0.6666  0.4137 -1.2663
  190SAPI   HO221827   4.836   3.852   6.597  0.5884  2.8110  1.6271
  190SAPI   C1321828   5.052   4.057   6.453  0.8662  0.0860  0.0615
  190SAPI    H321829   5.066   4.166   6.472  0.6954 -0.1927  1.9754
  190SAPI    O321830   5.039   4.030   6.310  0.5205  0.1126 -0.2259
  190SAPI   HO321831   5.006   3.940   6.303 -1.1389  0.7193 -0.6666
  190SAPI   C1421832   5.174   3.985   6.505 -0.1907 -0.1283  0.2782
  190SAPI    H421833   5.146   3.878   6.489  1.8839 -1.1109  2.5845
  190SAPI    O421834   5.293   4.014   6.430  0.3419 -0.0337  0.4992
  190SAPI   HO421835   5.322   4.105   6.437 -0.0632  0.2204 -0.8443
  190SAPI   C1521836   5.191   3.993   6.655  0.0665 -0.1427  0.8455
  190SAPI    H521837   5.230   4.096   6.671  1.5152 -0.6762  0.9199
  190SAPI    O521838   5.288   3.899   6.698  0.2539  0.2598  0.3097
  190SAPI   HO521839   5.342   3.932   6.770  0.4729 -1.6923  1.0936
  190SAPI   C1621840   5.075   3.998   6.743 -0.5342  0.5654 -0.4234
  190SAPI    H621841   5.047   3.894   6.772 -1.0663  1.2074  1.4824
  190SAPI    O621842   5.104   4.058   6.870  0.1834 -0.0843  0.5877
  190SAPI   HO621843   5.108   3.987   6.934 -0.3805 -1.2088 -0.5959
  190SAPI   C1121844   4.947   4.061   6.679  0.9302  0.2581 -0.9397
  190SAPI    H121845   4.968   4.170   6.685  0.5485  0.3466 -1.1851
  190SAPI     P21846   4.732   4.139   6.821  0.5245  0.2286 -0.2841
  190SAPI   O1321847   4.804   4.247   6.893 -0.1970  0.2208 -0.3912
  190SAPI   O1421848   4.622   4.077   6.891 -0.3725 -0.3448  0.0735
  190SAPI   O1221849   4.832   4.029   6.759 -0.5820 -0.0610 -0.3355
  190SAPI   O1121850   4.687   4.204   6.683 -0.1747 -0.3416  0.1773
  190SAPI    C121851   4.563   4.165   6.619 -0.0818 -0.1403 -0.1888
  190SAPI    HA21852   4.580   4.063   6.577  2.1247  0.2521 -0.3796
  190SAPI    HB21853   4.478   4.161   6.691  0.1739  0.7136  0.1751
  190SAPI    C221854   4.519   4.275   6.523 -0.2769 -0.1913 -0.5696
  190SAPI    HS21855   4.419   4.242   6.488 -0.3488 -1.3102  0.6193
  190SAPI   O2121856   4.602   4.293   6.410  0.1471  0.2087 -0.1798
  190SAPI   C2121857   4.602   4.218   6.298  0.7894  0.3736 -0.1388
  190SAPI   O2221858   4.524   4.129   6.277 -0.1015 -0.6214  0.1601
  190SAPI   C2221859   4.703   4.262   6.197 -0.2289  0.9641  0.1613
  190SAPI   H2R21860   4.702   4.372   6.184  0.2600  0.8467 -0.9567
  190SAPI   H2S21861   4.806   4.231   6.225  0.5181 -0.0972 -3.3490
  190SAPI    C321862   4.508   4.413   6.588 -0.1231 -0.0328 -0.3134
  190SAPI    HX21863   4.608   4.435   6.633  0.0972  1.5850 -1.4949
  190SAPI    HY21864   4.441   4.415   6.677  1.6059  0.7783  1.0443
  190SAPI   O3121865   4.476   4.511   6.493  0.2663  0.0722 -0.0498
  190SAPI   C3121866   4.568   4.573   6.427 -0.5561 -0.1774  0.2762
  190SAPI   O3221867   4.691   4.566   6.442 -0.5484 -0.0595  0.7175
  190SAPI   C3221868   4.502   4.663   6.323 -0.0916  0.0437 -0.2889
  190SAPI   H2X21869   4.561   4.758   6.322 -0.0560  0.1990  2.9719
  190SAPI   H2Y21870   4.400   4.691   6.358 -0.9382  0.8183 -3.1482
  190SAPI   C2321871   4.676   4.194   6.056 -1.4744  0.0029 -1.0037
  190SAPI   H3R21872   4.588   4.239   6.005  0.7640  1.3170 -4.0520
  190SAPI   H3S21873   4.646   4.089   6.077 -0.9397  0.0096 -0.1464
  190SAPI   C2421874   4.795   4.193   5.966  0.9351 -0.7009  0.2619
  190SAPI   H4R21875   4.842   4.294   5.967  0.5325 -0.5096  0.2983
  190SAPI   H4S21876   4.757   4.168   5.865  1.4828 -0.5244  0.0073
  190SAPI   C2521877   4.903   4.099   6.013 -0.3259 -0.3095 -0.3046
  190SAPI   H5R21878   4.968   4.128   6.096 -2.5355 -1.0391  1.8090
  190SAPI   C2621879   4.906   3.964   5.977  0.9170 -0.5802 -0.7987
  190SAPI   H6R21880   4.983   3.899   6.022 -0.2186 -1.2524  0.2623
  190SAPI   C2721881   4.792   3.902   5.897  0.0557  0.2238  0.3664
  190SAPI   H7R21882   4.838   3.912   5.797  0.7625  1.6706  0.8176
  190SAPI   H7S21883   4.699   3.961   5.908 -1.0314 -1.6404  1.8995
  190SAPI   C2821884   4.756   3.760   5.914 -0.1582 -0.7508  0.2363
  190SAPI   H8R21885   4.796   3.715   6.007  1.0211 -0.8512 -0.3044
  190SAPI   C2921886   4.682   3.679   5.834  0.3028  0.2771  0.0838
  190SAPI   H9R21887   4.643   3.584   5.872  0.5324  0.5603  1.0507
  190SAPI  C21021888   4.620   3.727   5.709 -0.2215 -0.5163 -0.2407
  190SAPI  H10R21889   4.694   3.699   5.630  0.5936  2.6094 -0.7460
  190SAPI  H10S21890   4.611   3.838   5.716 -1.7662 -0.6558  0.3655
  190SAPI  C21121891   4.483   3.659   5.697 -0.8668 -0.2131 -0.3575
  190SAPI  H11R21892   4.432   3.637   5.791 -0.2978 -1.3660 -0.3135
  190SAPI  C21221893   4.425   3.616   5.581  0.4801 -0.0255 -0.2260
  190SAPI  H12R21894   4.326   3.569   5.583 -0.7959  2.3825 -1.5278
  190SAPI  C21321895   4.475   3.640   5.442 -0.2547  0.4073  0.4194
  190SAPI  H13R21896   4.491   3.750   5.432 -0.5072  0.4685  0.6498
  190SAPI  H13S21897   4.391   3.614   5.373  0.7578 -1.2023 -0.2656
  190SAPI  C21421898   4.601   3.556   5.406  0.6169  0.5128 -0.4513
  190SAPI  H14R21899   4.681   3.547   5.482  0.8824 -0.1744 -0.8054
  190SAPI  C21521900   4.623   3.486   5.290 -0.3765  0.0229 -0.3985
  190SAPI  H15R21901   4.720   3.440   5.264 -0.6666  0.0202 -1.5005
  190SAPI  C21621902   4.534   3.475   5.171 -0.2144 -0.4158 -0.4959
  190SAPI  H16R21903   4.428   3.454   5.198 -0.1646  0.2823  0.3168
  190SAPI  H16S21904   4.558   3.381   5.118  1.3151 -1.0942  1.2758
  190SAPI  C21721905   4.556   3.595   5.082 -0.3084 -0.2602  0.0639
  190SAPI  H17R21906   4.573   3.696   5.124 -1.1653  1.2794 -2.9477
  190SAPI  H17S21907   4.475   3.598   5.005 -0.4820 -0.5759  0.2364
  190SAPI  C21821908   4.687   3.583   5.006 -0.0532  0.1058  0.1508
  190SAPI  H18R21909   4.691   3.496   4.937 -1.9575 -0.9153  1.2527
  190SAPI  H18S21910   4.767   3.563   5.080  0.5256 -2.7806 -1.1415
  190SAPI  C21921911   4.730   3.710   4.928 -0.1989  0.1689 -0.3605
  190SAPI  H19R21912   4.829   3.708   4.878  0.9488  0.2255  1.7913
  190SAPI  H19S21913   4.738   3.796   4.998  0.4642  2.0479 -2.5878
  190SAPI  C22021914   4.622   3.747   4.828  0.1335  0.1789  0.3280
  190SAPI  H20R21915   4.533   3.775   4.888  1.0042  2.4457  0.6604
  190SAPI  H20S21916   4.600   3.672   4.749 -0.1445 -1.1268  1.6097
  190SAPI  H20T21917   4.646   3.847   4.786 -1.0078  0.1994 -0.3291
  190SAPI   C3321918   4.484   4.595   6.183 -0.0557  0.4895  0.1469
  190SAPI   H3X21919   4.392   4.642   6.142  1.1849  1.6316 -1.4560
  190SAPI   H3Y21920   4.467   4.488   6.207 -2.2887  0.8654  0.4756
  190SAPI   C3421921   4.611   4.613   6.099  0.4529 -0.0869 -1.1392
  190SAPI   H4X21922   4.703   4.584   6.153  0.5138  0.5070 -0.9150
  190SAPI   H4Y21923   4.623   4.723   6.089  2.4460  0.0123  1.5002
  190SAPI   C3521924   4.604   4.551   5.964 -0.4412  0.4893  0.4987
  190SAPI   H5X21925   4.524   4.612   5.918  0.3580  1.7416  0.7307
  190SAPI   H5Y21926   4.572   4.445   5.976  1.8672 -0.4581 -0.9088
  190SAPI   C3621927   4.726   4.569   5.877 -0.0958  0.6975  0.7943
  190SAPI   H6X21928   4.814   4.527   5.931 -0.6928 -1.2927  0.2976
  190SAPI   H6Y21929   4.742   4.677   5.854 -2.6196  0.9738  0.0965
  190SAPI   C3721930   4.716   4.504   5.728  0.3815  0.2853 -0.6382
  190SAPI   H7X21931   4.701   4.394   5.734  1.7186  0.0674 -0.9434
  190SAPI   H7Y21932   4.824   4.505   5.701  0.6051 -0.4191  0.1876
  190SAPI   C3821933   4.604   4.573   5.639 -1.0990  0.5098  0.0547
  190SAPI   H8X21934   4.641   4.678   5.634  1.8939 -0.4622  0.1704
  190SAPI   H8Y21935   4.501   4.575   5.681 -1.2536  0.5399 -0.3221
  190SAPI   C3921936   4.594   4.518   5.496  0.1581  0.7868  0.6083
  190SAPI   H9X21937   4.574   4.410   5.511 -0.3412  0.9632  1.2334
  190SAPI   H9Y21938   4.695   4.528   5.450  0.3061 -0.3462  0.6469
  190SAPI  C31021939   4.473   4.581   5.414  0.7398 -0.0429 -0.8590
  190SAPI  H10X21940   4.390   4.592   5.487  0.6336 -3.3357 -0.3614
  190SAPI  H10Y21941   4.455   4.500   5.341  1.6479  0.2584 -1.4287
  190SAPI  C31121942   4.508   4.712   5.342 -0.3426 -0.8058  0.5989
  190SAPI  H11X21943   4.614   4.741   5.358 -0.6776  0.5988  0.4317
  190SAPI  H11Y21944   4.455   4.796   5.391 -0.7284 -1.1643  0.7969
  190SAPI  C31221945   4.467   4.713   5.193 -0.7288 -0.6625  0.2518
  190SAPI  H12X21946   4.356   4.719   5.187 -0.7400 -1.6479 -1.1698
  190SAPI  H12Y21947   4.499   4.615   5.151  2.4116  0.1304  0.5623
  190SAPI  C31321948   4.538   4.816   5.104 -0.5064 -0.6479  0.2485
  190SAPI  H13X21949   4.644   4.782   5.096 -0.2413  0.0037  0.8679
  190SAPI  H13Y21950   4.520   4.918   5.143 -3.2361 -1.1632  0.5464
  190SAPI  C31421951   4.473   4.820   4.963 -0.4569 -0.4733 -0.6851
  190SAPI  H14X21952   4.536   4.886   4.900 -2.2159  2.3652  0.3562
  190SAPI  H14Y21953   4.373   4.865   4.978 -0.6322 -1.3745  1.0773
  190SAPI  C31521954   4.451   4.689   4.890 -0.3623  0.3565  0.1275
  190SAPI  H15X21955   4.365   4.641   4.941 -0.0772  0.4709  0.7184
  190SAPI  H15Y21956   4.538   4.625   4.914 -1.8744 -2.3997 -1.2492
  190SAPI  C31621957   4.426   4.709   4.738 -0.0882  0.2202 -0.2322
  190SAPI  H16X21958   4.510   4.767   4.695  0.2794  0.2912  0.5610
  190SAPI  H16Y21959   4.331   4.761   4.716  0.0054 -0.5784 -2.7970
  190SAPI  C31721960   4.401   4.569   4.664 -0.3719  0.2772  0.2119
  190SAPI  H17X21961   4.330   4.511   4.726  0.5741 -0.7719  0.3576
  190SAPI  H17Y21962   4.494   4.509   4.674  0.3735  1.6340  2.1212
  190SAPI  C31821963   4.359   4.587   4.522 -0.3675 -0.6159  0.3054
  190SAPI  H18X21964   4.264   4.643   4.512  1.7120  2.9982 -1.1042
  190SAPI  H18Y21965   4.350   4.487   4.475 -1.3243  0.0501 -0.9683
  190SAPI  H18Z21966   4.426   4.646   4.456 -0.0815 -0.5441  0.6546
  191SAPI   C1221967   2.293   5.532   2.025  0.7845 -0.3329  0.0333
  191SAPI    H221968   2.356   5.602   2.083  1.2028 -0.1408 -0.6388
  191SAPI    O221969   2.316   5.398   2.063 -0.4881  0.0971  0.0250
  191SAPI   HO221970   2.391   5.372   2.009 -1.0913  0.5252 -1.0544
  191SAPI   C1321971   2.154   5.570   2.053 -0.3759 -0.4568 -0.3400
  191SAPI    H321972   2.151   5.677   2.023  0.2583  0.2542  1.9160
  191SAPI    O321973   2.123   5.568   2.193 -0.3688  0.7816 -0.1566
  191SAPI   HO321974   2.085   5.651   2.224 -2.5433  0.0825 -0.7962
  191SAPI   C1421975   2.057   5.485   1.967 -0.6759 -0.1143 -0.3551
  191SAPI    H421976   2.075   5.394   2.028  1.8433  0.5705 -0.0004
  191SAPI    O421977   1.924   5.528   1.980  0.4774 -0.1913 -0.1328
  191SAPI   HO421978   1.876   5.452   2.014 -0.4758  0.9182  1.1251
  191SAPI   C1521979   2.090   5.456   1.821 -0.3175 -0.9716  0.0416
  191SAPI    H521980   2.031   5.528   1.760 -1.8766 -1.1935  1.2239
  191SAPI    O521981   2.036   5.333   1.776 -0.1599  0.1392 -0.1559
  191SAPI   HO521982   2.083   5.267   1.827  0.4541  1.1835  0.6703
  191SAPI   C1621983   2.240   5.478   1.777 -0.4599 -0.3145 -0.6658
  191SAPI    H621984   2.285   5.377   1.781  1.4792  0.5358  1.5107
  191SAPI    O621985   2.249   5.534   1.644 -0.1992 -0.0975  0.7484
  191SAPI   HO621986   2.304   5.485   1.583 -2.6959 -0.1421 -1.6787
  191SAPI   C1121987   2.331   5.556   1.879  0.5727  0.4600 -0.1481
  191SAPI    H121988   2.310   5.665   1.872 -0.6880  0.2072 -0.6642
  191SAPI     P21989   2.561   5.615   1.754 -0.2882  0.4191  0.2326
  191SAPI   O1321990   2.495   5.753   1.752  0.0817  0.1566 -0.0073
  191SAPI   O1421991   2.570   5.547   1.620  0.0264  0.0582 -0.5012
  191SAPI   O1221992   2.473   5.528   1.861  0.2430  0.5262 -0.1182
  191SAPI   O1121993   2.702   5.634   1.815 -0.0611  0.0781  0.2998
  191SAPI    C121994   2.760   5.557   1.919 -0.6802 -0.3499  0.0283
  191SAPI    HA21995   2.698   5.466   1.934 -0.3599 -0.6734 -0.5994
  191SAPI    HB21996   2.862   5.535   1.882  0.6882  2.4635  1.8500
  191SAPI    C221997   2.772   5.639   2.050 -0.4483 -0.4312 -0.0969
  191SAPI    HS21998   2.854   5.589   2.104  2.3815  2.6474 -1.1840
  191SAPI   O2121999   2.642   5.646   2.121 -0.2263  0.3689  0.3088
  191SAPI   C2122000   2.605   5.532   2.188 -0.1274 -0.5759 -0.1263
  191SAPI   O2222001   2.666   5.429   2.187  0.3618 -0.0915  0.7876
  191SAPI   C2222002   2.494   5.568   2.289 -0.1882  0.0107  0.4768
  191SAPI   H2R22003   2.449   5.663   2.254  1.4290  1.1648  1.3753
  191SAPI   H2S22004   2.425   5.481   2.291 -2.2045  1.5356 -0.0335
  191SAPI    C322005   2.834   5.784   2.026 -0.5059 -0.1110 -0.3328
  191SAPI    HX22006   2.776   5.842   1.951  1.2237  1.3133 -0.6200
  191SAPI    HY22007   2.932   5.766   1.978 -0.7058 -3.5642  0.2709
  191SAPI   O3122008   2.866   5.851   2.149 -0.1760 -0.4462 -0.1084
  191SAPI   C3122009   2.815   5.975   2.157  0.9567  0.9579  0.1023
  191SAPI   O3222010   2.734   6.016   2.083  0.1734  0.3410  0.8338
  191SAPI   C3222011   2.874   6.048   2.272  0.7887  0.1934  0.0456
  191SAPI   H2X22012   2.818   6.143   2.266 -1.4128 -1.1047 -1.7416
  191SAPI   H2Y22013   2.981   6.063   2.249  0.7130 -0.4393 -0.7537
  191SAPI   C2322014   2.552   5.587   2.428  0.0495  0.2802  0.0668
  191SAPI   H3R22015   2.649   5.640   2.419  0.2137 -0.1893 -1.2885
  191SAPI   H3S22016   2.587   5.487   2.459  2.3291  1.6290  2.1170
  191SAPI   C2422017   2.459   5.651   2.529 -0.1925  0.4621 -0.4583
  191SAPI   H4R22018   2.426   5.754   2.504 -0.0738  1.1842  2.0739
  191SAPI   H4S22019   2.519   5.667   2.622  2.0291 -0.3969 -1.6621
  191SAPI   C2522020   2.329   5.571   2.542  0.2636  0.2632  0.1875
  191SAPI   H5R22021   2.288   5.536   2.447 -1.5932 -3.4772  2.1332
  191SAPI   C2622022   2.265   5.532   2.658 -0.4597 -0.2049  0.1730
  191SAPI   H6R22023   2.168   5.482   2.645 -0.3936  0.0676 -1.5286
  191SAPI   C2722024   2.296   5.582   2.796 -0.2084 -0.0962 -0.2205
  191SAPI   H7R22025   2.401   5.618   2.801 -0.6959  1.7757 -2.0245
  191SAPI   H7S22026   2.299   5.484   2.849 -1.9161 -1.1349 -1.9089
  191SAPI   C2822027   2.196   5.673   2.867 -0.1251  0.9170  0.0922
  191SAPI   H8R22028   2.092   5.646   2.844 -0.1372 -0.2239  1.3268
  191SAPI   C2922029   2.220   5.768   2.956  0.8814 -0.7690  0.2011
  191SAPI   H9R22030   2.137   5.808   3.016 -0.6107  0.7553 -2.7042
  191SAPI  C21022031   2.359   5.801   3.008 -0.0030  0.3902 -0.4345
  191SAPI  H10R22032   2.436   5.789   2.929  0.1701  0.1016 -0.2208
  191SAPI  H10S22033   2.384   5.741   3.098  0.5067  2.1674  0.6794
  191SAPI  C21122034   2.352   5.945   3.056  0.1819 -0.9560 -0.9775
  191SAPI  H11R22035   2.323   6.019   2.980  1.0533 -0.6986 -1.0699
  191SAPI  C21222036   2.354   5.992   3.186  0.4280 -0.6010 -0.3098
  191SAPI  H12R22037   2.344   6.100   3.204 -1.3593 -0.7886  0.0172
  191SAPI  C21322038   2.374   5.920   3.318  0.3301  0.2953  0.4217
  191SAPI  H13R22039   2.395   6.001   3.391 -0.5821  1.5569 -0.6594
  191SAPI  H13S22040   2.465   5.855   3.317 -0.7932 -1.4139  2.3609
  191SAPI  C21422041   2.265   5.823   3.357 -0.9779  0.2015  0.4048
  191SAPI  H14R22042   2.186   5.807   3.281  0.7440 -1.0720 -1.2071
  191SAPI  C21522043   2.243   5.795   3.489 -0.4705 -0.0291  0.4908
  191SAPI  H15R22044   2.159   5.731   3.521 -0.5633 -0.5847 -0.7856
  191SAPI  C21622045   2.329   5.829   3.610 -0.7661 -0.0252  0.4379
  191SAPI  H16R22046   2.320   5.938   3.633  2.4447  0.0571  1.7746
  191SAPI  H16S22047   2.437   5.813   3.592 -0.4412  0.4534  1.8601
  191SAPI  C21722048   2.297   5.761   3.748 -0.5576  0.2612 -0.1713
  191SAPI  H17R22049   2.327   5.654   3.743  0.8946  0.5826  0.9551
  191SAPI  H17S22050   2.187   5.762   3.768 -0.3533  0.5194  1.0508
  191SAPI  C21822051   2.371   5.830   3.868 -0.1910 -0.1839  0.6738
  191SAPI  H18R22052   2.481   5.823   3.860 -0.1208 -0.0792  1.4731
  191SAPI  H18S22053   2.339   5.775   3.960  2.1962 -0.3572  1.4600
  191SAPI  C21922054   2.342   5.981   3.890 -0.1062  0.0507 -0.2384
  191SAPI  H19R22055   2.234   6.001   3.872  0.0067  0.7262 -0.1818
  191SAPI  H19S22056   2.399   6.038   3.815  1.4386 -1.4665 -0.2615
  191SAPI  C22022057   2.393   6.028   4.029  0.2846  0.6556  0.2238
  191SAPI  H20R22058   2.500   6.006   4.049 -0.5322 -2.6988  1.6639
  191SAPI  H20S22059   2.330   5.970   4.100 -0.4535  3.3061  1.8858
  191SAPI  H20T22060   2.372   6.132   4.062 -0.2647  0.8301 -0.6336
  191SAPI   C3322061   2.861   5.988   2.417  0.5931 -0.5599  0.3203
  191SAPI   H3X22062   2.923   6.057   2.478  0.5925 -0.2332 -0.0463
  191SAPI   H3Y22063   2.911   5.890   2.431  1.5088  0.1093  2.0486
  191SAPI   C3422064   2.721   5.983   2.477  0.1324 -0.1892  0.4003
  191SAPI   H4X22065   2.669   5.926   2.397  1.8433 -1.3372  0.0555
  191SAPI   H4Y22066   2.670   6.081   2.488  1.1253  0.3611  0.2199
  191SAPI   C3522067   2.723   5.892   2.600 -0.5128 -0.2193 -0.2308
  191SAPI   H5X22068   2.775   5.799   2.570  0.9861  0.2916  0.7004
  191SAPI   H5Y22069   2.616   5.862   2.612 -1.0970  1.5530 -0.6923
  191SAPI   C3622070   2.790   5.951   2.717  0.3817  0.2559  0.7151
  191SAPI   H6X22071   2.770   6.061   2.719  2.0288  0.6246 -0.7851
  191SAPI   H6Y22072   2.901   5.949   2.713  0.3853  1.0653 -0.0115
  191SAPI   C3722073   2.748   5.873   2.845  0.1427 -0.3065 -0.0239
  191SAPI   H7X22074   2.792   5.771   2.838  2.1000  0.4582  0.5662
  191SAPI   H7Y22075   2.637   5.877   2.849  0.2207  2.4408  2.4360
  191SAPI   C3822076   2.806   5.929   2.980  0.2109  0.5995 -0.3033
  191SAPI   H8X22077   2.778   6.037   2.982 -0.7395  0.3740 -0.7603
  191SAPI   H8Y22078   2.916   5.920   2.973  0.1736  0.5960 -0.9637
  191SAPI   C3922079   2.756   5.860   3.106 -0.6081 -0.6456 -0.3119
  191SAPI   H9X22080   2.805   5.762   3.124  1.9088  0.4878 -0.4706
  191SAPI   H9Y22081   2.647   5.839   3.103 -0.3266 -2.0910 -0.9335
  191SAPI  C31022082   2.782   5.949   3.228 -0.5176  0.0041 -0.7852
  191SAPI  H10X22083   2.727   6.044   3.242 -1.0713 -0.2082 -1.4669
  191SAPI  H10Y22084   2.888   5.980   3.221 -0.6981  0.7930 -0.2553
  191SAPI  C31122085   2.768   5.878   3.364  0.2324  0.2526  0.7338
  191SAPI  H11X22086   2.806   5.776   3.340  3.0320  1.2288  0.6348
  191SAPI  H11Y22087   2.662   5.859   3.390 -0.5791  0.5120 -2.0504
  191SAPI  C31222088   2.858   5.923   3.483 -0.2908  0.2607 -0.2123
  191SAPI  H12X22089   2.813   6.020   3.512  0.1509  0.7927 -1.2552
  191SAPI  H12Y22090   2.966   5.937   3.459 -0.1599  1.5501  0.9978
  191SAPI  C31322091   2.835   5.825   3.602 -0.6849  0.3977 -0.2625
  191SAPI  H13X22092   2.881   5.727   3.577  0.9486  0.1550  3.0476
  191SAPI  H13Y22093   2.725   5.811   3.608 -1.1772  2.2680 -3.0774
  191SAPI  C31422094   2.887   5.864   3.745  0.2239  0.0298 -0.3125
  191SAPI  H14X22095   2.993   5.899   3.749  0.9119 -1.8845 -0.8738
  191SAPI  H14Y22096   2.880   5.769   3.802 -0.3350  0.4708  0.3665
  191SAPI  C31522097   2.800   5.972   3.816  0.0645  0.2673  0.1663
  191SAPI  H15X22098   2.698   5.930   3.809 -0.3572  1.1881  0.5376
  191SAPI  H15Y22099   2.780   6.056   3.747 -0.1724  0.4112  0.4070
  191SAPI  C31622100   2.832   6.010   3.962 -0.3095 -0.3354 -0.0393
  191SAPI  H16X22101   2.841   5.917   4.023  0.9943 -0.1651  0.0519
  191SAPI  H16Y22102   2.751   6.082   3.986  0.4104  0.5032 -0.0861
  191SAPI  C31722103   2.968   6.081   3.962 -0.1717  0.8421  0.2045
  191SAPI  H17X22104   2.963   6.165   3.890 -0.6303 -0.8175 -1.8012
  191SAPI  H17Y22105   3.056   6.020   3.931 -0.5672  0.6093 -0.4802
  191SAPI  C31822106   2.986   6.142   4.104  0.3526 -0.4683  0.7744
  191SAPI  H18X22107   2.991   6.060   4.179 -0.0797 -0.2432  1.0548
  191SAPI  H18Y22108   2.903   6.199   4.151  0.0813 -0.3817  0.1966
  191SAPI  H18Z22109   3.079   6.202   4.108  1.1257 -1.4903 -0.8139
  192SAPI   C1222110   5.576   1.919   2.252  0.1553 -0.2844 -0.2726
  192SAPI    H222111   5.605   1.837   2.321  1.7119  0.4978  0.0240
  192SAPI    O222112   5.681   1.934   2.159  0.3012  0.4175  0.3268
  192SAPI   HO222113   5.715   1.844   2.153 -1.4708 -0.2560 -0.5437
  192SAPI   C1322114   5.446   1.880   2.185  0.1200 -0.5328 -0.2836
  192SAPI    H322115   5.370   1.868   2.266  1.0955  1.2587  0.9876
  192SAPI    O322116   5.451   1.755   2.120 -0.0792 -0.6221 -0.1530
  192SAPI   HO322117   5.415   1.692   2.184  0.3534 -0.5087  0.2033
  192SAPI   C1422118   5.394   1.990   2.096 -0.7796  0.2359 -0.0323
  192SAPI    H422119   5.442   1.978   1.996  0.4012 -1.0959  0.6663
  192SAPI    O422120   5.251   1.963   2.065  0.5466 -0.3369 -0.1515
  192SAPI   HO422121   5.222   2.015   1.989  0.2385  0.8654  0.7703
  192SAPI   C1522122   5.414   2.133   2.144 -0.6699 -0.4970  0.3852
  192SAPI    H522123   5.320   2.151   2.201 -1.3438  0.0346 -0.8490
  192SAPI    O522124   5.427   2.223   2.030 -0.0190 -0.1371 -0.0520
  192SAPI   HO522125   5.349   2.275   2.008  1.5560  1.9263 -1.1912
  192SAPI   C1622126   5.518   2.163   2.245 -0.0080 -0.1858  0.0796
  192SAPI    H622127   5.602   2.196   2.180 -1.4004  0.0355 -1.6869
  192SAPI    O622128   5.481   2.277   2.324  0.1117  0.7980  0.0405
  192SAPI   HO622129   5.479   2.249   2.416 -2.1837 -2.0726 -0.7318
  192SAPI   C1122130   5.565   2.048   2.333 -0.0232  0.8709  0.2932
  192SAPI    H122131   5.487   2.034   2.411 -2.5081  0.3335 -2.0965
  192SAPI     P22132   5.712   2.140   2.552 -0.0697 -0.1580 -0.0679
  192SAPI   O1322133   5.855   2.160   2.584 -0.1339  0.4347 -0.9819
  192SAPI   O1422134   5.622   2.054   2.628 -0.3919 -0.2945 -1.1278
  192SAPI   O1222135   5.685   2.087   2.396 -0.0548 -0.4560  0.3750
  192SAPI   O1122136   5.653   2.282   2.552  0.0211 -0.0607 -0.4367
  192SAPI    C122137   5.718   2.412   2.560 -0.4854  0.1281  0.1019
  192SAPI    HA22138   5.816   2.416   2.509  0.1195 -0.4857  1.1958
  192SAPI    HB22139   5.650   2.486   2.512 -0.2537  0.0204 -0.3996
  192SAPI    C222140   5.723   2.457   2.708  0.3815 -0.2532  0.0704
  192SAPI    HS22141   5.752   2.564   2.717 -0.8370  0.1378 -0.4721
  192SAPI   O2122142   5.811   2.375   2.783 -0.3792 -0.0807  1.0380
  192SAPI   C2122143   5.938   2.375   2.762 -0.4954  0.2660 -0.1863
  192SAPI   O2222144   5.999   2.443   2.682  0.1415 -0.3258 -0.0210
  192SAPI   C2222145   6.007   2.275   2.857 -0.6088 -0.4621  0.1564
  192SAPI   H2R22146   5.940   2.222   2.928 -2.5009  2.5183  0.7475
  192SAPI   H2S22147   6.065   2.207   2.792  0.8917 -0.7193  1.6807
  192SAPI    C322148   5.581   2.444   2.773 -0.3481 -0.3043  0.0104
  192SAPI    HX22149   5.568   2.334   2.782  0.5629 -0.5020 -0.8714
  192SAPI    HY22150   5.516   2.494   2.698  1.8144 -2.0128 -3.2634
  192SAPI   O3122151   5.583   2.511   2.901  0.6594  0.6590 -0.3236
  192SAPI   C3122152   5.476   2.578   2.932  0.2199 -0.6566 -0.4989
  192SAPI   O3222153   5.375   2.577   2.864 -0.1350 -0.3047 -0.3372
  192SAPI   C3222154   5.509   2.663   3.053 -0.1884 -0.1336 -0.1303
  192SAPI   H2X22155   5.516   2.766   3.011  0.3280  0.4737  1.4033
  192SAPI   H2Y22156   5.601   2.633   3.106 -1.2806 -0.9105  1.4052
  192SAPI   C2322157   6.111   2.353   2.947 -0.6959  0.3709 -0.0318
  192SAPI   H3R22158   6.052   2.420   3.012  0.0100  1.3372 -0.3594
  192SAPI   H3S22159   6.189   2.405   2.887  2.2129 -2.0458  1.3284
  192SAPI   C2422160   6.191   2.254   3.034  0.6443 -0.8237  0.4462
  192SAPI   H4R22161   6.278   2.318   3.062  0.3956 -0.5093  0.5101
  192SAPI   H4S22162   6.229   2.168   2.975 -2.0527 -0.9693 -1.2381
  192SAPI   C2522163   6.121   2.214   3.157 -0.3407 -0.0606  0.2462
  192SAPI   H5R22164   6.014   2.195   3.143 -0.1134 -0.0871 -1.6868
  192SAPI   C2622165   6.172   2.234   3.286  0.2445 -0.2248  0.2823
  192SAPI   H6R22166   6.120   2.194   3.374  1.6398 -0.2993  1.1025
  192SAPI   C2722167   6.305   2.285   3.326 -0.1806  0.7361  0.5354
  192SAPI   H7R22168   6.339   2.378   3.275 -2.3855  1.1844 -0.2596
  192SAPI   H7S22169   6.375   2.206   3.290 -0.5908  0.0046  1.3008
  192SAPI   C2822170   6.325   2.306   3.473 -0.0258  0.8264 -0.3732
  192SAPI   H8R22171   6.273   2.396   3.508 -0.3879 -0.1058  1.5977
  192SAPI   C2922172   6.379   2.223   3.563  0.4691  0.9394 -0.3291
  192SAPI   H9R22173   6.388   2.263   3.665  2.7927 -2.1764  0.8502
  192SAPI  C21022174   6.453   2.089   3.533  0.0485 -0.4693  0.2241
  192SAPI  H10R22175   6.449   2.069   3.424 -2.5052  1.4731 -0.1201
  192SAPI  H10S22176   6.387   2.010   3.574 -0.0095 -0.2997  0.4585
  192SAPI  C21122177   6.598   2.069   3.577  0.6614 -0.0643 -0.0372
  192SAPI  H11R22178   6.663   2.130   3.511 -0.1002  3.1639  1.9565
  192SAPI  C21222179   6.646   2.008   3.683 -0.4506 -0.5393  0.4419
  192SAPI  H12R22180   6.755   1.996   3.695 -0.2603 -0.0670 -0.6932
  192SAPI  C21322181   6.556   1.942   3.781  0.6113  0.4095 -0.6580
  192SAPI  H13R22182   6.450   1.947   3.749 -0.1755 -1.0677  1.5252
  192SAPI  H13S22183   6.565   2.004   3.873  1.4071 -2.6328  1.4635
  192SAPI  C21422184   6.579   1.788   3.802  0.2000  0.9235 -0.0427
  192SAPI  H14R22185   6.548   1.726   3.717 -2.8773  0.4699  1.2598
  192SAPI  C21522186   6.630   1.723   3.908 -0.0079 -0.8435 -0.8749
  192SAPI  H15R22187   6.639   1.614   3.921  0.4906 -0.4836  2.6502
  192SAPI  C21622188   6.682   1.791   4.032 -0.4951 -0.0163 -0.3710
  192SAPI  H16R22189   6.723   1.893   4.017  3.3023 -0.5378  4.0360
  192SAPI  H16S22190   6.763   1.731   4.080 -0.8675 -0.2130  0.0240
  192SAPI  C21722191   6.571   1.800   4.139 -0.9633  0.0393  0.2584
  192SAPI  H17R22192   6.493   1.860   4.088 -1.8606 -2.3808 -1.4293
  192SAPI  H17S22193   6.601   1.862   4.226 -2.0319 -0.1066  0.7516
  192SAPI  C21822194   6.514   1.677   4.213  0.1515 -0.2175 -0.3201
  192SAPI  H18R22195   6.478   1.604   4.138 -2.4836  0.2001  0.4584
  192SAPI  H18S22196   6.420   1.714   4.259  0.0019 -0.3477 -0.5207
  192SAPI  C21922197   6.610   1.625   4.314 -0.5070  1.2336 -0.1353
  192SAPI  H19R22198   6.674   1.710   4.343 -1.1655  1.5343  0.4810
  192SAPI  H19S22199   6.673   1.552   4.259 -0.8310  0.1888  0.8333
  192SAPI  C22022200   6.536   1.562   4.437  0.0409 -0.2869 -0.0152
  192SAPI  H20R22201   6.496   1.465   4.401 -1.8978 -0.1567  1.5955
  192SAPI  H20S22202   6.445   1.618   4.465  1.0785  1.3777  0.1251
  192SAPI  H20T22203   6.609   1.551   4.521  0.8476 -2.6372 -0.9398
  192SAPI   C3322204   5.399   2.665   3.160  0.6382 -0.2527  0.1372
  192SAPI   H3X22205   5.399   2.565   3.209  1.5505 -1.5616 -2.3659
  192SAPI   H3Y22206   5.300   2.676   3.111  0.5115  2.9921  0.8887
  192SAPI   C3422207   5.411   2.779   3.261 -0.0959  0.0843  0.1339
  192SAPI   H4X22208   5.314   2.775   3.315 -0.1295 -1.7029 -0.0093
  192SAPI   H4Y22209   5.406   2.877   3.210  1.1057  0.3857  0.5484
  192SAPI   C3522210   5.525   2.753   3.362 -0.0823  0.4680 -0.3117
  192SAPI   H5X22211   5.627   2.762   3.318  0.8960  2.0933  2.0700
  192SAPI   H5Y22212   5.507   2.645   3.380 -1.6059  0.5467 -1.1970
  192SAPI   C3622213   5.519   2.842   3.487  0.3561  0.3534 -0.0516
  192SAPI   H6X22214   5.414   2.852   3.521  0.1869  2.8971 -1.0746
  192SAPI   H6Y22215   5.538   2.946   3.452 -0.7704  0.4138 -0.5090
  192SAPI   C3722216   5.615   2.804   3.602 -0.2864  0.3376 -0.2358
  192SAPI   H7X22217   5.722   2.795   3.573  0.0022  1.2198  0.5080
  192SAPI   H7Y22218   5.581   2.703   3.634  0.9953 -0.2996 -0.8485
  192SAPI   C3822219   5.610   2.896   3.722  0.5462  0.3624 -0.0846
  192SAPI   H8X22220   5.503   2.879   3.746  0.4355 -0.2572 -0.9327
  192SAPI   H8Y22221   5.619   2.999   3.683 -1.9502  0.3345 -0.9228
  192SAPI   C3922222   5.692   2.858   3.847 -0.0274  0.1588 -0.6217
  192SAPI   H9X22223   5.800   2.871   3.823 -0.1217  1.5350 -0.3965
  192SAPI   H9Y22224   5.673   2.749   3.854 -1.4155  0.3075 -1.5444
  192SAPI  C31022225   5.660   2.938   3.969  0.2730  0.1861 -0.1766
  192SAPI  H10X22226   5.552   2.922   3.991 -0.4639 -0.6268 -3.8418
  192SAPI  H10Y22227   5.667   3.048   3.957  0.1954  0.6544  3.0186
  192SAPI  C31122228   5.755   2.903   4.083 -0.9580  0.4560 -0.2139
  192SAPI  H11X22229   5.858   2.916   4.044 -0.8631 -3.0935 -1.4908
  192SAPI  H11Y22230   5.735   2.796   4.108  1.3573  0.1650  0.5617
  192SAPI  C31222231   5.738   2.993   4.209 -0.4333 -0.6370 -0.3405
  192SAPI  H12X22232   5.637   2.991   4.256  0.0892 -0.7466  0.7902
  192SAPI  H12Y22233   5.750   3.098   4.175 -2.2575  0.0258  0.8995
  192SAPI  C31322234   5.855   2.964   4.301 -0.4876 -0.0459 -0.1024
  192SAPI  H13X22235   5.948   2.985   4.245 -0.6736  1.1547  0.0003
  192SAPI  H13Y22236   5.851   2.857   4.329 -2.3856  0.0956  0.3296
  192SAPI  C31422237   5.861   3.039   4.435 -0.5343  0.2665 -0.1556
  192SAPI  H14X22238   5.950   3.018   4.497  0.5419  0.5336 -1.5522
  192SAPI  H14Y22239   5.767   3.018   4.491  0.0831 -2.8580 -0.1326
  192SAPI  C31522240   5.891   3.191   4.407 -0.2465 -0.0821 -0.1987
  192SAPI  H15X22241   5.810   3.222   4.337  1.7580  0.8603 -2.2144
  192SAPI  H15Y22242   5.986   3.200   4.350 -0.7056 -0.0753 -0.9809
  192SAPI  C31622243   5.875   3.278   4.530  0.0427  0.2980 -0.8982
  192SAPI  H16X22244   5.962   3.247   4.592 -1.5192  0.4555  1.5031
  192SAPI  H16Y22245   5.784   3.245   4.586 -0.5088 -0.9461 -2.4551
  192SAPI  C31722246   5.870   3.432   4.510  0.0839  0.2292  0.1850
  192SAPI  H17X22247   5.939   3.469   4.431 -1.5244 -0.8376 -1.8483
  192SAPI  H17Y22248   5.895   3.484   4.605  1.1481 -0.2677  0.1807
  192SAPI  C31822249   5.734   3.479   4.451  0.1607 -0.2099  0.2063
  192SAPI  H18X22250   5.712   3.406   4.370  2.8418 -2.8911  1.7070
  192SAPI  H18Y22251   5.760   3.581   4.414  3.4943 -0.9824  0.0635
  192SAPI  H18Z22252   5.655   3.478   4.528  0.5820 -0.3034  0.6436
  193SOD    SOD22253   2.314   0.337   8.278  0.0267  0.1959  0.4840
  194SOD    SOD22254   2.612   0.578   7.250 -0.4181 -0.0338  0.2960
  195SOD    SOD22255   1.974   0.955   0.907  0.3512  0.1699  0.0285
  196SOD    SOD22256   2.895   0.631   1.343 -0.0622 -0.3220 -0.4815
  197SOD    SOD22257   6.384   1.238   2.236 -0.2744 -0.7912  0.7581
  198SOD    SOD22258   2.715   5.665   1.484 -0.6909  0.3876 -0.1391
  199SOD    SOD22259   2.903   3.572   0.390  0.0999  0.2396 -0.3482
  200SOD    SOD22260   1.614   1.519   6.788 -0.2356 -0.1900  0.2240
  201SOD    SOD22261   4.114   3.415   6.420  0.0123  0.5205 -0.0659
  202SOD    SOD22262   5.339   0.558   7.105  0.1942  0.1586 -0.1340
  203SOD    SOD22263   6.071   6.354   8.384 -0.2788  0.1083  0.0397
  204SOD    SOD22264   3.888   0.715   6.525  0.1914  0.3671 -0.3346
  205SOD    SOD22265   2.439   2.955   0.753  0.2159  0.1811 -0.1439
  206SOD    SOD22266   2.036   3.494   1.324 -0.4628  0.0261 -0.0951
  207SOD    SOD22267   6.559   4.300   2.372 -0.1276 -0.0618  0.0449
  208SOD    SOD22268   2.435   3.248   6.689 -0.0812 -0.0822  0.3342
  209SOD    SOD22269   1.741   6.169   1.866 -0.1444 -0.3733  0.3793
  210SOD    SOD22270   5.517   1.234   0.186 -0.5421 -0.0947 -0.0216
  211SOD    SOD22271   2.945   4.851   8.614  0.2125  0.5384 -0.2234
  212SOD    SOD22272   5.353   4.539   6.689 -0.1824  0.0840 -0.1332
  213SOD    SOD22273   1.746   1.945   7.261 -0.0859  0.0566  0.2345
  214SOD    SOD22274   5.354   5.520   6.818 -0.6496 -0.1073 -0.1878
  215SOD    SOD22275   6.643   4.713   0.128 -0.5667  0.0424  0.1049
  216SOD    SOD22276   5.680   5.830   0.690  0.3495  0.5534 -0.5987
  217SOD    SOD22277   2.842   5.237   2.200  0.5707 -0.0702  0.0587
  218SOD    SOD22278   6.777   1.397   1.800  0.3612 -0.0432 -0.2035
  219SOD    SOD22279   3.901   1.280   1.691 -0.1448  0.1188  0.2673
  220SOD    SOD22280   1.721   4.675   2.384 -0.1004  0.2389 -0.0413
  221SOD    SOD22281   0.065   5.315   6.605 -0.3623 -0.3164  0.3798
  222SOD    SOD22282   5.335   5.935   2.203 -0.1411 -0.1337 -0.0731
  223SOD    SOD22283   3.770   5.734   1.603 -0.1312  0.1176  0.0366
  224SOD    SOD22284   5.739   1.582   7.787 -0.3857  0.4197 -0.1010
  225SOD    SOD22285   0.543   5.310   7.939  0.1203  0.2900 -0.7769
  226SOD    SOD22286   0.209   0.845   8.359  0.1704  0.0705  0.3065
  227SOD    SOD22287   0.958   5.636   0.155 -0.3172  0.4135  0.5336
  228SOD    SOD22288   4.601   6.059   6.884 -0.3599  0.7731 -0.2263
  229SOD    SOD22289   4.529   2.528   1.955  0.4532 -0.4063 -0.2326
  230SOD    SOD22290   2.497   6.160   6.331  0.5282  0.6334  0.0952
  231SOD    SOD22291   2.763   6.351   7.678  0.6350  0.0944 -0.3182
  232SOD    SOD22292   5.744   4.779   1.433  0.4674 -0.1100 -0.0408
  233SOD    SOD22293   3.407   2.970   7.095 -0.3198 -0.6419  0.2323
  234CLA    CLA22294   0.176   4.572   1.558 -0.0047  0.0602 -0.1703
  235CLA    CLA22295   2.852   3.316   8.125  0.3011 -0.3818  0.0987
  236CLA    CLA22296   4.870   5.794   1.619  0.3841 -0.0032  0.1021
  237CLA    CLA22297   2.035   3.163   0.643  0.1943  0.0777  0.0973
  238CLA    CLA22298   2.656   6.781   7.921 -0.1823 -0.3214  0.1587
  239CLA    CLA22299   3.497   1.546   8.049  0.1148  0.4511 -0.1777
  240CLA    CLA22300   4.064   6.042   8.502 -0.0858 -0.2013 -0.0981
  241CLA    CLA22301   3.715   4.569   0.432 -0.1235 -0.0979  0.6411
  242CLA    CLA22302   1.136   1.433   7.949  0.3696 -0.0008  0.0005
  243CLA    CLA22303   0.329   4.133   1.679  0.3673 -0.1178 -0.4479
  244CLA    CLA22304   3.253   1.664   7.643 -0.1375  0.1589  0.5482
  245CLA    CLA22305   2.111   0.583   0.566  0.2105 -0.0141  0.1400
  246CLA    CLA22306   2.700   1.816   7.157 -0.1014  0.0751  0.0129
  247CLA    CLA22307   4.498   2.278   8.063 -0.1911  0.1182  0.1015
  248CLA    CLA22308   1.544   5.870   8.097  0.1355  0.0856 -0.1334
  249CLA    CLA22309   5.334   5.060   1.152  0.0958  0.1352 -0.1949
  250CLA    CLA22310   5.270   6.088   0.140 -0.4485 -0.0969  0.3481
  251TIP3   OH222311   6.626   0.382   0.236 -0.8248  0.1209  0.3120
  251TIP3    H122312   6.594   0.366   0.325  0.2712  0.4737  0.7768
  251TIP3    H222313   6.636   0.477   0.231 -1.0155  0.1117 -0.2377
  252TIP3   OH222314   6.236   1.830   1.524 -0.0256 -0.1016 -0.6092
  252TIP3    H122315   6.161   1.771   1.522 -0.7332  0.7552 -0.2343
  252TIP3    H222316   6.240   1.860   1.615 -1.0628  2.1220 -1.2315
  253TIP3   OH222317   6.122   3.148   0.227 -0.4892  0.0294  0.1275
  253TIP3    H122318   6.166   3.178   0.307  0.9167 -0.0295 -0.6025
  253TIP3    H222319   6.095   3.229   0.183  2.6209  0.3670 -1.4544
  254TIP3   OH222320   5.310   1.167   7.405 -0.0088  0.0537  0.8817
  254TIP3    H122321   5.399   1.175   7.440  0.4434  0.0942 -0.2500
  254TIP3    H222322   5.317   1.102   7.335 -1.1775 -1.0741  1.7422
  255TIP3   OH222323   3.646   0.318   7.530 -0.1772  0.1206 -0.3392
  255TIP3    H122324   3.682   0.322   7.442 -2.1238  2.1539 -1.1572
  255TIP3    H222325   3.558   0.280   7.518  0.2085 -1.3309  1.0428
  256TIP3   OH222326   5.396   1.737   2.793  0.4607 -0.1438  0.4518
  256TIP3    H122327   5.376   1.751   2.701 -0.6667  1.4024  0.8820
  256TIP3    H222328   5.429   1.822   2.823 -2.4400  0.4855  2.2263
  257TIP3   OH222329   1.499   6.291   7.644  0.1512  0.4678  0.2283
  257TIP3    H122330   1.587   6.266   7.673 -0.0957 -1.0813 -0.2818
  257TIP3    H222331   1.503   6.287   7.548 -0.3880  0.7067  0.1918
  258TIP3   OH222332   4.472   6.249   6.789  0.2162 -0.1928  0.0487
  258TIP3    H122333   4.415   6.197   6.734 -0.4301 -0.6643  1.1337
  258TIP3    H222334   4.524   6.301   6.728 -0.6056 -0.5594 -0.9815
  259TIP3   OH222335   1.238   5.739   1.362  0.1351 -0.4792 -0.3190
  259TIP3    H122336   1.323   5.703   1.335  0.2377  0.4951 -1.3907
  259TIP3    H222337   1.231   5.719   1.455  1.3228 -1.0077 -0.3323
  260TIP3   OH222338   4.309   6.846   0.018 -0.2263 -0.2827  0.0035
  260TIP3    H122339   4.319   6.894  -0.064 -1.8893 -0.2932 -0.2579
  260TIP3    H222340   4.349   6.902   0.084  0.2701  0.1767 -0.6753
  261TIP3   OH222341   4.425   6.551   2.484 -0.4784 -0.0098  0.0975
  261TIP3    H122342   4.468   6.617   2.537 -3.9113  1.4854  1.2789
  261TIP3    H222343   4.426   6.587   2.395 -1.1700  1.0491  0.5044
  262TIP3   OH222344   5.435   1.444   1.050  0.4260  0.7430 -0.0759
  262TIP3    H122345   5.434   1.372   0.987  1.8707  0.3970  0.2493
  262TIP3    H222346   5.458   1.521   0.998 -0.5094  0.8619 -0.3211
  263TIP3   OH222347   2.242   6.146   0.561 -0.2010  0.2491  0.0770
  263TIP3    H122348   2.333   6.168   0.541 -0.6880  0.4130 -2.2654
  263TIP3    H222349   2.246   6.058   0.598  0.8875  0.1195 -0.3096
  264TIP3   OH222350   6.209   4.013   0.300  0.2309 -0.0478  0.0254
  264TIP3    H122351   6.187   3.977   0.214  3.4340  1.4064 -1.5538
  264TIP3    H222352   6.289   3.966   0.326 -0.2503  0.0786  1.9025
  265TIP3   OH222353   5.777   3.070   1.545 -0.2026 -0.7228 -0.3953
  265TIP3    H122354   5.693   3.035   1.577 -1.3630 -0.5798 -3.0221
  265TIP3    H222355   5.781   3.042   1.453  1.8887  0.6299 -0.7850
  266TIP3   OH222356   2.628   6.786   0.880 -0.3137  0.2588  0.1210
  266TIP3    H122357   2.698   6.829   0.831  0.6724  0.3378  1.5456
  266TIP3    H222358   2.668   6.706   0.915 -0.0373  1.6123  3.2199
  267TIP3   OH222359   6.119   6.647   6.890  0.4016  0.1834  0.5404
  267TIP3    H122360   6.140   6.702   6.966 -1.5707 -1.4944  2.4006
  267TIP3    H222361   6.186   6.670   6.825  1.0343  3.0570  2.0433
  268TIP3   OH222362   0.469   5.869   1.849  0.2845 -0.3963  0.0651
  268TIP3    H122363   0.527   5.943   1.833  0.1307 -0.2122  0.3495
  268TIP3    H222364   0.404   5.902   1.911 -0.7100 -0.2968 -0.9892
  269TIP3   OH222365   1.481   4.934   0.096 -0.3049  0.3221 -0.7302
  269TIP3    H122366   1.502   4.988   0.172 -0.3575  1.6131 -1.6213
  269TIP3    H222367   1.550   4.953   0.033 -0.6132 -0.2716 -1.2570
  270TIP3   OH222368   1.716   1.073   0.559  0.3045  0.1188 -0.7398
  270TIP3    H122369   1.714   0.994   0.612  0.6837 -0.9208 -2.1963
  270TIP3    H222370   1.649   1.058   0.491  0.6907  0.8325 -1.2929
  271TIP3   OH222371   6.279   4.686   6.870 -0.3842  0.6528  0.0896
  271TIP3    H122372   6.335   4.720   6.799 -1.1115  1.2399 -0.2223
  271TIP3    H222373   6.341   4.652   6.934  0.2866 -0.7306 -1.2151
  272TIP3   OH222374   0.525   3.539   7.046  0.2899 -0.6183 -0.1662
  272TIP3    H122375   0.494   3.461   7.092 -1.1790 -0.9568 -1.6061
  272TIP3    H222376   0.527   3.512   6.954 -3.5340  1.9113 -1.1941
  273TIP3   OH222377   2.420   1.871   1.319 -0.3046  0.2712 -0.1112
  273TIP3    H122378   2.374   1.850   1.400 -0.0184 -0.3748 -0.1066
  273TIP3    H222379   2.350   1.890   1.256 -0.5505  4.0957  1.0604
  274TIP3   OH222380   2.203   6.753   8.086 -0.1308  0.8377 -0.3077
  274TIP3    H122381   2.140   6.729   8.154 -0.7131  3.2501  0.1074
  274TIP3    H222382   2.211   6.848   8.094  1.6033  0.8977 -2.0813
  275TIP3   OH222383   0.347   2.342   2.342 -0.1513 -0.0507 -0.2894
  275TIP3    H122384   0.434   2.322   2.376  0.3609 -0.4292 -1.7614
  275TIP3    H222385   0.312   2.408   2.402  1.1309  0.0794  0.3343
  276TIP3   OH222386   4.506   3.541   1.140  0.0019  0.5829 -0.1400
  276TIP3    H122387   4.458   3.491   1.206  0.2578  0.3162 -0.1568
  276TIP3    H222388   4.445   3.611   1.115  0.8804  2.3589  2.3271
  277TIP3   OH222389   4.001   1.227   7.122  0.8449  0.6979 -0.2128
  277TIP3    H122390   3.950   1.146   7.119  1.6780  0.0485  1.3466
  277TIP3    H222391   4.046   1.231   7.038  1.5547 -1.0293  0.0382
  278TIP3   OH222392   0.660   3.617   0.995  0.2522  0.5535 -0.3128
  278TIP3    H122393   0.696   3.622   0.907 -0.3236  0.5702 -0.5547
  278TIP3    H222394   0.573   3.657   0.987 -0.2772 -0.4863 -0.0049
  279TIP3   OH222395   1.949   4.747   0.733  0.5214 -0.3442 -0.2770
  279TIP3    H122396   1.914   4.715   0.649 -0.4446  1.1345 -0.4870
  279TIP3    H222397   2.042   4.762   0.716  0.2458  0.3953 -1.2689
  280TIP3   OH222398   2.517   6.561   2.127  0.1163  0.1502  0.0550
  280TIP3    H122399   2.462   6.530   2.199 -0.9860 -1.3931 -1.3520
  280TIP3    H222400   2.523   6.656   2.140  0.4680 -0.1347  2.4654
  281TIP3   OH222401   4.787   2.309   0.154  0.2992 -0.3377 -0.6621
  281TIP3    H122402   4.713   2.368   0.168 -0.3328 -0.8447 -1.7510
  281TIP3    H222403   4.751   2.221   0.162  1.4935 -0.6591  2.2921
  282TIP3   OH222404   2.458   4.369   1.467  0.2355 -0.0135  0.4847
  282TIP3    H122405   2.473   4.369   1.561  1.9668 -0.8961  0.2344
  282TIP3    H222406   2.508   4.295   1.434 -1.9536 -0.9949 -0.9253
  283TIP3   OH222407   0.127   5.317   2.101 -0.0958  0.0106  0.3777
  283TIP3    H122408   0.104   5.238   2.150 -0.1071 -1.3706 -1.7494
  283TIP3    H222409   0.047   5.342   2.055  0.0082  1.0914  0.7333
  284TIP3   OH222410   1.096   0.824   2.085  0.0580  0.3100  0.3164
  284TIP3    H122411   1.125   0.765   2.015 -0.0127  0.9457 -0.2614
  284TIP3    H222412   1.049   0.768   2.146  0.7331 -0.3801  0.2180
  285TIP3   OH222413   0.615   5.568   8.691 -0.0576  0.7692  0.0705
  285TIP3    H122414   0.646   5.658   8.704  0.0939  1.0416 -1.8103
  285TIP3    H222415   0.556   5.552   8.765  0.9608  1.9128  1.1790
  286TIP3   OH222416   6.140   0.305   8.584 -0.1672 -0.4289 -0.4191
  286TIP3    H122417   6.098   0.311   8.498  1.9522 -3.3341 -1.8273
  286TIP3    H222418   6.067   0.299   8.646 -1.7493  0.5536 -2.0961
  287TIP3   OH222419   0.560   0.682   1.393  0.5431  0.2826 -0.0529
  287TIP3    H122420   0.631   0.627   1.426  1.5653  0.4215 -1.8372
  287TIP3    H222421   0.599   0.770   1.389 -0.4747  0.8086  1.0308
  288TIP3   OH222422   5.834   3.475   7.854 -0.2171  0.4562  0.3136
  288TIP3    H122423   5.826   3.517   7.768 -0.7505  0.8595  0.5516
  288TIP3    H222424   5.744   3.475   7.889 -0.4175 -1.7064 -0.0527
  289TIP3   OH222425   1.124   0.682   7.604  0.0264  0.2000 -0.5045
  289TIP3    H122426   1.171   0.623   7.663 -0.6814  0.0307 -0.1115
  289TIP3    H222427   1.052   0.630   7.569 -0.5879  0.8183 -0.1787
  290TIP3   OH222428   2.660   5.178   7.436  0.4128 -0.8905 -0.2588
  290TIP3    H122429   2.710   5.258   7.453  0.9821 -1.5596  1.4090
  290TIP3    H222430   2.571   5.200   7.463 -0.1326  0.0795 -2.5820
  291TIP3   OH222431   2.196   5.543   1.326  0.2032  0.3618  0.2794
  291TIP3    H122432   2.202   5.600   1.249  0.9329  0.9833  0.7858
  291TIP3    H222433   2.287   5.522   1.348 -0.0480 -0.7299  0.3052
  292TIP3   OH222434   2.347   3.502   7.786 -0.2841  0.3125  0.7530
  292TIP3    H122435   2.348   3.562   7.711 -2.9267 -0.2117  0.1841
  292TIP3    H222436   2.288   3.543   7.849 -0.2631 -0.5655  1.3630
  293TIP3   OH222437   4.828   0.375   1.594 -0.1662  0.3393  0.2238
  293TIP3    H122438   4.823   0.312   1.523  1.5831  1.3215 -0.8589
  293TIP3    H222439   4.737   0.395   1.616 -0.7475 -1.6572 -0.1627
  294TIP3   OH222440   3.476   1.124   7.932 -0.7558 -0.4346 -0.1776
  294TIP3    H122441   3.503   1.040   7.970 -0.8847 -1.2149 -1.7349
  294TIP3    H222442   3.555   1.178   7.935 -0.8465 -0.3654  1.4430
  295TIP3   OH222443   5.701   4.233   0.797  0.5289  0.0805 -0.0324
  295TIP3    H122444   5.662   4.314   0.828  0.9685  0.2071  0.2053
  295TIP3    H222445   5.653   4.164   0.844 -0.6458  0.1354 -1.1266
  296TIP3   OH222446   5.674   6.430   2.685 -0.2239 -0.3892 -0.2548
  296TIP3    H122447   5.581   6.449   2.676 -0.5041 -1.2356  0.7122
  296TIP3    H222448   5.709   6.500   2.740 -0.1417  0.2852 -1.1410
  297TIP3   OH222449   1.793   3.485   6.792  0.8451 -0.3220 -0.1004
  297TIP3    H122450   1.834   3.525   6.716 -0.0752 -1.3048 -1.1493
  297TIP3    H222451   1.702   3.517   6.790  0.9835  0.1995  1.0074
  298TIP3   OH222452   0.347   4.435   8.078 -0.5580 -0.1604 -0.4696
  298TIP3    H122453   0.383   4.495   8.013  0.1006 -0.1695 -0.1148
  298TIP3    H222454   0.357   4.348   8.040  0.2745 -0.2091 -0.1583
  299TIP3   OH222455   0.810   5.876   7.407  0.3131  0.6827 -0.0971
  299TIP3    H122456   0.850   5.812   7.466 -0.0184 -0.6310 -1.2395
  299TIP3    H222457   0.788   5.950   7.464  2.9138  0.8461  0.8634
  300TIP3   OH222458   5.486   1.870   0.504 -0.5980 -0.2698  0.0421
  300TIP3    H122459   5.524   1.785   0.484  0.7644  0.3504 -0.0920
  300TIP3    H222460   5.512   1.927   0.432 -2.5161  0.0093 -0.5096
  301TIP3   OH222461   3.158   1.129   7.206  0.1820 -0.4377  0.8042
  301TIP3    H122462   3.140   1.140   7.299  1.0288  1.6856  0.7613
  301TIP3    H222463   3.072   1.118   7.166 -0.5567  2.2396  1.4529
  302TIP3   OH222464   1.125   4.448   8.265  0.6352  0.3450  0.3627
  302TIP3    H122465   1.176   4.377   8.305  0.2306 -0.2722 -0.1862
  302TIP3    H222466   1.153   4.449   8.174  0.3764  0.6459  0.2856
  303TIP3   OH222467   5.842   2.372   7.268  0.2386 -0.1649  0.4550
  303TIP3    H122468   5.841   2.308   7.197 -0.1690  0.6534 -0.3015
  303TIP3    H222469   5.809   2.452   7.228 -1.3782 -0.0297  1.9172
  304TIP3   OH222470   1.893   3.851   1.720  0.6197  0.5372  0.1498
  304TIP3    H122471   1.953   3.827   1.650  0.7935  3.0917 -0.6707
  304TIP3    H222472   1.806   3.846   1.681  0.7027  1.7635 -0.2362
  305TIP3   OH222473   2.369   0.493   1.817  0.2381  0.7201  0.0650
  305TIP3    H122474   2.321   0.518   1.739 -0.2820 -1.0247 -0.2074
  305TIP3    H222475   2.398   0.576   1.855 -2.7704  1.8467  0.1272
  306TIP3   OH222476   5.124   2.755   0.163  0.4383 -0.3839 -0.0048
  306TIP3    H122477   5.033   2.777   0.181  0.4028 -0.0955 -0.5050
  306TIP3    H222478   5.153   2.706   0.240  0.6189  1.7094  1.3168
  307TIP3   OH222479   0.549   3.045   2.381 -0.4689  0.1239 -0.0147
  307TIP3    H122480   0.541   2.973   2.318 -1.1721 -0.5476  0.8094
  307TIP3    H222481   0.459   3.068   2.404 -0.2348  0.3449  0.7417
  308TIP3   OH222482   4.522   1.171   1.909  0.1732  0.2723  0.4710
  308TIP3    H122483   4.564   1.211   1.833 -0.0546  0.7221  0.5764
  308TIP3    H222484   4.495   1.245   1.963 -1.3535  0.0444  0.0874
  309TIP3   OH222485   0.069   3.977   7.473 -0.8183  0.2675 -0.3651
  309TIP3    H122486  -0.015   4.008   7.507  0.3490  2.6201  0.6396
  309TIP3    H222487   0.085   4.030   7.395 -0.9052 -1.2078 -1.4296
  310TIP3   OH222488   1.791   2.575   1.929  0.5139 -0.2365 -0.3339
  310TIP3    H122489   1.728   2.613   1.990  0.0594 -1.1727 -0.1913
  310TIP3    H222490   1.789   2.633   1.853 -2.0439 -1.2644 -1.1862
  311TIP3   OH222491   5.713   1.160   8.355  0.2817  0.3141 -0.1981
  311TIP3    H122492   5.676   1.245   8.331 -1.4207 -0.5658 -0.7804
  311TIP3    H222493   5.644   1.097   8.338  2.4678 -1.6474 -2.7760
  312TIP3   OH222494   2.689   1.063   1.485 -0.4989 -0.7513 -0.2393
  312TIP3    H122495   2.651   1.148   1.508 -2.0148 -1.3819 -0.2758
  312TIP3    H222496   2.613   1.005   1.476  0.4949 -2.0645 -0.4027
  313TIP3   OH222497   5.551   5.180   0.954 -0.0333 -0.6308  0.3648
  313TIP3    H122498   5.477   5.151   1.007 -1.2242 -0.0908 -0.9416
  313TIP3    H222499   5.617   5.111   0.965 -1.0367 -1.5242  0.9190
  314TIP3   OH222500   2.970   0.120   0.417 -0.0226 -0.1225 -0.2886
  314TIP3    H122501   2.923   0.102   0.336  0.6915 -1.0605 -0.5191
  314TIP3    H222502   2.909   0.094   0.486 -1.4672  2.6440 -0.3859
  315TIP3   OH222503   5.120   5.861   0.287  0.4995 -0.1060 -0.2607
  315TIP3    H122504   5.156   5.924   0.225 -1.1588  0.0515 -1.1336
  315TIP3    H222505   5.113   5.780   0.237  1.8251 -0.8000  0.6093
  316TIP3   OH222506   5.145   3.463   6.572  0.1719 -0.8790 -0.6971
  316TIP3    H122507   5.078   3.502   6.517  0.4610  0.3732 -0.2063
  316TIP3    H222508   5.221   3.520   6.562 -0.9520  2.0523  4.1209
  317TIP3   OH222509   1.937   5.702   1.043 -0.5398  0.3938  0.1986
  317TIP3    H122510   1.919   5.624   0.991 -2.0471 -0.2723  1.6302
  317TIP3    H222511   2.023   5.687   1.082  0.0337  0.3430 -1.0322
  318TIP3   OH222512   4.258   3.233   6.450  0.3717  0.0371 -0.4013
  318TIP3    H122513   4.253   3.142   6.421 -0.0113  0.1720 -0.7742
  318TIP3    H222514   4.315   3.231   6.527  0.4508 -0.5006 -0.4707
  319TIP3   OH222515   3.341   6.495   0.992  0.3127 -0.2104 -0.0984
  319TIP3    H122516   3.391   6.438   0.933  2.2594  0.3207  0.9817
  319TIP3    H222517   3.371   6.583   0.972 -0.7138  0.2077  0.1264
  320TIP3   OH222518   4.764   5.782   7.180  0.2964 -0.1003  0.0545
  320TIP3    H122519   4.765   5.859   7.237  0.7145 -0.5800  0.7158
  320TIP3    H222520   4.722   5.714   7.233  2.1376 -1.0070  0.4506
  321TIP3   OH222521   3.173   6.102   1.611  0.2321  0.1862 -0.1375
  321TIP3    H122522   3.260   6.096   1.573 -0.3409  1.5233 -1.7522
  321TIP3    H222523   3.135   6.181   1.573 -1.7287 -0.4127  0.4561
  322TIP3   OH222524   5.484   5.449   1.474 -0.0823  0.3441 -0.1412
  322TIP3    H122525   5.551   5.397   1.429 -0.9288 -0.4790 -0.4927
  322TIP3    H222526   5.405   5.396   1.468 -0.7849  1.3200  0.2193
  323TIP3   OH222527   6.409   0.001   7.627  0.6140 -0.2139  0.3308
  323TIP3    H122528   6.397   0.087   7.667  1.1060  0.4077 -0.8313
  323TIP3    H222529   6.421   0.019   7.534  0.1423 -1.5842 -0.0132
  324TIP3   OH222530   5.760   5.513   6.721 -0.2873 -0.6763 -0.3101
  324TIP3    H122531   5.810   5.568   6.661 -0.7068  1.2076  0.9896
  324TIP3    H222532   5.765   5.426   6.682  2.8440 -0.3358 -0.9622
  325TIP3   OH222533   2.998   4.415   7.019  0.0552  0.2454 -0.2943
  325TIP3    H122534   2.966   4.426   7.109 -3.5013 -1.1160 -1.1828
  325TIP3    H222535   2.950   4.338   6.987  0.8170  0.9829 -3.5052
  326TIP3   OH222536   2.957   3.515   7.391 -0.5528 -0.1305  1.1335
  326TIP3    H122537   2.863   3.530   7.402 -0.6599  0.4386 -0.3638
  326TIP3    H222538   2.998   3.599   7.412 -0.4448 -0.1438  0.9809
  327TIP3   OH222539   2.852   5.648   0.601  0.0020 -0.3951 -0.0500
  327TIP3    H122540   2.883   5.701   0.675  1.5909 -1.4552  0.0777
  327TIP3    H222541   2.853   5.708   0.527  0.9142  0.0024  0.2725
  328TIP3   OH222542   0.376   5.586   7.540 -0.6262 -0.0340  0.1860
  328TIP3    H122543   0.363   5.588   7.635  0.7624 -0.8086  0.4229
  328TIP3    H222544   0.407   5.673   7.518 -0.5010  0.0085  0.5271
  329TIP3   OH222545   2.207   6.796   2.417  0.4419  0.2121 -0.1804
  329TIP3    H122546   2.156   6.783   2.496  0.8356 -0.6449 -0.0544
  329TIP3    H222547   2.252   6.879   2.431 -1.1623  1.1708 -0.4499
  330TIP3   OH222548   4.286   4.956   1.788  0.0116  0.4282 -0.5702
  330TIP3    H122549   4.306   4.862   1.781 -0.0040  0.3356  0.4191
  330TIP3    H222550   4.213   4.960   1.850  0.8797  1.1858  0.4253
  331TIP3   OH222551   1.806   6.614   0.197  0.4314  0.0061  0.3566
  331TIP3    H122552   1.723   6.574   0.224  1.9245 -1.9684  2.4229
  331TIP3    H222553   1.799   6.705   0.225  0.3333 -1.0188  4.2009
  332TIP3   OH222554   6.121   4.957   1.923  0.3336  0.4901  0.2336
  332TIP3    H122555   6.179   4.899   1.873 -0.8751  0.6592 -1.4835
  332TIP3    H222556   6.065   4.996   1.856 -2.9233 -0.9363  1.9084
  333TIP3   OH222557   2.695   2.627   7.490 -0.1333 -0.5104 -0.3455
  333TIP3    H122558   2.632   2.696   7.512  0.5049  0.3286 -1.0830
  333TIP3    H222559   2.650   2.546   7.513 -0.4224  0.1775  1.8074
  334TIP3   OH222560   0.073   5.344   1.511  0.1039  0.4359  0.3435
  334TIP3    H122561   0.167   5.334   1.527 -0.0559 -0.2976  0.8821
  334TIP3    H222562   0.034   5.266   1.550 -0.5071 -0.5090 -1.9438
  335TIP3   OH222563   4.265   5.789   2.135 -0.2394  0.1494 -0.6443
  335TIP3    H122564   4.351   5.827   2.114  0.3362 -1.0992 -0.6366
  335TIP3    H222565   4.222   5.780   2.050  0.1962 -0.4948 -0.8036
  336TIP3   OH222566   5.896   3.994   0.812  0.0316  0.2978 -0.4273
  336TIP3    H122567   5.857   4.078   0.786  0.4068  0.2350 -1.1997
  336TIP3    H222568   5.928   3.956   0.731 -0.6034 -0.8527 -0.1640
  337TIP3   OH222569   2.225   5.882   8.097 -0.5028 -0.4631  0.2739
  337TIP3    H122570   2.199   5.963   8.053 -0.1440 -0.8596 -0.7153
  337TIP3    H222571   2.302   5.853   8.048  0.8438 -0.1530  2.1312
  338TIP3   OH222572   5.235   0.581   1.420 -0.6228  0.1637  0.1862
  338TIP3    H122573   5.179   0.504   1.422 -1.7477  0.9469 -0.0098
  338TIP3    H222574   5.192   0.644   1.478  2.2732 -0.6135  3.5081
  339TIP3   OH222575   5.262   6.232   8.572 -0.0101 -0.1547 -0.6191
  339TIP3    H122576   5.342   6.214   8.522 -0.1298 -0.4311 -0.7115
  339TIP3    H222577   5.281   6.199   8.659  0.9713  2.1408  0.1241
  340TIP3   OH222578   1.408   4.666   7.447  0.8376 -0.8185  0.5216
  340TIP3    H122579   1.348   4.591   7.451  0.0806 -0.2093  1.0033
  340TIP3    H222580   1.372   4.722   7.377  1.0646 -0.6307  0.5520
  341TIP3   OH222581   1.986   3.150   8.396 -0.0991  0.2611  1.0912
  341TIP3    H122582   1.995   3.221   8.333 -0.4263 -0.2968  0.4145
  341TIP3    H222583   2.042   3.177   8.469 -0.4284  1.3406  0.9659
  342TIP3   OH222584   4.110   3.844   0.935  0.2980 -0.2029 -0.0022
  342TIP3    H122585   4.085   3.764   0.890 -1.2755  0.0422  0.3868
  342TIP3    H222586   4.061   3.913   0.891  1.2767  0.4999 -0.0320
  343TIP3   OH222587   2.156   4.548   0.125 -0.5300  0.4612  0.4898
  343TIP3    H122588   2.124   4.516   0.041  0.9560 -0.9923  0.4310
  343TIP3    H222589   2.128   4.482   0.188 -1.5781  1.5081  1.1759
  344TIP3   OH222590   3.670   0.726   8.411  0.1688 -0.3045 -0.4496
  344TIP3    H122591   3.716   0.800   8.372  1.3642 -1.0247 -0.4683
  344TIP3    H222592   3.715   0.649   8.376  0.7645 -1.0000  1.6615
  345TIP3   OH222593   6.807   1.169   1.752 -0.0540  0.0758  0.0797
  345TIP3    H122594   6.780   1.120   1.675  0.0526  0.8893 -0.4904
  345TIP3    H222595   6.894   1.134   1.773 -0.1998 -0.3373  0.0033
  346TIP3   OH222596   6.679   1.380   8.641  0.7363 -0.4853  0.5744
  346TIP3    H122597   6.664   1.314   8.573  0.0811  1.4857 -1.3168
  346TIP3    H222598   6.616   1.358   8.710 -1.3529 -0.3719 -1.1800
  347TIP3   OH222599   3.703   4.667   6.790 -1.0996  0.2648 -0.0290
  347TIP3    H122600   3.768   4.725   6.750  1.1551 -0.3729  2.4354
  347TIP3    H222601   3.697   4.593   6.730  1.9839 -0.5464  0.5046
  348TIP3   OH222602   4.696   0.346   7.025  0.5175 -0.1973  0.0445
  348TIP3    H122603   4.705   0.396   6.945 -1.0337  0.2510  0.1199
  348TIP3    H222604   4.773   0.369   7.077  0.8219  0.5815 -0.7393
  349TIP3   OH222605   2.221   5.930   0.745 -0.1645 -0.3966  0.6571
  349TIP3    H122606   2.163   5.980   0.802  0.6536  0.9776  0.3098
  349TIP3    H222607   2.299   5.913   0.797  0.3199  0.3035  0.1725
  350TIP3   OH222608   1.434   5.160   2.451 -0.2738  0.2878  0.2911
  350TIP3    H122609   1.417   5.198   2.537 -0.8583  0.8134 -0.0488
  350TIP3    H222610   1.512   5.206   2.420  0.6267 -0.7050  1.0048
  351TIP3   OH222611   0.344   4.817   0.591  0.1672 -0.2363 -0.0897
  351TIP3    H122612   0.376   4.878   0.657  0.0953 -1.1082  0.7758
  351TIP3    H222613   0.395   4.738   0.605 -0.5412 -0.7665 -0.4237
  352TIP3   OH222614   3.985   3.845   7.581 -0.2359 -0.6958  0.1039
  352TIP3    H122615   3.939   3.918   7.623  1.0378 -0.1752  0.6396
  352TIP3    H222616   4.016   3.792   7.653  2.2341  0.3635 -0.0972
  353TIP3   OH222617   2.054   2.655   8.652 -0.2416  0.0639 -0.1039
  353TIP3    H122618   1.978   2.695   8.695  1.4977  2.9238  0.5860
  353TIP3    H222619   2.124   2.719   8.663  2.1984 -2.2426 -1.0852
  354TIP3   OH222620   5.225   6.097   1.825 -0.0635  0.8107 -0.2923
  354TIP3    H122621   5.232   6.005   1.799  0.5907  0.3312  1.4163
  354TIP3    H222622   5.215   6.145   1.743  0.7622 -0.6843 -1.3083
  355TIP3   OH222623   6.268   5.403   7.562 -0.1256 -0.2187  0.0891
  355TIP3    H122624   6.309   5.425   7.479  0.4575  0.0242  0.4352
  355TIP3    H222625   6.314   5.324   7.592  0.6749  0.5152  0.8687
  356TIP3   OH222626   4.267   2.377   7.456  0.1710 -0.0732  0.6641
  356TIP3    H122627   4.324   2.366   7.380  0.4457  1.3555  0.6368
  356TIP3    H222628   4.302   2.316   7.521 -0.0572 -1.2917 -0.3251
  357TIP3   OH222629   1.766   1.363   7.728 -0.1406 -0.5713 -0.2817
  357TIP3    H122630   1.687   1.407   7.758  0.3580 -0.8333  1.5773
  357TIP3    H222631   1.788   1.302   7.798  0.9673 -1.4731 -1.3586
  358TIP3   OH222632   3.849   6.847   6.760  0.0968  0.0243  0.6925
  358TIP3    H122633   3.902   6.904   6.816  0.0623  0.1358  0.6123
  358TIP3    H222634   3.759   6.861   6.790  0.0549  0.2396  0.4762
  359TIP3   OH222635   2.401   3.943   8.387 -0.4520  0.1251 -0.4589
  359TIP3    H122636   2.363   3.864   8.425  1.0912 -0.6359 -0.4104
  359TIP3    H222637   2.343   4.013   8.415 -0.0092 -0.5230  2.4765
  360TIP3   OH222638   2.849   5.458   0.325 -0.4019 -0.2140 -0.2482
  360TIP3    H122639   2.792   5.535   0.321  0.0284  0.1051 -0.3638
  360TIP3    H222640   2.930   5.486   0.280  0.1383 -0.3977  0.5913
  361TIP3   OH222641   3.953   3.256   0.779  0.1229  0.1394  0.0353
  361TIP3    H122642   4.028   3.315   0.766  0.2446 -0.2482 -1.1549
  361TIP3    H222643   3.877   3.308   0.755  0.1738  0.0170 -0.4042
  362TIP3   OH222644   3.599   2.994   1.147 -0.4779  0.1423 -0.3466
  362TIP3    H122645   3.593   2.899   1.131 -1.8633 -0.0449  0.9852
  362TIP3    H222646   3.676   3.004   1.202 -1.2668 -0.4610  0.9101
  363TIP3   OH222647   3.011   0.825   1.277 -0.2215  0.0064  0.4038
  363TIP3    H122648   3.104   0.848   1.270  0.0145 -1.0346 -0.1172
  363TIP3    H222649   2.965   0.909   1.274  0.5910  0.4535 -1.4255
  364TIP3   OH222650   3.241   1.082   2.291  0.3686 -0.0659  0.3707
  364TIP3    H122651   3.328   1.045   2.279  0.8213  1.2841 -0.7493
  364TIP3    H222652   3.187   1.036   2.227  0.8457  0.8921 -0.7507
  365TIP3   OH222653   5.749   4.742   8.349  0.2196  0.4091  0.6788
  365TIP3    H122654   5.763   4.770   8.439  1.0362 -0.2008  0.7489
  365TIP3    H222655   5.682   4.673   8.355 -1.5236  2.0275  0.5429
  366TIP3   OH222656   1.218   6.347   0.406  0.0843  0.6552  0.2351
  366TIP3    H122657   1.166   6.295   0.345  2.1601 -0.5702 -0.5558
  366TIP3    H222658   1.279   6.396   0.351 -1.1816  3.3094  1.0299
  367TIP3   OH222659   6.311   4.245   8.391  0.0152  0.2310  0.4613
  367TIP3    H122660   6.344   4.219   8.304 -0.7246 -0.5744  0.3991
  367TIP3    H222661   6.221   4.272   8.375 -0.4908 -0.9621  1.1111
  368TIP3   OH222662   4.288   3.254   6.955 -0.2356  0.2213  0.8384
  368TIP3    H122663   4.310   3.293   7.039 -1.6985 -0.3015  1.4941
  368TIP3    H222664   4.193   3.257   6.951 -0.2848 -1.4308  0.0141
  369TIP3   OH222665   0.628   6.091   8.404 -0.6167  0.2977  0.8860
  369TIP3    H122666   0.536   6.102   8.382  0.0714 -1.0931 -3.8936
  369TIP3    H222667   0.670   6.172   8.375  0.0114 -0.4357 -0.3672
  370TIP3   OH222668   5.105   0.894   0.241  0.1876  0.1564  0.1254
  370TIP3    H122669   5.129   0.806   0.214 -1.5008  0.1131 -1.4269
  370TIP3    H222670   5.126   0.949   0.166 -2.1989  0.4476 -0.4270
  371TIP3   OH222671   3.536   4.479   6.606  0.2400  0.5482 -0.7646
  371TIP3    H122672   3.549   4.532   6.527 -1.3376  1.2949 -0.5624
  371TIP3    H222673   3.459   4.517   6.648  0.9831  0.0930  1.1011
  372TIP3   OH222674   6.585   4.460   0.132 -0.3273  0.4838  0.3782
  372TIP3    H122675   6.529   4.434   0.059  0.0208  1.7970 -0.3850
  372TIP3    H222676   6.628   4.379   0.160  0.3188  0.1189 -1.5628
  373TIP3   OH222677   3.606   6.309   8.612  0.0475  0.1101 -0.5286
  373TIP3    H122678   3.701   6.298   8.615  0.1699  1.2931  0.7034
  373TIP3    H222679   3.581   6.278   8.525  1.5702 -0.0763 -0.9206
  374TIP3   OH222680   3.701   4.425   1.613  0.1919  0.1276 -0.1246
  374TIP3    H122681   3.773   4.415   1.675  1.4581  1.9122 -1.1960
  374TIP3    H222682   3.632   4.470   1.662  0.4375 -0.1507  0.4728
  375TIP3   OH222683   1.197   1.567   7.685  1.1095  0.7201  0.2308
  375TIP3    H122684   1.172   1.518   7.763 -0.0604  1.3914  0.2948
  375TIP3    H222685   1.198   1.658   7.712 -2.4604  1.3509 -1.1983
  376TIP3   OH222686   5.219   0.056   1.792  0.3053  0.1471 -0.4657
  376TIP3    H122687   5.239   0.072   1.884 -0.3989 -1.2443 -0.0450
  376TIP3    H222688   5.123   0.047   1.789  0.4089 -0.9572 -1.1166
  377TIP3   OH222689   3.611   5.086   8.092  0.1865  0.3608  0.0125
  377TIP3    H122690   3.596   5.042   8.176 -3.5758  1.0062 -0.1253
  377TIP3    H222691   3.634   5.015   8.032 -0.0046 -0.5488  0.9890
  378TIP3   OH222692   5.121   0.575   8.578  0.2932 -0.1319  0.7019
  378TIP3    H122693   5.052   0.638   8.558 -0.2897 -0.9463  0.0203
  378TIP3    H222694   5.112   0.558   8.672 -3.4268 -3.4534  0.0405
  379TIP3   OH222695   6.558   6.677   0.765 -0.1274  0.3317  0.2864
  379TIP3    H122696   6.492   6.636   0.821 -1.6729  1.1406 -0.8557
  379TIP3    H222697   6.642   6.650   0.803 -1.0683 -2.0772  0.8411
  380TIP3   OH222698   2.406   6.501   7.617 -0.5444 -0.5536  0.4599
  380TIP3    H122699   2.419   6.595   7.627 -2.4285 -0.1067 -0.6841
  380TIP3    H222700   2.365   6.473   7.699 -0.4775 -0.2592  0.5933
  381TIP3   OH222701   5.782   0.955   8.073  0.2057 -0.2555 -0.1771
  381TIP3    H122702   5.706   0.910   8.036 -0.4099  0.7423 -0.1666
  381TIP3    H222703   5.796   0.912   8.157  0.4767 -1.3186 -0.7543
  382TIP3   OH222704   2.479   4.195   7.203 -0.0787  0.1136  0.5919
  382TIP3    H122705   2.446   4.263   7.145  1.2846  0.8678  0.6551
  382TIP3    H222706   2.471   4.232   7.291 -2.3472 -1.1108  0.9792
  383TIP3   OH222707   6.210   2.840   7.262  0.3699 -0.1959 -0.5792
  383TIP3    H122708   6.123   2.810   7.287  1.5337 -1.9150  1.7910
  383TIP3    H222709   6.196   2.889   7.181 -2.5141 -2.0310 -1.3393
  384TIP3   OH222710   6.576   2.653   7.907 -0.2617  1.0134 -0.5715
  384TIP3    H122711   6.483   2.629   7.906 -0.0716  0.2444 -1.0481
  384TIP3    H222712   6.619   2.582   7.859  0.7221  0.7853  0.6047
  385TIP3   OH222713   1.585   1.804   7.128 -0.0864 -0.5499  0.4926
  385TIP3    H122714   1.530   1.733   7.160  0.2086 -1.4234 -0.8699
  385TIP3    H222715   1.535   1.844   7.057  0.2710 -0.1730  0.4481
  386TIP3   OH222716   6.380   2.892   1.461 -0.2599 -0.2790  0.0039
  386TIP3    H122717   6.400   2.930   1.376 -1.0321 -0.5786 -0.3228
  386TIP3    H222718   6.434   2.941   1.523  0.6132 -0.3309 -0.7033
  387TIP3   OH222719   0.676   1.904   6.718 -0.3745  0.5520  0.0414
  387TIP3    H122720   0.668   1.999   6.710 -2.0446  0.4873  0.5558
  387TIP3    H222721   0.586   1.871   6.711  0.2893 -1.1529 -1.7668
  388TIP3   OH222722   4.171   5.793   1.874  0.4850  0.8517  0.2728
  388TIP3    H122723   4.189   5.886   1.863  0.1817  0.8133 -0.6173
  388TIP3    H222724   4.233   5.749   1.816  0.0130  0.5473 -0.0103
  389TIP3   OH222725   4.460   0.367   7.418  0.1240  0.5416  0.0786
  389TIP3    H122726   4.420   0.449   7.391 -0.2345  0.4908  0.4562
  389TIP3    H222727   4.506   0.336   7.339 -0.7009  0.5184 -0.4015
  390TIP3   OH222728   0.107   6.256   0.021 -0.3952 -0.2365  0.2996
  390TIP3    H122729   0.096   6.201  -0.057  1.3938 -0.2481  0.0064
  390TIP3    H222730   0.183   6.219   0.066  1.4271  2.4051 -0.3627
  391TIP3   OH222731   6.203   2.628   6.810 -0.4597  0.1020 -0.1371
  391TIP3    H122732   6.274   2.692   6.807  0.5523 -1.0049 -0.5988
  391TIP3    H222733   6.146   2.651   6.736 -0.6824  1.0923  0.3304
  392TIP3   OH222734   1.343   6.279   8.699 -0.0501 -0.4777  1.0220
  392TIP3    H122735   1.344   6.343   8.628  1.7734 -2.6565 -1.1515
  392TIP3    H222736   1.356   6.330   8.779 -2.7159  2.1539 -0.0622
  393TIP3   OH222737   3.151   5.218   7.567 -0.3095 -0.0532  0.3303
  393TIP3    H122738   3.116   5.129   7.574 -0.1304 -0.0769  0.9625
  393TIP3    H222739   3.141   5.254   7.655 -4.0692  1.9519 -0.6837
  394TIP3   OH222740   3.824   4.277   6.898 -0.0933 -0.3890  0.5895
  394TIP3    H122741   3.867   4.219   6.961  0.1319 -0.6128  0.2365
  394TIP3    H222742   3.732   4.255   6.904  0.0032 -0.8630  0.3851
  395TIP3   OH222743   4.296   4.362   0.060  0.8289 -0.3846  0.0124
  395TIP3    H122744   4.327   4.276   0.032 -3.3857 -1.9844 -0.4914
  395TIP3    H222745   4.300   4.360   0.155 -1.9067 -2.5080  0.2089
  396TIP3   OH222746   3.224   3.703   8.172  0.2043 -0.7537  0.5718
  396TIP3    H122747   3.282   3.647   8.224  0.3423 -2.0293 -0.8729
  396TIP3    H222748   3.262   3.703   8.085  0.1629  1.6011  0.4845
  397TIP3   OH222749   5.929   5.582   1.156  0.0661  0.0207  0.4242
  397TIP3    H122750   5.925   5.488   1.142 -0.1591 -0.0362  0.8858
  397TIP3    H222751   6.005   5.610   1.104  1.7876 -0.7960  2.3909
  398TIP3   OH222752   4.609   6.676   7.788 -0.2494 -0.6840  0.6110
  398TIP3    H122753   4.611   6.771   7.777  1.1882 -0.6365  1.0711
  398TIP3    H222754   4.551   6.645   7.718 -0.6076  0.5105  0.3538
  399TIP3   OH222755   0.607   1.590   6.552 -0.2316 -0.1920  0.2736
  399TIP3    H122756   0.641   1.528   6.487 -1.3651 -0.7235  0.1756
  399TIP3    H222757   0.528   1.549   6.586 -0.8571  1.0683  0.4060
  400TIP3   OH222758   4.329   2.798   6.132  0.5753 -0.1073 -0.3012
  400TIP3    H122759   4.333   2.747   6.213 -2.2968  0.5014  0.3209
  400TIP3    H222760   4.327   2.889   6.162 -1.0377  0.1096 -0.9654
  401TIP3   OH222761   5.972   0.487   7.417  0.1673 -0.2787  0.2889
  401TIP3    H122762   5.991   0.454   7.329  0.3243 -0.1345  0.2678
  401TIP3    H222763   5.878   0.471   7.429 -0.1911  1.0259 -0.4930
  402TIP3   OH222764   6.681   3.059   7.897 -0.2861  0.5504  0.0269
  402TIP3    H122765   6.754   3.113   7.928 -1.7601  2.2188  0.7457
  402TIP3    H222766   6.723   2.986   7.853  1.8794  0.4404  2.0412
  403TIP3   OH222767   2.477   4.276   1.034  0.1203 -0.2873 -0.6378
  403TIP3    H122768   2.440   4.226   1.107  2.4055  0.4565  1.1328
  403TIP3    H222769   2.416   4.348   1.021 -0.3031 -0.4037  0.5921
  404TIP3   OH222770   1.705   4.456   8.406  0.5718 -0.0187 -0.0926
  404TIP3    H122771   1.741   4.391   8.467  0.0441  0.5215  0.8330
  404TIP3    H222772   1.659   4.403   8.340  2.2921 -0.6705 -0.8205
  405TIP3   OH222773   1.764   1.838   8.340 -0.2113 -0.2766 -0.1807
  405TIP3    H122774   1.681   1.875   8.309  0.3474  0.2820 -1.0715
  405TIP3    H222775   1.789   1.894   8.413 -0.3847 -0.1496 -0.2183
  406TIP3   OH222776   0.622   0.156   7.751 -0.7196  0.1352 -0.4526
  406TIP3    H122777   0.591   0.099   7.681  0.1435  0.2506 -0.9387
  406TIP3    H222778   0.551   0.156   7.815 -1.2725 -0.4384 -1.0528
  407TIP3   OH222779   4.291   4.276   6.880  0.3057 -0.2251  0.0258
  407TIP3    H122780   4.376   4.315   6.898  0.4027 -0.5170  0.2213
  407TIP3    H222781   4.231   4.323   6.938  0.1941  0.5267 -0.6924
  408TIP3   OH222782   6.467   2.002   2.198 -0.4618  0.1738 -0.0169
  408TIP3    H122783   6.525   2.020   2.124 -0.1660 -0.5972  0.0193
  408TIP3    H222784   6.411   2.079   2.204  0.4451  0.8637 -0.1593
  409TIP3   OH222785   2.076   0.200   1.751  0.4065 -0.2128  0.4261
  409TIP3    H122786   2.012   0.267   1.777  0.0048 -0.0454 -0.8831
  409TIP3    H222787   2.029   0.117   1.757 -0.2747 -0.0097 -1.3907
  410TIP3   OH222788   3.781   3.682   0.825  0.0862  0.1098  0.0164
  410TIP3    H122789   3.702   3.733   0.843 -0.2219 -0.5589  0.5896
  410TIP3    H222790   3.758   3.628   0.749 -0.4997 -1.0750  0.9892
  411TIP3   OH222791   0.916   3.421   7.571 -0.4256 -0.0848 -0.2902
  411TIP3    H122792   0.998   3.372   7.577  0.5207  1.5095  0.2961
  411TIP3    H222793   0.917   3.479   7.647 -1.1670  1.3608 -1.3445
  412TIP3   OH222794   5.292   5.730   0.941 -0.4422  1.0103  0.1672
  412TIP3    H122795   5.233   5.657   0.924  0.4727  0.1332  0.6246
  412TIP3    H222796   5.253   5.775   1.016  0.5035 -0.8038  1.8379
  413TIP3   OH222797   4.923   3.891   0.147 -0.0102 -0.1494 -0.3474
  413TIP3    H122798   4.927   3.981   0.178  2.0172 -0.4982  0.5853
  413TIP3    H222799   4.977   3.890   0.069 -1.3217 -0.2672 -1.2899
  414TIP3   OH222800   6.828   4.661   1.122  0.1475  0.3200  0.0071
  414TIP3    H122801   6.740   4.645   1.155  0.8309 -0.2074  1.7301
  414TIP3    H222802   6.883   4.601   1.173  1.7686  2.2437  0.6615
  415TIP3   OH222803   0.113   3.136   1.418  0.1855 -0.0929 -0.3242
  415TIP3    H122804   0.063   3.057   1.400  0.3134 -0.1641 -0.3657
  415TIP3    H222805   0.060   3.185   1.481 -0.6274  0.5030 -1.4370
  416TIP3   OH222806   1.545   2.198   7.954 -0.2538  0.1051  0.4301
  416TIP3    H122807   1.454   2.176   7.975  0.4366 -0.8791  2.6882
  416TIP3    H222808   1.593   2.115   7.966  0.7902  0.2381 -2.0888
  417TIP3   OH222809   3.887   4.801   8.314 -0.2473  0.5799 -0.2162
  417TIP3    H122810   3.800   4.835   8.295 -1.4295 -0.6521  2.4833
  417TIP3    H222811   3.946   4.859   8.266 -2.5231  0.7202 -3.1598
  418TIP3   OH222812   1.976   2.340   1.653 -0.9793 -0.1351  0.5851
  418TIP3    H122813   2.062   2.323   1.692  0.2980 -1.0316 -2.3597
  418TIP3    H222814   1.921   2.269   1.686 -0.0270 -0.7287  0.9529
  419TIP3   OH222815   3.640   6.131   7.934 -0.1629  0.1237 -1.1306
  419TIP3    H122816   3.653   6.043   7.971 -0.9769  0.0594 -0.9840
  419TIP3    H222817   3.592   6.179   8.002  1.8347  1.2618 -0.4437
  420TIP3   OH222818   3.019   3.716   0.195 -0.1226 -0.4155  0.7202
  420TIP3    H122819   3.021   3.720   0.099 -2.1091  1.4090  0.6699
  420TIP3    H222820   3.091   3.773   0.223  0.7825 -1.3499  0.3466
  421TIP3   OH222821   4.072   0.877   2.155  0.3319 -0.2865  0.0437
  421TIP3    H122822   4.000   0.818   2.178  0.0847  0.1708  0.4673
  421TIP3    H222823   4.029   0.959   2.130  0.5921 -0.7106 -1.9733
  422TIP3   OH222824   0.200   2.917   8.074  0.2011  0.5443  0.2237
  422TIP3    H122825   0.197   2.976   7.999 -0.5916 -1.9517 -1.8173
  422TIP3    H222826   0.120   2.938   8.124 -0.0051  1.2554 -0.3887
  423TIP3   OH222827   5.862   5.693   8.136 -0.4210 -0.2382 -0.8946
  423TIP3    H122828   5.791   5.653   8.085  0.8117 -3.6514 -0.2080
  423TIP3    H222829   5.938   5.690   8.078  0.8138 -3.4752  0.6272
  424TIP3   OH222830   4.442   6.321   8.689 -0.4445  0.1910  0.2156
  424TIP3    H122831   4.411   6.287   8.604 -0.5815 -1.1837  0.7821
  424TIP3    H222832   4.383   6.281   8.753  0.4521  0.1897  1.0561
  425TIP3   OH222833   4.929   4.840   2.117  0.2028  0.0643 -0.0341
  425TIP3    H122834   4.926   4.872   2.027  1.0050 -0.5651 -0.2957
  425TIP3    H222835   4.894   4.913   2.169 -1.2761  0.0323 -0.9348
  426TIP3   OH222836   0.709   4.158   1.211 -0.1392  0.0320 -0.4570
  426TIP3    H122837   0.763   4.138   1.287 -2.4117 -1.3183  0.9313
  426TIP3    H222838   0.771   4.162   1.138  2.0895  1.0507  1.3456
  427TIP3   OH222839   5.536   6.227   0.756  0.2192  0.6872 -0.3572
  427TIP3    H122840   5.567   6.141   0.785  0.6862  1.2591  0.8949
  427TIP3    H222841   5.551   6.227   0.662 -0.6587 -0.9479 -0.5453
  428TIP3   OH222842   2.200   1.595   8.420  0.3417  0.1521  0.7199
  428TIP3    H122843   2.143   1.640   8.358  1.6150 -0.6080 -1.1019
  428TIP3    H222844   2.249   1.664   8.464 -1.1539  0.7476  1.5418
  429TIP3   OH222845   3.026   4.785   7.011 -0.3399  0.0410 -0.6689
  429TIP3    H122846   3.081   4.856   6.979  0.5166  0.1132  0.8938
  429TIP3    H222847   3.079   4.707   7.001 -0.4302 -0.0687 -0.2914
  430TIP3   OH222848   6.683   0.575   7.776 -0.0405  0.5731 -0.5685
  430TIP3    H122849   6.714   0.567   7.866 -1.8249 -1.0847 -0.0486
  430TIP3    H222850   6.744   0.523   7.725 -0.9702 -1.3841  0.2256
  431TIP3   OH222851   6.405   1.849   0.008  0.2395  0.7581 -0.3822
  431TIP3    H122852   6.445   1.926  -0.031  1.0393  1.3014  1.4337
  431TIP3    H222853   6.463   1.777  -0.016  0.2321  0.9260 -0.9221
  432TIP3   OH222854   3.972   4.713   0.609 -0.3307  0.2179  0.1278
  432TIP3    H122855   3.935   4.731   0.695  0.4495 -1.2276  0.7943
  432TIP3    H222856   3.901   4.671   0.561  0.0161 -1.4716  1.0100
  433TIP3   OH222857   1.804   1.829   0.523 -0.1371  0.0100 -0.4781
  433TIP3    H122858   1.828   1.804   0.612  2.1445 -0.9461 -1.3120
  433TIP3    H222859   1.776   1.748   0.481 -2.1540  0.6109 -0.4229
  434TIP3   OH222860   4.931   2.287   1.254 -0.2470 -0.0444 -0.8043
  434TIP3    H122861   4.944   2.238   1.173  0.0314 -0.4976 -0.4924
  434TIP3    H222862   4.836   2.290   1.266 -0.2541 -1.5816 -0.2046
  435TIP3   OH222863   0.035   4.090   2.057 -0.2848  0.2691  0.2703
  435TIP3    H122864   0.097   4.162   2.065  0.7628 -0.6137  0.4246
  435TIP3    H222865  -0.006   4.103   1.972 -1.5765  2.1321  1.1167
  436TIP3   OH222866   4.204   1.472   8.595  0.1477  0.1896 -0.2357
  436TIP3    H122867   4.271   1.446   8.531 -1.7205 -0.0253 -2.2314
  436TIP3    H222868   4.128   1.494   8.542 -1.9872 -1.3484  1.9587
  437TIP3   OH222869   1.236   3.292   0.106  0.0842  0.6808 -0.1185
  437TIP3    H122870   1.299   3.221   0.109  0.5966  1.0697 -1.2451
  437TIP3    H222871   1.289   3.372   0.102 -0.2408  0.9411 -5.0762
  438TIP3   OH222872   4.954   0.533   0.625 -0.4421 -0.2579 -0.4381
  438TIP3    H122873   5.045   0.511   0.604  0.7318  0.8529  2.8328
  438TIP3    H222874   4.961   0.594   0.698 -3.8009  2.2262 -1.9216
  439TIP3   OH222875   3.825   0.250   1.351 -0.1443  0.0734 -0.0956
  439TIP3    H122876   3.832   0.170   1.404 -0.0533  0.8044  1.0354
  439TIP3    H222877   3.916   0.274   1.333 -0.1642  0.0805 -0.1851
  440TIP3   OH222878   1.112   2.454   8.443 -0.3780  0.1544 -0.2375
  440TIP3    H122879   1.061   2.455   8.362 -0.9732 -1.1011  0.1113
  440TIP3    H222880   1.067   2.391   8.499  1.0207 -0.2742  0.4327
  441TIP3   OH222881   4.198   4.495   7.040 -0.3085 -0.6116 -0.1080
  441TIP3    H122882   4.274   4.550   7.023 -0.6889 -0.0438 -0.0109
  441TIP3    H222883   4.128   4.535   6.988 -0.7517 -0.6212  0.4732
  442TIP3   OH222884   3.924   4.919   6.841  0.0296  0.6086 -0.2179
  442TIP3    H122885   3.852   4.914   6.778  0.2674 -0.5759 -0.4096
  442TIP3    H222886   3.973   4.997   6.814  0.2589  0.0053 -1.6682
  443TIP3   OH222887   5.419   6.148   1.362  0.1980 -0.2780 -0.1746
  443TIP3    H122888   5.337   6.176   1.322 -0.1046 -1.6546 -0.5797
  443TIP3    H222889   5.399   6.139   1.455 -0.0241 -0.3367 -0.2286
  444TIP3   OH222890   3.963   0.235   0.068  0.0252  0.0655 -0.3827
  444TIP3    H122891   3.917   0.166   0.117 -0.6444  1.0081  0.3562
  444TIP3    H222892   4.056   0.212   0.076 -0.1916 -0.8145 -0.2545
  445TIP3   OH222893   1.565   1.298   1.670  0.2069  0.0756  0.0716
  445TIP3    H122894   1.488   1.263   1.625  0.1557  0.5503 -0.2091
  445TIP3    H222895   1.629   1.227   1.666 -0.2188 -0.3383  0.3349
  446TIP3   OH222896   1.027   2.727   1.522  0.1970 -0.4634  0.1598
  446TIP3    H122897   0.973   2.659   1.482  0.7235  0.2674 -1.9736
  446TIP3    H222898   0.989   2.809   1.492 -0.0606  0.2078  2.1942
  447TIP3   OH222899   5.719   3.490   1.754  0.3763 -0.4033 -0.2354
  447TIP3    H122900   5.721   3.504   1.849  1.0661  1.7821 -0.4992
  447TIP3    H222901   5.640   3.536   1.725  0.1427 -1.1050 -0.7188
  448TIP3   OH222902   3.715   0.780   1.655 -0.2875 -0.1333  0.5269
  448TIP3    H122903   3.732   0.703   1.710 -1.8419 -0.6650  0.2984
  448TIP3    H222904   3.623   0.800   1.669 -1.1538 -1.1256 -2.8275
  449TIP3   OH222905   3.975   3.057   0.579 -0.4938  0.7109 -0.0330
  449TIP3    H122906   3.977   3.119   0.652  1.6159  0.1885  0.3975
  449TIP3    H222907   4.037   3.092   0.515  1.1045 -1.1169  0.4194
  450TIP3   OH222908   4.612   6.108   7.101  0.2745 -0.6757  0.0896
  450TIP3    H122909   4.584   6.043   7.165 -0.1285  0.7764  1.4503
  450TIP3    H222910   4.674   6.163   7.148  1.1821 -0.4882 -1.2519
  451TIP3   OH222911   0.768   2.765   1.890 -0.4394 -0.6795 -0.0700
  451TIP3    H122912   0.682   2.804   1.871 -0.6731 -1.5525 -0.8692
  451TIP3    H222913   0.826   2.840   1.900 -1.5149 -0.0117  1.7337
  452TIP3   OH222914   3.235   4.486   8.403  0.0109 -0.5976  0.0838
  452TIP3    H122915   3.225   4.391   8.394 -0.0376 -0.5956  0.1182
  452TIP3    H222916   3.263   4.499   8.494  0.9675 -0.6549 -0.1980
  453TIP3   OH222917   3.327   4.237   8.203 -0.6670  0.0033 -0.0185
  453TIP3    H122918   3.279   4.158   8.177 -1.7908  0.3852  0.8289
  453TIP3    H222919   3.397   4.205   8.261 -0.7002 -0.4335 -0.2189
  454TIP3   OH222920   1.025   4.731   7.955 -0.1407 -0.3381 -0.5502
  454TIP3    H122921   0.957   4.747   8.020  1.8504  1.0485  1.3488
  454TIP3    H222922   0.990   4.770   7.874 -2.5032 -1.7532 -0.3000
  455TIP3   OH222923   4.583   3.127   8.082  0.2686 -0.3836 -0.1205
  455TIP3    H122924   4.617   3.198   8.027 -0.5437 -0.1943 -0.4064
  455TIP3    H222925   4.488   3.136   8.075  0.1593 -0.9951  0.5084
  456TIP3   OH222926   2.150   1.004   7.917 -0.3731 -0.2650  0.0273
  456TIP3    H122927   2.183   1.091   7.939  0.2599  0.0781 -2.0456
  456TIP3    H222928   2.057   1.018   7.900 -0.4744 -0.1837  0.6350
  457TIP3   OH222929   6.662   4.941   2.070  0.0643 -0.3262 -0.5916
  457TIP3    H122930   6.569   4.953   2.089 -0.0806 -1.4283 -0.5551
  457TIP3    H222931   6.685   4.859   2.114  1.2763  0.3970  0.1553
  458TIP3   OH222932   1.327   0.553   2.133  0.0124  0.1528  0.1471
  458TIP3    H122933   1.287   0.601   2.061  0.1391  0.1871  0.1008
  458TIP3    H222934   1.254   0.503   2.171  0.2075 -0.9692 -0.8904
  459TIP3   OH222935   6.037   4.499   7.648 -0.7923  0.4638  0.1099
  459TIP3    H122936   6.044   4.405   7.628 -1.5076  0.3981  0.1629
  459TIP3    H222937   5.947   4.522   7.626 -0.4264  1.3034 -0.5726
  460TIP3   OH222938   5.696   2.527   0.942 -0.3422  0.4283 -0.2861
  460TIP3    H122939   5.772   2.575   0.910 -0.3530  1.1876  0.7863
  460TIP3    H222940   5.729   2.472   1.013 -0.6782  0.2932 -0.2292
  461TIP3   OH222941   0.361   6.806   1.118  0.1259  0.7176 -0.1468
  461TIP3    H122942   0.455   6.802   1.133 -0.2338 -4.0396  2.5486
  461TIP3    H222943   0.325   6.842   1.199 -0.4973  1.3077 -0.6670
  462TIP3   OH222944   1.708   2.617   7.791  1.0628 -0.1217 -0.1726
  462TIP3    H122945   1.769   2.688   7.770 -0.8230  1.6979  0.1719
  462TIP3    H222946   1.695   2.623   7.885 -2.0359  1.7274 -0.5759
  463TIP3   OH222947   0.668   5.183   0.846 -0.0419 -0.5462  0.2923
  463TIP3    H122948   0.712   5.192   0.931 -0.3844  1.0991  0.3322
  463TIP3    H222949   0.577   5.203   0.865 -0.2704 -0.9654 -0.3420
  464TIP3   OH222950   5.840   2.587   7.840  0.1478 -0.3046 -0.1530
  464TIP3    H122951   5.759   2.588   7.788 -0.8974 -1.9771  1.2928
  464TIP3    H222952   5.877   2.674   7.829 -1.5488  0.3307 -1.3332
  465TIP3   OH222953   1.482   0.227   1.854  0.0042  0.2031 -0.0840
  465TIP3    H122954   1.416   0.159   1.847  0.7632 -0.4144 -1.5058
  465TIP3    H222955   1.537   0.200   1.928  0.4958 -0.9231 -0.8410
  466TIP3   OH222956   1.025   6.841   7.216 -0.0992  0.0447  0.2696
  466TIP3    H122957   1.084   6.903   7.173  0.1885  0.3936  1.1312
  466TIP3    H222958   0.973   6.896   7.276 -1.5487 -0.2013 -0.7169
  467TIP3   OH222959   4.513   5.022   0.629 -0.3481  0.0261  0.0847
  467TIP3    H122960   4.579   5.034   0.697  1.6156  1.3876 -1.8844
  467TIP3    H222961   4.549   4.954   0.572 -1.2344 -0.0595 -0.3925
  468TIP3   OH222962   1.293   2.177   8.710  0.2774  0.0265 -0.0861
  468TIP3    H122963   1.227   2.108   8.709  1.9154 -1.6075 -0.5271
  468TIP3    H222964   1.274   2.227   8.789 -0.2317 -1.6760  0.9184
  469TIP3   OH222965   0.804   5.837   1.925 -0.1598  0.3075  0.1474
  469TIP3    H122966   0.784   5.764   1.866 -0.2672  0.2181  0.2963
  469TIP3    H222967   0.808   5.798   2.012 -2.3913  0.8158  0.5506
  470TIP3   OH222968   1.148   0.473   8.360  0.5142  0.5112  0.1721
  470TIP3    H122969   1.078   0.411   8.384  0.2330  1.0797  0.8526
  470TIP3    H222970   1.227   0.419   8.356  0.0022 -0.2132 -0.9562
  471TIP3   OH222971   4.414   3.564   6.906  0.1940 -0.0785  0.1701
  471TIP3    H122972   4.478   3.635   6.911  0.1271  0.0329 -0.5480
  471TIP3    H222973   4.467   3.484   6.908  0.2847 -0.0096  0.7047
  472TIP3   OH222974   3.168   5.704   6.976 -0.8193  0.2699 -0.0762
  472TIP3    H122975   3.208   5.637   7.032  1.9516  0.9241 -1.1154
  472TIP3    H222976   3.129   5.654   6.904  0.7290 -0.3013 -0.5529
  473TIP3   OH222977   1.305   6.182   8.063  0.6285 -0.1283  0.1138
  473TIP3    H122978   1.301   6.117   7.992 -0.9612 -1.1424  1.0817
  473TIP3    H222979   1.399   6.199   8.073  1.1187 -2.3130 -0.1698
  474TIP3   OH222980   3.285   3.492   0.457 -0.5906  0.3652  0.5788
  474TIP3    H122981   3.264   3.583   0.438 -1.6775  0.1077  0.5213
  474TIP3    H222982   3.227   3.441   0.400  1.2306 -0.3772 -0.7184
  475TIP3   OH222983   4.541   5.166   6.558  0.5680 -0.3556  0.5337
  475TIP3    H122984   4.553   5.247   6.508  1.7565  0.4933  2.0916
  475TIP3    H222985   4.470   5.121   6.513  1.7944  0.1403 -2.1530
  476TIP3   OH222986   2.638   3.263   7.365 -0.2524 -0.3939  0.3528
  476TIP3    H122987   2.553   3.286   7.402 -0.4392  1.8309 -1.2726
  476TIP3    H222988   2.686   3.223   7.439 -1.7869  0.6533  1.9991
  477TIP3   OH222989   2.707   1.639   7.977  0.6648  0.0596  1.1162
  477TIP3    H122990   2.772   1.661   8.043  0.9318  1.6112  0.3928
  477TIP3    H222991   2.735   1.688   7.899 -1.9962  1.7730  1.1173
  478TIP3   OH222992   4.350   2.669   0.905 -0.2533 -0.1278 -0.6932
  478TIP3    H122993   4.339   2.628   0.990 -1.1991 -0.5703 -1.0162
  478TIP3    H222994   4.400   2.749   0.923 -1.9655  0.7260  0.5502
  479TIP3   OH222995   2.055   1.378   0.976  0.6326 -0.4377 -0.0401
  479TIP3    H122996   2.108   1.448   1.014  0.2134  0.3381 -0.8476
  479TIP3    H222997   1.967   1.395   1.009  0.6066 -0.8337  0.0945
  480TIP3   OH222998   3.916   6.559   0.716 -0.5837 -0.7900 -0.5191
  480TIP3    H122999   3.926   6.513   0.633 -0.9790  0.5077 -1.3297
  480TIP3    H223000   3.957   6.644   0.702 -1.5465 -0.1619  0.2631
  481TIP3   OH223001   2.138   2.752   1.743  0.4073 -0.4669 -0.2740
  481TIP3    H123002   2.182   2.824   1.789 -1.3044  0.7497 -0.4167
  481TIP3    H223003   2.140   2.679   1.805  0.5793  0.2789  0.6248
  482TIP3   OH223004   3.603   4.135   7.574 -0.0817 -0.1131  0.3420
  482TIP3    H123005   3.621   4.094   7.659  0.5673 -1.2905 -0.3383
  482TIP3    H223006   3.578   4.063   7.517 -2.0993  0.8712 -0.0903
  483TIP3   OH223007   5.282   6.749   0.695 -0.0699 -0.3375  0.5898
  483TIP3    H123008   5.352   6.740   0.761  0.1288 -3.2441  0.1055
  483TIP3    H223009   5.217   6.683   0.720 -2.4301  1.8390  0.6355
  484TIP3   OH223010   2.657   1.299   1.262 -0.8116  0.1887 -0.8000
  484TIP3    H123011   2.614   1.225   1.219  0.7136 -1.5516  0.5589
  484TIP3    H223012   2.613   1.306   1.347 -0.5027  0.4415 -0.6601
  485TIP3   OH223013   1.667   0.819   0.669  0.3284  0.2310 -0.2495
  485TIP3    H123014   1.754   0.810   0.708 -0.3933 -0.9341  1.2337
  485TIP3    H223015   1.675   0.780   0.582  1.1977 -0.1989  0.0162
  486TIP3   OH223016   4.595   4.207   8.097  0.8411 -0.0098  0.2583
  486TIP3    H123017   4.568   4.134   8.153  1.2270 -1.4141 -1.3039
  486TIP3    H223018   4.530   4.208   8.027  1.0823  0.9096  0.0306
  487TIP3   OH223019   0.027   6.674   7.812 -0.8242 -0.0418  0.4553
  487TIP3    H123020   0.051   6.582   7.827 -1.1807 -0.2023  0.0797
  487TIP3    H223021   0.043   6.717   7.895 -0.8098 -0.4813  0.6842
  488TIP3   OH223022   0.608   2.678   0.814 -0.4662  0.4682 -0.3378
  488TIP3    H123023   0.596   2.773   0.823 -0.2139  0.5812 -1.0774
  488TIP3    H223024   0.698   2.663   0.843 -0.5893  0.4145  0.0217
  489TIP3   OH223025   3.517   4.518   6.956 -0.0624  0.6275  0.2254
  489TIP3    H123026   3.564   4.532   6.874 -0.9014  0.2312 -0.3450
  489TIP3    H223027   3.584   4.521   7.024  0.8449 -0.3533 -0.6018
  490TIP3   OH223028   3.284   5.365   8.615 -0.0415  0.1725 -0.3091
  490TIP3    H123029   3.338   5.438   8.583  1.0656 -0.6403 -0.3693
  490TIP3    H223030   3.274   5.308   8.539 -0.5941  0.0779 -0.1679
  491TIP3   OH223031   1.613   1.892   1.127  0.7638 -0.1891  0.0694
  491TIP3    H123032   1.612   1.986   1.108 -0.5730 -0.3915 -1.1171
  491TIP3    H223033   1.525   1.874   1.162  0.1711 -1.3375 -1.8419
  492TIP3   OH223034   3.194   6.805   8.450 -0.1253 -0.7788 -0.5435
  492TIP3    H123035   3.121   6.849   8.494 -0.4860 -1.2340 -0.6754
  492TIP3    H223036   3.269   6.821   8.506  0.1019  1.3318 -1.3641
  493TIP3   OH223037   2.437   5.843   6.834 -0.5173  0.1524  0.0882
  493TIP3    H123038   2.366   5.903   6.855  1.3096  2.1501  0.9450
  493TIP3    H223039   2.507   5.866   6.895  1.3400 -0.8399 -1.5465
  494TIP3   OH223040   4.100   5.553   7.322  0.3055  0.2743 -0.6087
  494TIP3    H123041   4.061   5.569   7.236 -0.8335 -2.3874 -0.6933
  494TIP3    H223042   4.172   5.492   7.304  0.3089  0.0096  0.2798
  495TIP3   OH223043   0.052   2.294   8.416 -0.4025 -0.4149  0.3604
  495TIP3    H123044   0.120   2.230   8.393 -2.3527 -2.3311 -0.4273
  495TIP3    H223045   0.028   2.334   8.332  1.0286  1.7394  0.8791
  496TIP3   OH223046   6.267   3.761   8.175  0.1333 -0.0939  0.0024
  496TIP3    H123047   6.244   3.692   8.237  1.0051  1.2447  1.9373
  496TIP3    H223048   6.357   3.785   8.198  0.4072  0.6075 -1.6659
  497TIP3   OH223049   0.685   5.359   8.296 -0.3647  0.3252 -0.1043
  497TIP3    H123050   0.684   5.350   8.201 -0.7141 -0.0038 -0.0692
  497TIP3    H223051   0.778   5.360   8.318 -0.2692  1.1014 -0.5111
  498TIP3   OH223052   1.592   6.681   7.307 -0.2452 -0.3571  0.6794
  498TIP3    H123053   1.518   6.731   7.340  0.6503 -0.2761  2.7850
  498TIP3    H223054   1.666   6.709   7.362  1.1277 -1.1427 -0.6835
  499TIP3   OH223055   2.401   5.450   0.556 -0.0094  0.5645  0.3578
  499TIP3    H123056   2.488   5.477   0.586  0.1739  1.9362 -1.2854
  499TIP3    H223057   2.417   5.401   0.476 -0.7679  0.8328  0.0339
  500TIP3   OH223058   6.606   0.413   7.356 -0.3663  0.1918  0.4029
  500TIP3    H123059   6.661   0.485   7.324 -0.3050  0.2405  0.6190
  500TIP3    H223060   6.518   0.450   7.356 -0.2981  0.3559  0.7747
  501TIP3   OH223061   0.115   6.829   8.018 -0.6506  0.3461 -0.7199
  501TIP3    H123062   0.135   6.816   8.111 -0.5449 -0.6011 -0.8623
  501TIP3    H223063   0.107   6.924   8.008 -0.5276  0.4658  0.2279
  502TIP3   OH223064   3.270   1.013   1.011 -0.7894  0.1422 -0.3439
  502TIP3    H123065   3.263   0.966   1.093 -0.1532 -0.4017 -0.5925
  502TIP3    H223066   3.266   1.105   1.035 -0.0607 -0.0030  0.3517
  503TIP3   OH223067   1.188   1.591   1.744  0.2213  0.3745  0.0342
  503TIP3    H123068   1.224   1.603   1.831 -0.5996 -0.1338  0.4525
  503TIP3    H223069   1.202   1.499   1.724 -0.1102  0.3535 -0.1233
  504TIP3   OH223070   4.650   0.624   7.467 -0.7672 -0.3637 -0.6681
  504TIP3    H123071   4.610   0.699   7.510 -0.5014 -0.8020  0.3848
  504TIP3    H223072   4.659   0.559   7.536 -1.6649 -1.6517 -1.7226
  505TIP3   OH223073   6.470   0.606   0.945  0.0651 -0.2497  0.0402
  505TIP3    H123074   6.380   0.611   0.979 -0.5912 -0.9316 -1.5082
  505TIP3    H223075   6.492   0.695   0.920 -0.5779 -0.2411 -0.5119
  506TIP3   OH223076   6.063   0.959   0.127 -0.0474 -0.5023 -1.0537
  506TIP3    H123077   6.016   0.962   0.044  1.5865  0.3702 -1.9959
  506TIP3    H223078   6.019   1.023   0.183  0.5688  1.0050 -2.2465
  507TIP3   OH223079   4.484   1.145   8.516 -0.1116  0.0964 -0.0872
  507TIP3    H123080   4.442   1.059   8.512 -1.4458  0.7104  0.2546
  507TIP3    H223081   4.551   1.142   8.447  1.6596 -2.1018  1.5334
  508TIP3   OH223082   2.665   2.994   0.741  0.2485 -0.0820  0.7029
  508TIP3    H123083   2.730   2.937   0.698 -1.3285 -2.6365  1.4919
  508TIP3    H223084   2.717   3.049   0.800  1.8466 -0.9064  0.1276
  509TIP3   OH223085   4.959   1.954   0.524  0.6460 -0.4000 -0.1159
  509TIP3    H123086   4.961   2.015   0.450  1.3334  0.3539  0.5113
  509TIP3    H223087   5.051   1.932   0.539  0.5319 -0.3207  0.7110
  510TIP3   OH223088   6.631   2.664   1.402  0.1033 -0.4920 -1.0714
  510TIP3    H123089   6.565   2.677   1.470 -2.5397 -3.9369 -2.6603
  510TIP3    H223090   6.695   2.605   1.443  0.2749  0.0069 -0.6089
  511TIP3   OH223091   0.107   6.816   7.286 -0.2595 -0.1738 -0.8569
  511TIP3    H123092   0.189   6.768   7.298 -0.1494  0.4115  1.0064
  511TIP3    H223093   0.041   6.762   7.328 -0.7265 -0.2665 -1.6779
  512TIP3   OH223094   2.152   6.394   7.205 -0.2109  0.1981  0.6228
  512TIP3    H123095   2.223   6.447   7.241  0.2394 -0.0044  0.0594
  512TIP3    H223096   2.096   6.456   7.158  1.3781  0.0006 -1.7469
  513TIP3   OH223097   5.075   0.322   1.400 -0.6363  0.7679  0.4949
  513TIP3    H123098   5.055   0.229   1.409 -1.8831  0.8981 -0.5293
  513TIP3    H223099   5.002   0.357   1.349  0.2841  2.1320  0.0552
  514TIP3   OH223100   0.116   4.389   7.347  0.2680 -0.1270  0.0437
  514TIP3    H123101   0.161   4.306   7.334  0.3959 -0.2463  1.0916
  514TIP3    H223102   0.048   4.369   7.412  1.0547  0.8142  1.1929
  515TIP3   OH223103   2.375   0.159   7.877 -0.6917 -0.1542  0.2305
  515TIP3    H123104   2.460   0.114   7.880 -0.4576 -0.0048 -2.2238
  515TIP3    H223105   2.396   0.250   7.898 -0.2667 -0.1593 -0.1462
  516TIP3   OH223106   3.394   5.345   1.137 -0.4345  0.5631  0.4718
  516TIP3    H123107   3.405   5.389   1.052 -1.0873 -0.7252 -0.3262
  516TIP3    H223108   3.468   5.284   1.141 -1.8372 -1.2865 -0.4575
  517TIP3   OH223109   5.708   5.620   1.363 -0.1205 -0.4565 -0.5007
  517TIP3    H123110   5.679   5.558   1.296 -1.0475  2.3522 -2.9131
  517TIP3    H223111   5.782   5.665   1.324  1.5331 -0.9585  1.8073
  518TIP3   OH223112   6.755   1.285   1.202 -0.0230  0.4529  0.4844
  518TIP3    H123113   6.709   1.201   1.195 -0.0044  0.2959  1.9428
  518TIP3    H223114   6.727   1.334   1.125  0.4897 -1.1284 -0.7730
  519TIP3   OH223115   5.717   2.911   0.905 -0.2150 -0.5489 -0.6939
  519TIP3    H123116   5.733   2.957   0.823  0.5973 -0.8587 -0.7169
  519TIP3    H223117   5.771   2.832   0.900 -0.7266 -0.9439 -0.1782
  520TIP3   OH223118   6.390   6.435   0.618  0.1682  0.2916  0.3763
  520TIP3    H123119   6.420   6.438   0.527  1.9651  1.2720  0.9405
  520TIP3    H223120   6.349   6.521   0.632 -0.7412 -0.1256  0.3051
  521TIP3   OH223121   2.813   1.954   0.452  0.7319 -0.3861  0.7934
  521TIP3    H123122   2.755   1.945   0.375  0.6492  3.4658  0.2315
  521TIP3    H223123   2.753   1.970   0.525  0.9393 -0.5667  1.0032
  522TIP3   OH223124   3.862   1.998   7.056  0.6501  0.3959 -0.4563
  522TIP3    H123125   3.801   2.017   6.985  1.9598 -2.1908 -2.4366
  522TIP3    H223126   3.925   2.071   7.053 -1.1761  2.0683  0.3427
  523TIP3   OH223127   1.722   1.636   2.476  0.3663  0.1877 -0.1100
  523TIP3    H123128   1.636   1.645   2.517  0.6193 -3.0912  1.4301
  523TIP3    H223129   1.782   1.618   2.549  2.5014  2.4638 -1.1186
  524TIP3   OH223130   5.580   2.802   7.233 -0.2153 -0.3446 -0.6741
  524TIP3    H123131   5.661   2.803   7.283 -0.1108  2.0737 -0.7934
  524TIP3    H223132   5.607   2.772   7.146  0.5084  0.1890 -0.6429
  525TIP3   OH223133   3.742   4.912   0.732 -1.1353 -0.0233  0.0431
  525TIP3    H123134   3.755   4.844   0.797  0.3757 -0.6098 -0.8273
  525TIP3    H223135   3.654   4.896   0.698 -1.5901 -0.2490  1.2947
  526TIP3   OH223136   6.213   4.816   1.720  0.1901  0.1910 -0.2121
  526TIP3    H123137   6.230   4.732   1.679  1.2579  0.0477  0.4839
  526TIP3    H223138   6.154   4.861   1.659 -1.0567 -1.3578 -0.2117
  527TIP3   OH223139   6.172   5.320   0.205 -0.3024  0.3350 -0.0231
  527TIP3    H123140   6.079   5.297   0.213 -0.0016 -1.1853 -0.4622
  527TIP3    H223141   6.182   5.401   0.255 -1.8851  0.5961 -0.0775
  528TIP3   OH223142   4.666   1.710   1.054  0.1647 -0.7105  0.0260
  528TIP3    H123143   4.742   1.724   1.110 -0.4877  0.3853  0.6753
  528TIP3    H223144   4.702   1.682   0.970  1.2414 -0.8055  0.5125
  529TIP3   OH223145   1.173   3.823   0.310  0.5076  0.0134 -0.4962
  529TIP3    H123146   1.130   3.786   0.387  1.6746 -0.7235 -0.1542
  529TIP3    H223147   1.153   3.916   0.313  0.2435 -0.0623  0.5177
  530TIP3   OH223148   5.662   0.806   8.563  0.0479  0.8109 -0.1003
  530TIP3    H123149   5.701   0.738   8.618  1.0393  0.6110 -1.0094
  530TIP3    H223150   5.576   0.822   8.601 -0.0911 -0.7642  0.3091
  531TIP3   OH223151   6.836   0.214   1.693 -0.1315  0.4170  0.2786
  531TIP3    H123152   6.787   0.155   1.636 -0.2344  1.1162 -0.3761
  531TIP3    H223153   6.867   0.283   1.635  2.1937 -0.3193  0.5280
  532TIP3   OH223154   2.441   4.221   7.488  0.1304 -0.1464  0.1701
  532TIP3    H123155   2.400   4.197   7.571 -0.3087 -0.1191 -0.0370
  532TIP3    H223156   2.402   4.306   7.466  2.2062  1.2211  1.2857
  533TIP3   OH223157   2.329   2.539   8.304 -0.1303 -0.1668 -0.2802
  533TIP3    H123158   2.269   2.470   8.333 -0.9653  1.0143  0.9522
  533TIP3    H223159   2.408   2.526   8.356  0.4120 -1.2841 -1.3717
  534TIP3   OH223160   4.209   6.445   0.192  0.1731  0.0972  0.3666
  534TIP3    H123161   4.123   6.403   0.196  0.2767 -0.1161  0.3459
  534TIP3    H223162   4.191   6.532   0.157 -0.2000  0.4923  1.4981
  535TIP3   OH223163   0.413   0.659   2.309  0.2610  0.1652  0.6742
  535TIP3    H123164   0.331   0.699   2.279  0.6859  0.6370  0.1182
  535TIP3    H223165   0.480   0.724   2.289  0.6220  0.3530  2.3347
  536TIP3   OH223166   4.954   1.545   8.020 -0.3248  0.0216  0.0545
  536TIP3    H123167   4.873   1.495   8.019 -0.5179  0.3345 -0.2774
  536TIP3    H223168   5.016   1.490   7.972 -0.6211  0.2349 -0.5850
  537TIP3   OH223169   6.322   4.373   0.871 -0.2375 -1.0219 -0.3131
  537TIP3    H123170   6.258   4.413   0.811 -0.0503 -3.8744 -2.6241
  537TIP3    H223171   6.269   4.317   0.928 -0.0297 -1.5603 -0.6467
  538TIP3   OH223172   4.534   5.166   8.431  0.0676  1.2113 -0.1683
  538TIP3    H123173   4.550   5.202   8.344 -0.6509 -1.3688 -1.4623
  538TIP3    H223174   4.615   5.121   8.454 -0.8805 -1.2858 -1.2642
  539TIP3   OH223175   5.005   6.368   1.208 -0.2222  0.0498  0.4505
  539TIP3    H123176   4.911   6.375   1.188 -0.2663  1.0033  0.9308
  539TIP3    H223177   5.015   6.280   1.244 -0.8174 -0.2925 -0.1791
  540TIP3   OH223178   4.869   3.452   7.353 -0.7315 -0.2944  1.0294
  540TIP3    H123179   4.868   3.364   7.391 -1.9483 -0.4166  0.7658
  540TIP3    H223180   4.793   3.495   7.391 -0.9803  0.1521  0.0573
  541TIP3   OH223181   4.874   0.781   7.754 -0.5579  0.5990 -0.4420
  541TIP3    H123182   4.923   0.747   7.680 -1.0911 -0.6501 -0.2439
  541TIP3    H223183   4.782   0.775   7.727 -0.8052 -0.5661  0.5682
  542TIP3   OH223184   1.047   0.660   0.789 -0.1707 -0.1506  0.5589
  542TIP3    H123185   0.991   0.733   0.765 -0.4292 -0.3886  0.4223
  542TIP3    H223186   1.017   0.634   0.876  1.6616  1.5822  1.8069
  543TIP3   OH223187   5.376   0.130   6.653  0.2523  0.1355 -0.2413
  543TIP3    H123188   5.464   0.139   6.614 -0.2753  0.8221 -1.3370
  543TIP3    H223189   5.317   0.129   6.578 -0.6315 -1.2011  0.4481
  544TIP3   OH223190   6.543   0.557   0.683 -0.4203 -0.3452 -0.6126
  544TIP3    H123191   6.521   0.572   0.775  0.2400  0.9640 -0.6523
  544TIP3    H223192   6.524   0.464   0.669 -0.2565 -0.6366  0.9159
  545TIP3   OH223193   0.660   2.981   7.910 -0.1942  0.3440 -0.1090
  545TIP3    H123194   0.645   3.016   7.998 -0.2075  1.6212 -0.5964
  545TIP3    H223195   0.650   2.886   7.920  1.1981  0.3060  1.5542
  546TIP3   OH223196   0.275   3.302   0.563 -0.1752 -0.1447 -0.0372
  546TIP3    H123197   0.193   3.256   0.545  0.0833 -0.3385 -0.7486
  546TIP3    H223198   0.262   3.339   0.650 -1.0398 -0.1246 -0.1572
  547TIP3   OH223199   1.327   2.562   1.599  0.0063  0.1932  0.1263
  547TIP3    H123200   1.290   2.648   1.619  1.8584  1.0033  0.2816
  547TIP3    H223201   1.341   2.521   1.684 -1.6762 -0.6719  0.0317
  548TIP3   OH223202   2.766   0.788   8.394  0.1053  0.5999  0.1211
  548TIP3    H123203   2.841   0.831   8.352  2.1915 -0.0548  2.8847
  548TIP3    H223204   2.760   0.703   8.351  0.0570  1.1802 -1.0458
  549TIP3   OH223205   5.575   6.554   0.492  0.0972  0.0205 -0.3675
  549TIP3    H123206   5.563   6.461   0.473 -0.6969  0.1425 -0.5096
  549TIP3    H223207   5.486   6.591   0.488  0.2592  0.5775  0.8020
  550TIP3   OH223208   0.407   5.228   0.930 -0.0275  0.6527  0.5903
  550TIP3    H123209   0.410   5.236   1.026 -2.1079  0.6377  0.6959
  550TIP3    H223210   0.324   5.270   0.905 -0.8151 -1.6224 -0.9405
  551TIP3   OH223211   3.440   2.447   8.705 -0.2043  0.1430  0.2030
  551TIP3    H123212   3.485   2.522   8.745  0.7345  0.0297 -0.6154
  551TIP3    H223213   3.347   2.471   8.709 -0.0985  0.4317  1.8160
  552TIP3   OH223214   6.488   3.141   1.872  0.4018 -0.2753  0.3837
  552TIP3    H123215   6.464   3.212   1.932  0.2798  1.7038 -1.8786
  552TIP3    H223216   6.569   3.171   1.831 -1.2358  0.1293 -2.8645
  553TIP3   OH223217   4.732   0.689   0.056  0.3138  0.6222 -0.3359
  553TIP3    H123218   4.674   0.747   0.105  1.2934  0.4117  1.1375
  553TIP3    H223219   4.798   0.662   0.120  1.0299 -0.5183 -1.5175
  554TIP3   OH223220   6.365   0.838   7.414 -0.1948 -0.2978  0.1558
  554TIP3    H123221   6.278   0.837   7.454  0.2200 -0.9000  1.0622
  554TIP3    H223222   6.424   0.810   7.483  0.4764 -2.0929 -1.0666
  555TIP3   OH223223   2.092   0.277   2.236 -0.4643  0.3899 -0.3694
  555TIP3    H123224   2.115   0.309   2.149  0.4435  3.6145  0.8872
  555TIP3    H223225   2.006   0.237   2.225 -0.5627  1.0989 -2.6715
  556TIP3   OH223226   3.900   4.377   1.823 -0.2118  0.5311  0.5976
  556TIP3    H123227   3.934   4.338   1.904  1.7533 -0.6287 -0.7110
  556TIP3    H223228   3.871   4.464   1.850 -0.0334  0.0230  2.6329
  557TIP3   OH223229   4.186   1.674   7.498  0.5292  0.4169 -0.0977
  557TIP3    H123230   4.127   1.742   7.529  0.7683  0.0174  1.3108
  557TIP3    H223231   4.151   1.649   7.413 -0.9810  0.6231  0.4304
  558TIP3   OH223232   3.603   5.697   8.312  0.1934 -0.3598 -0.4086
  558TIP3    H123233   3.540   5.752   8.265 -1.5473 -2.5796 -0.8412
  558TIP3    H223234   3.654   5.654   8.243  0.7685 -0.1899 -0.1025
  559TIP3   OH223235   4.764   5.083   0.447  0.0221  0.0691  0.5791
  559TIP3    H123236   4.839   5.060   0.393 -0.5143 -0.7248  0.1588
  559TIP3    H223237   4.717   5.000   0.460 -1.2323  0.6863  0.1330
  560TIP3   OH223238   1.114   3.742   1.091  0.3651 -0.1989  0.3728
  560TIP3    H123239   1.098   3.809   1.158  2.8500  0.4047  0.4368
  560TIP3    H223240   1.123   3.660   1.139  1.2440  0.0878  0.7079
  561TIP3   OH223241   3.097   0.732   2.834 -0.0786  0.4739 -0.2628
  561TIP3    H123242   3.041   0.785   2.777  2.5835  1.0824 -2.4975
  561TIP3    H223243   3.186   0.752   2.805  1.8115  2.6650  5.6121
  562TIP3   OH223244   4.995   5.717   1.309 -0.2769  0.0591  0.5774
  562TIP3    H123245   4.948   5.634   1.305 -1.9942  1.0535 -1.4960
  562TIP3    H223246   4.958   5.761   1.386 -0.8550 -0.2350  0.4731
  563TIP3   OH223247   4.565   5.679   1.636 -0.0036  0.4083  0.3154
  563TIP3    H123248   4.527   5.753   1.683  1.1347  0.0739  1.8422
  563TIP3    H223249   4.646   5.713   1.599  0.0908  0.1535  0.2871
  564TIP3   OH223250   4.943   0.640   1.170 -0.0765 -0.3424  0.2217
  564TIP3    H123251   4.945   0.655   1.265  0.1076  1.7671 -0.0854
  564TIP3    H223252   4.872   0.695   1.138  0.1686 -0.6737 -0.9449
  565TIP3   OH223253   4.714   0.271   2.549  0.8055  0.4401 -0.0114
  565TIP3    H123254   4.743   0.183   2.527 -1.6192 -0.0304 -1.7483
  565TIP3    H223255   4.749   0.326   2.478 -0.3742  0.2760 -0.7515
  566TIP3   OH223256   1.493   0.716   8.371  0.3388 -0.0239 -0.0682
  566TIP3    H123257   1.464   0.633   8.334  0.8013 -0.9410  1.5319
  566TIP3    H223258   1.412   0.767   8.382 -0.0267 -0.4963 -0.5265
  567TIP3   OH223259   0.379   5.373   1.949 -0.2203 -0.1415 -0.2949
  567TIP3    H123260   0.302   5.321   1.973  0.1723 -0.7917 -0.4047
  567TIP3    H223261   0.440   5.309   1.913  0.5706  0.2792  0.2631
  568TIP3   OH223262   5.085   1.933   8.580  0.9834  0.5915  0.0272
  568TIP3    H123263   5.001   1.886   8.574  1.4771 -0.3138  0.0342
  568TIP3    H223264   5.091   1.957   8.672  1.1950 -0.2505  0.2472
  569TIP3   OH223265   3.289   3.728   7.391  0.3553  0.0629  0.1785
  569TIP3    H123266   3.319   3.662   7.328 -0.5638  0.7947 -1.0790
  569TIP3    H223267   3.246   3.794   7.337 -1.1150  0.3703  1.6427
  570TIP3   OH223268   5.467   4.742   2.101  0.1463  0.2127  0.3370
  570TIP3    H123269   5.460   4.834   2.126 -2.9966  0.5088 -1.0712
  570TIP3    H223270   5.498   4.745   2.010  0.2144 -0.1114  0.3511
  571TIP3   OH223271   1.116   5.433   2.120  0.1485 -0.5728  0.2987
  571TIP3    H123272   1.173   5.366   2.158  1.7475  0.5627  0.0113
  571TIP3    H223273   1.036   5.429   2.172  0.6544 -1.9086  1.0214
  572TIP3   OH223274   0.047   2.467   7.531 -0.1812 -0.2855  0.1713
  572TIP3    H123275  -0.038   2.498   7.499  0.6270  0.2429 -1.6216
  572TIP3    H223276   0.111   2.516   7.479  1.2436 -0.2926  1.8373
  573TIP3   OH223277   5.887   5.588   7.708  0.0758 -0.3957  0.3563
  573TIP3    H123278   5.812   5.548   7.663  0.5921  1.2356 -2.1266
  573TIP3    H223279   5.960   5.528   7.691 -0.0556 -0.5427  0.3062
  574TIP3   OH223280   2.635   4.421   0.493  0.1842 -0.3569  0.3729
  574TIP3    H123281   2.608   4.392   0.406  0.4456  0.0567  0.1527
  574TIP3    H223282   2.599   4.509   0.501 -1.7324 -1.1949  1.5505
  575TIP3   OH223283   1.223   0.423   0.785 -0.0323  0.0708 -0.3551
  575TIP3    H123284   1.160   0.494   0.778 -1.6016 -1.4094 -2.5267
  575TIP3    H223285   1.294   0.447   0.726  0.3928  0.6976  0.3932
  576TIP3   OH223286   0.392   6.279   7.762  0.0657 -0.2944 -0.2457
  576TIP3    H123287   0.484   6.253   7.757  0.3706  0.7926 -0.5747
  576TIP3    H223288   0.377   6.333   7.685 -1.2110 -1.4769 -0.8737
  577TIP3   OH223289   6.272   0.771   8.247 -0.6479  0.4161 -0.4823
  577TIP3    H123290   6.298   0.852   8.291 -1.3891  0.4658 -0.1177
  577TIP3    H223291   6.229   0.720   8.315  0.9312 -0.8386 -0.3844
  578TIP3   OH223292   3.466   5.367   0.535  0.0595  0.4200 -0.0527
  578TIP3    H123293   3.419   5.303   0.587 -1.4922  0.5909 -1.1829
  578TIP3    H223294   3.525   5.410   0.597 -0.7744 -0.2818  1.2632
  579TIP3   OH223295   4.292   0.700   1.421  0.2070 -0.3465  0.2804
  579TIP3    H123296   4.321   0.768   1.361 -0.8029 -0.6717 -0.5913
  579TIP3    H223297   4.267   0.747   1.501  0.5071  0.1953  0.0576
  580TIP3   OH223298   4.591   2.266   8.657 -0.1942  0.2836  0.0678
  580TIP3    H123299   4.669   2.322   8.657 -0.0728  0.1537 -1.5077
  580TIP3    H223300   4.518   2.328   8.650 -0.1122  0.3081 -0.6347
  581TIP3   OH223301   0.064   3.863   2.219 -0.1461 -0.2285 -0.6562
  581TIP3    H123302  -0.019   3.839   2.178 -1.5734  2.3441  0.4806
  581TIP3    H223303   0.079   3.954   2.192  0.6603  0.3977  1.6492
  582TIP3   OH223304   4.332   2.796   2.150  0.2381 -0.2625 -0.2443
  582TIP3    H123305   4.263   2.854   2.118 -1.3427 -1.8017  0.1978
  582TIP3    H223306   4.307   2.776   2.240  0.4487 -1.9447 -0.5122
  583TIP3   OH223307   2.965   0.917   2.670  0.1319  0.3821  0.1531
  583TIP3    H123308   2.953   0.907   2.575 -0.0185 -3.5243  0.4194
  583TIP3    H223309   2.876   0.916   2.705  0.2404 -2.4484  0.5144
  584TIP3   OH223310   3.098   4.112   6.540  0.6191 -0.5196  0.0264
  584TIP3    H123311   3.084   4.074   6.453  1.9656  0.1353 -0.5075
  584TIP3    H223312   3.011   4.139   6.569  0.3119  0.4905 -1.7226
  585TIP3   OH223313   0.695   0.829   1.055  0.3741 -0.2262  0.2533
  585TIP3    H123314   0.669   0.856   0.967  1.3922 -0.5219 -0.1585
  585TIP3    H223315   0.707   0.911   1.103 -2.3486 -0.0836  0.8143
  586TIP3   OH223316   4.838   4.519   8.115  0.3968 -0.3116  0.5010
  586TIP3    H123317   4.895   4.595   8.125 -2.0988  1.7005  0.5522
  586TIP3    H223318   4.772   4.529   8.184 -0.1447 -2.4334  0.3599
  587TIP3   OH223319   2.498   6.253   0.488  0.5994 -0.0705 -0.2673
  587TIP3    H123320   2.530   6.329   0.439 -1.5424 -0.3213 -2.2123
  587TIP3    H223321   2.508   6.179   0.429  0.7464 -0.9515  0.8227
  588TIP3   OH223322   4.325   6.623   6.508  0.1108 -0.3966  0.1341
  588TIP3    H123323   4.323   6.706   6.461  0.6005  0.0956  0.9628
  588TIP3    H223324   4.251   6.628   6.569  0.8813 -0.0289  1.0597
  589TIP3   OH223325   2.633   4.045   8.538  0.4346  0.1302  0.3964
  589TIP3    H123326   2.716   4.003   8.516 -0.3830 -1.0177 -0.6703
  589TIP3    H223327   2.567   3.993   8.491 -0.8618  1.1580  1.0160
  590TIP3   OH223328   4.911   4.517   1.542 -0.6717  0.3196  0.0845
  590TIP3    H123329   4.968   4.468   1.483 -0.0783  0.2459  0.7100
  590TIP3    H223330   4.857   4.450   1.584 -0.5594  0.3004  0.1973
  591TIP3   OH223331   0.123   4.894   8.057  0.2323  0.0078 -0.5620
  591TIP3    H123332   0.189   4.947   8.101  0.3203 -0.1239 -0.5343
  591TIP3    H223333   0.092   4.834   8.124 -0.0935  0.2358 -0.5094
  592TIP3   OH223334   0.580   5.384   7.537  0.3948 -0.5914 -0.0037
  592TIP3    H123335   0.520   5.458   7.526 -1.1150 -1.8177 -0.4001
  592TIP3    H223336   0.665   5.418   7.508 -0.1716  1.0720  0.1436
  593TIP3   OH223337   0.450   4.230   0.899 -0.2746 -0.1174  0.0939
  593TIP3    H123338   0.526   4.240   0.841  0.2802  1.2950  1.0133
  593TIP3    H223339   0.402   4.156   0.862  0.0840  0.6819 -2.1272
  594TIP3   OH223340   2.106   0.208   1.237  0.2156 -0.2369 -0.3223
  594TIP3    H123341   2.084   0.268   1.166  0.6024  0.3438  0.0352
  594TIP3    H223342   2.111   0.122   1.195  1.7172  0.2657 -1.2733
  595TIP3   OH223343   3.498   3.045   8.073 -0.0439 -0.1343  0.2547
  595TIP3    H123344   3.486   2.977   8.006 -0.0709 -0.4198  0.5474
  595TIP3    H223345   3.560   3.106   8.034  1.5634 -1.3712  0.7694
  596TIP3   OH223346   4.970   3.778   7.327  0.0398 -0.4566  0.1806
  596TIP3    H123347   4.900   3.737   7.378 -0.1413 -0.9104 -0.4291
  596TIP3    H223348   5.051   3.746   7.368 -0.0800 -2.2864 -0.9155
  597TIP3   OH223349   6.099   2.927   6.762 -0.3573 -0.1876 -0.3532
  597TIP3    H123350   6.013   2.962   6.738 -0.5197 -1.3347 -1.5611
  597TIP3    H223351   6.120   2.865   6.692  0.6285 -1.2963  0.8760
  598TIP3   OH223352   2.625   6.260   0.732 -0.0121 -1.0218 -0.0551
  598TIP3    H123353   2.696   6.324   0.726 -0.5964 -0.3420  0.1976
  598TIP3    H223354   2.591   6.254   0.643  2.9252 -4.3961 -1.2082
  599TIP3   OH223355   0.987   2.205   8.548  0.2787  0.3069  0.0993
  599TIP3    H123356   1.005   2.185   8.640  0.1581  0.7879  0.2339
  599TIP3    H223357   1.029   2.135   8.499 -0.7411 -0.6625  0.5687
  600TIP3   OH223358   5.971   6.710   6.454 -0.2116  0.2074  0.3395
  600TIP3    H123359   6.064   6.686   6.456 -0.2047  0.2717  1.1498
  600TIP3    H223360   5.930   6.655   6.521 -0.8706 -0.2432 -0.4158
  601TIP3   OH223361   5.279   2.641   2.159 -0.3907 -0.0833 -0.1511
  601TIP3    H123362   5.361   2.691   2.162  0.8233 -1.9884  2.0065
  601TIP3    H223363   5.217   2.694   2.209 -0.5561  1.3805 -1.8069
  602TIP3   OH223364   2.270   1.130   2.343 -0.1176  0.3071  0.0928
  602TIP3    H123365   2.217   1.199   2.304  0.1880  1.5156  1.7324
  602TIP3    H223366   2.208   1.079   2.396 -0.4847 -1.1792 -1.6770
  603TIP3   OH223367   5.376   2.496   1.922  0.5178 -0.0430  0.2817
  603TIP3    H123368   5.333   2.543   1.993 -2.0051  1.7338 -2.2166
  603TIP3    H223369   5.305   2.451   1.876  2.1071 -1.4887 -0.9035
  604TIP3   OH223370   2.573   3.611   8.467  0.4590 -0.4238 -0.2583
  604TIP3    H123371   2.480   3.594   8.453  0.3165 -0.4645  0.6491
  604TIP3    H223372   2.610   3.620   8.379 -0.4686 -0.0272 -0.6175
  605TIP3   OH223373   5.975   2.284   2.356  0.0226 -0.1353  0.2435
  605TIP3    H123374   5.953   2.244   2.440 -2.1579  0.2099 -0.0994
  605TIP3    H223375   5.924   2.235   2.291  2.1830 -0.8506 -1.0320
  606TIP3   OH223376   1.448   4.690   8.321 -0.1283 -0.6389  0.6044
  606TIP3    H123377   1.389   4.687   8.246  1.5564 -1.1992 -0.7675
  606TIP3    H223378   1.396   4.730   8.391 -1.7096  0.0589 -0.8896
  607TIP3   OH223379   6.418   0.246   1.470 -0.3313 -0.1601 -0.3490
  607TIP3    H123380   6.467   0.184   1.416  1.3346  1.7947 -1.2037
  607TIP3    H223381   6.349   0.193   1.510 -0.4795 -2.1080 -2.8823
  608TIP3   OH223382   2.010   6.398   0.435  0.3594  0.1327 -0.6697
  608TIP3    H123383   2.016   6.309   0.401 -0.2570 -0.6727  1.2600
  608TIP3    H223384   1.916   6.417   0.438  0.2033 -0.6818  2.5851
  609TIP3   OH223385   2.314   0.372   0.484  0.0725 -0.4178  0.2233
  609TIP3    H123386   2.372   0.448   0.481  1.0512 -1.1439  0.5172
  609TIP3    H223387   2.233   0.406   0.522  0.2210  0.6470 -0.3588
  610TIP3   OH223388   5.630   3.011   7.486  0.6334 -0.2016  0.1353
  610TIP3    H123389   5.606   2.919   7.492 -1.5783  0.3539  0.5342
  610TIP3    H223390   5.556   3.053   7.442  2.1321  1.2270 -1.1939
  611TIP3   OH223391   3.836   1.604   1.179  0.3108 -0.2411  1.2364
  611TIP3    H123392   3.749   1.585   1.143  0.2441  1.1421  0.5966
  611TIP3    H223393   3.823   1.683   1.232  1.5375  1.3230 -0.6459
  612TIP3   OH223394   5.676   6.823   1.525  0.3378 -0.5351 -0.3329
  612TIP3    H123395   5.625   6.904   1.523 -0.3134 -0.8932 -3.1858
  612TIP3    H223396   5.675   6.795   1.616  0.5160  2.5958  0.7174
  613TIP3   OH223397   0.891   1.671   1.721 -0.0447 -0.2499  0.1751
  613TIP3    H123398   0.951   1.614   1.674  0.0463  1.1547 -1.5235
  613TIP3    H223399   0.945   1.744   1.751 -0.9313  1.5781 -2.2893
  614TIP3   OH223400   5.942   3.902   6.960 -0.2829 -1.0212 -0.0941
  614TIP3    H123401   5.874   3.842   6.931 -1.3119  1.2750 -2.9013
  614TIP3    H223402   6.000   3.912   6.884 -0.6374  2.0384 -0.1043
  615TIP3   OH223403   2.642   5.537   1.299 -0.7052  0.2891  0.1258
  615TIP3    H123404   2.580   5.562   1.230  0.6978 -0.4943 -1.4975
  615TIP3    H223405   2.707   5.483   1.254  0.1340 -0.4659  2.1469
  616TIP3   OH223406   1.167   0.947   1.327  0.0858  0.2097  0.1208
  616TIP3    H123407   1.218   0.975   1.252 -0.0923  0.8981  0.2498
  616TIP3    H223408   1.077   0.944   1.295 -0.0510  0.9588  0.4288
  617TIP3   OH223409   0.301   4.179   8.586 -0.4380  0.2863  0.0529
  617TIP3    H123410   0.325   4.271   8.579  0.1151  0.3851  2.2978
  617TIP3    H223411   0.342   4.137   8.510  2.4543  1.3357  0.8915
  618TIP3   OH223412   3.232   4.287   7.799  0.1451  0.3360 -0.0872
  618TIP3    H123413   3.245   4.346   7.724  0.4476  0.2218 -0.1268
  618TIP3    H223414   3.285   4.210   7.777  1.6785  1.0138  1.0522
  619TIP3   OH223415   0.147   1.736   0.395  0.5959 -0.5424 -0.7380
  619TIP3    H123416   0.073   1.791   0.419  1.2061  0.6192 -1.4220
  619TIP3    H223417   0.213   1.753   0.461  1.9530  2.0072 -2.5653
  620TIP3   OH223418   0.634   1.630   8.213  0.1407  0.1612  0.0895
  620TIP3    H123419   0.646   1.665   8.124  3.7405  1.0767  0.8046
  620TIP3    H223420   0.578   1.695   8.256 -1.7806 -0.3698 -1.4546
  621TIP3   OH223421   5.944   6.664   0.046 -0.0199  0.0750  0.2250
  621TIP3    H123422   5.883   6.667   0.119 -0.1626 -2.0774  0.2657
  621TIP3    H223423   5.958   6.571   0.030  3.0287  0.4466  0.0303
  622TIP3   OH223424   6.257   4.969   1.130 -0.0395 -0.2362  0.0400
  622TIP3    H123425   6.236   4.928   1.214 -0.3854 -1.0266 -0.4195
  622TIP3    H223426   6.177   4.959   1.078  0.0017  0.6914 -0.2207
  623TIP3   OH223427   6.599   3.614   0.655  0.6204 -0.8602 -0.0925
  623TIP3    H123428   6.507   3.637   0.658  0.7636 -0.0427  4.2683
  623TIP3    H223429   6.646   3.697   0.666  1.9488 -1.2468 -2.3125
  624TIP3   OH223430   4.662   2.308   1.326  0.0976  0.6403  0.0918
  624TIP3    H123431   4.671   2.217   1.296 -1.2508  1.1189 -2.0142
  624TIP3    H223432   4.570   2.316   1.349  0.3790  1.2922  1.0386
  625TIP3   OH223433   3.720   0.170   0.519 -0.2843  0.4603  0.1025
  625TIP3    H123434   3.757   0.095   0.566 -3.5115 -1.6886 -0.4407
  625TIP3    H223435   3.660   0.211   0.582 -0.3016  1.1710 -0.3590
  626TIP3   OH223436   1.068   5.645   0.585  0.9304  0.1493 -0.2686
  626TIP3    H123437   1.058   5.673   0.676  1.5362  0.2234 -0.2262
  626TIP3    H223438   1.162   5.645   0.570  0.7806  1.6043 -1.3689
  627TIP3   OH223439   0.315   6.396   0.638 -0.3160  0.1294  0.2431
  627TIP3    H123440   0.320   6.343   0.718  1.4435 -0.9579 -0.5263
  627TIP3    H223441   0.238   6.361   0.593  0.9917 -2.1302 -0.4090
  628TIP3   OH223442   5.570   4.553   1.150 -0.0215 -0.1257  0.1723
  628TIP3    H123443   5.515   4.503   1.211 -0.7198 -0.2135 -0.5083
  628TIP3    H223444   5.530   4.640   1.147  1.3353  0.6022  1.5418
  629TIP3   OH223445   0.073   2.427   0.528  0.1300 -0.4121  0.4212
  629TIP3    H123446   0.095   2.519   0.545  0.0871 -0.4894  0.9022
  629TIP3    H223447   0.135   2.400   0.460 -0.7265  0.3620 -0.7257
  630TIP3   OH223448   6.442   3.947   6.650 -0.1203  1.1471 -0.2489
  630TIP3    H123449   6.402   3.918   6.569  0.9002  3.5302 -1.7029
  630TIP3    H223450   6.526   3.900   6.654 -0.1637  1.0392 -0.5918
  631TIP3   OH223451   3.721   4.240   8.322 -0.5689 -0.4477  0.1408
  631TIP3    H123452   3.805   4.213   8.285 -0.4472  0.3485 -0.1834
  631TIP3    H223453   3.717   4.335   8.307 -1.6017 -0.5044 -0.0023
  632TIP3   OH223454   1.552   2.665   2.030  0.0978 -0.1197  0.6560
  632TIP3    H123455   1.543   2.577   1.992  0.6736  0.7158 -1.5641
  632TIP3    H223456   1.465   2.704   2.021  0.3236  0.2068 -0.2005
  633TIP3   OH223457   3.221   2.378   8.417  0.2350 -0.1469  0.0712
  633TIP3    H123458   3.261   2.454   8.460 -0.5006 -0.0408  0.5936
  633TIP3    H223459   3.216   2.403   8.325 -0.5102  0.6837  0.3201
  634TIP3   OH223460   4.380   4.870   0.088  0.6752  0.7939 -0.1927
  634TIP3    H123461   4.284   4.865   0.090  0.7205 -0.4258 -0.3192
  634TIP3    H223462   4.401   4.881  -0.004  0.6999 -0.9046 -0.4309
  635TIP3   OH223463   6.035   4.261   8.058  0.2967 -0.1173 -0.2516
  635TIP3    H123464   5.987   4.339   8.031  0.5184  0.9502  2.2199
  635TIP3    H223465   6.124   4.276   8.027  0.1533  0.2119 -0.5143
  636TIP3   OH223466   5.850   3.054   0.138  0.1351 -0.7041 -0.3619
  636TIP3    H123467   5.935   3.098   0.144  0.7715 -1.7592 -1.3146
  636TIP3    H223468   5.828   3.057   0.045 -2.6805  2.8043  0.2070
  637TIP3   OH223469   2.021   1.231   0.030  0.5571  0.4280  0.0568
  637TIP3    H123470   1.992   1.302   0.088 -0.4534 -1.3175  1.8186
  637TIP3    H223471   2.063   1.168   0.089 -1.1398 -1.7518 -0.9218
  638TIP3   OH223472   0.921   5.500   8.537  0.4747  0.7685 -0.2467
  638TIP3    H123473   0.931   5.488   8.443  1.1666 -1.1490  0.0179
  638TIP3    H223474   0.829   5.481   8.554  0.7996 -1.1373 -0.3148
  639TIP3   OH223475   4.049   1.525   7.283  0.2645  0.2271  0.1043
  639TIP3    H123476   3.953   1.519   7.283  0.2298 -0.3665 -2.0467
  639TIP3    H223477   4.078   1.453   7.339 -0.5528 -0.0993  0.1231
  640TIP3   OH223478   1.885   0.821   1.086 -0.0518 -0.0260  0.2602
  640TIP3    H123479   1.919   0.799   1.173  0.0609 -0.2160  0.1686
  640TIP3    H223480   1.854   0.738   1.051  0.0340  0.0254  0.0609
  641TIP3   OH223481   4.148   3.589   6.881  0.4270  0.2291  0.4465
  641TIP3    H123482   4.241   3.573   6.866  0.5714  1.3288  0.1185
  641TIP3    H223483   4.143   3.621   6.971  0.6632  2.3490 -0.2499
  642TIP3   OH223484   0.582   3.923   1.923  0.4566 -0.0041 -0.0077
  642TIP3    H123485   0.554   3.848   1.976  2.6149 -0.4916  0.5287
  642TIP3    H223486   0.562   3.898   1.833 -0.1666 -0.5973  0.2831
  643TIP3   OH223487   0.123   5.476   0.848 -0.0277 -0.3484 -0.0192
  643TIP3    H123488   0.130   5.382   0.829  0.0848 -0.1413 -1.0381
  643TIP3    H223489   0.173   5.487   0.930  1.8165 -0.8492 -1.0066
  644TIP3   OH223490   3.944   3.512   7.452 -0.4078 -0.2099  0.1832
  644TIP3    H123491   3.954   3.457   7.374 -1.2273  0.8880 -0.7275
  644TIP3    H223492   3.942   3.450   7.525 -1.9414 -1.4555 -0.8588
  645TIP3   OH223493   6.812   6.783   7.563 -0.2454 -0.4999 -0.4877
  645TIP3    H123494   6.836   6.765   7.654 -1.3991  0.5682  0.0555
  645TIP3    H223495   6.775   6.871   7.564 -2.0514 -1.1742 -1.6358
  646TIP3   OH223496   2.414   1.248   7.743  0.2906 -0.0913  0.5983
  646TIP3    H123497   2.505   1.276   7.754  0.8175 -1.9953  1.6198
  646TIP3    H223498   2.377   1.252   7.831 -0.8314  1.2516  0.0938
  647TIP3   OH223499   4.493   4.446   1.424 -0.2864  0.3769  0.2043
  647TIP3    H123500   4.445   4.395   1.489  0.6397 -1.1558 -0.2870
  647TIP3    H223501   4.582   4.453   1.458  0.2969 -0.7220 -1.0199
  648TIP3   OH223502   2.058   1.293   2.230  0.3137  0.5331 -0.5553
  648TIP3    H123503   2.086   1.343   2.153  0.0639  1.2611 -0.1883
  648TIP3    H223504   1.997   1.351   2.274  0.5469  0.1685  0.2573
  649TIP3   OH223505   6.012   1.466   2.459  0.8170  0.2054  0.2163
  649TIP3    H123506   5.982   1.540   2.406 -0.5812 -0.5211 -0.0613
  649TIP3    H223507   5.950   1.464   2.532 -0.0659 -1.5338 -0.5274
  650TIP3   OH223508   3.449   6.764   1.693  0.1309 -0.2247  1.0978
  650TIP3    H123509   3.522   6.719   1.737  1.6052  1.1545  0.1485
  650TIP3    H223510   3.491   6.823   1.631 -1.8525 -0.7038 -0.7983
  651TIP3   OH223511   4.371   4.081   8.649 -0.1840 -0.4382 -0.1249
  651TIP3    H123512   4.302   4.058   8.711  0.3941 -0.7928  0.3889
  651TIP3    H223513   4.380   4.004   8.593 -2.4081  0.7090 -2.2969
  652TIP3   OH223514   5.321   6.387   0.181 -0.2933 -0.4633  0.2156
  652TIP3    H123515   5.380   6.420   0.113 -1.4017 -1.4425 -1.2901
  652TIP3    H223516   5.313   6.293   0.164 -0.9528 -0.6574  1.4370
  653TIP3   OH223517   6.131   3.341   1.286  0.6629  0.3954  0.3768
  653TIP3    H123518   6.187   3.414   1.313 -0.1706  1.1190  0.2114
  653TIP3    H223519   6.051   3.351   1.338  0.1448  0.1908 -0.3573
  654TIP3   OH223520   1.549   0.856   1.948 -0.2341 -0.0501  0.0088
  654TIP3    H123521   1.460   0.877   1.920  0.0110  1.3655  0.2301
  654TIP3    H223522   1.551   0.760   1.949 -2.6619 -0.2264  2.8634
  655TIP3   OH223523   0.541   0.965   1.437 -0.6535 -0.0453  0.4605
  655TIP3    H123524   0.485   0.958   1.360 -0.1078 -1.9031  0.1762
  655TIP3    H223525   0.575   1.055   1.435  0.0095 -0.2879 -1.9524
  656TIP3   OH223526   0.353   0.318   7.637  0.9207  0.1935 -0.8484
  656TIP3    H123527   0.331   0.230   7.606 -0.5043 -0.2697  1.2614
  656TIP3    H223528   0.369   0.368   7.558 -0.4635 -1.4056 -2.2098
  657TIP3   OH223529   0.922   6.027   0.403  0.9596 -1.0101 -1.0449
  657TIP3    H123530   0.928   5.939   0.365  2.6295 -1.7251  0.6796
  657TIP3    H223531   0.994   6.030   0.466  0.5466  1.3962 -0.5996
  658TIP3   OH223532   2.562   2.634   1.921  0.3342 -0.1399 -0.3815
  658TIP3    H123533   2.496   2.574   1.957  2.2742 -3.3354 -1.7179
  658TIP3    H223534   2.625   2.646   1.992 -0.6929  1.4729  0.3089
  659TIP3   OH223535   6.018   3.677   0.885 -0.1219 -0.2332  0.0036
  659TIP3    H123536   5.964   3.700   0.960 -0.6820 -1.0099 -0.1439
  659TIP3    H223537   6.070   3.603   0.915  0.7377  0.3938  0.0845
  660TIP3   OH223538   6.568   1.700   6.612  0.4649 -0.1987  0.0792
  660TIP3    H123539   6.616   1.783   6.623  1.2633 -0.7158  0.6183
  660TIP3    H223540   6.494   1.722   6.556 -0.1379  1.2009  1.3418
  661TIP3   OH223541   6.629   1.598   1.459  0.5627  0.2182  0.0330
  661TIP3    H123542   6.601   1.631   1.374  0.3547  0.2313  0.1080
  661TIP3    H223543   6.550   1.597   1.512  0.7897  0.7108  0.3900
  662TIP3   OH223544   5.809   1.563   7.139  0.0640 -0.1359  0.1409
  662TIP3    H123545   5.739   1.499   7.130  1.0224 -1.0302 -1.5117
  662TIP3    H223546   5.869   1.525   7.203  0.6432 -0.9413 -0.8556
  663TIP3   OH223547   2.836   6.401   7.073 -0.1532  0.6294 -0.0549
  663TIP3    H123548   2.807   6.323   7.121  1.5268 -0.1244 -0.2170
  663TIP3    H223549   2.822   6.380   6.981  2.0931 -0.3045 -0.2326
  664TIP3   OH223550   2.583   0.560   0.833 -0.4443  0.5167  0.2132
  664TIP3    H123551   2.601   0.642   0.878  0.3252  0.8255 -0.6426
  664TIP3    H223552   2.532   0.585   0.756 -0.0458  0.2174 -0.1508
  665TIP3   OH223553   4.592   0.711   8.173 -0.8447  0.6927  0.2136
  665TIP3    H123554   4.674   0.676   8.137  0.8224  1.1078  3.2826
  665TIP3    H223555   4.548   0.749   8.097  0.9586 -1.0595 -1.8658
  666TIP3   OH223556   4.609   6.550   0.463  0.4075  0.1715  0.3691
  666TIP3    H123557   4.649   6.484   0.520  0.7018 -1.0289 -1.1469
  666TIP3    H223558   4.565   6.498   0.395  0.8080  1.5527 -0.9842
  667TIP3   OH223559   2.032   2.303   2.229  0.2470  0.2443 -0.3480
  667TIP3    H123560   2.063   2.228   2.179 -0.3439  1.0390 -1.9951
  667TIP3    H223561   2.046   2.378   2.170  0.4253  1.3785  1.0725
  668TIP3   OH223562   2.518   0.939   0.467  0.0668  0.0719  0.2512
  668TIP3    H123563   2.514   1.029   0.436  0.3129 -0.2221 -0.6662
  668TIP3    H223564   2.611   0.916   0.463  0.0250 -0.1854  0.6115
  669TIP3   OH223565   4.543   0.064   1.442  0.0658 -0.1483  0.1073
  669TIP3    H123566   4.530   0.093   1.532 -2.1919  0.4607 -0.3494
  669TIP3    H223567   4.536  -0.032   1.446 -1.6675 -0.0528  0.4214
  670TIP3   OH223568   3.903   5.694   8.222  0.4158 -0.3831 -0.0995
  670TIP3    H123569   3.972   5.656   8.167  0.0711 -1.0607 -0.0797
  670TIP3    H223570   3.944   5.706   8.307 -0.0346 -2.7509  0.5201
  671TIP3   OH223571   3.093   0.202   0.770 -0.4053  0.3816  0.1733
  671TIP3    H123572   3.123   0.247   0.692 -1.1785 -0.3219 -0.5470
  671TIP3    H223573   3.160   0.221   0.836  0.7723  0.1618 -0.9253
  672TIP3   OH223574   2.138   5.122   0.284  0.1933  0.3017  0.3310
  672TIP3    H123575   2.192   5.085   0.354 -0.4466  1.1300  1.2886
  672TIP3    H223576   2.196   5.123   0.208  0.9100 -0.6033  0.8372
  673TIP3   OH223577   6.848   4.017   1.361  0.2768 -0.2841  0.3917
  673TIP3    H123578   6.787   4.013   1.288 -0.3202 -0.3871  0.8849
  673TIP3    H223579   6.793   4.004   1.439  0.9702 -0.6695  0.8269
  674TIP3   OH223580   0.345   0.495   1.834 -0.0745  0.2184  0.3913
  674TIP3    H123581   0.384   0.483   1.921  0.4798  0.2858  0.1521
  674TIP3    H223582   0.263   0.542   1.851 -0.1699 -0.1231  0.9147
  675TIP3   OH223583   4.598   1.520   0.512 -0.1637 -0.0223 -0.7504
  675TIP3    H123584   4.670   1.459   0.526  0.2028  0.5685  0.0276
  675TIP3    H223585   4.640   1.599   0.476 -0.3145  0.5533  0.2927
  676TIP3   OH223586   1.355   6.840   7.410 -0.4712  0.1411 -0.2490
  676TIP3    H123587   1.305   6.796   7.341  1.4272 -1.1258 -0.8849
  676TIP3    H223588   1.294   6.845   7.484 -2.3172  0.8420 -1.7158
  677TIP3   OH223589   6.547   5.266   1.856 -0.2671  0.5614 -0.2755
  677TIP3    H123590   6.465   5.221   1.878  0.7368  0.1740  3.4608
  677TIP3    H223591   6.520   5.345   1.809 -2.5974 -0.4638 -0.7961
  678TIP3   OH223592   0.962   1.222   0.961  0.2833  0.0375  0.0857
  678TIP3    H123593   0.934   1.287   1.025 -1.0364  0.1827 -0.6106
  678TIP3    H223594   0.943   1.138   1.002  0.6493  0.1076  0.4031
  679TIP3   OH223595   0.682   5.502   7.907 -0.2171 -0.2719  0.7352
  679TIP3    H123596   0.773   5.483   7.931 -0.2228  0.4819  1.3664
  679TIP3    H223597   0.672   5.596   7.921 -1.3898 -0.5124  1.6614
  680TIP3   OH223598   3.009   5.342   7.154 -0.1330  0.5597 -0.5588
  680TIP3    H123599   3.071   5.405   7.116 -0.6516  0.6662 -1.2587
  680TIP3    H223600   3.061   5.264   7.171  0.1969  0.6449 -1.1534
  681TIP3   OH223601   1.719   1.765   2.187  0.4526 -0.0888  0.3147
  681TIP3    H123602   1.712   1.732   2.277 -0.2029 -0.1817  0.2372
  681TIP3    H223603   1.642   1.729   2.143 -1.4079  3.0295  0.7017
  682TIP3   OH223604   1.908   2.234   0.998  0.3021 -0.5227 -0.5287
  682TIP3    H123605   1.916   2.326   0.975 -1.2511  0.0724  1.1197
  682TIP3    H223606   1.996   2.209   1.027  1.2812 -0.2206 -2.9830
  683TIP3   OH223607   4.176   3.289   0.609  0.6539 -0.2200  0.0361
  683TIP3    H123608   4.235   3.268   0.681  0.0684 -0.7185  0.3848
  683TIP3    H223609   4.201   3.229   0.538  2.0141  1.0768 -0.6184
  684TIP3   OH223610   3.048   3.420   0.314 -0.1222  0.1834 -0.0434
  684TIP3    H123611   3.037   3.329   0.289  0.7229 -0.1348  0.6772
  684TIP3    H223612   3.103   3.458   0.245 -0.9745  0.3213 -0.6643
  685TIP3   OH223613   2.075   5.766   6.640 -0.6089  0.0029 -0.3161
  685TIP3    H123614   2.060   5.672   6.651 -1.1851 -0.0499 -1.4081
  685TIP3    H223615   1.992   5.800   6.606 -0.2117  0.8004 -0.5160
  686TIP3   OH223616   0.891   1.998   7.383  0.1468  0.9821 -0.9430
  686TIP3    H123617   0.820   2.048   7.343 -1.3950 -0.4269 -0.1010
  686TIP3    H223618   0.899   1.919   7.330  1.2255  1.1992 -1.1292
  687TIP3   OH223619   0.959   1.681   7.833  0.2881  0.0540 -0.1677
  687TIP3    H123620   0.988   1.590   7.830  1.1971  0.3420 -0.3775
  687TIP3    H223621   0.991   1.715   7.916 -1.6640 -0.3200  0.7909
  688TIP3   OH223622   2.513   4.899   7.867  0.7126  0.1072  0.0015
  688TIP3    H123623   2.588   4.953   7.840  0.7016  0.1813  0.1202
  688TIP3    H223624   2.545   4.809   7.860  1.5320  0.1712  2.1155
  689TIP3   OH223625   3.757   5.733   8.544 -0.2868  0.1769  0.5498
  689TIP3    H123626   3.713   5.717   8.461  1.5755  0.3502 -0.5256
  689TIP3    H223627   3.839   5.684   8.538  0.5100  1.2951  1.7055
  690TIP3   OH223628   3.902   0.471   2.155 -0.2256  0.0485 -0.1746
  690TIP3    H123629   3.871   0.495   2.068  0.5681  2.6855  0.1547
  690TIP3    H223630   3.901   0.554   2.204  1.5173 -0.8909  1.6086
  691TIP3   OH223631   4.773   3.924   8.093  0.0735 -0.1620 -0.0643
  691TIP3    H123632   4.838   3.859   8.121 -1.7364 -1.6021  1.0547
  691TIP3    H223633   4.747   3.968   8.174 -0.2489  0.4942 -0.5172
  692TIP3   OH223634   5.559   3.140   1.331 -0.1193  0.3717  0.7396
  692TIP3    H123635   5.536   3.100   1.247 -0.3165 -1.5139  1.6379
  692TIP3    H223636   5.594   3.225   1.308  1.1094 -0.6277 -1.3697
  693TIP3   OH223637   2.725   0.526   7.034  0.5799 -0.2224  0.2005
  693TIP3    H123638   2.708   0.432   7.044 -0.0590 -0.1151  0.1721
  693TIP3    H223639   2.817   0.531   7.008  1.0777 -0.7434  1.7566
  694TIP3   OH223640   0.040   2.167   1.701  0.3451 -0.3058 -0.6940
  694TIP3    H123641   0.052   2.187   1.794 -1.4589 -0.7381 -0.3196
  694TIP3    H223642   0.126   2.183   1.661  0.7959  1.2676  0.7832
  695TIP3   OH223643   2.315   2.701   1.077  0.1527 -0.5214 -0.4862
  695TIP3    H123644   2.257   2.777   1.072 -0.2773 -0.6470  1.4493
  695TIP3    H223645   2.279   2.639   1.014  0.0770  0.5784 -1.5700
  696TIP3   OH223646   6.439   0.891   0.973 -0.2705  0.1465  0.8150
  696TIP3    H123647   6.449   0.867   1.065  1.3719  0.7202  0.8158
  696TIP3    H223648   6.364   0.951   0.972 -1.5331 -1.3487  1.4594
  697TIP3   OH223649   0.091   0.250   0.727  0.1914 -0.5369  0.0986
  697TIP3    H123650   0.137   0.249   0.810 -0.9149 -0.0865  0.7467
  697TIP3    H223651  -0.001   0.262   0.751 -0.1807 -0.6750 -1.1752
  698TIP3   OH223652   3.050   3.296   6.767 -0.2447  0.2011 -0.4385
  698TIP3    H123653   3.025   3.382   6.798  0.1545 -0.1678  0.9905
  698TIP3    H223654   2.967   3.254   6.742 -0.5323  0.6930 -0.3148
  699TIP3   OH223655   6.193   0.080   7.448 -0.3996  0.2813 -0.0640
  699TIP3    H123656   6.164   0.148   7.508 -1.3781 -0.8413  0.7797
  699TIP3    H223657   6.122   0.075   7.383  0.3254  1.0051 -0.9377
  700TIP3   OH223658   2.793   6.780   1.511 -0.1150 -0.2583  0.1099
  700TIP3    H123659   2.799   6.731   1.429 -0.9708  0.0452 -0.1448
  700TIP3    H223660   2.740   6.725   1.569 -1.0604  0.3310 -0.1683
  701TIP3   OH223661   2.208   5.724   1.100  0.1599  0.0728 -0.0661
  701TIP3    H123662   2.254   5.733   1.016  0.9792  0.2312  0.3977
  701TIP3    H223663   2.225   5.807   1.145 -0.2040 -0.0533  0.3080
  702TIP3   OH223664   6.823   4.491   7.601  0.0274 -0.0651  0.3506
  702TIP3    H123665   6.756   4.503   7.534  1.6706 -0.7722 -1.5110
  702TIP3    H223666   6.884   4.563   7.587  0.4398 -0.2709  1.0388
  703TIP3   OH223667   2.055   6.705   1.421 -0.1646  0.2838 -0.1929
  703TIP3    H123668   2.072   6.734   1.332 -0.6718  0.2537 -0.3004
  703TIP3    H223669   1.970   6.661   1.417  1.1173 -2.3615 -0.2994
  704TIP3   OH223670   4.007   4.745   7.381  0.3764  0.4146 -0.6326
  704TIP3    H123671   4.082   4.735   7.323  0.6246 -1.1953 -0.0808
  704TIP3    H223672   3.934   4.768   7.323  1.2023  1.7295 -1.2047
  705TIP3   OH223673   4.281   6.111   0.038 -0.0992  0.4057 -0.0946
  705TIP3    H123674   4.350   6.047   0.020 -0.7477 -0.4160  0.2557
  705TIP3    H223675   4.210   6.088  -0.023 -1.2103 -0.6497  1.5183
  706TIP3   OH223676   2.745   3.515   0.550 -0.0112  0.2968 -0.7567
  706TIP3    H123677   2.781   3.528   0.637 -0.1631  1.6442 -0.8720
  706TIP3    H223678   2.725   3.422   0.546  4.0029 -0.7071 -0.9311
  707TIP3   OH223679   2.152   1.577   7.987  0.4206 -0.2823  0.2509
  707TIP3    H123680   2.218   1.550   7.923  0.2144 -0.3924  0.0867
  707TIP3    H223681   2.125   1.664   7.959  0.9163  0.0066  0.6481
  708TIP3   OH223682   4.302   1.437   7.649 -0.3109 -0.4842  0.0866
  708TIP3    H123683   4.216   1.450   7.610 -0.8784 -2.2730  0.6319
  708TIP3    H223684   4.342   1.524   7.648 -1.6724  0.1815 -1.1938
  709TIP3   OH223685   2.400   2.598   1.322 -0.0983 -0.4978  0.2900
  709TIP3    H123686   2.496   2.591   1.314  0.1247  1.7949  0.2859
  709TIP3    H223687   2.374   2.655   1.249 -1.2945 -0.0737  1.0185
  710TIP3   OH223688   5.136   1.027   0.024 -0.3588  0.0041  0.3569
  710TIP3    H123689   5.174   0.976  -0.048  0.8904  0.0375  0.9707
  710TIP3    H223690   5.101   1.106  -0.019 -1.5664 -0.9472 -0.4798
  711TIP3   OH223691   6.033   0.565   8.282 -0.1113 -0.2081 -0.4120
  711TIP3    H123692   5.990   0.482   8.299 -0.0479  0.1134  1.5754
  711TIP3    H223693   6.105   0.569   8.345 -1.0725  2.0023  0.6472
  712TIP3   OH223694   2.057   6.151   0.350  0.1663 -0.0609 -0.6124
  712TIP3    H123695   2.111   6.155   0.429 -1.0938 -0.1064  0.2813
  712TIP3    H223696   2.010   6.068   0.358 -0.9125  0.5252 -0.7717
  713TIP3   OH223697   5.208   5.890   7.303  0.3694  0.2447  0.4067
  713TIP3    H123698   5.207   5.801   7.337  1.2259  0.5493  1.2828
  713TIP3    H223699   5.232   5.880   7.211 -1.7125 -0.5710 -0.0946
  714TIP3   OH223700   5.896   4.777   0.217  0.4795 -0.6199  0.2952
  714TIP3    H123701   5.916   4.854   0.163  1.0031 -1.0557 -0.1345
  714TIP3    H223702   5.845   4.813   0.290  3.3145  0.6741  1.7945
  715TIP3   OH223703   2.355   3.427   8.498  0.1931  0.2956 -0.2627
  715TIP3    H123704   2.383   3.340   8.470  0.3112  0.3692 -0.3739
  715TIP3    H223705   2.322   3.414   8.587  1.4747  0.3772  0.2329
  716TIP3   OH223706   3.765   4.395   0.679 -0.0347  0.6791  0.8252
  716TIP3    H123707   3.724   4.449   0.611  0.9282 -1.2613 -1.4530
  716TIP3    H223708   3.831   4.344   0.632  0.2916 -1.1953  3.1416
  717TIP3   OH223709   6.805   0.552   1.657 -0.4549  0.0971 -0.0995
  717TIP3    H123710   6.824   0.624   1.598 -0.5939 -0.1859 -0.4937
  717TIP3    H223711   6.719   0.520   1.630 -0.1817 -0.5323 -0.2578
  718TIP3   OH223712   3.507   1.780   6.581  0.4919 -0.2400  0.3918
  718TIP3    H123713   3.443   1.739   6.523  2.3078 -1.6260 -0.7345
  718TIP3    H223714   3.497   1.735   6.665 -1.3099  0.9360  0.8695
  719TIP3   OH223715   4.407   4.412   7.307 -0.2583 -0.1812 -0.3784
  719TIP3    H123716   4.355   4.485   7.273 -0.6104  0.8446  2.1695
  719TIP3    H223717   4.492   4.451   7.329 -0.2935 -0.6310  0.5881
  720TIP3   OH223718   0.357   0.492   1.442 -0.0198 -0.9748 -0.7119
  720TIP3    H123719   0.418   0.566   1.437  0.7168 -1.5404 -0.3201
  720TIP3    H223720   0.348   0.462   1.352  1.2878 -1.6743 -0.6337
  721TIP3   OH223721   0.604   6.703   7.885 -0.1127 -0.7953 -0.1431
  721TIP3    H123722   0.592   6.690   7.791  1.4852 -2.1308 -0.1981
  721TIP3    H223723   0.657   6.782   7.892 -0.8432 -0.2760 -0.3039
  722TIP3   OH223724   6.289   5.119   2.608  0.0650  0.1922 -0.5293
  722TIP3    H123725   6.198   5.121   2.580 -0.5528 -0.4701  1.3015
  722TIP3    H223726   6.297   5.037   2.657  1.4234  0.6436  0.0479
  723TIP3   OH223727   2.097   3.893   0.864  0.2298 -0.1133  0.0641
  723TIP3    H123728   2.125   3.975   0.822  0.7726 -0.1612  0.3287
  723TIP3    H223729   2.176   3.858   0.905  0.1198 -1.0480 -0.4980
  724TIP3   OH223730   1.709   4.717   8.369  0.3660  1.1426  0.5431
  724TIP3    H123731   1.708   4.622   8.366  1.6326  1.1431 -1.6536
  724TIP3    H223732   1.618   4.743   8.359 -0.0583  0.1856  1.7592
  725TIP3   OH223733   1.526   4.295   7.804 -0.0809 -0.8947 -0.5676
  725TIP3    H123734   1.508   4.364   7.740  1.6076 -1.2895 -1.5189
  725TIP3    H223735   1.555   4.342   7.882 -2.8895 -0.3655  0.2790
  726TIP3   OH223736   5.027   1.592   1.008  0.4190 -1.0456  0.2806
  726TIP3    H123737   5.083   1.652   1.058  2.3874 -1.3592 -1.3918
  726TIP3    H223738   5.020   1.514   1.062 -0.5643 -0.0525  1.6375
  727TIP3   OH223739   2.450   3.604   0.442 -0.0828 -0.1069  0.5082
  727TIP3    H123740   2.544   3.595   0.459 -0.1548 -0.2818  0.8313
  727TIP3    H223741   2.410   3.532   0.492 -0.2690 -0.9701 -0.8344
  728TIP3   OH223742   1.575   2.420   0.317  0.5578  0.0748 -0.1195
  728TIP3    H123743   1.600   2.403   0.226 -1.5182 -1.5135 -0.4646
  728TIP3    H223744   1.512   2.492   0.312  0.3252 -0.1166  0.0532
  729TIP3   OH223745   2.209   6.431   2.617  0.1000 -0.2364 -0.2737
  729TIP3    H123746   2.195   6.357   2.559 -1.9227  0.8728 -1.3067
  729TIP3    H223747   2.287   6.407   2.668 -0.3628 -2.9614 -0.6777
  730TIP3   OH223748   3.770   5.593   7.774 -0.1819 -0.0176  0.0062
  730TIP3    H123749   3.807   5.667   7.823 -0.8385 -0.4235  1.1747
  730TIP3    H223750   3.824   5.586   7.696  0.0639  1.5278 -0.0005
  731TIP3   OH223751   4.105   0.221   7.597 -0.2273  0.0650  0.3285
  731TIP3    H123752   4.183   0.166   7.596 -0.3877 -0.1563 -0.0290
  731TIP3    H223753   4.140   0.310   7.608  0.2960  0.2845 -2.4146
  732TIP3   OH223754   3.122   6.167   7.572 -0.0296 -0.5813 -0.6563
  732TIP3    H123755   3.182   6.240   7.588  0.1760 -0.0526 -3.3544
  732TIP3    H223756   3.143   6.103   7.640  0.9093  1.1603  0.7947
  733TIP3   OH223757   6.154   6.622   7.243  0.4312 -0.0480  0.4232
  733TIP3    H123758   6.085   6.561   7.217  1.4827 -0.7352 -0.8677
  733TIP3    H223759   6.116   6.709   7.230 -0.5943 -0.4112  0.9078
  734TIP3   OH223760   5.011   1.066   1.653  0.1650 -0.5273 -0.1481
  734TIP3    H123761   4.921   1.035   1.658  0.3740 -1.0361  0.4861
  734TIP3    H223762   5.031   1.098   1.741 -0.0963  1.6072 -0.7920
  735TIP3   OH223763   3.735   1.914   6.538 -0.5377 -0.0473 -0.1804
  735TIP3    H123764   3.757   1.867   6.457  0.1600  1.8454 -1.1549
  735TIP3    H223765   3.651   1.876   6.565 -0.5087 -1.1260 -1.4742
  736TIP3   OH223766   0.376   2.730   7.647 -0.0986  0.1184  0.4280
  736TIP3    H123767   0.304   2.671   7.672 -0.8879  0.1586 -1.5870
  736TIP3    H223768   0.429   2.679   7.586 -0.1917  1.1142 -0.5148
  737TIP3   OH223769   2.988   6.573   8.542  0.1899 -0.0688  0.1244
  737TIP3    H123770   3.079   6.545   8.545 -0.6060 -3.4871 -1.9909
  737TIP3    H223771   2.982   6.628   8.464  0.2534 -0.7129 -0.3381
  738TIP3   OH223772   2.262   3.091   6.714  0.7102  0.5774  0.2739
  738TIP3    H123773   2.180   3.093   6.664  1.3896  0.4401 -0.8920
  738TIP3    H223774   2.281   2.997   6.724  1.1984  0.6122 -0.2839
  739TIP3   OH223775   4.054   4.207   0.562  0.8049 -0.0635  0.0184
  739TIP3    H123776   4.069   4.299   0.581  1.4883 -0.2565  0.4266
  739TIP3    H223777   4.073   4.161   0.644 -0.1313 -0.5159  0.0009
  740TIP3   OH223778   3.697   0.820   2.006 -0.6744  0.2618 -0.1041
  740TIP3    H123779   3.639   0.781   2.071  1.1939  0.6705  1.9411
  740TIP3    H223780   3.665   0.910   1.998  0.0928  0.7300  1.6282
  741TIP3   OH223781   1.923   0.794   7.356 -0.0633 -0.2436  0.0631
  741TIP3    H123782   1.920   0.699   7.340 -1.8153 -0.1859 -0.1874
  741TIP3    H223783   1.903   0.833   7.271 -0.4817  0.3207  0.4153
  742TIP3   OH223784   2.915   0.548   0.496  0.3287  0.1803  0.3837
  742TIP3    H123785   2.891   0.499   0.574 -2.4801 -0.2017 -0.6100
  742TIP3    H223786   2.926   0.638   0.526  0.0177 -0.0922  1.3256
  743TIP3   OH223787   6.611   2.693   0.678 -0.2539 -0.1357 -0.1068
  743TIP3    H123788   6.679   2.693   0.611  0.6660 -0.3855  0.8069
  743TIP3    H223789   6.605   2.785   0.706 -1.2401  0.1333 -1.0833
  744TIP3   OH223790   0.238   3.032   2.395  0.1408  0.0792 -0.5611
  744TIP3    H123791   0.143   3.021   2.397 -0.2916  2.9197 -0.4572
  744TIP3    H223792   0.260   3.027   2.302 -0.3369  0.6397 -0.7163
  745TIP3   OH223793   1.006   5.757   8.441 -0.0063  0.3477 -0.2753
  745TIP3    H123794   0.977   5.735   8.530  0.2178  0.4730 -0.1680
  745TIP3    H223795   1.085   5.705   8.429  0.7742  1.3833  0.1451
  746TIP3   OH223796   5.888   6.823   7.598  0.2034  0.2038 -0.3662
  746TIP3    H123797   5.805   6.844   7.641 -0.2405  0.7169 -1.4347
  746TIP3    H223798   5.863   6.769   7.523  1.0843 -1.7883  0.7179
  747TIP3   OH223799   3.496   1.467   1.878  0.1835 -0.9862 -0.3578
  747TIP3    H123800   3.447   1.419   1.944 -1.8729  0.3794 -0.7948
  747TIP3    H223801   3.574   1.499   1.924 -0.7532 -0.8348  1.1679
  748TIP3   OH223802   4.296   1.870   0.303 -0.7422  0.0625  0.0048
  748TIP3    H123803   4.272   1.808   0.373 -0.1060 -0.8595 -0.5708
  748TIP3    H223804   4.213   1.890   0.260 -0.8531 -1.1438 -0.3971
  749TIP3   OH223805   3.594   2.764   1.589  0.0655  0.9321 -0.2906
  749TIP3    H123806   3.535   2.702   1.632  1.5911 -1.7421 -1.7861
  749TIP3    H223807   3.655   2.792   1.658  0.7275 -1.0530 -0.0256
  750TIP3   OH223808   1.057   3.977   8.255  0.8192 -0.1671 -0.3430
  750TIP3    H123809   1.094   4.044   8.313  0.1988  1.0903 -1.3293
  750TIP3    H223810   1.104   3.990   8.172  1.3072 -1.5667 -0.3135
  751TIP3   OH223811   2.618   4.604   8.236 -0.2378 -0.0814  0.0199
  751TIP3    H123812   2.570   4.554   8.169 -0.0982 -0.8671  0.4929
  751TIP3    H223813   2.707   4.570   8.232  0.4374  1.6750 -1.1541
  752TIP3   OH223814   5.539   6.424   7.947 -0.2738 -0.0161 -0.0459
  752TIP3    H123815   5.513   6.405   8.037 -0.3359  0.8177  0.1152
  752TIP3    H223816   5.632   6.401   7.944  0.0158  1.0272  0.5494
  753TIP3   OH223817   2.275   4.990   6.787 -0.5514 -0.3701  0.1818
  753TIP3    H123818   2.198   5.028   6.745  0.4972  0.6951 -0.8789
  753TIP3    H223819   2.303   5.055   6.851 -1.4007 -1.4344  1.6750
  754TIP3   OH223820   3.483   4.646   0.245  0.0823  0.8887  0.2149
  754TIP3    H123821   3.414   4.590   0.281 -0.1839  0.4466 -0.9247
  754TIP3    H223822   3.555   4.639   0.308 -0.7184  0.9527  1.1651
  755TIP3   OH223823   2.030   2.597   1.546 -0.0211 -0.1326 -0.3224
  755TIP3    H123824   2.008   2.512   1.584 -0.9538  0.9594  1.7352
  755TIP3    H223825   2.065   2.648   1.620 -0.4226  1.5883 -1.2568
  756TIP3   OH223826   2.538   5.682   8.675  0.6493 -0.4960  0.2411
  756TIP3    H123827   2.513   5.760   8.626  0.0905 -0.9753 -0.2647
  756TIP3    H223828   2.463   5.623   8.666  1.6128 -1.6457 -0.5898
  757TIP3   OH223829   4.050   6.471   1.396 -0.3073  0.6258 -0.3770
  757TIP3    H123830   4.049   6.378   1.420 -0.5055  1.1154  1.7113
  757TIP3    H223831   4.142   6.489   1.374 -0.4065 -0.2130 -1.5853
  758TIP3   OH223832   6.080   4.799   6.636 -0.8456 -0.3047  0.0467
  758TIP3    H123833   6.152   4.769   6.581 -0.2746 -0.2945  0.7747
  758TIP3    H223834   6.122   4.831   6.715 -1.7056 -1.1192  0.8590
  759TIP3   OH223835   1.476   6.337   2.530  0.4840 -0.4144  0.1484
  759TIP3    H123836   1.541   6.278   2.565  1.9827 -0.2749 -2.1617
  759TIP3    H223837   1.394   6.287   2.530  1.2193 -1.6277  0.4219
  760TIP3   OH223838   4.107   4.282   7.190 -0.3706  0.6296  0.3901
  760TIP3    H123839   4.101   4.320   7.277  0.6788  1.7023  0.0295
  760TIP3    H223840   4.136   4.355   7.134 -2.0913  0.2750 -1.0643
  761TIP3   OH223841   6.070   1.005   1.494 -0.2953 -0.3475  0.6031
  761TIP3    H123842   6.086   0.971   1.583 -0.2419  1.1273  1.1898
  761TIP3    H223843   6.018   1.084   1.508 -3.2913 -1.9175 -0.9086
  762TIP3   OH223844   6.145   3.908   0.062 -0.2878  0.3628 -0.3346
  762TIP3    H123845   6.213   3.856   0.020 -0.3943 -0.4962  0.5179
  762TIP3    H223846   6.069   3.899   0.005 -0.7555 -1.6789  0.5187
  763TIP3   OH223847   6.268   2.191   7.369 -0.2538  0.0879 -0.2576
  763TIP3    H123848   6.330   2.154   7.433  0.2716  0.1072 -0.7460
  763TIP3    H223849   6.200   2.125   7.360  0.7778 -0.8786 -1.2795
  764TIP3   OH223850   5.251   4.932   0.868 -0.5048  0.2608 -0.0785
  764TIP3    H123851   5.189   4.865   0.896 -0.7354  0.4865 -0.0455
  764TIP3    H223852   5.283   4.971   0.950 -0.3860  0.2043 -0.0979
  765TIP3   OH223853   3.509   3.813   7.118  0.1544 -0.5421  0.6801
  765TIP3    H123854   3.465   3.729   7.105 -0.2188 -0.1908 -0.4088
  765TIP3    H223855   3.599   3.798   7.088 -0.1663 -0.2964 -0.4262
  766TIP3   OH223856   3.135   2.852   1.280  0.0479  0.3983 -0.2591
  766TIP3    H123857   3.187   2.775   1.257  0.6176  0.2800  1.3157
  766TIP3    H223858   3.099   2.832   1.367  1.3251  2.4466  0.8112
  767TIP3   OH223859   4.341   0.984   1.761  0.0633 -0.3527  0.5487
  767TIP3    H123860   4.358   1.064   1.811 -0.1832 -0.1185  0.2554
  767TIP3    H223861   4.362   0.913   1.822  1.7584 -0.0817  0.3297
  768TIP3   OH223862   5.086   3.212   6.517 -0.6045 -0.2592 -0.8827
  768TIP3    H123863   5.105   3.297   6.557  0.6777 -0.8743 -0.0924
  768TIP3    H223864   5.024   3.231   6.447 -1.9622  1.0422  0.6014
  769TIP3   OH223865   2.015   3.636   6.264 -0.3286 -0.2095 -0.2235
  769TIP3    H123866   2.027   3.714   6.318 -1.8772  0.2754 -0.5385
  769TIP3    H223867   1.920   3.625   6.258 -0.3491  0.7266 -4.1374
  770TIP3   OH223868   1.354   5.166   1.968 -0.3242 -0.6852 -0.4090
  770TIP3    H123869   1.362   5.083   1.921 -1.7044 -0.4608 -1.0796
  770TIP3    H223870   1.266   5.165   2.005 -0.0221  0.0855  0.3745
  771TIP3   OH223871   3.697   0.779   6.634 -0.3523  0.6574 -0.3188
  771TIP3    H123872   3.711   0.858   6.687 -0.5234  0.2165  0.4057
  771TIP3    H223873   3.618   0.797   6.583  0.0976  1.2824 -0.7998
  772TIP3   OH223874   0.980   3.357   0.093  0.5179 -0.3218 -0.1573
  772TIP3    H123875   0.974   3.432   0.034  1.8671  0.1266  0.2480
  772TIP3    H223876   1.071   3.328   0.086  0.0016 -1.9994 -0.3820
  773TIP3   OH223877   1.121   1.097   0.504 -0.2107 -0.7638  0.8536
  773TIP3    H123878   1.147   1.135   0.420  0.7081 -2.2328  0.4357
  773TIP3    H223879   1.195   1.042   0.529 -0.6294 -0.6278  2.4659
  774TIP3   OH223880   4.402   0.032   0.440 -0.3566 -0.4189  0.1574
  774TIP3    H123881   4.490   0.014   0.473  0.6631  1.8773 -1.1236
  774TIP3    H223882   4.384   0.122   0.467 -1.1697  0.0879 -1.8753
  775TIP3   OH223883   2.336   3.065   0.589 -0.1410 -0.1629  0.5695
  775TIP3    H123884   2.285   3.024   0.519  0.5691  1.3804 -0.9223
  775TIP3    H223885   2.278   3.131   0.625 -0.2176 -0.3997  0.8815
  776TIP3   OH223886   1.343   2.652   0.710 -0.6762  0.3263  0.2898
  776TIP3    H123887   1.344   2.564   0.673  0.7105  0.4173  0.0720
  776TIP3    H223888   1.312   2.708   0.639  0.2975  0.2633 -0.1949
  777TIP3   OH223889   2.471   1.751   0.266 -0.0643 -0.1585  0.2694
  777TIP3    H123890   2.495   1.664   0.296  0.8481  0.9747  3.2467
  777TIP3    H223891   2.405   1.781   0.330 -1.1041  0.9804 -1.2638
  778TIP3   OH223892   6.456   0.393   2.178 -0.2350  0.4881  0.1971
  778TIP3    H123893   6.424   0.378   2.089  0.6255 -1.8624  0.2301
  778TIP3    H223894   6.550   0.406   2.168 -0.4602  2.7329  0.5631
  779TIP3   OH223895   0.233   0.280   8.134  0.5619 -0.1177 -0.6649
  779TIP3    H123896   0.170   0.352   8.132 -0.1240 -0.6717  0.4046
  779TIP3    H223897   0.261   0.274   8.225  0.8596 -1.0058 -0.7993
  780TIP3   OH223898   1.687   5.193   7.138 -0.0299  0.3600 -0.9009
  780TIP3    H123899   1.645   5.156   7.216 -0.3035 -0.7754 -1.5718
  780TIP3    H223900   1.781   5.190   7.157 -0.1045  0.2703 -0.5392
  781TIP3   OH223901   1.206   1.216   0.257  0.4980  0.2412 -0.4263
  781TIP3    H123902   1.277   1.185   0.201 -0.0946  0.4715 -1.3423
  781TIP3    H223903   1.152   1.270   0.199 -0.6841 -0.3178  0.1126
  782TIP3   OH223904   4.903   6.394   8.191  0.6313  0.1484  0.4738
  782TIP3    H123905   4.966   6.336   8.149  0.4318  0.9287 -0.9556
  782TIP3    H223906   4.817   6.356   8.170  0.4002  1.7185 -1.8313
  783TIP3   OH223907   0.580   2.733   8.474  0.4896  0.1071  0.6601
  783TIP3    H123908   0.502   2.762   8.428  1.1926 -0.4428 -0.9662
  783TIP3    H223909   0.640   2.807   8.469  1.2566 -0.5794 -1.0318
  784TIP3   OH223910   0.500   3.035   8.612 -0.4346  0.1212  0.3633
  784TIP3    H123911   0.469   3.102   8.551 -0.7876 -0.8099 -0.5066
  784TIP3    H223912   0.556   2.978   8.559 -0.9672 -0.8632  0.8293
  785TIP3   OH223913   0.295   0.405   0.960 -0.0024 -0.5619  0.7121
  785TIP3    H123914   0.329   0.322   0.927  2.2204  0.8970 -0.9918
  785TIP3    H223915   0.283   0.459   0.881  0.6499  1.4227  1.8969
  786TIP3   OH223916   3.177   4.986   6.925  0.0927 -0.6115 -0.2039
  786TIP3    H123917   3.168   5.079   6.902 -1.7036 -1.3376 -2.7452
  786TIP3    H223918   3.267   4.964   6.900  0.4285  0.3322  0.1140
  787TIP3   OH223919   0.643   1.755   6.976  0.5708  0.4484 -0.4551
  787TIP3    H123920   0.645   1.660   6.990  2.8288  0.4371 -0.4940
  787TIP3    H223921   0.596   1.766   6.893 -0.7978 -0.5153  0.1610
  788TIP3   OH223922   4.403   2.350   8.486 -0.1310 -0.0884  0.0314
  788TIP3    H123923   4.368   2.265   8.511  2.5681 -0.8246  1.6348
  788TIP3    H223924   4.435   2.339   8.397  0.5319 -0.8562  0.3650
  789TIP3   OH223925   6.524   0.759   7.637  0.2253 -0.5492 -0.4327
  789TIP3    H123926   6.573   0.704   7.699  0.4006 -1.9213 -1.7413
  789TIP3    H223927   6.583   0.770   7.563 -0.8469 -0.9558 -1.3774
  790TIP3   OH223928   3.076   5.836   1.714 -0.0572  0.2817 -0.2078
  790TIP3    H123929   3.074   5.904   1.781 -0.4309  0.5200 -0.4579
  790TIP3    H223930   3.169   5.823   1.695  0.0135  2.9530 -2.3891
  791TIP3   OH223931   0.337   5.160   8.465  0.2595  1.1376 -0.2143
  791TIP3    H123932   0.326   5.179   8.558 -1.2511  2.2855 -0.5919
  791TIP3    H223933   0.420   5.112   8.460 -0.0796  0.2348  1.8133
  792TIP3   OH223934   3.536   0.469   8.676  0.4105 -0.4238  0.0750
  792TIP3    H123935   3.547   0.474   8.771 -0.6593  0.2229  0.1910
  792TIP3    H223936   3.578   0.549   8.643 -0.8764  0.3488  0.2116
  793TIP3   OH223937   4.608   3.092   0.302 -0.1344  0.2613 -0.2209
  793TIP3    H123938   4.682   3.143   0.270  1.2374  0.3997  2.8220
  793TIP3    H223939   4.645   3.006   0.321 -0.8090  0.2271  1.0262
  794TIP3   OH223940   0.036   2.816   0.892  0.5557 -0.0338 -0.0050
  794TIP3    H123941   0.054   2.883   0.826  1.4294 -1.1905 -0.9938
  794TIP3    H223942   0.111   2.756   0.886  0.5146 -0.3326  1.8513
  795TIP3   OH223943   5.501   5.611   6.667  0.3507 -0.6340  0.6163
  795TIP3    H123944   5.461   5.648   6.589 -3.3955 -1.5881  1.8790
  795TIP3    H223945   5.561   5.544   6.634  0.8210  0.7160 -1.4211
  796TIP3   OH223946   6.786   4.208   0.194  0.1601 -0.0165  0.2718
  796TIP3    H123947   6.874   4.177   0.215  1.0432  1.6812 -0.6926
  796TIP3    H223948   6.735   4.128   0.182  1.7467 -1.0638  0.1675
  797TIP3   OH223949   5.854   3.149   8.609 -0.9764 -0.1349 -0.0443
  797TIP3    H123950   5.794   3.207   8.562  0.3064  0.8019 -0.5756
  797TIP3    H223951   5.890   3.092   8.541 -1.2575 -0.7175  0.2804
  798TIP3   OH223952   1.323   0.760   0.764 -0.1884  0.1285 -0.9882
  798TIP3    H123953   1.237   0.719   0.780  0.3437  0.2163  3.3962
  798TIP3    H223954   1.377   0.689   0.730 -1.0296 -1.0369 -0.0073
  799TIP3   OH223955   1.525   5.481   0.868 -0.3103  1.2586 -0.0455
  799TIP3    H123956   1.568   5.451   0.789 -0.4988  3.5567 -1.1232
  799TIP3    H223957   1.596   5.493   0.931  0.1280  1.3322 -0.5442
  800TIP3   OH223958   5.766   6.026   0.763  0.0478  0.4025  0.6984
  800TIP3    H123959   5.796   6.031   0.854  0.7864 -1.4764  0.5905
  800TIP3    H223960   5.839   6.063   0.712 -0.8907  2.7082  0.8885
  801TIP3   OH223961   1.062   2.533   0.363 -0.2848  0.8432 -0.7830
  801TIP3    H123962   1.139   2.501   0.316 -0.7719 -0.5911 -0.6723
  801TIP3    H223963   0.999   2.554   0.294 -0.8426 -0.8476 -0.8462
  802TIP3   OH223964   5.740   4.152   2.143  0.0403  0.2470 -0.0430
  802TIP3    H123965   5.716   4.116   2.229  1.4260 -0.4951  0.0695
  802TIP3    H223966   5.822   4.108   2.122  1.2726  2.5820 -0.4153
  803TIP3   OH223967   1.970   3.611   6.623 -0.2635 -0.3468 -0.1559
  803TIP3    H123968   1.999   3.520   6.623 -1.6589 -0.8523  1.4497
  803TIP3    H223969   2.048   3.661   6.599  0.7840 -1.8948 -0.1360
  804TIP3   OH223970   0.329   2.994   2.144  0.3178  0.2773 -0.1966
  804TIP3    H123971   0.416   2.953   2.136  1.0852  1.3973  1.6733
  804TIP3    H223972   0.339   3.079   2.101  0.2192  0.4678  0.1500
  805TIP3   OH223973   6.612   2.109   0.040 -0.1195 -0.5642  0.1667
  805TIP3    H123974   6.650   2.121  -0.047 -1.6761 -3.4552 -1.0335
  805TIP3    H223975   6.557   2.187   0.052  1.2034  0.5751 -0.7670
  806TIP3   OH223976   6.174   2.769   1.562  0.3954  0.3250 -0.2489
  806TIP3    H123977   6.256   2.808   1.531  0.5688  0.8692  0.8447
  806TIP3    H223978   6.127   2.841   1.604  1.6025 -0.8985  3.6702
  807TIP3   OH223979   6.016   2.985   1.643 -0.2012  0.4755 -0.3979
  807TIP3    H123980   6.045   3.057   1.587 -1.8400 -0.2140 -2.2574
  807TIP3    H223981   5.922   2.978   1.626 -0.4281 -0.8879  1.1761
  808TIP3   OH223982   0.235   0.688   0.319 -0.5344  0.2903 -0.5004
  808TIP3    H123983   0.300   0.752   0.349  1.5023 -1.1739 -1.5347
  808TIP3    H223984   0.270   0.604   0.346 -2.7470 -0.4889  0.1088
  809TIP3   OH223985   0.574   2.406   1.051  0.3213  0.5056  0.7644
  809TIP3    H123986   0.594   2.383   0.960 -2.4896  0.8022 -0.0074
  809TIP3    H223987   0.623   2.487   1.066  1.7683 -0.1673 -0.0388
  810TIP3   OH223988   1.117   1.087   7.840 -0.0681 -0.0764 -0.0961
  810TIP3    H123989   1.031   1.089   7.798 -1.3859  0.8938  2.4386
  810TIP3    H223990   1.125   1.172   7.884  1.8895 -0.4086  0.2944
  811TIP3   OH223991   0.219   6.212   1.682  0.2289  0.1220  0.5616
  811TIP3    H123992   0.250   6.197   1.593 -0.4277 -0.6116  0.4455
  811TIP3    H223993   0.165   6.135   1.702 -1.2808  1.2321  0.8640
  812TIP3   OH223994   3.532   6.137   7.658 -0.1058 -0.1877 -0.2884
  812TIP3    H123995   3.546   6.137   7.752 -0.2777  1.5621 -0.2399
  812TIP3    H223996   3.613   6.173   7.622 -0.2107 -0.4427 -0.7859
  813TIP3   OH223997   4.651   3.146   0.590  0.1620 -0.1038  0.5777
  813TIP3    H123998   4.577   3.200   0.616 -0.0661  1.0774 -2.1749
  813TIP3    H223999   4.627   3.111   0.504  2.6851  0.1739 -0.3409
  814TIP3   OH224000   4.900   1.294   7.505  0.2545  0.4885  0.0148
  814TIP3    H124001   4.886   1.215   7.557 -1.3849  0.3837 -0.5036
  814TIP3    H224002   4.985   1.327   7.532  0.6144 -1.0183  0.8171
  815TIP3   OH224003   6.409   2.906   8.566  0.4864 -0.1956 -0.3001
  815TIP3    H124004   6.449   2.819   8.565  1.0014  0.0068  1.1333
  815TIP3    H224005   6.325   2.894   8.610  1.1843  0.2559  1.2286
  816TIP3   OH224006   5.137   1.442   7.521  0.3592 -0.0395  0.7548
  816TIP3    H124007   5.225   1.479   7.513  0.4224  0.0242  1.6511
  816TIP3    H224008   5.083   1.514   7.552 -0.3693  0.3623 -1.3135
  817TIP3   OH224009   0.076   6.353   0.448  0.1207  0.3175 -0.4556
  817TIP3    H124010   0.062   6.390   0.360 -0.0280  0.3203 -0.4312
  817TIP3    H224011   0.040   6.419   0.507 -2.9626 -1.1295 -0.5026
  818TIP3   OH224012   3.096   0.982   0.792  0.5009 -0.4847  0.1943
  818TIP3    H124013   3.132   0.913   0.737 -1.5067 -0.4823 -1.2335
  818TIP3    H224014   3.161   0.994   0.862  1.1975 -3.3624  0.1596
  819TIP3   OH224015   5.801   2.099   1.132 -0.0643 -0.6093 -0.0916
  819TIP3    H124016   5.814   2.079   1.040  0.1877 -1.4131  0.1133
  819TIP3    H224017   5.861   2.041   1.179 -1.0574 -1.0748  0.6417
  820TIP3   OH224018   4.724   4.829   0.205  0.2570 -0.1978  0.1035
  820TIP3    H124019   4.726   4.785   0.120 -2.8214 -0.9308  0.2691
  820TIP3    H224020   4.691   4.917   0.185 -2.4203 -0.9916  0.6140
  821TIP3   OH224021   4.779   1.949   0.904 -0.0641 -0.3288  0.2261
  821TIP3    H124022   4.768   2.031   0.857  1.1968  0.3554  1.0761
  821TIP3    H224023   4.827   1.892   0.843  1.6144  0.5719  0.6301
  822TIP3   OH224024   5.511   0.140   8.219  0.2766  0.1383 -0.1660
  822TIP3    H124025   5.431   0.121   8.170 -0.1828  0.5864  0.3930
  822TIP3    H224026   5.481   0.171   8.304  1.0579 -0.2299  0.2571
  823TIP3   OH224027   4.176   6.460   8.169  0.0223 -0.0558 -0.4426
  823TIP3    H124028   4.082   6.478   8.172  0.1324  0.7373 -1.2677
  823TIP3    H224029   4.216   6.545   8.149  0.9685 -0.2701  0.4721
  824TIP3   OH224030   1.060   2.124   1.178  0.3617  0.4382 -0.0361
  824TIP3    H124031   1.044   2.131   1.272  1.5940  0.9033  0.1618
  824TIP3    H224032   0.974   2.134   1.137 -0.5326 -1.8446  1.1067
  825TIP3   OH224033   0.378   0.587   8.029  0.1737  0.1447 -0.4560
  825TIP3    H124034   0.430   0.557   7.954  0.6738  0.9260 -0.4278
  825TIP3    H224035   0.431   0.565   8.105 -0.3665 -0.7159 -0.3028
  826TIP3   OH224036   5.779   4.016   0.103 -0.3020  0.0326 -0.1167
  826TIP3    H124037   5.810   3.986   0.189  0.4579 -0.6701 -0.6118
  826TIP3    H224038   5.721   4.089   0.122  1.2159  1.0308  0.9027
  827TIP3   OH224039   3.373   3.409   6.954 -0.1305 -0.3735  0.2120
  827TIP3    H124040   3.466   3.428   6.963  0.0158  0.4820 -2.2414
  827TIP3    H224041   3.365   3.370   6.867 -2.0400 -0.5640  0.4368
  828TIP3   OH224042   3.086   3.242   8.663  0.5425 -0.5510  0.3049
  828TIP3    H124043   3.144   3.264   8.590 -0.5026  0.2782 -0.3204
  828TIP3    H224044   2.999   3.265   8.631 -0.0015 -0.7064  1.6197
  829TIP3   OH224045   2.111   2.956   0.382 -0.3422 -0.7522 -0.2988
  829TIP3    H124046   2.054   3.030   0.403 -0.3175 -0.6766 -0.4958
  829TIP3    H224047   2.081   2.886   0.440  0.5095 -0.2002  0.8489
  830TIP3   OH224048   4.201   1.807   7.885 -0.2226 -0.4705 -0.2090
  830TIP3    H124049   4.233   1.886   7.928 -1.6031  0.5613 -0.9940
  830TIP3    H224050   4.276   1.774   7.835  0.4016  0.2586  0.2469
  831TIP3   OH224051   0.899   3.264   1.728 -0.1637 -0.0750  0.2218
  831TIP3    H124052   0.851   3.185   1.702  1.5517 -0.4104 -2.3715
  831TIP3    H224053   0.952   3.236   1.802 -0.9030 -0.8403  0.4803
  832TIP3   OH224054   4.719   3.036   8.292 -0.2963  0.2342  0.3810
  832TIP3    H124055   4.668   3.066   8.216  0.6722 -0.8802 -0.7543
  832TIP3    H224056   4.798   3.090   8.291 -0.2297  0.1408  0.5219
  833TIP3   OH224057   3.931   6.272   8.657  0.6250  0.1924  0.1781
  833TIP3    H124058   3.927   6.344   8.594 -0.4090  0.0289  0.0388
  833TIP3    H224059   3.995   6.211   8.620  1.7943  1.1892  0.4860
  834TIP3   OH224060   6.348   2.306   0.971  0.0596  0.9231  0.2693
  834TIP3    H124061   6.356   2.401   0.964  0.0225  0.9025 -0.0639
  834TIP3    H224062   6.269   2.293   1.024 -0.5023  1.0709 -0.5037
  835TIP3   OH224063   0.098   6.153   1.000  0.0060  0.3611  0.3604
  835TIP3    H124064   0.015   6.159   1.048  0.7708  0.7659  1.6508
  835TIP3    H224065   0.157   6.106   1.058  0.8937  0.6476 -0.2796
  836TIP3   OH224066   4.668   5.209   7.663  0.0125  0.7518 -0.3405
  836TIP3    H124067   4.613   5.139   7.628  1.1549 -0.1242 -0.4180
  836TIP3    H224068   4.654   5.206   7.758  0.5228  0.0164 -0.2865
  837TIP3   OH224069   2.722   5.162   2.005  0.2557  0.4548 -0.0338
  837TIP3    H124070   2.766   5.101   1.945 -0.1017  0.7188 -0.5732
  837TIP3    H224071   2.642   5.187   1.959 -0.4091  0.0656  0.8834
  838TIP3   OH224072   3.008   5.243   6.889  0.0563  0.2770 -0.2151
  838TIP3    H124073   2.923   5.267   6.852 -0.0088  0.3842 -0.0018
  838TIP3    H224074   3.009   5.286   6.975  0.8313  1.3281 -0.7163
  839TIP3   OH224075   5.390   5.244   8.112  0.2425  0.2738  0.3994
  839TIP3    H124076   5.308   5.197   8.093  1.4593 -1.2458 -1.3933
  839TIP3    H224077   5.381   5.327   8.066  0.0091 -0.1975 -0.4118
  840TIP3   OH224078   2.104   3.452   1.086 -0.1757 -0.0644  0.2224
  840TIP3    H124079   2.028   3.489   1.042  0.3344 -0.3500 -0.9295
  840TIP3    H224080   2.144   3.393   1.022  1.3099  0.4612  0.6118
  841TIP3   OH224081   4.662   4.864   1.198 -0.3732  0.6160 -0.2792
  841TIP3    H124082   4.567   4.874   1.203 -0.5745 -1.6163  2.8698
  841TIP3    H224083   4.675   4.778   1.159  0.1806 -0.3358  1.8712
  842TIP3   OH224084   1.636   1.686   7.534 -0.0426  0.1911 -0.4277
  842TIP3    H124085   1.546   1.656   7.545  0.4521 -1.0367  0.4422
  842TIP3    H224086   1.681   1.613   7.493  0.9476  0.0953  0.7689
  843TIP3   OH224087   4.307   1.410   0.151  0.0058  0.0289  0.1223
  843TIP3    H124088   4.239   1.344   0.162 -0.3172  0.1862 -0.8531
  843TIP3    H224089   4.282   1.457   0.072  0.0531  1.5288  0.9536
  844TIP3   OH224090   2.362   2.554   1.594 -0.7739  0.0564 -0.6460
  844TIP3    H124091   2.372   2.549   1.498 -2.5149  0.5914 -0.8905
  844TIP3    H224092   2.348   2.647   1.611 -0.3268 -0.0204  0.1609
  845TIP3   OH224093   4.155   6.600   2.173 -0.1234  0.4081 -0.3656
  845TIP3    H124094   4.126   6.650   2.250  1.6169 -0.7253  1.1297
  845TIP3    H224095   4.106   6.518   2.178  0.3634  0.1249 -0.1491
  846TIP3   OH224096   2.267   4.239   8.193  0.1602 -0.0844  0.3952
  846TIP3    H124097   2.321   4.194   8.129  0.9083 -0.7664  1.4602
  846TIP3    H224098   2.235   4.317   8.148  1.4176 -0.0681 -0.5093
  847TIP3   OH224099   6.629   1.245   8.077  0.0324  0.1901  0.2739
  847TIP3    H124100   6.546   1.270   8.117 -0.2127 -1.1153  0.6312
  847TIP3    H224101   6.614   1.258   7.983 -1.7007 -2.8168 -0.0151
  848TIP3   OH224102   2.977   1.098   6.729 -0.1321 -0.2018  0.4999
  848TIP3    H124103   2.952   1.067   6.642 -0.5826  0.4975  0.3742
  848TIP3    H224104   2.924   1.046   6.790 -0.5541  0.0017  0.3096
  849TIP3   OH224105   4.430   3.734   7.661 -0.2381  0.0907 -0.1816
  849TIP3    H124106   4.358   3.679   7.632  0.2944  0.7604 -3.0606
  849TIP3    H224107   4.387   3.810   7.701 -1.0371 -0.8092  0.7073
  850TIP3   OH224108   3.218   4.482   1.032 -0.7097 -0.0576 -0.3710
  850TIP3    H124109   3.193   4.449   0.946 -1.0050  1.4624 -0.8846
  850TIP3    H224110   3.142   4.465   1.087 -1.4740  1.1864 -1.0215
  851TIP3   OH224111   5.899   5.764   0.616  0.3726  0.0838  0.9175
  851TIP3    H124112   5.880   5.759   0.522  0.5786  1.8034  0.7638
  851TIP3    H224113   5.990   5.793   0.621 -0.3952  2.6180  1.5842
  852TIP3   OH224114   4.936   4.785   8.193  0.8491  0.6080  0.1239
  852TIP3    H124115   4.858   4.838   8.212 -0.2697  0.1277 -2.6868
  852TIP3    H224116   4.975   4.826   8.116  1.5795 -0.9768 -0.3952
  853TIP3   OH224117   3.552   2.471   2.052  0.0394 -0.0075  0.3704
  853TIP3    H124118   3.562   2.407   1.982  2.5550  0.3279  0.3618
  853TIP3    H224119   3.497   2.540   2.014  0.4930 -0.3377 -0.9173
  854TIP3   OH224120   2.465   1.233   0.550  0.1905  0.1377  0.0885
  854TIP3    H124121   2.398   1.301   0.545  0.3494  0.3171  0.3689
  854TIP3    H224122   2.547   1.281   0.564  0.4879 -0.0280 -1.0091
  855TIP3   OH224123   1.588   1.940   8.001 -0.2855 -0.1980  0.2187
  855TIP3    H124124   1.553   1.863   8.047 -2.7732 -1.7123 -3.7336
  855TIP3    H224125   1.673   1.912   7.968 -0.5555 -0.7640 -0.0086
  856TIP3   OH224126   0.724   0.467   1.475  0.0612  0.0567 -0.4833
  856TIP3    H124127   0.801   0.455   1.531  0.1135 -0.8963 -0.7478
  856TIP3    H224128   0.655   0.418   1.518 -0.4813  1.1017 -0.1234
  857TIP3   OH224129   2.001   0.582   7.991  0.0530  0.5094  0.2837
  857TIP3    H124130   2.003   0.670   8.030 -0.5581  1.4118 -1.6000
  857TIP3    H224131   1.908   0.559   7.990  0.3328 -0.9634  2.3526
  858TIP3   OH224132   1.668   0.242   0.748 -0.3010  0.3867  0.4836
  858TIP3    H124133   1.706   0.324   0.717 -0.2108 -0.4574 -1.8191
  858TIP3    H224134   1.715   0.223   0.829  2.2251  0.8212 -0.7772
  859TIP3   OH224135   6.006   0.304   1.178 -0.2317  0.5738 -0.2694
  859TIP3    H124136   5.935   0.258   1.222 -0.2875  0.8539 -0.0646
  859TIP3    H224137   6.030   0.374   1.238  0.8103 -0.0495  0.0658
  860TIP3   OH224138   0.854   3.612   1.957  0.0744  0.1378 -0.0477
  860TIP3    H124139   0.835   3.681   2.020 -1.6585 -1.9300  1.8547
  860TIP3    H224140   0.775   3.607   1.902  0.1344 -0.3817 -0.0954
  861TIP3   OH224141   2.802   4.114   1.016 -0.1261  0.1455  0.0515
  861TIP3    H124142   2.792   4.184   1.081  2.0834 -0.0063  0.6111
  861TIP3    H224143   2.810   4.034   1.068  0.7572 -0.0902 -0.4324
  862TIP3   OH224144   2.497   0.126   1.638 -0.3961 -0.0687  0.8338
  862TIP3    H124145   2.438   0.163   1.573  1.8066 -0.3514 -1.4943
  862TIP3    H224146   2.535   0.050   1.595  1.4011 -0.0877  2.3265
  863TIP3   OH224147   6.708   4.944   0.117  0.0377 -0.2947 -0.1631
  863TIP3    H124148   6.700   5.036   0.090 -1.8248  0.3668  2.2171
  863TIP3    H224149   6.757   4.947   0.199  0.5591 -1.5355 -0.4042
  864TIP3   OH224150   4.338   0.335   8.100 -0.7247  0.1532 -0.4119
  864TIP3    H124151   4.272   0.386   8.147 -0.4047 -0.5473  0.8463
  864TIP3    H224152   4.378   0.280   8.167  0.5106 -0.1039 -1.3169
  865TIP3   OH224153   5.113   6.617   2.064 -0.1783 -0.4585 -0.9310
  865TIP3    H124154   5.156   6.558   2.002 -1.2016 -1.2929 -0.8759
  865TIP3    H224155   5.069   6.559   2.126  1.2493  0.3359  0.9402
  866TIP3   OH224156   6.772   3.141   1.007 -0.1785  0.8009  0.0588
  866TIP3    H124157   6.798   3.051   1.027 -1.1074  0.9731  2.3035
  866TIP3    H224158   6.729   3.136   0.921 -0.9468 -1.0478  0.5199
  867TIP3   OH224159   5.896   6.439   0.911 -0.0537  0.5954 -0.0418
  867TIP3    H124160   5.846   6.489   0.976 -0.1297  0.2056  0.1986
  867TIP3    H224161   5.876   6.482   0.827 -0.7711  0.4611  0.0551
  868TIP3   OH224162   0.212   4.433   1.272  0.6357 -0.3418  0.1731
  868TIP3    H124163   0.220   4.489   1.350 -0.0839  1.1930 -0.8002
  868TIP3    H224164   0.279   4.365   1.285  3.1795  1.9946  0.3920
  869TIP3   OH224165   5.436   0.841   2.762 -0.0032 -0.5475 -0.6787
  869TIP3    H124166   5.501   0.770   2.768 -1.4530 -1.8727 -0.0316
  869TIP3    H224167   5.358   0.805   2.804 -0.9636  1.2520 -0.8595
  870TIP3   OH224168   2.571   3.624   6.970 -0.3060  0.0494 -0.4228
  870TIP3    H124169   2.625   3.548   6.950 -0.7389 -0.3722 -0.0226
  870TIP3    H224170   2.485   3.603   6.935 -0.9486 -0.4993  1.3686
  871TIP3   OH224171   0.878   2.472   6.820 -0.1426 -0.0852  0.1317
  871TIP3    H124172   0.882   2.398   6.881 -2.1236  0.5114  1.0661
  871TIP3    H224173   0.821   2.442   6.750  0.4625 -0.0459 -0.3796
  872TIP3   OH224174   6.259   2.318   7.886  0.2152 -0.9195  0.0651
  872TIP3    H124175   6.192   2.318   7.817  0.7034 -0.9418 -0.4157
  872TIP3    H224176   6.264   2.409   7.914  1.1916 -0.5898 -1.1042
  873TIP3   OH224177   1.285   6.184   8.348 -0.6601  0.6138  0.1022
  873TIP3    H124178   1.282   6.201   8.254  1.2739  1.2075  0.1174
  873TIP3    H224179   1.217   6.118   8.363 -0.6369  0.1215 -1.7847
  874TIP3   OH224180   0.119   4.696   8.330 -0.1227  0.9330  0.0441
  874TIP3    H124181   0.033   4.721   8.364  0.3827  2.7959  0.1021
  874TIP3    H224182   0.103   4.616   8.280 -1.7590  0.8786  0.5933
  875TIP3   OH224183   0.270   3.741   0.121 -0.7727 -0.3470 -0.1868
  875TIP3    H124184   0.177   3.734   0.100 -0.8816  1.1604 -0.3255
  875TIP3    H224185   0.284   3.834   0.136  0.5895 -0.6292  0.4671
  876TIP3   OH224186   1.460   2.640   0.222  0.7097  0.3240  0.1249
  876TIP3    H124187   1.370   2.653   0.191 -0.3891  0.5619  3.0972
  876TIP3    H224188   1.514   2.654   0.145 -1.8113 -0.1575 -1.8549
  877TIP3   OH224189   5.254   0.783   1.263 -0.7257 -0.3500  0.2729
  877TIP3    H124190   5.244   0.700   1.310 -3.2039 -0.0125  0.4415
  877TIP3    H224191   5.202   0.846   1.313 -1.3172  0.6293 -1.4973
  878TIP3   OH224192   3.175   1.271   1.390 -0.4533  0.3783  0.4627
  878TIP3    H124193   3.145   1.193   1.437  1.7237  0.2766  1.8066
  878TIP3    H224194   3.147   1.344   1.446 -0.3724  0.4253  0.4411
  879TIP3   OH224195   5.704   2.234   0.048 -0.2380 -0.4935  0.5820
  879TIP3    H124196   5.654   2.271  -0.025  1.7219  1.4584  0.1343
  879TIP3    H224197   5.776   2.186   0.005 -0.7898 -1.9849  1.2373
  880TIP3   OH224198   0.904   0.020   6.742 -0.0976 -0.0756 -0.6215
  880TIP3    H124199   0.886  -0.015   6.829 -0.3839 -1.3870 -1.1792
  880TIP3    H224200   0.837   0.087   6.728 -1.1919 -1.1281 -0.5386
  881TIP3   OH224201   5.082   1.041   8.150  0.3527  0.3526  0.4591
  881TIP3    H124202   5.122   1.095   8.083 -0.9440  0.3703 -0.3250
  881TIP3    H224203   5.011   1.094   8.186 -0.9482 -0.7853 -0.3293
  882TIP3   OH224204   5.465   0.570   6.674 -0.2111  0.2055  0.0284
  882TIP3    H124205   5.452   0.651   6.724  1.3195  0.3532  0.2243
  882TIP3    H224206   5.560   0.562   6.664 -0.4042 -0.4901 -1.7731
  883TIP3   OH224207   2.622   4.649   1.538  0.1668 -0.1162  0.1338
  883TIP3    H124208   2.625   4.597   1.618 -3.0648 -1.0012 -0.1906
  883TIP3    H224209   2.711   4.683   1.528  1.3718 -2.2405  2.5563
  884TIP3   OH224210   5.015   2.382   7.824 -0.4881 -0.3675 -0.0134
  884TIP3    H124211   4.924   2.360   7.805 -0.7150  0.4670  0.0747
  884TIP3    H224212   5.041   2.321   7.893 -0.6890 -1.2106 -0.6717
  885TIP3   OH224213   2.111   2.409   1.331 -0.2703  0.5186  0.4774
  885TIP3    H124214   2.188   2.419   1.386  0.1617  0.9574 -0.1856
  885TIP3    H224215   2.055   2.483   1.353  0.9686  2.0738 -1.3244
  886TIP3   OH224216   5.672   3.697   0.702 -0.4478  1.3316  0.1413
  886TIP3    H124217   5.749   3.643   0.717 -1.3216 -1.0225 -2.9056
  886TIP3    H224218   5.703   3.768   0.646 -0.5249  0.0319 -1.6173
  887TIP3   OH224219   5.509   0.535   0.328  0.1265 -0.6444  0.0830
  887TIP3    H124220   5.558   0.568   0.253  1.0404 -2.7788 -0.3438
  887TIP3    H224221   5.525   0.599   0.397  1.5588 -0.0550 -0.7544
  888TIP3   OH224222   4.890   1.120   0.891 -0.2147  0.5617 -0.2203
  888TIP3    H124223   4.827   1.139   0.960 -0.4552 -1.9137  0.3582
  888TIP3    H224224   4.838   1.115   0.811 -1.2642 -3.1618  0.4894
  889TIP3   OH224225   5.930   6.007   1.921 -0.2154 -0.2691  0.3210
  889TIP3    H124226   5.997   6.059   1.965 -1.5967  2.3779 -0.4980
  889TIP3    H224227   5.906   5.939   1.985 -0.4010  1.8945  2.7021
  890TIP3   OH224228   2.819   0.743   7.356  0.0837 -0.1013 -0.3899
  890TIP3    H124229   2.779   0.789   7.430 -0.7091 -0.7674 -0.3976
  890TIP3    H224230   2.823   0.809   7.286  0.4133  0.3995  0.0927
  891TIP3   OH224231   3.059   4.582   1.238 -0.7229 -0.1256  0.1457
  891TIP3    H124232   2.976   4.536   1.251 -0.4456 -1.2510 -1.7606
  891TIP3    H224233   3.112   4.557   1.313 -1.8358  0.0658  1.0352
  892TIP3   OH224234   5.933   4.039   6.467  0.7336 -0.4269 -0.0792
  892TIP3    H124235   5.997   3.978   6.503 -0.4171 -2.2210 -0.9069
  892TIP3    H224236   5.897   4.084   6.544  1.7571 -0.6107  0.5312
  893TIP3   OH224237   3.526   4.692   1.086  0.2555 -0.3489 -0.1114
  893TIP3    H124238   3.552   4.664   0.998  1.7916  0.0089  0.2016
  893TIP3    H224239   3.475   4.618   1.120  2.4053 -1.9234 -0.1097
  894TIP3   OH224240   1.599   1.320   7.252  0.0047 -0.2979  0.2689
  894TIP3    H124241   1.667   1.345   7.315 -0.1809 -0.1940  0.4279
  894TIP3    H224242   1.612   1.226   7.238 -0.1511 -0.3862  0.6985
  895TIP3   OH224243   0.816   5.495   0.975  0.2856  0.8558 -0.4633
  895TIP3    H124244   0.829   5.410   1.017 -1.4492  0.5392 -0.4745
  895TIP3    H224245   0.721   5.503   0.966  0.4802  2.1334 -1.8427
  896TIP3   OH224246   1.767   0.838   7.710 -0.0173 -0.0480  0.2596
  896TIP3    H124247   1.677   0.819   7.737 -0.2201  0.5382  0.0239
  896TIP3    H224248   1.803   0.754   7.683  0.0080 -0.5566  1.8108
  897TIP3   OH224249   5.364   0.250   0.562 -0.1576 -0.5672  0.8321
  897TIP3    H124250   5.397   0.173   0.609 -1.7901 -0.9339  1.4768
  897TIP3    H224251   5.336   0.216   0.477 -0.0397 -0.5059  0.7686
  898TIP3   OH224252   4.375   6.401   0.955  0.7849 -0.6342  0.2135
  898TIP3    H124253   4.285   6.433   0.949  1.2334  0.6931  0.1227
  898TIP3    H224254   4.372   6.311   0.921 -0.3702 -0.3473 -0.4780
  899TIP3   OH224255   4.333   5.841   0.355  0.4571 -0.4159 -0.0603
  899TIP3    H124256   4.263   5.783   0.386 -2.6558  2.6125 -0.8442
  899TIP3    H224257   4.398   5.782   0.317 -2.1873 -3.4289 -0.3163
  900TIP3   OH224258   1.279   6.680   0.776  0.0003 -0.0903 -0.5877
  900TIP3    H124259   1.264   6.668   0.683  3.4630 -0.4526 -1.2144
  900TIP3    H224260   1.316   6.597   0.806 -0.8441  0.0831  1.0986
  901TIP3   OH224261   6.245   0.334   0.418 -0.2742 -0.1933  0.5968
  901TIP3    H124262   6.337   0.311   0.406  0.0004  1.5123 -1.2002
  901TIP3    H224263   6.243   0.383   0.500  1.0728  2.3610 -0.7471
  902TIP3   OH224264   6.793   5.857   7.713 -0.3608 -0.2571  0.0515
  902TIP3    H124265   6.718   5.809   7.746 -0.8334 -0.8411 -1.7733
  902TIP3    H224266   6.755   5.935   7.671 -0.0433 -0.8115 -1.3335
  903TIP3   OH224267   0.401   5.342   7.734  0.7257  1.0495 -0.4206
  903TIP3    H124268   0.345   5.269   7.707  1.7377  0.0447  0.1223
  903TIP3    H224269   0.465   5.351   7.663  1.2052  0.7439 -0.0375
  904TIP3   OH224270   6.175   1.316   2.129  0.6528  0.0122 -0.5435
  904TIP3    H124271   6.105   1.378   2.147 -0.9114 -1.3148 -1.6999
  904TIP3    H224272   6.219   1.350   2.051  1.5825  1.0462  0.4046
  905TIP3   OH224273   4.982   0.139   7.719 -0.0098 -0.2927 -0.6741
  905TIP3    H124274   5.066   0.130   7.674  0.0322  0.9793 -0.8973
  905TIP3    H224275   4.961   0.051   7.749  1.9514 -0.4761  0.3447
  906TIP3   OH224276   0.318   1.063   8.313  0.0839 -0.3758  0.4973
  906TIP3    H124277   0.374   1.054   8.236 -0.0911 -1.8039  0.4931
  906TIP3    H224278   0.378   1.080   8.385  0.4168 -0.7310  0.3058
  907TIP3   OH224279   4.487   4.250   2.531 -0.4047  0.0640 -1.1013
  907TIP3    H124280   4.405   4.299   2.522 -0.0996  1.4898  2.4787
  907TIP3    H224281   4.555   4.311   2.502 -0.2842  0.6914  0.4172
  908TIP3   OH224282   0.760   2.929   8.502  0.0714  0.5807  0.6403
  908TIP3    H124283   0.782   3.017   8.534 -1.9075  1.4288 -0.1563
  908TIP3    H224284   0.787   2.929   8.410  2.7213 -0.7184  1.3132
  909TIP3   OH224285   4.342   6.032   1.229 -0.2456 -0.8581 -0.0852
  909TIP3    H124286   4.353   6.012   1.136 -0.4750 -3.1595  0.2984
  909TIP3    H224287   4.424   6.003   1.270 -0.5179 -0.7745  0.5327
  910TIP3   OH224288   3.030   2.923   6.952  0.2783 -0.1059  0.0584
  910TIP3    H124289   3.106   2.959   6.998  0.7190 -0.0964 -0.6714
  910TIP3    H224290   2.961   2.989   6.963 -0.3911 -1.1254  2.7219
  911TIP3   OH224291   3.674   3.090   7.309  0.1126  0.1751  0.3017
  911TIP3    H124292   3.764   3.098   7.278  0.1929  0.1114  0.5136
  911TIP3    H224293   3.656   2.996   7.303  0.4607  0.0267  1.3485
  912TIP3   OH224294   2.769   5.203   8.257 -0.6039  0.3039 -0.6380
  912TIP3    H124295   2.821   5.142   8.205 -0.5556  0.5397 -0.8676
  912TIP3    H224296   2.714   5.147   8.312  0.3442  0.0488  0.0672
  913TIP3   OH224297   5.745   4.979   8.233  0.1667 -0.0245  0.0464
  913TIP3    H124298   5.742   4.884   8.235  0.8424 -0.0697  2.4852
  913TIP3    H224299   5.838   5.000   8.222  0.2663  0.2899  1.2937
  914TIP3   OH224300   3.244   4.899   7.361 -0.4192 -0.5898  0.0440
  914TIP3    H124301   3.312   4.911   7.296 -0.3542  0.0622  0.2288
  914TIP3    H224302   3.188   4.830   7.325 -0.3490 -0.2788 -0.6708
  915TIP3   OH224303   6.307   1.002   8.428  0.0738  0.2475  0.4220
  915TIP3    H124304   6.332   0.932   8.489  1.8451  1.5666  1.3005
  915TIP3    H224305   6.247   1.057   8.478  0.5682  0.6614  0.5633
  916TIP3   OH224306   0.085   1.842   8.129 -0.0583 -0.5643 -0.4276
  916TIP3    H124307   0.045   1.756   8.143  1.3634 -1.2545 -0.3371
  916TIP3    H224308   0.107   1.873   8.217  0.8611 -0.8547 -0.5383
  917TIP3   OH224309   2.035   4.184   2.420  0.2693  0.2382  0.2305
  917TIP3    H124310   1.973   4.186   2.347  0.8523  2.6232 -0.2710
  917TIP3    H224311   2.085   4.265   2.411  1.8842 -0.5037  1.9886
  918TIP3   OH224312   2.811   2.453   7.893  0.1925 -0.2809 -0.2958
  918TIP3    H124313   2.875   2.462   7.963 -0.8579  0.4417  0.5944
  918TIP3    H224314   2.794   2.359   7.888 -1.9767 -0.1823  2.5856
  919TIP3   OH224315   5.547   1.806   0.983 -0.6662 -0.3752  0.0475
  919TIP3    H124316   5.516   1.895   1.001 -0.9341 -0.3987 -0.2838
  919TIP3    H224317   5.642   1.813   0.985 -0.6860 -0.0732  0.0013
  920TIP3   OH224318   6.313   6.780   1.881  0.2325 -0.0754  0.1159
  920TIP3    H124319   6.400   6.750   1.908 -0.1951 -0.6827  0.8555
  920TIP3    H224320   6.258   6.702   1.890 -0.1602 -0.0166 -1.4861
  921TIP3   OH224321   4.322   2.514   8.195  0.5297  0.2691 -0.0617
  921TIP3    H124322   4.377   2.464   8.135  0.6491  1.5752 -1.0870
  921TIP3    H224323   4.384   2.568   8.245  0.4007 -0.5193  0.9811
  922TIP3   OH224324   4.080   5.783   6.879 -0.0430  0.4022  0.1843
  922TIP3    H124325   4.148   5.758   6.817 -1.0003 -0.6100 -0.5047
  922TIP3    H224326   4.031   5.852   6.834  0.1574  0.7140  0.4379
  923TIP3   OH224327   5.472   6.673   0.897 -0.2821  0.1884 -0.2619
  923TIP3    H124328   5.523   6.712   0.967 -1.5329 -0.0083  0.8016
  923TIP3    H224329   5.480   6.578   0.911  0.1809  0.1243 -0.9270
  924TIP3   OH224330   1.997   5.825   0.111 -0.1058 -0.4841 -0.1656
  924TIP3    H124331   1.932   5.874   0.062  1.0236  1.2045 -0.0572
  924TIP3    H224332   2.076   5.828   0.057  0.8439  0.4664  1.2137
  925TIP3   OH224333   0.077   2.751   1.289 -0.3291 -0.3779  0.4100
  925TIP3    H124334   0.131   2.754   1.368 -1.3353  1.9372  1.0946
  925TIP3    H224335  -0.012   2.737   1.321 -0.7080  0.2746 -0.3299
  926TIP3   OH224336   0.154   5.758   1.526  0.0743 -0.4141 -0.0862
  926TIP3    H124337   0.203   5.703   1.464  0.7273 -1.0442  0.9379
  926TIP3    H224338   0.130   5.697   1.596  0.7902  0.6045  1.0662
  927TIP3   OH224339   1.284   4.531   6.494  0.3456  0.3533  0.4555
  927TIP3    H124340   1.363   4.535   6.440 -0.5846 -1.7619 -1.2208
  927TIP3    H224341   1.223   4.593   6.452 -0.0615 -0.6189 -0.4307
  928TIP3   OH224342   2.697   2.195   7.950  0.1418 -0.1266 -0.1897
  928TIP3    H124343   2.695   2.197   8.045 -0.1904  0.3615 -0.2068
  928TIP3    H224344   2.736   2.110   7.929  0.6602 -0.0382  0.3835
  929TIP3   OH224345   6.811   5.157   1.861  0.0169  0.3130  0.2597
  929TIP3    H124346   6.782   5.140   1.771  1.8725  1.0538 -0.5083
  929TIP3    H224347   6.739   5.208   1.899 -0.0826  1.4557 -1.3392
  930TIP3   OH224348   0.885   0.006   7.622 -0.2724  0.6226  0.0696
  930TIP3    H124349   0.882   0.046   7.535  0.5282 -4.1446 -2.5216
  930TIP3    H224350   0.802  -0.041   7.630  1.3330 -2.5155 -0.2354
  931TIP3   OH224351   6.811   1.452   7.872 -0.0736  0.6113 -0.3362
  931TIP3    H124352   6.906   1.463   7.870 -0.0537  0.4083 -1.4550
  931TIP3    H224353   6.790   1.438   7.964  1.0890 -0.2639 -0.1852
  932TIP3   OH224354   1.856   0.517   8.383 -0.6838 -0.0613  0.1441
  932TIP3    H124355   1.806   0.542   8.460 -0.0790  1.1526  0.1661
  932TIP3    H224356   1.911   0.444   8.412 -1.9803 -1.0142  0.2687
  933TIP3   OH224357   2.694   0.755   1.464  0.3495  0.2084 -0.3732
  933TIP3    H124358   2.723   0.808   1.538 -0.6661  1.5754 -0.9190
  933TIP3    H224359   2.653   0.678   1.504  0.4313  0.5888  0.4604
  934TIP3   OH224360   6.410   0.264   7.734 -0.5589 -0.4351  0.1146
  934TIP3    H124361   6.372   0.352   7.730 -1.4704 -0.8541 -1.2950
  934TIP3    H224362   6.491   0.270   7.684  0.7326  0.1847  2.1734
  935TIP3   OH224363   1.168   3.612   7.456  0.3332  0.0938  0.0780
  935TIP3    H124364   1.233   3.681   7.469  1.4251 -1.0126  0.6568
  935TIP3    H224365   1.087   3.659   7.438  1.8089  1.6022 -3.8171
  936TIP3   OH224366   3.710   3.833   1.229  0.9150 -0.2339  0.2801
  936TIP3    H124367   3.632   3.888   1.233  0.8652 -0.2426 -0.4464
  936TIP3    H224368   3.764   3.861   1.303 -0.1693 -0.8324  1.3306
  937TIP3   OH224369   2.839   4.110   0.413 -0.6778 -0.1869 -0.0128
  937TIP3    H124370   2.847   4.171   0.487  1.8768 -2.1559  1.4708
  937TIP3    H224371   2.760   4.059   0.433 -0.0117 -0.7031  1.4260
  938TIP3   OH224372   1.670   2.157   1.100  0.5067 -0.1767 -0.5116
  938TIP3    H124373   1.597   2.217   1.117 -0.0149 -0.9524  0.0565
  938TIP3    H224374   1.747   2.214   1.094 -0.1327  0.6604 -1.1438
  939TIP3   OH224375   2.105   6.122   7.125  0.2037  0.4949 -0.5779
  939TIP3    H124376   2.136   6.209   7.152 -0.5903  1.4913 -2.6562
  939TIP3    H224377   2.031   6.104   7.183  0.2383  1.3169 -0.2661
  940TIP3   OH224378   4.761   3.691   8.554 -0.1328  0.0606 -0.3707
  940TIP3    H124379   4.754   3.779   8.591 -0.2485  1.2811 -3.1001
  940TIP3    H224380   4.829   3.698   8.488  1.0704 -2.3879  0.4749
  941TIP3   OH224381   2.980   4.253   6.012  0.2108 -0.6185 -0.0271
  941TIP3    H124382   2.887   4.264   5.993  0.5489  0.5694 -1.0922
  941TIP3    H224383   2.997   4.160   5.993 -1.1706 -1.4018  2.2142
  942TIP3   OH224384   3.079   5.227   0.314 -0.0731 -0.3115  0.0929
  942TIP3    H124385   3.128   5.197   0.238 -0.3897 -0.5366 -0.0259
  942TIP3    H224386   3.058   5.318   0.295 -1.5257 -0.8130 -0.8176
  943TIP3   OH224387   3.624   1.144   0.274 -0.1949  0.3256  0.4478
  943TIP3    H124388   3.629   1.167   0.367 -1.1666 -0.2452  0.6522
  943TIP3    H224389   3.538   1.103   0.264 -0.0204  0.2055 -0.6679
  944TIP3   OH224390   1.716   2.203   8.534  0.5672 -0.5285 -0.4825
  944TIP3    H124391   1.647   2.159   8.584  0.4522  0.8951  0.6772
  944TIP3    H224392   1.772   2.242   8.601  2.8444 -2.0712 -1.3781
  945TIP3   OH224393   6.783   4.937   6.821 -0.2956  0.6394  0.6041
  945TIP3    H124394   6.691   4.963   6.823 -0.0224  1.5761  1.4968
  945TIP3    H224395   6.784   4.856   6.769 -1.6219  0.5920  0.6335
  946TIP3   OH224396   6.017   5.656   1.486  0.2857  0.4255 -0.4252
  946TIP3    H124397   6.063   5.600   1.423  1.7712  0.5721  0.4732
  946TIP3    H224398   6.083   5.719   1.513 -0.1887  0.1362  1.5510
  947TIP3   OH224399   5.302   1.380   0.144  0.0674  0.5620  0.1035
  947TIP3    H124400   5.269   1.449   0.202 -0.2283  0.6186 -0.1305
  947TIP3    H224401   5.317   1.425   0.060 -1.0831  0.1410 -0.3490
  948TIP3   OH224402   3.779   2.916   0.482 -0.4108 -0.2617  0.0606
  948TIP3    H124403   3.778   2.942   0.390 -1.6019  0.0580  0.1485
  948TIP3    H224404   3.849   2.967   0.521 -1.2115  1.1307 -0.2649
  949TIP3   OH224405   6.584   0.994   0.761  0.1036 -0.3345  0.2131
  949TIP3    H124406   6.570   0.944   0.680  1.7270 -2.6108  1.2614
  949TIP3    H224407   6.517   0.961   0.821  0.5634 -0.5367  0.6118
  950TIP3   OH224408   3.776   4.851   7.158  0.1433  0.1091  0.3410
  950TIP3    H124409   3.712   4.797   7.112  1.8857 -2.0301  0.2742
  950TIP3    H224410   3.727   4.885   7.233 -1.5028 -0.1105 -0.5760
  951TIP3   OH224411   3.755   6.009   8.467  0.3236 -0.0643  0.3753
  951TIP3    H124412   3.729   5.922   8.500 -0.7453 -0.3138 -1.0617
  951TIP3    H224413   3.847   6.016   8.491 -0.1301 -0.6333  2.5116
  952TIP3   OH224414   5.742   0.532   6.697  0.1211  0.7476 -0.4478
  952TIP3    H124415   5.721   0.446   6.733  0.4648  0.4875 -0.8597
  952TIP3    H224416   5.804   0.514   6.627 -1.1639  1.1565 -1.7477
  953TIP3   OH224417   5.601   4.763   2.918  0.0793  0.4622  0.5834
  953TIP3    H124418   5.533   4.764   2.850  0.0981  0.2743  0.5614
  953TIP3    H224419   5.618   4.856   2.936  2.4320  0.6558 -2.0113
  954TIP3   OH224420   4.534   4.501   0.747  0.4506  0.2271  0.3432
  954TIP3    H124421   4.469   4.496   0.817  0.1449 -1.2846 -0.0145
  954TIP3    H224422   4.547   4.410   0.720  0.8939  0.7358 -1.2603
  955TIP3   OH224423   2.246   5.072   1.646  0.2585  0.2253  0.3169
  955TIP3    H124424   2.315   5.037   1.701  0.0224  0.8103  0.9926
  955TIP3    H224425   2.289   5.093   1.563  0.5691 -0.8723  0.1830
  956TIP3   OH224426   5.533   0.599   1.672  0.0146  0.1032 -0.5883
  956TIP3    H124427   5.481   0.663   1.623  0.6364  2.4639  1.6126
  956TIP3    H224428   5.619   0.641   1.682  1.3176 -2.2165 -1.1647
  957TIP3   OH224429   0.173   2.536   7.769 -0.3761  0.0682 -0.1134
  957TIP3    H124430   0.204   2.460   7.818 -2.4281  0.0769  1.3081
  957TIP3    H224431   0.109   2.499   7.707 -1.0904  0.5679  0.3140
  958TIP3   OH224432   0.920   3.827   2.129  0.0787 -0.2537  0.7865
  958TIP3    H124433   0.984   3.893   2.152  0.0232 -0.1387  0.6111
  958TIP3    H224434   0.837   3.874   2.124  0.0266 -0.3503  0.7329
  959TIP3   OH224435   6.315   0.532   1.846 -0.1525 -0.5923 -0.3909
  959TIP3    H124436   6.351   0.449   1.816 -0.2086 -0.7625  0.0105
  959TIP3    H224437   6.264   0.565   1.771  0.4188 -0.5882 -0.7887
  960TIP3   OH224438   4.791   4.527   2.141 -0.8858 -0.4020  0.3091
  960TIP3    H124439   4.753   4.583   2.073 -1.7575 -1.1180  0.1930
  960TIP3    H224440   4.798   4.583   2.218  2.1852  1.1271 -0.8850
  961TIP3   OH224441   5.676   5.752   7.111 -0.3841  0.1562 -0.5524
  961TIP3    H124442   5.696   5.734   7.019  0.2733  0.1270 -0.4137
  961TIP3    H224443   5.733   5.692   7.160 -1.4174 -0.5024 -0.1310
  962TIP3   OH224444   5.215   5.699   6.859 -0.2607 -0.7813  0.1592
  962TIP3    H124445   5.207   5.765   6.928  0.0850 -0.4195 -0.1455
  962TIP3    H224446   5.125   5.674   6.840 -0.4685  0.3078 -0.3944
  963TIP3   OH224447   1.015   1.604   1.330 -0.0029 -0.7979 -0.0782
  963TIP3    H124448   1.090   1.545   1.330  0.5583 -0.1458  1.4710
  963TIP3    H224449   0.992   1.615   1.238  2.2005 -0.5325 -0.6333
  964TIP3   OH224450   1.899   4.059   8.384 -0.4299  0.6142  0.0318
  964TIP3    H124451   1.991   4.062   8.360 -0.6097 -1.6423 -1.2047
  964TIP3    H224452   1.853   4.040   8.302 -1.9057  0.9056  0.7550
  965TIP3   OH224453   4.270   4.970   0.774 -0.4383 -0.4758  0.6369
  965TIP3    H124454   4.341   5.005   0.720 -3.1705  0.7593 -2.5253
  965TIP3    H224455   4.207   5.042   0.781 -0.9547 -1.0974  4.3932
  966TIP3   OH224456   2.158   6.805   1.179 -0.0030 -0.6151  0.0931
  966TIP3    H124457   2.248   6.834   1.172  0.3704 -1.3504  1.4729
  966TIP3    H224458   2.148   6.741   1.109  0.4262 -0.2600 -0.2971
  967TIP3   OH224459   4.636   6.259   7.505  0.3065  0.2026  0.4983
  967TIP3    H124460   4.619   6.235   7.596 -0.5406  0.0804  0.3187
  967TIP3    H224461   4.552   6.292   7.473 -0.0760 -1.9353 -0.9302
  968TIP3   OH224462   5.340   4.694   6.538 -0.5006 -0.2918 -0.4809
  968TIP3    H124463   5.308   4.783   6.522 -3.3490 -1.5160 -2.2144
  968TIP3    H224464   5.403   4.679   6.467 -0.8038 -0.0418 -0.8043
  969TIP3   OH224465   2.657   4.802   0.841 -0.5355  0.4212 -0.4812
  969TIP3    H124466   2.741   4.801   0.887  0.0693 -1.4307 -1.5230
  969TIP3    H224467   2.591   4.806   0.911  0.3850  1.4037  0.3645
  970TIP3   OH224468   4.306   5.021   6.488 -0.2076 -0.6973 -0.1021
  970TIP3    H124469   4.255   4.986   6.415 -1.3924 -0.9207  0.7997
  970TIP3    H224470   4.264   5.104   6.509 -0.5985 -1.1641  1.0424
  971TIP3   OH224471   5.465   0.225   8.486 -0.2238  0.1744  0.1980
  971TIP3    H124472   5.377   0.260   8.498 -0.8892 -0.9426 -1.1902
  971TIP3    H224473   5.472   0.155   8.551 -0.6663 -0.2551 -0.2070
  972TIP3   OH224474   1.354   2.525   7.016 -0.0981  0.3950  0.9258
  972TIP3    H124475   1.276   2.560   7.059  0.3043  1.7140  0.6424
  972TIP3    H224476   1.415   2.509   7.087 -0.2666  0.3125  1.0537
  973TIP3   OH224477   4.050   3.554   0.863  0.1127  0.5081 -0.0079
  973TIP3    H124478   3.983   3.611   0.826 -0.5096 -1.5713 -2.3272
  973TIP3    H224479   4.009   3.516   0.941 -1.9417 -1.4723 -1.9062
  974TIP3   OH224480   4.788   5.627   1.888  0.6126  0.2535  0.2196
  974TIP3    H124481   4.796   5.677   1.807 -3.5395  1.6986  0.4760
  974TIP3    H224482   4.735   5.551   1.865  3.5831 -2.1672  0.6962
  975TIP3   OH224483   2.197   5.873   7.207 -0.3216 -0.4705  0.6124
  975TIP3    H124484   2.179   5.967   7.197  1.2134 -0.1907  0.1754
  975TIP3    H224485   2.150   5.832   7.135 -2.5908 -0.2911  1.9025
  976TIP3   OH224486   0.705   4.928   1.672 -0.5692  0.1848  0.2663
  976TIP3    H124487   0.793   4.903   1.643  0.5152  0.0123  3.3522
  976TIP3    H224488   0.713   5.021   1.693 -0.8243 -0.0321  1.3903
  977TIP3   OH224489   5.039   3.398   7.608  0.4324 -0.6676 -0.9710
  977TIP3    H124490   4.965   3.349   7.571  0.4454 -2.2784  0.9329
  977TIP3    H224491   4.998   3.472   7.653 -0.0433 -1.3858 -0.1782
  978TIP3   OH224492   6.165   6.098   2.057 -0.7954 -0.0698 -0.1720
  978TIP3    H124493   6.205   6.145   1.984  1.5223 -1.9495 -0.2537
  978TIP3    H224494   6.149   6.165   2.123 -3.1158  1.7300 -2.3312
  979TIP3   OH224495   2.190   2.091   6.665  0.0155 -0.3675  0.2070
  979TIP3    H124496   2.190   1.995   6.662 -0.7948 -0.4822  2.5814
  979TIP3    H224497   2.257   2.116   6.601  0.4891 -2.5126 -0.2167
  980TIP3   OH224498   3.657   2.173   1.570 -0.3603  0.2796 -0.2247
  980TIP3    H124499   3.633   2.214   1.654  0.1249 -0.2010  0.1568
  980TIP3    H224500   3.587   2.109   1.554  0.4763 -0.9289  0.7491
  981TIP3   OH224501   2.635   0.706   1.800 -0.2957 -0.4792  0.0877
  981TIP3    H124502   2.647   0.675   1.890 -0.8314 -0.5207  0.1454
  981TIP3    H224503   2.697   0.655   1.748 -1.1088 -1.5940  0.1919
  982TIP3   OH224504   4.067   0.344   1.304 -0.6183  0.1209 -0.3192
  982TIP3    H124505   4.109   0.386   1.378  1.0768 -1.7408 -0.1343
  982TIP3    H224506   4.133   0.343   1.235 -0.6447 -1.8995 -0.3902
  983TIP3   OH224507   1.454   4.897   1.052  0.1497 -0.1175 -0.1784
  983TIP3    H124508   1.520   4.861   0.993 -0.6927 -0.3042 -1.0290
  983TIP3    H224509   1.371   4.863   1.019 -0.3300 -0.3550  1.2280
  984TIP3   OH224510   2.942   1.094   7.745  0.1087 -0.0697  0.4500
  984TIP3    H124511   2.924   1.157   7.676 -1.3612  1.1575  1.8802
  984TIP3    H224512   3.027   1.120   7.780  0.7831 -0.5991 -0.7342
  985TIP3   OH224513   4.297   3.474   0.909 -0.0416 -0.8399 -0.1228
  985TIP3    H124514   4.216   3.512   0.876 -0.4056  2.6180  3.8990
  985TIP3    H224515   4.270   3.412   0.976  0.6037 -0.5186  0.4510
  986TIP3   OH224516   0.453   6.006   7.912 -0.1290 -0.5518  0.1351
  986TIP3    H124517   0.364   6.038   7.925  0.3683  0.4864  1.0579
  986TIP3    H224518   0.502   6.035   7.989  1.3486  0.1305 -0.9995
  987TIP3   OH224519   2.116   2.307   7.873  0.5244 -0.4809 -0.2259
  987TIP3    H124520   2.139   2.397   7.898  0.5980 -0.4878 -0.2705
  987TIP3    H224521   2.158   2.252   7.939 -0.0059 -0.4530  0.1456
  988TIP3   OH224522   5.214   3.933   0.328  0.2547  0.5151  0.2013
  988TIP3    H124523   5.244   3.885   0.251 -0.2145 -0.6336  0.7110
  988TIP3    H224524   5.191   4.020   0.295  1.1930  0.4188 -0.7267
  989TIP3   OH224525   4.616   1.288   2.453  0.1859 -0.0530  0.3893
  989TIP3    H124526   4.593   1.206   2.409 -0.2110  0.2553  0.0194
  989TIP3    H224527   4.565   1.286   2.535 -1.5730  0.8253 -0.6196
  990TIP3   OH224528   5.247   6.138   8.229  0.4001 -0.0109 -0.3603
  990TIP3    H124529   5.314   6.206   8.234 -1.5179  2.0045 -0.1112
  990TIP3    H224530   5.291   6.058   8.256  2.4372  1.3953  0.7251
  991TIP3   OH224531   4.142   2.004   7.419 -0.2139  0.3775  0.0444
  991TIP3    H124532   4.124   1.953   7.499  1.2703  1.2031  0.9433
  991TIP3    H224533   4.237   2.008   7.414 -0.2974  1.7657 -0.8637
  992TIP3   OH224534   4.465   0.851   8.390 -0.1265 -0.0724 -0.4998
  992TIP3    H124535   4.518   0.798   8.330 -0.1654 -2.0972  1.1653
  992TIP3    H224536   4.500   0.832   8.477 -2.0097  0.4461  0.4193
  993TIP3   OH224537   2.238   1.535   2.261  0.1318  0.7386 -0.0215
  993TIP3    H124538   2.154   1.578   2.275 -0.9529  0.6271 -4.6365
  993TIP3    H224539   2.297   1.606   2.237  0.6398  0.5240  0.5823
  994TIP3   OH224540   2.477   5.058   0.726 -0.1458 -0.0244  0.1584
  994TIP3    H124541   2.537   4.984   0.719  1.4130  1.3359 -2.4532
  994TIP3    H224542   2.532   5.131   0.752 -1.1510  0.7800  0.0910
  995TIP3   OH224543   4.429   3.977   1.566 -0.7679 -0.3669  0.0241
  995TIP3    H124544   4.357   3.925   1.603 -0.4626 -0.5692  0.3400
  995TIP3    H224545   4.473   3.918   1.506 -2.8381  0.7114 -2.7601
  996TIP3   OH224546   0.225   4.869   7.799  0.0731 -0.4345  0.8863
  996TIP3    H124547   0.182   4.864   7.884  1.0563 -1.2332  1.3562
  996TIP3    H224548   0.310   4.908   7.818  0.4544 -0.9804  0.3388
  997TIP3   OH224549   3.366   4.126   6.821 -0.1898 -0.7735 -1.1313
  997TIP3    H124550   3.342   4.033   6.823  0.0121 -0.8247 -1.1512
  997TIP3    H224551   3.286   4.171   6.848 -0.8649 -0.8465 -2.8925
  998TIP3   OH224552   5.589   3.511   8.559 -0.6259 -0.6628  0.6895
  998TIP3    H124553   5.534   3.445   8.516 -0.7490  1.1157 -2.1782
  998TIP3    H224554   5.675   3.501   8.517 -0.4260  0.4526  0.7988
  999TIP3   OH224555   3.944   5.621   2.071 -0.1713 -0.4349 -0.4497
  999TIP3    H124556   4.030   5.588   2.046  0.8961  0.7862  1.3731
  999TIP3    H224557   3.887   5.544   2.068  0.9529 -1.2627 -1.7318
 1000TIP3   OH224558   3.622   2.744   8.239  0.2414  0.3760 -0.1312
 1000TIP3    H124559   3.589   2.654   8.235  0.2912  0.3840 -1.2925
 1000TIP3    H224560   3.552   2.797   8.200 -1.2213  1.3373  3.4275
 1001TIP3   OH224561   2.833   3.141   7.864  0.3383  0.2033  0.0736
 1001TIP3    H124562   2.844   3.214   7.925  0.3776  0.2659 -0.0082
 1001TIP3    H224563   2.914   3.139   7.813  0.5055 -0.1605  0.3541
 1002TIP3   OH224564   4.784   6.278   7.259  0.4280  0.5270  0.4403
 1002TIP3    H124565   4.751   6.308   7.343 -0.3973  1.0374 -0.0498
 1002TIP3    H224566   4.874   6.251   7.276  0.1363  0.2401  1.5606
 1003TIP3   OH224567   6.105   1.004   7.933 -0.1493 -0.4053  0.1059
 1003TIP3    H124568   6.187   0.959   7.913 -0.0365 -0.0411 -0.2640
 1003TIP3    H224569   6.041   0.934   7.944 -0.2304 -0.6400 -1.5746
 1004TIP3   OH224570   1.576   5.291   0.413  0.2824 -0.3832 -0.2370
 1004TIP3    H124571   1.484   5.288   0.386  0.2355 -1.1809  0.0096
 1004TIP3    H224572   1.622   5.239   0.348  0.6065  0.2301 -0.5094
 1005TIP3   OH224573   2.932   6.121   0.623  0.3533  0.4346 -0.1857
 1005TIP3    H124574   2.998   6.107   0.691 -0.6529  0.6953  0.8726
 1005TIP3    H224575   2.970   6.187   0.565  0.9203  0.7401  0.5271
 1006TIP3   OH224576   5.104   3.183   0.073 -0.0020 -0.2371  0.4577
 1006TIP3    H124577   5.013   3.174   0.100 -0.2362  1.8094  0.5168
 1006TIP3    H224578   5.133   3.265   0.113  1.2901  0.1114 -1.0829
 1007TIP3   OH224579   5.507   1.582   0.818 -0.3532  0.0234  0.2243
 1007TIP3    H124580   5.533   1.664   0.860  2.6714 -0.5258 -0.3277
 1007TIP3    H224581   5.432   1.605   0.764  0.9927  2.6969 -0.6752
 1008TIP3   OH224582   6.403   6.730   1.017  0.1572  0.1270 -0.5323
 1008TIP3    H124583   6.308   6.742   1.024  0.1570 -0.4442  0.6286
 1008TIP3    H224584   6.439   6.818   1.028 -0.1771  0.1515  0.4269
 1009TIP3   OH224585   5.210   2.929   2.027 -0.0213 -0.0006  0.3673
 1009TIP3    H124586   5.119   2.898   2.032  0.6062 -1.9112  0.8611
 1009TIP3    H224587   5.231   2.957   2.116 -0.5136  1.7811 -0.0307
 1010TIP3   OH224588   4.052   1.629   8.021 -0.2483 -0.5497  0.2189
 1010TIP3    H124589   4.109   1.684   7.967 -2.1739  0.0860 -1.2935
 1010TIP3    H224590   3.997   1.691   8.068  0.1390 -1.1575  1.5400
 1011TIP3   OH224591   1.947   0.629   7.645 -0.4220 -0.7851  0.1948
 1011TIP3    H124592   1.955   0.541   7.609  2.2994 -0.5136 -0.0440
 1011TIP3    H224593   2.034   0.650   7.679 -0.6455  2.2550 -0.7716
 1012TIP3   OH224594   5.216   0.441   6.614  0.2266  0.0833 -0.5642
 1012TIP3    H124595   5.276   0.514   6.631 -0.1456  0.5421 -1.1972
 1012TIP3    H224596   5.271   0.363   6.625  0.7086  0.4677 -0.1960
 1013TIP3   OH224597   6.577   1.640   0.006 -0.0278  0.7105 -0.5659
 1013TIP3    H124598   6.652   1.634   0.064 -1.3434 -0.2251  1.1216
 1013TIP3    H224599   6.585   1.563  -0.051  0.3074  0.6482 -0.4376
 1014TIP3   OH224600   3.158   4.875   1.195 -0.5635 -0.1943  0.6078
 1014TIP3    H124601   3.184   4.942   1.258  3.0618 -0.2261 -0.5885
 1014TIP3    H224602   3.128   4.802   1.249  1.3829  0.1777  2.3278
 1015TIP3   OH224603   4.027   3.765   0.306 -0.0897 -0.5395  0.2978
 1015TIP3    H124604   4.008   3.729   0.392 -0.9662 -0.0215  0.3298
 1015TIP3    H224605   4.091   3.834   0.322 -0.0638 -0.6105  0.4977
 1016TIP3   OH224606   6.170   2.024   7.647 -0.5960  0.1280 -0.3343
 1016TIP3    H124607   6.086   1.989   7.679 -0.3242 -0.2834 -0.0585
 1016TIP3    H224608   6.227   1.948   7.643  0.2887  0.6738  1.1631
 1017TIP3   OH224609   3.817   2.125   1.934  0.0009  0.3367 -0.2582
 1017TIP3    H124610   3.870   2.066   1.881 -1.0428  1.2022 -2.4223
 1017TIP3    H224611   3.877   2.161   1.999  1.5567 -0.2371 -1.3260
 1018TIP3   OH224612   2.602   5.541   6.711  0.0604 -0.0408 -0.2482
 1018TIP3    H124613   2.634   5.530   6.622  3.6727  0.6486  0.7877
 1018TIP3    H224614   2.563   5.628   6.712 -0.0625 -0.0765 -1.1517
 1019TIP3   OH224615   1.390   3.501   0.195 -0.1252  0.1842 -0.1547
 1019TIP3    H124616   1.384   3.439   0.267 -2.3602 -0.8353 -1.1036
 1019TIP3    H224617   1.453   3.567   0.224  0.3371 -1.1143  1.9674
 1020TIP3   OH224618   1.128   0.343   1.258 -0.2167  0.0563 -0.4184
 1020TIP3    H124619   1.177   0.310   1.182 -0.2148 -1.7747  0.3262
 1020TIP3    H224620   1.046   0.293   1.257 -0.5730  0.6081  0.3308
 1021TIP3   OH224621   3.051   5.643   6.707 -0.2177  0.1479  0.3544
 1021TIP3    H124622   2.973   5.625   6.759  0.3224 -0.0937  1.1046
 1021TIP3    H224623   3.022   5.636   6.616 -0.9611 -0.3755  0.6262
 1022TIP3   OH224624   2.073   2.704   1.290 -0.1965  0.2320 -0.3193
 1022TIP3    H124625   2.160   2.681   1.256 -0.6935 -0.8675 -0.9061
 1022TIP3    H224626   2.076   2.679   1.382  0.5443  1.4728  0.0160
 1023TIP3   OH224627   2.220   0.603   1.592  0.8347  0.0149 -0.2377
 1023TIP3    H124628   2.218   0.513   1.561  1.1484  0.0436 -0.3450
 1023TIP3    H224629   2.128   0.625   1.608  0.8558 -0.7895  1.1714
 1024TIP3   OH224630   4.726   6.784   8.690  0.2855  0.4169  0.0593
 1024TIP3    H124631   4.795   6.718   8.694  1.1363  1.2685 -0.1708
 1024TIP3    H224632   4.696   6.793   8.780  0.9899  0.5609  0.2857
 1025TIP3   OH224633   4.694   2.036   1.297 -0.0041 -0.0078 -0.2639
 1025TIP3    H124634   4.712   2.025   1.390  1.1033 -0.5027 -0.5268
 1025TIP3    H224635   4.710   1.949   1.258  1.6763  0.6916 -1.2369
 1026TIP3   OH224636   0.574   2.845   2.172  0.2021 -0.5345  0.0117
 1026TIP3    H124637   0.657   2.803   2.196 -1.1064 -2.8312  0.7413
 1026TIP3    H224638   0.515   2.773   2.150 -1.3802  1.0751 -1.4076
 1027TIP3   OH224639   2.290   0.523   0.032  0.3902  0.0085  0.0891
 1027TIP3    H124640   2.380   0.542   0.057  0.0129  0.1290  1.4210
 1027TIP3    H224641   2.236   0.577   0.090 -0.5434 -0.1182 -0.6282
 1028TIP3   OH224642   6.523   4.895   2.400  0.1873 -0.2241  0.3032
 1028TIP3    H124643   6.589   4.828   2.384  0.3926  0.0128  0.1613
 1028TIP3    H224644   6.458   4.851   2.456  0.6165 -0.3669  0.6929
 1029TIP3   OH224645   0.232   5.711   7.363 -0.3856  0.0470  0.3741
 1029TIP3    H124646   0.287   5.644   7.405  0.0160  0.1076 -0.0365
 1029TIP3    H224647   0.156   5.663   7.330 -0.8438  0.0457  1.4040
 1030TIP3   OH224648   0.849   0.777   1.812 -0.0630  0.3276 -0.0823
 1030TIP3    H124649   0.893   0.693   1.794  0.7563  0.5619  0.7807
 1030TIP3    H224650   0.891   0.839   1.752  0.4529  0.4459  0.3927
 1031TIP3   OH224651   2.861   3.869   1.115  0.2215  0.5338 -0.1558
 1031TIP3    H124652   2.883   3.777   1.102  0.4093  0.3711  1.1614
 1031TIP3    H224653   2.849   3.878   1.210 -1.1127  1.5684 -0.3802
 1032TIP3   OH224654   5.098   5.823   1.854  0.3623 -0.0578 -0.0165
 1032TIP3    H124655   5.163   5.817   1.784 -0.3445  0.9821 -0.7993
 1032TIP3    H224656   5.015   5.801   1.811  0.0773 -0.5969  0.7865
 1033TIP3   OH224657   5.728   4.730   7.533 -0.4614 -0.0491  0.0012
 1033TIP3    H124658   5.790   4.658   7.519 -1.2439 -0.4736 -1.5673
 1033TIP3    H224659   5.644   4.686   7.545 -0.5731  0.5389  1.5640
 1034TIP3   OH224660   1.537   6.729   8.584  0.3241  0.5269  0.4041
 1034TIP3    H124661   1.457   6.678   8.584 -0.4542  1.6924 -0.1027
 1034TIP3    H224662   1.590   6.691   8.514  0.1520 -0.1525  0.6397
 1035TIP3   OH224663   6.010   1.710   0.142 -0.0501 -0.8510 -0.1764
 1035TIP3    H124664   5.927   1.752   0.163  0.1235 -1.6771  2.6365
 1035TIP3    H224665   5.985   1.628   0.099 -1.0573 -2.6073  3.3157
 1036TIP3   OH224666   0.342   4.815   1.453  0.1229  0.3567 -0.1686
 1036TIP3    H124667   0.293   4.742   1.489 -2.9727  3.1698  1.9030
 1036TIP3    H224668   0.376   4.862   1.530  2.6392  0.8122 -1.4394
 1037TIP3   OH224669   3.767   1.590   8.610  0.0081  0.1604  0.1091
 1037TIP3    H124670   3.793   1.552   8.527  0.0882  1.2837 -0.3962
 1037TIP3    H224671   3.838   1.568   8.670  1.0801  1.2847 -0.7014
 1038TIP3   OH224672   5.289   2.211   1.573  0.4698 -0.0771 -0.3007
 1038TIP3    H124673   5.329   2.287   1.531  0.4933 -0.2729 -0.6298
 1038TIP3    H224674   5.230   2.175   1.507  2.5802 -2.0545 -1.2174
 1039TIP3   OH224675   2.668   1.113   7.835 -0.1827  0.1719  0.0764
 1039TIP3    H124676   2.763   1.105   7.835  0.0415  1.4225 -3.2886
 1039TIP3    H224677   2.651   1.205   7.816 -2.0238 -0.3026 -0.8565
 1040TIP3   OH224678   5.076   3.728   1.021 -0.2887  0.0465 -0.0192
 1040TIP3    H124679   5.158   3.774   1.005 -1.1983  1.1409 -1.7653
 1040TIP3    H224680   5.088   3.642   0.979  0.1729 -0.0321  0.2691
 1041TIP3   OH224681   5.758   0.096   1.942  0.1998  0.0421  0.2047
 1041TIP3    H124682   5.827   0.049   1.989  0.5925  0.2794 -0.1286
 1041TIP3    H224683   5.792   0.185   1.930  0.6773 -0.3417 -1.6696
 1042TIP3   OH224684   3.796   1.743   7.536  0.4208  0.7429  0.3917
 1042TIP3    H124685   3.796   1.789   7.452 -0.7975 -1.5874 -0.9957
 1042TIP3    H224686   3.705   1.747   7.565  0.4532 -0.0723  0.6329
 1043TIP3   OH224687   2.627   1.679   8.593  0.3194 -0.0727 -0.0198
 1043TIP3    H124688   2.616   1.602   8.649 -1.0450 -0.2061 -0.4164
 1043TIP3    H224689   2.658   1.643   8.510 -0.8536 -0.2946 -0.3853
 1044TIP3   OH224690   0.804   5.020   2.548  0.7254  0.4043 -0.2293
 1044TIP3    H124691   0.841   5.078   2.615  0.0358 -0.6946  1.1501
 1044TIP3    H224692   0.717   4.999   2.580  0.3547 -0.1199 -1.5155
 1045TIP3   OH224693   2.448   2.284   2.068  0.1348  0.6260 -0.0588
 1045TIP3    H124694   2.452   2.327   2.154 -1.1859  1.0690 -0.1832
 1045TIP3    H224695   2.400   2.202   2.085  0.0695  0.6071 -0.3303
 1046TIP3   OH224696   4.339   4.685   8.436  0.3620 -0.3483  0.3739
 1046TIP3    H124697   4.361   4.758   8.493  0.3317 -0.1635  0.1501
 1046TIP3    H224698   4.369   4.608   8.483  0.4202 -0.1891  0.5985
 1047TIP3   OH224699   4.777   5.191   1.850 -0.0589 -0.4394 -0.0397
 1047TIP3    H124700   4.835   5.114   1.849  2.3784  1.3079 -0.9761
 1047TIP3    H224701   4.698   5.162   1.803  1.0896 -2.1610 -1.0214
 1048TIP3   OH224702   2.193   3.711   7.380 -0.5725  0.6692  0.3944
 1048TIP3    H124703   2.195   3.806   7.386 -0.0246  0.6216  1.2156
 1048TIP3    H224704   2.229   3.691   7.294 -0.5272  1.2006  0.2857
 1049TIP3   OH224705   4.738   3.315   7.915 -0.1047  0.7671 -0.4528
 1049TIP3    H124706   4.666   3.373   7.939 -0.0730  1.2480 -1.4600
 1049TIP3    H224707   4.788   3.364   7.849  0.5573  0.0365 -0.5142
 1050TIP3   OH224708   4.124   2.557   7.637 -0.1653 -0.2198  0.0730
 1050TIP3    H124709   4.187   2.509   7.584 -0.7640  0.2519 -1.0973
 1050TIP3    H224710   4.129   2.647   7.605 -1.1736 -0.1076  0.1920
 1051TIP3   OH224711   4.359   5.988   6.941 -0.3088 -0.0017 -0.2545
 1051TIP3    H124712   4.268   6.000   6.915 -0.7431 -1.7122  0.3708
 1051TIP3    H224713   4.355   5.941   7.025  1.1273 -2.2147 -1.3294
 1052TIP3   OH224714   3.273   6.270   1.409  0.0339 -0.2558 -0.0369
 1052TIP3    H124715   3.326   6.190   1.417  0.4783 -0.1809 -1.8149
 1052TIP3    H224716   3.328   6.339   1.446  0.5495 -0.4394 -0.4459
 1053TIP3   OH224717   3.619   2.095   0.494 -0.5685 -0.8787 -0.2408
 1053TIP3    H124718   3.643   2.136   0.411  1.1560 -0.9372  0.1904
 1053TIP3    H224719   3.579   2.164   0.545  0.6702 -0.1733 -0.1938
 1054TIP3   OH224720   3.456   0.965   0.563 -0.6156  0.4496  0.3102
 1054TIP3    H124721   3.429   0.888   0.513 -1.3875  0.9202 -0.0285
 1054TIP3    H224722   3.423   0.949   0.651 -1.8165  0.8877 -0.0310
 1055TIP3   OH224723   2.640   4.120   0.111 -0.1904  0.0731  0.2583
 1055TIP3    H124724   2.686   4.045   0.147  0.8460  0.7860  0.4592
 1055TIP3    H224725   2.649   4.111   0.016  1.8278  1.0379  0.2959
 1056TIP3   OH224726   4.528   4.423   6.926 -0.2067 -0.2497  0.2876
 1056TIP3    H124727   4.617   4.391   6.939 -0.0747 -1.1538 -2.3006
 1056TIP3    H224728   4.538   4.517   6.915  0.8978 -0.5914 -2.6286
 1057TIP3   OH224729   5.212   5.535   8.168  0.0509 -0.6361  0.1213
 1057TIP3    H124730   5.159   5.585   8.105 -0.2732  1.6177  2.0563
 1057TIP3    H224731   5.204   5.444   8.138  0.2283  0.3139 -3.2560
 1058TIP3   OH224732   6.274   1.446   0.544 -0.1077 -0.7090 -0.0788
 1058TIP3    H124733   6.218   1.368   0.549  0.2255 -1.1266 -2.0818
 1058TIP3    H224734   6.271   1.482   0.633 -1.4299 -2.1800  0.5454
 1059TIP3   OH224735   2.606   5.027   0.105 -0.0369 -0.5315  0.2220
 1059TIP3    H124736   2.591   5.019   0.199 -0.6569 -0.5853  0.1212
 1059TIP3    H224737   2.575   5.115   0.083  1.1366 -0.0925  0.2576
 1060TIP3   OH224738   1.138   6.484   0.119  0.1612 -0.6911  0.1247
 1060TIP3    H124739   1.099   6.402   0.148 -0.2382 -0.8157 -0.7265
 1060TIP3    H224740   1.232   6.467   0.114  0.0881 -1.0725  0.0426
 1061TIP3   OH224741   4.067   5.731   0.556  0.3123  0.2791  0.1137
 1061TIP3    H124742   4.007   5.734   0.481 -0.1422 -1.1708  0.3772
 1061TIP3    H224743   4.030   5.791   0.620 -0.1014  0.4382 -0.2738
 1062TIP3   OH224744   5.011   4.132   7.541 -0.0366 -0.3071 -0.0078
 1062TIP3    H124745   4.971   4.213   7.511  0.0962 -0.2667 -0.0750
 1062TIP3    H224746   4.940   4.084   7.582 -0.3614 -0.6462 -0.9488
 1063TIP3   OH224747   3.195   6.176   0.102  0.0314  0.0793 -0.2390
 1063TIP3    H124748   3.173   6.202   0.012  1.7589  0.3981 -0.6149
 1063TIP3    H224749   3.291   6.182   0.105  0.0448 -0.6041  1.4292
 1064TIP3   OH224750   1.527   6.448   1.429  0.2850 -0.2939  0.3606
 1064TIP3    H124751   1.463   6.505   1.388  1.3868 -0.6662 -2.0559
 1064TIP3    H224752   1.486   6.419   1.511 -2.1236  0.3381 -0.5632
 1065TIP3   OH224753   0.837   1.463   1.909 -0.4356 -0.0023 -0.3081
 1065TIP3    H124754   0.894   1.387   1.922 -0.0226  0.6293  2.0679
 1065TIP3    H224755   0.895   1.532   1.878  0.2113  0.6475  2.1361
 1066TIP3   OH224756   6.568   6.643   7.770  0.6914 -0.1813  0.3775
 1066TIP3    H124757   6.527   6.713   7.718  1.7542  0.1489 -0.0606
 1066TIP3    H224758   6.647   6.684   7.806  2.2671 -1.5635 -1.2668
 1067TIP3   OH224759   0.251   6.560   0.996 -0.4619  0.4364  0.2048
 1067TIP3    H124760   0.227   6.652   1.007  2.0843  1.1412  0.3777
 1067TIP3    H224761   0.341   6.554   1.027 -0.7242 -2.2630  0.7359
 1068TIP3   OH224762   0.495   6.326   8.516  0.2821  0.3255 -0.8081
 1068TIP3    H124763   0.458   6.244   8.548  0.8076  0.8434  1.3351
 1068TIP3    H224764   0.523   6.307   8.427 -0.2639 -1.5947 -0.6198
 1069TIP3   OH224765   1.021   5.155   1.602 -0.2017  0.6018 -0.1215
 1069TIP3    H124766   1.073   5.093   1.551 -1.6382 -1.5158  0.8257
 1069TIP3    H224767   0.989   5.219   1.539  0.3457 -0.3218 -1.3640
 1070TIP3   OH224768   3.638   4.861   7.954  0.5127  0.3365 -0.0228
 1070TIP3    H124769   3.568   4.814   7.909 -0.3719  0.8716  0.7525
 1070TIP3    H224770   3.714   4.804   7.946  0.5743  0.6951 -2.7178
 1071TIP3   OH224771   2.897   4.629   7.535 -0.5368 -0.0016 -0.1034
 1071TIP3    H124772   2.870   4.707   7.487 -0.6558  1.3272  2.0131
 1071TIP3    H224773   2.992   4.630   7.532 -0.5293  0.4430  0.2359
 1072TIP3   OH224774   2.668   3.671   1.555 -0.0856 -0.2962  0.4717
 1072TIP3    H124775   2.607   3.707   1.619 -0.5452 -2.7046  1.4755
 1072TIP3    H224776   2.755   3.686   1.593 -0.2815 -0.4796  0.9958
 1073TIP3   OH224777   3.348   5.250   7.376 -0.0920  0.5105  0.0673
 1073TIP3    H124778   3.289   5.239   7.451  0.4976  1.4326  0.6774
 1073TIP3    H224779   3.433   5.269   7.415  0.6585 -0.9315 -0.8100
 1074TIP3   OH224780   6.625   5.394   1.088 -0.2290  0.3042 -0.4725
 1074TIP3    H124781   6.614   5.348   1.005 -3.7500  0.2872 -0.1329
 1074TIP3    H224782   6.696   5.347   1.132  1.4036  0.0133 -3.1792
 1075TIP3   OH224783   1.166   3.273   0.999  0.5452 -0.5722  0.0171
 1075TIP3    H124784   1.130   3.331   0.932 -0.6734 -0.2658  0.9041
 1075TIP3    H224785   1.227   3.328   1.049  2.1641 -1.0391 -1.3609
 1076TIP3   OH224786   2.651   6.717   0.239  0.3758 -0.4750 -0.3585
 1076TIP3    H124787   2.709   6.712   0.163  0.1001 -0.7741 -0.5553
 1076TIP3    H224788   2.709   6.740   0.311  0.4167  1.2135 -0.9020
 1077TIP3   OH224789   5.638   4.615   0.508 -0.4357  0.1925 -0.5215
 1077TIP3    H124790   5.596   4.537   0.544 -4.1383  0.6878 -3.1464
 1077TIP3    H224791   5.684   4.583   0.429  0.2629  0.3334 -0.1785
 1078TIP3   OH224792   5.017   3.364   6.783  0.0339  0.8912  0.7913
 1078TIP3    H124793   5.067   3.415   6.719 -2.2693 -0.0599 -1.9861
 1078TIP3    H224794   4.948   3.423   6.813  0.2452  0.8805  1.3061
 1079TIP3   OH224795   5.369   0.404   1.235  0.6018  0.5047  0.0416
 1079TIP3    H124796   5.310   0.442   1.169 -2.6788 -1.8101  1.3778
 1079TIP3    H224797   5.345   0.448   1.316 -1.1117 -1.9827  1.0264
 1080TIP3   OH224798   5.304   5.253   7.220  0.1928 -0.1870 -0.1707
 1080TIP3    H124799   5.273   5.167   7.246  2.2850 -0.8170  0.3977
 1080TIP3    H224800   5.251   5.314   7.271 -1.1826 -1.1117 -0.4428
 1081TIP3   OH224801   0.203   4.680   7.329 -0.2364 -0.4948 -0.2680
 1081TIP3    H124802   0.137   4.616   7.353  0.6585 -1.2780  0.1823
 1081TIP3    H224803   0.171   4.763   7.364 -0.3421 -1.0967  1.1030
 1082TIP3   OH224804   6.488   6.529   1.804 -0.8512  0.1984  0.2823
 1082TIP3    H124805   6.506   6.537   1.897 -0.0831  0.4548  0.1178
 1082TIP3    H224806   6.431   6.603   1.784  0.5678  1.2837  0.1662
 1083TIP3   OH224807   6.388   1.380   8.205  0.8722 -0.4437  0.1015
 1083TIP3    H124808   6.340   1.390   8.123  0.2610  0.1074  0.5102
 1083TIP3    H224809   6.365   1.459   8.256  1.8345 -0.4004  0.4981
 1084TIP3   OH224810   6.532   6.303   0.813  0.9156  0.1970 -0.3226
 1084TIP3    H124811   6.470   6.363   0.771  0.1029 -1.2414 -1.2721
 1084TIP3    H224812   6.489   6.279   0.895  1.3680  1.0909  0.1905
 1085TIP3   OH224813   4.191   4.722   0.889  0.0527  0.0114  0.2848
 1085TIP3    H124814   4.179   4.724   0.794 -1.9711 -0.6222  0.4783
 1085TIP3    H224815   4.160   4.808   0.919 -0.3494 -0.1923  0.4602
 1086TIP3   OH224816   3.657   3.135   7.666  0.2468 -0.3722 -0.2931
 1086TIP3    H124817   3.712   3.066   7.631  0.3073  0.8075 -2.6870
 1086TIP3    H224818   3.568   3.103   7.655  0.3122 -0.8420  0.4253
 1087TIP3   OH224819   2.837   6.751   6.971  0.4413  0.1586  0.5473
 1087TIP3    H124820   2.918   6.734   7.018  0.8643 -0.7654 -0.4805
 1087TIP3    H224821   2.772   6.695   7.015  0.5862  0.1028  0.6898
 1088TIP3   OH224822   2.626   4.863   8.607  0.7389 -0.0070  0.2047
 1088TIP3    H124823   2.635   4.778   8.652  1.8140  0.8965  1.8045
 1088TIP3    H224824   2.587   4.921   8.672 -0.6773  0.5796 -1.1165
 1089TIP3   OH224825   1.547   5.684   2.157 -0.1178 -0.1806  0.5584
 1089TIP3    H124826   1.523   5.646   2.073  2.4976  1.1356 -0.9017
 1089TIP3    H224827   1.488   5.643   2.220 -3.8437  0.5239 -2.1531
 1090TIP3   OH224828   2.214   4.248   6.545 -0.2224  0.2190 -0.0223
 1090TIP3    H124829   2.173   4.296   6.473 -0.1812  1.3615  0.6977
 1090TIP3    H224830   2.221   4.312   6.616 -0.3597 -0.9047  1.0453
 1091TIP3   OH224831   2.326   6.675   8.370 -0.4740 -0.0253  0.8571
 1091TIP3    H124832   2.386   6.604   8.347  0.6392  0.7349  1.3220
 1091TIP3    H224833   2.335   6.684   8.465  0.3802  1.5608  0.6598
 1092TIP3   OH224834   2.849   1.052   1.235  0.1051  0.3268 -0.3012
 1092TIP3    H124835   2.797   1.059   1.314  0.5863 -0.8989  0.1496
 1092TIP3    H224836   2.841   1.138   1.193 -1.2699  0.5505  0.3617
 1093TIP3   OH224837   5.831   0.360   1.400  0.5950  0.5234  0.7184
 1093TIP3    H124838   5.859   0.375   1.490 -0.0156  1.6776  0.7386
 1093TIP3    H224839   5.796   0.445   1.371  0.3760  0.0570 -0.4545
 1094TIP3   OH224840   0.635   3.035   1.076  0.3283  0.0337 -0.0641
 1094TIP3    H124841   0.639   2.992   1.162 -2.7953 -1.9818 -0.7477
 1094TIP3    H224842   0.596   3.120   1.093  0.1583 -0.1683  0.5857
 1095TIP3   OH224843   2.171   3.613   8.017  0.4600 -0.2002  0.3465
 1095TIP3    H124844   2.093   3.606   8.072 -0.3652 -1.3995 -0.9032
 1095TIP3    H224845   2.208   3.524   8.017  0.3154 -0.2823 -1.1588
 1096TIP3   OH224846   2.465   1.151   7.114 -0.3343  0.1237  0.5661
 1096TIP3    H124847   2.554   1.118   7.127 -0.9292 -1.8155  0.1054
 1096TIP3    H224848   2.478   1.238   7.077  1.3976 -0.3541 -0.1011
 1097TIP3   OH224849   3.705   6.507   1.168 -0.1620  0.7082  1.0276
 1097TIP3    H124850   3.633   6.553   1.211 -1.3792 -0.0692 -0.0967
 1097TIP3    H224851   3.718   6.428   1.219 -0.6396  0.4781  0.7993
 1098TIP3   OH224852   1.956   2.790   7.716 -0.3311 -0.2279  0.3897
 1098TIP3    H124853   2.026   2.724   7.715  0.4128  0.5556  0.0317
 1098TIP3    H224854   1.996   2.867   7.756 -0.9807  0.2474  0.1478
 1099TIP3   OH224855   0.712   4.630   6.934 -0.1881 -0.4768  0.2382
 1099TIP3    H124856   0.745   4.692   6.869 -2.5548 -0.0758 -0.6889
 1099TIP3    H224857   0.712   4.545   6.889 -0.7690 -0.3985  0.0788
 1100TIP3   OH224858   4.958   6.517   3.116  0.1142 -0.2521 -0.1578
 1100TIP3    H124859   4.960   6.422   3.112  0.7987 -0.2597  0.2407
 1100TIP3    H224860   4.877   6.541   3.071 -0.9944 -1.1033  1.2769
 1101TIP3   OH224861   0.702   5.733   0.468 -0.2232  0.7385 -0.7712
 1101TIP3    H124862   0.614   5.744   0.432 -1.4807 -1.8621  1.1866
 1101TIP3    H224863   0.688   5.725   0.562  1.9273 -1.1355 -0.5347
 1102TIP3   OH224864   0.637   1.261   7.372 -0.5558  0.0173  0.0803
 1102TIP3    H124865   0.601   1.294   7.454  0.4464 -0.5267  0.7558
 1102TIP3    H224866   0.570   1.202   7.339 -0.0552 -1.5081  1.6597
 1103TIP3   OH224867   6.374   0.322   0.103 -0.9652  0.4833  0.1069
 1103TIP3    H124868   6.460   0.317   0.146 -0.3967 -0.1846 -1.0749
 1103TIP3    H224869   6.346   0.413   0.116  0.0227  0.7663  0.3148
 1104TIP3   OH224870   2.326   4.480   6.758  0.2407 -0.1398 -0.2318
 1104TIP3    H124871   2.334   4.549   6.823 -0.1285  0.7133 -1.0626
 1104TIP3    H224872   2.404   4.489   6.703 -0.7762  0.9656 -1.5740
 1105TIP3   OH224873   2.882   6.384   0.742  0.4525 -0.0563 -0.4095
 1105TIP3    H124874   2.927   6.301   0.755  2.9061  0.8709 -2.2376
 1105TIP3    H224875   2.854   6.382   0.650 -1.5318  0.2293  0.1564
 1106TIP3   OH224876   2.755   2.478   1.460  0.0546  0.1945  0.4645
 1106TIP3    H124877   2.691   2.416   1.426  0.4847  0.1397 -0.2723
 1106TIP3    H224878   2.734   2.486   1.553 -0.1385 -0.8998  0.5279
 1107TIP3   OH224879   1.876   2.844   6.974 -0.0306  0.0906 -0.1408
 1107TIP3    H124880   1.963   2.804   6.967 -0.0268  0.2337 -1.0444
 1107TIP3    H224881   1.880   2.896   7.054 -0.1895 -2.0844  1.3784
 1108TIP3   OH224882   3.918   6.169   8.251  0.2253 -0.0248  1.4949
 1108TIP3    H124883   3.880   6.090   8.213  0.5638 -0.1106  1.3343
 1108TIP3    H224884   3.965   6.139   8.328  0.5720 -0.0181  1.2887
 1109TIP3   OH224885   6.754   5.247   7.020 -1.1602  0.4610  0.6627
 1109TIP3    H124886   6.795   5.291   6.946  0.4486 -2.6703 -0.5234
 1109TIP3    H224887   6.660   5.258   7.005 -0.8675  0.4380 -1.5751
 1110TIP3   OH224888   0.297   2.171   6.559 -0.8179  0.3491 -0.7691
 1110TIP3    H124889   0.214   2.176   6.606 -1.1581  0.8670 -1.4111
 1110TIP3    H224890   0.274   2.139   6.472 -0.6422  2.3280 -1.5977
 1111TIP3   OH224891   4.232   3.683   2.133 -0.3397  0.4058  0.0312
 1111TIP3    H124892   4.171   3.753   2.109 -0.9806  0.3834  1.4525
 1111TIP3    H224893   4.295   3.726   2.191  0.7354  0.3175 -1.0385
 1112TIP3   OH224894   4.161   5.432   6.784 -0.3777 -0.0051 -0.1909
 1112TIP3    H124895   4.099   5.439   6.712 -2.0381 -1.3886  1.0006
 1112TIP3    H224896   4.235   5.486   6.758 -1.6672  0.9467 -2.1221
 1113TIP3   OH224897   1.152   5.818   6.891  0.3000  0.2713 -0.0312
 1113TIP3    H124898   1.183   5.904   6.920  0.6006  1.0671 -2.4778
 1113TIP3    H224899   1.145   5.766   6.972  2.9400  1.6610  1.1999
 1114TIP3   OH224900   4.578   0.500   8.359 -0.5590 -0.3633 -0.1725
 1114TIP3    H124901   4.561   0.534   8.447  0.1314 -0.0408 -0.1549
 1114TIP3    H224902   4.566   0.576   8.301 -4.1953 -1.2302 -0.7805
 1115TIP3   OH224903   6.622   2.472   7.312  0.1086  0.1477  0.1882
 1115TIP3    H124904   6.660   2.560   7.320 -3.3671  2.0934 -2.1081
 1115TIP3    H224905   6.528   2.486   7.321 -0.5319 -3.6296  1.0524
 1116TIP3   OH224906   3.837   0.356   1.650  0.3146  0.2092  0.0825
 1116TIP3    H124907   3.766   0.374   1.711 -0.3341  0.0955 -0.6294
 1116TIP3    H224908   3.796   0.355   1.564  0.9476 -1.1638 -0.2269
 1117TIP3   OH224909   0.204   2.148   0.031 -0.0493 -0.1842  0.1730
 1117TIP3    H124910   0.254   2.075   0.067  0.0842 -0.9749 -1.5074
 1117TIP3    H224911   0.250   2.172  -0.049  0.5842  2.5765  1.2449
 1118TIP3   OH224912   6.006   5.046   8.197 -0.7247 -0.3189 -0.5433
 1118TIP3    H124913   6.058   5.113   8.241 -0.9217 -1.1799  1.0544
 1118TIP3    H224914   6.023   5.061   8.104 -1.0233  2.1509 -0.2783
 1119TIP3   OH224915   2.066   1.908   0.180 -0.1149  0.2464 -0.0798
 1119TIP3    H124916   2.017   1.827   0.169 -1.0732  0.7240  0.4807
 1119TIP3    H224917   2.154   1.888   0.149  0.2371 -1.5894  1.8561
 1120TIP3   OH224918   4.361   4.280   7.950  0.4456  0.2527  0.0229
 1120TIP3    H124919   4.332   4.284   7.859 -2.2843 -0.5253  0.7730
 1120TIP3    H224920   4.382   4.371   7.973 -1.1499  0.8338 -0.7104
 1121TIP3   OH224921   0.337   6.650   7.300  0.1966 -0.6843  0.2225
 1121TIP3    H124922   0.261   6.600   7.329  0.8652 -1.2560  1.0688
 1121TIP3    H224923   0.360   6.612   7.215 -0.4587 -0.5003 -0.0406
 1122TIP3   OH224924   2.334   5.070   7.472 -0.3914 -0.4958 -0.3175
 1122TIP3    H124925   2.329   5.053   7.377 -2.2225  0.6921 -0.4741
 1122TIP3    H224926   2.309   4.987   7.512 -0.0106 -0.8907 -0.8709
 1123TIP3   OH224927   1.799   5.554   2.223  0.1111  0.2858 -0.1104
 1123TIP3    H124928   1.750   5.628   2.188  0.6721  1.9192  2.3121
 1123TIP3    H224929   1.886   5.562   2.184  0.1465  0.9011  0.0793
 1124TIP3   OH224930   5.925   0.208   0.072  0.0229  0.1250  0.1715
 1124TIP3    H124931   5.988   0.245   0.134 -0.8035  0.0362  1.0835
 1124TIP3    H224932   5.932   0.114   0.084 -2.1816  0.1388  2.2897
 1125TIP3   OH224933   4.838   5.212   0.156 -0.1846 -0.3213  0.2823
 1125TIP3    H124934   4.828   5.301   0.121  0.1323  0.0135  1.0228
 1125TIP3    H224935   4.930   5.190   0.139  0.0494 -0.0404  1.1602
 1126TIP3   OH224936   3.124   3.679   6.991  0.0859 -0.3218 -0.6525
 1126TIP3    H124937   3.082   3.594   6.987  0.7284 -1.0070  3.3022
 1126TIP3    H224938   3.071   3.729   7.053  1.3905  1.0835 -0.6019
 1127TIP3   OH224939   5.296   0.657   0.186 -0.1381  0.3835 -0.5464
 1127TIP3    H124940   5.231   0.603   0.141  1.0844 -0.6674 -1.1303
 1127TIP3    H224941   5.340   0.597   0.246 -1.1331  1.5742  1.4503
 1128TIP3   OH224942   0.929   4.443   7.595 -0.2292  0.2334  0.3427
 1128TIP3    H124943   1.017   4.444   7.559 -0.5772 -0.8265 -0.6002
 1128TIP3    H224944   0.908   4.534   7.612  1.4022  0.4279  1.4820
 1129TIP3   OH224945   4.681   6.036   0.685  0.1639 -0.6137  1.1506
 1129TIP3    H124946   4.775   6.043   0.672 -0.2114  0.7253 -1.6773
 1129TIP3    H224947   4.665   6.082   0.768  1.8526  0.4070  0.9635
 1130TIP3   OH224948   5.710   1.359   1.159  0.1195  0.0951 -0.2439
 1130TIP3    H124949   5.625   1.385   1.194  0.0438 -0.9436  0.3983
 1130TIP3    H224950   5.707   1.383   1.067 -1.1901 -0.6361 -0.4259
 1131TIP3   OH224951   0.832   4.406   0.402  0.3914 -0.1830  0.1199
 1131TIP3    H124952   0.894   4.352   0.451  1.0481  1.7358  1.5229
 1131TIP3    H224953   0.875   4.421   0.317  1.3483  0.1944  0.6547
 1132TIP3   OH224954   2.323   3.367   6.863 -0.0471 -0.3930 -0.2807
 1132TIP3    H124955   2.315   3.350   6.957 -2.1808 -2.4265 -0.7171
 1132TIP3    H224956   2.314   3.462   6.855 -0.3080 -0.2180  1.5313
 1133TIP3   OH224957   3.247   3.441   0.146  0.3454  0.7046 -0.0098
 1133TIP3    H124958   3.340   3.429   0.131  0.1431 -0.9726 -0.0290
 1133TIP3    H224959   3.204   3.388   0.078 -0.5963 -0.7592  1.6632
 1134TIP3   OH224960   3.755   1.668   0.247 -0.0534 -0.2355  0.2736
 1134TIP3    H124961   3.668   1.667   0.208 -1.0276  0.3370  2.3270
 1134TIP3    H224962   3.760   1.751   0.294  0.8494 -1.0842  1.7652
 1135TIP3   OH224963   4.526   3.295   1.327 -0.1154 -0.2345  0.2637
 1135TIP3    H124964   4.433   3.278   1.344  0.2391 -1.5554  1.0642
 1135TIP3    H224965   4.560   3.327   1.411  0.2467 -0.1849  0.0998
 1136TIP3   OH224966   6.783   1.707   1.060  0.1614 -0.4816 -0.8846
 1136TIP3    H124967   6.777   1.755   1.143 -0.2529 -1.1194 -0.5407
 1136TIP3    H224968   6.802   1.775   0.995 -0.7303  0.1992 -0.4570
 1137TIP3   OH224969   0.698   2.117   6.933 -0.1609 -0.3321 -0.2983
 1137TIP3    H124970   0.622   2.089   6.985 -0.0726 -0.4480 -0.2300
 1137TIP3    H224971   0.661   2.140   6.848 -0.3902  0.4377 -0.0042
 1138TIP3   OH224972   2.476   1.810   1.931  0.0466 -0.5568  0.4960
 1138TIP3    H124973   2.521   1.890   1.959  0.4065 -0.8032  0.6211
 1138TIP3    H224974   2.429   1.836   1.852 -0.1470 -0.1225  0.7509
 1139TIP3   OH224975   5.450   5.888   1.255 -0.3596 -0.2711 -0.0167
 1139TIP3    H124976   5.477   5.976   1.283 -1.4933 -0.4984  2.0501
 1139TIP3    H224977   5.355   5.894   1.245 -0.1859 -0.6908 -2.2726
 1140TIP3   OH224978   4.212   0.037   1.265 -0.2124 -0.5694  1.0549
 1140TIP3    H124979   4.164   0.021   1.346 -0.3977  2.7306  1.7135
 1140TIP3    H224980   4.250   0.123   1.276  1.0883 -0.6759 -1.7834
 1141TIP3   OH224981   3.563   2.465   8.193  0.3343  0.1343  0.2150
 1141TIP3    H124982   3.624   2.447   8.122  0.2302 -0.6721  0.3166
 1141TIP3    H224983   3.586   2.401   8.261  0.2997  0.7553  0.8223
 1142TIP3   OH224984   0.318   4.704   1.191  0.0053 -0.0439  0.5733
 1142TIP3    H124985   0.289   4.613   1.191 -0.0910 -0.0132  0.7488
 1142TIP3    H224986   0.302   4.735   1.280 -1.4315  0.6141  0.1061
 1143TIP3   OH224987   2.390   4.083   1.199  0.3664  0.0097 -0.0672
 1143TIP3    H124988   2.424   4.010   1.149 -0.5037 -0.0060 -0.6682
 1143TIP3    H224989   2.307   4.051   1.235  1.1670 -0.1322  1.7827
 1144TIP3   OH224990   0.916   0.181   7.373  0.5596  0.6457  0.1190
 1144TIP3    H124991   1.004   0.196   7.341  0.2033 -0.5090 -1.4914
 1144TIP3    H224992   0.865   0.255   7.340  0.4554  0.1065 -0.9597
 1145TIP3   OH224993   1.773   1.934   1.981  0.3306  0.1169  0.2789
 1145TIP3    H124994   1.684   1.964   1.961  0.5290  0.6054  0.1112
 1145TIP3    H224995   1.763   1.878   2.058 -0.1101  0.2649  0.3316
 1146TIP3   OH224996   6.813   1.205   2.619  0.2533  0.2143  0.4377
 1146TIP3    H124997   6.757   1.282   2.606 -0.4793 -0.2034  1.0285
 1146TIP3    H224998   6.770   1.135   2.570  0.0196 -0.2073  1.2117
 1147TIP3   OH224999   2.328   6.162   6.602  0.4593 -0.0878 -0.0710
 1147TIP3    H125000   2.301   6.198   6.686  0.9876 -1.6328  0.8022
 1147TIP3    H225001   2.247   6.130   6.562 -0.2440  3.0421 -1.4539
 1148TIP3   OH225002   3.694   1.088   8.681  0.8354  0.2177  0.0127
 1148TIP3    H125003   3.717   1.005   8.641  0.4730 -0.1319  0.5092
 1148TIP3    H225004   3.662   1.064   8.768 -1.4616  0.6378 -0.6471
 1149TIP3   OH225005   2.445   4.859   1.547 -0.1051  0.0671 -0.3041
 1149TIP3    H125006   2.501   4.781   1.545 -0.8750 -0.4906 -0.5256
 1149TIP3    H225007   2.426   4.873   1.640  0.4367  0.2919 -0.2222
 1150TIP3   OH225008   4.950   2.044   7.505  0.2353  0.1215 -0.1431
 1150TIP3    H125009   4.860   2.074   7.513 -0.0148 -0.1812 -1.5283
 1150TIP3    H225010   4.988   2.101   7.438  0.0953 -1.7770 -1.9506
 1151TIP3   OH225011   3.467   6.177   0.079  0.3182  0.7751 -0.7773
 1151TIP3    H125012   3.522   6.192   0.002  0.9118  0.9825 -0.3257
 1151TIP3    H225013   3.514   6.110   0.129 -0.2851  0.3273 -0.8034
 1152TIP3   OH225014   1.565   6.174   7.992 -0.1976 -0.2795 -0.6878
 1152TIP3    H125015   1.638   6.166   7.930  1.2409 -0.5364  0.9552
 1152TIP3    H225016   1.579   6.102   8.054 -0.6930  0.8387  0.7932
 1153TIP3   OH225017   6.266   3.249   8.637  0.2468  0.1576  0.1969
 1153TIP3    H125018   6.185   3.283   8.675  0.5300  0.2889  0.6923
 1153TIP3    H225019   6.315   3.215   8.712  1.1744  1.1627  0.0718
 1154TIP3   OH225020   3.868   0.087   2.164 -0.0843 -1.3609  0.6216
 1154TIP3    H125021   3.815   0.044   2.098 -1.4520  2.6238 -1.2023
 1154TIP3    H225022   3.805   0.125   2.225  0.7420  0.5247  0.3910
 1155TIP3   OH225023   6.237   6.612   6.501  0.4553 -0.4343  0.2033
 1155TIP3    H125024   6.320   6.594   6.457 -0.1717 -1.2168 -0.6835
 1155TIP3    H225025   6.263   6.641   6.589  1.6749 -0.2469 -0.1965
 1156TIP3   OH225026   0.323   4.373   7.053  0.2175 -0.2962  0.2723
 1156TIP3    H125027   0.397   4.341   7.001 -0.1704  1.0283 -1.1762
 1156TIP3    H225028   0.342   4.344   7.142  2.1846 -0.4869 -0.1592
 1157TIP3   OH225029   1.663   2.413   6.978 -0.3706  0.4569  0.0300
 1157TIP3    H125030   1.701   2.491   6.939 -1.4177  1.4604  0.9591
 1157TIP3    H225031   1.601   2.446   7.044 -2.2860 -1.1070 -0.8919
 1158TIP3   OH225032   3.161   0.514   0.398 -0.4659 -0.2773 -0.0329
 1158TIP3    H125033   3.151   0.501   0.304 -0.2084 -2.2434  0.1603
 1158TIP3    H225034   3.072   0.523   0.431 -0.6280 -0.7362 -0.3356
 1159TIP3   OH225035   4.508   1.120   7.998  0.4483 -0.0386  0.1163
 1159TIP3    H125036   4.598   1.105   8.026  0.6623 -0.0936 -0.5691
 1159TIP3    H225037   4.481   1.200   8.042  1.6370  1.2908 -1.4645
 1160TIP3   OH225038   3.985   3.358   8.162 -0.2885 -0.1277  0.0557
 1160TIP3    H125039   3.984   3.318   8.075 -2.6266 -0.6561  0.2586
 1160TIP3    H225040   3.961   3.450   8.147  1.0117  0.2313  0.0126
 1161TIP3   OH225041   0.125   6.829   0.968 -0.6684  0.1491  0.4285
 1161TIP3    H125042   0.113   6.850   1.061  0.8171  0.1040  0.6556
 1161TIP3    H225043   0.200   6.882   0.941 -1.2371  0.3460 -0.8244
 1162TIP3   OH225044   4.095   4.508   8.619 -0.1638 -0.0747 -0.0394
 1162TIP3    H125045   4.111   4.598   8.593 -0.0447 -0.2458 -0.5716
 1162TIP3    H225046   4.175   4.482   8.665  0.1220 -0.1550 -0.5727
 1163TIP3   OH225047   3.998   1.012   0.595 -0.1988  0.3914  0.0923
 1163TIP3    H125048   4.011   1.105   0.577 -0.4029  0.5783  0.8589
 1163TIP3    H225049   3.953   1.011   0.680  1.3182 -0.4502  0.9240
 1164TIP3   OH225050   1.633   6.277   2.293 -0.1809 -0.1072  0.1524
 1164TIP3    H125051   1.557   6.317   2.335 -0.0190  0.3370  0.0344
 1164TIP3    H225052   1.621   6.183   2.305  0.4353  0.0172  2.2606
 1165TIP3   OH225053   3.159   4.668   7.529 -0.1738 -0.2514 -0.3990
 1165TIP3    H125054   3.247   4.693   7.557 -0.3489 -1.4201  1.3254
 1165TIP3    H225055   3.168   4.650   7.435  1.4257 -0.3727 -0.2433
 1166TIP3   OH225056   1.508   3.494   7.841  0.8206 -0.0334 -0.0511
 1166TIP3    H125057   1.581   3.475   7.782  0.6634 -1.5152  0.1949
 1166TIP3    H225058   1.430   3.468   7.791  0.2867  2.7475 -0.8280
 1167TIP3   OH225059   2.885   5.545   7.638 -0.5125 -0.3987  0.4527
 1167TIP3    H125060   2.808   5.491   7.621 -0.9938  0.5640 -0.5140
 1167TIP3    H225061   2.866   5.629   7.597 -0.0042  0.7116  2.3662
 1168TIP3   OH225062   2.240   0.893   7.683 -0.5869  0.2662 -0.8460
 1168TIP3    H125063   2.205   0.922   7.768 -0.1315  1.2357 -0.9746
 1168TIP3    H225064   2.168   0.905   7.622 -1.0901 -0.9359 -0.5196
 1169TIP3   OH225065   4.222   0.428   1.104  0.0524  0.1735  0.2551
 1169TIP3    H125066   4.180   0.447   1.020 -0.2299 -0.2500  0.2958
 1169TIP3    H225067   4.305   0.475   1.101 -0.6769  1.5317  0.4160
 1170TIP3   OH225068   0.003   3.840   7.823  0.2282  0.1328 -0.3669
 1170TIP3    H125069  -0.015   3.916   7.879 -0.2037 -0.8302  0.8432
 1170TIP3    H225070   0.094   3.817   7.841  0.1657 -0.0241 -0.2502
 1171TIP3   OH225071   5.809   4.423   1.112 -0.3540 -0.6551 -0.4558
 1171TIP3    H125072   5.788   4.336   1.146 -1.7396 -0.7112 -1.3535
 1171TIP3    H225073   5.733   4.477   1.135 -0.1993 -0.0777 -1.2341
 1172TIP3   OH225074   1.673   4.572   0.647 -0.1388  0.1067  0.4817
 1172TIP3    H125075   1.733   4.509   0.686 -0.3955  0.3257  1.2440
 1172TIP3    H225076   1.586   4.532   0.657 -0.1752 -0.0251 -0.2518
 1173TIP3   OH225077   6.492   3.201   7.526 -0.4698 -0.1060 -0.1027
 1173TIP3    H125078   6.458   3.191   7.615 -1.1357  1.0705 -0.2050
 1173TIP3    H225079   6.428   3.157   7.471  0.9568 -2.6240  0.1178
 1174TIP3   OH225080   1.787   5.650   0.519 -0.4408 -0.0258 -0.2694
 1174TIP3    H125081   1.838   5.684   0.593 -1.1336  2.0162 -0.6805
 1174TIP3    H225082   1.792   5.718   0.452  0.3239 -1.9038 -2.2445
 1175TIP3   OH225083   3.840   3.620   7.759 -0.4873 -0.6014 -0.0233
 1175TIP3    H125084   3.927   3.603   7.795  0.6914  1.3217 -1.7125
 1175TIP3    H225085   3.828   3.552   7.693 -0.2545 -0.8729  0.2134
 1176TIP3   OH225086   5.801   2.527   7.491 -0.7359  0.4175 -0.2405
 1176TIP3    H125087   5.806   2.454   7.430 -1.4056  0.8556 -0.8260
 1176TIP3    H225088   5.784   2.604   7.436  0.9190  1.1836  0.2460
 1177TIP3   OH225089   1.372   2.643   6.415  0.1824 -0.5962 -0.2328
 1177TIP3    H125090   1.284   2.612   6.391  0.9462 -1.4429 -2.0980
 1177TIP3    H225091   1.389   2.715   6.354 -0.4926  1.8510  2.3033
 1178TIP3   OH225092   3.506   5.231   7.664 -0.4165 -0.9590  0.5972
 1178TIP3    H125093   3.560   5.152   7.666  0.9866 -0.0324  0.5307
 1178TIP3    H225094   3.450   5.224   7.741  1.1617 -1.0480  1.7876
 1179TIP3   OH225095   0.049   0.537   1.034 -0.3777  0.0610  0.7831
 1179TIP3    H125096   0.058   0.548   1.129 -2.2267  0.5550  0.9313
 1179TIP3    H225097   0.122   0.480   1.010  1.4005  1.6316  2.1577
 1180TIP3   OH225098   2.982   0.682   1.583 -0.0141  0.4692  0.1880
 1180TIP3    H125099   2.951   0.764   1.622 -1.5810 -0.0371  0.0892
 1180TIP3    H225100   2.974   0.618   1.654 -2.3913 -0.3500 -0.7101
 1181TIP3   OH225101   5.143   5.074   8.071 -0.7674 -0.2676  0.0593
 1181TIP3    H125102   5.137   5.030   8.156  1.5597 -0.4119  0.2220
 1181TIP3    H225103   5.116   5.008   8.008 -2.6368 -0.1245  0.6354
 1182TIP3   OH225104   1.080   0.082   1.596  0.4175 -0.0151  0.6914
 1182TIP3    H125105   1.034   0.038   1.524  0.0953  0.8422  0.3576
 1182TIP3    H225106   1.141   0.142   1.553 -0.1778  0.9218  1.1086
 1183TIP3   OH225107   6.042   5.392   2.017  0.3227  0.8130 -0.0943
 1183TIP3    H125108   6.117   5.341   1.987  2.4837  2.7455  1.6596
 1183TIP3    H225109   6.078   5.453   2.081 -2.5560  2.7093 -0.0714
 1184TIP3   OH225110   2.643   6.288   1.827  0.3246  0.0834  0.9382
 1184TIP3    H125111   2.706   6.217   1.819 -0.1530 -0.6739  3.1466
 1184TIP3    H225112   2.684   6.350   1.888 -0.5640  0.1622  1.4692
 1185TIP3   OH225113   3.043   3.281   7.193 -0.2337  0.2980  0.3977
 1185TIP3    H125114   3.036   3.331   7.275  0.0182  0.2379  0.4546
 1185TIP3    H225115   3.002   3.197   7.212 -0.3021  0.3363  0.4198
 1186TIP3   OH225116   5.971   2.376   0.962  0.3226  0.2002 -0.4466
 1186TIP3    H125117   5.923   2.352   1.042  2.6183 -1.5878  0.5153
 1186TIP3    H225118   5.998   2.466   0.977 -0.2821  0.2841  0.2550
 1187TIP3   OH225119   5.409   0.964   7.727  0.2804 -0.0234 -0.4927
 1187TIP3    H125120   5.387   1.057   7.730 -1.0090 -0.3331  0.3699
 1187TIP3    H225121   5.504   0.962   7.721  0.2846  1.3520 -1.3648
 1188TIP3   OH225122   6.336   5.120   7.875 -0.8129  0.1846  0.1716
 1188TIP3    H125123   6.340   5.128   7.780 -1.7849 -0.5860  0.0435
 1188TIP3    H225124   6.411   5.066   7.898 -2.0130 -1.9061 -0.4941
 1189TIP3   OH225125   1.411   4.967   7.062  0.3698  0.0148 -0.0955
 1189TIP3    H125126   1.481   4.980   7.125  1.8537 -1.7477 -1.2612
 1189TIP3    H225127   1.442   5.011   6.983 -0.0866 -0.2979 -0.4570
 1190TIP3   OH225128   2.199   0.490   7.826 -0.5676  0.2785  0.4353
 1190TIP3    H125129   2.158   0.426   7.768  1.8426 -1.0436  0.0634
 1190TIP3    H225130   2.131   0.512   7.889 -1.7289 -2.0809  0.1211
 1191TIP3   OH225131   4.149   5.787   1.168  0.5275  0.1779  0.1020
 1191TIP3    H125132   4.198   5.782   1.250  1.0788 -0.1015 -0.2387
 1191TIP3    H225133   4.207   5.835   1.108  0.6757 -0.7493 -0.5126
 1192TIP3   OH225134   5.306   3.229   0.864 -0.1435  0.8020 -0.0584
 1192TIP3    H125135   5.318   3.154   0.923  0.5030  1.0708  0.1681
 1192TIP3    H225136   5.376   3.220   0.800 -3.0570 -1.6653 -3.2533
 1193TIP3   OH225137   1.401   0.255   7.452  0.2028  0.6026  0.2367
 1193TIP3    H125138   1.464   0.285   7.388  0.9993  1.2163  1.2743
 1193TIP3    H225139   1.382   0.164   7.427  1.6641  0.3312  0.0343
 1194TIP3   OH225140   5.648   1.211   2.209 -0.3018 -0.0375  0.2164
 1194TIP3    H125141   5.589   1.282   2.237 -1.0844 -2.0538  4.4965
 1194TIP3    H225142   5.734   1.237   2.242  0.6151  1.1019 -2.7042
 1195TIP3   OH225143   6.683   5.953   0.127 -0.0615  0.0715  0.2996
 1195TIP3    H125144   6.686   6.000   0.044  2.1097 -0.6372 -0.0869
 1195TIP3    H225145   6.661   5.863   0.104 -0.5659  0.0947  0.6458
 1196TIP3   OH225146   5.145   6.019   0.508  0.0990  0.3256  0.0997
 1196TIP3    H125147   5.233   6.055   0.499  0.6059 -0.1005  2.4957
 1196TIP3    H225148   5.131   5.967   0.429  1.6831  1.0276 -0.6758
 1197TIP3   OH225149   1.803   2.931   0.656 -0.2741  0.1391 -0.1568
 1197TIP3    H125150   1.858   3.007   0.636 -0.5744  0.6517  0.8958
 1197TIP3    H225151   1.800   2.881   0.574  0.1598  1.1118 -0.7837
 1198TIP3   OH225152   4.375   4.174   0.318  0.1905 -0.0716  0.6455
 1198TIP3    H125153   4.395   4.146   0.407  1.2726  0.9563  0.7563
 1198TIP3    H225154   4.290   4.218   0.325 -0.3160 -1.0773  0.9250
 1199TIP3   OH225155   0.730   4.494   0.630  0.4113 -0.7060  0.1072
 1199TIP3    H125156   0.784   4.465   0.703 -1.1940 -0.4784  1.4283
 1199TIP3    H225157   0.778   4.465   0.552  2.6255 -0.1596  1.1820
 1200TIP3   OH225158   4.505   0.939   2.498  0.1038 -0.2261  0.0680
 1200TIP3    H125159   4.542   0.974   2.417 -0.1482 -0.5928 -0.2089
 1200TIP3    H225160   4.577   0.892   2.539 -0.1184 -1.2202 -0.6291
 1201TIP3   OH225161   0.555   5.815   2.284 -0.0959  0.1925 -0.0409
 1201TIP3    H125162   0.467   5.844   2.262 -0.8237 -1.4635  0.5052
 1201TIP3    H225163   0.570   5.739   2.227  0.0958 -0.8598  1.3443
 1202TIP3   OH225164   4.580   4.037   0.176  0.2769  0.1291  0.4631
 1202TIP3    H125165   4.506   4.088   0.206  0.8913  0.3352  1.6801
 1202TIP3    H225166   4.585   3.963   0.236  0.1832 -0.6761 -0.4944
 1203TIP3   OH225167   2.473   1.418   2.174  0.8642 -0.2563 -0.3483
 1203TIP3    H125168   2.519   1.385   2.252 -0.3088  1.8708  1.3528
 1203TIP3    H225169   2.380   1.418   2.199  0.6259  2.3301 -0.9579
 1204TIP3   OH225170   1.527   4.074   0.286 -0.3410  0.1042 -0.0969
 1204TIP3    H125171   1.459   4.107   0.344  0.8283 -0.7151  1.8517
 1204TIP3    H225172   1.561   4.152   0.242 -0.4802  0.9535  1.2448
 1205TIP3   OH225173   5.633   3.397   1.272  0.0624 -0.4104  0.1419
 1205TIP3    H125174   5.596   3.434   1.191  0.1423 -2.2434 -0.7702
 1205TIP3    H225175   5.591   3.448   1.342 -1.0544  0.3065 -0.9975
 1206TIP3   OH225176   2.093   2.549   7.402  0.2838  0.0699 -0.1784
 1206TIP3    H125177   2.173   2.544   7.351  1.3467  2.4282  1.1122
 1206TIP3    H225178   2.062   2.459   7.408  2.6286 -0.8478 -1.0264
 1207TIP3   OH225179   6.128   2.289   0.695 -0.1177  0.4765 -0.0020
 1207TIP3    H125180   6.211   2.293   0.742  0.8641 -0.6272 -1.5546
 1207TIP3    H225181   6.084   2.211   0.730  0.7917 -0.5785 -1.1231
 1208TIP3   OH225182   5.051   0.528   0.137 -0.0947 -0.3255  0.4100
 1208TIP3    H125183   4.981   0.576   0.181 -0.7572  0.5518 -1.4590
 1208TIP3    H225184   5.034   0.436   0.157 -2.3149 -0.2084 -0.6499
 1209TIP3   OH225185   1.914   1.518   2.288  0.2328 -0.1753 -0.4940
 1209TIP3    H125186   1.937   1.601   2.247 -0.7438  0.0631 -0.5756
 1209TIP3    H225187   1.880   1.543   2.374 -0.4656 -0.4488 -0.6843
 1210TIP3   OH225188   3.146   3.324   7.487  0.5967 -0.4975 -0.7110
 1210TIP3    H125189   3.088   3.399   7.476 -0.2346 -0.7823  1.2949
 1210TIP3    H225190   3.234   3.361   7.476  0.1394  0.3880 -1.5509
 1211TIP3   OH225191   6.394   4.150   8.141 -0.9983 -0.1718 -0.3453
 1211TIP3    H125192   6.431   4.067   8.171  0.2412  0.9199  1.2819
 1211TIP3    H225193   6.366   4.132   8.051  3.8539 -1.0618 -1.9958
 1212TIP3   OH225194   5.768   5.192   7.311 -0.1887 -0.1458 -0.0454
 1212TIP3    H125195   5.736   5.191   7.401 -0.6933 -0.7733 -0.2276
 1212TIP3    H225196   5.849   5.141   7.313  0.1181  0.3408  0.1610
 1213TIP3   OH225197   0.950   4.123   7.386 -0.2282 -0.0890  0.0246
 1213TIP3    H125198   0.911   4.101   7.301  0.4636 -0.8095 -0.1107
 1213TIP3    H225199   0.885   4.093   7.450 -0.7111  0.3699 -0.2368
 1214TIP3   OH225200   2.736   6.207   6.214  0.2711 -0.5393  0.1524
 1214TIP3    H125201   2.802   6.273   6.191 -0.5438  0.7649  1.3236
 1214TIP3    H225202   2.737   6.145   6.142  0.2501  1.4268 -1.6421
 1215TIP3   OH225203   6.668   6.008   0.401  0.2515 -0.6898  0.5166
 1215TIP3    H125204   6.745   5.954   0.421  1.4469  1.2179  1.2684
 1215TIP3    H225205   6.674   6.022   0.306  2.0811  1.1819  0.8509
 1216TIP3   OH225206   2.405   3.141   0.913 -0.7325  0.1169  0.1740
 1216TIP3    H125207   2.398   3.235   0.900 -2.5546 -0.2440 -1.9926
 1216TIP3    H225208   2.328   3.117   0.964 -0.7998 -0.3272 -0.1269
 1217TIP3   OH225209   2.418   6.226   8.079  0.5204 -0.0671 -0.8214
 1217TIP3    H125210   2.333   6.220   8.123  0.7084 -1.4273 -0.5861
 1217TIP3    H225211   2.415   6.309   8.031  0.5249  1.7988  2.1874
 1218TIP3   OH225212   1.781   5.999   7.548 -0.2883  0.1638 -0.5362
 1218TIP3    H125213   1.798   5.959   7.633  2.2880  0.4502 -0.8363
 1218TIP3    H225214   1.799   6.092   7.561 -0.1442  0.2517 -1.3216
 1219TIP3   OH225215   0.045   3.661   0.833  0.2753 -0.1746 -0.1527
 1219TIP3    H125216   0.059   3.686   0.924  0.9127  0.7480 -0.4817
 1219TIP3    H225217  -0.033   3.711   0.807 -1.1444 -1.9678  0.4278
 1220TIP3   OH225218   1.617   5.622   1.840 -0.2981  0.2306 -0.5158
 1220TIP3    H125219   1.712   5.628   1.841 -0.2043 -0.8729 -1.3091
 1220TIP3    H225220   1.597   5.535   1.874 -1.1590  1.2807  1.8684
 1221TIP3   OH225221   1.608   4.094   6.636 -0.0229 -0.3082 -0.2651
 1221TIP3    H125222   1.523   4.079   6.595  0.7434 -0.9521 -1.6660
 1221TIP3    H225223   1.635   4.008   6.669  0.0357 -0.0840  0.2831
 1222TIP3   OH225224   1.937   4.415   7.599 -0.1596 -0.8450  0.3590
 1222TIP3    H125225   1.938   4.320   7.586  1.7370 -0.8875  0.6123
 1222TIP3    H225226   1.940   4.426   7.694 -0.3770 -0.5322  0.3300
 1223TIP3   OH225227   6.602   4.232   7.787  0.6397  0.2812  0.5840
 1223TIP3    H125228   6.603   4.171   7.712  0.3465 -0.3243  1.0603
 1223TIP3    H225229   6.525   4.286   7.772 -0.1696 -0.6978  1.1021
 1224TIP3   OH225230   4.799   6.512   7.013  0.4746  0.1991  0.4604
 1224TIP3    H125231   4.829   6.536   6.925  1.0863 -0.6694  0.4265
 1224TIP3    H225232   4.875   6.523   7.069  0.1881  0.3756  0.8196
 1225TIP3   OH225233   5.411   3.954   6.931  0.4983 -0.1733  0.3825
 1225TIP3    H125234   5.373   4.011   6.998 -0.5981  0.5150 -0.7775
 1225TIP3    H225235   5.416   3.868   6.974 -1.4864 -0.0762  0.9416
 1226TIP3   OH225236   5.650   3.020   6.680  0.1401 -0.4346 -0.9341
 1226TIP3    H125237   5.598   2.941   6.663 -1.6263  0.7118 -1.0763
 1226TIP3    H225238   5.595   3.092   6.651  0.0588  1.1492  2.6772
 1227TIP3   OH225239   2.920   0.486   7.556  0.1320  0.2206 -0.1248
 1227TIP3    H125240   2.888   0.563   7.602 -0.0665 -0.8725  1.6389
 1227TIP3    H225241   3.015   0.487   7.569  0.0620 -0.1596  0.4536
 1228TIP3   OH225242   1.977   4.208   6.699 -0.0906 -0.4290 -0.0321
 1228TIP3    H125243   1.961   4.121   6.663 -2.3686 -0.3840  0.6895
 1228TIP3    H225244   1.911   4.264   6.658 -1.0050  0.1702  2.1019
 1229TIP3   OH225245   6.566   2.691   7.030 -0.3874 -0.1402 -0.4998
 1229TIP3    H125246   6.522   2.775   7.027 -1.3659 -0.5588  1.1876
 1229TIP3    H225247   6.515   2.638   7.091  1.0745 -1.4617 -0.3351
 1230TIP3   OH225248   1.309   2.395   0.620  0.2302  0.5694  0.4683
 1230TIP3    H125249   1.235   2.346   0.655  1.6522 -0.0640  2.7670
 1230TIP3    H225250   1.356   2.332   0.566 -0.0637  0.5464  0.2346
 1231TIP3   OH225251   2.720   3.975   7.248  0.4024  0.1167 -0.2282
 1231TIP3    H125252   2.657   4.003   7.182  0.5869 -1.4220 -1.0985
 1231TIP3    H225253   2.667   3.957   7.326  0.1586  1.7241  0.0088
 1232TIP3   OH225254   2.819   1.791   7.458  0.3630 -0.1343  0.0188
 1232TIP3    H125255   2.844   1.882   7.473  0.4639 -0.2290  0.4234
 1232TIP3    H225256   2.786   1.791   7.368  1.0197  0.1559 -0.2309
 1233TIP3   OH225257   0.848   1.594   1.033 -0.1022  0.3847 -0.2021
 1233TIP3    H125258   0.758   1.620   1.015  0.5042  2.0372 -1.0779
 1233TIP3    H225259   0.894   1.677   1.047  1.2565 -0.4361  0.3205
 1234TIP3   OH225260   1.290   2.730   7.865  0.1945 -0.2396 -0.2525
 1234TIP3    H125261   1.316   2.821   7.874  0.3346 -0.1704 -1.2470
 1234TIP3    H225262   1.311   2.708   7.774 -0.5589 -1.0335 -0.2472
 1235TIP3   OH225263   2.518   1.511   1.063 -0.2192  0.2602 -0.5405
 1235TIP3    H125264   2.573   1.581   1.028  0.7377 -1.1118 -1.9206
 1235TIP3    H225265   2.580   1.441   1.085 -1.2685 -0.6836 -0.5050
 1236TIP3   OH225266   0.195   4.672   0.410 -0.1631 -0.0420  0.1562
 1236TIP3    H125267   0.258   4.724   0.460  0.2731 -0.8490  0.4572
 1236TIP3    H225268   0.119   4.664   0.467 -1.1334  2.1013 -0.7335
 1237TIP3   OH225269   5.734   5.257   8.293 -0.1209 -0.9286  0.4640
 1237TIP3    H125270   5.806   5.296   8.243 -1.5955  0.3878 -0.7313
 1237TIP3    H225271   5.760   5.165   8.303  1.1922 -0.7599 -0.9187
 1238TIP3   OH225272   2.320   6.524   2.334  0.0466  0.0869  0.0082
 1238TIP3    H125273   2.248   6.469   2.303  0.8747 -1.2574  0.4272
 1238TIP3    H225274   2.278   6.605   2.362 -1.3184 -0.7128  0.3344
 1239TIP3   OH225275   4.539   3.555   0.473 -1.0268 -0.1383  0.0605
 1239TIP3    H125276   4.535   3.462   0.450  0.7519 -0.2392 -0.0207
 1239TIP3    H225277   4.552   3.600   0.389 -4.5294  0.5132 -0.2678
 1240TIP3   OH225278   1.375   6.687   1.457 -0.0012  0.3747 -0.6135
 1240TIP3    H125279   1.438   6.751   1.421  1.0628 -0.6752 -0.7003
 1240TIP3    H225280   1.357   6.719   1.545 -1.1776  1.9615 -1.3799
 1241TIP3   OH225281   2.400   0.865   7.455  0.2555  0.1190  0.2806
 1241TIP3    H125282   2.333   0.848   7.522 -0.4169 -0.3111 -0.4861
 1241TIP3    H225283   2.388   0.958   7.433  0.1389  0.1316  0.3979
 1242TIP3   OH225284   1.437   3.634   0.556  0.6874 -0.4798 -0.1280
 1242TIP3    H125285   1.452   3.542   0.536 -0.9794 -0.5673 -1.2190
 1242TIP3    H225286   1.500   3.655   0.625  2.5395 -1.8392 -1.3396
 1243TIP3   OH225287   1.950   0.512   1.368 -0.3572 -0.5727 -0.4686
 1243TIP3    H125288   1.936   0.417   1.378 -1.0887 -0.5296 -1.0190
 1243TIP3    H225289   1.885   0.552   1.426  0.9241 -0.3982  0.9129
 1244TIP3   OH225290   3.499   5.111   6.488 -0.5348 -0.2896 -0.0550
 1244TIP3    H125291   3.479   5.131   6.580  1.5017  0.2054  0.3161
 1244TIP3    H225292   3.413   5.107   6.446 -1.5258 -0.5491  1.8650
 1245TIP3   OH225293   5.591   4.051   6.738  0.8514 -0.3309 -0.1888
 1245TIP3    H125294   5.641   3.976   6.706 -1.6706 -1.1288 -2.6621
 1245TIP3    H225295   5.538   4.017   6.810  0.4422 -0.6859 -0.6544
 1246TIP3   OH225296   2.833   0.464   0.761  0.5616  0.3503  0.1363
 1246TIP3    H125297   2.742   0.478   0.784  0.0104 -0.6260 -1.2628
 1246TIP3    H225298   2.857   0.382   0.804  1.4249  1.5592  2.0931
 1247TIP3   OH225299   6.279   2.004   1.752  0.2808  0.5857 -0.2498
 1247TIP3    H125300   6.339   2.076   1.774 -0.3190  1.0881 -0.2390
 1247TIP3    H225301   6.216   2.002   1.824 -0.3153  0.7180 -0.7643
 1248TIP3   OH225302   2.763   2.969   2.041  0.2757  0.1395 -0.2145
 1248TIP3    H125303   2.847   3.004   2.070  0.2721 -0.3796  0.4438
 1248TIP3    H225304   2.755   2.884   2.084  0.4689 -0.9037 -2.0944
 1249TIP3   OH225305   6.422   6.835   7.121 -0.1330 -0.4018 -0.8477
 1249TIP3    H125306   6.448   6.743   7.110  0.9587 -0.4923  1.8258
 1249TIP3    H225307   6.327   6.835   7.107 -0.5552 -2.4321  1.3300
 1250TIP3   OH225308   2.832   6.178   0.318 -0.5765  0.3036 -0.1368
 1250TIP3    H125309   2.928   6.182   0.319 -0.5372 -0.5460 -0.2144
 1250TIP3    H225310   2.805   6.270   0.317  0.2107  0.5720  1.0402
 1251TIP3   OH225311   6.644   3.978   7.650  0.3749  0.0649 -0.6357
 1251TIP3    H125312   6.701   3.904   7.672 -0.1123  0.1700  1.1253
 1251TIP3    H225313   6.555   3.943   7.657  0.1122  0.9079  0.8206
 1252TIP3   OH225314   1.698   0.866   2.200 -0.3577 -1.0561  0.0874
 1252TIP3    H125315   1.775   0.922   2.197 -0.4630 -0.5419  3.3261
 1252TIP3    H225316   1.656   0.878   2.115  1.1912  1.4764 -0.4217
 1253TIP3   OH225317   1.622   0.269   0.248 -0.0982  0.3986 -0.5284
 1253TIP3    H125318   1.560   0.238   0.182 -0.7285 -1.1051  0.6945
 1253TIP3    H225319   1.569   0.278   0.328  0.7208  1.7768 -0.1050
 1254TIP3   OH225320   6.047   3.370   0.049 -0.0769 -0.5664  0.0201
 1254TIP3    H125321   5.984   3.354  -0.021  0.2344  0.6935 -0.5878
 1254TIP3    H225322   6.019   3.453   0.088  0.2790 -0.8007  0.7931
 1255TIP3   OH225323   1.384   4.577   1.888  0.4446  0.1585 -0.3254
 1255TIP3    H125324   1.295   4.607   1.909  0.3016 -0.2727 -0.2947
 1255TIP3    H225325   1.428   4.654   1.853 -0.2541  0.1283 -1.2935
 1256TIP3   OH225326   2.280   4.839   7.600 -0.1058  0.2324  0.4346
 1256TIP3    H125327   2.351   4.784   7.633  0.2082  0.3106 -0.0950
 1256TIP3    H225328   2.251   4.795   7.520 -1.0539 -0.1153  0.9496
 1257TIP3   OH225329   2.643   2.559   1.694 -0.1029  0.0930  0.3120
 1257TIP3    H125330   2.562   2.577   1.646  0.2921 -1.5948 -1.0897
 1257TIP3    H225331   2.617   2.559   1.786 -1.4268  0.8018 -0.0329
 1258TIP3   OH225332   5.401   2.448   1.446 -0.3936 -0.4641  0.1328
 1258TIP3    H125333   5.490   2.481   1.458 -0.1786 -1.0518  0.1650
 1258TIP3    H225334   5.346   2.526   1.454  0.2568  0.2974 -2.0363
 1259TIP3   OH225335   1.615   5.052   0.694 -0.0226 -0.0140  0.0564
 1259TIP3    H125336   1.557   4.976   0.694 -0.9212  0.6558  0.5738
 1259TIP3    H225337   1.688   5.027   0.751 -0.6337 -0.2519  0.7390
 1260TIP3   OH225338   5.710   2.494   1.532  0.4302  0.7817 -0.1650
 1260TIP3    H125339   5.654   2.529   1.601  0.4850  0.0925  0.2432
 1260TIP3    H225340   5.792   2.542   1.540  1.5524 -1.2964  2.2585
 1261TIP3   OH225341   4.334   2.733   1.693 -0.2389  0.2219 -0.2569
 1261TIP3    H125342   4.300   2.699   1.775 -0.0824  0.5035 -0.0733
 1261TIP3    H225343   4.371   2.819   1.715 -1.1459  0.7810 -0.8194
 1262TIP3   OH225344   5.003   6.552   7.942  0.4629  0.2207 -0.4507
 1262TIP3    H125345   5.033   6.492   7.873  0.9653  0.2987 -0.3022
 1262TIP3    H225346   5.029   6.509   8.024  1.9187  1.1869 -0.3578
 1263TIP3   OH225347   1.635   2.571   8.370 -0.5371 -0.5628 -0.3269
 1263TIP3    H125348   1.601   2.630   8.438  1.2655  0.1082  0.0485
 1263TIP3    H225349   1.600   2.607   8.288 -0.0061  0.6652 -0.0400
 1264TIP3   OH225350   5.211   3.224   0.486  0.0054  0.5071 -0.3419
 1264TIP3    H125351   5.125   3.258   0.510 -1.0585  0.2281 -3.3429
 1264TIP3    H225352   5.193   3.152   0.426  2.3425 -0.7078  0.2831
 1265TIP3   OH225353   3.415   0.409   6.389 -0.1841  0.6254 -0.1134
 1265TIP3    H125354   3.435   0.372   6.303  1.0550  2.4494 -0.6649
 1265TIP3    H225355   3.438   0.340   6.451  1.8762  0.3479 -1.1089
 1266TIP3   OH225356   2.838   2.781   1.734 -0.3027 -0.1132 -0.2855
 1266TIP3    H125357   2.848   2.747   1.823 -0.2520  0.8538  0.0952
 1266TIP3    H225358   2.800   2.708   1.685 -0.7369 -0.5289  0.6304
 1267TIP3   OH225359   0.647   3.895   1.039 -0.2474  0.0121  0.8877
 1267TIP3    H125360   0.656   3.970   0.980  0.3377 -0.1768  0.7244
 1267TIP3    H225361   0.716   3.835   1.011 -0.0209 -0.1225  1.7031
 1268TIP3   OH225362   5.790   5.718   0.879 -0.1649  0.5567  0.7775
 1268TIP3    H125363   5.856   5.752   0.939  0.3271  1.4585 -0.2446
 1268TIP3    H225364   5.715   5.698   0.935  0.8641 -0.2525  1.9234
 1269TIP3   OH225365   5.881   6.185   1.074 -0.0298 -0.3147 -0.1978
 1269TIP3    H125366   5.910   6.268   1.038  0.5728 -1.0487 -1.4942
 1269TIP3    H225367   5.838   6.207   1.156 -2.7253  1.6296 -1.9859
 1270TIP3   OH225368   0.310   6.162   6.361  0.0589 -0.2326  0.1611
 1270TIP3    H125369   0.303   6.194   6.451 -1.1473 -1.3622  0.4924
 1270TIP3    H225370   0.220   6.143   6.334  0.5750 -1.8641 -0.5402
 1271TIP3   OH225371   3.856   1.262   2.797  0.3565  0.5056 -0.3139
 1271TIP3    H125372   3.857   1.167   2.790  0.4588  0.5784 -1.3752
 1271TIP3    H225373   3.837   1.293   2.708 -2.1686  1.4327  0.4502
 1272TIP3   OH225374   0.565   1.961   2.208  0.0882  0.0438 -0.1623
 1272TIP3    H125375   0.578   2.055   2.195 -0.8978  0.0331 -1.3632
 1272TIP3    H225376   0.470   1.949   2.205  0.2375 -1.2882 -2.6746
 1273TIP3   OH225377   1.712   3.915   0.389 -0.3712  0.5462  0.0634
 1273TIP3    H125378   1.670   3.830   0.378  0.5548 -0.0098  0.7291
 1273TIP3    H225379   1.644   3.978   0.367 -1.2028 -0.3539 -0.0086
 1274TIP3   OH225380   1.499   6.027   8.627  0.0171 -0.2120  0.3619
 1274TIP3    H125381   1.528   6.066   8.544  1.7442  0.3572  1.1899
 1274TIP3    H225382   1.456   6.099   8.673 -0.2992 -0.3409  0.2710
 1275TIP3   OH225383   2.690   4.431   0.927  0.1662 -0.2285 -0.4969
 1275TIP3    H125384   2.700   4.493   1.000 -0.0276 -0.9014  0.1143
 1275TIP3    H225385   2.626   4.368   0.958 -0.1415 -0.3582 -1.3787
 1276TIP3   OH225386   5.256   6.559   2.459 -0.5422  0.6184  0.3452
 1276TIP3    H125387   5.213   6.494   2.404 -0.3440  0.3314  0.5291
 1276TIP3    H225388   5.300   6.617   2.396  1.8323 -1.1682  0.2105
 1277TIP3   OH225389   4.887   0.711   8.553 -0.5182  0.4595 -0.3896
 1277TIP3    H125390   4.843   0.658   8.486 -2.1152  0.2395  0.7736
 1277TIP3    H225391   4.834   0.698   8.632  0.6843  1.5770  0.6390
 1278TIP3   OH225392   1.802   1.992   7.036  0.0170  0.4985 -0.3820
 1278TIP3    H125393   1.853   1.943   6.971  2.3274  0.7323  1.1388
 1278TIP3    H225394   1.837   2.081   7.032 -0.6565  0.8085  0.3706
 1279TIP3   OH225395   3.987   5.568   7.584  0.0538 -0.4763  0.1830
 1279TIP3    H125396   4.028   5.556   7.498 -0.4621  0.6320 -0.2406
 1279TIP3    H225397   4.051   5.617   7.635 -0.1359 -0.0449  0.0120
 1280TIP3   OH225398   1.766   0.661   1.507 -0.1937  0.1960 -0.2741
 1280TIP3    H125399   1.714   0.738   1.483 -1.1167  0.0279  1.0617
 1280TIP3    H225400   1.830   0.694   1.570 -0.9184 -0.1792  0.6960
 1281TIP3   OH225401   0.602   4.479   8.331 -0.0656  0.7218  0.0377
 1281TIP3    H125402   0.692   4.445   8.331 -1.1183 -2.3856  0.9698
 1281TIP3    H225403   0.566   4.449   8.247 -0.7633  0.3855  0.4563
 1282TIP3   OH225404   2.214   6.699   1.899  0.0554  0.4968  0.1484
 1282TIP3    H125405   2.140   6.691   1.839 -1.0248 -0.4228  1.5332
 1282TIP3    H225406   2.242   6.608   1.914  1.4028  0.8237 -0.2515
 1283TIP3   OH225407   2.046   4.485   6.699 -0.1511  0.0919 -0.3359
 1283TIP3    H125408   2.017   4.396   6.685 -0.9362  0.5877 -2.1162
 1283TIP3    H225409   2.141   4.481   6.690 -0.0036 -0.8059  1.2501
 1284TIP3   OH225410   1.361   4.879   2.397 -0.1909 -0.3644  0.7445
 1284TIP3    H125411   1.319   4.889   2.311  1.5207  0.1816 -0.0783
 1284TIP3    H225412   1.368   4.968   2.431  1.5900 -0.2475  0.1814
 1285TIP3   OH225413   6.158   5.576   0.772 -0.1413 -0.3954 -0.2326
 1285TIP3    H125414   6.154   5.644   0.705 -1.1126 -1.7780 -1.6597
 1285TIP3    H225415   6.130   5.619   0.853 -0.7065  0.8911 -1.0859
 1286TIP3   OH225416   2.875   0.098   0.162  0.0341  0.7053 -0.2804
 1286TIP3    H125417   2.792   0.116   0.119 -0.2694 -2.0678 -1.0535
 1286TIP3    H225418   2.941   0.113   0.094  0.0724  1.5888 -0.0623
 1287TIP3   OH225419   1.080   5.953   0.798  0.1031  0.6861  0.2419
 1287TIP3    H125420   1.060   5.866   0.831 -0.2187  0.7912  0.3242
 1287TIP3    H225421   1.121   5.938   0.713 -0.3422  0.4727  0.0661
 1288TIP3   OH225422   1.308   3.013   7.944  0.3564  0.3612  0.3285
 1288TIP3    H125423   1.296   3.048   8.032 -0.8176 -0.1869  0.4074
 1288TIP3    H225424   1.232   3.044   7.896  0.1251 -0.7342 -0.0323
 1289TIP3   OH225425   5.969   0.642   0.561 -0.6439  0.0680  0.4077
 1289TIP3    H125426   5.923   0.642   0.645 -1.5571 -0.6059 -0.0770
 1289TIP3    H225427   6.044   0.584   0.573 -0.6373  0.1641  0.8242
 1290TIP3   OH225428   3.177   6.821   7.864 -0.1227 -0.9179 -0.3205
 1290TIP3    H125429   3.136   6.754   7.808 -1.8989  0.0569 -0.2670
 1290TIP3    H225430   3.140   6.806   7.951  2.6824 -2.4705  0.7504
 1291TIP3   OH225431   1.475   6.475   7.064  0.6822  0.1128  0.1191
 1291TIP3    H125432   1.465   6.528   6.985 -2.4808 -2.6019 -1.5896
 1291TIP3    H225433   1.404   6.503   7.121  0.9008 -0.1775  0.5375
 1292TIP3   OH225434   2.186   4.426   2.085 -0.5479  0.5685 -0.3940
 1292TIP3    H125435   2.096   4.425   2.052 -0.5836  0.7089 -0.3031
 1292TIP3    H225436   2.177   4.454   2.176 -0.3511  1.2188 -0.5695
 1293TIP3   OH225437   3.329   1.402   7.510 -0.0089  0.3682  0.3901
 1293TIP3    H125438   3.303   1.474   7.567 -1.0871  2.0811 -2.1336
 1293TIP3    H225439   3.316   1.435   7.421  1.4701 -2.2222 -0.9009
 1294TIP3   OH225440   3.622   0.883   8.000 -0.4282 -0.6738  0.0791
 1294TIP3    H125441   3.686   0.872   7.930  0.0960 -1.5131  0.6780
 1294TIP3    H225442   3.580   0.798   8.009 -0.2671 -0.6709  0.9926
 1295TIP3   OH225443   2.422   5.546   7.135 -0.4997 -0.1905 -0.5611
 1295TIP3    H125444   2.399   5.569   7.226  0.8406 -1.6164  0.1844
 1295TIP3    H225445   2.377   5.612   7.082 -2.2438  0.0147  1.0615
 1296TIP3   OH225446   4.027   1.994   2.398  0.3318 -0.2680 -0.0266
 1296TIP3    H125447   4.096   2.014   2.334  1.0192  2.2355  1.3540
 1296TIP3    H225448   4.052   2.044   2.476 -3.5497  1.5780  0.2378
 1297TIP3   OH225449   0.856   1.366   1.176  0.4205 -0.1564 -0.1280
 1297TIP3    H125450   0.859   1.449   1.128  0.3707 -0.8364 -1.3632
 1297TIP3    H225451   0.762   1.346   1.182  0.4951 -1.2279 -1.8886
 1298TIP3   OH225452   5.811   5.926   2.480  0.5504 -1.0390  0.1735
 1298TIP3    H125453   5.758   5.957   2.554 -0.6149  1.0218 -1.4281
 1298TIP3    H225454   5.901   5.931   2.511  0.3351  2.4990  0.6239
 1299TIP3   OH225455   5.116   3.017   1.097  0.1765  0.0085 -0.1187
 1299TIP3    H125456   5.086   2.929   1.078  0.2718 -0.1718  0.5543
 1299TIP3    H225457   5.199   3.025   1.048  0.9685 -0.8278  1.0288
 1300TIP3   OH225458   5.305   3.519   7.658 -0.0133 -0.8734  0.4574
 1300TIP3    H125459   5.224   3.468   7.649 -1.9167  1.3453  3.2649
 1300TIP3    H225460   5.323   3.518   7.752  2.2782  0.1620  0.0853
 1301TIP3   OH225461   6.440   6.776   1.611  0.1584  0.1345 -0.0778
 1301TIP3    H125462   6.407   6.693   1.576  0.4405 -0.0282  0.0395
 1301TIP3    H225463   6.362   6.822   1.641  0.1752 -1.0337  1.8926
 1302TIP3   OH225464   3.598   5.224   0.321  0.0566  0.0102  0.1714
 1302TIP3    H125465   3.538   5.150   0.328  1.2301 -0.8613  1.3688
 1302TIP3    H225466   3.558   5.293   0.375 -0.1056 -0.3998  0.5739
 1303TIP3   OH225467   0.178   6.343   6.881  0.5348  0.2570  0.5074
 1303TIP3    H125468   0.150   6.287   6.808  0.5132 -1.6766  1.9363
 1303TIP3    H225469   0.179   6.431   6.843 -0.5684 -0.5175 -1.5210
 1304TIP3   OH225470   1.192   1.929   8.620 -0.0714  0.3330  0.5034
 1304TIP3    H125471   1.244   1.849   8.628 -0.2423  0.2886  1.3247
 1304TIP3    H225472   1.120   1.906   8.562  0.0096 -0.0465  0.5509
 1305TIP3   OH225473   1.240   5.561   1.928 -0.2222  0.1892 -0.5123
 1305TIP3    H125474   1.240   5.505   2.006  0.1233 -0.7640 -1.1790
 1305TIP3    H225475   1.163   5.533   1.879 -1.2571  1.7667  0.1447
 1306TIP3   OH225476   6.594   1.088   8.594  0.1329  0.1212  0.5890
 1306TIP3    H125477   6.629   1.034   8.523 -0.0646 -0.2730  0.7911
 1306TIP3    H225478   6.522   1.136   8.553  0.7572  0.7803  0.2244
 1307TIP3   OH225479   6.044   3.332   2.286 -0.7306  0.1996 -0.0635
 1307TIP3    H125480   6.095   3.315   2.365  1.1625 -0.0893 -1.2778
 1307TIP3    H225481   5.977   3.394   2.313  1.4348  2.1411  1.2664
 1308TIP3   OH225482   6.150   3.950   6.622  0.0937 -0.3269  0.2242
 1308TIP3    H125483   6.188   3.862   6.620 -1.2004 -0.8998 -0.5980
 1308TIP3    H225484   6.163   3.980   6.712  4.0219  0.2644 -0.3688
 1309TIP3   OH225485   1.104   0.821   1.662  0.1017 -0.1546 -0.5809
 1309TIP3    H125486   1.124   0.765   1.587 -1.5018  0.4202 -1.4845
 1309TIP3    H225487   1.130   0.909   1.635 -0.6993  0.0934 -0.5722
 1310TIP3   OH225488   0.816   4.204   2.299 -0.3660  0.0869 -0.2084
 1310TIP3    H125489   0.734   4.253   2.304 -0.5519 -0.2706  0.3422
 1310TIP3    H225490   0.797   4.129   2.243  0.0289  0.8416 -1.3810
 1311TIP3   OH225491   3.627   3.699   7.545 -0.2748 -0.1516 -0.4226
 1311TIP3    H125492   3.614   3.616   7.498 -2.6932 -0.7590  1.1414
 1311TIP3    H225493   3.704   3.683   7.599 -0.7160 -1.4267 -0.1251
 1312TIP3   OH225494   3.941   3.419   6.820 -0.6702  0.1899 -0.5272
 1312TIP3    H125495   3.950   3.386   6.731 -0.6800 -3.3242  0.6224
 1312TIP3    H225496   4.009   3.485   6.828  0.4086 -0.5739 -2.6502
 1313TIP3   OH225497   6.197   2.351   0.161  0.0324 -0.0962 -0.1920
 1313TIP3    H125498   6.285   2.314   0.152 -0.6557 -1.5191 -1.7253
 1313TIP3    H225499   6.190   2.415   0.090 -0.1093  0.1679  0.0566
 1314TIP3   OH225500   1.319   6.568   8.538  0.2667 -0.0337  0.1253
 1314TIP3    H125501   1.252   6.637   8.536  1.8919  1.6263  0.1926
 1314TIP3    H225502   1.345   6.557   8.447  2.5776  2.1796  0.4018
 1315TIP3   OH225503   2.835   1.818   2.103 -0.1963 -0.4161  0.0176
 1315TIP3    H125504   2.810   1.902   2.140 -0.4864 -0.0717 -0.9430
 1315TIP3    H225505   2.766   1.758   2.133 -0.5181 -0.1046 -0.0865
 1316TIP3   OH225506   2.756   0.724   8.091  0.6445 -0.0340  0.5589
 1316TIP3    H125507   2.666   0.739   8.062  0.3112 -1.9512  0.4248
 1316TIP3    H225508   2.795   0.811   8.095 -0.2929  0.6445 -2.4059
 1317TIP3   OH225509   4.925   4.235   7.887 -0.0067 -0.4252 -0.2902
 1317TIP3    H125510   4.893   4.148   7.866 -1.0516 -0.3701  0.9864
 1317TIP3    H225511   5.019   4.224   7.899 -0.1277 -1.3628 -0.1556
 1318TIP3   OH225512   5.366   0.018   7.336 -0.1078 -0.2350  0.0532
 1318TIP3    H125513   5.396   0.085   7.397  1.2166 -1.1444  0.4224
 1318TIP3    H225514   5.275   0.042   7.318  0.3679  1.7351  0.0629
 1319TIP3   OH225515   4.297   5.063   7.161 -0.4293  0.6551 -0.3163
 1319TIP3    H125516   4.274   5.155   7.150 -0.6052  0.6907  0.3493
 1319TIP3    H225517   4.278   5.023   7.076  0.6214  1.4273 -0.9465
 1320TIP3   OH225518   4.531   6.404   7.003 -0.3778  0.2554 -0.2766
 1320TIP3    H125519   4.625   6.416   7.013 -0.2594 -0.3286 -0.6774
 1320TIP3    H225520   4.521   6.351   6.924 -0.9701 -0.7905  0.4776
 1321TIP3   OH225521   3.301   4.451   8.018 -0.0056  0.1900 -0.1621
 1321TIP3    H125522   3.294   4.395   7.940 -1.7773  1.7984 -1.2520
 1321TIP3    H225523   3.324   4.391   8.088  0.8032 -1.4631 -1.7496
 1322TIP3   OH225524   1.524   0.714   7.742 -0.2649 -0.5952  0.1544
 1322TIP3    H125525   1.514   0.639   7.800  0.4457  1.5176  3.2531
 1322TIP3    H225526   1.438   0.755   7.740  0.0116  0.0406  0.8151
 1323TIP3   OH225527   1.566   3.716   8.341  1.1936 -0.3049  0.5019
 1323TIP3    H125528   1.592   3.806   8.318  0.8768  0.1400  1.7849
 1323TIP3    H225529   1.612   3.699   8.424 -0.1240 -0.6631  1.1852
 1324TIP3   OH225530   5.999   1.151   7.404 -0.5775 -0.4271 -0.2279
 1324TIP3    H125531   6.036   1.113   7.484 -1.5686 -1.7437 -0.3562
 1324TIP3    H225532   6.021   1.088   7.335 -1.8219 -0.5478 -0.5439
 1325TIP3   OH225533   5.022   4.062   0.594 -0.9138  0.3139 -0.5235
 1325TIP3    H125534   5.001   4.025   0.508 -3.3455 -0.2247  0.2536
 1325TIP3    H225535   5.109   4.028   0.614 -1.7161 -2.3808 -1.2815
 1326TIP3   OH225536   3.011   3.260   1.041 -0.7332  0.5275  0.0840
 1326TIP3    H125537   3.087   3.202   1.052 -2.1466 -1.2842  0.7785
 1326TIP3    H225538   3.049   3.346   1.020  1.4532 -0.6635 -1.2456
 1327TIP3   OH225539   6.596   0.236   7.561  0.2214 -0.0140 -0.5056
 1327TIP3    H125540   6.583   0.162   7.501 -1.4117  1.5961 -2.2996
 1327TIP3    H225541   6.616   0.310   7.503 -3.6529  2.1484  0.6104
 1328TIP3   OH225542   1.076   5.400   1.179  0.3859 -0.8283  0.3161
 1328TIP3    H125543   1.069   5.495   1.170 -2.0471 -0.9351  0.2785
 1328TIP3    H225544   1.076   5.367   1.088 -5.5874 -1.0268 -0.0218
 1329TIP3   OH225545   6.012   4.682   7.222 -0.8024  0.5580 -0.1874
 1329TIP3    H125546   6.080   4.678   7.154 -0.6074  2.5144 -0.1655
 1329TIP3    H225547   6.038   4.615   7.286  0.7841  0.8658 -0.4720
 1330TIP3   OH225548   2.099   1.393   1.514 -0.1226 -0.1677  0.1341
 1330TIP3    H125549   2.169   1.418   1.576 -0.6718  2.3886 -0.1865
 1330TIP3    H225550   2.024   1.446   1.541 -1.4841 -1.7113 -0.5227
 1331TIP3   OH225551   2.722   5.829   0.084 -0.2325 -0.1854 -0.3519
 1331TIP3    H125552   2.658   5.779   0.034  0.5711  0.0315 -1.6611
 1331TIP3    H225553   2.729   5.912   0.037  0.1385  0.2520  0.4524
 1332TIP3   OH225554   3.793   3.692   7.221 -0.4723  0.1607 -0.0293
 1332TIP3    H125555   3.761   3.638   7.293 -1.0459  1.3549  0.6333
 1332TIP3    H225556   3.798   3.632   7.146  0.1551 -1.0965  0.9947
 1333TIP3   OH225557   3.669   5.199   7.173 -0.8996  0.7676  0.4703
 1333TIP3    H125558   3.692   5.184   7.264 -0.0578  3.6204  0.8214
 1333TIP3    H225559   3.741   5.160   7.123  0.0541  1.5891  1.1731
 1334TIP3   OH225560   4.044   0.433   7.397  0.2086 -0.2093 -0.2086
 1334TIP3    H125561   4.013   0.388   7.318  3.6659 -1.5076 -0.9946
 1334TIP3    H225562   4.100   0.369   7.441 -1.1784  0.6480  3.1452
 1335TIP3   OH225563   2.774   3.882   8.267 -0.5243 -0.1281 -0.3128
 1335TIP3    H125564   2.787   3.793   8.236 -0.2934 -0.3703  0.4394
 1335TIP3    H225565   2.860   3.924   8.255 -0.9302  0.3359 -1.6985
 1336TIP3   OH225566   0.870   2.598   0.890 -0.1863 -0.1524 -0.0309
 1336TIP3    H125567   0.894   2.629   0.977  0.8096  0.9518 -0.6681
 1336TIP3    H225568   0.923   2.651   0.830 -1.0064 -0.7414 -1.3216
 1337TIP3   OH225569   0.640   3.456   7.469 -0.3954 -0.2000  0.1256
 1337TIP3    H125570   0.730   3.435   7.494 -1.1698 -2.2055  1.5346
 1337TIP3    H225571   0.646   3.485   7.378  1.5973 -0.9358 -0.0245
 1338TIP3   OH225572   4.570   5.599   8.486 -0.0504 -0.8417  0.4422
 1338TIP3    H125573   4.663   5.582   8.475  0.4981  0.6101  2.2161
 1338TIP3    H225574   4.554   5.676   8.430  0.2228 -0.1106  1.3391
 1339TIP3   OH225575   6.581   1.615   7.471  0.2876 -0.4464  0.1387
 1339TIP3    H125576   6.671   1.605   7.504  0.6684  1.9737 -0.0187
 1339TIP3    H225577   6.530   1.642   7.547 -0.1647 -0.9747  0.0367
 1340TIP3   OH225578   2.539   1.145   0.262 -0.4698 -0.0909  0.3583
 1340TIP3    H125579   2.618   1.198   0.276 -1.1922  0.8292  1.0848
 1340TIP3    H225580   2.572   1.059   0.236  0.8007  0.0631  1.3633
 1341TIP3   OH225581   6.456   2.187   1.854  0.0767  0.0334 -0.3041
 1341TIP3    H125582   6.527   2.186   1.791  0.8709  1.9187  0.4780
 1341TIP3    H225583   6.468   2.269   1.903 -0.3878 -1.3970  2.4132
 1342TIP3   OH225584   6.597   5.848   7.461 -0.3101 -0.0644 -0.3276
 1342TIP3    H125585   6.633   5.760   7.454 -0.4150 -0.2448  1.2242
 1342TIP3    H225586   6.543   5.847   7.540 -0.2193  1.4182 -0.2084
 1343TIP3   OH225587   0.422   3.001   7.435 -0.4861  0.0996  0.5210
 1343TIP3    H125588   0.494   3.018   7.495  0.5695  0.5314 -0.8088
 1343TIP3    H225589   0.351   2.970   7.490  0.2533  1.0120  2.0377
 1344TIP3   OH225590   1.401   5.368   1.144 -0.7319 -0.6378  0.0014
 1344TIP3    H125591   1.351   5.289   1.165  0.7439 -1.2297  1.5410
 1344TIP3    H225592   1.485   5.336   1.111 -0.3727  0.2845 -0.0097
 1345TIP3   OH225593   3.350   4.053   7.856 -0.0383 -0.0856  0.1673
 1345TIP3    H125594   3.415   3.991   7.890  1.3203  1.1740 -0.0959
 1345TIP3    H225595   3.305   4.085   7.935  0.6357  0.1230  0.4670
 1346TIP3   OH225596   0.981   5.913   1.396  0.1081 -0.1040  0.5306
 1346TIP3    H125597   1.070   5.912   1.431  0.6676 -0.9181 -0.8549
 1346TIP3    H225598   0.973   5.998   1.353  0.4679 -0.2946  0.0748
 1347TIP3   OH225599   1.076   6.263   1.797 -0.3788 -0.0760 -0.5186
 1347TIP3    H125600   1.145   6.202   1.774  0.2646  0.6275 -0.5013
 1347TIP3    H225601   1.085   6.275   1.892 -0.4493  0.1039 -0.5337
 1348TIP3   OH225602   5.158   4.167   8.008 -0.1966 -0.4586 -0.0523
 1348TIP3    H125603   5.140   4.245   8.059  0.1273 -0.2935 -0.1838
 1348TIP3    H225604   5.244   4.183   7.969  0.2983 -1.2676  0.6631
 1349TIP3   OH225605   3.180   2.927   2.371  0.6174  0.1742 -0.1573
 1349TIP3    H125606   3.135   3.010   2.387  0.9879 -0.1234  2.9534
 1349TIP3    H225607   3.269   2.952   2.348  0.5581  0.6551  0.1330
 1350TIP3   OH225608   0.276   3.549   1.022 -0.4430  0.2591  0.1107
 1350TIP3    H125609   0.224   3.542   1.102 -0.1465  0.0125  0.2828
 1350TIP3    H225610   0.306   3.460   1.005 -0.9476  0.2117 -0.5741
 1351TIP3   OH225611   2.493   6.053   8.298  0.3583 -0.2701 -1.0635
 1351TIP3    H125612   2.416   6.094   8.259  0.0929  0.8157  0.5064
 1351TIP3    H225613   2.509   5.975   8.244 -2.8946 -1.5506 -0.3969
 1352TIP3   OH225614   3.905   4.117   7.097  0.8533 -0.1471 -0.2781
 1352TIP3    H125615   3.984   4.162   7.126  0.7823 -0.3956  0.3054
 1352TIP3    H225616   3.867   4.081   7.176  0.1910 -0.0980 -0.5646
 1353TIP3   OH225617   4.425   5.991   1.514 -0.1356  0.6503  0.0123
 1353TIP3    H125618   4.507   5.985   1.466  0.0551 -1.0974  0.4754
 1353TIP3    H225619   4.449   5.973   1.605 -1.1127 -0.7050  0.0356
 1354TIP3   OH225620   3.931   5.060   8.220  0.4398  0.4839 -0.5384
 1354TIP3    H125621   3.897   5.145   8.248  1.2401  1.2868 -1.8899
 1354TIP3    H225622   3.970   5.077   8.134  0.5576 -1.2732 -0.8678
 1355TIP3   OH225623   6.678   1.736   7.165  0.1547 -0.2724 -0.0657
 1355TIP3    H125624   6.725   1.731   7.082 -1.0854 -2.1370 -0.7378
 1355TIP3    H225625   6.694   1.651   7.207 -2.4921 -0.9877 -0.3200
 1356TIP3   OH225626   5.082   0.936   0.676  0.4122 -0.4057  0.4250
 1356TIP3    H125627   5.045   0.881   0.745 -0.8130  1.0378  0.9798
 1356TIP3    H225628   5.124   1.008   0.723  0.1910  0.2176 -0.3113
 1357TIP3   OH225629   2.954   0.115   8.618 -0.2824  0.1366 -0.1250
 1357TIP3    H125630   2.872   0.073   8.592 -0.2823 -0.3987  0.6866
 1357TIP3    H225631   2.933   0.208   8.624 -1.0441 -0.0763  0.8226
 1358TIP3   OH225632   5.755   4.555   0.257  0.2452 -0.2976 -0.1390
 1358TIP3    H125633   5.794   4.639   0.234 -0.3932 -0.3161 -1.3710
 1358TIP3    H225634   5.830   4.496   0.269  0.6532  0.1025 -0.6697
 1359TIP3   OH225635   1.592   2.156   7.204 -0.1842  0.1908  0.2344
 1359TIP3    H125636   1.499   2.162   7.224 -1.0676 -1.8467 -2.6315
 1359TIP3    H225637   1.624   2.246   7.210 -2.6931  1.1923 -0.1778
 1360TIP3   OH225638   2.325   1.803   1.600  0.2903  0.3058  0.5401
 1360TIP3    H125639   2.380   1.881   1.595  0.0719  0.4090 -0.5333
 1360TIP3    H225640   2.237   1.837   1.616 -0.0994  0.4478 -1.5500
 1361TIP3   OH225641   5.337   0.955   2.534 -0.1073  0.5465  0.6857
 1361TIP3    H125642   5.404   1.015   2.503  1.9447 -1.9214  0.0476
 1361TIP3    H225643   5.378   0.908   2.607 -1.4656 -0.3588  0.9078
 1362TIP3   OH225644   2.493   2.360   6.327 -0.4301 -0.0477 -0.0724
 1362TIP3    H125645   2.501   2.434   6.387  2.1231  1.9344 -2.5416
 1362TIP3    H225646   2.414   2.378   6.277 -1.0834 -0.2725  0.8567
 1363TIP3   OH225647   1.299   6.447   7.782  0.2971  0.1216 -0.3673
 1363TIP3    H125648   1.349   6.528   7.793  0.4907  0.2508 -2.0257
 1363TIP3    H225649   1.357   6.389   7.732 -0.7538 -0.1432 -1.3247
 1364TIP3   OH225650   6.132   5.699   8.062 -0.0011  0.0762 -0.5381
 1364TIP3    H125651   6.168   5.679   7.976 -0.7827 -2.3468 -0.3764
 1364TIP3    H225652   6.208   5.709   8.119  0.5217 -1.9180 -0.8246
 1365TIP3   OH225653   2.868   0.009   7.649 -0.1507  0.1861 -0.0404
 1365TIP3    H125654   2.788   0.005   7.702 -0.1225  1.2064  0.1029
 1365TIP3    H225655   2.837  -0.010   7.560 -0.3415 -0.6482  0.1932
 1366TIP3   OH225656   5.958   4.162   8.304  0.6176  0.4305 -0.4657
 1366TIP3    H125657   5.966   4.204   8.218  1.0103 -2.6780 -2.0710
 1366TIP3    H225658   5.907   4.224   8.356  0.5124  2.5095 -2.8395
 1367TIP3   OH225659   4.943   6.390   7.579 -0.1449  0.5933 -0.4678
 1367TIP3    H125660   4.937   6.342   7.662  1.3364 -0.6183 -1.0090
 1367TIP3    H225661   4.937   6.322   7.512 -1.1343  1.5394 -1.3630
 1368TIP3   OH225662   4.681   4.661   1.939 -0.1661 -0.3950  0.8632
 1368TIP3    H125663   4.616   4.604   1.897 -1.2826  1.5041 -0.1440
 1368TIP3    H225664   4.743   4.681   1.870  0.6624 -0.9733  1.4237
 1369TIP3   OH225665   3.556   2.537   0.641  0.2962 -0.1740 -0.0875
 1369TIP3    H125666   3.470   2.581   0.640 -0.6156 -1.8594 -1.2763
 1369TIP3    H225667   3.615   2.600   0.599 -0.1619  1.2943  1.3583
 1370TIP3   OH225668   0.522   5.632   2.029 -0.0345  0.0263 -0.2329
 1370TIP3    H125669   0.526   5.539   2.007 -1.7964 -0.3070  0.6720
 1370TIP3    H225670   0.532   5.678   1.945  0.9536 -0.9541 -0.6703
 1371TIP3   OH225671   2.649   5.807   0.706  0.2078 -0.0509 -0.0671
 1371TIP3    H125672   2.584   5.836   0.642  1.6972  0.5991 -1.3788
 1371TIP3    H225673   2.702   5.743   0.659  0.7024 -0.3488  0.8735
 1372TIP3   OH225674   6.673   4.639   8.629 -0.1400 -0.4855 -0.5455
 1372TIP3    H125675   6.698   4.710   8.570  0.0558  0.2146  0.3601
 1372TIP3    H225676   6.718   4.562   8.594  0.7611  0.1183 -0.7406
 1373TIP3   OH225677   5.116   1.970   6.549 -0.4066  0.2359  0.1928
 1373TIP3    H125678   5.115   2.066   6.549  0.2642  0.3064  2.5578
 1373TIP3    H225679   5.065   1.945   6.626 -1.3658 -1.3763 -0.9014
 1374TIP3   OH225680   0.993   1.687   0.747 -0.0242  0.6409 -0.5747
 1374TIP3    H125681   0.904   1.652   0.758  0.2483  0.0657 -0.1512
 1374TIP3    H225682   0.990   1.733   0.664 -0.8697  1.0840 -0.3120
 1375TIP3   OH225683   2.360   5.646   0.811  0.1057  0.2496  0.1957
 1375TIP3    H125684   2.355   5.605   0.724 -0.1130  2.7263 -1.0440
 1375TIP3    H225685   2.440   5.610   0.849 -0.1200 -1.3755 -0.7402
 1376TIP3   OH225686   1.208   0.996   2.659 -0.1256 -0.0702  0.9559
 1376TIP3    H125687   1.237   1.005   2.568 -1.0433  0.4093  0.7015
 1376TIP3    H225688   1.282   1.026   2.711 -1.1620  4.3919  0.2847
 1377TIP3   OH225689   4.374   4.016   6.895 -0.2462 -0.0910  0.4635
 1377TIP3    H125690   4.343   4.107   6.891 -0.7438 -0.2940 -0.8382
 1377TIP3    H225691   4.469   4.023   6.888 -0.2112  0.3721  1.2961
 1378TIP3   OH225692   6.290   1.851   8.055 -0.3089 -0.4836  0.2133
 1378TIP3    H125693   6.362   1.788   8.054 -1.0946 -1.7010 -4.3467
 1378TIP3    H225694   6.332   1.935   8.037  0.2390 -0.7358  0.2820
 1379TIP3   OH225695   3.929   5.691   1.769  0.1784  0.5976  0.0163
 1379TIP3    H125696   4.018   5.727   1.778  0.4027  0.1511 -0.3739
 1379TIP3    H225697   3.883   5.720   1.848  1.6803 -2.1019  2.0691
 1380TIP3   OH225698   6.753   0.035   0.093 -0.2256  0.4966  0.4679
 1380TIP3    H125699   6.839  -0.007   0.088 -1.0904 -1.2234 -2.5839
 1380TIP3    H225700   6.723   0.016   0.182  0.4633 -3.4957  0.0523
 1381TIP3   OH225701   2.531   6.298   2.282  1.0908  0.2860  0.1381
 1381TIP3    H125702   2.583   6.308   2.362 -1.1945 -3.3278  2.3059
 1381TIP3    H225703   2.466   6.368   2.288  1.6471  0.7686  0.8137
 1382TIP3   OH225704   3.745   6.356   6.698  0.5179  0.4340  0.9382
 1382TIP3    H125705   3.708   6.326   6.782 -0.5896 -0.0053  0.3113
 1382TIP3    H225706   3.800   6.430   6.722 -0.2375  0.6775  2.0009
 1383TIP3   OH225707   2.522   3.964   7.871  0.0510  0.5917  0.1226
 1383TIP3    H125708   2.608   3.931   7.845 -0.2870  0.4639 -0.8554
 1383TIP3    H225709   2.522   3.957   7.967  2.5892  4.1292  0.5974
 1384TIP3   OH225710   0.332   5.933   0.585 -0.0761 -0.1093 -0.5036
 1384TIP3    H125711   0.279   6.008   0.557 -0.9242 -0.0425  1.1359
 1384TIP3    H225712   0.335   5.941   0.681  1.9832 -0.7554 -0.4665
 1385TIP3   OH225713   2.695   3.025   8.232 -0.1425  0.0085 -0.1407
 1385TIP3    H125714   2.668   3.040   8.322  1.5861 -0.3888  0.4887
 1385TIP3    H225715   2.750   3.100   8.210  0.3818 -0.4543 -0.4464
 1386TIP3   OH225716   5.197   2.304   7.418 -0.3992  0.0690  0.0321
 1386TIP3    H125717   5.224   2.390   7.387 -0.2754 -0.1830 -0.5727
 1386TIP3    H225718   5.155   2.264   7.343 -1.5183  0.0471  0.6529
 1387TIP3   OH225719   5.798   2.493   0.437  0.0147  0.3946 -0.7578
 1387TIP3    H125720   5.870   2.433   0.416  1.6176  1.6320  0.9267
 1387TIP3    H225721   5.729   2.436   0.472  1.7598 -0.4977  1.4771
 1388TIP3   OH225722   5.440   0.460   7.304  0.6121 -0.2183  0.1663
 1388TIP3    H125723   5.443   0.372   7.267 -1.3909  0.3623 -1.5335
 1388TIP3    H225724   5.380   0.453   7.378  1.0100 -0.4189  0.4731
 1389TIP3   OH225725   6.812   4.184   7.990  0.0044 -0.4366 -0.1903
 1389TIP3    H125726   6.735   4.193   7.934 -0.3795 -0.3490  0.3448
 1389TIP3    H225727   6.883   4.160   7.930  0.9580  4.9263 -1.6877
 1390TIP3   OH225728   1.018   2.713   7.887 -0.2693  0.0546  0.2817
 1390TIP3    H125729   0.978   2.784   7.838  0.3350  0.4082  0.2877
 1390TIP3    H225730   1.112   2.720   7.868 -0.3542 -1.9330 -1.2759
 1391TIP3   OH225731   6.100   2.780   8.269  0.6410  0.2978  0.1465
 1391TIP3    H125732   6.092   2.859   8.323 -0.7753  1.4086 -1.5788
 1391TIP3    H225733   6.023   2.729   8.291  1.0347 -0.1507  0.5131
 1392TIP3   OH225734   2.949   0.430   1.448 -0.5437  0.2832 -0.7074
 1392TIP3    H125735   2.931   0.338   1.428  1.9080 -0.2125 -0.9205
 1392TIP3    H225736   3.012   0.427   1.519 -1.8451  1.8854  0.5863
 1393TIP3   OH225737   3.463   0.696   2.466 -0.0576  0.1430 -0.2714
 1393TIP3    H125738   3.414   0.729   2.541 -0.4336 -0.6007 -0.1707
 1393TIP3    H225739   3.401   0.700   2.394  0.7697  2.2712 -0.9116
 1394TIP3   OH225740   4.987   4.797   1.164  0.2711  0.1225  0.5293
 1394TIP3    H125741   4.905   4.771   1.206 -1.6524  1.1453 -2.3256
 1394TIP3    H225742   4.979   4.892   1.153  2.2800  0.3938  0.9467
 1395TIP3   OH225743   4.098   6.114   6.914 -0.0370 -0.2665 -0.1610
 1395TIP3    H125744   4.138   6.185   6.864 -1.0848 -2.1859 -4.1682
 1395TIP3    H225745   4.004   6.131   6.907 -0.2417  0.2181  2.7169
 1396TIP3   OH225746   3.803   2.397   0.425 -0.5695  0.2931 -0.5763
 1396TIP3    H125747   3.861   2.387   0.500 -1.0887  0.1390 -0.1950
 1396TIP3    H225748   3.775   2.488   0.428 -1.7690 -0.0849  0.2902
 1397TIP3   OH225749   0.091   2.876   0.095 -0.3057  0.1628  0.2835
 1397TIP3    H125750   0.039   2.954   0.112  1.3125  1.5827 -0.8586
 1397TIP3    H225751   0.136   2.895   0.012  1.1183 -1.4590  0.6253
 1398TIP3   OH225752   3.675   6.252   0.770 -0.4719 -0.1356 -0.1586
 1398TIP3    H125753   3.729   6.330   0.753 -0.4722  0.2000  1.2577
 1398TIP3    H225754   3.585   6.282   0.761 -0.4744  0.0665  0.5036
 1399TIP3   OH225755   3.467   3.721   1.141  0.3583 -0.1177 -0.0795
 1399TIP3    H125756   3.562   3.720   1.155  0.2440  0.4868  0.9086
 1399TIP3    H225757   3.450   3.807   1.102  0.4227 -0.9956 -2.1513
 1400TIP3   OH225758   4.091   6.539   2.555  0.2389  0.0032  0.6280
 1400TIP3    H125759   4.044   6.603   2.501 -0.1237 -0.5933  0.2243
 1400TIP3    H225760   4.052   6.455   2.532  3.3845 -0.9654 -1.8530
 1401TIP3   OH225761   0.913   5.703   6.709  0.0984 -0.3476 -0.0770
 1401TIP3    H125762   0.835   5.702   6.765 -0.1729  0.4528 -0.4312
 1401TIP3    H225763   0.981   5.743   6.763 -0.8140  2.8526 -1.1082
 1402TIP3   OH225764   4.513   1.776   0.176  0.6012  0.5482 -0.3224
 1402TIP3    H125765   4.430   1.814   0.202  0.5196  1.4390 -1.7810
 1402TIP3    H225766   4.500   1.748   0.085  1.8979  0.7553 -0.5996
 1403TIP3   OH225767   3.270   2.497   1.362 -0.0348 -0.7394 -0.6164
 1403TIP3    H125768   3.177   2.514   1.346  0.1576 -0.0127 -1.0181
 1403TIP3    H225769   3.312   2.508   1.276  0.4883 -0.5572 -0.3447
 1404TIP3   OH225770   5.451   3.554   0.057  0.4543 -0.2998  0.5797
 1404TIP3    H125771   5.527   3.554   0.116  1.0866  1.2872 -0.1741
 1404TIP3    H225772   5.489   3.538  -0.029 -0.1116  0.1858  0.2391
 1405TIP3   OH225773   0.654   3.401   6.807  0.0315  0.1452 -0.5509
 1405TIP3    H125774   0.731   3.346   6.816 -0.7867 -0.7493  1.6446
 1405TIP3    H225775   0.670   3.452   6.727  2.3160 -0.8506 -0.8048
 1406TIP3   OH225776   1.314   1.842   1.329 -0.5177 -0.5990  0.4086
 1406TIP3    H125777   1.300   1.755   1.290  0.1955 -0.8506  0.6953
 1406TIP3    H225778   1.232   1.861   1.374 -0.3636 -1.5300  1.1079
 1407TIP3   OH225779   1.911   6.102   8.130  0.2583 -0.1100  0.1830
 1407TIP3    H125780   1.889   6.182   8.083 -1.9130 -1.3576 -1.0871
 1407TIP3    H225781   1.878   6.115   8.219 -0.4911  0.2277 -0.1439
 1408TIP3   OH225782   4.899   3.664   6.822  0.1620  0.4889  0.1688
 1408TIP3    H125783   4.864   3.676   6.910  0.7751  0.4498  0.4174
 1408TIP3    H225784   4.827   3.690   6.764 -1.5610 -2.8557  0.5880
 1409TIP3   OH225785   6.187   1.327   0.971 -0.1143  0.1163 -0.1509
 1409TIP3    H125786   6.237   1.383   0.912 -0.4220  1.9252  1.2211
 1409TIP3    H225787   6.096   1.335   0.940 -0.3602  1.5161  0.8449
 1410TIP3   OH225788   6.303   5.431   7.972  0.3767 -0.0732 -0.1562
 1410TIP3    H125789   6.281   5.355   7.919 -0.4300 -0.0111  0.0731
 1410TIP3    H225790   6.360   5.397   8.040  1.2891 -0.1826 -0.9515
 1411TIP3   OH225791   5.270   6.519   7.371  0.5530 -0.1833  0.0788
 1411TIP3    H125792   5.266   6.602   7.417 -1.0175  0.5927 -1.3616
 1411TIP3    H225793   5.354   6.520   7.325  0.7221  0.4060  0.3983
 1412TIP3   OH225794   6.402   3.219   1.211  0.0390 -0.3555  0.1927
 1412TIP3    H125795   6.463   3.217   1.285 -0.0716  0.1108  0.3019
 1412TIP3    H225796   6.386   3.312   1.196  0.8312 -0.4015 -1.0656
 1413TIP3   OH225797   1.372   5.195   8.340  0.0862  0.4022  0.1397
 1413TIP3    H125798   1.291   5.174   8.293 -0.0549  0.8209  0.1873
 1413TIP3    H225799   1.343   5.227   8.425  0.1641  2.5371 -0.5611
 1414TIP3   OH225800   1.335   6.533   7.389  0.5685  0.4127  0.1774
 1414TIP3    H125801   1.366   6.449   7.356 -2.0404 -1.0957  1.2145
 1414TIP3    H225802   1.396   6.555   7.459  1.2809 -0.6236 -0.0899
 1415TIP3   OH225803   2.181   5.874   8.653  0.1508 -0.1610  0.2432
 1415TIP3    H125804   2.272   5.852   8.632  1.2196  2.8888  1.2148
 1415TIP3    H225805   2.153   5.929   8.580  0.1805  1.4165  1.3695
 1416TIP3   OH225806   0.288   0.322   7.007  0.3080  0.8985 -0.1092
 1416TIP3    H125807   0.242   0.356   6.930 -2.8676  1.6217  1.9241
 1416TIP3    H225808   0.371   0.288   6.972 -0.5932  1.9200 -3.6770
 1417TIP3   OH225809   5.836   5.444   1.532  0.2331  0.5255  0.5027
 1417TIP3    H125810   5.818   5.532   1.497  1.2968 -0.0294 -1.6334
 1417TIP3    H225811   5.844   5.457   1.626  0.8199  2.8202  0.2061
 1418TIP3   OH225812   3.893   2.203   0.215  0.2830 -0.0161  0.4652
 1418TIP3    H125813   3.854   2.281   0.253  0.0229 -0.0155  0.2074
 1418TIP3    H225814   3.914   2.228   0.125 -0.6391 -0.5071  0.1020
 1419TIP3   OH225815   3.192   2.026   0.176  0.8169  0.1801  0.4013
 1419TIP3    H125816   3.187   1.978   0.093 -0.1530 -2.9916  2.0966
 1419TIP3    H225817   3.283   2.053   0.182  0.7370  1.2697 -2.0281
 1420TIP3   OH225818   2.079   6.631   0.300  0.0933  0.1923  0.2096
 1420TIP3    H125819   2.090   6.619   0.394 -2.3114 -0.2045  0.5051
 1420TIP3    H225820   2.005   6.574   0.277  0.0730  0.9339 -1.7538
 1421TIP3   OH225821   3.258   3.986   8.124 -0.6743 -0.3154  0.2688
 1421TIP3    H125822   3.286   3.905   8.167  0.8307  0.2085  0.3380
 1421TIP3    H225823   3.184   3.959   8.069 -2.0480 -1.1843  2.4057
 1422TIP3   OH225824   3.079   2.878   6.515  0.8553  0.0039  0.4900
 1422TIP3    H125825   3.101   2.938   6.444  0.8608 -1.2016 -0.5507
 1422TIP3    H225826   3.007   2.825   6.480 -0.5401  0.7242  2.1130
 1423TIP3   OH225827   0.527   5.738   7.994 -0.8086  0.1144  0.2303
 1423TIP3    H125828   0.546   5.821   7.952  4.5244 -0.6994  0.3512
 1423TIP3    H225829   0.505   5.761   8.084 -1.0339  1.4069 -0.1331
 1424TIP3   OH225830   6.750   0.598   1.991  0.6136  0.3321  0.0313
 1424TIP3    H125831   6.739   0.553   1.907  0.7753  0.6582 -0.1629
 1424TIP3    H225832   6.752   0.527   2.055 -1.3803  0.1542 -0.0372
 1425TIP3   OH225833   1.727   1.411   0.488  0.0121  0.2445  0.3357
 1425TIP3    H125834   1.683   1.356   0.424  0.5555 -0.2459  0.3776
 1425TIP3    H225835   1.788   1.463   0.437  0.0060  0.2991  0.3840
 1426TIP3   OH225836   1.305   2.739   1.967  0.0820  0.0478 -0.0621
 1426TIP3    H125837   1.271   2.828   1.960 -1.0032 -0.1421  1.9211
 1426TIP3    H225838   1.239   2.685   1.925  0.8750  0.1645 -1.5163
 1427TIP3   OH225839   5.684   3.543   7.368  0.4162  1.6275  0.5887
 1427TIP3    H125840   5.714   3.580   7.285  1.1756  1.2494  0.6941
 1427TIP3    H225841   5.726   3.457   7.374 -3.3038 -0.5379 -0.8923
 1428TIP3   OH225842   2.553   3.577   7.975 -0.0731 -0.9375 -0.0125
 1428TIP3    H125843   2.477   3.519   7.967  0.8793 -2.2990  0.5775
 1428TIP3    H225844   2.569   3.582   8.069  0.1500 -0.0884 -0.0886
 1429TIP3   OH225845   1.589   0.251   2.531  0.1425 -0.3562 -0.3004
 1429TIP3    H125846   1.601   0.308   2.607 -1.0567  1.0164 -1.0801
 1429TIP3    H225847   1.635   0.297   2.460 -0.7486 -0.4036 -0.9239
 1430TIP3   OH225848   3.415   5.807   8.612 -0.3771  0.0345  0.5859
 1430TIP3    H125849   3.432   5.720   8.575  2.1744  0.9763 -0.7422
 1430TIP3    H225850   3.463   5.808   8.695  1.5362  0.8149 -0.4541
 1431TIP3   OH225851   3.108   1.706   1.026  0.0332 -0.0691  0.0656
 1431TIP3    H125852   3.034   1.701   0.966  0.5588  1.3158 -0.7405
 1431TIP3    H225853   3.169   1.640   0.994 -0.0635  0.0589 -0.3871
 1432TIP3   OH225854   4.052   5.426   7.054  0.3876 -0.1169 -0.0440
 1432TIP3    H125855   3.960   5.421   7.030  0.6633  0.1151 -1.2143
 1432TIP3    H225856   4.096   5.364   6.996  0.8607 -0.9347  1.1589
 1433TIP3   OH225857   6.653   5.488   2.451  0.1788  0.0576 -0.4496
 1433TIP3    H125858   6.642   5.393   2.462  0.3379  0.1165  0.2743
 1433TIP3    H225859   6.610   5.526   2.528 -0.3477  0.6058 -1.0045
 1434TIP3   OH225860   1.297   5.285   0.046  0.1496  0.1257  0.1099
 1434TIP3    H125861   1.222   5.264  -0.010  0.1379 -1.0883  0.5482
 1434TIP3    H225862   1.309   5.207   0.100  0.8725  0.8418  1.0108
 1435TIP3   OH225863   4.983   1.252   7.930  0.1858  0.0592  0.2770
 1435TIP3    H125864   4.930   1.299   7.865  2.0829  0.1965 -1.2677
 1435TIP3    H225865   5.007   1.170   7.886 -0.0029 -0.6887  1.5322
 1436TIP3   OH225866   5.120   5.133   0.153 -0.0095 -0.6062 -0.4649
 1436TIP3    H125867   5.131   5.096   0.241 -0.4082  0.2595 -0.0359
 1436TIP3    H225868   5.161   5.069   0.095  2.6386 -0.0168  0.5705
 1437TIP3   OH225869   2.093   4.858   8.673 -0.4832 -0.1546 -0.3625
 1437TIP3    H125870   2.157   4.794   8.640 -0.2210 -1.0451  1.7165
 1437TIP3    H225871   2.009   4.824   8.643 -0.5466 -2.6290  2.2160
 1438TIP3   OH225872   3.368   2.736   0.708 -0.0257  0.6254 -0.5424
 1438TIP3    H125873   3.387   2.767   0.796  2.8940  0.7084 -1.0929
 1438TIP3    H225874   3.354   2.815   0.657  0.1573  0.6754 -0.5151
 1439TIP3   OH225875   5.258   4.727   1.646 -0.2505 -0.0188  0.7272
 1439TIP3    H125876   5.249   4.633   1.632 -0.3522 -0.1212  1.4779
 1439TIP3    H225877   5.252   4.764   1.558 -3.0091 -0.4795  0.6327
 1440TIP3   OH225878   5.028   5.944   8.106  0.0265  0.0045  0.3869
 1440TIP3    H125879   5.035   6.029   8.149  0.4980  0.0805  0.1659
 1440TIP3    H225880   5.063   5.882   8.170 -1.3842 -0.1905  1.0170
 1441TIP3   OH225881   4.362   5.331   1.952 -0.3335  0.0684 -0.2092
 1441TIP3    H125882   4.356   5.295   1.863  0.2888  1.0932 -0.6835
 1441TIP3    H225883   4.405   5.262   2.003  1.8201  0.4890 -1.3370
 1442TIP3   OH225884   5.541   2.895   8.361  0.5640 -0.8948 -0.0863
 1442TIP3    H125885   5.501   2.978   8.389  1.1916 -0.5495 -0.1842
 1442TIP3    H225886   5.467   2.838   8.342  0.1078 -0.1573 -0.5977
 1443TIP3   OH225887   1.202   0.654   1.888  0.1030  0.0117 -0.1419
 1443TIP3    H125888   1.169   0.710   1.819 -1.2140 -0.0944  0.3623
 1443TIP3    H225889   1.270   0.601   1.846  1.6035  2.1391 -0.5535
 1444TIP3   OH225890   5.340   3.637   2.467  0.2332  0.6222  0.7311
 1444TIP3    H125891   5.305   3.692   2.397  0.3450  1.0822  1.0347
 1444TIP3    H225892   5.403   3.692   2.513  0.3531  0.2422  1.0358
 1445TIP3   OH225893   1.727   6.594   8.448 -0.2282  0.1216  0.2475
 1445TIP3    H125894   1.756   6.601   8.357 -0.3314 -0.4273  0.1729
 1445TIP3    H225895   1.802   6.559   8.495 -0.5276 -0.6192  0.1812
 1446TIP3   OH225896   4.469   6.599   8.599 -0.6500 -0.3484  0.1075
 1446TIP3    H125897   4.465   6.674   8.658  0.2237 -0.6532  0.5880
 1446TIP3    H225898   4.471   6.523   8.657 -1.8774 -0.7813 -0.3792
 1447TIP3   OH225899   4.106   6.277   6.653 -0.0180  0.1367 -0.9646
 1447TIP3    H125900   4.085   6.189   6.623  0.0493 -0.8506  1.5849
 1447TIP3    H225901   4.057   6.335   6.595 -0.5819 -1.5861 -2.2930
 1448TIP3   OH225902   5.902   6.433   8.514  0.8420 -0.3317  0.0965
 1448TIP3    H125903   5.925   6.418   8.606 -1.1882 -0.4121  0.6414
 1448TIP3    H225904   5.867   6.522   8.512  0.7772 -0.3630 -0.5795
 1449TIP3   OH225905   2.255   0.100   1.449  0.3922  0.5261  0.3924
 1449TIP3    H125906   2.211   0.148   1.379 -0.4644  0.4328  0.8629
 1449TIP3    H225907   2.238   0.008   1.430  0.7031  0.4682  0.3763
 1450TIP3   OH225908   3.091   5.875   1.415 -0.4702  0.2533 -0.3378
 1450TIP3    H125909   3.095   5.922   1.498  0.7372  3.1224 -1.8896
 1450TIP3    H225910   3.138   5.793   1.432  0.2869  1.0354  1.6489
 1451TIP3   OH225911   6.791   2.239   7.324 -0.2509 -0.1773  0.2532
 1451TIP3    H125912   6.713   2.294   7.316 -0.8221 -0.9984  0.0835
 1451TIP3    H225913   6.803   2.229   7.419 -0.6218 -0.4285  0.2740
 1452TIP3   OH225914   0.810   1.540   7.215 -0.1909  0.7283  0.4436
 1452TIP3    H125915   0.717   1.522   7.198 -0.2944  0.8349  0.8789
 1452TIP3    H225916   0.857   1.484   7.154 -0.5307  0.0890  0.7537
 1453TIP3   OH225917   4.758   4.326   0.392 -0.2363 -0.1673 -0.5252
 1453TIP3    H125918   4.776   4.411   0.432  0.5882 -0.4606 -0.2576
 1453TIP3    H225919   4.662   4.319   0.393 -0.2889  0.5109 -0.0391
 1454TIP3   OH225920   5.699   4.468   2.406 -0.1416  0.7548 -0.0417
 1454TIP3    H125921   5.613   4.444   2.443  0.7036 -2.5556  0.0991
 1454TIP3    H225922   5.678   4.528   2.335 -2.8679 -1.6602 -1.4945
 1455TIP3   OH225923   0.594   3.658   7.682  1.0374 -0.2582 -0.2039
 1455TIP3    H125924   0.607   3.612   7.599  1.4969 -0.2629 -0.1300
 1455TIP3    H225925   0.501   3.646   7.701  1.1145 -1.0443 -0.2583
 1456TIP3   OH225926   0.117   2.664   8.305  0.5449  0.0363  0.1471
 1456TIP3    H125927   0.065   2.744   8.299 -0.7118 -0.6234  1.3524
 1456TIP3    H225928   0.139   2.642   8.214 -0.5617  0.8271 -0.3339
 1457TIP3   OH225929   6.160   1.995   2.038 -0.7422  0.1423 -0.3851
 1457TIP3    H125930   6.237   2.013   2.092  0.0704  0.1562 -1.5052
 1457TIP3    H225931   6.111   1.929   2.087 -0.8224  1.2216  1.0645
 1458TIP3   OH225932   5.516   1.099   1.793  0.2934  0.4289  0.3608
 1458TIP3    H125933   5.448   1.126   1.856  0.9363  1.5415  0.6151
 1458TIP3    H225934   5.585   1.061   1.847  0.1208 -0.1976  0.1513
 1459TIP3   OH225935   6.847   2.072   1.418  0.1266 -0.8042  0.1050
 1459TIP3    H125936   6.756   2.042   1.426 -0.1061  0.0728  0.7681
 1459TIP3    H225937   6.872   2.098   1.506 -0.1064  2.1652 -0.6144
 1460TIP3   OH225938   4.616   0.290   0.248 -0.2573 -0.5838  0.1645
 1460TIP3    H125939   4.656   0.335   0.173 -0.1085  0.1106  0.6587
 1460TIP3    H225940   4.648   0.337   0.324 -2.0414  0.0029  0.5769
 1461TIP3   OH225941   1.130   2.792   7.323  0.1475 -0.6909 -0.0790
 1461TIP3    H125942   1.048   2.752   7.353  0.3182 -0.8468  0.1834
 1461TIP3    H225943   1.171   2.725   7.269  1.1841 -1.4909  1.6263
 1462TIP3   OH225944   0.481   1.073   8.523 -0.2700  0.2039  0.3099
 1462TIP3    H125945   0.528   1.107   8.599 -0.8223 -0.7083  1.0864
 1462TIP3    H225946   0.462   0.982   8.545 -1.7681  0.3358 -0.2634
 1463TIP3   OH225947   6.330   5.964   7.094 -0.3273 -0.0561  0.6221
 1463TIP3    H125948   6.409   6.004   7.128 -1.1071  2.0384  0.1379
 1463TIP3    H225949   6.265   5.977   7.163 -0.5781 -0.6324  0.5021
 1464TIP3   OH225950   0.825   3.404   7.945  0.0348  0.1407 -0.2045
 1464TIP3    H125951   0.853   3.450   7.866  0.0008 -0.0683 -0.3413
 1464TIP3    H225952   0.824   3.471   8.013  1.8169 -0.0372  0.0398
 1465TIP3   OH225953   5.771   0.619   1.396 -0.3132  0.5901  0.2508
 1465TIP3    H125954   5.738   0.635   1.485 -2.5762  2.0150 -0.7619
 1465TIP3    H225955   5.826   0.695   1.377 -0.8426  0.8989 -0.0310
 1466TIP3   OH225956   0.203   5.496   1.120 -1.5934  0.8967  0.3597
 1466TIP3    H125957   0.121   5.476   1.164 -0.7754 -1.5921  0.9105
 1466TIP3    H225958   0.254   5.415   1.125  0.4032  1.9589 -1.0793
 1467TIP3   OH225959   5.268   3.443   7.944  0.2838  0.0213  0.2512
 1467TIP3    H125960   5.184   3.481   7.970 -0.6388 -0.2724 -2.0604
 1467TIP3    H225961   5.250   3.350   7.935  0.8402 -0.0430 -0.2696
 1468TIP3   OH225962   0.739   4.268   7.695 -0.0603  0.1892  0.6240
 1468TIP3    H125963   0.725   4.308   7.781 -2.1229 -0.1413  0.4896
 1468TIP3    H225964   0.808   4.321   7.655  2.1651 -0.6482  3.0693
 1469TIP3   OH225965   5.166   3.802   8.581  0.0832 -0.4881  0.3701
 1469TIP3    H125966   5.150   3.711   8.557  0.8298 -0.6034  0.2985
 1469TIP3    H225967   5.218   3.838   8.509 -0.4891  0.0962  0.2339
 1470TIP3   OH225968   1.912   0.746   0.760  0.1182  0.3191 -0.7833
 1470TIP3    H125969   1.876   0.662   0.791  1.1364  0.2424  0.2613
 1470TIP3    H225970   1.985   0.721   0.704 -0.3607  0.5016 -1.5012
 1471TIP3   OH225971   4.548   0.560   0.835 -0.2758 -0.1175  0.2915
 1471TIP3    H125972   4.497   0.580   0.914 -1.1305  0.0753 -0.2824
 1471TIP3    H225973   4.483   0.563   0.764  0.6835  0.9149 -0.5748
 1472TIP3   OH225974   0.709   3.643   7.241  0.2315 -0.4446 -0.3093
 1472TIP3    H125975   0.643   3.611   7.179  0.8537  0.5786 -1.5333
 1472TIP3    H225976   0.665   3.715   7.287  0.6736  0.6736 -1.5870
 1473TIP3   OH225977   5.500   5.713   7.782  0.4711  0.0470 -0.1649
 1473TIP3    H125978   5.561   5.707   7.855  1.1166 -0.3738 -0.7296
 1473TIP3    H225979   5.539   5.779   7.724 -0.0446  0.3899 -0.1268
 1474TIP3   OH225980   2.975   0.350   2.667  0.9204  0.3457  0.4175
 1474TIP3    H125981   3.023   0.380   2.743 -1.3145  2.6193  1.0788
 1474TIP3    H225982   2.900   0.302   2.703 -1.5331  3.5281 -0.0457
 1475TIP3   OH225983   2.752   0.630   2.065 -0.0208  0.2735 -0.2382
 1475TIP3    H125984   2.797   0.710   2.093 -0.6996  1.1453 -1.5274
 1475TIP3    H225985   2.823   0.571   2.040  0.4773  1.6244 -2.2337
 1476TIP3   OH225986   5.459   1.028   0.292  0.1778 -0.3939 -0.3370
 1476TIP3    H125987   5.478   0.952   0.238  0.0386 -0.1709 -0.7049
 1476TIP3    H225988   5.395   0.996   0.356  0.1811 -0.6075 -0.4380
 1477TIP3   OH225989   5.217   0.372   2.011  0.5160  0.4298 -0.4040
 1477TIP3    H125990   5.308   0.353   2.034 -0.0413 -2.5065 -0.1930
 1477TIP3    H225991   5.204   0.327   1.927 -1.1453 -0.6270  0.3632
 1478TIP3   OH225992   2.409   6.824   0.303 -0.0852 -0.4928  0.1290
 1478TIP3    H125993   2.483   6.765   0.289 -0.2945 -0.3344 -1.8688
 1478TIP3    H225994   2.390   6.817   0.397  2.1470 -0.8906  0.5992
 1479TIP3   OH225995   0.446   4.453   8.560  0.0760  0.0883  0.3762
 1479TIP3    H125996   0.479   4.448   8.470  0.6820  0.8345  0.5478
 1479TIP3    H225997   0.355   4.483   8.550  0.0590 -0.0786  0.0057
 1480TIP3   OH225998   3.625   3.420   6.714  1.0100 -0.2139  0.0907
 1480TIP3    H125999   3.551   3.373   6.675  1.4651 -1.5367  0.7759
 1480TIP3    H226000   3.695   3.414   6.649  0.8388  0.1571 -0.1297
 1481TIP3   OH226001   6.021   2.682   2.231  0.7497  0.2018 -0.5395
 1481TIP3    H126002   6.055   2.770   2.245  1.7079  0.1717 -2.3549
 1481TIP3    H226003   5.928   2.694   2.215  0.3503  0.5796  1.7168
 1482TIP3   OH226004   4.312   5.703   6.734  0.0804 -0.0261 -0.2246
 1482TIP3    H126005   4.358   5.750   6.665  1.1093  1.1928  1.2299
 1482TIP3    H226006   4.381   5.667   6.789 -0.7130 -0.3445  0.5942
 1483TIP3   OH226007   1.762   1.332   0.849  0.1917  0.2709 -0.1482
 1483TIP3    H126008   1.699   1.350   0.779  1.1619  0.9560 -0.8727
 1483TIP3    H226009   1.778   1.417   0.890 -0.5005 -0.1539  1.0439
 1484TIP3   OH226010   4.312   6.839   2.371  0.3135  0.4787 -0.0975
 1484TIP3    H126011   4.346   6.928   2.367  0.0271  0.5696 -0.6188
 1484TIP3    H226012   4.309   6.818   2.465 -0.2041  1.2417  0.0596
 1485TIP3   OH226013   3.704   5.310   8.464 -0.0524 -0.1833  0.2108
 1485TIP3    H126014   3.668   5.222   8.454  1.0498 -0.8825  2.0829
 1485TIP3    H226015   3.627   5.366   8.477 -0.9761 -0.3998 -3.2621
 1486TIP3   OH226016   3.120   2.230   1.190 -0.0469 -0.1389  0.4467
 1486TIP3    H126017   3.171   2.309   1.210  0.9563 -0.9577  1.2539
 1486TIP3    H226018   3.185   2.160   1.187 -1.0444 -1.1192  0.8657
 1487TIP3   OH226019   0.807   5.817   8.269  0.2823 -0.7154  0.1457
 1487TIP3    H126020   0.833   5.809   8.177 -0.6202  0.9660 -0.3109
 1487TIP3    H226021   0.885   5.791   8.319  1.1962 -0.4996 -1.1117
 1488TIP3   OH226022   1.780   1.433   0.082 -0.2687 -0.0659  0.1725
 1488TIP3    H126023   1.746   1.506   0.132 -0.1299  1.2754 -1.6037
 1488TIP3    H226024   1.737   1.439  -0.003  1.6855 -0.4398 -0.9163
 1489TIP3   OH226025   6.440   5.985   1.570 -0.1392  0.3939  0.5607
 1489TIP3    H126026   6.386   6.061   1.592 -1.0630 -0.6479  2.1161
 1489TIP3    H226027   6.510   6.020   1.515 -1.1241  2.1749  0.3606
 1490TIP3   OH226028   6.511   2.332   7.066  0.6777 -0.4400  0.3983
 1490TIP3    H126029   6.556   2.377   7.137 -0.2433  0.1702  0.6164
 1490TIP3    H226030   6.564   2.255   7.049  1.5192 -0.0072  0.9844
 1491TIP3   OH226031   2.684   3.734   0.761  0.2345 -0.2114 -0.5411
 1491TIP3    H126032   2.740   3.809   0.778 -0.4015  0.0423  0.5355
 1491TIP3    H226033   2.683   3.725   0.666 -0.4448  1.7348 -0.7630
 1492TIP3   OH226034   6.236   0.546   0.140  0.7632 -0.3832 -0.5082
 1492TIP3    H126035   6.214   0.588   0.223  1.3186 -0.0893 -0.5020
 1492TIP3    H226036   6.162   0.566   0.082 -0.1933 -1.5757  0.2413
 1493TIP3   OH226037   3.627   5.416   2.183 -0.7409 -0.4206  0.0017
 1493TIP3    H126038   3.599   5.330   2.214  0.7908 -0.7863  0.4899
 1493TIP3    H226039   3.720   5.404   2.162 -0.8503  0.7720 -1.2499
 1494TIP3   OH226040   5.337   5.965   6.353  0.0636 -0.1469  0.0536
 1494TIP3    H126041   5.365   5.883   6.394 -1.6335 -0.7868  0.0050
 1494TIP3    H226042   5.249   5.947   6.321 -1.2983  2.3423  2.0253
 1495TIP3   OH226043   1.620   6.712   8.094  0.1555  0.0812 -0.2480
 1495TIP3    H126044   1.675   6.754   8.028 -0.3605 -0.3518 -0.9640
 1495TIP3    H226045   1.681   6.654   8.142  0.0222 -1.9465 -2.3449
 1496TIP3   OH226046   4.993   2.675   2.517 -0.2729 -0.7698 -0.2061
 1496TIP3    H126047   5.050   2.661   2.592 -1.2371  2.0298  1.2368
 1496TIP3    H226048   5.048   2.720   2.453 -0.2320 -0.2341  0.1958
 1497TIP3   OH226049   4.610   4.849   7.780  0.5910  0.2060  0.4308
 1497TIP3    H126050   4.588   4.903   7.704 -0.5018 -1.9666 -0.8946
 1497TIP3    H226051   4.690   4.803   7.755 -1.5255 -3.0881 -0.9920
 1498TIP3   OH226052   2.491   2.043   8.503 -0.4450  0.0366 -0.5534
 1498TIP3    H126053   2.583   2.025   8.485 -0.3897 -0.9767  0.5720
 1498TIP3    H226054   2.492   2.116   8.565 -0.4699  0.9417 -1.6026
 1499TIP3   OH226055   6.696   3.664   8.037 -0.3951  0.0907 -0.5484
 1499TIP3    H126056   6.601   3.672   8.026 -0.2500 -0.7717 -2.7256
 1499TIP3    H226057   6.723   3.600   7.972  1.4206 -1.4317  1.5268
 1500TIP3   OH226058   3.184   1.481   8.566  0.4132  0.0360  1.1308
 1500TIP3    H126059   3.222   1.553   8.617  2.4903 -0.3339  0.2338
 1500TIP3    H226060   3.116   1.523   8.513  0.0213  0.8889  2.2690
 1501TIP3   OH226061   0.917   6.070   8.701  0.3547  0.2718  0.2791
 1501TIP3    H126062   0.909   6.158   8.665  0.2185 -0.0344 -0.4569
 1501TIP3    H226063   0.845   6.062   8.763 -0.1238  0.3924 -0.2575
 1502TIP3   OH226064   0.927   6.378   1.441  0.2947 -0.0551 -0.1411
 1502TIP3    H126065   1.015   6.360   1.474  0.7947 -0.0171 -1.4055
 1502TIP3    H226066   0.930   6.468   1.409 -0.5624  0.3631  0.8924
 1503TIP3   OH226067   4.783   0.961   8.230 -0.6405 -0.6868  0.2778
 1503TIP3    H126068   4.718   0.894   8.250 -2.4198  0.6485 -0.7104
 1503TIP3    H226069   4.781   0.970   8.135  0.7021 -0.3035  0.2591
 1504TIP3   OH226070   0.041   0.911   2.105 -0.1213 -0.3943 -0.6624
 1504TIP3    H126071  -0.029   0.973   2.085  0.0976  0.3885  0.8541
 1504TIP3    H226072   0.004   0.854   2.172  0.7331  0.1614  0.3117
 1505TIP3   OH226073   6.721   6.575   0.543 -0.4754 -0.6267 -0.9890
 1505TIP3    H126074   6.661   6.569   0.617  0.2970 -2.8436 -0.4798
 1505TIP3    H226075   6.802   6.609   0.580 -0.4411 -0.6331 -1.0579
 1506TIP3   OH226076   5.979   4.831   0.540  0.5018  0.0368  0.0811
 1506TIP3    H126077   6.008   4.843   0.630  0.7448  3.6057 -0.3222
 1506TIP3    H226078   5.885   4.847   0.543  0.8678  2.7853 -0.5452
 1507TIP3   OH226079   3.759   0.919   0.447  0.0666  0.3773  0.0416
 1507TIP3    H126080   3.823   0.970   0.497  0.2917  1.2491 -1.0790
 1507TIP3    H226081   3.712   0.985   0.396 -0.4048 -0.4455 -0.6034
 1508TIP3   OH226082   2.583   1.984   7.740  0.1726 -0.3262  0.3841
 1508TIP3    H126083   2.651   1.927   7.704 -0.2057 -0.9669  0.6714
 1508TIP3    H226084   2.516   1.988   7.671 -0.3897 -1.2692  0.8664
 1509TIP3   OH226085   4.457   2.880   1.050  0.6171  0.4943 -0.0815
 1509TIP3    H126086   4.499   2.938   1.113  0.3824  0.3383  0.2183
 1509TIP3    H226087   4.378   2.850   1.094  1.0300 -0.5120 -0.0072
 1510TIP3   OH226088   6.810   2.469   1.512  0.3365  0.0870  0.5399
 1510TIP3    H126089   6.800   2.386   1.466 -1.0092 -0.1965  1.3077
 1510TIP3    H226090   6.903   2.491   1.502  0.3681 -0.6348 -1.1274
 1511TIP3   OH226091   0.672   6.238   0.158 -0.3726  0.4206  0.0569
 1511TIP3    H126092   0.750   6.291   0.173  1.7367 -2.4142 -0.2586
 1511TIP3    H226093   0.610   6.267   0.225  1.7913  1.1803  1.8139
 1512TIP3   OH226094   1.961   5.744   0.725 -0.0577  0.4903  0.1102
 1512TIP3    H126095   2.049   5.774   0.749 -0.6333  2.7007 -0.3169
 1512TIP3    H226096   1.906   5.772   0.798 -0.4270 -0.8993  0.3831
 1513TIP3   OH226097   3.112   5.502   7.463  0.2407  0.2130 -0.0777
 1513TIP3    H126098   3.028   5.511   7.510 -0.7475 -1.4468 -1.4190
 1513TIP3    H226099   3.167   5.451   7.523 -0.2338  0.0153  0.1974
 1514TIP3   OH226100   0.082   3.925   0.522 -0.2086  0.4326 -0.1023
 1514TIP3    H126101   0.161   3.901   0.571 -0.4975  0.8629  0.5789
 1514TIP3    H226102   0.052   3.843   0.484  0.1292  0.1316  0.2735
 1515TIP3   OH226103   4.890   2.573   0.614 -0.0340 -0.1927  0.5985
 1515TIP3    H126104   4.795   2.563   0.625 -0.2806 -0.0658 -1.1158
 1515TIP3    H226105   4.907   2.665   0.633 -0.4589  0.0679 -0.2274
 1516TIP3   OH226106   2.389   4.569   0.675  0.0480 -0.1976  0.7147
 1516TIP3    H126107   2.480   4.597   0.674 -0.1665  0.5265 -0.5229
 1516TIP3    H226108   2.339   4.650   0.680 -0.5699 -0.2825 -2.2790
 1517TIP3   OH226109   5.732   1.168   7.913  0.2616  0.1598  0.1442
 1517TIP3    H126110   5.749   1.091   7.968 -1.2640 -0.8876 -0.7464
 1517TIP3    H226111   5.813   1.219   7.916  1.0589 -1.1060  1.3633
 1518TIP3   OH226112   0.459   3.365   7.243 -0.0117 -0.0334 -0.3026
 1518TIP3    H126113   0.497   3.349   7.329  1.2647 -1.4753 -1.0799
 1518TIP3    H226114   0.390   3.300   7.235  0.3758 -0.4038 -0.6583
 1519TIP3   OH226115   3.342   3.114   7.838  0.1041  1.0397 -0.1198
 1519TIP3    H126116   3.415   3.116   7.900  0.7048 -1.4676 -0.6450
 1519TIP3    H226117   3.299   3.199   7.849  1.3813  1.4628  2.2671
 1520TIP3   OH226118   2.395   5.300   7.359 -0.1382  0.1753  0.5671
 1520TIP3    H126119   2.335   5.298   7.285  0.0627  1.9716  0.3253
 1520TIP3    H226120   2.352   5.246   7.426  0.2636 -2.5656 -1.2040
 1521TIP3   OH226121   2.803   2.053   7.495  0.1038  0.3100 -0.5916
 1521TIP3    H126122   2.715   2.089   7.482 -0.2559  0.3264  1.5000
 1521TIP3    H226123   2.862   2.123   7.468 -0.5724  1.2012  0.1735
 1522TIP3   OH226124   0.126   0.611   7.443  0.3332  0.2169  0.3379
 1522TIP3    H126125   0.178   0.654   7.512 -0.5717 -0.5147  1.5187
 1522TIP3    H226126   0.189   0.593   7.374  1.3108  0.8556  1.0279
 1523TIP3   OH226127   2.175   4.017   1.341 -0.5919  0.0601 -0.0329
 1523TIP3    H126128   2.195   4.062   1.424 -1.4291  0.1188  0.1414
 1523TIP3    H226129   2.106   3.955   1.363  0.6987 -1.5135 -0.2277
 1524TIP3   OH226130   3.749   5.887   6.304 -0.5468 -0.5639 -0.4187
 1524TIP3    H126131   3.794   5.879   6.220 -1.4698 -0.1321 -0.9761
 1524TIP3    H226132   3.703   5.803   6.314  0.2381 -0.9456  0.0773
 1525TIP3   OH226133   4.372   1.682   8.679  1.0883 -0.2432 -0.0944
 1525TIP3    H126134   4.314   1.626   8.628 -0.5352  0.5741  0.7600
 1525TIP3    H226135   4.397   1.752   8.619 -0.8601  0.7531  0.1645
 1526TIP3   OH226136   0.868   2.484   1.864 -0.0784  0.2162 -0.3761
 1526TIP3    H126137   0.779   2.519   1.862  0.6385  2.1782 -0.1104
 1526TIP3    H226138   0.917   2.540   1.804  0.7307 -1.6703 -1.5688
 1527TIP3   OH226139   2.930   6.715   2.192  0.0257  0.5219  0.0327
 1527TIP3    H126140   2.861   6.776   2.220 -2.4923 -2.4056  0.6771
 1527TIP3    H226141   2.986   6.706   2.270 -2.1664 -1.2514  1.5291
 1528TIP3   OH226142   3.415   3.227   0.593 -0.0135  0.1312 -0.0913
 1528TIP3    H126143   3.459   3.274   0.522  0.2746 -0.6771 -0.4537
 1528TIP3    H226144   3.449   3.138   0.588  0.2107  0.1158  1.2193
 1529TIP3   OH226145   4.857   3.821   1.541  0.6913  0.3964 -0.6480
 1529TIP3    H126146   4.902   3.809   1.624 -0.3809  0.1428 -0.0998
 1529TIP3    H226147   4.907   3.767   1.479 -0.1786 -1.7354  0.4131
 1530TIP3   OH226148   1.063   4.111   2.214 -0.3356  0.4874  0.0046
 1530TIP3    H126149   1.003   4.165   2.162  0.6325 -1.1351 -3.0622
 1530TIP3    H226150   1.142   4.164   2.222 -0.0314  0.2733 -1.3856
 1531TIP3   OH226151   6.691   1.077   2.007 -0.3118 -0.5118 -0.0115
 1531TIP3    H126152   6.735   1.111   1.928 -0.7422  0.7183  0.2460
 1531TIP3    H226153   6.707   1.144   2.073 -2.2464 -0.1941  0.1846
 1532TIP3   OH226154   3.485   0.797   7.149  0.5739  0.4123  0.2451
 1532TIP3    H126155   3.569   0.758   7.171  0.8449  1.4465  1.1074
 1532TIP3    H226156   3.438   0.801   7.232 -0.5754 -0.6815 -0.3178
 1533TIP3   OH226157   1.246   5.105   0.273  0.1507  0.3016  0.1157
 1533TIP3    H126158   1.187   5.124   0.346  0.7890  2.4110  0.1381
 1533TIP3    H226159   1.323   5.066   0.314  0.2982  1.0137  0.5298
 1534TIP3   OH226160   1.807   0.487   0.653  0.1297  0.2532  0.4943
 1534TIP3    H126161   1.748   0.523   0.588  0.5075  0.1452  0.0839
 1534TIP3    H226162   1.895   0.501   0.617  0.3378  0.0619  0.9103
 1535TIP3   OH226163   0.125   0.490   0.155  0.0682 -0.2623 -0.1833
 1535TIP3    H126164   0.135   0.410   0.207 -0.9790 -1.7579 -2.1459
 1535TIP3    H226165   0.118   0.560   0.220  0.3957 -1.8148  1.6214
 1536TIP3   OH226166   1.745   6.583   6.855  0.4350  0.2792 -0.0447
 1536TIP3    H126167   1.659   6.555   6.824  0.6738 -0.0919 -0.3832
 1536TIP3    H226168   1.786   6.624   6.779 -0.2588  2.4480  0.6648
 1537TIP3   OH226169   1.921   2.714   2.331  0.3288  0.0446 -0.6157
 1537TIP3    H126170   1.964   2.800   2.333 -0.6753  0.5470  0.8811
 1537TIP3    H226171   1.840   2.729   2.283 -0.2122  0.1371  0.3027
 1538TIP3   OH226172   6.288   5.506   0.036  0.1342  0.0545  1.1732
 1538TIP3    H126173   6.223   5.444   0.069 -0.6912  0.1755 -0.1321
 1538TIP3    H226174   6.241   5.590   0.030  0.0511 -0.0664 -0.7259
 1539TIP3   OH226175   5.837   3.378   1.013  0.2553  0.3560  0.6098
 1539TIP3    H126176   5.753   3.339   0.986 -0.0784  1.4858 -0.0265
 1539TIP3    H226177   5.878   3.310   1.067  0.0601 -1.2052 -1.1064
 1540TIP3   OH226178   4.976   2.059   1.069  0.5072  0.2128  0.3552
 1540TIP3    H126179   5.008   2.075   0.981 -0.6439  1.7538  0.1797
 1540TIP3    H226180   4.897   2.006   1.057 -0.3551  1.4555  0.3302
 1541TIP3   OH226181   2.177   2.263   7.627 -0.0860  0.4754  0.1734
 1541TIP3    H126182   2.260   2.300   7.598  0.3815 -0.5476  0.1474
 1541TIP3    H226183   2.176   2.278   7.721  0.0838  0.5683  0.1613
 1542TIP3   OH226184   2.375   3.226   1.845  0.2591 -0.3878  0.4785
 1542TIP3    H126185   2.329   3.287   1.903 -0.0397 -1.4511  1.3933
 1542TIP3    H226186   2.468   3.243   1.861  0.2004  0.6858 -0.2182
 1543TIP3   OH226187   0.987   4.537   7.320 -0.6702  0.3762  0.1077
 1543TIP3    H126188   0.940   4.618   7.338 -0.1837  0.9377 -1.0233
 1543TIP3    H226189   1.032   4.553   7.237  0.5204 -0.5767  0.5256
 1544TIP3   OH226190   2.464   5.232   0.346  0.4536  0.2459  0.4227
 1544TIP3    H126191   2.474   5.272   0.259  0.6411  0.7330  0.6664
 1544TIP3    H226192   2.549   5.190   0.362  0.3548 -0.0055  0.2906
 1545TIP3   OH226193   4.704   4.090   1.537 -0.3070  0.4593  0.3562
 1545TIP3    H126194   4.790   4.050   1.545  0.2819 -0.8122 -6.5487
 1545TIP3    H226195   4.644   4.027   1.576  1.5452  0.8755  4.3332
 1546TIP3   OH226196   1.869   0.704   0.388 -0.0013 -0.3098  0.4958
 1546TIP3    H126197   1.922   0.768   0.339 -0.6865  0.3506  0.6129
 1546TIP3    H226198   1.930   0.667   0.451  0.1220  1.1376  1.2822
 1547TIP3   OH226199   0.178   3.914   8.220  0.4042  0.0499 -0.2001
 1547TIP3    H126200   0.265   3.918   8.261  0.5485  0.2909 -0.5248
 1547TIP3    H226201   0.158   4.005   8.198  1.2023 -0.2674 -2.4723
 1548TIP3   OH226202   3.711   2.061   7.840 -0.1113 -0.3762  0.3309
 1548TIP3    H126203   3.733   1.973   7.868 -1.7047 -1.4760 -1.6451
 1548TIP3    H226204   3.687   2.107   7.921 -0.0596 -1.9891  1.2905
 1549TIP3   OH226205   4.508   4.090   7.145  0.1417  0.7611 -0.2137
 1549TIP3    H126206   4.414   4.087   7.160 -0.0507 -0.4527 -1.4281
 1549TIP3    H226207   4.517   4.102   7.050  1.2028  0.7787 -0.1224
 1550TIP3   OH226208   2.430   5.458   1.141  0.2291  0.2356 -0.0529
 1550TIP3    H126209   2.432   5.388   1.075  2.0256  1.1800 -1.0664
 1550TIP3    H226210   2.388   5.532   1.097 -0.2312  0.3108  0.4960
 1551TIP3   OH226211   2.003   3.031   7.884 -0.4946  0.9403 -0.1544
 1551TIP3    H126212   2.094   3.043   7.913 -0.3000 -1.1886  0.2340
 1551TIP3    H226213   2.004   3.057   7.792  0.2061  2.0787  0.1463
 1552TIP3   OH226214   2.361   3.407   7.156  0.2864 -0.2298  0.1818
 1552TIP3    H126215   2.397   3.486   7.196  1.5107 -0.7463  0.1476
 1552TIP3    H226216   2.375   3.339   7.222  1.2524 -0.8532 -0.6336
 1553TIP3   OH226217   6.157   5.937   2.498 -0.7252 -0.0652 -0.2248
 1553TIP3    H126218   6.198   5.876   2.436  0.0835 -0.4712  0.6806
 1553TIP3    H226219   6.187   6.023   2.470  0.5469 -0.3297  0.2293
 1554TIP3   OH226220   3.015   5.142   0.589 -0.0543 -0.0728 -0.4040
 1554TIP3    H126221   3.001   5.233   0.562  1.4499  0.1091 -0.6941
 1554TIP3    H226222   3.111   5.134   0.594 -0.2023 -1.1794  1.2145
 1555TIP3   OH226223   3.596   4.470   0.043 -0.3265  0.3999 -0.7527
 1555TIP3    H126224   3.585   4.497   0.134 -1.7762  1.9743 -1.3327
 1555TIP3    H226225   3.691   4.466   0.031 -0.0864  1.5808  0.4666
 1556TIP3   OH226226   5.740   4.473   1.957  0.2192  0.0035  0.2918
 1556TIP3    H126227   5.702   4.515   2.034 -0.8920  1.0089 -0.7609
 1556TIP3    H226228   5.822   4.520   1.942  0.6273 -0.4422  1.0556
 1557TIP3   OH226229   1.041   6.265   7.776 -0.0891 -0.8755 -0.5933
 1557TIP3    H126230   1.116   6.206   7.765 -0.0691 -0.5960 -2.1035
 1557TIP3    H226231   1.073   6.350   7.747 -0.7436 -0.5793 -0.4548
 1558TIP3   OH226232   3.802   2.894   7.647  0.0461  0.3754 -0.0422
 1558TIP3    H126233   3.849   2.885   7.564  0.3069 -0.3136  0.1698
 1558TIP3    H226234   3.763   2.807   7.661  0.8562  0.1684  1.0646
 1559TIP3   OH226235   1.696   1.576   1.521  0.0546 -0.2141  0.0635
 1559TIP3    H126236   1.762   1.526   1.569 -0.4693 -0.0619  0.9546
 1559TIP3    H226237   1.670   1.646   1.581  0.0725  0.5533 -0.8028
 1560TIP3   OH226238   6.782   2.867   1.621 -0.4814 -0.4874 -0.1565
 1560TIP3    H126239   6.738   2.920   1.554 -0.3279  1.8025  1.4268
 1560TIP3    H226240   6.711   2.827   1.671 -0.6244 -0.9357 -0.7092
 1561TIP3   OH226241   0.869   4.391   8.320  0.6044 -0.0237 -0.2787
 1561TIP3    H126242   0.865   4.304   8.360  0.1676  0.1813  0.1326
 1561TIP3    H226243   0.963   4.409   8.309  0.8330  0.5493  2.0624
 1562TIP3   OH226244   6.827   5.576   7.323  0.3949 -0.4491 -0.4045
 1562TIP3    H126245   6.803   5.538   7.238  0.4067  0.7151 -0.9408
 1562TIP3    H226246   6.878   5.507   7.365 -0.4821 -1.4445 -0.8993
 1563TIP3   OH226247   3.341   2.534   1.094 -0.2940 -0.7644 -0.4457
 1563TIP3    H126248   3.278   2.563   1.029 -1.6672 -1.3862  0.5683
 1563TIP3    H226249   3.386   2.460   1.052 -0.9745 -0.9900 -0.8035
 1564TIP3   OH226250   6.083   0.871   1.738 -0.0560 -1.0406  0.1949
 1564TIP3    H126251   6.033   0.794   1.709  0.5898 -1.7740  0.9694
 1564TIP3    H226252   6.152   0.835   1.794  1.6659 -0.1280 -1.2180
 1565TIP3   OH226253   6.232   5.803   1.513  0.0922 -0.3368 -0.1021
 1565TIP3    H126254   6.260   5.789   1.422 -0.9581  0.4247 -0.5607
 1565TIP3    H226255   6.271   5.887   1.537 -0.5166 -0.0086 -0.2326
 1566TIP3   OH226256   2.512   2.023   1.598 -0.2987  0.1723  0.0726
 1566TIP3    H126257   2.588   2.037   1.540  0.0497 -1.0233  0.2183
 1566TIP3    H226258   2.532   2.075   1.676 -0.9133  2.0475 -0.9721
 1567TIP3   OH226259   3.096   5.370   1.642  0.1107 -0.0447 -0.2231
 1567TIP3    H126260   3.131   5.311   1.575 -0.6083  0.4739 -1.0752
 1567TIP3    H226261   3.155   5.359   1.716  0.9304 -0.6286 -0.9355
 1568TIP3   OH226262   4.500   4.853   1.532  0.2896 -0.3282  0.2743
 1568TIP3    H126263   4.563   4.792   1.494  1.1167  0.6294  0.0504
 1568TIP3    H226264   4.456   4.804   1.601 -0.5230 -1.8026 -1.2123
 1569TIP3   OH226265   4.124   4.274   0.309  0.1620 -0.0370 -0.0038
 1569TIP3    H126266   4.077   4.353   0.281 -0.9007 -1.1774 -1.6064
 1569TIP3    H226267   4.094   4.259   0.399  0.3656  1.3551  0.3130
 1570TIP3   OH226268   2.413   3.683   7.192 -0.2477 -0.6492  0.1007
 1570TIP3    H126269   2.453   3.665   7.107 -1.4744 -0.6214 -0.4993
 1570TIP3    H226270   2.428   3.776   7.206 -0.2677 -0.5986 -0.2044
 1571TIP3   OH226271   4.757   5.295   7.239 -0.1714 -0.1227  0.0204
 1571TIP3    H126272   4.830   5.285   7.178 -0.7808 -1.8818 -0.4763
 1571TIP3    H226273   4.755   5.213   7.288 -1.3431  0.2086  0.5671
 1572TIP3   OH226274   1.408   4.625   0.735  0.0496 -0.3085  0.1904
 1572TIP3    H126275   1.413   4.693   0.668 -0.4116 -1.5097 -1.1064
 1572TIP3    H226276   1.319   4.592   0.730  0.0624 -0.5435  1.2802
 1573TIP3   OH226277   3.587   3.414   7.302  0.5250  0.3347 -0.1807
 1573TIP3    H126278   3.583   3.390   7.394 -1.6708 -3.2117 -0.9999
 1573TIP3    H226279   3.664   3.368   7.268  0.2399  0.0847 -0.4920
 1574TIP3   OH226280   0.278   6.098   0.175 -0.1849 -0.1161  0.2872
 1574TIP3    H126281   0.311   6.138   0.256  0.7442  0.2596 -0.2561
 1574TIP3    H226282   0.223   6.025   0.205  0.7702 -0.4747  1.2434
 1575TIP3   OH226283   2.635   5.363   7.229 -0.7639  0.2538 -0.2841
 1575TIP3    H126284   2.557   5.318   7.262 -1.8015  2.0690 -0.1748
 1575TIP3    H226285   2.601   5.441   7.185  0.6032 -1.1993 -4.4203
 1576TIP3   OH226286   5.148   4.617   7.783  0.0769  0.0115  0.2842
 1576TIP3    H126287   5.075   4.565   7.815  0.5396  0.3633  1.9962
 1576TIP3    H226288   5.225   4.562   7.795  0.2754  0.1871 -0.1519
 1577TIP3   OH226289   0.003   3.706   1.446 -0.4355  0.6573  0.0311
 1577TIP3    H126290   0.065   3.756   1.500  1.0000 -1.2761  0.3184
 1577TIP3    H226291   0.059   3.656   1.386 -1.7708 -0.5499 -0.2599
 1578TIP3   OH226292   5.244   6.400   7.789 -0.3965  0.9724  0.4526
 1578TIP3    H126293   5.294   6.473   7.826 -0.4937  2.1767 -1.6192
 1578TIP3    H226294   5.276   6.392   7.699  0.5044 -2.4313  0.9518
 1579TIP3   OH226295   5.739   5.393   8.523  0.0946 -0.1439 -0.7649
 1579TIP3    H126296   5.725   5.333   8.450 -0.2874 -0.2580 -0.6035
 1579TIP3    H226297   5.833   5.409   8.524  0.0998 -0.1421 -1.2772
 1580TIP3   OH226298   6.264   3.542   0.193  0.1085  0.1124 -0.1877
 1580TIP3    H126299   6.205   3.469   0.172  0.2639 -0.2509  0.5820
 1580TIP3    H226300   6.352   3.504   0.187  0.1441 -0.5126  2.6475
 1581TIP3   OH226301   6.047   3.712   8.610 -0.8296 -0.7089  0.0986
 1581TIP3    H126302   5.977   3.722   8.546 -0.5491 -2.7812 -0.6035
 1581TIP3    H226303   6.001   3.702   8.694 -1.2174  1.2968  0.1803
 1582TIP3   OH226304   6.453   0.904   1.890  0.0753  0.2432 -0.5332
 1582TIP3    H126305   6.534   0.930   1.934 -0.2849  0.6270 -0.0948
 1582TIP3    H226306   6.400   0.865   1.958  1.3685 -3.6492 -1.4929
 1583TIP3   OH226307   0.298   3.140   7.221  0.2299 -0.0395  0.7320
 1583TIP3    H126308   0.344   3.080   7.280 -0.6128  0.3222  1.7845
 1583TIP3    H226309   0.224   3.090   7.188  0.7709 -0.2834 -0.1485
 1584TIP3   OH226310   2.768   1.740   1.833  0.0498  0.3808  0.1314
 1584TIP3    H126311   2.777   1.769   1.924 -0.9466  1.2011 -0.0202
 1584TIP3    H226312   2.679   1.708   1.827 -0.7817  2.7041 -1.1795
 1585TIP3   OH226313   3.213   4.613   6.981  0.0360  0.9290  0.2024
 1585TIP3    H126314   3.186   4.586   6.893  0.0861  1.3285  0.0633
 1585TIP3    H226315   3.307   4.596   6.984 -0.5073 -2.7011  1.4817
 1586TIP3   OH226316   2.529   3.933   8.142  0.4048  0.5232 -0.2683
 1586TIP3    H126317   2.473   3.949   8.218 -0.3186 -0.4589 -0.5809
 1586TIP3    H226318   2.615   3.914   8.179 -0.4746 -2.3961  0.4783
 1587TIP3   OH226319   4.492   0.090   7.986  0.7377 -0.1812  0.1372
 1587TIP3    H126320   4.459   0.139   8.061 -1.7348 -1.3881 -0.0669
 1587TIP3    H226321   4.493  -0.001   8.016  2.0986 -0.4108 -0.5397
 1588TIP3   OH226322   2.319   1.606   0.922  0.4587 -0.2707 -0.0069
 1588TIP3    H126323   2.399   1.594   0.974  0.3371 -0.4699  0.1329
 1588TIP3    H226324   2.253   1.633   0.985  0.2813 -0.6297 -0.0340
 1589TIP3   OH226325   0.199   2.828   8.563  0.5929 -0.2942  0.5035
 1589TIP3    H126326   0.240   2.832   8.476 -0.2754 -0.3708  0.0707
 1589TIP3    H226327   0.227   2.743   8.598  0.3748 -0.5843 -0.0081
 1590TIP3   OH226328   5.148   1.979   0.827 -0.3508  0.8667 -0.3641
 1590TIP3    H126329   5.192   1.948   0.747 -1.2592 -1.9866  0.1373
 1590TIP3    H226330   5.188   2.064   0.844  0.8569  0.9592 -3.0843
 1591TIP3   OH226331   2.045   0.382   1.036  0.0764 -0.2487  0.0832
 1591TIP3    H126332   2.107   0.451   1.011 -0.4757  0.2287  0.0222
 1591TIP3    H226333   1.959   0.417   1.015 -0.2089 -1.0179 -0.0786
 1592TIP3   OH226334   1.890   4.449   1.573  0.3430  0.3656 -0.7994
 1592TIP3    H126335   1.889   4.448   1.477  2.4256  1.4751 -0.8753
 1592TIP3    H226336   1.929   4.534   1.596  2.6696 -1.0751  0.9538
 1593TIP3   OH226337   5.864   0.360   0.940 -0.1800  0.1827  0.4704
 1593TIP3    H126338   5.934   0.359   1.005  1.0006 -2.6728 -0.6750
 1593TIP3    H226339   5.784   0.368   0.991  0.7150 -1.7295  2.3312
 1594TIP3   OH226340   5.309   0.112   0.332 -0.3874 -0.2676  0.4510
 1594TIP3    H126341   5.214   0.102   0.324 -0.2140 -1.6494 -0.0614
 1594TIP3    H226342   5.336   0.157   0.252 -0.8701  2.5052  1.7042
 1595TIP3   OH226343   3.164   4.976   8.603  0.5225  0.1281  0.3806
 1595TIP3    H126344   3.246   4.928   8.613 -0.6801 -2.0468  0.5666
 1595TIP3    H226345   3.140   4.962   8.511 -0.2553 -0.3813  0.6499
 1596TIP3   OH226346   1.021   1.892   1.798 -0.6366  0.7228  0.0176
 1596TIP3    H126347   1.071   1.972   1.781  3.0796 -1.6435 -1.5693
 1596TIP3    H226348   1.037   1.873   1.891  0.0608  0.8142 -0.0826
 1597TIP3   OH226349   2.782   6.683   8.715  0.4605 -0.2796 -0.1758
 1597TIP3    H126350   2.731   6.724   8.645 -0.8120  0.5876  1.1917
 1597TIP3    H226351   2.861   6.651   8.672 -0.5036 -0.2176 -2.0758
 1598TIP3   OH226352   5.099   0.084   7.354 -0.2915  0.4639  0.6039
 1598TIP3    H126353   5.012   0.043   7.345 -0.2530  0.3499  0.7527
 1598TIP3    H226354   5.122   0.072   7.446  0.8543 -1.4947  0.1369
 1599TIP3   OH226355   1.880   3.778   0.191  0.0205  0.3016 -0.0530
 1599TIP3    H126356   1.910   3.786   0.281 -0.8826  0.5763  0.2261
 1599TIP3    H226357   1.832   3.859   0.174 -3.2049 -1.3168  0.5280
 1600TIP3   OH226358   3.404   4.724   7.883  0.2529 -0.0811 -0.0909
 1600TIP3    H126359   3.365   4.640   7.910  1.0960 -0.6340 -0.5458
 1600TIP3    H226360   3.333   4.788   7.894 -0.0792 -0.6484  1.3475
 1601TIP3   OH226361   5.822   0.433   1.722  1.0043 -0.6585 -0.4820
 1601TIP3    H126362   5.742   0.383   1.707  0.3936 -0.1322  0.8721
 1601TIP3    H226363   5.853   0.403   1.807  2.6350 -1.3261 -1.2785
 1602TIP3   OH226364   3.163   0.219   6.913 -1.0422 -0.0485  0.1282
 1602TIP3    H126365   3.131   0.199   7.001  0.6101 -3.4385  0.1358
 1602TIP3    H226366   3.254   0.192   6.914 -0.3713  1.8391 -2.0870
 1603TIP3   OH226367   1.154   1.120   1.538  0.1995  0.6826  0.5092
 1603TIP3    H126368   1.078   1.160   1.496  0.3926  0.4644 -0.0559
 1603TIP3    H226369   1.175   1.044   1.483 -1.0965 -1.1390  2.3793
 1604TIP3   OH226370   0.806   2.871   6.640 -0.3478  0.3841  0.2522
 1604TIP3    H126371   0.759   2.831   6.567 -1.7661  0.9887  0.7930
 1604TIP3    H226372   0.737   2.907   6.696  0.7232  0.2178  1.7310
 1605TIP3   OH226373   4.477   6.353   0.292 -0.0037 -0.3297 -0.3408
 1605TIP3    H126374   4.391   6.378   0.256 -0.4526 -0.7309  0.4159
 1605TIP3    H226375   4.473   6.258   0.299 -0.0071 -0.2554  0.9159
 1606TIP3   OH226376   3.913   5.810   0.327 -0.0469 -0.3562 -0.3352
 1606TIP3    H126377   3.978   5.877   0.304  0.4465 -0.4864  0.5976
 1606TIP3    H226378   3.848   5.814   0.257  0.1530  0.8652 -0.4850
 1607TIP3   OH226379   6.672   4.689   7.108  0.3022  0.3423  0.3098
 1607TIP3    H126380   6.711   4.757   7.164 -0.5849  0.0712  1.2844
 1607TIP3    H226381   6.741   4.624   7.099  0.2971  0.1329  1.5537
 1608TIP3   OH226382   1.060   3.443   8.174  0.6068 -0.3701 -0.9212
 1608TIP3    H126383   1.127   3.499   8.213  0.0093 -2.4252  3.8922
 1608TIP3    H226384   0.990   3.503   8.148  1.6076  1.4148  0.2849
 1609TIP3   OH226385   4.358   2.246   7.217 -0.4241 -0.2219 -0.1844
 1609TIP3    H126386   4.437   2.201   7.246 -0.8434 -0.3647  0.7805
 1609TIP3    H226387   4.303   2.177   7.181  0.3467  0.0398 -1.9660
 1610TIP3   OH226388   2.857   2.686   8.484  0.3399  0.6131 -0.2113
 1610TIP3    H126389   2.763   2.694   8.501  0.3423  1.2240 -0.4569
 1610TIP3    H226390   2.873   2.591   8.483 -0.0456  0.5141  1.0262
 1611TIP3   OH226391   2.773   0.641   0.027 -0.0861 -0.5191 -0.0002
 1611TIP3    H126392   2.751   0.595   0.107 -0.1886 -0.4039  0.0382
 1611TIP3    H226393   2.692   0.638  -0.025 -0.2719  0.1198  0.2422
 1612TIP3   OH226394   0.507   3.328   0.916  0.2855 -0.5003  0.0865
 1612TIP3    H126395   0.539   3.383   0.988 -1.2018 -0.7244  0.9638
 1612TIP3    H226396   0.586   3.291   0.877  1.2987  1.6531 -0.0661
 1613TIP3   OH226397   6.035   6.413   7.537  0.0780  0.2932 -0.0114
 1613TIP3    H126398   6.053   6.362   7.459 -0.6230 -0.0066  0.0208
 1613TIP3    H226399   6.098   6.485   7.533  1.1138 -0.5896 -0.0264
 1614TIP3   OH226400   2.597   2.602   8.017  0.0140 -0.0959 -0.2324
 1614TIP3    H126401   2.627   2.657   8.089 -0.9102 -0.0232  0.1162
 1614TIP3    H226402   2.676   2.560   7.983  0.6027  0.7028  0.1190
 1615TIP3   OH226403   6.726   1.563   0.597 -0.3708  1.0897 -0.1255
 1615TIP3    H126404   6.715   1.506   0.521  0.1149  0.5276  0.2170
 1615TIP3    H226405   6.818   1.587   0.597 -0.9554  3.7929 -1.5889
 1616TIP3   OH226406   3.123   6.019   1.931 -0.3607 -0.7299  0.1892
 1616TIP3    H126407   3.091   6.107   1.947  0.7003 -0.0849 -1.0464
 1616TIP3    H226408   3.199   6.009   1.988  0.3057 -0.3416 -0.6093
 1617TIP3   OH226409   3.983   5.187   0.381  0.1377 -0.6154 -0.2402
 1617TIP3    H126410   3.923   5.128   0.335  0.4476  0.5100 -2.1768
 1617TIP3    H226411   4.058   5.131   0.403 -1.4995 -2.0500  2.2381
 1618TIP3   OH226412   3.291   5.267   1.808 -0.0082 -0.4426 -0.1664
 1618TIP3    H126413   3.223   5.202   1.824 -1.2728  0.8911  0.1401
 1618TIP3    H226414   3.288   5.324   1.885  1.3751 -0.2768 -0.2115
 1619TIP3   OH226415   4.303   4.490   0.929 -0.3994 -0.3653 -0.0136
 1619TIP3    H126416   4.260   4.576   0.923  0.9300  0.2908 -0.6930
 1619TIP3    H226417   4.270   4.452   1.010 -1.0422  0.7774  0.2886
 1620TIP3   OH226418   3.725   0.044   1.908  0.2250 -0.3476 -0.0726
 1620TIP3    H126419   3.807   0.082   1.877 -1.6570  2.4869 -2.0461
 1620TIP3    H226420   3.656   0.095   1.865 -2.6501 -3.5140  0.2547
 1621TIP3   OH226421   6.024   5.168   7.676  0.4512 -0.0266  0.1301
 1621TIP3    H126422   6.005   5.262   7.674 -2.0354 -0.4832 -1.6065
 1621TIP3    H226423   6.093   5.157   7.610 -1.5124  0.2553 -2.1123
 1622TIP3   OH226424   0.966   3.355   6.556  0.1582  0.5782 -0.1859
 1622TIP3    H126425   1.018   3.283   6.591 -0.6303  0.1894  0.2331
 1622TIP3    H226426   1.029   3.415   6.517  0.7996 -0.5803 -0.9902
 1623TIP3   OH226427   0.594   5.123   8.394 -0.0915  0.6259  0.7491
 1623TIP3    H126428   0.660   5.059   8.366 -0.5730 -0.8038  2.6493
 1623TIP3    H226429   0.611   5.200   8.341  0.9473 -0.8488 -1.2052
 1624TIP3   OH226430   0.691   2.534   7.413  0.4819  0.3005 -0.4257
 1624TIP3    H126431   0.605   2.494   7.426  2.1620 -3.2656  1.1191
 1624TIP3    H226432   0.709   2.579   7.496  0.1587  1.0123 -0.7342
 1625TIP3   OH226433   5.428   4.197   0.105  0.4816  0.0500 -0.2077
 1625TIP3    H126434   5.382   4.281   0.109 -0.3543 -0.3795 -0.5554
 1625TIP3    H226435   5.518   4.220   0.081 -0.0154  0.7512 -1.5031
 1626TIP3   OH226436   4.769   5.224   1.473 -0.1059 -0.5346  0.0630
 1626TIP3    H126437   4.808   5.301   1.514  1.3682 -0.6969 -0.9545
 1626TIP3    H226438   4.675   5.233   1.489  0.2077  0.5219  1.5236
 1627TIP3   OH226439   3.257   2.278   0.726  0.4359 -0.1460  0.4108
 1627TIP3    H126440   3.216   2.196   0.700  0.2015  0.0790  0.0739
 1627TIP3    H226441   3.305   2.256   0.807  1.8046 -1.0316 -0.6002
 1628TIP3   OH226442   4.918   4.958   1.846  0.3272 -0.2025  0.2848
 1628TIP3    H126443   4.973   4.880   1.847  1.9008  0.8534  0.4520
 1628TIP3    H226444   4.887   4.964   1.756 -1.1429 -1.8680  0.6319
 1629TIP3   OH226445   3.731   0.308   7.252 -0.7524 -0.2126 -0.1221
 1629TIP3    H126446   3.702   0.314   7.161 -1.4574  1.5937  0.1800
 1629TIP3    H226447   3.825   0.289   7.246 -1.1623 -2.1942 -1.1582
 1630TIP3   OH226448   0.333   0.413   2.420  0.0408  0.2380  0.3271
 1630TIP3    H126449   0.372   0.492   2.384  1.1785 -0.2937  0.3441
 1630TIP3    H226450   0.345   0.347   2.351  1.3267 -0.5291  1.2388
 1631TIP3   OH226451   1.378   1.085   1.178  0.5905 -0.2979  0.2774
 1631TIP3    H126452   1.444   1.055   1.115 -1.3860 -0.0853 -2.0580
 1631TIP3    H226453   1.342   1.164   1.138 -3.1636 -2.0417 -0.2163
 1632TIP3   OH226454   0.060   1.495   0.305 -0.3318 -0.5682 -0.3074
 1632TIP3    H126455  -0.035   1.511   0.304 -0.5032 -0.6938  2.7274
 1632TIP3    H226456   0.097   1.577   0.335  0.4911 -0.6455 -1.1061
 1633TIP3   OH226457   3.484   4.145   8.439 -0.1294  0.5763 -0.2265
 1633TIP3    H126458   3.558   4.181   8.389  2.2464 -0.2695  2.4024
 1633TIP3    H226459   3.494   4.182   8.526 -2.0107 -0.7194  0.6008
 1634TIP3   OH226460   5.565   4.560   6.763  0.0523 -0.2184 -0.1970
 1634TIP3    H126461   5.649   4.605   6.758  0.2308 -0.4073  0.8373
 1634TIP3    H226462   5.564   4.520   6.850 -0.5916 -1.2589 -0.6625
 1635TIP3   OH226463   0.580   4.722   1.012 -0.0077 -0.3241 -0.5853
 1635TIP3    H126464   0.640   4.734   1.086  1.0123 -0.4648 -1.3743
 1635TIP3    H226465   0.569   4.628   1.004 -0.3463 -0.3000 -0.4490
 1636TIP3   OH226466   6.658   3.737   7.353 -0.1330  0.3871 -0.5128
 1636TIP3    H126467   6.744   3.736   7.395 -0.2547  0.9978 -0.2291
 1636TIP3    H226468   6.596   3.728   7.425 -0.3045 -0.0981 -0.7221
 1637TIP3   OH226469   0.269   1.757   0.072 -0.1810 -0.3380  0.3665
 1637TIP3    H126470   0.297   1.839   0.112 -0.0122 -0.3969  0.3724
 1637TIP3    H226471   0.195   1.728   0.125 -0.3716 -0.0882  0.2421
 1638TIP3   OH226472   6.321   2.516   1.711 -0.2765 -0.0384 -0.2610
 1638TIP3    H126473   6.286   2.576   1.777  0.0770  0.0476 -0.1488
 1638TIP3    H226474   6.339   2.572   1.635  1.1139  0.2179  0.2249
 1639TIP3   OH226475   5.552   3.236   7.891 -0.3132 -0.3732  0.3409
 1639TIP3    H126476   5.633   3.207   7.849  0.3237 -0.1423  1.3524
 1639TIP3    H226477   5.484   3.221   7.826  0.2004 -2.6645  0.2329
 1640TIP3   OH226478   6.361   4.614   8.572 -0.2617  0.1169  0.6593
 1640TIP3    H126479   6.374   4.524   8.600  2.2994  0.5273  0.9971
 1640TIP3    H226480   6.403   4.619   8.486  0.4376  1.1836  1.0444
 1641TIP3   OH226481   1.706   2.717   7.202  0.8268 -0.0406  0.2228
 1641TIP3    H126482   1.670   2.802   7.177 -1.5362 -0.5718  1.4967
 1641TIP3    H226483   1.799   2.734   7.217  0.9255  1.7373 -1.9537
 1642TIP3   OH226484   3.463   0.376   6.944  0.3784  0.2146  0.0869
 1642TIP3    H126485   3.541   0.412   6.986  0.1780  0.5510  0.1749
 1642TIP3    H226486   3.496   0.305   6.889  1.1856  2.3137 -2.3431
 1643TIP3   OH226487   0.052   1.224   0.375  0.2057  0.1009 -0.4124
 1643TIP3    H126488  -0.030   1.189   0.408  1.1141 -0.1551  1.7730
 1643TIP3    H226489   0.033   1.316   0.357 -0.4981  0.0974  0.2766
 1644TIP3   OH226490   4.717   4.178   0.639  0.4083  0.2253  0.1048
 1644TIP3    H126491   4.694   4.119   0.712 -1.4872 -2.5725 -2.5136
 1644TIP3    H226492   4.790   4.133   0.595  0.0044  0.6396 -1.0153
 1645TIP3   OH226493   5.341   5.777   0.056  0.4995 -0.7228  0.7824
 1645TIP3    H126494   5.434   5.759   0.071  0.4469  0.4515  2.7499
 1645TIP3    H226495   5.329   5.867   0.086 -1.0418 -0.4120 -0.6340
 1646TIP3   OH226496   3.991   4.522   0.287 -0.2010  0.0074 -0.0551
 1646TIP3    H126497   4.043   4.603   0.282  0.4735 -0.3131  1.2712
 1646TIP3    H226498   3.908   4.550   0.326  0.1113  0.0421  0.6020
 1647TIP3   OH226499   0.984   4.070   0.215 -0.2873 -0.5458 -0.2450
 1647TIP3    H126500   0.962   4.147   0.163 -1.2281 -1.8346 -1.8637
 1647TIP3    H226501   0.922   4.002   0.186 -0.0804 -1.6879  1.7430
 1648TIP3   OH226502   2.049   3.965   7.140  0.2312 -0.2451  0.5112
 1648TIP3    H126503   2.135   3.940   7.176 -0.1594  2.4954  3.9365
 1648TIP3    H226504   1.988   3.905   7.182  0.2019 -0.0343  0.7757
 1649TIP3   OH226505   6.314   0.244   7.228  0.1210 -0.5821 -0.2323
 1649TIP3    H126506   6.297   0.178   7.295 -2.6311  0.5143  0.2387
 1649TIP3    H226507   6.265   0.214   7.152  0.6135 -0.1567 -0.7267
 1650TIP3   OH226508   5.249   6.185   6.524 -0.3850 -0.4512 -0.0943
 1650TIP3    H126509   5.276   6.255   6.464 -1.8519  1.4792  1.3608
 1650TIP3    H226510   5.297   6.108   6.494  2.5377  1.4959 -0.8726
 1651TIP3   OH226511   4.612   0.743   7.800  0.1487 -0.4311  0.0420
 1651TIP3    H126512   4.605   0.650   7.778  0.4558  0.2155 -3.2947
 1651TIP3    H226513   4.523   0.768   7.825 -0.7881 -0.9903 -2.3826
 1652TIP3   OH226514   6.685   2.112   7.056  0.0038 -0.3148  0.3810
 1652TIP3    H126515   6.657   2.087   6.968 -1.0931 -3.3754  1.4665
 1652TIP3    H226516   6.781   2.107   7.052  0.0551  0.8791 -0.9168
 1653TIP3   OH226517   5.336   4.511   0.883  0.0703  0.2284 -0.4174
 1653TIP3    H126518   5.329   4.475   0.971  0.7011  3.0317  0.8866
 1653TIP3    H226519   5.252   4.554   0.867  0.1484  0.1900 -0.9611
 1654TIP3   OH226520   2.392   3.726   1.267  0.2873 -0.2874  0.2559
 1654TIP3    H126521   2.464   3.727   1.205 -0.8460  0.7500 -1.1138
 1654TIP3    H226522   2.418   3.786   1.337 -0.0744  1.7923 -1.2916
 1655TIP3   OH226523   6.696   6.846   1.566  0.1568  0.2920  0.5784
 1655TIP3    H126524   6.605   6.821   1.583 -0.2785  1.6233  0.3168
 1655TIP3    H226525   6.737   6.766   1.534 -0.9621 -0.2878  0.5303
 1656TIP3   OH226526   0.215   3.500   6.945 -0.4712  0.3800  0.1012
 1656TIP3    H126527   0.120   3.509   6.954 -0.4825  1.2302 -0.7660
 1656TIP3    H226528   0.226   3.419   6.896 -0.6330 -0.9118  2.0674
 1657TIP3   OH226529   4.407   1.769   1.560 -0.4554 -0.6663 -0.3003
 1657TIP3    H126530   4.406   1.717   1.480 -0.3864  1.5890 -1.8380
 1657TIP3    H226531   4.391   1.858   1.531 -2.1106  0.0166  2.3997
 1658TIP3   OH226532   4.119   1.200   0.117 -0.3098  0.0498 -0.0081
 1658TIP3    H126533   4.062   1.220   0.043 -0.2079 -0.2119 -0.1604
 1658TIP3    H226534   4.128   1.105   0.115  1.3006  0.1782 -0.8827
 1659TIP3   OH226535   4.754   0.376   0.023  0.2306 -0.4867 -0.7750
 1659TIP3    H126536   4.790   0.426  -0.049 -0.8574  0.9409 -0.3657
 1659TIP3    H226537   4.826   0.318   0.050  1.0517 -0.1683 -2.1661
 1660TIP3   OH226538   1.172   0.787   6.857  0.2038 -0.5489 -0.1965
 1660TIP3    H126539   1.200   0.878   6.852 -1.2529 -0.0495  0.0649
 1660TIP3    H226540   1.227   0.748   6.925  0.8811  0.1232 -0.3519
 1661TIP3   OH226541   4.437   4.827   6.639  0.1814 -0.0472 -0.2831
 1661TIP3    H126542   4.395   4.897   6.589  0.1544  1.4049  1.6671
 1661TIP3    H226543   4.519   4.865   6.670 -0.2333 -0.5537  1.5320
 1662TIP3   OH226544   2.835   2.476   7.026  0.4425 -0.3545 -0.2806
 1662TIP3    H126545   2.884   2.427   6.960  0.7669  1.9249 -1.8357
 1662TIP3    H226546   2.897   2.541   7.059 -0.6190  0.5313  0.0425
 1663TIP3   OH226547   2.105   6.633   2.800 -0.4053  0.0211  0.2591
 1663TIP3    H126548   2.140   6.554   2.759 -1.3218  0.0754 -0.6694
 1663TIP3    H226549   2.183   6.687   2.818  0.2107 -1.0155  0.7826
 1664TIP3   OH226550   6.217   0.117   1.563  0.3762  0.0265 -0.0114
 1664TIP3    H126551   6.171   0.071   1.494  0.7972  0.1289 -0.3641
 1664TIP3    H226552   6.155   0.119   1.636  0.1653 -0.6447 -0.1622
 1665TIP3   OH226553   3.949   1.271   0.993 -0.2926  0.6848  0.7020
 1665TIP3    H126554   3.859   1.289   0.962 -0.5429 -1.0518  0.3553
 1665TIP3    H226555   4.005   1.315   0.928 -0.8619 -0.9226 -0.9682
 1666TIP3   OH226556   1.833   0.704   6.850  0.0775 -0.3343  0.5168
 1666TIP3    H126557   1.782   0.638   6.803  2.4568 -1.8672 -0.0775
 1666TIP3    H226558   1.775   0.781   6.854 -0.5823 -0.2708 -4.3473
 1667TIP3   OH226559   4.323   3.727   7.965  0.3311 -0.7523  0.0069
 1667TIP3    H126560   4.416   3.735   7.946  0.1604 -1.5202 -1.2829
 1667TIP3    H226561   4.287   3.815   7.952  0.8345 -0.4885  0.3639
 1668TIP3   OH226562   0.741   2.576   8.311  0.5437  0.4901  0.2383
 1668TIP3    H126563   0.666   2.607   8.363  1.7934  0.5760  2.0780
 1668TIP3    H226564   0.737   2.627   8.230 -1.7724  0.0019 -0.0365
 1669TIP3   OH226565   4.966   2.174   0.327  0.4066 -0.1034  0.7978
 1669TIP3    H126566   4.877   2.208   0.313  0.6243  0.7042  1.2965
 1669TIP3    H226567   5.023   2.249   0.312  1.1379 -0.9742 -0.9929
 1670TIP3   OH226568   6.154   5.533   8.458  0.4564 -0.5789  0.0905
 1670TIP3    H126569   6.192   5.560   8.375  0.4584 -0.7196  0.0450
 1670TIP3    H226570   6.228   5.524   8.517  0.6372 -1.9125 -0.2897
 1671TIP3   OH226571   2.310   5.179   1.394 -0.8662 -0.0082 -0.1753
 1671TIP3    H126572   2.267   5.168   1.310 -1.6861 -1.2575  0.3807
 1671TIP3    H226573   2.347   5.267   1.391  1.0790 -0.8205 -2.6937
 1672TIP3   OH226574   2.277   4.106   1.910 -0.3145  0.4352 -0.3593
 1672TIP3    H126575   2.247   4.109   2.000  0.3665 -0.6157 -0.0768
 1672TIP3    H226576   2.352   4.047   1.912  0.1779  0.9920 -1.4832
 1673TIP3   OH226577   4.235   3.196   0.152  0.3846 -0.3631  0.6905
 1673TIP3    H126578   4.142   3.217   0.145  0.6298  0.4794 -0.4376
 1673TIP3    H226579   4.259   3.164   0.065  1.5483  1.2712  0.3615
 1674TIP3   OH226580   3.210   4.626   7.263  0.6487 -0.3346  0.5473
 1674TIP3    H126581   3.196   4.620   7.169 -0.8297  0.4713  0.6728
 1674TIP3    H226582   3.281   4.565   7.282  1.6559  0.2359 -1.2231
 1675TIP3   OH226583   2.491   2.289   0.945  0.0121 -0.2752  0.1008
 1675TIP3    H126584   2.540   2.320   1.020 -1.7392  3.3956 -0.0281
 1675TIP3    H226585   2.419   2.237   0.982  0.1562  0.0317  0.8201
 1676TIP3   OH226586   5.740   1.167   0.210  0.3268 -0.7407 -0.5186
 1676TIP3    H126587   5.827   1.174   0.248  1.1944  2.4517 -2.7175
 1676TIP3    H226588   5.752   1.118   0.129  0.3734  0.6997 -1.4173
 1677TIP3   OH226589   2.352   4.254   0.446 -0.6579  0.1294 -0.6488
 1677TIP3    H126590   2.409   4.331   0.450  0.3836 -0.5942 -1.0737
 1677TIP3    H226591   2.276   4.282   0.394 -1.5330  1.6119  1.3050
 1678TIP3   OH226592   6.312   1.804   0.573  0.4145  0.2958 -0.2394
 1678TIP3    H126593   6.386   1.859   0.599  0.7339  0.0297 -0.5879
 1678TIP3    H226594   6.244   1.824   0.638  0.2679  1.6325 -0.7698
 1679TIP3   OH226595   4.962   5.613   7.128 -0.0582  0.4398  0.4952
 1679TIP3    H126596   4.900   5.683   7.149 -0.1237 -0.0230  1.9830
 1679TIP3    H226597   4.989   5.631   7.038 -1.9355  0.9609 -0.0151
 1680TIP3   OH226598   1.025   1.823   1.104 -0.4334  0.1480  0.2269
 1680TIP3    H126599   1.071   1.851   1.183 -0.2647  1.6320 -0.3565
 1680TIP3    H226600   1.095   1.812   1.038 -0.5826 -0.9491  0.2344
 1681TIP3   OH226601   3.960   3.912   6.627 -0.7342 -0.2749  0.1061
 1681TIP3    H126602   3.910   3.884   6.704 -1.4509 -0.1684 -0.3105
 1681TIP3    H226603   3.893   3.938   6.564 -0.1920 -1.3261 -0.9345
 1682TIP3   OH226604   4.322   5.529   8.560  0.2931 -0.0946  0.4918
 1682TIP3    H126605   4.395   5.559   8.506  0.1150 -0.0317  0.2851
 1682TIP3    H226606   4.314   5.595   8.628  0.9552 -0.5237  0.9993
 1683TIP3   OH226607   6.543   0.252   0.473 -0.2891 -0.2788 -0.2648
 1683TIP3    H126608   6.583   0.172   0.438 -2.4185 -1.1694 -0.8528
 1683TIP3    H226609   6.527   0.233   0.565  0.1655 -0.1120 -0.1491
 1684TIP3   OH226610   0.542   3.482   6.461  0.1636 -0.1614  0.0831
 1684TIP3    H126611   0.487   3.555   6.489  0.0848  0.2611 -1.1395
 1684TIP3    H226612   0.625   3.497   6.506 -0.0328  0.3686  0.2827
 1685TIP3   OH226613   0.768   2.055   0.198  0.1206  0.4763  0.0248
 1685TIP3    H126614   0.772   2.023   0.288  0.8588  1.1195  0.2367
 1685TIP3    H226615   0.706   2.128   0.202  0.5635  0.8540  0.1370
 1686TIP3   OH226616   4.401   0.555   7.927 -0.4117 -0.9968 -0.0305
 1686TIP3    H126617   4.345   0.615   7.978  2.0713  1.0062  0.5797
 1686TIP3    H226618   4.386   0.469   7.966 -3.0455 -0.5740  0.0383
 1687TIP3   OH226619   2.472   6.506   8.010 -1.0700 -0.4701  0.0250
 1687TIP3    H126620   2.452   6.542   8.096 -2.1099 -0.3673 -0.2444
 1687TIP3    H226621   2.484   6.582   7.953  0.2640 -0.5313  0.2111
 1688TIP3   OH226622   5.136   1.809   8.071 -0.0995 -0.2624 -0.3898
 1688TIP3    H126623   5.073   1.864   8.118  0.9991  0.7138 -0.0234
 1688TIP3    H226624   5.082   1.740   8.032 -1.3360  0.2690  0.3061
 1689TIP3   OH226625   0.885   1.791   1.456  0.7287  0.0552  0.0298
 1689TIP3    H126626   0.872   1.767   1.548 -1.5329  1.8520  0.2504
 1689TIP3    H226627   0.920   1.711   1.415  0.9193 -1.0552  2.2355
 1690TIP3   OH226628   1.351   3.663   1.955 -0.5245 -0.1073 -0.0468
 1690TIP3    H126629   1.411   3.736   1.943 -0.7767 -0.2638 -3.6370
 1690TIP3    H226630   1.407   3.589   1.977  0.4473  0.1199 -1.5968
 1691TIP3   OH226631   0.046   5.034   0.315 -0.0914 -0.0147  0.2044
 1691TIP3    H126632   0.131   4.997   0.290  0.1594 -0.9715  2.2917
 1691TIP3    H226633   0.038   5.015   0.408 -2.8880 -0.4642 -0.0542
 1692TIP3   OH226634   2.636   5.088   6.777  0.0725  0.2784  0.4933
 1692TIP3    H126635   2.688   5.090   6.697 -0.7330  1.2074 -0.0219
 1692TIP3    H226636   2.698   5.115   6.846  0.4940  0.5219  0.0263
 1693TIP3   OH226637   5.264   3.143   7.927  0.3141 -0.4457  0.0881
 1693TIP3    H126638   5.343   3.093   7.948  1.2761  0.9957  0.1129
 1693TIP3    H226639   5.255   3.135   7.832  1.4917  0.6808 -0.1659
 1694TIP3   OH226640   6.628   1.507   0.318 -0.3057 -0.0520  0.2076
 1694TIP3    H126641   6.550   1.550   0.351 -0.0246  0.4923  0.1740
 1694TIP3    H226642   6.596   1.447   0.250 -0.6215  0.6796 -0.2958
 1695TIP3   OH226643   1.166   0.262   1.985 -0.2615  0.0739 -0.4219
 1695TIP3    H126644   1.129   0.189   1.936 -0.6318  1.2140 -1.9417
 1695TIP3    H226645   1.091   0.318   2.006 -0.0999 -0.3806  1.4875
 1696TIP3   OH226646   2.483   0.819   8.329  0.0249 -0.3710  0.0096
 1696TIP3    H126647   2.425   0.894   8.337 -0.3233 -0.8166  2.3329
 1696TIP3    H226648   2.570   0.857   8.318 -0.0413  0.4358  1.8988
 1697TIP3   OH226649   5.645   6.683   7.981  0.2405 -0.4135 -0.3410
 1697TIP3    H126650   5.630   6.589   7.975  1.5621 -0.8432  1.8109
 1697TIP3    H226651   5.565   6.718   8.020 -0.4764 -0.5364 -1.6702
 1698TIP3   OH226652   6.266   6.176   2.398  0.2057 -0.4520  0.3070
 1698TIP3    H126653   6.359   6.181   2.376  0.4926  2.5168  1.7855
 1698TIP3    H226654   6.225   6.244   2.344 -1.6502 -3.2209 -2.1026
 1699TIP3   OH226655   0.682   6.785   2.608  0.0225  0.2605 -0.1474
 1699TIP3    H126656   0.681   6.871   2.567  1.5350  0.2235 -0.3273
 1699TIP3    H226657   0.761   6.743   2.573 -0.1996 -0.8520  0.6358
 1700TIP3   OH226658   3.209   4.290   0.062 -0.3399 -0.0159 -0.4499
 1700TIP3    H126659   3.272   4.218   0.058 -0.3585 -0.0349 -0.4074
 1700TIP3    H226660   3.158   4.272   0.141  0.2262  0.5064  0.0509
 1701TIP3   OH226661   1.632   6.300   1.673  0.7758  0.0805  0.2912
 1701TIP3    H126662   1.650   6.314   1.580  0.0689 -0.9465 -0.0196
 1701TIP3    H226663   1.587   6.380   1.701 -0.9574 -0.4683 -0.8037
 1702TIP3   OH226664   1.163   4.139   6.889 -0.1107 -0.4186  0.0772
 1702TIP3    H126665   1.165   4.046   6.908 -0.1587 -1.0744 -2.6953
 1702TIP3    H226666   1.205   4.147   6.803 -0.2363  2.1015  0.1634
 1703TIP3   OH226667   3.232   4.117   0.860  0.1093 -0.0267  0.2920
 1703TIP3    H126668   3.264   4.194   0.813  1.3565 -0.3675  0.5697
 1703TIP3    H226669   3.138   4.134   0.871 -0.2477  0.0896 -2.2796
 1704TIP3   OH226670   0.854   3.645   8.135 -0.6022  0.2170  0.4329
 1704TIP3    H126671   0.784   3.665   8.073 -1.6316  0.0102  1.5141
 1704TIP3    H226672   0.851   3.715   8.199  1.1253  0.9865 -0.2514
 1705TIP3   OH226673   0.460   4.065   7.489  0.1388 -0.0329  0.0091
 1705TIP3    H126674   0.396   4.011   7.536 -0.4717  0.1077 -0.6443
 1705TIP3    H226675   0.434   4.155   7.509  0.2001  0.0243 -0.1660
 1706TIP3   OH226676   0.436   6.621   8.619 -0.4582  0.6519 -0.4770
 1706TIP3    H126677   0.457   6.541   8.571 -1.4311  0.1035 -0.0276
 1706TIP3    H226678   0.406   6.589   8.705  1.3654  1.6019  0.5689
 1707TIP3   OH226679   1.112   5.084   2.115  0.3277  0.5185  0.3362
 1707TIP3    H126680   1.044   5.093   2.182  0.8654 -2.3356  1.4162
 1707TIP3    H226681   1.086   5.006   2.066  1.3467  1.0475 -1.0831
 1708TIP3   OH226682   3.218   0.368   0.611  0.0603 -0.1824  0.3261
 1708TIP3    H126683   3.226   0.420   0.531  1.7063 -1.2426 -0.2507
 1708TIP3    H226684   3.223   0.432   0.682 -0.8672  0.7144 -0.3928
 1709TIP3   OH226685   4.486   5.868   8.422  0.1049  0.0680  0.3183
 1709TIP3    H126686   4.483   5.910   8.509 -0.3345 -0.7748  0.7192
 1709TIP3    H226687   4.418   5.913   8.372 -0.2969 -0.0905  0.7136
 1710TIP3   OH226688   6.237   1.432   8.579  0.1929 -0.1787  0.2842
 1710TIP3    H126689   6.255   1.468   8.666 -1.8653 -3.2644  2.2223
 1710TIP3    H226690   6.148   1.461   8.559  0.0329 -0.8370  0.0047
 1711TIP3   OH226691   4.943   6.075   0.675  0.4097 -0.4630  0.3836
 1711TIP3    H126692   4.964   6.015   0.746  0.3424 -0.1861  0.6407
 1711TIP3    H226693   5.018   6.068   0.615  0.3865 -0.8221  0.3942
 1712TIP3   OH226694   0.608   6.753   2.001 -0.0627  0.1134  0.1588
 1712TIP3    H126695   0.524   6.798   1.994  0.2799  0.5068 -1.8741
 1712TIP3    H226696   0.601   6.702   2.082 -1.7997  1.0450  0.6425
 1713TIP3   OH226697   5.404   4.459   1.323 -0.2904 -0.4216 -1.1094
 1713TIP3    H126698   5.318   4.458   1.281  0.0389  0.7312 -1.8494
 1713TIP3    H226699   5.394   4.400   1.398 -2.6602  1.8933  0.6023
 1714TIP3   OH226700   2.185   3.314   0.848  0.2174  0.1112 -0.1424
 1714TIP3    H126701   2.145   3.243   0.798  0.8123  0.7249 -1.5321
 1714TIP3    H226702   2.232   3.366   0.783  0.5473  1.2679  0.9795
 1715TIP3   OH226703   4.907   1.572   2.318  0.6497 -0.7391  0.1489
 1715TIP3    H126704   4.954   1.496   2.285  0.8186 -0.9244  0.8093
 1715TIP3    H226705   4.973   1.622   2.366  1.2825  1.3102 -2.5958
 1716TIP3   OH226706   0.408   6.154   8.267 -0.0060 -0.0809  0.7230
 1716TIP3    H126707   0.326   6.112   8.245 -0.2159 -0.5209  2.1938
 1716TIP3    H226708   0.417   6.226   8.205 -0.4379 -1.2958 -0.8075
 1717TIP3   OH226709   6.500   6.203   7.519  0.1139 -0.1223  0.5589
 1717TIP3    H126710   6.467   6.292   7.514  1.6417  0.4075 -1.1321
 1717TIP3    H226711   6.585   6.211   7.561  0.3996 -0.7391  0.1141
 1718TIP3   OH226712   1.901   3.476   7.374 -0.1670 -0.1886 -0.1524
 1718TIP3    H126713   1.969   3.495   7.309 -0.3658  2.7456  0.3628
 1718TIP3    H226714   1.945   3.482   7.458 -0.7979  0.4962  0.1400
 1719TIP3   OH226715   4.846   3.700   0.855  0.4544 -0.0486  0.1295
 1719TIP3    H126716   4.919   3.708   0.917  1.3695 -0.5561 -0.8472
 1719TIP3    H226717   4.854   3.612   0.820 -2.9779 -1.6564  2.7981
 1720TIP3   OH226718   3.808   0.434   8.589  0.3539  0.5370 -0.0137
 1720TIP3    H126719   3.833   0.460   8.677 -1.2677 -1.7156  1.2025
 1720TIP3    H226720   3.876   0.373   8.562 -0.0321 -0.0780  0.3862
 1721TIP3   OH226721   3.047   5.781   7.753  0.0284 -0.0788 -0.5459
 1721TIP3    H126722   3.104   5.707   7.776 -0.8883 -0.5491  0.2898
 1721TIP3    H226723   2.991   5.793   7.830 -0.1454  1.1996 -0.8493
 1722TIP3   OH226724   0.814   6.260   6.864 -0.4437 -0.0793  0.3795
 1722TIP3    H126725   0.825   6.186   6.805 -0.7496 -0.1277  0.3803
 1722TIP3    H226726   0.773   6.328   6.810 -1.0927 -0.2617  0.6373
 1723TIP3   OH226727   2.107   2.040   2.341 -0.2666 -0.3786 -0.5826
 1723TIP3    H126728   2.171   2.099   2.381 -1.1673  0.4374 -0.3200
 1723TIP3    H226729   2.028   2.051   2.393 -1.8862  1.6372 -3.2181
 1724TIP3   OH226730   2.277   5.172   1.125  0.6142 -0.0066  0.0784
 1724TIP3    H126731   2.198   5.220   1.151  0.3909  0.5175 -1.5098
 1724TIP3    H226732   2.308   5.216   1.046  1.3765 -1.4302 -0.4568
 1725TIP3   OH226733   5.856   5.866   2.209  0.1222  0.1224 -0.0695
 1725TIP3    H126734   5.946   5.835   2.196 -0.0697 -0.9044  0.9511
 1725TIP3    H226735   5.858   5.915   2.291 -0.3768 -0.4421  0.2854
 1726TIP3   OH226736   3.184   1.926   8.646  0.1995 -0.2298  0.2806
 1726TIP3    H126737   3.157   1.997   8.587  0.2586 -0.7786 -0.4127
 1726TIP3    H226738   3.275   1.909   8.623  0.6142  0.3704  1.3719
 1727TIP3   OH226739   0.900   6.791   8.338  0.1729  0.6797 -0.4188
 1727TIP3    H126740   0.957   6.841   8.396 -0.6186  1.1487 -0.0357
 1727TIP3    H226741   0.918   6.826   8.250  2.3527 -0.9360 -0.6961
 1728TIP3   OH226742   2.431   3.364   0.700  0.0325  0.2594  0.1261
 1728TIP3    H126743   2.523   3.346   0.718  0.4055  1.4425 -0.5011
 1728TIP3    H226744   2.422   3.458   0.716 -1.0831  0.1371  0.2540
 1729TIP3   OH226745   2.729   5.014   7.754  0.1360 -0.2872 -0.0501
 1729TIP3    H126746   2.791   4.943   7.737 -0.1967 -0.7117  0.4599
 1729TIP3    H226747   2.715   5.055   7.669 -2.1939 -2.9011 -1.0857
 1730TIP3   OH226748   0.602   0.222   2.050 -0.3242 -0.7471 -0.5071
 1730TIP3    H126749   0.545   0.153   2.017  0.5765 -1.3229 -0.8726
 1730TIP3    H226750   0.544   0.299   2.057 -0.9971 -1.1460 -1.4854
 1731TIP3   OH226751   5.641   2.718   0.496 -0.0683 -0.2538 -0.0028
 1731TIP3    H126752   5.715   2.663   0.473  0.3539  0.4669 -0.3865
 1731TIP3    H226753   5.610   2.683   0.580  0.8406 -0.4078  0.2710
 1732TIP3   OH226754   2.332   4.927   6.272  0.1789 -0.2625  0.1070
 1732TIP3    H126755   2.390   4.853   6.254  2.1839  1.4083 -0.5526
 1732TIP3    H226756   2.335   4.937   6.367 -1.7807 -2.2603  0.4625
 1733TIP3   OH226757   1.098   4.962   6.717 -0.3848  0.0104  0.1734
 1733TIP3    H126758   1.155   4.998   6.784  0.9780 -2.0978  0.2316
 1733TIP3    H226759   1.021   5.019   6.718  1.3400  2.5074  0.6065
 1734TIP3   OH226760   1.345   5.546   0.555 -0.8469 -0.1947  0.0414
 1734TIP3    H126761   1.365   5.508   0.469  1.4243  0.5567  0.1992
 1734TIP3    H226762   1.386   5.632   0.554 -2.6819  0.7611  1.1125
 1735TIP3   OH226763   5.218   0.095   7.612 -0.0701  0.2198  0.0086
 1735TIP3    H126764   5.305   0.135   7.599  0.4811 -1.0878 -0.4339
 1735TIP3    H226765   5.237   0.009   7.649 -1.1296 -0.5255 -1.1369
 1736TIP3   OH226766   5.656   6.006   2.058  0.1408  0.3066  0.0471
 1736TIP3    H126767   5.682   5.932   2.114 -0.5822 -0.1422 -0.2085
 1736TIP3    H226768   5.664   5.972   1.969  0.4991  0.7716 -0.1030
 1737TIP3   OH226769   4.984   1.629   1.448  0.2144 -0.4047  0.4193
 1737TIP3    H126770   5.052   1.692   1.474 -0.0068 -0.5402  1.3787
 1737TIP3    H226771   4.925   1.626   1.524 -1.4988  0.5596 -0.7879
 1738TIP3   OH226772   1.758   3.323   7.778 -0.0594 -0.2825  0.2068
 1738TIP3    H126773   1.845   3.283   7.786 -0.8581 -2.1571  0.0405
 1738TIP3    H226774   1.716   3.308   7.863 -0.4403  0.0539  0.0828
 1739TIP3   OH226775   1.434   1.149   0.673 -0.5771 -0.2617  0.4444
 1739TIP3    H126776   1.378   1.221   0.645 -0.6676 -1.0398 -1.5492
 1739TIP3    H226777   1.521   1.171   0.638 -0.6350 -1.1578 -0.3033
 1740TIP3   OH226778   2.792   0.207   8.297 -0.6646  0.2879  0.3140
 1740TIP3    H126779   2.761   0.117   8.303  0.0856 -0.0455 -0.6582
 1740TIP3    H226780   2.880   0.201   8.260 -0.5220  1.4055  0.4208
 1741TIP3   OH226781   4.306   3.090   8.016  0.0647  0.0142 -0.4919
 1741TIP3    H126782   4.265   3.171   7.986  1.8095  0.9006 -0.5984
 1741TIP3    H226783   4.321   3.040   7.936  0.6020  0.4032 -0.6495
 1742TIP3   OH226784   4.577   3.504   2.182 -0.0363  0.8379  0.3594
 1742TIP3    H126785   4.618   3.533   2.100 -0.7091 -0.6552 -0.5710
 1742TIP3    H226786   4.514   3.437   2.154  0.1143 -0.1200  2.1589
 1743TIP3   OH226787   6.406   2.179   0.377 -0.2706 -0.0081  0.3795
 1743TIP3    H126788   6.467   2.107   0.361 -0.1260  0.2210 -0.1022
 1743TIP3    H226789   6.321   2.143   0.353  0.0333  0.5862 -1.7900
 1744TIP3   OH226790   3.990   0.668   7.796  0.2888  0.5891 -0.3906
 1744TIP3    H126791   3.895   0.682   7.797  0.1523 -0.2564 -0.2339
 1744TIP3    H226792   4.006   0.614   7.873  0.9505  1.0034 -0.2349
 1745TIP3   OH226793   4.599   3.655   8.203 -0.1370 -0.2102  0.0753
 1745TIP3    H126794   4.671   3.716   8.214  0.4111 -0.8321 -0.0089
 1745TIP3    H226795   4.588   3.615   8.290  0.2990 -0.8565 -0.1632
 1746TIP3   OH226796   5.574   1.606   0.390  0.4706  0.5251 -0.5357
 1746TIP3    H126797   5.543   1.668   0.324  0.5884 -0.3068 -1.3937
 1746TIP3    H226798   5.532   1.523   0.367 -3.2390  1.0713  3.1007
 1747TIP3   OH226799   6.211   3.285   7.254 -0.2308 -0.1565 -0.1828
 1747TIP3    H126800   6.291   3.302   7.203 -1.5249  3.2511 -1.3623
 1747TIP3    H226801   6.142   3.279   7.189 -1.5906  1.9286  0.9592
 1748TIP3   OH226802   2.209   0.641   1.239 -0.0025 -0.5104  0.0888
 1748TIP3    H126803   2.148   0.567   1.238  0.5509 -0.9705 -0.2385
 1748TIP3    H226804   2.168   0.705   1.296 -0.7046 -0.8929  0.0238
 1749TIP3   OH226805   5.576   4.634   1.480 -0.3136 -0.0377 -0.3474
 1749TIP3    H126806   5.490   4.597   1.461 -1.3561  1.5982  0.9727
 1749TIP3    H226807   5.588   4.620   1.574  0.5508  0.4157 -0.3785
 1750TIP3   OH226808   0.984   5.015   0.987 -0.3016 -0.3947  0.5297
 1750TIP3    H126809   0.911   5.008   1.049 -0.5928  1.0475  0.3950
 1750TIP3    H226810   0.955   4.968   0.909 -0.4905 -1.0479  0.9847
 1751TIP3   OH226811   6.807   5.834   7.205  0.2662 -0.4580 -0.1337
 1751TIP3    H126812   6.828   5.904   7.267  1.3962 -0.6198 -0.3069
 1751TIP3    H226813   6.811   5.754   7.257  1.4302 -0.6163 -0.4248
 1752TIP3   OH226814   0.060   6.498   1.217 -0.2996  0.5014 -0.1088
 1752TIP3    H126815   0.134   6.530   1.268  0.7005 -0.9326 -0.6072
 1752TIP3    H226816   0.092   6.495   1.127 -2.0146  2.9192 -0.8965
 1753TIP3   OH226817   1.880   4.397   0.738  0.5064  0.1409 -0.5178
 1753TIP3    H126818   1.871   4.311   0.779  1.1577 -0.2390 -1.1522
 1753TIP3    H226819   1.954   4.387   0.678 -1.1298  0.3509 -2.6533
 1754TIP3   OH226820   5.579   2.186   7.900  0.1870  0.5000 -0.2598
 1754TIP3    H126821   5.658   2.202   7.951  0.7910 -1.2003 -0.6094
 1754TIP3    H226822   5.604   2.205   7.810  0.0303  0.4875 -0.3078
 1755TIP3   OH226823   1.589   1.657   6.623  0.2903 -0.0804  0.1808
 1755TIP3    H126824   1.624   1.644   6.535  0.8310 -1.6735  0.6056
 1755TIP3    H226825   1.549   1.744   6.620 -0.4437 -0.4438 -1.8770
 1756TIP3   OH226826   3.397   4.447   7.299 -0.1467  0.4010  0.0475
 1756TIP3    H126827   3.374   4.439   7.392  0.2716  0.3996  0.1497
 1756TIP3    H226828   3.429   4.360   7.274  1.4179  0.8631  0.3562
 1757TIP3   OH226829   2.454   4.340   0.035 -0.9707 -0.2042 -0.7804
 1757TIP3    H126830   2.466   4.315  -0.057 -0.6192 -2.5473 -0.1574
 1757TIP3    H226831   2.436   4.257   0.080  1.8343  0.3963  1.7568
 1758TIP3   OH226832   4.057   4.682   1.745 -0.1014  1.1083 -0.4309
 1758TIP3    H126833   4.064   4.774   1.771 -0.6567  1.2531 -0.7893
 1758TIP3    H226834   4.025   4.638   1.824  0.6558  1.1258 -0.0979
 1759TIP3   OH226835   1.754   6.612   1.410  0.5798 -0.1151 -0.0193
 1759TIP3    H126836   1.695   6.538   1.422 -0.1557  0.4897  0.1192
 1759TIP3    H226837   1.699   6.682   1.375  0.9991  0.7632  1.0096
 1760TIP3   OH226838   5.615   4.820   7.223  0.0379  0.1929  0.6701
 1760TIP3    H126839   5.614   4.865   7.139 -1.3171  1.3894  1.2767
 1760TIP3    H226840   5.695   4.848   7.266  0.8459 -0.5953 -0.2804
 1761TIP3   OH226841   0.093   6.670   6.803  1.0065  0.0874  0.7721
 1761TIP3    H126842   0.096   6.762   6.777  2.4308 -0.4179 -1.1315
 1761TIP3    H226843   0.169   6.631   6.759 -0.1641 -2.2088  0.6369
 1762TIP3   OH226844   6.042   0.748   8.045  0.2053 -0.3885 -0.5939
 1762TIP3    H126845   6.117   0.794   8.083 -0.0579 -0.2815 -0.1939
 1762TIP3    H226846   6.019   0.683   8.111 -0.9629  0.5413 -0.0595
 1763TIP3   OH226847   0.451   6.296   6.933 -0.1746 -0.1867 -0.3032
 1763TIP3    H126848   0.422   6.205   6.924 -0.4725 -0.4282  2.2297
 1763TIP3    H226849   0.389   6.346   6.880 -1.3582 -1.2824 -0.0028
 1764TIP3   OH226850   3.093   0.849   7.555 -0.0504 -0.4722 -0.4148
 1764TIP3    H126851   3.125   0.897   7.631  1.1126  1.4107 -2.0009
 1764TIP3    H226852   3.011   0.893   7.532 -0.8593 -1.6016  0.2303
 1765TIP3   OH226853   0.703   4.725   0.470  0.4678 -0.3345 -0.4390
 1765TIP3    H126854   0.732   4.663   0.538  0.1103 -0.9532 -0.8385
 1765TIP3    H226855   0.660   4.670   0.405  2.1573  0.0387 -1.9533
 1766TIP3   OH226856   6.276   5.201   1.921  0.1285  0.3861 -0.2339
 1766TIP3    H126857   6.234   5.118   1.944 -1.3000  1.2992  0.5686
 1766TIP3    H226858   6.306   5.237   2.005 -1.8239  1.9969 -0.1498
 1767TIP3   OH226859   1.740   6.007   0.079  0.5030 -0.0543 -0.2004
 1767TIP3    H126860   1.646   6.025   0.071  0.1049 -2.0729 -0.5634
 1767TIP3    H226861   1.756   6.005   0.173  0.6906  2.4674 -0.1155
 1768TIP3   OH226862   1.870   1.878   7.899  0.0769 -0.5327  0.5849
 1768TIP3    H126863   1.937   1.875   7.968 -0.4293 -1.1341  1.0596
 1768TIP3    H226864   1.899   1.814   7.834 -0.4757 -1.4424  1.2114
 1769TIP3   OH226865   2.178   0.572   2.275 -0.2845  0.4478  0.1200
 1769TIP3    H126866   2.252   0.512   2.264 -1.2919 -0.6709 -0.8797
 1769TIP3    H226867   2.138   0.546   2.358 -0.5053 -0.0402 -0.1345
 1770TIP3   OH226868   5.977   1.195   7.032 -0.4306  0.1760  0.5797
 1770TIP3    H126869   5.998   1.142   6.955 -0.9909 -0.2031  0.6877
 1770TIP3    H226870   5.901   1.247   7.006 -0.4069  0.3028  0.7610
 1771TIP3   OH226871   5.462   5.235   8.362  0.1375 -0.1896 -0.0453
 1771TIP3    H126872   5.554   5.256   8.347 -0.4170  1.5120 -1.4605
 1771TIP3    H226873   5.420   5.253   8.278 -1.6071 -0.2734  0.7687
 1772TIP3   OH226874   0.627   5.934   2.561 -0.4084  0.0786 -0.8213
 1772TIP3    H126875   0.628   5.839   2.565  0.6892  0.0657 -1.1158
 1772TIP3    H226876   0.573   5.954   2.485 -0.6246 -0.3087 -0.7730
 1773TIP3   OH226877   0.945   2.758   0.661 -0.2973  0.0368  0.4642
 1773TIP3    H126878   1.033   2.786   0.633 -1.2651  1.8976 -0.9677
 1773TIP3    H226879   0.888   2.830   0.634 -2.1862 -0.7783  2.0573
 1774TIP3   OH226880   2.846   4.861   1.276 -0.2868  0.4023  0.2726
 1774TIP3    H126881   2.902   4.938   1.267  1.6302 -0.8212  1.0192
 1774TIP3    H226882   2.839   4.826   1.187  1.3388 -0.1790  0.3365
 1775TIP3   OH226883   1.810   2.747   1.258 -0.3604  0.4311 -0.1283
 1775TIP3    H126884   1.747   2.683   1.291 -1.3867  0.9278 -1.0707
 1775TIP3    H226885   1.894   2.701   1.257 -0.8310 -0.4570  0.4789
 1776TIP3   OH226886   0.475   6.373   1.141 -0.8299 -0.3346 -0.0282
 1776TIP3    H126887   0.486   6.309   1.211  1.4380 -0.5977 -0.5135
 1776TIP3    H226888   0.420   6.329   1.076 -0.5417 -1.2366  0.3211
 1777TIP3   OH226889   3.156   5.398   6.480 -0.1584  0.3652 -0.2189
 1777TIP3    H126890   3.112   5.479   6.507 -0.5944  1.3036 -3.3453
 1777TIP3    H226891   3.090   5.350   6.431  0.8261 -0.6474 -0.5996
 1778TIP3   OH226892   4.371   5.237   0.168  0.2770  0.1452  0.3782
 1778TIP3    H126893   4.371   5.197   0.255  0.2416 -1.4532 -0.3299
 1778TIP3    H226894   4.279   5.250   0.147  0.3023  1.3861  0.9239
 1779TIP3   OH226895   4.430   2.106   0.085  0.2646 -0.0498  0.0192
 1779TIP3    H126896   4.488   2.152   0.025  0.2795 -1.2988 -0.9825
 1779TIP3    H226897   4.386   2.041   0.030  0.2721 -1.2417  1.3554
 1780TIP3   OH226898   1.459   5.612   1.275  0.1219  0.1744 -0.2284
 1780TIP3    H126899   1.452   5.556   1.197  2.6511 -1.8084  0.7877
 1780TIP3    H226900   1.488   5.552   1.344  1.4055  2.4675  1.3569
 1781TIP3   OH226901   3.143   1.074   0.353 -0.4140  0.1840 -0.1674
 1781TIP3    H126902   3.116   1.150   0.301  0.4580  0.4494 -0.2403
 1781TIP3    H226903   3.195   1.112   0.424 -1.2003 -0.2147  0.6488
 1782TIP3   OH226904   2.038   5.153   6.768 -0.0005  0.0948 -0.2556
 1782TIP3    H126905   2.040   5.125   6.676 -2.2663 -0.5818 -0.1622
 1782TIP3    H226906   2.009   5.244   6.764 -0.8820 -0.1711 -0.2100
 1783TIP3   OH226907   0.232   2.467   1.494  0.3199  0.2841 -0.4134
 1783TIP3    H126908   0.246   2.435   1.405 -0.9958 -1.2242 -0.1248
 1783TIP3    H226909   0.320   2.477   1.530  0.8830  1.0708 -1.8944
 1784TIP3   OH226910   0.986   5.143   0.439 -0.5667  0.5579 -0.4295
 1784TIP3    H126911   0.945   5.074   0.491  0.6816 -0.3271 -0.5725
 1784TIP3    H226912   0.994   5.217   0.499 -0.2816 -0.0350  0.2785
 1785TIP3   OH226913   2.888   4.523   8.215 -0.0516  0.4781  0.3769
 1785TIP3    H126914   2.942   4.500   8.291 -0.4699  1.3161  0.9466
 1785TIP3    H226915   2.935   4.487   8.140  1.4117  1.3380  0.8336
 1786TIP3   OH226916   5.996   6.026   7.047 -0.6900 -0.0681  0.4219
 1786TIP3    H126917   6.042   6.106   7.072 -1.0587  1.1060 -2.2718
 1786TIP3    H226918   6.036   5.958   7.100  1.4173  1.5040  0.9942
 1787TIP3   OH226919   0.475   1.791   8.362  0.4446 -0.3606 -0.3071
 1787TIP3    H126920   0.420   1.740   8.421  1.5883  0.7731  1.8445
 1787TIP3    H226921   0.421   1.802   8.283 -1.0729 -2.0756  0.4037
 1788TIP3   OH226922   0.333   2.203   7.364  0.0767 -0.1258 -0.0591
 1788TIP3    H126923   0.279   2.170   7.436  0.9603 -0.4294  0.4820
 1788TIP3    H226924   0.275   2.202   7.288 -0.3615 -1.4779  0.2637
 1789TIP3   OH226925   4.182   4.174   6.618 -0.0904 -0.6706 -0.8122
 1789TIP3    H126926   4.231   4.198   6.697  0.7144  0.7892 -1.7084
 1789TIP3    H226927   4.090   4.177   6.645  0.2071 -1.5727  0.4084
 1790TIP3   OH226928   1.619   2.370   0.039 -0.0658 -0.2332  0.4212
 1790TIP3    H126929   1.708   2.401   0.027 -0.2057  1.0552  2.2997
 1790TIP3    H226930   1.566   2.425  -0.018  0.2244 -0.3342  0.0492
 1791TIP3   OH226931   1.307   2.476   7.700  0.5745  0.0029  0.0507
 1791TIP3    H126932   1.362   2.544   7.663  0.7263 -0.1699 -0.0446
 1791TIP3    H226933   1.369   2.410   7.733  0.4885  0.6204  1.5346
 1792TIP3   OH226934   2.742   2.882   7.937  0.4862 -0.3407 -0.2918
 1792TIP3    H126935   2.756   2.971   7.904 -0.5299  0.2101  0.7065
 1792TIP3    H226936   2.648   2.866   7.924  0.6522 -1.2743 -0.4396
 1793TIP3   OH226937   4.524   5.062   1.720 -0.0958  0.0805  0.6765
 1793TIP3    H126938   4.436   5.057   1.759  0.2357 -1.8709  1.2735
 1793TIP3    H226939   4.535   4.977   1.677  0.8664  0.9420 -0.8589
 1794TIP3   OH226940   2.131   1.588   1.133 -0.6706 -0.0930  0.8340
 1794TIP3    H126941   2.196   1.599   1.203 -0.8969 -0.6137  1.1297
 1794TIP3    H226942   2.066   1.656   1.150 -0.5637 -0.0158  0.9400
 1795TIP3   OH226943   6.335   3.434   7.802 -0.1823 -0.7555 -0.5716
 1795TIP3    H126944   6.249   3.399   7.827  0.4608 -1.6318  0.5399
 1795TIP3    H226945   6.386   3.357   7.778  1.0894 -0.5910  1.3604
 1796TIP3   OH226946   5.372   1.267   8.513  0.8494  0.1981  0.3565
 1796TIP3    H126947   5.401   1.342   8.565  2.3803  0.3502 -0.6651
 1796TIP3    H226948   5.281   1.254   8.540  0.9969  1.4839  1.6304
 1797TIP3   OH226949   6.364   3.630   7.491  0.2359 -0.1612  0.0520
 1797TIP3    H126950   6.302   3.561   7.515  1.5825 -1.5318 -0.2095
 1797TIP3    H226951   6.310   3.699   7.453 -1.4619  0.1276  2.7476
 1798TIP3   OH226952   3.646   6.646   1.819 -0.1001 -0.0959  0.5322
 1798TIP3    H126953   3.683   6.730   1.845  0.5611 -0.8100  1.9781
 1798TIP3    H226954   3.707   6.580   1.852 -0.5383 -1.1661 -0.6716
 1799TIP3   OH226955   4.579   3.010   7.369  0.1362 -0.3737 -0.0962
 1799TIP3    H126956   4.597   3.005   7.463  0.9945 -1.6398 -0.3010
 1799TIP3    H226957   4.548   3.100   7.356  0.3361 -0.0605  1.3330
 1800TIP3   OH226958   2.835   6.538   1.325  0.3118  0.0711  0.1929
 1800TIP3    H126959   2.835   6.451   1.285 -0.4506  0.5596 -0.9075
 1800TIP3    H226960   2.905   6.586   1.281  0.7973  0.0022  0.8673
 1801TIP3   OH226961   3.145   0.445   0.101 -0.4648  0.2725  0.2355
 1801TIP3    H126962   3.212   0.458   0.033 -0.2481  0.6657  0.5212
 1801TIP3    H226963   3.073   0.401   0.056  0.1516 -0.5407  0.0131
 1802TIP3   OH226964   5.946   6.401   0.058 -0.0980  0.8055 -0.8144
 1802TIP3    H126965   6.031   6.359   0.075 -0.2942  0.2318 -1.2480
 1802TIP3    H226966   5.882   6.331   0.068 -0.6743  1.5132  0.8807
 1803TIP3   OH226967   5.112   5.678   0.567  1.0585 -0.0078 -0.7647
 1803TIP3    H126968   5.200   5.711   0.588  0.8955  0.8678 -1.4118
 1803TIP3    H226969   5.054   5.751   0.590  0.3558 -1.0247  0.8376
 1804TIP3   OH226970   6.221   1.298   0.134 -0.3484  0.7485  0.3349
 1804TIP3    H126971   6.308   1.265   0.155 -1.0310 -0.5285  1.3792
 1804TIP3    H226972   6.231   1.392   0.128  1.0184  0.6626  0.9350
 1805TIP3   OH226973   2.781   4.767   8.039 -0.0528  0.3701  0.1427
 1805TIP3    H126974   2.763   4.739   7.949 -1.4652 -0.1013  0.5392
 1805TIP3    H226975   2.731   4.706   8.094 -0.5143  1.6159  1.1709
 1806TIP3   OH226976   0.905   1.167   1.383  0.3916 -0.1794 -0.9239
 1806TIP3    H126977   0.828   1.162   1.440  0.7225 -1.2406 -0.5396
 1806TIP3    H226978   0.881   1.231   1.316 -0.4551  0.2159 -0.2676
 1807TIP3   OH226979   4.156   5.065   1.567 -0.1459  0.2851  0.3800
 1807TIP3    H126980   4.192   5.030   1.648 -1.3452  0.3542  0.9797
 1807TIP3    H226981   4.071   5.022   1.558  0.0027  0.2192 -0.8945
 1808TIP3   OH226982   5.177   4.651   8.258  0.6178  0.1108  0.0488
 1808TIP3    H126983   5.109   4.712   8.229  0.7410 -0.3776 -1.3778
 1808TIP3    H226984   5.255   4.705   8.268  0.0468  0.6801  1.7234
 1809TIP3   OH226985   5.715   0.582   2.363  0.1735 -0.1778  0.6766
 1809TIP3    H126986   5.691   0.494   2.336 -0.3270  0.5436 -1.4621
 1809TIP3    H226987   5.810   0.584   2.360  0.1785 -0.6162  0.5539
 1810TIP3   OH226988   3.272   2.400   8.147  0.3399  1.2242  0.0509
 1810TIP3    H126989   3.356   2.447   8.145  0.7930  0.4748  0.8493
 1810TIP3    H226990   3.288   2.320   8.098  0.5885  0.3137  1.5710
 1811TIP3   OH226991   6.001   3.648   0.199  0.4425 -0.3087 -0.4388
 1811TIP3    H126992   5.969   3.737   0.215  0.4409 -0.4805  0.5619
 1811TIP3    H226993   6.089   3.660   0.163  1.4513  0.1102  1.9284
 1812TIP3   OH226994   0.294   6.812   0.379 -0.1733  0.2791 -0.7677
 1812TIP3    H126995   0.333   6.766   0.453  0.0551  2.3872  0.5008
 1812TIP3    H226996   0.207   6.837   0.410 -0.6805 -0.1532 -1.7967
 1813TIP3   OH226997   3.039   0.381   8.157  0.3367 -0.1165  0.4166
 1813TIP3    H126998   3.042   0.408   8.249 -2.7546  1.5465  0.1555
 1813TIP3    H226999   3.081   0.453   8.110 -1.4622  0.9208  0.3036
 1814TIP3   OH227000   1.067   0.015   0.821  0.6416 -0.2414 -0.8803
 1814TIP3    H127001   0.987  -0.028   0.852  1.0753 -0.1480  0.4388
 1814TIP3    H227002   1.129  -0.057   0.810  0.7759 -0.1718 -0.5869
 1815TIP3   OH227003   5.994   3.818   1.584  0.3473  0.1573  0.0129
 1815TIP3    H127004   5.944   3.856   1.656 -0.5281  0.1141 -0.5609
 1815TIP3    H227005   5.928   3.790   1.521  1.1169  1.4789 -1.4579
 1816TIP3   OH227006   6.727   5.258   0.505  0.0971 -0.2463  0.1437
 1816TIP3    H127007   6.683   5.179   0.536  0.2550 -0.2292  0.4170
 1816TIP3    H227008   6.809   5.261   0.555 -0.3907  0.6561  0.9353
 1817TIP3   OH227009   6.599   1.987   8.506 -0.2840 -0.1510  0.4072
 1817TIP3    H127010   6.561   2.007   8.421 -0.3116 -0.8622  0.2496
 1817TIP3    H227011   6.692   2.003   8.495 -0.2704 -0.3732  0.2072
 1818TIP3   OH227012   1.053   0.979   7.488  0.3858 -0.2549 -0.3812
 1818TIP3    H127013   0.989   0.970   7.559  0.4871 -0.9013 -0.3697
 1818TIP3    H227014   1.015   0.931   7.415 -0.2016  1.2640 -1.1132
 1819TIP3   OH227015   2.532   2.383   6.672  0.1787 -0.5065 -0.2482
 1819TIP3    H127016   2.528   2.445   6.600  0.1952  1.4763  1.3841
 1819TIP3    H227017   2.559   2.435   6.748  0.0092 -2.4644  1.2404
 1820TIP3   OH227018   6.583   0.080   1.322  0.1311  0.0785  0.2452
 1820TIP3    H127019   6.628   0.071   1.406  1.6813  0.3953 -0.5125
 1820TIP3    H227020   6.652   0.071   1.257 -0.9499  0.4352 -0.9946
 1821TIP3   OH227021   2.150   0.175   0.584  0.0440 -0.1781  0.0125
 1821TIP3    H127022   2.208   0.246   0.555 -0.0011  0.0421  0.4590
 1821TIP3    H227023   2.098   0.155   0.506 -0.1920  0.5279 -0.0226
 1822TIP3   OH227024   6.438   2.150   7.769 -0.0521  0.0842 -0.2642
 1822TIP3    H127025   6.371   2.110   7.714  0.1158 -1.5746  0.6654
 1822TIP3    H227026   6.395   2.224   7.811 -0.9522 -0.2591 -0.5715
 1823TIP3   OH227027   5.239   2.241   0.860  0.1305  0.2536 -0.0277
 1823TIP3    H127028   5.189   2.306   0.810  1.2917 -0.2830 -2.0271
 1823TIP3    H227029   5.307   2.292   0.904 -0.4996  0.6619  0.4933
 1824TIP3   OH227030   6.228   4.847   1.366 -0.1828 -0.2768  0.3766
 1824TIP3    H127031   6.154   4.883   1.415 -0.7292  0.5900 -0.9992
 1824TIP3    H227032   6.306   4.877   1.412 -0.4341  5.2643 -2.0914
 1825TIP3   OH227033   0.110   6.111   0.572 -0.5589 -0.0647 -0.4972
 1825TIP3    H127034   0.107   6.179   0.504 -0.0011 -0.0423 -0.5010
 1825TIP3    H227035   0.029   6.124   0.621 -0.4033  0.6891 -0.4237
 1826TIP3   OH227036   1.506   2.390   7.449 -0.7581  0.6414  0.4057
 1826TIP3    H127037   1.471   2.302   7.466  0.5073 -0.1127 -0.5976
 1826TIP3    H227038   1.579   2.398   7.510 -0.3742  0.6434 -0.0414
 1827TIP3   OH227039   6.266   2.981   2.394  0.0411  0.2845  0.1053
 1827TIP3    H127040   6.286   2.888   2.401  1.5833  0.5948  0.1980
 1827TIP3    H227041   6.196   2.986   2.329  1.5271 -0.7611 -1.6618
 1828TIP3   OH227042   5.940   2.733   0.449  0.7321 -0.2103 -0.3657
 1828TIP3    H127043   5.969   2.783   0.525 -0.1654 -0.5645  0.2248
 1828TIP3    H227044   5.931   2.644   0.481 -0.6211 -0.1837 -0.6154
 1829TIP3   OH227045   0.375   6.677   0.601  0.1487  0.0321 -0.5044
 1829TIP3    H127046   0.436   6.716   0.663  1.1626 -0.9141 -0.8778
 1829TIP3    H227047   0.379   6.583   0.619 -2.4848  0.0325  0.6098
 1830TIP3   OH227048   1.568   2.702   1.532  0.3785  0.1912 -0.4586
 1830TIP3    H127049   1.586   2.666   1.445  2.8090 -2.9919  1.1092
 1830TIP3    H227050   1.487   2.659   1.559  0.7589 -0.5100 -0.3981
 1831TIP3   OH227051   5.690   4.981   2.221 -0.4225  0.5888 -0.3183
 1831TIP3    H127052   5.733   5.054   2.177 -1.0180  0.8547 -0.4816
 1831TIP3    H227053   5.597   5.007   2.225 -0.4421  0.4248  0.7859
 1832TIP3   OH227054   3.010   2.482   0.367 -0.3700 -0.0788  0.1922
 1832TIP3    H127055   3.069   2.420   0.410 -0.7312  0.7614  1.9466
 1832TIP3    H227056   2.930   2.431   0.351  0.4767 -0.9919 -1.4898
 1833TIP3   OH227057   1.231   0.134   7.072 -0.4441 -0.1295 -0.5004
 1833TIP3    H127058   1.251   0.225   7.089  0.9270 -0.5219  0.1342
 1833TIP3    H227059   1.222   0.129   6.976 -2.9135  1.0802 -0.3946
 1834TIP3   OH227060   6.656   4.448   1.258  0.0215 -0.6443  0.2679
 1834TIP3    H127061   6.604   4.457   1.179  0.5798  1.2153  0.0620
 1834TIP3    H227062   6.710   4.371   1.243  0.6505  0.1049 -1.4885
 1835TIP3   OH227063   4.023   5.205   7.334 -0.1915  0.0262  0.3264
 1835TIP3    H127064   4.008   5.297   7.310 -1.0520  0.1263  1.1732
 1835TIP3    H227065   3.995   5.156   7.257  0.3821  0.4770 -0.1768
 1836TIP3   OH227066   2.512   2.893   1.635 -0.0320 -0.4170 -0.6855
 1836TIP3    H127067   2.523   2.898   1.730  0.4395 -4.3727 -0.3272
 1836TIP3    H227068   2.428   2.935   1.618  0.8890  2.4320  1.0669
 1837TIP3   OH227069   3.164   2.527   0.732 -0.1901 -0.7359 -0.2975
 1837TIP3    H127070   3.231   2.592   0.715  0.4332 -1.2296  0.2243
 1837TIP3    H227071   3.208   2.443   0.718 -0.6075 -1.0689  0.3449
 1838TIP3   OH227072   3.482   1.936   7.359 -0.0042 -0.6042  0.1475
 1838TIP3    H127073   3.389   1.915   7.363 -0.7003  2.0976 -0.1963
 1838TIP3    H227074   3.517   1.905   7.443 -1.1670 -1.6736  0.2724
 1839TIP3   OH227075   1.037   5.477   1.743  0.0865 -0.2332 -0.1877
 1839TIP3    H127076   0.947   5.511   1.740 -0.1722 -0.7950  0.8950
 1839TIP3    H227077   1.052   5.443   1.655 -0.5229  0.4530 -0.5753
 1840TIP3   OH227078   0.102   4.729   7.607 -0.1203  0.0553  0.1414
 1840TIP3    H127079   0.161   4.789   7.652  0.6075 -0.0891 -0.6069
 1840TIP3    H227080   0.016   4.771   7.612  0.3761  1.1390 -0.3584
 1841TIP3   OH227081   2.896   1.722   0.842  0.1283 -0.2695 -0.2628
 1841TIP3    H127082   2.853   1.729   0.757  0.8126 -1.0838 -0.6921
 1841TIP3    H227083   2.960   1.793   0.843 -0.9621  0.7190  0.2301
 1842TIP3   OH227084   5.281   3.803   6.248 -0.2320 -0.3117  0.0548
 1842TIP3    H127085   5.286   3.844   6.334 -1.3933 -1.7845  0.8670
 1842TIP3    H227086   5.372   3.790   6.222  0.1722 -1.3671  1.8480
 1843TIP3   OH227087   3.534   6.430   1.425 -0.2449 -0.4780 -0.3983
 1843TIP3    H127088   3.568   6.518   1.408  0.0979 -0.4233  0.5376
 1843TIP3    H227089   3.523   6.426   1.520 -1.9474 -0.8347 -0.5752
 1844TIP3   OH227090   0.886   2.947   1.428  0.1177 -0.1173 -0.0821
 1844TIP3    H127091   0.799   2.985   1.413  0.2860  0.2573 -0.1130
 1844TIP3    H227092   0.937   2.971   1.351  0.1212 -0.7227 -0.2752
 1845TIP3   OH227093   5.210   1.841   0.570  0.2471  0.0198 -0.2344
 1845TIP3    H127094   5.236   1.749   0.582  0.7458 -0.0319 -1.4557
 1845TIP3    H227095   5.285   1.880   0.523 -1.5154  0.0200 -3.3385
 1846TIP3   OH227096   6.723   5.659   1.125 -0.4854 -0.3391  0.0893
 1846TIP3    H127097   6.703   5.568   1.105  0.1214 -0.5067  0.2247
 1846TIP3    H227098   6.764   5.657   1.212 -0.0511  0.0056 -0.1005
 1847TIP3   OH227099   5.814   3.603   7.615 -0.3475 -0.1314 -0.4758
 1847TIP3    H127100   5.859   3.687   7.614  3.1134 -1.8011 -2.0021
 1847TIP3    H227101   5.773   3.597   7.529 -0.0746 -0.2280 -0.6014
 1848TIP3   OH227102   3.093   1.966   0.451  0.0161  0.0258 -0.1554
 1848TIP3    H127103   3.001   1.987   0.433  0.1466  1.1605  0.4294
 1848TIP3    H227104   3.133   1.956   0.364 -0.5212  0.1505 -0.4184
 1849TIP3   OH227105   3.722   6.176   1.574 -0.5548 -0.4277  0.3775
 1849TIP3    H127106   3.734   6.081   1.572 -1.5691 -0.5581 -0.1902
 1849TIP3    H227107   3.669   6.196   1.496  1.7589  0.9314 -0.9676
 1850TIP3   OH227108   4.592   5.968   7.332 -0.3407  0.3243  0.3181
 1850TIP3    H127109   4.534   6.036   7.368 -0.1307  0.0562  1.1873
 1850TIP3    H227110   4.651   5.946   7.404 -2.3240 -2.9692  1.1564
 1851TIP3   OH227111   0.175   5.283   0.300 -0.3745 -0.1204  0.1610
 1851TIP3    H127112   0.150   5.195   0.328 -1.0118 -0.0640 -0.2046
 1851TIP3    H227113   0.115   5.303   0.228  0.0645  0.4364 -0.0542
 1852TIP3   OH227114   2.267   2.979   1.860 -0.1380  0.2190  0.6206
 1852TIP3    H127115   2.343   2.927   1.888 -0.5688  0.9042  3.4270
 1852TIP3    H227116   2.301   3.069   1.852 -0.4543  0.3805  1.0337
 1853TIP3   OH227117   0.700   6.635   7.640 -0.1755 -0.2130 -0.1115
 1853TIP3    H127118   0.733   6.547   7.654  1.5977  0.4538  0.1023
 1853TIP3    H227119   0.722   6.655   7.549  2.5449  1.1923  0.7423
 1854TIP3   OH227120   6.784   4.802   1.469  0.0554  0.8169  0.5151
 1854TIP3    H127121   6.820   4.714   1.457 -0.0793  0.7910  0.2945
 1854TIP3    H227122   6.858   4.855   1.496 -0.0251  0.4579  1.4710
 1855TIP3   OH227123   2.618   1.551   7.300  0.2119  0.3081  0.6344
 1855TIP3    H127124   2.654   1.632   7.263  1.9338 -0.4965  0.4869
 1855TIP3    H227125   2.593   1.499   7.224  0.1908  0.2218  0.6998
 1856TIP3   OH227126   5.121   4.024   1.823 -0.2174 -0.4906  0.4091
 1856TIP3    H127127   5.038   3.985   1.849 -0.3452 -1.2577 -1.0757
 1856TIP3    H227128   5.172   4.028   1.904 -1.4757 -0.5324  1.2245
 1857TIP3   OH227129   2.966   0.021   1.751 -0.1305 -0.4870 -0.5239
 1857TIP3    H127130   3.053   0.049   1.778 -0.4171  2.5459 -2.3045
 1857TIP3    H227131   2.977  -0.005   1.659 -0.9519 -0.8990 -0.5159
 1858TIP3   OH227132   2.967   6.402   7.521  0.5502  0.0268 -0.3580
 1858TIP3    H127133   2.966   6.312   7.490 -2.8120 -0.0254 -0.4923
 1858TIP3    H227134   2.962   6.455   7.441  1.4150  0.2970 -0.2368
 1859TIP3   OH227135   2.967   4.410   1.799  0.1687 -0.3864  0.2085
 1859TIP3    H127136   2.910   4.465   1.745  1.5419  0.0308 -0.9088
 1859TIP3    H227137   2.924   4.406   1.884 -1.0695  0.6213 -0.3344
 1860TIP3   OH227138   6.166   3.436   7.486 -0.3767  0.4352  0.4103
 1860TIP3    H127139   6.155   3.373   7.557 -1.0967  0.1161  0.0242
 1860TIP3    H227140   6.168   3.382   7.407 -0.3051  0.8444  0.1305
 1861TIP3   OH227141   5.002   4.421   1.134 -0.0594 -0.5910 -0.1472
 1861TIP3    H127142   4.982   4.400   1.042  1.6105 -2.1301 -0.2151
 1861TIP3    H227143   5.093   4.394   1.145 -0.1919 -0.2937  1.9357
 1862TIP3   OH227144   5.155   1.173   0.871 -0.0766 -0.2646 -0.2854
 1862TIP3    H127145   5.185   1.131   0.952  0.7872 -1.1919 -1.0516
 1862TIP3    H227146   5.061   1.183   0.882 -0.1484 -1.5141  0.3460
 1863TIP3   OH227147   2.373   2.178   8.298  0.1111  0.4585  0.4273
 1863TIP3    H127148   2.317   2.131   8.237  0.1690  0.1724  0.5955
 1863TIP3    H227149   2.406   2.111   8.358 -0.4794  0.8353  1.1891
 1864TIP3   OH227150   3.212   5.250   6.714 -0.4766 -0.1438 -0.2698
 1864TIP3    H127151   3.214   5.293   6.628  1.3109  0.3579 -0.0179
 1864TIP3    H227152   3.124   5.268   6.747 -0.2121  2.3245 -0.7086
 1865TIP3   OH227153   4.527   2.117   0.343 -0.5892  0.0771 -0.1627
 1865TIP3    H127154   4.498   2.055   0.276  0.2874  0.3129 -0.7754
 1865TIP3    H227155   4.507   2.073   0.426  0.4351 -1.2477 -0.5851
 1866TIP3   OH227156   6.831   2.803   6.939  0.6580  0.0988  0.1387
 1866TIP3    H127157   6.769   2.861   6.894  2.0066 -0.2763 -2.4376
 1866TIP3    H227158   6.795   2.715   6.927  1.6220 -0.1269 -1.4236
 1867TIP3   OH227159   1.110   4.403   8.624 -0.0619 -0.9477 -0.2619
 1867TIP3    H127160   1.160   4.348   8.684 -2.5699 -0.1421  2.8478
 1867TIP3    H227161   1.021   4.369   8.629 -1.6299  2.8572  1.4426
 1868TIP3   OH227162   4.721   4.969   8.209  0.6452  0.1948  0.1451
 1868TIP3    H127163   4.639   4.957   8.162 -0.1196  0.1340  1.4438
 1868TIP3    H227164   4.755   5.053   8.178  0.0577  0.2505 -0.3477
 1869TIP3   OH227165   0.995   2.927   1.168  0.4865  0.2815 -0.0901
 1869TIP3    H127166   0.988   2.982   1.089  0.5068 -0.9489 -0.9841
 1869TIP3    H227167   1.076   2.877   1.156 -0.3313 -1.1114 -0.1175
 1870TIP3   OH227168   3.881   6.573   1.579 -0.3981  0.3061  0.0031
 1870TIP3    H127169   3.932   6.535   1.507 -2.5876 -0.6562 -1.1494
 1870TIP3    H227170   3.795   6.592   1.540 -0.9462  1.8700  1.8278
 1871TIP3   OH227171   3.435   1.590   0.953  0.4560  0.0114 -0.1594
 1871TIP3    H127172   3.489   1.555   1.025  1.8671  0.3071 -1.0437
 1871TIP3    H227173   3.354   1.539   0.958  0.7151 -0.3158  1.3316
 1872TIP3   OH227174   3.873   5.464   8.627  0.5628  0.5888 -0.1011
 1872TIP3    H127175   3.843   5.383   8.585  1.2215  1.0588 -1.5296
 1872TIP3    H227176   3.853   5.451   8.720  1.4506 -1.5971 -0.1531
 1873TIP3   OH227177   0.861   1.019   7.706  0.2977  0.1962  0.4002
 1873TIP3    H127178   0.829   0.932   7.730 -0.2162 -0.1593 -1.4188
 1873TIP3    H227179   0.784   1.076   7.711  0.1174  0.0517 -0.6898
 1874TIP3   OH227180   1.219   5.534   7.380  0.0920 -0.0133  0.0824
 1874TIP3    H127181   1.288   5.511   7.442 -1.9146 -0.4572  2.2916
 1874TIP3    H227182   1.209   5.456   7.325  0.6946 -0.3081  0.3857
 1875TIP3   OH227183   2.585   1.110   1.003 -0.0286 -0.0131 -0.3248
 1875TIP3    H127184   2.495   1.123   0.973 -0.5111  1.5977  1.5580
 1875TIP3    H227185   2.582   1.031   1.058 -0.4910  0.4413  0.3206
 1876TIP3   OH227186   6.200   6.641   7.518 -0.7371 -0.4632 -0.0099
 1876TIP3    H127187   6.181   6.667   7.428  0.6389 -2.8585 -1.0658
 1876TIP3    H227188   6.215   6.724   7.564  2.3117  0.7909 -2.8703
 1877TIP3   OH227189   6.029   5.156   1.239 -0.2162  0.1661 -0.2027
 1877TIP3    H127190   6.097   5.184   1.178  0.6712 -0.1876  0.6011
 1877TIP3    H227191   5.948   5.195   1.205  0.4476  0.9275 -0.9374
 1878TIP3   OH227192   0.786   1.969   2.001 -0.7289  0.1397 -0.2194
 1878TIP3    H127193   0.861   1.971   2.061  0.0308  1.9942 -1.1256
 1878TIP3    H227194   0.710   1.967   2.059 -0.0357  2.0763  0.8812
 1879TIP3   OH227195   6.833   1.796   7.426 -0.1925  0.2371  0.6429
 1879TIP3    H127196   6.742   1.797   7.397  0.1277 -0.4638 -0.4145
 1879TIP3    H227197   6.837   1.725   7.490 -0.5563  0.7946  1.2994
 1880TIP3   OH227198   5.402   3.185   8.204 -0.1562  0.1315  0.2741
 1880TIP3    H127199   5.408   3.207   8.110 -0.4373  1.7214  0.6015
 1880TIP3    H227200   5.329   3.124   8.210  0.9457 -1.3810 -0.7482
 1881TIP3   OH227201   1.328   3.048   7.587  0.2034  0.0500  0.2539
 1881TIP3    H127202   1.352   3.052   7.494  1.1005 -3.6174  0.1687
 1881TIP3    H227203   1.320   2.955   7.605  0.0637  0.6418  3.9089
 1882TIP3   OH227204   6.605   2.714   1.737  0.3768  0.4396 -0.1190
 1882TIP3    H127205   6.628   2.626   1.709 -0.5974  0.1808 -0.1567
 1882TIP3    H227206   6.541   2.700   1.808  2.3454  1.0662  1.8888
 1883TIP3   OH227207   5.990   6.064   2.713 -0.0794  0.3527 -0.1459
 1883TIP3    H127208   6.054   5.999   2.682  1.8800  1.6645  0.9196
 1883TIP3    H227209   6.011   6.143   2.664 -0.6118  0.9222  0.5386
 1884TIP3   OH227210   5.269   3.090   7.642  0.0486 -0.1244 -0.2215
 1884TIP3    H127211   5.342   3.146   7.618 -1.0851  1.2782 -0.5392
 1884TIP3    H227212   5.199   3.115   7.582  0.0963 -3.4197 -1.8747
 1885TIP3   OH227213   5.025   5.319   0.348 -0.1986  0.4655  0.2050
 1885TIP3    H127214   4.931   5.304   0.360 -0.3704 -0.0914 -1.4777
 1885TIP3    H227215   5.048   5.263   0.274  1.2224  1.4779 -0.1524
 1886TIP3   OH227216   1.901   4.544   7.081 -0.1447  0.4889 -0.3990
 1886TIP3    H127217   1.986   4.570   7.118 -0.5042 -0.2730  1.0288
 1886TIP3    H227218   1.898   4.449   7.093 -0.5874  0.3052 -1.7973
 1887TIP3   OH227219   5.673   4.125   7.148 -0.3476 -0.4544  0.5324
 1887TIP3    H127220   5.643   4.040   7.179 -0.5074 -0.2920  0.8357
 1887TIP3    H227221   5.768   4.123   7.158 -0.5383  0.5644  3.6731
 1888TIP3   OH227222   3.364   1.492   0.712  0.0150  0.2541  0.0682
 1888TIP3    H127223   3.329   1.546   0.642 -0.1978 -1.6595 -1.3625
 1888TIP3    H227224   3.427   1.549   0.757 -0.7488  1.9047 -0.8693
 1889TIP3   OH227225   2.288   2.061   2.131  0.1422  0.1957  0.4678
 1889TIP3    H127226   2.248   2.065   2.044 -1.6680  2.6736  1.2628
 1889TIP3    H227227   2.223   2.016   2.185 -0.1006  1.2137  1.0684
 1890TIP3   OH227228   3.063   3.906   0.674  0.0412  0.0146  0.7442
 1890TIP3    H127229   2.970   3.919   0.694  0.2599  3.7196  0.0624
 1890TIP3    H227230   3.099   3.866   0.753 -2.3149 -3.2595  0.3852
 1891TIP3   OH227231   0.087   3.129   6.859 -0.3427  0.3721  0.1204
 1891TIP3    H127232   0.035   3.081   6.924  0.6112 -2.2276 -0.8820
 1891TIP3    H227233   0.143   3.186   6.910 -1.2754  0.1590  1.4405
 1892TIP3   OH227234   6.286   1.106   1.714 -0.3884 -0.0995  0.2201
 1892TIP3    H127235   6.360   1.101   1.775  0.7091  0.8928 -0.9707
 1892TIP3    H227236   6.241   1.022   1.724  0.7092 -0.6078  1.2035
 1893TIP3   OH227237   4.201   2.525   0.741  0.2674 -1.1133 -0.0658
 1893TIP3    H127238   4.248   2.587   0.797  0.5850 -0.8905 -0.5734
 1893TIP3    H227239   4.177   2.577   0.664 -0.5785 -1.2905  0.0637
 1894TIP3   OH227240   2.536   3.553   2.203  0.3600  0.4911  0.2898
 1894TIP3    H127241   2.545   3.527   2.294 -0.4707 -1.9824 -0.2527
 1894TIP3    H227242   2.442   3.569   2.192  0.3988  0.3868 -0.2108
 1895TIP3   OH227243   3.881   6.249   7.143 -0.0714 -0.0271 -0.8715
 1895TIP3    H127244   3.969   6.217   7.163 -0.5602 -0.9641 -0.1346
 1895TIP3    H227245   3.823   6.179   7.173 -1.0729  0.6133 -1.2747
 1896TIP3   OH227246   6.150   6.273   0.222 -0.0939 -0.5550 -0.0523
 1896TIP3    H127247   6.105   6.217   0.285 -1.1986 -0.7997 -1.0218
 1896TIP3    H227248   6.234   6.231   0.207  0.6723  0.0939  2.0650
 1897TIP3   OH227249   3.770   1.518   7.362  0.3382 -0.2562 -0.5210
 1897TIP3    H127250   3.792   1.565   7.442  1.9531 -1.6322 -0.1060
 1897TIP3    H227251   3.712   1.577   7.314  0.8389  1.3592  0.8001
 1898TIP3   OH227252   4.930   4.887   2.554  0.1330 -0.2436 -0.1262
 1898TIP3    H127253   4.854   4.860   2.503 -1.1702  0.0128  1.6049
 1898TIP3    H227254   4.916   4.980   2.570  0.9685 -0.1281 -0.0112
 1899TIP3   OH227255   0.956   0.449   0.674 -0.1753 -0.3362 -0.4358
 1899TIP3    H127256   1.004   0.444   0.592  0.7016 -1.8462  0.1274
 1899TIP3    H227257   0.963   0.541   0.700  3.7443 -0.6406  0.2986
 1900TIP3   OH227258   0.117   3.381   0.784 -0.0758  0.0952  0.3169
 1900TIP3    H127259   0.116   3.475   0.803 -1.8803  0.0044  0.8160
 1900TIP3    H227260   0.026   3.353   0.792  0.5630 -1.9306  1.2852
 1901TIP3   OH227261   0.387   1.507   6.728 -0.1566  0.1757 -0.5265
 1901TIP3    H127262   0.364   1.600   6.733 -1.1972 -0.1079  0.4263
 1901TIP3    H227263   0.304   1.461   6.744  0.3465 -0.9178 -0.9881
 1902TIP3   OH227264   1.011   2.942   0.049  0.1621  0.1090 -0.5000
 1902TIP3    H127265   1.011   2.863  -0.006 -1.4992 -0.8668  0.7978
 1902TIP3    H227266   0.953   3.003   0.003 -0.7296 -0.4738 -0.1785
 1903TIP3   OH227267   3.998   3.668   1.223 -0.0182  0.4758  0.6165
 1903TIP3    H127268   4.023   3.711   1.141 -0.7092 -1.9876 -1.0051
 1903TIP3    H227269   3.911   3.702   1.243 -0.2025  0.4739 -0.1612
 1904TIP3   OH227270   3.542   4.704   0.647 -0.0504 -0.1215 -0.3157
 1904TIP3    H127271   3.579   4.641   0.709 -0.6091  0.2108  0.3728
 1904TIP3    H227272   3.562   4.668   0.561  1.7741 -0.0051  0.0257
 1905TIP3   OH227273   0.979   0.875   7.991  0.2767 -0.5132  0.1418
 1905TIP3    H127274   0.997   0.939   7.922 -2.2241  1.2383  0.9810
 1905TIP3    H227275   0.978   0.926   8.071 -1.9800 -1.4799  0.8244
 1906TIP3   OH227276   6.432   4.422   6.982  0.2532  0.2578  0.2511
 1906TIP3    H127277   6.398   4.343   6.940 -2.1289  1.2306  0.1624
 1906TIP3    H227278   6.479   4.468   6.913 -2.3471  1.1115 -1.0937
 1907TIP3   OH227279   4.334   2.925   6.418  0.3393 -0.1389 -0.4652
 1907TIP3    H127280   4.372   2.920   6.506 -0.0047 -0.3299 -0.3290
 1907TIP3    H227281   4.410   2.937   6.361  0.6399 -0.7840 -0.2196
 1908TIP3   OH227282   6.508   5.329   8.133 -0.0353  0.8340  0.0064
 1908TIP3    H127283   6.517   5.235   8.121 -0.1665  0.9183 -0.8211
 1908TIP3    H227284   6.473   5.339   8.221 -1.3183  0.0184 -0.3820
 1909TIP3   OH227285   3.073   1.122   8.269 -0.7802  0.1759 -0.0854
 1909TIP3    H127286   3.158   1.102   8.231 -0.8066 -0.1153  0.0093
 1909TIP3    H227287   3.082   1.211   8.303 -0.0665 -0.3645  1.1834
 1910TIP3   OH227288   0.018   4.986   1.281 -0.2059 -0.0156  0.4796
 1910TIP3    H127289  -0.048   4.941   1.334 -1.6297  2.6898  1.1819
 1910TIP3    H227290  -0.031   5.026   1.210  0.8356  1.1433  0.3746
 1911TIP3   OH227291   1.779   3.954   7.716  0.4152  0.1478  0.1640
 1911TIP3    H127292   1.767   3.864   7.688  0.3749  0.0606  0.4612
 1911TIP3    H227293   1.703   4.000   7.680 -0.3087 -0.2113  1.1863
 1912TIP3   OH227294   3.743   4.798   0.096 -0.4223  0.4510  0.2543
 1912TIP3    H127295   3.755   4.727   0.160 -0.8727 -0.4444 -0.6203
 1912TIP3    H227296   3.776   4.876   0.140 -2.6516  0.3126  2.4190
 1913TIP3   OH227297   6.559   3.799   1.117  0.2019  0.1390  0.1031
 1913TIP3    H127298   6.535   3.739   1.047  0.0212  1.9668 -1.5032
 1913TIP3    H227299   6.521   3.760   1.196 -1.4033 -0.9785 -1.1417
 1914TIP3   OH227300   1.113   1.401   2.004 -0.3327  0.4627 -0.3201
 1914TIP3    H127301   1.117   1.380   2.097  1.8925  0.6245 -0.3304
 1914TIP3    H227302   1.161   1.483   1.996  0.1241  0.0918 -1.7061
 1915TIP3   OH227303   1.768   3.228   7.280  0.1312  0.0563  0.7667
 1915TIP3    H127304   1.710   3.211   7.354 -1.2437 -1.2455 -0.5383
 1915TIP3    H227305   1.813   3.310   7.302 -1.0536  0.2693  2.5205
 1916TIP3   OH227306   1.593   3.035   8.183  0.3119 -0.0760  0.2077
 1916TIP3    H127307   1.623   2.982   8.110  0.3469 -2.2696  1.7304
 1916TIP3    H227308   1.643   3.003   8.259 -3.5100 -1.8222  2.2855
 1917TIP3   OH227309   4.023   2.509   8.466  0.1159  0.6094  0.0684
 1917TIP3    H127310   3.953   2.571   8.449  0.6935  1.4428  0.6323
 1917TIP3    H227311   3.979   2.433   8.505 -1.0159 -0.6830 -3.3340
 1918TIP3   OH227312   4.283   6.215   1.536  0.0099 -0.3019  0.3267
 1918TIP3    H127313   4.192   6.186   1.527  0.0161 -0.1165 -0.3802
 1918TIP3    H227314   4.335   6.136   1.524  0.0440 -0.0049 -1.9823
 1919TIP3   OH227315   3.681   6.308   1.833 -0.0441 -0.8855  0.0708
 1919TIP3    H127316   3.707   6.298   1.742 -0.1121 -1.3293  0.0977
 1919TIP3    H227317   3.725   6.237   1.879  0.0360 -0.6318  0.3951
 1920TIP3   OH227318   3.340   2.030   7.610 -0.0259 -0.0670  0.5662
 1920TIP3    H127319   3.346   2.063   7.520 -0.9257  1.2974  0.9745
 1920TIP3    H227320   3.329   2.108   7.663 -1.2517 -0.9603  1.6849
 1921TIP3   OH227321   5.046   2.785   7.405 -0.1526  0.3485  0.3310
 1921TIP3    H127322   5.073   2.743   7.487 -2.4516  1.5247  1.7913
 1921TIP3    H227323   5.001   2.715   7.357  0.4288 -0.1136  0.4363
 1922TIP3   OH227324   1.556   2.952   7.803  0.3137 -0.2069  0.5561
 1922TIP3    H127325   1.518   2.962   7.716 -1.7869 -2.0644  1.1659
 1922TIP3    H227326   1.496   3.001   7.860  2.1268  1.7174  0.9510
 1923TIP3   OH227327   1.527   0.315   7.696 -0.0146  0.0008  0.0236
 1923TIP3    H127328   1.473   0.279   7.626 -0.0860 -0.1592  0.1606
 1923TIP3    H227329   1.477   0.390   7.729 -0.4989 -0.5677  0.6270
 1924TIP3   OH227330   5.524   3.474   1.011  0.4702  1.0347 -0.3848
 1924TIP3    H127331   5.561   3.397   0.967 -0.1915  0.8604 -0.6462
 1924TIP3    H227332   5.451   3.439   1.062  1.6741  1.1105  1.4630
 1925TIP3   OH227333   6.067   1.383   8.280 -0.3201  0.8071 -1.0890
 1925TIP3    H127334   6.028   1.352   8.362 -0.1206  0.6483 -1.0554
 1925TIP3    H227335   6.110   1.306   8.244 -2.9450  0.0205 -2.8634
 1926TIP3   OH227336   0.288   4.922   0.233  0.4011  0.2852 -0.4790
 1926TIP3    H127337   0.372   4.934   0.278 -1.0215 -1.4892  2.9816
 1926TIP3    H227338   0.298   4.838   0.187  0.7552  0.4710 -0.7530
 1927TIP3   OH227339   0.494   4.310   0.535  0.4049 -0.2452 -0.4741
 1927TIP3    H127340   0.472   4.400   0.557 -0.4870 -0.9556  1.8487
 1927TIP3    H227341   0.416   4.260   0.559  0.7149 -1.6134 -2.1378
 1928TIP3   OH227342   2.327   5.264   8.588 -0.0609  0.0474  0.0173
 1928TIP3    H127343   2.234   5.243   8.575 -0.0392 -1.2488  1.5662
 1928TIP3    H227344   2.365   5.261   8.501 -1.1736 -1.0194 -0.4580
 1929TIP3   OH227345   5.013   2.563   1.869 -0.5222  1.2097  1.1657
 1929TIP3    H127346   5.021   2.652   1.904 -1.0350  1.4722  0.6521
 1929TIP3    H227347   5.006   2.576   1.774  1.1066  0.5011  0.9267
 1930TIP3   OH227348   2.413   2.909   7.329 -0.1689 -0.0955  0.4312
 1930TIP3    H127349   2.330   2.909   7.281 -0.0897 -2.1972  0.1887
 1930TIP3    H227350   2.409   2.830   7.383  1.8500 -0.5037  0.0609
 1931TIP3   OH227351   2.920   2.665   6.381 -0.2934 -0.3517  0.1092
 1931TIP3    H127352   2.827   2.669   6.359 -0.0531  2.9508 -0.9443
 1931TIP3    H227353   2.925   2.608   6.457 -3.2750 -0.1530  0.5722
 1932TIP3   OH227354   3.472   5.852   8.095  0.3176  0.3923 -0.0651
 1932TIP3    H127355   3.477   5.833   8.001  1.9324 -0.2542  0.1320
 1932TIP3    H227356   3.557   5.889   8.117 -0.4555  1.6701  0.9351
 1933TIP3   OH227357   6.381   6.491   8.234 -0.1793 -0.0139  0.5959
 1933TIP3    H127358   6.396   6.584   8.219 -0.4829  0.3839  2.5796
 1933TIP3    H227359   6.314   6.468   8.169 -0.4738  1.2571  0.4180
 1934TIP3   OH227360   1.523   2.668   6.637 -0.1302  0.3151  0.9393
 1934TIP3    H127361   1.605   2.680   6.588 -0.7970  1.2036 -0.0077
 1934TIP3    H227362   1.455   2.676   6.570 -1.0118  0.0712  1.8000
 1935TIP3   OH227363   3.096   4.794   7.801 -0.1526  0.1091  0.2190
 1935TIP3    H127364   3.092   4.710   7.755 -0.7690  0.7608 -0.9514
 1935TIP3    H227365   3.086   4.770   7.893  0.2956 -1.1545 -0.0356
 1936TIP3   OH227366   2.773   6.262   1.028 -0.2018  0.2692 -0.7536
 1936TIP3    H127367   2.734   6.189   0.981 -0.8517  0.9359 -1.2657
 1936TIP3    H227368   2.775   6.234   1.120 -0.2548 -0.4646 -0.9745
 1937TIP3   OH227369   6.517   0.120   7.947 -0.5627  0.1911  0.2465
 1937TIP3    H127370   6.595   0.104   7.893  0.2748 -1.2793  1.7904
 1937TIP3    H227371   6.463   0.179   7.894  1.5087  1.1434 -0.9516
 1938TIP3   OH227372   1.502   5.967   7.796  0.3153 -0.1008 -0.2071
 1938TIP3    H127373   1.578   6.019   7.770 -0.1805 -0.1096 -1.7948
 1938TIP3    H227374   1.520   5.941   7.886  2.0777  0.1008 -0.4710
 1939TIP3   OH227375   1.547   2.303   8.289  0.1868  1.0882  0.1895
 1939TIP3    H127376   1.612   2.300   8.359  0.5469 -0.1173 -0.1777
 1939TIP3    H227377   1.594   2.339   8.214  0.7174 -0.6232 -0.3368
 1940TIP3   OH227378   5.820   5.139   6.821  0.1306 -0.5475  0.0808
 1940TIP3    H127379   5.909   5.105   6.813  0.9822  1.0729  1.7579
 1940TIP3    H227380   5.807   5.193   6.743  0.8963 -0.2631  0.1411
 1941TIP3   OH227381   6.263   6.579   0.048  0.2913  0.4233  0.6199
 1941TIP3    H127382   6.206   6.622   0.112 -2.3352 -0.9485 -0.6591
 1941TIP3    H227383   6.307   6.652   0.003 -1.2185  1.6104  0.9862
 1942TIP3   OH227384   1.741   1.183   8.564  0.2945 -0.6276 -0.0074
 1942TIP3    H127385   1.719   1.128   8.639  0.9287  1.2439  1.6062
 1942TIP3    H227386   1.812   1.136   8.520  0.6223 -1.2639  1.1501
 1943TIP3   OH227387   5.456   4.411   0.519 -0.1702  0.3215  0.1797
 1943TIP3    H127388   5.423   4.336   0.568 -1.6099 -0.0880 -1.3160
 1943TIP3    H227389   5.379   4.466   0.505  0.5214  1.2015 -0.2441
 1944TIP3   OH227390   6.817   1.893   0.525  0.3434 -0.2406  0.1377
 1944TIP3    H127391   6.727   1.866   0.546  0.0919  0.3851 -0.1202
 1944TIP3    H227392   6.835   1.965   0.585  0.5392 -0.1163 -0.0704
 1945TIP3   OH227393   2.902   2.615   1.959 -0.5540 -0.4012  0.3502
 1945TIP3    H127394   2.943   2.582   1.879 -0.5176  0.3061  0.0669
 1945TIP3    H227395   2.975   2.627   2.019 -0.3933  0.4005  0.0081
 1946TIP3   OH227396   0.093   5.218   0.902  0.2464  0.5628 -0.1098
 1946TIP3    H127397   0.080   5.186   0.813  0.3265  0.2095  0.0005
 1946TIP3    H227398   0.022   5.177   0.953  0.9428 -0.2460  0.2252
 1947TIP3   OH227399   1.187   1.933   7.946  0.5144 -0.0341  0.5669
 1947TIP3    H127400   1.194   1.890   8.031  2.0247 -2.8539 -0.8331
 1947TIP3    H227401   1.228   2.018   7.959 -0.7679  0.3038  3.0073
 1948TIP3   OH227402   2.385   1.118   7.359  0.2106 -0.5451 -0.1760
 1948TIP3    H127403   2.388   1.121   7.264  0.3217 -2.7869 -0.3141
 1948TIP3    H227404   2.438   1.193   7.387 -1.7480  1.5674 -1.7766
 1949TIP3   OH227405   2.205   6.335   6.134 -0.3461 -0.6186  0.4298
 1949TIP3    H127406   2.175   6.251   6.099 -0.6181 -0.0444 -0.7874
 1949TIP3    H227407   2.278   6.313   6.192 -0.5156 -1.7009  0.2453
 1950TIP3   OH227408   0.161   0.967   8.551  0.1880 -0.3260 -1.1160
 1950TIP3    H127409   0.108   0.965   8.631 -0.5658  0.3973 -1.5886
 1950TIP3    H227410   0.251   0.956   8.582 -0.2453 -1.9482 -0.3347
 1951TIP3   OH227411   1.677   3.934   0.690  0.0520  0.0478 -0.3583
 1951TIP3    H127412   1.684   3.890   0.605 -2.7397 -2.7324  0.6589
 1951TIP3    H227413   1.726   3.879   0.750  0.4630  1.0017  0.2127
 1952TIP3   OH227414   4.075   4.993   8.463  0.3611  0.2055  0.3510
 1952TIP3    H127415   4.021   5.013   8.386  0.1729 -0.5825  0.2727
 1952TIP3    H227416   4.063   4.899   8.478 -0.4068  0.5229  1.9600
 1953TIP3   OH227417   2.530   1.011   8.077  0.0535 -0.1049 -0.4782
 1953TIP3    H127418   2.513   1.053   7.992 -1.3336  0.1776 -0.0877
 1953TIP3    H227419   2.569   1.081   8.130 -1.1225  0.3780 -0.2142
 1954TIP3   OH227420   6.307   2.702   2.420 -0.5735  0.0174  0.0232
 1954TIP3    H127421   6.250   2.707   2.497  1.3378  1.4190  1.4376
 1954TIP3    H227422   6.310   2.608   2.400 -0.6751 -0.4721  2.0261
 1955TIP3   OH227423   5.393   0.555   7.867 -0.2396  0.3314 -0.2738
 1955TIP3    H127424   5.379   0.460   7.857  0.6631  0.2585 -0.9355
 1955TIP3    H227425   5.487   0.567   7.851  0.2656  0.9634  2.6354
 1956TIP3   OH227426   3.600   4.509   0.856 -0.5877  0.3699 -0.1747
 1956TIP3    H127427   3.569   4.457   0.930 -1.2450  0.6343 -0.2526
 1956TIP3    H227428   3.655   4.450   0.806 -0.3128  0.1213  0.4096
 1957TIP3   OH227429   6.157   2.935   8.692  0.0716 -0.4207  0.0049
 1957TIP3    H127430   6.184   3.006   8.751 -0.3005  0.7381 -1.1729
 1957TIP3    H227431   6.101   2.879   8.745  0.1554  0.3191  0.8931
 1958TIP3   OH227432   4.891   4.783   7.429 -0.1587 -0.2697 -0.1855
 1958TIP3    H127433   4.830   4.857   7.429  1.8803  1.5566  1.4117
 1958TIP3    H227434   4.932   4.786   7.343 -1.8447 -1.1711 -1.0647
 1959TIP3   OH227435   6.207   4.053   0.647  0.0844 -0.4275  0.2996
 1959TIP3    H127436   6.173   4.141   0.666  0.1033 -0.2498 -0.4632
 1959TIP3    H227437   6.225   4.054   0.553 -0.7553 -1.5382  0.1064
 1960TIP3   OH227438   0.437   0.499   8.337  0.0512  0.6520  0.0871
 1960TIP3    H127439   0.396   0.419   8.371 -1.9570  0.7975 -1.8034
 1960TIP3    H227440   0.376   0.569   8.362  1.1890  1.4752  0.6649
 1961TIP3   OH227441   6.101   2.740   0.204  0.0916  0.7323  0.3607
 1961TIP3    H127442   6.038   2.740   0.276 -1.3299 -1.1862 -0.7991
 1961TIP3    H227443   6.176   2.693   0.238 -0.8233 -0.7253  0.4345
 1962TIP3   OH227444   1.109   4.781   6.929  0.4017  0.3770  0.7019
 1962TIP3    H127445   1.119   4.686   6.915 -1.1065 -0.1054  2.5124
 1962TIP3    H227446   1.094   4.816   6.841  1.4298 -0.9783 -0.0684
 1963TIP3   OH227447   1.308   2.984   7.006 -0.0173 -0.2550  0.2797
 1963TIP3    H127448   1.348   3.008   6.922  0.6291  0.2218  0.7045
 1963TIP3    H227449   1.215   3.005   6.995  0.1113  0.0941 -0.2157
 1964TIP3   OH227450   2.770   4.350   7.166 -0.2277  0.0553 -0.0285
 1964TIP3    H127451   2.813   4.282   7.218 -2.1663 -0.5293  0.9062
 1964TIP3    H227452   2.806   4.432   7.200  0.7011 -0.4256  0.1796
 1965TIP3   OH227453   5.929   1.947   1.325 -0.1473  0.0024 -0.4953
 1965TIP3    H127454   5.971   2.010   1.384 -2.2383  1.2465 -0.2255
 1965TIP3    H227455   5.888   1.883   1.383 -0.1544 -0.1640 -0.6817
 1966TIP3   OH227456   6.804   2.805   7.750  0.3290 -0.5222  0.2076
 1966TIP3    H127457   6.801   2.812   7.654 -2.1819  0.5927  0.3137
 1966TIP3    H227458   6.760   2.722   7.769 -0.3292 -0.1256  0.4377
 1967TIP3   OH227459   1.177   3.976   8.009 -0.0194  0.4532  0.2145
 1967TIP3    H127460   1.101   4.026   7.980 -0.5936 -0.5730 -0.1036
 1967TIP3    H227461   1.241   3.988   7.939 -0.7462 -0.5501 -0.6493
 1968TIP3   OH227462   5.917   0.681   1.644  0.1171 -0.4588  0.4229
 1968TIP3    H127463   5.842   0.741   1.644  0.6760  0.2555  0.3484
 1968TIP3    H227464   5.883   0.599   1.679 -0.2218  0.4590  2.3628
 1969TIP3   OH227465   3.077   0.644   8.000  0.8146  0.0798  0.1602
 1969TIP3    H127466   3.124   0.695   8.066  0.6902  1.1687 -0.5638
 1969TIP3    H227467   3.025   0.709   7.952 -0.9301 -0.9840  0.5084
 1970TIP3   OH227468   2.924   0.566   1.823  0.0240 -0.2369  0.2342
 1970TIP3    H127469   2.913   0.472   1.833 -1.0277  0.0151  1.8533
 1970TIP3    H227470   2.970   0.593   1.903 -1.9193  0.9339  1.0214
 1971TIP3   OH227471   2.114   2.492   8.084 -0.0051  0.3462 -0.1797
 1971TIP3    H127472   2.058   2.569   8.075 -2.2054 -1.0680  0.5801
 1971TIP3    H227473   2.174   2.514   8.154 -0.5508  1.3989 -0.0161
 1972TIP3   OH227474   5.332   3.767   1.877  0.0717  0.2368  0.3099
 1972TIP3    H127475   5.390   3.827   1.924  0.2222  1.4397 -1.3272
 1972TIP3    H227476   5.253   3.763   1.930  0.5835  0.8106  1.1339
 1973TIP3   OH227477   3.189   3.349   7.836 -0.2916  0.7561 -0.1731
 1973TIP3    H127478   3.107   3.362   7.789 -0.7645  0.3098  0.5211
 1973TIP3    H227479   3.166   3.360   7.928  0.3975  0.4818  0.0370
 1974TIP3   OH227480   2.824   3.954   0.773  0.4742 -0.0757  0.3731
 1974TIP3    H127481   2.764   4.007   0.722 -1.1793 -1.6933  0.5208
 1974TIP3    H227482   2.821   3.992   0.861 -2.2983 -1.5095  1.0110
 1975TIP3   OH227483   3.038   3.729   8.641  0.4357 -0.0907  0.4561
 1975TIP3    H127484   2.985   3.669   8.588  3.2153 -1.8604 -0.5290
 1975TIP3    H227485   3.007   3.816   8.615 -1.3257 -0.9907 -0.7249
 1976TIP3   OH227486   5.012   6.653   1.119  0.1613 -0.0558  0.2303
 1976TIP3    H127487   5.096   6.698   1.118  0.9471 -1.4074  1.3116
 1976TIP3    H227488   5.034   6.562   1.139 -1.6362 -0.2795  1.3891
 1977TIP3   OH227489   2.813   2.202   8.632  0.0534 -0.1694 -0.4453
 1977TIP3    H127490   2.891   2.207   8.577  0.0337  1.2596 -0.3774
 1977TIP3    H227491   2.846   2.173   8.717  0.5643  0.7465 -0.3243
 1978TIP3   OH227492   1.320   5.073   0.610  0.0946 -0.1165 -0.0288
 1978TIP3    H127493   1.376   5.144   0.642  0.2559  0.1008 -0.7555
 1978TIP3    H227494   1.372   5.030   0.542 -0.6173  0.1041 -0.7337
 1979TIP3   OH227495   6.048   6.754   7.820 -0.3376 -0.6070 -0.0486
 1979TIP3    H127496   6.088   6.832   7.859  2.8287 -1.7266 -0.7361
 1979TIP3    H227497   6.005   6.787   7.741 -2.1343  0.8849  1.4785
 1980TIP3   OH227498   5.917   2.130   2.115  0.5981  0.4881  0.6919
 1980TIP3    H127499   5.992   2.077   2.086  0.0532 -0.3349  0.7354
 1980TIP3    H227500   5.844   2.067   2.119  0.6120  0.5376  3.7865
 1981TIP3   OH227501   2.518   5.345   0.087 -0.1376 -0.4160 -0.0305
 1981TIP3    H127502   2.467   5.317   0.011  0.0520 -1.3955  0.1763
 1981TIP3    H227503   2.508   5.440   0.090 -1.4529 -0.5312 -0.3392
 1982TIP3   OH227504   6.239   3.951   6.871 -0.0478 -0.4219 -0.0812
 1982TIP3    H127505   6.260   3.913   6.956  0.9938 -0.7183 -0.4509
 1982TIP3    H227506   6.287   3.897   6.808 -0.8028 -0.2059 -0.8613
 1983TIP3   OH227507   5.592   0.804   7.940 -0.3470  0.1843  0.3049
 1983TIP3    H127508   5.590   0.715   7.905  1.9574  0.0733  0.2839
 1983TIP3    H227509   5.504   0.820   7.971 -0.9495 -1.9048 -0.1942
 1984TIP3   OH227510   5.948   3.896   2.693 -0.2817 -0.1993  0.2133
 1984TIP3    H127511   5.936   3.971   2.635 -1.0260 -1.7660 -1.8091
 1984TIP3    H227512   6.010   3.926   2.759  1.3577  1.4678 -1.9116
 1985TIP3   OH227513   6.201   2.009   0.098  0.5361 -0.3205  0.3556
 1985TIP3    H127514   6.209   2.027   0.192  0.5800  0.6194  0.1813
 1985TIP3    H227515   6.266   1.940   0.081  0.9007 -0.1230  0.9156
 1986TIP3   OH227516   0.625   6.053   0.427  0.0162  0.9337  0.0336
 1986TIP3    H127517   0.601   5.999   0.351 -1.6711  1.5575  0.0750
 1986TIP3    H227518   0.719   6.038   0.438 -0.2727 -1.6284 -0.2265
 1987TIP3   OH227519   4.607   5.712   0.353  0.0548 -0.0548 -0.1430
 1987TIP3    H127520   4.611   5.627   0.309  2.7967 -0.4068  0.6023
 1987TIP3    H227521   4.648   5.697   0.438  0.8108  2.0460 -0.0771
 1988TIP3   OH227522   4.571   1.706   2.384 -0.8153 -0.3655 -0.2660
 1988TIP3    H127523   4.576   1.628   2.329 -0.2900  0.1262 -0.9315
 1988TIP3    H227524   4.626   1.685   2.460 -0.6641 -0.6319 -0.4469
 1989TIP3   OH227525   1.491   3.001   1.870  0.0120  0.0622 -0.4597
 1989TIP3    H127526   1.401   2.969   1.879  0.5257 -0.8182  2.3243
 1989TIP3    H227527   1.504   3.058   1.945  1.8479  0.0295 -0.7085
 1990TIP3   OH227528   0.155   2.667   0.628 -0.0225 -0.2443 -0.1328
 1990TIP3    H127529   0.166   2.620   0.711 -1.7269  0.8620  0.7812
 1990TIP3    H227530   0.224   2.733   0.628 -1.3110  1.1807  1.5041
 1991TIP3   OH227531   4.949   1.399   1.243 -0.6143 -0.2070  0.3015
 1991TIP3    H127532   5.003   1.342   1.297 -0.0368  1.5310  1.6504
 1991TIP3    H227533   4.943   1.481   1.293  1.0463  1.9999 -2.7961
 1992TIP3   OH227534   2.277   3.982   0.443  0.2391  0.3105 -0.2229
 1992TIP3    H127535   2.329   3.935   0.508  2.6157 -0.3803 -2.4384
 1992TIP3    H227536   2.297   4.074   0.458  1.4100  0.1113 -0.4292
 1993TIP3   OH227537   0.721   4.859   0.823  0.2422 -0.3035  0.2662
 1993TIP3    H127538   0.669   4.823   0.895 -0.1148  0.8587  0.6002
 1993TIP3    H227539   0.675   4.938   0.797  0.5468 -0.5383 -1.0392
 1994TIP3   OH227540   6.765   6.620   0.949  0.1524  0.5588  0.2587
 1994TIP3    H127541   6.852   6.645   0.978  0.4193 -1.1852  1.1296
 1994TIP3    H227542   6.715   6.610   1.031  0.0903 -1.5883  0.0229
 1995TIP3   OH227543   3.736   5.462   0.164 -0.0406  0.0512  0.0193
 1995TIP3    H127544   3.655   5.421   0.192 -0.7146  0.4419 -1.2786
 1995TIP3    H227545   3.791   5.463   0.243 -1.0013 -0.8902  0.7279
 1996TIP3   OH227546   2.043   1.307   0.713  0.6306 -0.0986 -0.2865
 1996TIP3    H127547   2.034   1.335   0.804  1.6790 -2.4593  0.6340
 1996TIP3    H227548   1.960   1.332   0.672  0.1450  1.0576  1.2908
 1997TIP3   OH227549   0.233   3.376   1.664  0.2911 -0.5226  0.3126
 1997TIP3    H127550   0.286   3.376   1.744 -0.0911 -1.8597  0.6043
 1997TIP3    H227551   0.293   3.400   1.594  1.2346 -1.7678  0.6691
 1998TIP3   OH227552   1.499   1.625   0.245  0.3163  0.2906  0.8515
 1998TIP3    H127553   1.513   1.533   0.226 -1.1069  0.0971  0.6151
 1998TIP3    H227554   1.417   1.628   0.295  0.4309  1.4020  1.0158
 1999TIP3   OH227555   6.212   0.493   0.655 -0.5677  0.3240  0.0882
 1999TIP3    H127556   6.203   0.451   0.740 -1.0080 -0.3357 -0.2729
 1999TIP3    H227557   6.285   0.554   0.665 -0.7658  0.4176  1.0007
 2000TIP3   OH227558   1.764   2.749   1.718 -0.5101  0.4265 -0.6154
 2000TIP3    H127559   1.824   2.756   1.644 -0.2201  3.1721 -0.2121
 2000TIP3    H227560   1.679   2.730   1.678 -0.2724  1.3911 -1.6443
 2001TIP3   OH227561   6.382   4.936   2.147 -0.0208  0.0898 -0.0622
 2001TIP3    H127562   6.296   4.972   2.168 -1.0444 -2.0431 -0.3469
 2001TIP3    H227563   6.428   4.934   2.231  0.5797  3.0723 -0.2069
 2002TIP3   OH227564   6.101   2.609   1.035  0.2728  0.2964  0.1192
 2002TIP3    H127565   6.196   2.613   1.021  0.6954 -0.7776  2.2947
 2002TIP3    H227566   6.088   2.647   1.122 -1.4875  1.6185 -0.6588
 2003TIP3   OH227567   0.058   6.563   0.017  0.3093  0.0383  0.6165
 2003TIP3    H127568  -0.004   6.539   0.086  2.1289  0.5890  2.5392
 2003TIP3    H227569   0.087   6.479  -0.019 -1.4010 -0.2303 -0.2629
 2004TIP3   OH227570   1.651   5.346   2.350  0.2647  0.2674 -0.0697
 2004TIP3    H127571   1.680   5.268   2.303 -0.5666 -1.0232  1.4618
 2004TIP3    H227572   1.719   5.411   2.334  1.5213 -1.1206 -0.5055
 2005TIP3   OH227573   4.976   1.756   0.794  0.0164  0.2067 -0.0353
 2005TIP3    H127574   4.982   1.708   0.876 -1.2377 -0.1917 -0.1581
 2005TIP3    H227575   5.034   1.831   0.805 -0.5022  0.4140  1.3886
 2006TIP3   OH227576   6.152   4.261   1.636 -0.0132  0.1160 -0.2710
 2006TIP3    H127577   6.215   4.325   1.602 -1.0595  1.3373  0.0197
 2006TIP3    H227578   6.191   4.229   1.717  0.0905  1.0832  0.0646
 2007TIP3   OH227579   1.348   6.843   1.011 -0.2163 -0.5375 -0.5643
 2007TIP3    H127580   1.328   6.770   0.951 -0.6474 -0.9782  0.1093
 2007TIP3    H227581   1.361   6.918   0.953 -0.9605 -0.8847 -1.2037
 2008TIP3   OH227582   3.177   1.220   8.657  0.2036 -0.0876  0.4237
 2008TIP3    H127583   3.198   1.276   8.732  1.5417 -0.3334  0.2626
 2008TIP3    H227584   3.187   1.278   8.581 -2.7952  0.6256  0.4645
 2009TIP3   OH227585   1.317   3.600   8.262  0.2964  0.0711 -0.8409
 2009TIP3    H127586   1.402   3.641   8.277 -0.4197  1.3600 -0.0884
 2009TIP3    H227587   1.297   3.556   8.345 -0.3431  0.9023 -0.5351
 2010TIP3   OH227588   0.116   0.212   7.494  0.1375 -0.2690 -0.4303
 2010TIP3    H127589   0.166   0.274   7.441 -1.0457  0.4786 -0.7164
 2010TIP3    H227590   0.094   0.141   7.434 -0.3541  0.0936 -0.6831
 2011TIP3   OH227591   1.936   3.582   8.148  0.3955 -0.3293  0.1701
 2011TIP3    H127592   1.850   3.600   8.110 -0.6070 -1.4447  1.8010
 2011TIP3    H227593   1.949   3.488   8.136  2.2654  0.0732 -1.6754
 2012TIP3   OH227594   5.938   1.372   6.605 -0.1057  0.8982  0.1242
 2012TIP3    H127595   5.956   1.386   6.511  0.9541  0.7104  0.2867
 2012TIP3    H227596   5.985   1.292   6.627  2.2043  2.5126  1.4869
 2013TIP3   OH227597   6.764   1.036   1.507  0.8252 -0.2811 -0.5508
 2013TIP3    H127598   6.695   1.086   1.464 -0.8357 -0.4347  1.7969
 2013TIP3    H227599   6.841   1.048   1.450 -0.8044  0.7737 -2.6713
 2014TIP3   OH227600   3.278   0.530   8.167 -0.0708 -0.5996 -0.6719
 2014TIP3    H127601   3.317   0.617   8.172 -1.2536 -0.0531 -0.7684
 2014TIP3    H227602   3.341   0.479   8.115  0.5849  0.2121 -0.6951
 2015TIP3   OH227603   5.373   2.198   7.616  0.1436  0.1279  0.0030
 2015TIP3    H127604   5.315   2.224   7.544  0.4584  0.1730 -0.2404
 2015TIP3    H227605   5.461   2.222   7.585  0.6316 -2.3189 -0.7625
 2016TIP3   OH227606   0.111   6.088   8.230 -0.2659 -0.4375 -0.1161
 2016TIP3    H127607   0.034   6.136   8.261  0.1712  1.4856 -1.8094
 2016TIP3    H227608   0.084   6.052   8.145  0.4601 -0.3865 -0.3737
 2017TIP3   OH227609   5.574   6.395   0.017  0.4080  0.2734 -0.5032
 2017TIP3    H127610   5.663   6.424   0.038 -0.0327  0.6690  1.0051
 2017TIP3    H227611   5.577   6.374  -0.076  1.9251  0.8394 -0.6243
 2018TIP3   OH227612   0.203   4.378   7.707  0.1096 -0.1535  0.0389
 2018TIP3    H127613   0.184   4.302   7.762 -0.1922  0.5889  0.9876
 2018TIP3    H227614   0.120   4.399   7.665  0.5966 -1.4659 -1.7364
 2019TIP3   OH227615   0.225   0.815   7.594 -0.0017  0.2581 -0.3070
 2019TIP3    H127616   0.175   0.817   7.676  0.2191  1.4027 -0.1854
 2019TIP3    H227617   0.315   0.835   7.620 -0.2152  2.4266 -0.9826
 2020TIP3   OH227618   0.363   0.835   6.810 -0.1535  0.0937  0.0375
 2020TIP3    H127619   0.433   0.831   6.744 -1.8634  0.1221 -1.8690
 2020TIP3    H227620   0.362   0.748   6.849  0.8367  0.0496  0.0050
 2021TIP3   OH227621   4.818   0.643   7.203 -0.4589  0.5093 -0.3782
 2021TIP3    H127622   4.883   0.594   7.254 -0.5494 -1.0337 -1.6720
 2021TIP3    H227623   4.747   0.660   7.265 -0.1351 -0.4353  0.2706
 2022TIP3   OH227624   5.475   6.676   8.431 -0.2465  0.0964 -0.4367
 2022TIP3    H127625   5.413   6.714   8.493  0.8338  1.5000 -0.1647
 2022TIP3    H227626   5.561   6.691   8.471  0.3739 -0.3836 -1.5376
 2023TIP3   OH227627   3.036   0.103   8.141  0.1514  0.3452 -0.3027
 2023TIP3    H127628   3.114   0.105   8.196  0.0267  1.5342 -0.1477
 2023TIP3    H227629   3.038   0.187   8.094  0.2297 -0.6045 -2.0766
 2024TIP3   OH227630   0.393   2.077   1.926  0.2769  0.5800  1.0783
 2024TIP3    H127631   0.454   2.116   1.863 -0.7154 -0.1960 -0.4502
 2024TIP3    H227632   0.373   2.147   1.988  0.8135  1.5900  0.1428
 2025TIP3   OH227633   4.818   5.947   7.524 -0.2238  0.4834  0.0178
 2025TIP3    H127634   4.804   6.040   7.504 -0.9734  0.4012  0.1645
 2025TIP3    H227635   4.897   5.947   7.578  1.5476  0.7635 -2.3959
 2026TIP3   OH227636   0.011   5.316   7.859  0.4167  0.2945 -0.3783
 2026TIP3    H127637   0.019   5.401   7.816  0.6073  0.7932  0.6220
 2026TIP3    H227638   0.068   5.322   7.936  0.1149 -0.5942 -0.0669
 2027TIP3   OH227639   5.357   3.783   7.209  0.5050  0.1062 -0.2023
 2027TIP3    H127640   5.425   3.841   7.244  0.8984 -0.3488 -0.2129
 2027TIP3    H227641   5.339   3.721   7.280  2.1975 -1.6166 -1.1945
 2028TIP3   OH227642   2.075   3.175   1.203 -0.0408 -0.6754  0.0153
 2028TIP3    H127643   2.037   3.164   1.116 -0.5412  0.2998  0.0899
 2028TIP3    H227644   2.025   3.115   1.259  0.5972 -1.6500 -0.4423
 2029TIP3   OH227645   5.428   2.360   1.000  0.0768 -0.5237  0.6654
 2029TIP3    H127646   5.465   2.449   1.005 -1.2645  0.4055 -2.8886
 2029TIP3    H227647   5.384   2.348   1.085 -0.5145  2.6398  0.9494
 2030TIP3   OH227648   4.615   4.081   1.006 -0.3479 -1.0244 -0.2609
 2030TIP3    H127649   4.530   4.087   1.050 -0.7371  0.0360 -1.1177
 2030TIP3    H227650   4.678   4.077   1.078 -0.9341  1.1316  0.4483
 2031TIP3   OH227651   1.562   0.783   1.201  0.0580  0.1489  0.0643
 2031TIP3    H127652   1.606   0.864   1.176  0.6533  0.0579  0.7971
 2031TIP3    H227653   1.563   0.730   1.121 -2.6321  1.8120 -1.2233
 2032TIP3   OH227654   4.440   5.811   8.010 -0.1556 -0.0489  0.9169
 2032TIP3    H127655   4.471   5.901   7.994 -0.4891  0.2566  1.9078
 2032TIP3    H227656   4.411   5.812   8.101  1.9103 -1.7759  1.6517
 2033TIP3   OH227657   0.829   6.040   0.736 -0.4750 -0.2356  0.4531
 2033TIP3    H127658   0.779   5.958   0.738  0.7791 -1.0120  1.0061
 2033TIP3    H227659   0.916   6.016   0.766  0.6904  0.7919 -1.8191
 2034TIP3   OH227660   3.136   2.029   0.719 -0.3178 -0.8198  0.4002
 2034TIP3    H127661   3.196   1.964   0.757  0.6732  0.3396  0.8915
 2034TIP3    H227662   3.113   1.993   0.633  0.6387 -1.5679  0.4384
 2035TIP3   OH227663   5.462   2.844   6.554 -0.1588  0.6652  0.2493
 2035TIP3    H127664   5.375   2.883   6.562 -1.1650 -1.3815 -0.0416
 2035TIP3    H227665   5.452   2.755   6.587  2.2168  0.8170  1.6169
 2036TIP3   OH227666   4.027   0.654   7.221 -0.1573  0.1824 -0.7814
 2036TIP3    H127667   4.018   0.586   7.288  1.9168 -0.2718 -0.8894
 2036TIP3    H227668   4.039   0.735   7.270  0.0743  0.0498 -0.6189
 2037TIP3   OH227669   1.622   0.607   0.436  0.7158  0.0370 -0.3173
 2037TIP3    H127670   1.560   0.601   0.364  0.0562  2.4752 -0.0119
 2037TIP3    H227671   1.696   0.656   0.400  0.0670  1.9352  0.7974
 2038TIP3   OH227672   5.981   6.656   1.678 -0.7093 -0.1749  0.2172
 2038TIP3    H127673   5.887   6.640   1.683 -0.6362 -0.3624  1.6009
 2038TIP3    H227674   5.993   6.742   1.718 -0.1712 -0.7564  1.3523
 2039TIP3   OH227675   0.863   2.669   0.179 -0.2641  0.4838 -0.4418
 2039TIP3    H127676   0.846   2.637   0.090 -1.0129 -0.0376 -0.1149
 2039TIP3    H227677   0.787   2.641   0.230  0.0192  1.0414  0.3014
 2040TIP3   OH227678   5.695   4.107   7.553  0.3295  0.1078  0.0522
 2040TIP3    H127679   5.645   4.182   7.522 -2.4879 -2.3717 -1.9547
 2040TIP3    H227680   5.785   4.126   7.526 -0.7757  1.5105 -3.0769
 2041TIP3   OH227681   2.803   1.231   0.893  0.0017  0.0082  0.2432
 2041TIP3    H127682   2.858   1.192   0.962 -1.2652 -2.0346  0.1670
 2041TIP3    H227683   2.713   1.215   0.922 -0.5582  0.1546 -1.3269
 2042TIP3   OH227684   1.743   3.953   7.032  0.4301  0.1655  0.0948
 2042TIP3    H127685   1.656   3.929   6.999 -0.2845 -0.7447  2.4401
 2042TIP3    H227686   1.802   3.889   6.991 -0.0166  0.5522 -1.2174
 2043TIP3   OH227687   6.167   0.001   2.151 -0.1095 -0.3416 -0.1388
 2043TIP3    H127688   6.255   0.018   2.117  0.7755 -0.1152  2.0902
 2043TIP3    H227689   6.152  -0.092   2.132  1.2323 -0.7546  0.6827
 2044TIP3   OH227690   4.107   0.888   7.964 -0.2735  0.0255 -0.7413
 2044TIP3    H127691   4.074   0.916   8.050 -3.0541 -0.0205 -1.7191
 2044TIP3    H227692   4.042   0.826   7.932  1.0259 -0.4193 -2.6585
 2045TIP3   OH227693   2.679   3.569   7.715  0.2250 -0.6652  0.1044
 2045TIP3    H127694   2.661   3.584   7.808  0.6737  0.9804 -0.0425
 2045TIP3    H227695   2.592   3.563   7.675  0.0076 -2.7825  0.7918
 2046TIP3   OH227696   6.490   4.940   0.954  0.7821  0.4042 -0.2639
 2046TIP3    H127697   6.447   4.906   0.875 -0.3085 -0.4225  0.6514
 2046TIP3    H227698   6.418   4.975   1.007  1.2248 -0.7867  1.2049
 2047TIP3   OH227699   2.153   4.658   7.127 -0.0131 -0.2496 -0.1548
 2047TIP3    H127700   2.229   4.600   7.123 -0.0804 -0.3167 -0.5865
 2047TIP3    H227701   2.151   4.700   7.041 -1.5661 -1.6728 -0.8805
 2048TIP3   OH227702   6.792   0.704   8.053  0.0376 -0.5692  0.2388
 2048TIP3    H127703   6.760   0.649   8.124 -0.5150 -1.0865 -0.4076
 2048TIP3    H227704   6.717   0.759   8.029  0.5399  0.3783  0.7825
 2049TIP3   OH227705   5.119   3.019   8.565 -0.3238  0.0063  0.3065
 2049TIP3    H127706   5.082   2.931   8.574  1.5142 -0.7490  0.9400
 2049TIP3    H227707   5.111   3.058   8.652 -0.4950  0.2176  0.1988
 2050TIP3   OH227708   2.035   0.338   8.510 -0.0053  0.4478 -0.1958
 2050TIP3    H127709   2.068   0.248   8.511  1.7870  1.0652 -0.6860
 2050TIP3    H227710   2.107   0.390   8.475 -1.4885  1.9099 -1.2206
 2051TIP3   OH227711   6.432   2.900   8.290 -0.1876  0.6864 -0.4988
 2051TIP3    H127712   6.345   2.891   8.251 -1.2207  2.1456  1.2990
 2051TIP3    H227713   6.415   2.922   8.381  2.1129 -0.9765  0.4186
 2052TIP3   OH227714   2.563   3.683   0.138  0.2857  0.2057 -0.2210
 2052TIP3    H127715   2.506   3.716   0.070  1.2091 -0.4186 -1.3305
 2052TIP3    H227716   2.529   3.721   0.219 -1.7095 -0.2010 -0.8291
 2053TIP3   OH227717   3.737   0.272   2.328 -0.1280  0.3650  0.4690
 2053TIP3    H127718   3.765   0.286   2.419 -1.0688  2.0513  0.5457
 2053TIP3    H227719   3.702   0.357   2.301  0.1275 -0.1082 -1.4846
 2054TIP3   OH227720   4.024   3.277   6.266  0.3302  0.7953 -0.2342
 2054TIP3    H127721   3.959   3.317   6.208 -0.0556 -0.1981 -0.5017
 2054TIP3    H227722   4.004   3.184   6.263 -0.9629  0.8545  3.0291
 2055TIP3   OH227723   4.971   2.310   2.395 -0.0136  0.4862 -0.4329
 2055TIP3    H127724   5.060   2.340   2.376  0.0432  0.0006 -0.9639
 2055TIP3    H227725   4.983   2.237   2.456 -0.1998  2.0971  1.6281
 2056TIP3   OH227726   2.820   0.968   7.525 -0.0019 -0.1411  0.4530
 2056TIP3    H127727   2.759   0.953   7.597  1.1917 -1.7813  1.1816
 2056TIP3    H227728   2.841   1.061   7.530 -2.2519  0.4397  0.2822
 2057TIP3   OH227729   5.420   2.911   8.030 -0.1244  0.0904  0.3731
 2057TIP3    H127730   5.351   2.844   8.035 -0.9745  0.9190  0.1393
 2057TIP3    H227731   5.427   2.945   8.119 -0.1387  0.1183  0.3636
 2058TIP3   OH227732   4.431   5.336   7.537 -0.2023  0.0884 -0.5898
 2058TIP3    H127733   4.520   5.305   7.555 -0.8450 -2.1681 -1.0172
 2058TIP3    H227734   4.404   5.377   7.619  0.6707 -0.6100  0.0716
 2059TIP3   OH227735   5.451   4.212   6.518 -0.2429  0.2158  0.4954
 2059TIP3    H127736   5.540   4.195   6.486 -0.6044 -1.6542  0.3511
 2059TIP3    H227737   5.455   4.192   6.611 -0.7425 -1.0073  0.2772
 2060TIP3   OH227738   3.502   2.339   1.012  0.0874  0.2502 -0.4303
 2060TIP3    H127739   3.498   2.244   0.997  0.8719  0.1632 -0.0994
 2060TIP3    H227740   3.562   2.371   0.945  0.5544  0.3820  0.0427
 2061TIP3   OH227741   2.599   6.761   7.196 -0.7850  0.0448  0.2963
 2061TIP3    H127742   2.582   6.737   7.105  1.0497  2.2398 -0.7266
 2061TIP3    H227743   2.537   6.830   7.216 -0.5264  0.2639  0.3556
 2062TIP3   OH227744   6.448   6.140   0.542  0.0776 -0.4683 -0.4739
 2062TIP3    H127745   6.457   6.220   0.595 -1.2310 -0.7160  0.1478
 2062TIP3    H227746   6.536   6.125   0.507  0.2832  1.4475 -0.9095
 2063TIP3   OH227747   0.936   5.064   7.946 -0.1695 -0.7059 -0.1527
 2063TIP3    H127748   1.027   5.078   7.971 -0.3494 -0.5708  0.4461
 2063TIP3    H227749   0.939   5.043   7.853  0.5007 -1.0009 -0.0681
 2064TIP3   OH227750   6.409   6.418   2.078  0.1394 -0.2917 -0.4440
 2064TIP3    H127751   6.409   6.503   2.123  1.4463 -0.8134  0.6210
 2064TIP3    H227752   6.390   6.355   2.147  1.9385 -1.0964 -0.6439
 2065TIP3   OH227753   6.559   1.384   1.712 -0.4765  0.3086  0.4488
 2065TIP3    H127754   6.546   1.320   1.642  1.3402  1.1936 -0.7901
 2065TIP3    H227755   6.487   1.446   1.702  0.2480  0.9327 -1.2852
 2066TIP3   OH227756   1.496   6.305   7.352 -0.0752  0.4428  0.3977
 2066TIP3    H127757   1.569   6.341   7.301 -0.1880  0.5955  0.3437
 2066TIP3    H227758   1.514   6.211   7.356  0.2680  0.5183  0.6194
 2067TIP3   OH227759   0.897   2.325   0.992  0.2145 -0.0950  0.4049
 2067TIP3    H127760   0.886   2.407   0.943 -1.0669 -0.4605  0.0208
 2067TIP3    H227761   0.946   2.268   0.933  0.2900  0.0830  0.2940
 2068TIP3   OH227762   0.416   0.034   8.459  0.4920  0.2731 -0.0580
 2068TIP3    H127763   0.495   0.064   8.505  1.4597  0.5775 -1.8611
 2068TIP3    H227764   0.402  -0.055   8.492  1.8075  0.0639  0.0158
 2069TIP3   OH227765   0.324   4.933   7.492 -0.5219 -0.6249 -0.1729
 2069TIP3    H127766   0.364   4.927   7.405 -1.2022  1.6531 -0.7040
 2069TIP3    H227767   0.292   5.023   7.498 -2.6727 -1.4210  1.5075
 2070TIP3   OH227768   5.286   3.895   0.894 -0.1636 -0.3989  0.2016
 2070TIP3    H127769   5.287   3.865   0.803  0.6724  0.9073 -0.2453
 2070TIP3    H227770   5.374   3.873   0.927  0.1026  0.5930  0.1788
 2071TIP3   OH227771   5.449   3.886   2.110  0.3147 -0.5040  0.2115
 2071TIP3    H127772   5.517   3.826   2.082  0.6527 -0.0284 -0.0091
 2071TIP3    H227773   5.479   3.919   2.195 -1.2317 -2.7773  1.7526
 2072TIP3   OH227774   1.534   5.758   8.590 -0.1638 -0.4191 -0.0280
 2072TIP3    H127775   1.531   5.851   8.609 -0.2526 -0.5867  0.8226
 2072TIP3    H227776   1.459   5.722   8.637  0.5369 -1.0829  0.5971
 2073TIP3   OH227777   3.651   2.140   7.311 -0.4819 -0.2545  0.1911
 2073TIP3    H127778   3.707   2.137   7.389 -0.6818 -2.1621  0.2980
 2073TIP3    H227779   3.605   2.056   7.310  0.8806 -1.1315 -2.9812
 2074TIP3   OH227780   2.554   2.360   0.691  0.5785  0.1004  0.0675
 2074TIP3    H127781   2.494   2.432   0.674  0.0423 -0.4982 -0.6130
 2074TIP3    H227782   2.541   2.339   0.784  0.1938  0.3765  0.0769
 2075TIP3   OH227783   0.473   0.140   7.166 -0.1634  0.0936 -0.2077
 2075TIP3    H127784   0.554   0.134   7.116 -0.2872 -0.9433 -0.3149
 2075TIP3    H227785   0.478   0.068   7.229  0.0478  1.4513  1.3862
 2076TIP3   OH227786   2.730   6.841   1.959  0.5173  0.1399  0.1062
 2076TIP3    H127787   2.766   6.860   2.046  1.2000 -0.0045 -0.1341
 2076TIP3    H227788   2.806   6.815   1.907 -0.0503 -0.9539 -0.2133
 2077TIP3   OH227789   2.974   1.936   1.285  0.0072  0.1366 -0.0698
 2077TIP3    H127790   2.918   1.859   1.295 -0.2344  0.4484  1.1548
 2077TIP3    H227791   2.920   1.999   1.239 -0.5178  0.2792  0.7182
 2078TIP3   OH227792   0.932   4.039   1.862  0.4151 -0.2377 -0.2001
 2078TIP3    H127793   0.879   3.962   1.842 -1.2849  0.7446  0.2788
 2078TIP3    H227794   0.932   4.090   1.781  3.8773 -1.9254 -1.4456
 2079TIP3   OH227795   0.569   6.790   0.170  0.4186  0.2691  0.0019
 2079TIP3    H127796   0.549   6.723   0.236  0.5848  1.0535  0.8673
 2079TIP3    H227797   0.490   6.794   0.116  0.2343 -0.3131  0.2174
 2080TIP3   OH227798   1.598   2.851   8.526  0.1309  0.2913 -0.1335
 2080TIP3    H127799   1.520   2.848   8.471  0.2217  0.4272 -0.2710
 2080TIP3    H227800   1.650   2.923   8.490  3.0213 -3.1263 -3.7134
 2081TIP3   OH227801   5.245   0.445   7.475 -0.7194 -0.2584 -0.6935
 2081TIP3    H127802   5.216   0.425   7.563  0.8318 -0.2018 -0.1352
 2081TIP3    H227803   5.166   0.437   7.421 -1.6559 -0.4506  0.6552
 2082TIP3   OH227804   3.607   1.686   0.610 -0.1324  0.2645 -0.1739
 2082TIP3    H127805   3.639   1.758   0.664 -2.5356  1.2649  0.0453
 2082TIP3    H227806   3.591   1.725   0.524 -1.7507  0.0990  0.0279
 2083TIP3   OH227807   4.276   3.212   1.425 -0.5817  0.0192 -0.1225
 2083TIP3    H127808   4.328   3.219   1.505  0.3474  1.6371 -0.8261
 2083TIP3    H227809   4.200   3.269   1.441 -1.0662 -0.6703  0.0832
 2084TIP3   OH227810   3.268   3.064   1.452 -0.4648  0.0307  0.3584
 2084TIP3    H127811   3.325   2.992   1.427  0.5622  1.1255 -0.6057
 2084TIP3    H227812   3.315   3.143   1.424 -0.9167  1.1721  2.5504
 2085TIP3   OH227813   6.124   5.650   7.474  0.1474  0.2386 -0.5967
 2085TIP3    H127814   6.050   5.611   7.520 -0.2843  1.5303 -0.1690
 2085TIP3    H227815   6.201   5.612   7.518 -0.2568  1.0034  0.8305
 2086TIP3   OH227816   2.809   6.194   1.303  0.3140 -0.2021  0.0948
 2086TIP3    H127817   2.849   6.107   1.300  0.8477  0.0646 -1.1427
 2086TIP3    H227818   2.855   6.239   1.374  0.3135 -0.7927  0.4730
 2087TIP3   OH227819   2.188   1.423   2.018  0.1252  0.2727 -0.1821
 2087TIP3    H127820   2.255   1.439   1.951  0.8443 -2.6218 -0.2878
 2087TIP3    H227821   2.231   1.448   2.100  0.5002  0.5985 -0.4686
 2088TIP3   OH227822   0.931   4.824   1.583 -0.2047  0.8703 -0.9031
 2088TIP3    H127823   0.938   4.736   1.547 -0.5427 -0.4473  2.0236
 2088TIP3    H227824   1.020   4.846   1.609 -0.5217  0.1911  0.8805
 2089TIP3   OH227825   6.436   1.228   1.982 -0.0623  0.6432 -0.0417
 2089TIP3    H127826   6.529   1.204   1.984  0.5472  2.7689 -0.4715
 2089TIP3    H227827   6.422   1.261   1.893 -0.9956  1.1882  0.2995
 2090TIP3   OH227828   5.958   0.307   1.913  0.2140  0.0570 -0.1040
 2090TIP3    H127829   5.936   0.311   2.006 -0.1172 -1.7198 -0.0683
 2090TIP3    H227830   6.054   0.299   1.912  0.1455 -0.8648  0.1380
 2091TIP3   OH227831   4.269   1.124   7.542 -0.4609  0.1934 -0.1197
 2091TIP3    H127832   4.348   1.129   7.596 -0.7956 -1.8951  0.6637
 2091TIP3    H227833   4.277   1.040   7.497 -0.5122  1.5821 -2.8987
 2092TIP3   OH227834   5.295   0.286   7.881  0.0457 -0.0622  0.2353
 2092TIP3    H127835   5.260   0.205   7.919  0.6133  0.0591  1.0452
 2092TIP3    H227836   5.378   0.299   7.926  0.4413  0.4358 -0.6179
 2093TIP3   OH227837   0.611   2.694   7.890  0.1370  0.5038  0.1570
 2093TIP3    H127838   0.520   2.723   7.896  0.0959  0.5062 -0.3853
 2093TIP3    H227839   0.605   2.600   7.877  0.1638  0.6321 -0.9073
 2094TIP3   OH227840   0.225   4.141   7.304 -0.0384 -0.4673  0.5269
 2094TIP3    H127841   0.270   4.057   7.311  1.0425  0.0127 -0.3007
 2094TIP3    H227842   0.285   4.196   7.253 -0.5697  0.9140  1.3462
 2095TIP3   OH227843   6.281   1.386   7.959  0.0374  0.1605  0.0313
 2095TIP3    H127844   6.195   1.423   7.977 -0.3228 -0.4719 -0.3194
 2095TIP3    H227845   6.288   1.388   7.863 -0.4924 -1.6984 -0.0921
 2096TIP3   OH227846   0.901   2.889   7.731  0.0363 -0.5109 -1.2956
 2096TIP3    H127847   0.981   2.907   7.681  0.3208  0.1165 -0.6292
 2096TIP3    H227848   0.855   2.972   7.735 -0.3846 -0.7453 -1.2147
 2097TIP3   OH227849   2.758   4.548   1.185  0.1133 -0.3320 -0.8901
 2097TIP3    H127850   2.699   4.545   1.260 -0.3384 -1.9580 -1.2569
 2097TIP3    H227851   2.738   4.631   1.142 -1.9822 -0.8503 -1.0314
 2098TIP3   OH227852   4.268   3.481   1.343 -0.5725 -0.1367 -0.9714
 2098TIP3    H127853   4.213   3.538   1.398  0.7997  0.9752 -0.6690
 2098TIP3    H227854   4.338   3.453   1.402 -1.5637 -2.7342 -0.9431
 2099TIP3   OH227855   1.839   1.432   6.750  0.1689 -0.0115 -0.2480
 2099TIP3    H127856   1.908   1.497   6.760  0.3820 -0.4188  1.1379
 2099TIP3    H227857   1.878   1.364   6.695  0.9283 -0.2751  0.5833
 2100TIP3   OH227858   4.873   3.981   7.809 -0.5497 -0.2951 -0.0873
 2100TIP3    H127859   4.821   3.944   7.881 -0.7866 -0.5266 -0.3726
 2100TIP3    H227860   4.910   3.905   7.765 -0.4698 -0.1574 -0.2583
 2101TIP3   OH227861   6.680   5.422   0.252  0.1063  0.0099  0.9751
 2101TIP3    H127862   6.709   5.389   0.337  1.4198  0.6214  0.7831
 2101TIP3    H227863   6.644   5.345   0.208 -0.9913 -0.2313  2.2201
 2102TIP3   OH227864   6.425   4.827   7.195 -0.2409  0.4294  0.3626
 2102TIP3    H127865   6.512   4.801   7.164 -0.9188  0.8918 -2.1971
 2102TIP3    H227866   6.376   4.744   7.201 -0.1833  0.3487 -0.1935
 2103TIP3   OH227867   4.210   6.678   0.425  0.0742  0.1840  0.3807
 2103TIP3    H127868   4.290   6.729   0.436  1.2795 -1.7709  1.2632
 2103TIP3    H227869   4.197   6.673   0.331  0.6737  0.9899  0.2512
 2104TIP3   OH227870   5.981   2.332   8.338  0.3615  0.4871 -0.0068
 2104TIP3    H127871   5.983   2.411   8.392 -0.6645  0.9346 -0.5904
 2104TIP3    H227872   6.071   2.300   8.338  0.4868  0.7615  1.5233
 2105TIP3   OH227873   6.157   2.856   7.986 -1.3518  0.0262 -0.5739
 2105TIP3    H127874   6.101   2.845   8.063 -1.1536  1.0680 -0.2747
 2105TIP3    H227875   6.200   2.940   7.998 -0.8509 -0.0707 -1.5337
 2106TIP3   OH227876   5.513   1.151   2.457 -0.4952 -0.4121 -0.0951
 2106TIP3    H127877   5.551   1.127   2.372 -0.2787  4.1472 -1.5247
 2106TIP3    H227878   5.588   1.163   2.514 -0.4723 -0.7532 -0.0477
 2107TIP3   OH227879   6.512   1.377   7.075 -0.1453  0.5870 -0.1343
 2107TIP3    H127880   6.495   1.315   7.005  0.7837 -0.3652  0.4504
 2107TIP3    H227881   6.577   1.437   7.038 -0.3092  0.6185 -0.3742
 2108TIP3   OH227882   0.493   5.837   7.435  0.3812  0.0073 -0.5162
 2108TIP3    H127883   0.583   5.831   7.406  0.9140  2.3262  0.4399
 2108TIP3    H227884   0.471   5.930   7.429 -1.8421 -0.4388 -0.4031
 2109TIP3   OH227885   3.186   2.996   0.788 -0.2201 -0.1255  0.2779
 2109TIP3    H127886   3.187   3.086   0.822 -1.3672 -1.0485  3.0221
 2109TIP3    H227887   3.247   2.948   0.845 -1.1712 -1.4976  0.1808
 2110TIP3   OH227888   3.382   3.304   1.365 -0.2690 -0.0339 -0.5092
 2110TIP3    H127889   3.466   3.337   1.333 -0.8513 -0.5151 -2.7292
 2110TIP3    H227890   3.318   3.370   1.337 -0.6825  0.1964  0.9189
 2111TIP3   OH227891   1.479   3.918   7.668  0.0789  0.0273  0.3189
 2111TIP3    H127892   1.454   3.867   7.591  0.6365 -0.5186  0.4933
 2111TIP3    H227893   1.516   3.999   7.633 -0.7260  0.2789  0.0399
 2112TIP3   OH227894   0.676   5.261   1.832  0.2895 -0.0780  0.5306
 2112TIP3    H127895   0.750   5.200   1.831  1.2361  1.0224  1.0248
 2112TIP3    H227896   0.713   5.342   1.867 -0.7916  0.9570 -0.6463
 2113TIP3   OH227897   3.838   1.495   1.636  0.0186  0.3889 -0.4110
 2113TIP3    H127898   3.892   1.543   1.699  0.1212  0.4189 -0.5201
 2113TIP3    H227899   3.756   1.544   1.633 -0.4847 -0.3509  0.6699
 2114TIP3   OH227900   4.468   3.378   7.988 -0.1982 -0.0695  0.3731
 2114TIP3    H127901   4.466   3.442   8.059 -0.7307  1.0916 -0.6524
 2114TIP3    H227902   4.380   3.339   7.988 -0.0794 -0.3411  0.5844
 2115TIP3   OH227903   5.971   2.130   1.765  0.2029 -0.1905  0.0747
 2115TIP3    H127904   6.028   2.174   1.829  0.8114  0.6775 -1.0317
 2115TIP3    H227905   6.025   2.122   1.687 -1.3616  1.2416 -1.2321
 2116TIP3   OH227906   0.077   2.408   6.604 -0.5725  0.5283  0.5330
 2116TIP3    H127907   0.055   2.338   6.666 -1.0079 -0.5733 -0.8277
 2116TIP3    H227908  -0.002   2.462   6.599  0.0035  1.6092  2.1410
 2117TIP3   OH227909   2.790   3.342   1.654 -0.0408  0.5045 -0.1385
 2117TIP3    H127910   2.803   3.398   1.731  0.7503  1.2995 -0.8348
 2117TIP3    H227911   2.878   3.317   1.627 -0.3296 -0.0641 -0.5807
 2118TIP3   OH227912   1.149   2.054   0.384 -0.2196 -0.8573 -0.0945
 2118TIP3    H127913   1.197   1.976   0.415 -0.5141 -1.1238 -0.2999
 2118TIP3    H227914   1.088   2.074   0.456  1.5075  0.6642  1.0389
 2119TIP3   OH227915   0.029   4.414   0.404  0.1212  0.2226  0.2836
 2119TIP3    H127916  -0.056   4.409   0.447 -0.0458 -1.5679 -0.2025
 2119TIP3    H227917   0.028   4.345   0.338  1.7896  0.4294 -0.0195
 2120TIP3   OH227918   0.353   1.965   0.202 -0.5420 -0.0474 -0.2119
 2120TIP3    H127919   0.320   1.993   0.288 -1.1360 -2.7413  0.5264
 2120TIP3    H227920   0.411   2.036   0.174  0.5694  0.4363  2.9279
 2121TIP3   OH227921   1.999   2.062   7.546  0.1889  0.1746 -0.6892
 2121TIP3    H127922   1.924   2.101   7.590  0.4876  1.4780 -1.2995
 2121TIP3    H227923   2.073   2.120   7.567  0.2628  1.1200 -3.1967
 2122TIP3   OH227924   2.498   4.277   8.487 -1.1294 -0.6101 -0.0410
 2122TIP3    H127925   2.556   4.312   8.420 -1.1835 -1.1913 -0.3944
 2122TIP3    H227926   2.531   4.189   8.505 -2.2797 -1.2033 -0.7282
 2123TIP3   OH227927   3.915   2.306   8.160  0.2206 -0.0430 -0.1356
 2123TIP3    H127928   3.868   2.381   8.123 -0.5338 -0.5213 -0.1530
 2123TIP3    H227929   3.988   2.346   8.208  0.8377  0.6201 -1.5506
 2124TIP3   OH227930   3.973   1.591   6.418 -0.0840 -0.6668  0.3494
 2124TIP3    H127931   3.923   1.530   6.364 -0.7894  0.6799 -0.5794
 2124TIP3    H227932   3.952   1.677   6.382  1.7027  0.0560  0.9419
 2125TIP3   OH227933   3.508   3.887   8.629 -0.5363  0.0093  0.1111
 2125TIP3    H127934   3.568   3.949   8.588 -2.2259  1.5107 -0.2265
 2125TIP3    H227935   3.510   3.810   8.573  0.8195  0.1422 -0.0465
 2126TIP3   OH227936   1.890   2.096   0.074  0.7825 -0.2299  0.3507
 2126TIP3    H127937   1.931   2.040   0.140 -0.3210  0.2563  1.4845
 2126TIP3    H227938   1.951   2.169   0.063  2.6327 -1.9070 -1.7179
 2127TIP3   OH227939   3.864   4.413   7.599 -0.3821  0.3726  0.3218
 2127TIP3    H127940   3.826   4.344   7.653  1.1619 -1.4632 -0.8004
 2127TIP3    H227941   3.830   4.397   7.511 -0.2879  1.2936  0.1036
 2128TIP3   OH227942   5.883   0.349   8.430 -0.3283  0.1811  0.4651
 2128TIP3    H127943   5.791   0.357   8.405 -0.0098  1.2322 -0.4238
 2128TIP3    H227944   5.916   0.278   8.374 -0.5862 -0.2108  0.7980
 2129TIP3   OH227945   4.980   6.136   7.398  0.2427  0.1558  0.1480
 2129TIP3    H127946   4.976   6.042   7.382  2.0736 -0.0178  0.4858
 2129TIP3    H227947   5.073   6.154   7.414  0.2400  2.3198 -1.7255
 2130TIP3   OH227948   3.063   5.471   0.609 -0.1509  0.0561 -0.3408
 2130TIP3    H127949   2.990   5.532   0.606  0.9724  1.8890  3.6139
 2130TIP3    H227950   3.118   5.496   0.534 -0.1541  3.4735  0.6276
 2131TIP3   OH227951   4.213   2.005   2.209 -0.7337 -0.6341 -0.6423
 2131TIP3    H127952   4.307   1.998   2.222 -0.6156  0.8533 -0.5215
 2131TIP3    H227953   4.201   2.086   2.159 -1.9888 -0.3828  0.0148
 2132TIP3   OH227954   5.269   4.323   1.110  0.6203  0.7616  0.4932
 2132TIP3    H127955   5.313   4.274   1.041  2.6465 -0.8471  2.7873
 2132TIP3    H227956   5.239   4.257   1.172  0.3013  2.2369  1.9915
 2133TIP3   OH227957   5.380   5.303   6.705 -0.2554 -0.0847  0.4215
 2133TIP3    H127958   5.317   5.231   6.698  0.5277 -0.7068 -0.4651
 2133TIP3    H227959   5.414   5.313   6.617  0.9623  0.1734  0.9081
 2134TIP3   OH227960   5.870   5.388   1.806  0.1032  0.0160 -0.2179
 2134TIP3    H127961   5.942   5.394   1.868  0.6773 -0.1798 -0.8557
 2134TIP3    H227962   5.792   5.378   1.861  0.7525 -1.6722  0.4422
 2135TIP3   OH227963   3.990   4.169   0.081 -0.5531 -0.0504 -0.5595
 2135TIP3    H127964   4.041   4.217   0.146  0.4243 -1.5418 -0.1662
 2135TIP3    H227965   3.912   4.141   0.128 -1.3520  1.5052 -0.9197
 2136TIP3   OH227966   2.075   4.448   2.345 -0.2349 -0.4600  0.2793
 2136TIP3    H127967   2.005   4.506   2.373  1.2007  2.5854 -1.8377
 2136TIP3    H227968   2.141   4.455   2.414  0.2020  1.0841 -0.2495
 2137TIP3   OH227969   6.220   0.078   0.725 -0.0691 -0.2185 -0.3303
 2137TIP3    H127970   6.145   0.132   0.749 -0.8304 -1.0516 -0.7603
 2137TIP3    H227971   6.205   0.056   0.632  0.3989 -0.8502 -0.2640
 2138TIP3   OH227972   6.457   2.772   6.760 -0.4604  0.1393 -0.7562
 2138TIP3    H127973   6.476   2.715   6.686  2.6199 -0.1657  0.1327
 2138TIP3    H227974   6.530   2.834   6.761 -0.9909  0.8003  1.4000
 2139TIP3   OH227975   2.252   4.539   0.435  0.6621 -0.0643 -0.6736
 2139TIP3    H127976   2.316   4.573   0.372  0.3083 -0.3457 -1.1988
 2139TIP3    H227977   2.288   4.562   0.521  0.8322  0.9133 -0.9881
 2140TIP3   OH227978   5.129   2.146   7.959 -0.4898  0.2265 -0.2256
 2140TIP3    H127979   5.075   2.099   8.022 -1.9092  0.6233 -1.1038
 2140TIP3    H227980   5.121   2.096   7.878 -1.8498  1.7965 -1.1249
 2141TIP3   OH227981   6.138   4.489   0.726 -0.1586  0.3626  0.8033
 2141TIP3    H127982   6.139   4.539   0.645  0.3757  0.1956  0.7043
 2141TIP3    H227983   6.055   4.513   0.768  0.5486  2.1253  1.2571
 2142TIP3   OH227984   0.599   6.637   2.244 -0.0432 -0.1493  0.1081
 2142TIP3    H127985   0.542   6.561   2.255 -1.5611  0.8756 -0.3566
 2142TIP3    H227986   0.566   6.701   2.307  0.3246  0.6309 -0.4759
 2143TIP3   OH227987   3.174   5.904   0.254 -0.0531  0.0817 -0.4700
 2143TIP3    H127988   3.135   5.820   0.232  0.7623 -0.5997  0.6056
 2143TIP3    H227989   3.186   5.948   0.170 -0.8320 -0.7144 -1.0097
 2144TIP3   OH227990   5.667   2.853   7.965 -0.6418  0.0272 -0.0783
 2144TIP3    H127991   5.680   2.796   8.040  1.6229  0.5431 -0.0305
 2144TIP3    H227992   5.572   2.869   7.963 -1.2602 -3.0866  0.3316
 2145TIP3   OH227993   5.918   1.995   0.088 -0.2850 -0.5081 -0.2325
 2145TIP3    H127994   5.915   2.003  -0.008  1.1234 -0.4048 -0.2849
 2145TIP3    H227995   6.006   2.023   0.111 -1.1355  1.1049  1.2716
 2146TIP3   OH227996   6.560   3.681   8.673 -0.4992 -0.1032  0.4188
 2146TIP3    H127997   6.616   3.627   8.618 -0.0782 -0.4685  1.1944
 2146TIP3    H227998   6.570   3.645   8.761 -1.0690  0.5451  0.7609
 2147TIP3   OH227999   6.195   0.315   0.988  0.0593 -0.2612  0.3884
 2147TIP3    H128000   6.263   0.257   1.021 -0.1174 -1.1203 -0.7093
 2147TIP3    H228001   6.122   0.303   1.048  0.5674  0.0387  1.0858
 2148TIP3   OH228002   4.382   3.304   6.691  0.2123  0.1597 -0.4049
 2148TIP3    H128003   4.361   3.294   6.784 -0.8965 -0.8059 -0.7359
 2148TIP3    H228004   4.471   3.339   6.690  0.8251 -1.2392  1.0192
 2149TIP3   OH228005   0.574   6.767   0.770  0.2519 -0.3724  0.4606
 2149TIP3    H128006   0.649   6.770   0.710 -0.0075 -0.3880  0.1305
 2149TIP3    H228007   0.583   6.684   0.816 -0.2307 -0.9431 -0.4563
 2150TIP3   OH228008   1.481   1.056   7.956  0.3409 -0.2696 -0.1826
 2150TIP3    H128009   1.454   1.141   7.923  1.7320  0.6748  1.0036
 2150TIP3    H228010   1.409   0.997   7.932 -0.8609  1.3081 -0.6230
 2151TIP3   OH228011   4.818   2.168   0.731 -0.1252  0.3636  0.6898
 2151TIP3    H128012   4.755   2.224   0.685 -1.4683 -1.2777  0.4247
 2151TIP3    H228013   4.874   2.133   0.662 -0.3590  0.0741  0.6464
 2152TIP3   OH228014   4.790   1.123   0.602 -0.0092 -0.0592 -0.4128
 2152TIP3    H128015   4.851   1.079   0.543  1.0307 -1.1047  1.3607
 2152TIP3    H228016   4.793   1.215   0.576  1.0493 -0.3695 -1.4450
 2153TIP3   OH228017   0.835   0.385   1.071  0.5039  0.2506 -0.3187
 2153TIP3    H128018   0.870   0.435   1.144 -0.7230  0.4265  0.1864
 2153TIP3    H228019   0.910   0.339   1.034  1.1954  0.3534  0.9076
 2154TIP3   OH228020   2.239   4.762   6.488  0.3571 -0.0017 -0.0322
 2154TIP3    H128021   2.272   4.681   6.448  1.7714  0.6762 -0.2933
 2154TIP3    H228022   2.306   4.787   6.551  0.6962  1.7672 -1.0436
 2155TIP3   OH228023   5.920   0.072   2.229  0.1960  0.7332  1.1100
 2155TIP3    H128024   6.000   0.037   2.190 -0.6013  1.0273 -0.8609
 2155TIP3    H228025   5.937   0.167   2.236 -0.8657  1.2106 -1.7168
 2156TIP3   OH228026   1.742   5.267   8.139  0.3548  0.9221  0.3163
 2156TIP3    H128027   1.648   5.273   8.150 -0.0603 -0.9299 -1.5532
 2156TIP3    H228028   1.754   5.203   8.069  3.0522 -0.2377  1.6707
 2157TIP3   OH228029   0.323   1.185   1.636  0.4467  0.0577 -0.2122
 2157TIP3    H128030   0.327   1.144   1.722 -1.5941  0.1697 -0.0285
 2157TIP3    H228031   0.294   1.274   1.653 -1.9777 -0.4872 -1.1092
 2158TIP3   OH228032   1.312   4.361   6.952 -0.0383  0.3435 -0.9164
 2158TIP3    H128033   1.402   4.352   6.919  0.5843 -1.4414  1.0082
 2158TIP3    H228034   1.262   4.296   6.904 -0.1499  0.8457 -1.4864
 2159TIP3   OH228035   1.879   1.883   8.595 -0.0333  0.1930  0.1924
 2159TIP3    H128036   1.905   1.971   8.622  1.9126 -1.1017  3.0853
 2159TIP3    H228037   1.812   1.858   8.658  0.9228 -1.1040  0.7269
 2160TIP3   OH228038   0.738   2.327   7.965  0.2138  0.1195 -0.1629
 2160TIP3    H128039   0.820   2.363   7.998 -0.7962  1.0502  1.4070
 2160TIP3    H228040   0.764   2.282   7.884  2.1662  0.8731 -0.0243
 2161TIP3   OH228041   3.177   0.637   7.720 -0.0732  0.3289  0.5009
 2161TIP3    H128042   3.115   0.688   7.667  2.2789  3.0030  0.1003
 2161TIP3    H228043   3.170   0.675   7.807 -1.1316 -1.4475  1.2356
 2162TIP3   OH228044   3.884   5.402   0.768 -0.0039  0.5699 -0.2087
 2162TIP3    H128045   3.852   5.313   0.755 -0.8892  1.0591 -1.6539
 2162TIP3    H228046   3.951   5.414   0.700 -1.8818  1.8938 -1.9337
 2163TIP3   OH228047   2.020   1.475   7.655  0.6588  0.3601  0.4214
 2163TIP3    H128048   2.006   1.569   7.662 -0.9931  0.3526 -1.5580
 2163TIP3    H228049   1.941   1.436   7.692  0.2601 -0.1363 -0.8889
 2164TIP3   OH228050   1.601   2.577   1.075  0.9250  0.5596 -0.6000
 2164TIP3    H128051   1.552   2.659   1.080 -0.2824 -0.1962  1.5272
 2164TIP3    H228052   1.555   2.525   1.008  0.1969  0.7372 -0.2509
 2165TIP3   OH228053   0.664   4.547   6.564 -0.5628 -0.1061 -0.1633
 2165TIP3    H128054   0.569   4.557   6.555 -1.2945 -1.0390  4.1316
 2165TIP3    H228055   0.682   4.458   6.535 -0.7852  0.3342 -1.7512
 2166TIP3   OH228056   0.786   3.119   7.135  0.0551  0.1043  0.0420
 2166TIP3    H128057   0.785   3.051   7.203 -0.4602 -1.2812 -1.3016
 2166TIP3    H228058   0.695   3.126   7.106  0.2356  0.8060 -0.3825
 2167TIP3   OH228059   6.319   5.939   7.741 -0.5075  0.4490 -0.0714
 2167TIP3    H128060   6.388   5.999   7.770 -0.4543  0.4757 -0.2557
 2167TIP3    H228061   6.247   5.997   7.716 -0.9489  0.3909  1.0293
 2168TIP3   OH228062   1.441   1.135   0.067 -0.5045 -0.2689  0.1245
 2168TIP3    H128063   1.397   1.174  -0.009 -0.2165 -0.8544 -0.3551
 2168TIP3    H228064   1.432   1.040   0.053 -0.7348 -0.3837  0.9966
 2169TIP3   OH228065   6.394   1.872   6.437 -0.1040  0.9600  0.3311
 2169TIP3    H128066   6.314   1.853   6.486  0.6368  1.0105  1.5934
 2169TIP3    H228067   6.371   1.949   6.384 -1.1232  0.5002  0.0710
 2170TIP3   OH228068   0.794   1.104   1.789  0.1302 -0.5914 -0.0188
 2170TIP3    H128069   0.729   1.036   1.805 -0.5232  0.1477  0.5575
 2170TIP3    H228070   0.864   1.086   1.851  0.0275 -0.8295  0.0271
 2171TIP3   OH228071   3.866   2.740   8.362  0.2635 -0.0938 -0.2440
 2171TIP3    H128072   3.776   2.744   8.329  0.0999 -0.6410  0.1260
 2171TIP3    H228073   3.920   2.748   8.283 -0.1123 -0.2229 -0.5223
 2172TIP3   OH228074   4.263   1.803   0.832 -0.5559  0.1030  0.3038
 2172TIP3    H128075   4.189   1.862   0.843 -0.0037  1.6748 -3.0552
 2172TIP3    H228076   4.340   1.858   0.841  0.0580 -0.5774 -0.6097
 2173TIP3   OH228077   6.534   1.973   0.637 -0.3065  0.0561  0.4846
 2173TIP3    H128078   6.527   1.999   0.545  1.7131 -1.2217 -0.0837
 2173TIP3    H228079   6.524   2.055   0.686  1.2937  1.2290 -1.0264
 2174TIP3   OH228080   5.307   2.771   8.357 -0.5103  0.1612  0.0320
 2174TIP3    H128081   5.221   2.784   8.316 -1.5537 -0.6019  1.8225
 2174TIP3    H228082   5.287   2.762   8.450  1.7578  2.2826  0.8336
 2175TIP3   OH228083   2.260   1.779   0.719 -0.6529 -0.3259 -0.0276
 2175TIP3    H128084   2.307   1.769   0.802  1.8669  1.0441 -1.1524
 2175TIP3    H228085   2.231   1.691   0.696  0.9946 -1.2027  1.0423
 2176TIP3   OH228086   0.940   1.813   0.507  0.1590 -0.1754 -0.4538
 2176TIP3    H128087   0.958   1.762   0.428 -0.0373  0.0209 -0.6240
 2176TIP3    H228088   0.850   1.843   0.497  0.6721  1.2833 -0.9650
 2177TIP3   OH228089   6.031   3.000   8.432 -0.1113 -0.3713 -0.2421
 2177TIP3    H128090   6.067   3.043   8.353  0.3418  1.8065  1.0590
 2177TIP3    H228091   6.090   3.028   8.502 -1.1164 -1.4150  1.0453
 2178TIP3   OH228092   0.403   5.818   7.137 -0.3740  0.2212 -0.4695
 2178TIP3    H128093   0.465   5.889   7.152  1.1024 -0.7322 -1.7904
 2178TIP3    H228094   0.360   5.805   7.222  0.2814  1.7720  0.1390
 2179TIP3   OH228095   1.476   1.572   7.239  0.1404 -0.2104  0.4133
 2179TIP3    H128096   1.535   1.498   7.226 -0.8122 -0.9451  0.2322
 2179TIP3    H228097   1.445   1.562   7.329 -1.3185 -1.0309 -0.1479
 2180TIP3   OH228098   3.779   4.226   7.343  0.0975  0.3898 -0.1653
 2180TIP3    H128099   3.820   4.161   7.400  1.3810 -0.5176 -2.0066
 2180TIP3    H228100   3.694   4.188   7.322 -0.2015  0.5231  0.7552
 2181TIP3   OH228101   6.676   2.943   6.730  0.2616  0.3352  0.1698
 2181TIP3    H128102   6.684   2.985   6.645  0.0314 -0.3963 -0.2249
 2181TIP3    H228103   6.622   3.003   6.781 -0.7595  0.1437 -0.6472
 2182TIP3   OH228104   1.037   4.576   1.467 -0.2825  0.2898 -0.0266
 2182TIP3    H128105   1.060   4.624   1.388  1.2225  3.7534  2.2991
 2182TIP3    H228106   1.118   4.534   1.494 -1.1180 -2.1032 -0.9103
 2183TIP3   OH228107   4.420   3.120   1.671 -0.0644 -0.2258 -0.3221
 2183TIP3    H128108   4.422   3.193   1.732  0.2236  0.0914 -0.7119
 2183TIP3    H228109   4.399   3.044   1.726 -1.0975  0.2549 -0.0307
 2184TIP3   OH228110   0.366   3.785   7.016  0.2121 -0.1656  1.3141
 2184TIP3    H128111   0.412   3.707   7.046  0.2382 -0.7610 -0.2331
 2184TIP3    H228112   0.305   3.755   6.949  0.2204  1.1250  0.6799
 2185TIP3   OH228113   2.829   0.645   7.747  0.1484  0.0377 -0.1287
 2185TIP3    H128114   2.804   0.736   7.730  2.6170  0.4998 -1.7911
 2185TIP3    H228115   2.837   0.640   7.843  1.3727  2.0406 -0.0622
 2186TIP3   OH228116   5.779   6.632   2.059 -0.8064 -0.3225  0.4065
 2186TIP3    H128117   5.763   6.676   2.142  1.2798 -1.4098  1.4719
 2186TIP3    H228118   5.844   6.564   2.080  0.1579 -0.3178 -2.1856
 2187TIP3   OH228119   6.120   6.709   1.069  0.0691  0.2249  0.0283
 2187TIP3    H128120   6.065   6.718   0.992 -0.3242  1.4251  0.4231
 2187TIP3    H228121   6.094   6.625   1.108 -0.2231 -0.0518 -0.7484
 2188TIP3   OH228122   2.149   6.295   0.765 -0.0289 -0.2759  0.1378
 2188TIP3    H128123   2.177   6.261   0.680  1.5871  1.6584 -0.1983
 2188TIP3    H228124   2.173   6.227   0.828 -1.1570 -1.6962 -0.9042
 2189TIP3   OH228125   3.820   3.452   1.003 -0.5652 -0.3393  0.1366
 2189TIP3    H128126   3.798   3.532   0.955 -0.5401  0.0275  0.7262
 2189TIP3    H228127   3.736   3.412   1.022 -0.6982  0.5386  1.5025
 2190TIP3   OH228128   2.728   2.061   1.417  0.1612 -0.0483  0.0675
 2190TIP3    H128129   2.742   2.067   1.323  0.8551 -0.7218  0.1164
 2190TIP3    H228130   2.811   2.030   1.452 -0.9830 -2.9437  0.5323
 2191TIP3   OH228131   1.570   1.987   0.423 -0.2892 -0.4627  0.3040
 2191TIP3    H128132   1.641   1.928   0.449  0.1893 -0.0603 -0.0517
 2191TIP3    H228133   1.598   2.022   0.338  0.0353  1.1930  1.0443
 2192TIP3   OH228134   4.688   4.935   0.842 -0.1571  0.2816  0.1430
 2192TIP3    H128135   4.619   4.917   0.907  0.5365 -0.1703  0.7723
 2192TIP3    H228136   4.738   5.007   0.879 -0.5548  0.9014 -0.5241
 2193TIP3   OH228137   3.630   4.089   6.930 -0.2030 -0.5163 -0.3545
 2193TIP3    H128138   3.538   4.103   6.908 -0.2607 -1.5790 -0.8562
 2193TIP3    H228139   3.651   4.004   6.891  1.1340 -0.0580 -0.6753
 2194TIP3   OH228140   4.148   1.182   8.459 -0.1820 -0.3319 -0.4933
 2194TIP3    H128141   4.218   1.193   8.524 -0.1979  2.1859 -0.7980
 2194TIP3    H228142   4.067   1.203   8.507 -0.3054  0.4852 -1.0343
 2195TIP3   OH228143   0.326   0.853   2.122 -0.1555 -0.5283 -0.0280
 2195TIP3    H128144   0.238   0.843   2.086 -0.0554  2.7600 -1.5167
 2195TIP3    H228145   0.317   0.922   2.188  1.3564  0.1040 -0.4515
 2196TIP3   OH228146   0.590   5.606   2.564 -0.0901 -0.0826  0.1733
 2196TIP3    H128147   0.630   5.551   2.497  0.0891  0.5117 -0.2266
 2196TIP3    H228148   0.588   5.553   2.643  1.1215 -0.2634  0.0923
 2197TIP3   OH228149   6.466   1.122   7.334  0.7942  0.3041 -0.4116
 2197TIP3    H128150   6.403   1.158   7.271 -0.3537  0.9099  1.0312
 2197TIP3    H228151   6.427   1.038   7.361  0.2618  0.9460  0.9172
 2198TIP3   OH228152   3.646   2.773   6.863  0.7593  0.3123  0.3544
 2198TIP3    H128153   3.572   2.729   6.822  0.8991 -0.8124  1.2504
 2198TIP3    H228154   3.690   2.819   6.791 -0.4785  0.5579 -0.2775
 2199TIP3   OH228155   0.015   5.267   0.084  0.3091  0.5722  0.2781
 2199TIP3    H128156   0.022   5.299  -0.006  0.3926  2.7236  0.9754
 2199TIP3    H228157  -0.073   5.231   0.090 -0.0619  1.3038 -0.4299
 2200TIP3   OH228158   4.760   4.181   7.181  0.1575  0.2751 -0.1876
 2200TIP3    H128159   4.673   4.141   7.176  1.0807 -1.7916 -0.7056
 2200TIP3    H228160   4.775   4.215   7.093 -0.2451  0.9251 -0.0092
 2201TIP3   OH228161   5.615   1.723   8.681 -0.1072 -0.3607  0.4794
 2201TIP3    H128162   5.609   1.766   8.766 -1.4638  0.9248 -0.2222
 2201TIP3    H228163   5.593   1.791   8.618 -1.3452 -1.8226 -0.7500
 2202TIP3   OH228164   0.226   0.348   7.280 -0.2398 -0.2020  0.5375
 2202TIP3    H128165   0.310   0.366   7.324  0.9594 -1.0810 -1.2600
 2202TIP3    H228166   0.251   0.327   7.190 -2.2118 -2.4235  0.4147
 2203TIP3   OH228167   0.722   4.395   0.925 -0.8098 -0.0722  0.2580
 2203TIP3    H128168   0.660   4.399   0.999  0.0633 -1.7572  1.1420
 2203TIP3    H228169   0.700   4.313   0.880 -0.8522  0.5817 -0.9524
 2204TIP3   OH228170   5.301   2.844   0.395 -0.2468  0.5177 -0.3969
 2204TIP3    H128171   5.233   2.898   0.353 -1.2548 -2.3043 -2.7209
 2204TIP3    H228172   5.379   2.857   0.341 -0.9998 -1.6106 -2.1105
 2205TIP3   OH228173   5.622   5.411   1.919  1.3258 -0.3282  0.1740
 2205TIP3    H128174   5.565   5.356   1.972  1.9611  0.4417  1.7172
 2205TIP3    H228175   5.587   5.404   1.830 -0.6832 -0.4926  0.9281
 2206TIP3   OH228176   4.262   5.626   7.062 -0.3566  0.0737  0.1025
 2206TIP3    H128177   4.196   5.676   7.014  1.1967  0.2176 -2.0469
 2206TIP3    H228178   4.218   5.544   7.085 -2.3231  1.5586  1.9415
 2207TIP3   OH228179   1.492   0.560   0.693 -0.3214 -0.2681  0.5297
 2207TIP3    H128180   1.505   0.571   0.598 -0.6399 -1.7208  0.2880
 2207TIP3    H228181   1.566   0.606   0.733 -0.6678  1.1357 -0.3763
 2208TIP3   OH228182   4.794   2.824   6.692  0.3005 -0.0862  0.4790
 2208TIP3    H128183   4.783   2.875   6.612  3.2987 -2.0892 -1.4301
 2208TIP3    H228184   4.711   2.776   6.702 -0.4775  0.9356 -0.8542
 2209TIP3   OH228185   1.373   3.441   1.062 -0.0631 -0.8538 -0.3720
 2209TIP3    H128186   1.360   3.527   1.102 -1.2780 -1.7127  1.1822
 2209TIP3    H228187   1.463   3.418   1.083 -0.5675 -1.1423  1.6667
 2210TIP3   OH228188   3.585   0.777   1.393 -0.1736  0.3779  0.2246
 2210TIP3    H128189   3.605   0.868   1.417  2.7780  0.6409 -2.5013
 2210TIP3    H228190   3.628   0.724   1.460  0.2688  1.0241  0.4600
 2211TIP3   OH228191   5.703   5.575   0.355  0.7587  0.7963 -0.1284
 2211TIP3    H128192   5.656   5.546   0.433  1.3721 -0.7514 -0.2993
 2211TIP3    H228193   5.789   5.533   0.361  0.7327  0.4249 -1.7515
 2212TIP3   OH228194   5.053   4.083   7.236  0.1258  0.0171 -0.3460
 2212TIP3    H128195   5.034   4.034   7.316  1.7377 -1.3331 -0.7229
 2212TIP3    H228196   4.994   4.158   7.239  0.0771 -0.0204  2.0725
 2213TIP3   OH228197   2.656   4.203   8.011  0.1648 -0.9903  0.0310
 2213TIP3    H128198   2.739   4.187   8.056  1.5642 -0.0858 -2.0866
 2213TIP3    H228199   2.626   4.117   7.983  0.6827 -1.2530  0.2806
 2214TIP3   OH228200   6.148   4.003   1.447 -0.0886 -0.0627 -0.1751
 2214TIP3    H128201   6.131   4.089   1.484 -0.0916 -0.4642  0.7689
 2214TIP3    H228202   6.101   3.942   1.503  0.6591 -0.7633 -0.2849
 2215TIP3   OH228203   0.682   5.024   1.150  0.3959 -0.3496 -0.4315
 2215TIP3    H128204   0.593   5.005   1.120  0.0432  0.1344  0.2879
 2215TIP3    H228205   0.693   4.972   1.229 -0.5762  2.2514  1.5625
 2216TIP3   OH228206   3.643   6.412   7.747  0.0677  0.5545  0.6640
 2216TIP3    H128207   3.687   6.350   7.804 -0.9123  0.5215  1.4102
 2216TIP3    H228208   3.563   6.367   7.719  0.4762  0.5990 -0.6775
 2217TIP3   OH228209   5.867   0.053   0.326 -0.7600  0.4124  0.2474
 2217TIP3    H128210   5.810   0.108   0.380 -2.4066 -0.5591 -0.4167
 2217TIP3    H228211   5.814  -0.023   0.306  0.7061 -0.4049 -0.6731
 2218TIP3   OH228212   1.650   6.732   7.708  0.7086  0.2356 -0.4482
 2218TIP3    H128213   1.704   6.726   7.629  0.3560  1.2457 -0.7843
 2218TIP3    H228214   1.636   6.826   7.721 -0.3542  0.0294  0.0509
 2219TIP3   OH228215   3.295   3.513   1.209  0.7401 -0.1654  0.0184
 2219TIP3    H128216   3.364   3.571   1.175 -0.7155  0.8207 -1.3801
 2219TIP3    H228217   3.231   3.573   1.248 -0.1841 -0.9333 -0.3024
 2220TIP3   OH228218   5.466   0.543   1.947 -0.2559  0.4160  0.1499
 2220TIP3    H128219   5.479   0.557   1.854 -2.0381 -2.4694 -0.6785
 2220TIP3    H228220   5.392   0.599   1.971 -1.0144 -0.2223 -0.6574
 2221TIP3   OH228221   5.856   0.279   8.047  0.4498  0.0160  0.4889
 2221TIP3    H128222   5.870   0.366   8.086 -1.4015 -0.0423  1.3917
 2221TIP3    H228223   5.910   0.220   8.100  1.5821  0.5691 -0.0208
 2222TIP3   OH228224   1.698   5.420   0.650  0.1579  0.0471  0.0850
 2222TIP3    H128225   1.741   5.494   0.608  1.1397 -1.2225 -1.2827
 2222TIP3    H228226   1.657   5.371   0.578 -1.0615 -0.3749  1.0287
 2223TIP3   OH228227   0.510   2.920   1.807  0.1844  0.1938 -0.2273
 2223TIP3    H128228   0.463   2.851   1.853 -0.5779  1.8948  1.6942
 2223TIP3    H228229   0.442   2.980   1.778  0.8554  0.3348 -1.5771
 2224TIP3   OH228230   4.847   5.317   2.197 -0.5495  0.0749 -0.3381
 2224TIP3    H128231   4.922   5.370   2.222 -0.7514 -0.8854  2.6190
 2224TIP3    H228232   4.776   5.381   2.185 -0.0681  0.7063  0.1032
 2225TIP3   OH228233   4.509   3.897   0.788  0.1328 -0.0993 -0.2660
 2225TIP3    H128234   4.545   3.961   0.849 -1.0887  1.6564 -1.2696
 2225TIP3    H228235   4.543   3.813   0.818  0.3242  0.7838  2.2367
 2226TIP3   OH228236   0.824   5.675   1.277 -0.0169  0.2723 -0.3171
 2226TIP3    H128237   0.887   5.661   1.206  0.6935  1.0847  0.1351
 2226TIP3    H228238   0.860   5.748   1.327 -1.6523  1.2152 -0.4288
 2227TIP3   OH228239   1.055   5.273   7.357 -0.6839  0.0679  0.1209
 2227TIP3    H128240   1.062   5.265   7.452  1.1000  1.3462  0.1373
 2227TIP3    H228241   0.997   5.201   7.331 -1.5840 -0.0201  2.1999
 2228TIP3   OH228242   3.517   1.817   7.594  0.1313 -0.2682 -0.0776
 2228TIP3    H128243   3.450   1.749   7.590 -0.0229 -0.3550  2.5320
 2228TIP3    H228244   3.472   1.893   7.632  1.5104 -0.3871  1.9083
 2229TIP3   OH228245   4.337   2.218   7.675  0.1821  0.0398 -0.3945
 2229TIP3    H128246   4.398   2.153   7.708  0.2176 -0.3201 -1.1450
 2229TIP3    H228247   4.283   2.241   7.750 -0.5979 -1.7238 -0.3601
 2230TIP3   OH228248   6.154   1.086   1.219  0.6236  0.3129 -0.2882
 2230TIP3    H128249   6.176   1.038   1.299  0.0295  1.7296  0.7634
 2230TIP3    H228250   6.063   1.111   1.231  0.6998  1.0344 -1.1651
 2231TIP3   OH228251   1.977   1.338   2.596 -0.2279 -0.4270 -0.2538
 2231TIP3    H128252   1.952   1.273   2.532  0.1334 -1.1296  0.3054
 2231TIP3    H228253   2.056   1.379   2.560 -1.5269  1.0707 -1.5218
 2232TIP3   OH228254   5.487   0.719   0.534 -0.0819  0.2003 -0.9035
 2232TIP3    H128255   5.417   0.782   0.516  1.5591  1.7216 -2.3890
 2232TIP3    H228256   5.511   0.735   0.625 -0.3076  1.1155 -0.9921
 2233TIP3   OH228257   0.609   5.100   0.178  0.4775  0.2364  0.2738
 2233TIP3    H128258   0.657   5.178   0.207 -0.8098  1.4054 -0.6509
 2233TIP3    H228259   0.580   5.058   0.259  1.5920  0.4302  0.7921
 2234TIP3   OH228260   5.918   3.415   6.804  0.3151 -0.6486  0.1436
 2234TIP3    H128261   5.863   3.458   6.739 -0.3111 -0.2062  0.9524
 2234TIP3    H228262   6.006   3.448   6.787 -0.1155  0.7540  0.5884
 2235TIP3   OH228263   5.152   1.237   1.468 -0.2770  0.1760 -0.1664
 2235TIP3    H128264   5.099   1.157   1.470  0.5515 -0.3685  1.0245
 2235TIP3    H228265   5.229   1.213   1.417 -0.8185  0.7607 -1.2993
 2236TIP3   OH228266   6.778   0.560   1.306  0.5148 -0.1748  0.0790
 2236TIP3    H128267   6.749   0.643   1.343  1.0733  0.5341 -1.0369
 2236TIP3    H228268   6.772   0.498   1.379 -0.0184  0.8090  0.8929
 2237TIP3   OH228269   4.668   6.411   0.092  0.2989  0.6245  0.2575
 2237TIP3    H128270   4.647   6.395   0.184  0.2408  1.2108  0.3491
 2237TIP3    H228271   4.598   6.367   0.043  0.4745  0.0922  0.4851
 2238TIP3   OH228272   4.124   6.076   7.802 -0.3638  0.4152 -0.3610
 2238TIP3    H128273   4.119   6.084   7.706 -0.9573  0.3719 -0.3364
 2238TIP3    H228274   4.067   6.145   7.835 -2.0202 -1.0154 -0.0783
 2239TIP3   OH228275   1.518   3.255   1.249 -0.4928  0.5593  0.3294
 2239TIP3    H128276   1.457   3.186   1.276 -0.5822  0.4716 -0.0901
 2239TIP3    H228277   1.580   3.261   1.321  1.3910 -2.1178 -0.8790
 2240TIP3   OH228278   5.602   0.462   8.597  0.6089  0.1981 -0.3983
 2240TIP3    H128279   5.545   0.535   8.574 -1.4918 -0.8680  1.0930
 2240TIP3    H228280   5.577   0.392   8.537  1.7596  0.3032 -1.0214
 2241TIP3   OH228281   3.784   0.809   1.025  0.3632  0.1388  0.3476
 2241TIP3    H128282   3.724   0.844   0.960  1.2542 -0.9036 -1.0911
 2241TIP3    H228283   3.738   0.733   1.062  0.0988  0.3733  0.5018
 2242TIP3   OH228284   5.932   3.887   0.328 -0.3524  0.2239 -0.1604
 2242TIP3    H128285   6.016   3.931   0.335 -1.1616  1.8342 -0.2105
 2242TIP3    H228286   5.875   3.932   0.391 -0.8908 -1.5915  0.7289
 2243TIP3   OH228287   1.329   0.056   0.311 -0.6050  0.1193  0.0949
 2243TIP3    H128288   1.290   0.071   0.398 -2.4917  0.5315 -0.7696
 2243TIP3    H228289   1.272   0.104   0.251  0.6582 -0.1812 -1.3824
 2244TIP3   OH228290   0.217   2.576   0.861  0.1334  0.2506  0.7338
 2244TIP3    H128291   0.205   2.574   0.956 -0.0886  0.1478  0.7031
 2244TIP3    H228292   0.246   2.488   0.838 -1.7811 -0.3449  0.4463
 2245TIP3   OH228293   1.936   3.629   0.432  0.3859  0.2514 -0.6055
 2245TIP3    H128294   2.023   3.667   0.417  0.5269  0.2452  0.1528
 2245TIP3    H228295   1.938   3.546   0.386  0.5282  0.5764 -1.1953
 2246TIP3   OH228296   5.499   1.116   8.708  0.2959 -0.5771 -0.0369
 2246TIP3    H128297   5.441   1.043   8.727  0.1723 -0.2628  0.8298
 2246TIP3    H228298   5.467   1.152   8.625 -2.0030  0.7898  1.3440
 2247TIP3   OH228299   0.460   4.295   7.260  0.0658  0.0437 -0.2936
 2247TIP3    H128300   0.438   4.300   7.353 -1.8680  2.6281 -0.7681
 2247TIP3    H228301   0.544   4.341   7.252 -0.9367  2.0077 -0.0648
 2248TIP3   OH228302   4.529   5.322   8.184 -0.5763  0.2302 -0.0051
 2248TIP3    H128303   4.529   5.410   8.145 -1.0323  0.5945  0.7974
 2248TIP3    H228304   4.438   5.308   8.211 -0.5837 -0.6450 -0.4598
 2249TIP3   OH228305   0.566   3.196   0.579 -0.2065 -0.4286  0.2019
 2249TIP3    H128306   0.485   3.239   0.606 -0.7760 -0.7792 -0.8944
 2249TIP3    H228307   0.614   3.183   0.660 -0.4493  1.3692  0.6774
 2250TIP3   OH228308   6.460   2.339   0.099 -0.5033  0.4115  0.6410
 2250TIP3    H128309   6.495   2.347   0.188 -0.0678  1.0258  0.4216
 2250TIP3    H228310   6.480   2.423   0.058 -2.3293  0.8244  0.5320
 2251TIP3   OH228311   0.741   6.380   7.757 -0.5561 -0.2668 -0.4531
 2251TIP3    H128312   0.720   6.299   7.710  0.3524 -0.2854 -0.8556
 2251TIP3    H228313   0.832   6.368   7.784 -0.8841  0.0003  0.8102
 2252TIP3   OH228314   5.986   3.206   0.797 -0.2641  0.0417 -0.5560
 2252TIP3    H128315   5.985   3.111   0.805 -0.5002  0.0387 -0.6183
 2252TIP3    H228316   5.969   3.238   0.885  1.7654  0.0461 -0.1190
 2253TIP3   OH228317   0.207   3.532   7.806 -0.1156 -0.2357 -0.0130
 2253TIP3    H128318   0.271   3.472   7.768  0.4923  1.0247 -1.0730
 2253TIP3    H228319   0.258   3.594   7.857 -0.8391 -1.2580  2.0492
 2254TIP3   OH228320   2.053   6.234   7.430  0.5870  0.4207  0.7671
 2254TIP3    H128321   2.101   6.290   7.369  1.1570  0.3150  1.1048
 2254TIP3    H228322   1.989   6.187   7.376  1.3855 -0.0086  0.1773
 2255TIP3   OH228323   0.826   2.332   7.268  0.3721 -0.0297  0.1791
 2255TIP3    H128324   0.753   2.270   7.272  2.0269 -2.0403  1.0338
 2255TIP3    H228325   0.789   2.414   7.298 -1.9724 -0.4959 -1.1983
 2256TIP3   OH228326   3.679   1.225   1.709  0.2276  0.2407  0.5821
 2256TIP3    H128327   3.638   1.159   1.652  1.2396  0.0865  0.0103
 2256TIP3    H228328   3.671   1.188   1.797  2.1034 -1.4195  0.1369
 2257TIP3   OH228329   4.191   2.822   1.111 -0.3454  0.2528 -0.3730
 2257TIP3    H128330   4.180   2.862   1.197  0.3083 -1.4375  0.5519
 2257TIP3    H228331   4.150   2.736   1.120  0.6256 -0.3448 -1.4177
 2258TIP3   OH228332   5.205   0.723   7.228  0.2961 -0.0177  0.3936
 2258TIP3    H128333   5.247   0.789   7.283  3.2382  0.4619 -2.1522
 2258TIP3    H228334   5.125   0.767   7.196 -0.2169  0.5351  2.3184
 2259TIP3   OH228335   6.123   4.604   0.024  0.3093 -0.0062  0.0986
 2259TIP3    H128336   6.111   4.698   0.033  0.8089  0.0709 -0.0280
 2259TIP3    H228337   6.218   4.592   0.015  0.3705 -0.6381  1.4328
 2260TIP3   OH228338   3.180   1.447   0.953  0.3784  0.4410 -0.0982
 2260TIP3    H128339   3.105   1.417   1.003 -0.7573  2.6966 -0.3411
 2260TIP3    H228340   3.168   1.409   0.866  0.9679 -1.3488  0.5700
 2261TIP3   OH228341   4.192   0.794   8.403  0.4006  0.2524 -0.2222
 2261TIP3    H128342   4.271   0.842   8.377  0.4890 -1.1355 -2.8769
 2261TIP3    H228343   4.205   0.776   8.496  2.8465  0.7628 -0.3840
 2262TIP3   OH228344   0.382   2.910   8.327  0.9469 -0.1398 -0.3427
 2262TIP3    H128345   0.409   2.985   8.274 -1.4060  0.2738 -1.1028
 2262TIP3    H228346   0.317   2.865   8.273 -3.2072  1.4458  2.7792
 2263TIP3   OH228347   3.375   2.632   1.702 -0.4705  0.3776  0.0192
 2263TIP3    H128348   3.328   2.707   1.664  1.9073  1.2741 -1.3921
 2263TIP3    H228349   3.390   2.657   1.793  1.0143  2.1141 -0.6172
 2264TIP3   OH228350   2.128   0.832   8.678 -0.0958  0.0124  0.2232
 2264TIP3    H128351   2.181   0.912   8.668  0.6394 -0.2952  1.4774
 2264TIP3    H228352   2.167   0.770   8.617  0.0040  0.2768  0.0147
 2265TIP3   OH228353   6.675   6.154   1.429 -0.4622 -0.1131 -0.1557
 2265TIP3    H128354   6.618   6.231   1.428  0.8866  0.9190 -1.0364
 2265TIP3    H228355   6.711   6.150   1.341 -1.2717 -2.3909 -0.4610
 2266TIP3   OH228356   3.198   3.988   1.272 -0.4652 -0.3882 -0.3793
 2266TIP3    H128357   3.173   4.072   1.235 -0.5695 -0.0738  0.3899
 2266TIP3    H228358   3.293   3.995   1.285 -0.5748 -0.1214  0.3290
 2267TIP3   OH228359   3.921   4.138   1.591 -0.2046 -0.2189 -0.2878
 2267TIP3    H128360   3.997   4.137   1.534 -0.4115  1.9645 -0.6742
 2267TIP3    H228361   3.955   4.164   1.677 -0.4722  0.6277 -0.4297
 2268TIP3   OH228362   4.634   3.639   0.232 -0.1412 -0.2976 -0.5187
 2268TIP3    H128363   4.730   3.641   0.237 -0.0988 -1.4889 -0.6604
 2268TIP3    H228364   4.615   3.636   0.139 -0.1777 -3.4381 -0.5142
 2269TIP3   OH228365   1.311   0.359   0.327  0.4737  0.0764 -0.3128
 2269TIP3    H128366   1.360   0.323   0.400  0.9483  0.5655 -0.3767
 2269TIP3    H228367   1.220   0.362   0.357  0.3270 -1.6456 -0.5051
 2270TIP3   OH228368   6.654   6.273   0.083 -0.4044 -0.0198  0.0992
 2270TIP3    H128369   6.745   6.292   0.106 -0.4494  1.1878 -0.6039
 2270TIP3    H228370   6.659   6.206   0.016  0.0239  0.5943 -0.4948
 2271TIP3   OH228371   1.634   0.511   8.567  0.1469  0.1721  0.4379
 2271TIP3    H128372   1.615   0.552   8.651  1.8375 -1.7027  1.8412
 2271TIP3    H228373   1.558   0.531   8.512 -1.2955  0.9440  2.5938
 2272TIP3   OH228374   0.593   5.381   0.649 -0.1908  0.5811  0.1782
 2272TIP3    H128375   0.636   5.324   0.712  0.3639  1.3616  0.5261
 2272TIP3    H228376   0.640   5.464   0.656 -0.1453  0.7113 -1.2232
 2273TIP3   OH228377   1.761   6.117   7.823 -0.0701  0.3360  0.0618
 2273TIP3    H128378   1.841   6.153   7.784 -0.7565 -0.7580 -2.5530
 2273TIP3    H228379   1.786   6.030   7.853 -0.0149  0.4230  0.2695
 2274TIP3   OH228380   3.420   2.231   2.490 -0.9772 -0.0226  0.0812
 2274TIP3    H128381   3.334   2.197   2.463 -0.4851 -1.2019 -0.0604
 2274TIP3    H228382   3.429   2.314   2.442 -1.5737 -0.4280 -0.7661
 2275TIP3   OH228383   5.173   1.697   1.931 -0.0382 -0.5778 -0.2890
 2275TIP3    H128384   5.203   1.769   1.988  0.4484 -1.3413  0.4436
 2275TIP3    H228385   5.195   1.618   1.980 -1.4155 -1.2188 -0.6646
 2276TIP3   OH228386   3.773   5.427   7.045 -0.2022 -0.7220  0.1348
 2276TIP3    H128387   3.768   5.385   7.131 -0.9046  0.2153  0.5799
 2276TIP3    H228388   3.682   5.435   7.017 -0.2890  2.0259  0.8742
 2277TIP3   OH228389   1.110   4.989   0.049  0.0873  0.0690 -0.0188
 2277TIP3    H128390   1.029   4.964   0.091 -0.1135  2.9307  1.5801
 2277TIP3    H228391   1.177   4.981   0.117  0.9067 -0.7900 -0.8798
 2278TIP3   OH228392   2.964   4.261   8.637 -0.1549  0.6904  0.5964
 2278TIP3    H128393   2.913   4.338   8.663  2.0413  2.3623  0.1983
 2278TIP3    H228394   3.054   4.281   8.662  0.3584 -2.3532  1.6989
 2279TIP3   OH228395   5.071   6.573   0.766 -0.3161  0.1899  0.0683
 2279TIP3    H128396   5.045   6.531   0.683 -0.1327 -1.3401  0.7392
 2279TIP3    H228397   5.004   6.639   0.781 -1.1930 -0.5182 -0.5792
 2280TIP3   OH228398   4.451   2.829   0.279  0.1753  0.2624  0.1304
 2280TIP3    H128399   4.407   2.914   0.270 -0.5437 -0.0793  0.3255
 2280TIP3    H228400   4.514   2.842   0.349 -0.6285  0.3658  0.8522
 2281TIP3   OH228401   5.749   5.020   1.055 -0.1449  0.0445  0.2522
 2281TIP3    H128402   5.715   4.936   1.024 -0.1363  0.9798 -2.5187
 2281TIP3    H228403   5.792   4.998   1.138 -1.2305 -2.4286  0.2749
 2282TIP3   OH228404   1.831   3.420   1.268  0.4670  0.1346 -0.0785
 2282TIP3    H128405   1.807   3.329   1.254 -0.2143 -0.0305  1.9960
 2282TIP3    H228406   1.748   3.466   1.283  0.9491  0.6755  1.0714
 2283TIP3   OH228407   5.810   1.639   0.533  0.9244  0.0460 -1.0510
 2283TIP3    H128408   5.732   1.629   0.479  0.7253 -3.5506 -0.3348
 2283TIP3    H228409   5.877   1.671   0.473 -0.4788  0.8901 -2.2211
 2284TIP3   OH228410   1.768   1.060   0.891 -0.3448 -0.3333  0.3002
 2284TIP3    H128411   1.689   1.007   0.895 -1.1214  0.5360 -1.7345
 2284TIP3    H228412   1.737   1.150   0.900  0.7395 -0.0812  1.9357
 2285TIP3   OH228413   3.140   3.450   8.124  0.0956  0.0940 -0.3955
 2285TIP3    H128414   3.147   3.538   8.162 -0.1418  0.7941 -1.9002
 2285TIP3    H228415   3.047   3.428   8.130  0.4347 -1.0502  2.0040
 2286TIP3   OH228416   1.695   1.708   6.382  0.0763 -0.4643 -0.4060
 2286TIP3    H128417   1.752   1.694   6.307 -0.9965  0.3233 -1.3934
 2286TIP3    H228418   1.727   1.788   6.423  0.4736 -0.7282 -0.1988
 2287TIP3   OH228419   6.454   0.283   0.723 -0.1160  0.1123  0.3577
 2287TIP3    H128420   6.385   0.225   0.754  0.2091 -1.5196 -1.7457
 2287TIP3    H228421   6.530   0.261   0.778 -0.2966 -0.7255  0.2899
 2288TIP3   OH228422   2.175   2.890   7.170 -0.1842 -0.0695 -0.3395
 2288TIP3    H128423   2.165   2.823   7.102 -0.1494  0.6418 -1.0544
 2288TIP3    H228424   2.180   2.972   7.122 -0.8830  0.5171  0.5604
 2289TIP3   OH228425   6.729   2.119   2.452  0.1275  0.1364 -0.2016
 2289TIP3    H128426   6.818   2.086   2.437  0.0435 -0.5947  0.7471
 2289TIP3    H228427   6.738   2.214   2.449  0.2018  0.1550 -4.0470
 2290TIP3   OH228428   3.273   6.784   7.484 -0.1235 -0.0896 -0.5048
 2290TIP3    H128429   3.349   6.730   7.506 -0.6951 -1.4527 -1.6825
 2290TIP3    H228430   3.199   6.741   7.527 -0.4460  0.3549 -0.6071
 2291TIP3   OH228431   0.101   5.146   6.752 -0.2162  0.0310  0.0683
 2291TIP3    H128432   0.038   5.083   6.787  0.5417 -1.1014 -0.5554
 2291TIP3    H228433   0.166   5.093   6.706  1.4246  1.1101  0.9943
 2292TIP3   OH228434   4.249   2.334   1.167 -0.0249 -0.1925 -0.5034
 2292TIP3    H128435   4.323   2.348   1.109 -0.8840 -0.3600 -1.6718
 2292TIP3    H228436   4.288   2.302   1.249  1.0872 -2.0229 -1.6670
 2293TIP3   OH228437   6.265   2.666   7.654  0.1597  0.2224  0.1324
 2293TIP3    H128438   6.175   2.670   7.620 -1.0001  2.3865  3.0462
 2293TIP3    H228439   6.255   2.631   7.742  2.0302  1.4891  0.8959
 2294TIP3   OH228440   1.963   0.556   2.028 -0.7539 -0.6104  0.3841
 2294TIP3    H128441   2.030   0.489   2.040 -1.5819 -1.9349 -1.8033
 2294TIP3    H228442   1.880   0.509   2.037 -1.3593 -0.1396 -1.9503
 2295TIP3   OH228443   6.542   1.205   0.954  0.3906  0.1367  0.0502
 2295TIP3    H128444   6.584   1.138   0.900 -1.9711 -0.6382 -0.9804
 2295TIP3    H228445   6.544   1.284   0.901  0.1850 -0.0123 -0.1835
 2296TIP3   OH228446   2.562   5.856   8.129 -0.2382 -0.5463 -0.5352
 2296TIP3    H128447   2.524   5.794   8.068 -1.1028 -1.8171  1.2262
 2296TIP3    H228448   2.630   5.807   8.176  0.2008  0.3057 -0.2324
 2297TIP3   OH228449   6.278   5.298   2.194 -0.3296 -0.1320 -0.3474
 2297TIP3    H128450   6.226   5.378   2.195  1.3269  1.0046 -1.2196
 2297TIP3    H228451   6.340   5.308   2.266  0.2042 -0.3978 -0.7598
 2298TIP3   OH228452   0.292   3.348   6.706  0.3745  0.0386  0.3317
 2298TIP3    H128453   0.211   3.349   6.656  0.4818  0.0244  0.1572
 2298TIP3    H228454   0.353   3.299   6.652  0.6059  0.3626  0.2976
 2299TIP3   OH228455   1.726   6.350   2.021 -0.1098 -0.5771  0.5200
 2299TIP3    H128456   1.704   6.322   2.110  0.3086 -0.7525  0.5733
 2299TIP3    H228457   1.820   6.369   2.025  0.2786 -2.1552 -0.2852
 2300TIP3   OH228458   6.771   5.479   6.871 -0.2146 -0.2449 -0.3421
 2300TIP3    H128459   6.726   5.465   6.788  0.6704 -0.4789 -0.8037
 2300TIP3    H228460   6.811   5.566   6.861  0.0567 -0.3568 -0.2463
 2301TIP3   OH228461   0.008   3.744   8.703 -0.5170 -0.0838  0.2157
 2301TIP3    H128462  -0.031   3.814   8.651 -0.3097  0.3019  0.5699
 2301TIP3    H228463   0.014   3.670   8.643 -1.0204  0.1037 -0.0783
 2302TIP3   OH228464   0.055   0.051   0.443 -0.2732 -0.2981  0.1747
 2302TIP3    H128465   0.040   0.028   0.535  0.8450  1.6262  0.9059
 2302TIP3    H228466  -0.030   0.040   0.402 -0.7733 -1.3388  1.4022
 2303TIP3   OH228467   6.458   4.000   0.781  0.1154  0.2209 -0.0307
 2303TIP3    H128468   6.417   4.020   0.865 -0.9240 -1.2527 -0.1562
 2303TIP3    H228469   6.385   3.986   0.721  0.8329  1.2531 -1.2220
 2304TIP3   OH228470   4.102   4.935   0.495  0.3420 -0.2066  0.3319
 2304TIP3    H128471   4.075   4.872   0.562 -0.3113 -2.0070 -1.5086
 2304TIP3    H228472   4.197   4.928   0.493  0.4307  0.3562  1.4705
 2305TIP3   OH228473   5.080   5.889   7.593 -0.1595 -0.1635  0.1348
 2305TIP3    H128474   5.096   5.806   7.548  4.1367  1.5941 -2.1121
 2305TIP3    H228475   5.129   5.882   7.674  0.4485  0.2546 -0.1925
 2306TIP3   OH228476   2.771   1.479   1.581  0.0208  0.3137  0.0385
 2306TIP3    H128477   2.752   1.570   1.558 -0.9785 -0.4561 -2.4257
 2306TIP3    H228478   2.866   1.472   1.575  0.1975  1.3660  1.1141
 2307TIP3   OH228479   2.939   5.411   2.317  0.1391 -0.4718 -0.1612
 2307TIP3    H128480   2.964   5.492   2.272 -0.3101 -0.5841 -0.6208
 2307TIP3    H228481   2.953   5.431   2.410  0.9037 -0.1802 -0.3276
 2308TIP3   OH228482   2.581   2.182   7.414 -0.1742 -0.6245 -0.4465
 2308TIP3    H128483   2.595   2.230   7.333 -1.5075  1.8761  0.6957
 2308TIP3    H228484   2.489   2.158   7.412 -0.8716  1.5761  1.2883
 2309TIP3   OH228485   4.753   5.622   8.185  0.0646  0.6372  0.7450
 2309TIP3    H128486   4.822   5.571   8.228  0.0906  0.1800  0.1665
 2309TIP3    H228487   4.756   5.707   8.230  1.3154  0.7890  0.4277
 2310TIP3   OH228488   1.738   5.829   6.822 -0.2016 -0.7737 -0.5778
 2310TIP3    H128489   1.747   5.922   6.845 -2.7247 -0.3722 -0.8591
 2310TIP3    H228490   1.764   5.824   6.730 -1.0009 -0.1073 -0.8578
 2311TIP3   OH228491   2.929   5.901   0.455 -0.0785 -0.3102 -0.4249
 2311TIP3    H128492   2.897   5.964   0.520  0.5009 -1.2561  0.8192
 2311TIP3    H228493   3.000   5.947   0.410 -0.7851  0.5154 -0.7290
 2312TIP3   OH228494   5.294   6.239   7.223 -0.0246  0.5601 -0.1706
 2312TIP3    H128495   5.371   6.206   7.175 -0.9364 -1.4763 -0.3424
 2312TIP3    H228496   5.312   6.217   7.315  0.4778  1.9461  0.0854
 2313TIP3   OH228497   2.451   2.265   6.953  0.2558  0.4567  0.3974
 2313TIP3    H128498   2.516   2.335   6.947  1.2214 -0.4911 -0.9726
 2313TIP3    H228499   2.380   2.294   6.896  1.8206 -0.7605 -2.4062
 2314TIP3   OH228500   4.052   3.036   7.467  0.3585 -0.1071  0.1399
 2314TIP3    H128501   4.069   3.005   7.377  3.3246  2.9479 -0.5538
 2314TIP3    H228502   4.121   2.995   7.519  0.0043 -0.1282  0.5966
 2315TIP3   OH228503   5.527   6.614   7.570 -0.3423  0.2518 -0.2242
 2315TIP3    H128504   5.615   6.594   7.602 -1.1084 -0.3228  1.6809
 2315TIP3    H228505   5.537   6.621   7.475  1.5206 -0.9956 -0.1792
 2316TIP3   OH228506   6.424   2.503   0.688 -0.1376 -0.4666  0.2753
 2316TIP3    H128507   6.492   2.570   0.693  0.6791 -1.0216 -2.0007
 2316TIP3    H228508   6.348   2.549   0.651 -0.8548  0.0095  2.2368
 2317TIP3   OH228509   2.848   5.517   6.862  0.0839  0.3935  0.1962
 2317TIP3    H128510   2.767   5.515   6.811  0.1247  2.3662 -0.0199
 2317TIP3    H228511   2.842   5.441   6.919 -1.9239  0.4830  0.1818
 2318TIP3   OH228512   1.394   1.603   6.837 -0.4417  0.4848 -0.6585
 2318TIP3    H128513   1.353   1.668   6.780 -1.2119  0.4193 -0.1959
 2318TIP3    H228514   1.330   1.588   6.907  0.6186  0.7934  0.4075
 2319TIP3   OH228515   6.831   3.714   1.110 -0.3721 -0.1568 -0.2447
 2319TIP3    H128516   6.747   3.760   1.112 -0.0765  0.3957  1.7749
 2319TIP3    H228517   6.848   3.691   1.201  0.2481 -2.9694 -0.9763
 2320TIP3   OH228518   3.928   1.859   8.494 -0.5775 -0.0456  0.5257
 2320TIP3    H128519   3.996   1.842   8.428 -1.2035 -0.0325 -0.1328
 2320TIP3    H228520   3.965   1.824   8.575  0.0768 -0.3444  0.1116
 2321TIP3   OH228521   6.514   6.801   8.430 -1.1924  0.6109 -0.3089
 2321TIP3    H128522   6.542   6.715   8.399 -0.4488  1.3133 -1.6584
 2321TIP3    H228523   6.527   6.797   8.525  1.1609  0.0447 -0.5920
 2322TIP3   OH228524   5.063   3.794   7.727 -0.6060  0.4302  0.3941
 2322TIP3    H128525   5.082   3.723   7.789  0.4979  0.0834 -0.3114
 2322TIP3    H228526   5.146   3.842   7.720 -0.4835  0.0113 -1.3552
 2323TIP3   OH228527   3.453   5.949   0.308  0.2662 -0.0262 -0.3912
 2323TIP3    H128528   3.481   5.867   0.266 -0.1788 -0.0802 -0.5939
 2323TIP3    H228529   3.360   5.956   0.285  0.4537  0.8591 -0.8955
 2324TIP3   OH228530   3.097   4.718   0.038 -0.0008  0.5475  0.3638
 2324TIP3    H128531   3.117   4.788   0.099  0.6341  2.5903 -2.0223
 2324TIP3    H228532   3.182   4.683   0.012 -0.0619  1.6449 -1.4290
 2325TIP3   OH228533   1.710   6.716   0.958 -0.1449  0.3953  0.4205
 2325TIP3    H128534   1.772   6.700   0.887  1.9208  0.1154  2.1692
 2325TIP3    H228535   1.740   6.799   0.998 -0.9267  0.2871  1.2655
 2326TIP3   OH228536   5.423   5.668   6.078 -0.1809 -0.6160 -0.0535
 2326TIP3    H128537   5.491   5.626   6.131 -0.2595  0.2547  0.7768
 2326TIP3    H228538   5.342   5.626   6.106 -0.1092 -0.9071 -0.2728
 2327TIP3   OH228539   0.405   1.886   7.803  0.0691  0.0909  0.1390
 2327TIP3    H128540   0.359   1.962   7.768 -2.7634 -1.6956 -0.3695
 2327TIP3    H228541   0.393   1.818   7.736  3.2915 -0.6665  0.1318
 2328TIP3   OH228542   4.691   4.729   6.868  0.0538  0.1834 -0.5616
 2328TIP3    H128543   4.699   4.745   6.963  2.6323 -0.0661 -0.6671
 2328TIP3    H228544   4.661   4.813   6.833 -0.7049  0.3513  0.4118
 2329TIP3   OH228545   5.709   5.157   7.566 -0.4683 -0.3254  0.4854
 2329TIP3    H128546   5.675   5.211   7.638  0.2927  0.2579  0.4076
 2329TIP3    H228547   5.714   5.069   7.603  1.8729  0.3094  1.8499
 2330TIP3   OH228548   3.568   0.148   1.549  0.4294  0.0339 -0.5835
 2330TIP3    H128549   3.566   0.198   1.631  0.0488 -1.0273  0.0680
 2330TIP3    H228550   3.538   0.211   1.483  0.5489  0.8462  0.1069
 2331TIP3   OH228551   5.784   3.287   7.320  0.0909  0.0933 -0.4094
 2331TIP3    H128552   5.831   3.207   7.340  1.6382  0.4620 -2.2164
 2331TIP3    H228553   5.730   3.265   7.244  1.0640  0.8593 -1.3808
 2332TIP3   OH228554   4.279   3.556   0.203  0.2598  0.1286  0.1025
 2332TIP3    H128555   4.255   3.617   0.272  1.9905  0.8577  0.1075
 2332TIP3    H228556   4.349   3.503   0.241  1.1621  0.4729 -1.0065
 2333TIP3   OH228557   6.083   2.945   0.968  0.3509  0.4361  0.8046
 2333TIP3    H128558   6.062   3.015   1.030 -0.3248  1.3018 -0.3471
 2333TIP3    H228559   6.087   2.865   1.021 -0.4848  1.1109  1.9123
 2334TIP3   OH228560   6.773   2.216   7.586  0.3725  0.0321 -1.1638
 2334TIP3    H128561   6.740   2.132   7.619  0.6695  0.4427  0.2586
 2334TIP3    H228562   6.847   2.237   7.643 -1.5873  2.7507  0.6196
 2335TIP3   OH228563   0.589   3.066   7.658 -0.3541 -0.1454  0.4266
 2335TIP3    H128564   0.597   3.041   7.750  2.2848 -0.4314  0.2163
 2335TIP3    H228565   0.677   3.097   7.635 -0.6616 -1.0219 -2.2546
 2336TIP3   OH228566   2.177   2.074   1.849 -0.0406 -0.0847  0.2072
 2336TIP3    H128567   2.217   2.158   1.827  0.7549 -0.6848 -0.7097
 2336TIP3    H228568   2.118   2.055   1.776 -2.1219  0.8012  1.5433
 2337TIP3   OH228569   1.958   5.430   6.952 -0.1373 -0.1640 -0.5723
 2337TIP3    H128570   1.872   5.414   6.914  0.3931 -1.8347 -1.1639
 2337TIP3    H228571   2.017   5.438   6.877  0.2275  1.1320 -0.1783
 2338TIP3   OH228572   4.849   0.402   2.296 -0.2214 -0.1558 -0.0172
 2338TIP3    H128573   4.804   0.420   2.213  0.2295 -0.4825 -0.3304
 2338TIP3    H228574   4.901   0.481   2.313 -1.3203  0.4680  0.6339
 2339TIP3   OH228575   3.924   3.058   0.994 -0.0384 -0.6222 -0.2838
 2339TIP3    H128576   3.908   3.144   0.956 -0.5011 -0.3970  0.3930
 2339TIP3    H228577   4.001   3.025   0.948  0.7023  0.5331  0.0878
 2340TIP3   OH228578   1.341   1.548   1.229  0.2229  0.4987 -0.5304
 2340TIP3    H128579   1.404   1.509   1.289 -0.6614  0.5929  0.5091
 2340TIP3    H228580   1.343   1.493   1.152  1.7876  0.6856 -0.6512
 2341TIP3   OH228581   6.402   6.538   7.170  0.5264  0.2773  0.6988
 2341TIP3    H128582   6.444   6.522   7.254  0.5511 -0.3100  0.5785
 2341TIP3    H228583   6.312   6.561   7.191  0.6952  0.7380  0.9160
 2342TIP3   OH228584   2.469   1.871   8.176 -0.0498  0.2658  0.3441
 2342TIP3    H128585   2.440   1.928   8.105 -2.0808 -0.8231  0.2426
 2342TIP3    H228586   2.562   1.892   8.187 -0.5732  3.1293 -0.0859
 2343TIP3   OH228587   2.476   3.917   0.983 -0.3155  0.0576 -0.1779
 2343TIP3    H128588   2.496   3.824   0.998 -0.2596  0.4221  2.4776
 2343TIP3    H228589   2.557   3.952   0.946  0.4076 -0.5765  0.7361
 2344TIP3   OH228590   3.845   5.069   1.088  0.0390  0.3967 -0.0238
 2344TIP3    H128591   3.854   5.151   1.038  1.0044 -0.1229 -0.7353
 2344TIP3    H228592   3.915   5.074   1.154  0.0604  0.1635 -0.0298
 2345TIP3   OH228593   1.601   5.683   8.318  0.2028 -0.5682 -0.5683
 2345TIP3    H128594   1.568   5.713   8.403  1.8312 -0.6234  0.1207
 2345TIP3    H228595   1.547   5.728   8.254 -2.1146 -1.7126  0.4759
 2346TIP3   OH228596   1.661   0.240   8.394  0.3505  0.0330 -0.3143
 2346TIP3    H128597   1.742   0.199   8.362 -0.4662 -1.8933 -0.0261
 2346TIP3    H228598   1.677   0.254   8.487  0.8745  1.0067 -0.5413
 2347TIP3   OH228599   2.446   3.587   6.333  0.5816  0.1464 -0.1219
 2347TIP3    H128600   2.436   3.605   6.426 -0.6912 -1.6688  0.1387
 2347TIP3    H228601   2.425   3.670   6.290  0.1460  0.7142  1.1545
 2348TIP3   OH228602   1.930   1.873   6.345 -0.2209 -0.0562 -0.2116
 2348TIP3    H128603   1.913   1.884   6.438  0.3328  1.7054 -0.2652
 2348TIP3    H228604   2.020   1.841   6.340 -0.6292 -1.2555 -0.1340
 2349TIP3   OH228605   3.429   0.329   6.107 -0.2530 -0.0801 -0.5573
 2349TIP3    H128606   3.385   0.245   6.118  0.7352 -0.4038  1.1956
 2349TIP3    H228607   3.371   0.378   6.049 -0.7653 -2.0062 -1.7912
 2350TIP3   OH228608   5.571   0.208   1.460 -0.5639 -0.0594 -0.2539
 2350TIP3    H128609   5.642   0.271   1.467  0.3093 -1.1797  1.8080
 2350TIP3    H228610   5.492   0.258   1.482  0.0386  0.4664  0.8086
 2351TIP3   OH228611   5.962   2.294   6.637  0.6221 -0.0800  0.4163
 2351TIP3    H128612   5.959   2.295   6.541 -0.0806 -1.4700  0.3965
 2351TIP3    H228613   5.966   2.201   6.660 -0.3244  0.1784  1.7549
 2352TIP3   OH228614   3.761   5.047   0.189 -0.6517  0.7883 -0.3683
 2352TIP3    H128615   3.734   4.979   0.252  0.5334  1.3153  0.7733
 2352TIP3    H228616   3.724   5.128   0.224 -0.7880  0.9600 -0.8987
 2353TIP3   OH228617   0.642   0.682   6.999  0.0664  0.0575  0.2583
 2353TIP3    H128618   0.735   0.683   7.020  0.0540 -0.5392  0.3660
 2353TIP3    H228619   0.598   0.703   7.081  0.0446 -1.5675  0.6961
 2354TIP3   OH228620   5.121   2.022   0.114 -0.4771 -0.2157 -0.1582
 2354TIP3    H128621   5.189   2.089   0.102  0.8839 -1.6011 -0.5611
 2354TIP3    H228622   5.072   2.050   0.191  1.6268 -0.0196  1.1717
 2355TIP3   OH228623   3.764   0.294   7.934 -0.5108  0.2536 -0.2783
 2355TIP3    H128624   3.673   0.298   7.903 -0.5345  0.3228 -0.2017
 2355TIP3    H228625   3.816   0.306   7.855 -0.5794  1.3874 -0.1687
 2356TIP3   OH228626   5.025   0.427   6.432 -0.0901  0.2880  0.0961
 2356TIP3    H128627   5.104   0.431   6.486  0.2754  0.2921 -0.4222
 2356TIP3    H228628   4.958   0.391   6.490  0.6472 -1.0934  0.1581
 2357TIP3   OH228629   4.197   3.819   8.561  0.4569  0.0403 -0.1714
 2357TIP3    H128630   4.188   3.725   8.576  0.6942  0.1412  0.6644
 2357TIP3    H228631   4.178   3.858   8.647 -0.0629  0.7811 -0.6164
 2358TIP3   OH228632   0.707   0.346   8.603  0.0892 -0.1484 -0.6528
 2358TIP3    H128633   0.746   0.430   8.629  0.3244 -0.2361 -0.7206
 2358TIP3    H228634   0.631   0.371   8.551 -0.7532  0.0332  0.6229
 2359TIP3   OH228635   5.010   3.217   7.144 -0.2640  0.5300 -0.2330
 2359TIP3    H128636   4.939   3.277   7.169 -1.8515 -1.0258 -0.8114
 2359TIP3    H228637   4.987   3.187   7.056  0.8114 -0.4540 -0.2076
 2360TIP3   OH228638   1.399   4.995   1.506  0.0729 -0.0172 -0.0982
 2360TIP3    H128639   1.409   5.055   1.580  1.8840 -0.1309 -0.2081
 2360TIP3    H228640   1.445   5.038   1.434 -1.3159 -0.0955 -1.0847
 2361TIP3   OH228641   0.925   4.268   7.000 -0.2851 -0.1951  0.0414
 2361TIP3    H128642   0.996   4.237   6.944  0.7666  0.7096  0.8424
 2361TIP3    H228643   0.860   4.303   6.939 -0.7595 -2.3645 -0.7862
 2362TIP3   OH228644   5.435   5.930   8.380 -0.0791 -0.2614 -0.4154
 2362TIP3    H128645   5.420   5.836   8.368 -0.9131 -0.1086 -0.5889
 2362TIP3    H228646   5.439   5.940   8.475  0.7820 -0.5843 -0.4082
 2363TIP3   OH228647   3.142   3.211   2.264  0.1854 -0.7025  0.1476
 2363TIP3    H128648   3.089   3.276   2.218  1.0550 -0.8466 -1.1080
 2363TIP3    H228649   3.123   3.226   2.357 -1.2850 -0.1130 -0.2155
 2364TIP3   OH228650   6.357   3.880   1.331  0.0430  0.2659 -0.0620
 2364TIP3    H128651   6.393   3.859   1.417  1.2121  1.2826 -0.2741
 2364TIP3    H228652   6.275   3.926   1.350  1.0820  1.9294  0.5931
 2365TIP3   OH228653   0.828   5.460   7.357  0.0537 -0.3704 -0.7817
 2365TIP3    H128654   0.913   5.420   7.338  0.2800 -0.5829  0.5830
 2365TIP3    H228655   0.850   5.542   7.402 -0.4099 -1.8061  2.3407
 2366TIP3   OH228656   1.168   5.311   6.654  0.0236 -0.6077  0.6634
 2366TIP3    H128657   1.255   5.279   6.677  0.1306  0.0089  1.1377
 2366TIP3    H228658   1.154   5.280   6.564  0.8979 -0.3636  0.4343
 2367TIP3   OH228659   1.443   0.811   2.295 -0.1235 -0.1349  0.1349
 2367TIP3    H128660   1.533   0.807   2.263 -0.7387 -0.0850 -1.7033
 2367TIP3    H228661   1.405   0.728   2.268 -0.6210 -0.1913  0.9807
 2368TIP3   OH228662   5.545   0.297   7.979 -0.1489  0.4819 -0.0289
 2368TIP3    H128663   5.633   0.315   7.945 -0.1719  0.0993 -0.3028
 2368TIP3    H228664   5.560   0.257   8.065 -0.0111 -0.5004 -0.4941
 2369TIP3   OH228665   1.833   6.452   7.377 -0.1544  0.1140 -0.4044
 2369TIP3    H128666   1.742   6.480   7.368 -0.1435  0.0075 -0.8898
 2369TIP3    H228667   1.884   6.522   7.336 -0.1652 -0.8572 -2.1680
 2370TIP3   OH228668   3.829   0.368   0.322 -0.1889  0.0401 -0.6773
 2370TIP3    H128669   3.881   0.288   0.332 -1.1998 -0.8495 -2.1272
 2370TIP3    H228670   3.800   0.389   0.411  1.0603 -0.5074 -0.1106
 2371TIP3   OH228671   5.721   3.315   7.640 -0.2299  0.0624  0.3053
 2371TIP3    H128672   5.756   3.242   7.589 -0.5695 -0.7365  1.1948
 2371TIP3    H228673   5.745   3.393   7.590  0.9557 -0.5985 -0.1918
 2372TIP3   OH228674   5.592   1.111   0.590  0.1022 -0.2382  0.2423
 2372TIP3    H128675   5.640   1.033   0.618  1.0303 -0.3334 -1.4842
 2372TIP3    H228676   5.534   1.079   0.520 -1.2293  0.2048  1.1166
 2373TIP3   OH228677   0.925   1.958   2.280 -0.2037 -0.1403  0.6137
 2373TIP3    H128678   0.895   2.049   2.282  2.3958  0.7898  0.9620
 2373TIP3    H228679   0.926   1.932   2.372 -0.2624 -0.2910  0.5713
 2374TIP3   OH228680   4.647   6.823   0.498  0.1434 -0.2570 -0.5667
 2374TIP3    H128681   4.636   6.730   0.482 -2.5565 -0.4833  1.7496
 2374TIP3    H228682   4.684   6.827   0.587 -2.7620  0.7675  0.7082
 2375TIP3   OH228683   1.804   4.595   2.186  0.1797  0.3917  0.3236
 2375TIP3    H128684   1.841   4.641   2.111 -1.5986 -0.6407 -1.3039
 2375TIP3    H228685   1.812   4.502   2.163 -0.5071  0.0583  1.3637
 2376TIP3   OH228686   6.679   5.450   7.575 -0.0571 -0.2330 -0.2365
 2376TIP3    H128687   6.642   5.456   7.487  2.0299  2.6774 -1.0475
 2376TIP3    H228688   6.773   5.439   7.562  0.5078  1.7284  1.5328
 2377TIP3   OH228689   4.095   5.405   8.448  0.0077  0.2947  0.0304
 2377TIP3    H128690   4.175   5.453   8.469 -0.0429  0.7974 -0.8492
 2377TIP3    H228691   4.028   5.442   8.506  0.2274  0.4842  0.1611
 2378TIP3   OH228692   6.800   3.474   7.871  0.4049  0.1592 -0.0844
 2378TIP3    H128693   6.773   3.397   7.821  0.6062 -1.3199  1.9392
 2378TIP3    H228694   6.895   3.477   7.861  0.6265 -0.9812  1.2061
 2379TIP3   OH228695   3.236   6.572   8.167 -0.2354  0.2274  0.0919
 2379TIP3    H128696   3.194   6.550   8.250  1.5106 -2.0176  0.4963
 2379TIP3    H228697   3.235   6.667   8.164 -2.0990  0.3412  1.7094
 2380TIP3   OH228698   3.289   2.072   8.258 -0.1719  0.0732 -0.1318
 2380TIP3    H128699   3.282   2.085   8.164  0.1114 -0.7230 -0.2725
 2380TIP3    H228700   3.312   1.979   8.268  0.6729  0.3529  0.6812
 2381TIP3   OH228701   6.595   4.297   1.467 -0.5450 -0.0511 -0.4378
 2381TIP3    H128702   6.614   4.354   1.392  0.6195 -1.2133 -1.0809
 2381TIP3    H228703   6.647   4.333   1.538 -2.5854  1.7809  0.2055
 2382TIP3   OH228704   0.039   2.539   1.763 -0.6663 -0.3117 -0.3781
 2382TIP3    H128705   0.026   2.503   1.675 -0.0855 -1.5928  0.0226
 2382TIP3    H228706  -0.032   2.502   1.815 -0.8289  0.1932 -0.2377
 2383TIP3   OH228707   4.429   3.886   2.201 -0.1366 -0.0643 -0.1004
 2383TIP3    H128708   4.443   3.798   2.236  0.3079 -0.3863 -1.0408
 2383TIP3    H228709   4.488   3.942   2.252 -0.2869 -0.3404  0.3810
 2384TIP3   OH228710   3.314   4.536   8.668 -0.0060  0.2583  0.0116
 2384TIP3    H128711   3.398   4.539   8.714 -0.2280 -0.6102  0.4989
 2384TIP3    H228712   3.269   4.461   8.706 -0.1249 -0.6201 -1.7603
 2385TIP3   OH228713   3.195   3.993   2.113 -0.2617 -0.3924  0.6115
 2385TIP3    H128714   3.109   3.991   2.157 -0.3600 -1.0525  0.3959
 2385TIP3    H228715   3.238   3.912   2.140 -0.1256 -0.5695 -0.1155
 2386TIP3   OH228716   3.386   5.228   7.988 -0.2942 -0.3900 -0.1512
 2386TIP3    H128717   3.300   5.187   8.002 -0.4994 -0.9183 -2.5871
 2386TIP3    H228718   3.448   5.160   8.015 -0.6593 -1.8219 -2.5959
 2387TIP3   OH228719   5.665   5.841   8.615  0.1905  0.3146  0.0812
 2387TIP3    H128720   5.638   5.750   8.628  1.2847  0.0143  0.3934
 2387TIP3    H228721   5.676   5.849   8.521  0.3435  0.0309  0.0702
 2388TIP3   OH228722   0.415   5.714   0.433 -0.3894  0.1980  0.0968
 2388TIP3    H128723   0.374   5.795   0.464 -0.6598  1.1835 -2.5945
 2388TIP3    H228724   0.342   5.652   0.423 -0.4872  0.3159  0.0850
 2389TIP3   OH228725   5.535   3.981   0.280  0.1500  0.1514 -0.0727
 2389TIP3    H128726   5.510   3.918   0.213 -0.5066  1.0222 -0.6705
 2389TIP3    H228727   5.488   4.061   0.257 -1.2560  0.0850  2.2349
 2390TIP3   OH228728   0.231   2.090   8.241 -0.3677  0.3219 -0.3618
 2390TIP3    H128729   0.170   2.122   8.174  0.3943  0.9119 -0.7931
 2390TIP3    H228730   0.300   2.046   8.191 -0.0180  0.3877  0.0636
 2391TIP3   OH228731   4.936   1.330   2.005  0.5587 -0.5726  0.0458
 2391TIP3    H128732   4.934   1.417   1.966  0.2600 -0.8778 -0.6446
 2391TIP3    H228733   4.950   1.345   2.099 -0.2191  0.2454  0.0378
 2392TIP3   OH228734   0.507   1.375   8.263  0.8071  0.2445  0.0536
 2392TIP3    H128735   0.542   1.449   8.313 -0.7957 -0.3859  2.2599
 2392TIP3    H228736   0.564   1.301   8.286 -0.5377 -0.2825  1.8904
 2393TIP3   OH228737   4.057   1.833   7.646  0.4499  0.1219  0.1428
 2393TIP3    H128738   3.968   1.802   7.633 -0.1711  2.0856 -0.5524
 2393TIP3    H228739   4.071   1.828   7.741 -0.3952 -0.1951  0.2594
 2394TIP3   OH228740   1.433   1.246   8.388 -0.2337  0.3498  0.2795
 2394TIP3    H128741   1.346   1.205   8.391  1.0274 -2.6344 -0.6639
 2394TIP3    H228742   1.443   1.286   8.475 -2.6355  1.0412  0.3042
 2395TIP3   OH228743   0.877   3.503   1.580 -0.1694 -0.8893 -0.2943
 2395TIP3    H128744   0.885   3.424   1.633 -0.9216 -1.6178 -1.2531
 2395TIP3    H228745   0.792   3.496   1.537 -0.0724  0.2430 -0.7218
 2396TIP3   OH228746   4.660   5.661   1.317 -0.2217 -0.1770 -0.2670
 2396TIP3    H128747   4.584   5.623   1.273 -1.7481  2.1283  0.2259
 2396TIP3    H228748   4.715   5.586   1.338 -1.6777 -1.8000 -1.8825
 2397TIP3   OH228749   5.872   4.326   1.542 -0.5034  0.6767  0.6282
 2397TIP3    H128750   5.966   4.315   1.555 -0.6406 -0.8888  0.4160
 2397TIP3    H228751   5.863   4.415   1.507  1.1263  0.0100 -1.7080
 2398TIP3   OH228752   6.368   1.637   8.274 -0.0744  0.2967 -0.3576
 2398TIP3    H128753   6.447   1.675   8.314  0.1702  0.3062 -0.8389
 2398TIP3    H228754   6.295   1.682   8.317  0.1281 -0.8365  1.2427
 2399TIP3   OH228755   4.613   6.195   7.767 -0.1276 -0.7459 -0.1870
 2399TIP3    H128756   4.548   6.188   7.837  0.1728 -0.5136  0.1223
 2399TIP3    H228757   4.697   6.199   7.813 -0.0156  1.2286 -0.4374
 2400TIP3   OH228758   2.948   2.169   1.757 -0.2215 -0.0162  0.3504
 2400TIP3    H128759   2.894   2.217   1.820  0.3104  0.1155  0.7147
 2400TIP3    H228760   3.021   2.228   1.738 -1.7257  1.1066 -2.4864
 2401TIP3   OH228761   5.997   2.020   0.624  0.2043 -0.5766  0.4709
 2401TIP3    H128762   5.983   2.034   0.718 -0.2052 -0.6576  0.4248
 2401TIP3    H228763   6.007   1.925   0.615 -3.3198 -1.0352  0.0123
 2402TIP3   OH228764   5.687   0.409   2.050  0.0116 -0.1267 -0.1742
 2402TIP3    H128765   5.607   0.436   2.006 -1.0464 -0.4546  1.4619
 2402TIP3    H228766   5.658   0.376   2.135  1.8591 -0.5034  0.3588
 2403TIP3   OH228767   3.620   4.325   2.107 -0.0634 -0.2692 -0.3923
 2403TIP3    H128768   3.560   4.271   2.159 -1.2746  0.9869 -0.4405
 2403TIP3    H228769   3.569   4.403   2.085  0.5283 -0.5347 -3.1192
 2404TIP3   OH228770   4.460   0.156   8.260 -0.4269  0.1479  0.1109
 2404TIP3    H128771   4.447   0.061   8.268  4.6359 -1.1161 -2.3635
 2404TIP3    H228772   4.510   0.180   8.338 -0.5242  0.5280  0.0582
 2405TIP3   OH228773   4.736   2.317   7.820 -0.2139 -0.1490  0.3425
 2405TIP3    H128774   4.661   2.351   7.771 -0.6545 -0.3356  0.8794
 2405TIP3    H228775   4.704   2.308   7.910 -0.0357 -1.7621  0.2624
 2406TIP3   OH228776   3.484   1.550   8.528 -0.7573 -1.1723 -0.3832
 2406TIP3    H128777   3.570   1.533   8.566 -0.8442 -1.9710 -0.5139
 2406TIP3    H228778   3.455   1.632   8.567  0.2607 -0.6526 -0.6916
 2407TIP3   OH228779   1.291   0.593   8.669 -0.3390 -0.3992  0.6380
 2407TIP3    H128780   1.200   0.585   8.642 -0.8010 -0.8451  2.1960
 2407TIP3    H228781   1.318   0.504   8.691  0.5796 -0.3207 -0.0940
 2408TIP3   OH228782   6.208   5.545   1.781 -0.3670  0.2466 -0.1460
 2408TIP3    H128783   6.161   5.585   1.707  1.2199  0.1759 -1.2510
 2408TIP3    H228784   6.176   5.591   1.858 -0.9772  1.3845 -1.0437
 2409TIP3   OH228785   6.705   3.341   0.764 -0.0291  0.1473  0.0369
 2409TIP3    H128786   6.638   3.282   0.799 -0.4933 -0.1400 -1.2894
 2409TIP3    H228787   6.662   3.427   0.762  0.6853  0.6025  2.0793
 2410TIP3   OH228788   2.130   2.716   6.959 -0.1979 -0.0134  0.1595
 2410TIP3    H128789   2.112   2.625   6.981  0.8214  0.1248  1.6360
 2410TIP3    H228790   2.099   2.725   6.869 -2.3909 -1.2149  0.7145
 2411TIP3   OH228791   4.462   4.918   8.011  0.4169  0.2430  0.3727
 2411TIP3    H128792   4.506   4.877   7.937 -0.2627  0.3211 -0.0869
 2411TIP3    H228793   4.369   4.902   7.995  0.2500  0.5187  1.0543
 2412TIP3   OH228794   4.479   4.554   8.624 -0.1863 -0.4131 -0.4182
 2412TIP3    H128795   4.521   4.469   8.608  0.5231 -0.9591  3.3040
 2412TIP3    H228796   4.433   4.542   8.708 -0.8911  2.5991 -0.2671
 2413TIP3   OH228797   0.280   3.259   7.479  0.1095 -0.4317 -0.1152
 2413TIP3    H128798   0.202   3.302   7.443 -1.1104 -0.0446  2.7153
 2413TIP3    H228799   0.259   3.166   7.477  0.0070 -0.4044 -0.3229
 2414TIP3   OH228800   0.968   4.440   7.977 -0.8266  0.4323  0.2753
 2414TIP3    H128801   0.920   4.490   8.043  1.5404 -0.0091  2.4919
 2414TIP3    H228802   1.029   4.503   7.939  0.2572 -0.0664  1.1127
 2415TIP3   OH228803   4.052   5.290   0.956  0.7656 -0.0433  0.0585
 2415TIP3    H128804   3.987   5.329   0.898  2.7230 -0.3742 -2.5328
 2415TIP3    H228805   4.065   5.356   1.025 -1.6020  0.3792  0.1997
 2416TIP3   OH228806   6.195   1.696   7.634  0.7025  0.4871  0.1770
 2416TIP3    H128807   6.254   1.753   7.584 -0.4552  2.3262  0.8007
 2416TIP3    H228808   6.177   1.623   7.575  0.9518  1.5843 -1.3219
 2417TIP3   OH228809   1.172   2.095   6.991  0.8806 -0.4519 -0.3908
 2417TIP3    H128810   1.132   2.009   7.002 -1.7391  0.7608  0.3779
 2417TIP3    H228811   1.196   2.099   6.898 -2.1463 -0.8215 -1.3042
 2418TIP3   OH228812   4.676   6.466   1.837  0.0872 -0.1466  1.0054
 2418TIP3    H128813   4.608   6.409   1.801  2.2644 -2.1317 -0.2218
 2418TIP3    H228814   4.647   6.484   1.927 -1.6493 -1.5794  0.7891
 2419TIP3   OH228815   2.968   0.880   7.920 -0.0697  0.0621  0.6786
 2419TIP3    H128816   2.935   0.951   7.866 -1.4801 -0.9598  0.1167
 2419TIP3    H228817   2.980   0.919   8.006 -0.6976  1.0126  0.3550
 2420TIP3   OH228818   6.698   1.056   0.442 -0.1638  0.3683 -0.1896
 2420TIP3    H128819   6.700   1.057   0.538 -2.1424  3.1190 -0.0573
 2420TIP3    H228820   6.613   1.020   0.419  0.1517  0.0538 -0.9062
 2421TIP3   OH228821   6.021   3.605   0.479 -0.1674  0.1794  0.6231
 2421TIP3    H128822   6.019   3.693   0.518 -1.6966 -0.0236  1.0620
 2421TIP3    H228823   6.004   3.620   0.386 -0.5797  0.3288  0.7221
 2422TIP3   OH228824   2.367   0.721   0.395 -0.0992  0.1752 -0.0006
 2422TIP3    H128825   2.427   0.791   0.422 -0.4296  0.3021  0.4148
 2422TIP3    H228826   2.289   0.734   0.448  0.2011 -1.0865  0.8193
 2423TIP3   OH228827   0.809   1.098   8.007 -0.3593  0.4772 -0.3433
 2423TIP3    H128828   0.781   1.082   8.098 -0.9906 -0.0589 -0.6188
 2423TIP3    H228829   0.739   1.059   7.954  0.2869  0.2835 -1.0619
 2424TIP3   OH228830   3.361   4.710   6.761  0.8060 -0.2835 -0.2266
 2424TIP3    H128831   3.403   4.756   6.835  1.0033 -0.2936 -0.3305
 2424TIP3    H228832   3.387   4.761   6.684 -0.9236  0.8393 -0.1262
 2425TIP3   OH228833   2.794   3.494   1.312  0.0355  0.3068 -0.3217
 2425TIP3    H128834   2.797   3.409   1.357  0.8722  0.2226 -0.5204
 2425TIP3    H228835   2.816   3.558   1.379  0.5056  0.2545 -0.4200
 2426TIP3   OH228836   3.909   0.020   1.517  0.1126 -0.4105  0.6709
 2426TIP3    H128837   3.999   0.033   1.549 -0.8485  2.2652  2.6828
 2426TIP3    H228838   3.864  -0.025   1.589 -0.8901  1.1262  1.0381
 2427TIP3   OH228839   0.815   3.627   0.730 -0.0391 -0.2448 -0.2857
 2427TIP3    H128840   0.779   3.549   0.687 -1.1211  0.4206 -0.6315
 2427TIP3    H228841   0.805   3.697   0.666  0.2545  0.3356  0.2890
 2428TIP3   OH228842   4.816   2.254   6.754  0.5042 -0.7023  0.0593
 2428TIP3    H128843   4.773   2.311   6.689  2.6562  1.6823  0.5862
 2428TIP3    H228844   4.893   2.220   6.708 -0.1779 -2.3704  0.1083
 2429TIP3   OH228845   5.961   2.860   1.923 -0.2453 -0.3474  0.2256
 2429TIP3    H128846   5.936   2.941   1.966  1.9627  0.8237 -0.5638
 2429TIP3    H228847   5.982   2.886   1.833 -1.3174 -2.1426 -0.6128
 2430TIP3   OH228848   0.735   3.186   6.493  0.1728  0.3784 -0.4823
 2430TIP3    H128849   0.796   3.216   6.561 -1.3114  0.6625  0.7815
 2430TIP3    H228850   0.788   3.131   6.436  1.2044 -1.0463  1.7074
 2431TIP3   OH228851   6.251   0.923   2.729 -0.0136  0.3050  0.7659
 2431TIP3    H128852   6.196   0.995   2.698 -3.2038 -2.8420 -1.7400
 2431TIP3    H228853   6.340   0.947   2.703 -1.0418  2.9915 -0.6295
 2432TIP3   OH228854   0.548   3.934   6.386 -0.5808  0.1014  0.2408
 2432TIP3    H128855   0.467   3.900   6.424 -1.9662  1.9360 -0.9382
 2432TIP3    H228856   0.572   3.868   6.320 -1.0453 -0.4987  0.6584
 2433TIP3   OH228857   0.397   3.971   2.188 -0.0353 -0.3585  0.4646
 2433TIP3    H128858   0.353   4.048   2.224  0.3481  0.6136 -1.0675
 2433TIP3    H228859   0.364   3.898   2.241 -3.6297  0.2727 -0.5720
 2434TIP3   OH228860   0.604   6.146   7.652 -0.4904 -0.3179 -0.0998
 2434TIP3    H128861   0.565   6.084   7.713 -1.4821  0.5447  0.1857
 2434TIP3    H228862   0.687   6.106   7.626 -1.0030 -1.6535  0.2250
 2435TIP3   OH228863   3.992   4.649   6.954 -0.1261  0.8010  0.0956
 2435TIP3    H128864   3.910   4.616   6.990 -0.7646  0.5667 -1.4928
 2435TIP3    H228865   3.972   4.736   6.921 -0.1824  0.1604 -1.6850
 2436TIP3   OH228866   0.319   6.624   8.011 -0.0485 -0.3293  0.4844
 2436TIP3    H128867   0.287   6.714   8.017 -2.0702 -0.9316 -0.5187
 2436TIP3    H228868   0.406   6.632   7.970  0.0220  1.1689  0.8691
 2437TIP3   OH228869   0.767   6.295   7.145  0.6710 -0.2789 -0.3776
 2437TIP3    H128870   0.731   6.383   7.129  0.2085 -0.4347 -0.1866
 2437TIP3    H228871   0.798   6.267   7.059  0.2562 -0.1803 -0.5614
 2438TIP3   OH228872   6.440   4.535   7.970 -0.2447  0.1149 -0.2707
 2438TIP3    H128873   6.453   4.613   8.025  0.1260 -1.1897  1.6072
 2438TIP3    H228874   6.365   4.491   8.010  0.8743 -1.5764  0.0963
 2439TIP3   OH228875   3.895   5.856   7.870 -0.8432  0.1280 -0.0052
 2439TIP3    H128876   3.981   5.816   7.874 -1.1748 -0.6981 -0.7987
 2439TIP3    H228877   3.905   5.930   7.809 -0.5003  0.5837  0.5904
 2440TIP3   OH228878   5.454   5.908   0.817  0.1100 -0.0841  0.6934
 2440TIP3    H128879   5.414   5.840   0.871  0.6152 -1.0395 -0.1067
 2440TIP3    H228880   5.470   5.981   0.878 -1.1011 -0.3905  1.4095
 2441TIP3   OH228881   6.401   6.179   0.245 -0.1011  0.4968 -0.1540
 2441TIP3    H128882   6.426   6.197   0.336 -1.2679  0.5426  0.1746
 2441TIP3    H228883   6.474   6.212   0.193  1.1339 -0.5971  0.8106
 2442TIP3   OH228884   0.074   0.543   7.134 -0.7173  0.0605  0.4145
 2442TIP3    H128885   0.095   0.455   7.168 -2.4209 -0.3198  0.5881
 2442TIP3    H228886   0.156   0.575   7.099 -0.2449 -2.0442 -0.6092
 2443TIP3   OH228887   4.680   0.430   1.111  0.7613 -0.3004  0.5986
 2443TIP3    H128888   4.600   0.390   1.077  0.5344 -1.7962  2.6681
 2443TIP3    H228889   4.649   0.500   1.168  1.0171  0.2241  0.1065
 2444TIP3   OH228890   6.717   4.531   7.921 -0.1379  0.2592 -0.5221
 2444TIP3    H128891   6.625   4.539   7.946  0.1628  1.0845  0.3358
 2444TIP3    H228892   6.714   4.495   7.832 -1.2569 -0.9578 -0.0278
 2445TIP3   OH228893   6.079   5.150   0.656 -0.5806  0.2329  0.5810
 2445TIP3    H128894   6.030   5.191   0.585 -0.4216 -0.8362 -0.1854
 2445TIP3    H228895   6.029   5.071   0.676 -1.0050  0.8748  2.1717
 2446TIP3   OH228896   0.856   0.581   1.276 -0.2486  0.3902  0.1621
 2446TIP3    H128897   0.930   0.605   1.332  0.7246 -1.2807 -0.3320
 2446TIP3    H228898   0.806   0.519   1.329 -0.8819  0.9411  0.2125
 2447TIP3   OH228899   3.284   6.455   2.479  0.0434 -0.6014  0.5201
 2447TIP3    H128900   3.277   6.360   2.465  1.5144 -0.5779 -0.6567
 2447TIP3    H228901   3.355   6.465   2.542 -0.9055 -0.3099  1.5692
 2448TIP3   OH228902   5.332   3.795   8.112  0.0719  0.0062  0.0590
 2448TIP3    H128903   5.358   3.753   8.194 -0.5911 -0.3875  0.0716
 2448TIP3    H228904   5.408   3.785   8.055  0.4273  0.0209  0.5292
 2449TIP3   OH228905   2.091   0.803   6.780  0.0146  0.0805  0.3843
 2449TIP3    H128906   2.037   0.735   6.820 -0.0467  0.2463  0.5897
 2449TIP3    H228907   2.073   0.797   6.686 -0.6278  0.3603  0.4811
 2450TIP3   OH228908   0.857   3.740   7.660  0.0519 -0.6124 -0.3446
 2450TIP3    H128909   0.769   3.723   7.693 -0.5612  0.1244 -1.5228
 2450TIP3    H228910   0.847   3.743   7.565  1.0209  1.1300 -0.4298
 2451TIP3   OH228911   1.595   1.825   1.413  0.3870 -0.0164 -0.2462
 2451TIP3    H128912   1.646   1.822   1.332 -1.0707  0.7373 -1.2411
 2451TIP3    H228913   1.504   1.814   1.384 -0.0939 -0.5623  1.3863
 2452TIP3   OH228914   6.074   0.860   2.279 -0.4167 -0.5246 -0.1623
 2452TIP3    H128915   6.091   0.873   2.373 -2.3979 -1.4177  0.3693
 2452TIP3    H228916   6.040   0.944   2.249  1.1509  0.0758 -0.3515
 2453TIP3   OH228917   1.955   4.726   0.190  0.1323 -0.3691 -0.5069
 2453TIP3    H128918   1.893   4.722   0.118  1.7644 -0.4406 -1.9809
 2453TIP3    H228919   2.038   4.697   0.152  0.9460 -0.9274  1.5424
 2454TIP3   OH228920   1.282   4.241   0.057 -0.0024  1.1743  0.3422
 2454TIP3    H128921   1.372   4.255   0.030 -0.0219 -0.1131 -0.4913
 2454TIP3    H228922   1.286   4.170   0.122 -0.3471  1.5796  0.8135
 2455TIP3   OH228923   5.865   5.499   0.614 -0.3560 -0.5017  0.1327
 2455TIP3    H128924   5.872   5.562   0.686  1.1938 -1.6085  1.0122
 2455TIP3    H228925   5.932   5.527   0.551 -1.6824  0.4407 -0.9264
 2456TIP3   OH228926   6.094   2.061   1.063 -0.2707  0.2381 -0.3921
 2456TIP3    H128927   6.136   1.985   1.104  1.9550  0.5366 -1.9515
 2456TIP3    H228928   6.083   2.124   1.134  1.0289 -0.2617  0.2824
 2457TIP3   OH228929   5.059   1.909   1.488 -0.2052  0.3858 -0.0810
 2457TIP3    H128930   4.983   1.946   1.534  0.9047  2.1129  0.4706
 2457TIP3    H228931   5.095   1.983   1.440  1.5477 -0.2102  0.2565
 2458TIP3   OH228932   4.216   3.536   6.602  0.3310  0.2151  0.3151
 2458TIP3    H128933   4.283   3.590   6.562 -0.3721  0.3734 -0.6783
 2458TIP3    H228934   4.262   3.456   6.629  0.8983  0.2818 -0.4343
 2459TIP3   OH228935   3.283   5.334   6.190 -0.8827  0.0457 -0.3321
 2459TIP3    H128936   3.333   5.411   6.217 -0.4836  0.2473 -1.6087
 2459TIP3    H228937   3.192   5.358   6.206 -0.6687  0.0575  1.0442
 2460TIP3   OH228938   1.069   1.849   2.071 -0.1881 -0.1615 -0.2647
 2460TIP3    H128939   1.051   1.881   2.160 -2.1483 -0.9382 -0.3354
 2460TIP3    H228940   1.164   1.854   2.063  0.0079  0.3050  1.7326
 2461TIP3   OH228941   2.394   6.335   1.760  0.1887  0.6062 -0.7787
 2461TIP3    H128942   2.488   6.336   1.780  0.3083 -1.5325 -0.9629
 2461TIP3    H228943   2.389   6.315   1.667 -0.4171 -0.9479 -0.4508
 2462TIP3   OH228944   5.631   0.816   2.525  0.3950  0.4263  0.1797
 2462TIP3    H128945   5.605   0.793   2.614 -0.4715 -1.3893 -0.4955
 2462TIP3    H228946   5.656   0.733   2.485  1.5725  1.3166 -1.0374
 2463TIP3   OH228947   2.467   2.130   1.209  0.3533  0.1321  0.2060
 2463TIP3    H128948   2.562   2.134   1.210  0.4861 -2.0585  0.9245
 2463TIP3    H228949   2.445   2.049   1.255 -1.7957 -0.1446 -1.1225
 2464TIP3   OH228950   4.911   3.638   0.267 -0.3824 -0.6925  0.0687
 2464TIP3    H128951   4.914   3.725   0.227 -0.5300  0.1372  1.7528
 2464TIP3    H228952   4.990   3.635   0.322 -1.4340 -0.7855  1.6195
 2465TIP3   OH228953   0.016   4.268   1.200 -0.2264  0.5746  0.2456
 2465TIP3    H128954  -0.002   4.190   1.251 -0.3310 -0.0355 -0.7032
 2465TIP3    H228955   0.074   4.320   1.255  0.5832 -0.5878  0.5196
 2466TIP3   OH228956   5.417   3.135   1.796  0.1263 -0.0219  0.0499
 2466TIP3    H128957   5.336   3.174   1.829 -0.0237  0.1183 -0.4772
 2466TIP3    H228958   5.392   3.047   1.769  0.4377 -0.4472  1.1175
 2467TIP3   OH228959   5.777   4.950   0.378  0.1208  0.4390  0.4175
 2467TIP3    H128960   5.713   4.992   0.321  0.0155  1.6283  1.3649
 2467TIP3    H228961   5.732   4.944   0.463  0.9652  0.5497  0.8839
 2468TIP3   OH228962   1.863   6.119   0.734 -0.6043 -0.3840 -0.6339
 2468TIP3    H128963   1.871   6.203   0.778  1.5586 -0.4406 -0.8564
 2468TIP3    H228964   1.841   6.057   0.804  1.3532 -0.2219  0.1625
 2469TIP3   OH228965   5.697   5.813   8.347  0.3978 -0.3525 -0.2999
 2469TIP3    H128966   5.639   5.815   8.271 -0.2476 -1.2688  0.1553
 2469TIP3    H228967   5.774   5.765   8.318 -0.0341 -1.0863 -0.2668
 2470TIP3   OH228968   4.184   4.114   1.487  0.7735  0.4417  0.2408
 2470TIP3    H128969   4.247   4.183   1.509  1.1421  0.4808 -0.8774
 2470TIP3    H228970   4.228   4.062   1.420 -0.5862  0.8083 -1.0026
 2471TIP3   OH228971   2.896   4.784   0.987  0.2607 -0.1083  0.1864
 2471TIP3    H128972   2.949   4.705   0.998 -0.3228 -0.5981 -0.3887
 2471TIP3    H228973   2.957   4.850   0.955  0.5082 -0.7107 -0.6363
 2472TIP3   OH228974   4.827   3.761   2.384 -0.3762 -0.0384 -0.0474
 2472TIP3    H128975   4.868   3.778   2.469  0.8671 -0.6156 -0.5096
 2472TIP3    H228976   4.814   3.666   2.382 -2.7682  0.2065  0.5109
 2473TIP3   OH228977   1.424   3.374   0.433 -0.2213 -0.2906 -0.2921
 2473TIP3    H128978   1.355   3.341   0.491  0.5527 -0.8360  0.3337
 2473TIP3    H228979   1.501   3.322   0.455  0.0292 -0.7185 -2.0256
 2474TIP3   OH228980   5.245   1.404   7.954  0.2139  0.0674  0.1219
 2474TIP3    H128981   5.293   1.479   7.919  2.3082 -0.7740  1.0131
 2474TIP3    H228982   5.248   1.339   7.884  3.1220 -1.0747  1.1504
 2475TIP3   OH228983   4.924   3.591   6.487  0.2107 -0.0583  0.0206
 2475TIP3    H128984   4.924   3.683   6.511  1.1281 -0.1005  0.2282
 2475TIP3    H228985   4.832   3.569   6.476 -0.1178  0.4986  1.4740
 2476TIP3   OH228986   5.519   2.718   0.158  0.8366  0.1359  0.5387
 2476TIP3    H128987   5.486   2.641   0.204  1.8287  0.8954  2.6562
 2476TIP3    H228988   5.604   2.736   0.199  1.8438  0.8748 -1.6549
 2477TIP3   OH228989   1.720   3.272   8.676 -0.2874 -0.4670  0.1876
 2477TIP3    H128990   1.744   3.348   8.729 -0.5131 -0.6975  0.6234
 2477TIP3    H228991   1.691   3.310   8.593 -1.6561  0.0319  0.8541
 2478TIP3   OH228992   3.801   5.467   6.199 -0.1496 -0.3958 -0.1598
 2478TIP3    H128993   3.759   5.394   6.153  0.7731  0.1077 -1.8604
 2478TIP3    H228994   3.866   5.424   6.256 -0.1502 -0.9521 -0.5644
 2479TIP3   OH228995   1.684   1.036   1.181  0.3542  0.3196 -0.5972
 2479TIP3    H128996   1.763   1.030   1.128 -0.0913  1.0236 -1.3567
 2479TIP3    H228997   1.664   1.129   1.185 -2.1619  0.0218 -3.0816
 2480TIP3   OH228998   1.905   4.980   0.299  0.8258  0.0808 -0.1320
 2480TIP3    H128999   1.988   5.028   0.292  1.6399 -0.9593  1.6998
 2480TIP3    H229000   1.921   4.897   0.255 -0.1036  0.8433 -1.9945
 2481TIP3   OH229001   0.533   5.189   7.367  0.0503 -0.2850 -0.2846
 2481TIP3    H129002   0.529   5.263   7.428  0.9063 -0.3896 -0.0790
 2481TIP3    H229003   0.622   5.155   7.377  0.3402 -0.0711 -1.8703
 2482TIP3   OH229004   0.412   3.595   6.695  0.1521 -0.3349  0.4414
 2482TIP3    H129005   0.365   3.526   6.647  1.3952 -1.2075  0.4251
 2482TIP3    H229006   0.402   3.570   6.787  0.4720 -0.4623  0.4432
 2483TIP3   OH229007   6.189   0.605   7.193 -0.0582 -0.2164  0.6446
 2483TIP3    H129008   6.119   0.540   7.184  0.0657 -0.3084  0.3047
 2483TIP3    H229009   6.170   0.670   7.126  0.4507 -0.4993  0.2087
 2484TIP3   OH229010   4.368   6.116   0.797 -0.2132  0.3947 -0.3700
 2484TIP3    H129011   4.420   6.117   0.717  1.9248  2.5311  0.9236
 2484TIP3    H229012   4.280   6.141   0.768  0.3543  0.5472 -2.1014
 2485TIP3   OH229013   1.277   2.333   8.252 -0.0381  0.1192 -0.1791
 2485TIP3    H129014   1.369   2.316   8.272 -0.4979 -1.1083  1.0953
 2485TIP3    H229015   1.248   2.394   8.319 -0.0402  0.9175 -0.8901
 2486TIP3   OH229016   0.155   0.279   0.310  0.5669  0.2873 -0.9371
 2486TIP3    H129017   0.103   0.225   0.369  2.2238 -2.3373 -1.7173
 2486TIP3    H229018   0.245   0.268   0.340  0.9601  3.7389 -0.3641
 2487TIP3   OH229019   1.096   2.281   0.723 -0.1461  0.0221  0.3687
 2487TIP3    H129020   1.055   2.352   0.673  1.6491 -0.4204 -1.9352
 2487TIP3    H229021   1.045   2.204   0.701 -1.7388  0.4231  2.4108
 2488TIP3   OH229022   6.436   5.269   2.432 -0.0529  0.8966 -0.7256
 2488TIP3    H129023   6.517   5.221   2.448 -0.1449  0.5506 -1.2643
 2488TIP3    H229024   6.376   5.239   2.501  0.0966  0.7325 -0.6671
 2489TIP3   OH229025   5.518   3.838   1.586  0.3332  0.3686 -0.3242
 2489TIP3    H129026   5.572   3.815   1.661  2.1258  0.1369 -1.6267
 2489TIP3    H229027   5.434   3.795   1.603  0.1174  1.6066  2.2652
 2490TIP3   OH229028   4.850   4.576   0.496 -0.1949  0.3338  0.2278
 2490TIP3    H129029   4.847   4.613   0.584  1.9937  1.6898 -0.1864
 2490TIP3    H229030   4.904   4.638   0.446 -1.9614 -0.0121 -2.2707
 2491TIP3   OH229031   0.473   4.432   1.071  0.2241  0.1681  0.3194
 2491TIP3    H129032   0.457   4.348   1.030  0.0359 -0.3873  1.4992
 2491TIP3    H229033   0.397   4.485   1.047 -0.3795 -0.4749  0.7935
 2492TIP3   OH229034   1.904   6.694   0.708 -0.1172  0.0351 -0.6826
 2492TIP3    H129035   1.925   6.785   0.726  1.0604 -0.5958  1.5823
 2492TIP3    H229036   1.987   6.648   0.714 -0.9838 -1.4816  0.6697
 2493TIP3   OH229037   4.463   6.087   0.291 -0.2387 -0.4802 -0.1540
 2493TIP3    H129038   4.521   6.056   0.221  1.1069 -0.7689  1.0452
 2493TIP3    H229039   4.431   6.007   0.333  1.6383 -0.3945  1.6487
 2494TIP3   OH229040   3.708   1.878   8.694 -0.5096  1.1094 -0.2341
 2494TIP3    H129041   3.755   1.889   8.611 -1.3525  0.3492 -0.8185
 2494TIP3    H229042   3.696   1.784   8.703 -1.5904  1.2686  0.0979
 2495TIP3   OH229043   1.355   6.451   1.696 -0.5211 -0.5118 -0.0912
 2495TIP3    H129044   1.339   6.520   1.760  0.4816 -1.2231  0.9648
 2495TIP3    H229045   1.337   6.370   1.743  0.2702 -1.0552 -0.6931
 2496TIP3   OH229046   6.268   5.062   8.497 -0.7818  0.2934 -0.0852
 2496TIP3    H129047   6.258   4.967   8.485 -1.1863  0.3043  0.1387
 2496TIP3    H229048   6.274   5.097   8.408  1.2471 -0.1214 -0.1527
 2497TIP3   OH229049   3.555   3.085   1.592 -0.4012 -0.0795 -0.3083
 2497TIP3    H129050   3.633   3.060   1.642  0.1382  1.2186 -0.4672
 2497TIP3    H229051   3.525   3.003   1.553  0.9947 -0.5805 -0.3947
 2498TIP3   OH229052   3.887   5.952   1.642  0.3331 -0.3459  0.7594
 2498TIP3    H129053   3.870   6.017   1.710  0.4098  1.6516 -1.0252
 2498TIP3    H229054   3.977   5.969   1.614 -0.7211  1.1649 -2.0554
 2499TIP3   OH229055   4.456   3.803   8.457 -0.3292  0.0012  0.4054
 2499TIP3    H129056   4.365   3.819   8.479 -0.4825  0.0870 -0.2664
 2499TIP3    H229057   4.469   3.710   8.478 -0.4117  0.1277  1.0236
 2500TIP3   OH229058   3.186   2.011   1.565  0.2788  0.1452 -0.4438
 2500TIP3    H129059   3.148   1.929   1.598  0.0837  0.1428 -0.6681
 2500TIP3    H229060   3.126   2.038   1.495  1.7192 -0.9073 -2.1691
 2501TIP3   OH229061   0.701   2.077   8.157 -0.0298  0.0033  0.3946
 2501TIP3    H129062   0.670   2.107   8.071 -2.3195  4.0794  2.3721
 2501TIP3    H229063   0.784   2.033   8.138  0.0391  1.4911 -3.8128
 2502TIP3   OH229064   3.748   5.830   6.961 -0.6853 -0.1159 -0.2549
 2502TIP3    H129065   3.800   5.863   6.888  0.1226 -3.0221 -1.1275
 2502TIP3    H229066   3.658   5.849   6.936 -0.3067  1.3247 -0.6624
 2503TIP3   OH229067   2.791   0.238   1.779 -0.3461 -0.6281  0.2431
 2503TIP3    H129068   2.861   0.202   1.724  1.1250  0.6994  1.1824
 2503TIP3    H229069   2.779   0.173   1.848  2.0094  0.3682  1.7013
 2504TIP3   OH229070   3.609   6.369   6.976  0.7034  0.4425 -0.3659
 2504TIP3    H129071   3.645   6.412   7.053  0.8155  1.1919 -0.8266
 2504TIP3    H229072   3.526   6.331   7.005  0.7277  0.7529  0.1065
 2505TIP3   OH229073   6.135   0.365   2.520  0.2874 -0.4230 -0.1328
 2505TIP3    H129074   6.194   0.337   2.450  1.8062  1.1584  0.4513
 2505TIP3    H229075   6.074   0.292   2.530  2.0038 -2.0454 -0.9087
 2506TIP3   OH229076   6.334   0.939   0.109 -0.3551 -0.1867 -0.4720
 2506TIP3    H129077   6.242   0.958   0.124 -1.0068 -2.4345 -1.2533
 2506TIP3    H229078   6.338   0.910   0.018  0.9956 -0.8697 -0.2163
 2507TIP3   OH229079   6.331   4.848   0.769  0.0469  0.1835  0.4691
 2507TIP3    H129080   6.376   4.767   0.744  0.0261  0.8276 -1.8120
 2507TIP3    H229081   6.242   4.820   0.792  0.4924 -0.6113  1.3106
 2508TIP3   OH229082   6.226   5.694   7.806  0.0614 -0.3178  0.1721
 2508TIP3    H129083   6.308   5.657   7.840  0.1494 -0.8336 -0.5892
 2508TIP3    H229084   6.249   5.783   7.780  0.5502 -0.6810 -0.6645
 2509TIP3   OH229085   4.701   4.435   2.483 -0.1778 -0.0229 -0.0703
 2509TIP3    H129086   4.691   4.450   2.577  1.3765  1.1654 -0.0461
 2509TIP3    H229087   4.784   4.388   2.475  0.8410  1.8075 -0.9521
 2510TIP3   OH229088   5.064   4.093   1.033 -0.1725  0.2673 -0.2437
 2510TIP3    H129089   5.111   4.028   0.980 -0.3787 -0.6268  0.6572
 2510TIP3    H229090   5.060   4.171   0.976  0.6589 -0.2775 -1.0817
 2511TIP3   OH229091   1.962   5.528   2.446 -0.3316 -0.0575 -0.1367
 2511TIP3    H129092   1.901   5.499   2.378 -0.0206  0.2183 -0.5331
 2511TIP3    H229093   2.038   5.471   2.436 -0.9868 -1.2492  1.1589
 2512TIP3   OH229094   3.665   1.320   7.914  0.4747 -0.5967 -0.6610
 2512TIP3    H129095   3.616   1.385   7.965 -0.5591 -2.1769  0.4624
 2512TIP3    H229096   3.753   1.323   7.949  0.7754  1.0082 -1.4548
 2513TIP3   OH229097   3.967   6.499   7.862 -0.3092  0.1972  0.9295
 2513TIP3    H129098   3.959   6.573   7.802  1.0129  0.7093  1.3429
 2513TIP3    H229099   3.939   6.534   7.947 -1.9884 -0.4704  0.6812
 2514TIP3   OH229100   1.990   2.538   0.343  0.4785 -0.5380  0.0011
 2514TIP3    H129101   1.955   2.521   0.256  1.3678 -1.5699 -0.1836
 2514TIP3    H229102   2.055   2.469   0.357 -0.6722 -1.3196  2.0760
 2515TIP3   OH229103   6.044   1.087   2.138  0.2043 -0.2926 -0.3098
 2515TIP3    H129104   5.992   1.106   2.216  2.5538 -0.7549  1.4789
 2515TIP3    H229105   6.100   1.164   2.127  1.1967 -1.0180 -0.4151
 2516TIP3   OH229106   0.648   4.182   0.731  0.1083  0.1227 -0.3184
 2516TIP3    H129107   0.615   4.216   0.648  0.7101 -2.5886 -1.7729
 2516TIP3    H229108   0.732   4.141   0.708  0.4009 -0.4871  1.6780
 2517TIP3   OH229109   2.315   1.889   0.075 -0.2486  0.0848 -0.3138
 2517TIP3    H129110   2.342   1.831   0.004 -2.1203 -1.3555  0.0624
 2517TIP3    H229111   2.370   1.865   0.149  0.2939  0.1448 -0.6929
 2518TIP3   OH229112   6.230   4.452   8.121  0.4837  0.4367 -0.0561
 2518TIP3    H129113   6.222   4.405   8.205  2.5861  2.2855  1.2947
 2518TIP3    H229114   6.153   4.509   8.118  0.4712  0.4727  0.7206
 2519TIP3   OH229115   4.891   5.429   1.312  0.2943  0.0851  0.2019
 2519TIP3    H129116   4.974   5.388   1.288  0.5633  1.0689 -0.6020
 2519TIP3    H229117   4.830   5.356   1.322  1.1236 -0.6072  0.2942
 2520TIP3   OH229118   1.262   4.707   8.065  0.1115 -0.5048 -0.1700
 2520TIP3    H129119   1.278   4.618   8.032 -1.8243 -1.4910  1.4106
 2520TIP3    H229120   1.175   4.729   8.033  0.0987  0.3545  0.4341
 2521TIP3   OH229121   2.735   0.485   0.270 -0.7621 -0.0482  0.7581
 2521TIP3    H129122   2.751   0.505   0.362 -0.5671  0.4110  0.6277
 2521TIP3    H229123   2.796   0.415   0.249 -0.1357  0.4969  0.7298
 2522TIP3   OH229124   4.673   5.831   6.929 -0.1141  0.7756  0.2147
 2522TIP3    H129125   4.705   5.822   7.019  1.8869  1.4824 -0.3829
 2522TIP3    H229126   4.662   5.742   6.898 -1.5001  0.5124  1.3606
 2523TIP3   OH229127   3.829   0.619   1.918  0.4722 -0.7981  0.1094
 2523TIP3    H129128   3.759   0.556   1.903  0.4310 -0.6161 -0.4957
 2523TIP3    H229129   3.783   0.700   1.939  0.5125 -0.8232  0.2923
 2524TIP3   OH229130   3.244   4.779   6.341  0.0913 -0.1835  0.2179
 2524TIP3    H129131   3.299   4.744   6.271 -0.1004  1.4151 -0.7762
 2524TIP3    H229132   3.155   4.756   6.315 -0.0270  0.9217 -0.3884
 2525TIP3   OH229133   3.619   1.937   0.719 -0.9340  0.6662 -0.1351
 2525TIP3    H129134   3.707   1.941   0.756 -0.4250 -0.7710 -1.0973
 2525TIP3    H229135   3.615   2.012   0.659  0.1420  0.0041 -1.0755
 2526TIP3   OH229136   5.744   6.581   1.109 -0.1845  0.6326  0.2336
 2526TIP3    H129137   5.718   6.573   1.201  0.1429 -0.5923  0.2344
 2526TIP3    H229138   5.732   6.674   1.089  0.5644  1.0973  1.7634
 2527TIP3   OH229139   0.813   0.003   1.459  0.4978  0.9731  0.5700
 2527TIP3    H129140   0.737   0.058   1.440  1.4687  1.8603 -0.8557
 2527TIP3    H229141   0.777  -0.070   1.511 -1.3122  1.3649 -0.0654
 2528TIP3   OH229142   4.548   6.066   8.005 -0.0691  0.1394  0.3066
 2528TIP3    H129143   4.503   6.138   8.050  0.6158  1.1252 -0.5235
 2528TIP3    H229144   4.640   6.077   8.029  0.0705 -0.3352 -0.0037
 2529TIP3   OH229145   0.503   2.194   0.172 -0.5927 -0.2058  0.0941
 2529TIP3    H129146   0.507   2.255   0.098 -1.4876 -1.1720 -0.7926
 2529TIP3    H229147   0.494   2.250   0.249 -0.8053  0.7901 -0.6329
 2530TIP3   OH229148   5.860   4.522   7.428 -0.2682 -0.5602  0.0970
 2530TIP3    H129149   5.953   4.510   7.410 -0.3149 -1.1623  0.2452
 2530TIP3    H229150   5.818   4.513   7.342 -0.3103 -1.5797  0.2181
 2531TIP3   OH229151   1.218   6.749   8.188 -0.1524 -0.2527 -0.2349
 2531TIP3    H129152   1.156   6.701   8.132 -0.6686 -0.0499  0.1494
 2531TIP3    H229153   1.261   6.682   8.240 -1.5714 -0.2628  1.0026
 2532TIP3   OH229154   2.072   4.753   7.778 -0.4399  0.3810 -0.1125
 2532TIP3    H129155   2.132   4.683   7.803 -2.1326 -1.6362 -1.3110
 2532TIP3    H229156   2.123   4.807   7.717  0.2652 -1.1654 -0.9652
 2533TIP3   OH229157   1.780   5.491   8.369 -0.5408  0.0457  0.2163
 2533TIP3    H129158   1.731   5.443   8.435  0.5505  1.7819  2.4287
 2533TIP3    H229159   1.719   5.558   8.337 -0.8026 -0.2714  0.0368
 2534TIP3   OH229160   1.176   4.155   1.926  0.3246 -0.6757  0.2386
 2534TIP3    H129161   1.099   4.100   1.909  0.4080 -0.7587  0.1287
 2534TIP3    H229162   1.141   4.231   1.973 -0.2577  0.5390 -1.9710
 2535TIP3   OH229163   1.631   1.322   1.135 -0.1547  0.0936  0.0987
 2535TIP3    H129164   1.549   1.318   1.086 -0.2922 -1.7294  0.4023
 2535TIP3    H229165   1.604   1.327   1.227  0.0721  0.1604  0.1620
 2536TIP3   OH229166   5.313   1.778   8.528  0.3764 -0.3998 -0.7750
 2536TIP3    H129167   5.229   1.819   8.549 -0.2682 -1.9909  0.0122
 2536TIP3    H229168   5.379   1.845   8.545 -0.7421  1.0115 -1.8006
 2537TIP3   OH229169   4.215   2.263   7.934  0.0130 -0.2030  0.6327
 2537TIP3    H129170   4.166   2.191   7.973  0.0560 -0.7382 -0.2863
 2537TIP3    H229171   4.300   2.262   7.978  0.0871 -0.8439  0.4829
 2538TIP3   OH229172   0.807   2.672   2.170  0.4074  0.6489  0.2778
 2538TIP3    H129173   0.783   2.688   2.079  1.2585  1.1292  0.1343
 2538TIP3    H229174   0.782   2.580   2.185  2.1669 -0.1128 -1.0836
 2539TIP3   OH229175   3.094   3.667   7.588 -0.2266 -0.4654  0.3535
 2539TIP3    H129176   3.071   3.760   7.585  0.7644 -0.2270 -1.6079
 2539TIP3    H229177   3.179   3.662   7.545 -0.5717 -2.3650 -0.1901
 2540TIP3   OH229178   4.229   3.993   7.286  0.0465  0.2712 -0.0520
 2540TIP3    H129179   4.135   3.975   7.278  0.1309 -2.1285  2.8568
 2540TIP3    H229180   4.235   4.060   7.354  0.4516 -2.0613  2.3620
 2541TIP3   OH229181   5.107   6.264   7.995  0.1055  0.6304  0.2785
 2541TIP3    H129182   5.172   6.249   8.063 -0.7479  0.3592  1.0539
 2541TIP3    H229183   5.157   6.298   7.920  1.3306 -0.9493  0.3479
 2542TIP3   OH229184   4.827   6.272   8.622 -0.3562 -0.2447 -0.2672
 2542TIP3    H129185   4.785   6.296   8.704  0.2552  0.5346 -0.1641
 2542TIP3    H229186   4.883   6.198   8.644 -0.4207 -0.2263 -0.0455
 2543TIP3   OH229187   6.449   3.155   8.453 -0.0602  0.5351 -0.7263
 2543TIP3    H129188   6.450   3.068   8.492  0.3289 -0.0818 -2.0622
 2543TIP3    H229189   6.375   3.199   8.494  0.2580 -0.1229  0.5888
 2544TIP3   OH229190   1.198   3.058   0.740 -0.1050 -0.5442 -1.2948
 2544TIP3    H129191   1.290   3.073   0.760 -0.0495 -1.5139 -0.7173
 2544TIP3    H229192   1.198   3.012   0.656 -0.1754  1.0169 -2.1705
 2545TIP3   OH229193   2.955   6.272   6.766 -0.4792 -0.4783 -0.0481
 2545TIP3    H129194   2.888   6.339   6.759  0.1761  0.4532  1.9257
 2545TIP3    H229195   2.941   6.233   6.853 -0.2554 -2.2679 -0.7671
 2546TIP3   OH229196   1.005   0.418   0.398 -0.6146  0.2283  0.2515
 2546TIP3    H129197   0.933   0.395   0.339 -0.4356  0.3951 -0.0333
 2546TIP3    H229198   1.005   0.513   0.401  1.4620  0.4108 -2.1300
 2547TIP3   OH229199   2.523   0.686   7.976 -0.2604  0.0799  0.8784
 2547TIP3    H129200   2.481   0.671   7.891  0.6129 -1.6828  0.7142
 2547TIP3    H229201   2.452   0.712   8.034 -1.1267 -0.2195 -0.0224
 2548TIP3   OH229202   5.014   0.721   7.507 -0.4889 -0.0125  0.3487
 2548TIP3    H129203   4.985   0.642   7.463  0.4814 -0.6459  0.8242
 2548TIP3    H229204   5.102   0.701   7.539 -0.7018  0.8239  1.5467
 2549TIP3   OH229205   3.442   1.826   8.593 -0.1668 -0.4654  0.8117
 2549TIP3    H129206   3.457   1.793   8.681  0.4656 -1.2669  0.4166
 2549TIP3    H229207   3.526   1.864   8.567 -1.1041  2.4535  1.6205
 2550TIP3   OH229208   5.974   5.448   0.013 -0.4132  0.9996  0.0666
 2550TIP3    H129209   5.973   5.361  -0.025  0.5219  1.8528 -2.0507
 2550TIP3    H229210   5.934   5.504  -0.053 -0.2710  2.3042  1.0460
 2551TIP3   OH229211   2.255   1.178   0.837  0.5179 -0.3517 -0.5405
 2551TIP3    H129212   2.277   1.218   0.921  1.3211  0.6082 -1.1888
 2551TIP3    H229213   2.207   1.246   0.790  1.7065 -0.1933 -1.5748
 2552TIP3   OH229214   1.184   3.314   7.462  0.4997 -0.4498  0.1083
 2552TIP3    H129215   1.261   3.290   7.411  0.2123 -0.2248 -0.4440
 2552TIP3    H229216   1.184   3.409   7.464  1.4881 -0.4534  2.0735
 2553TIP3   OH229217   3.262   2.872   1.651  0.2434 -0.5758  0.1563
 2553TIP3    H129218   3.189   2.894   1.708  1.3045 -0.7447  1.6664
 2553TIP3    H229219   3.257   2.935   1.579 -0.2233  0.7163  1.2782
 2554TIP3   OH229220   0.804   2.734   8.085  0.1395  0.1137 -0.3796
 2554TIP3    H129221   0.884   2.758   8.039  0.1519  1.8811  0.5180
 2554TIP3    H229222   0.757   2.678   8.022  0.0397  2.5935 -2.7220
 2555TIP3   OH229223   2.023   6.349   1.577 -0.3654  0.4238 -0.4815
 2555TIP3    H129224   2.094   6.305   1.531 -1.0195 -2.2928  0.8765
 2555TIP3    H229225   1.948   6.342   1.517 -0.9259 -2.1074  0.3753
 2556TIP3   OH229226   6.610   3.716   1.734  0.0097  0.1363 -0.1694
 2556TIP3    H129227   6.604   3.680   1.823  0.2385 -1.3021 -0.7094
 2556TIP3    H229228   6.640   3.806   1.747 -0.5004  0.1226  1.2382
 2557TIP3   OH229229   0.466   1.605   0.223 -0.0458 -0.7935 -0.5553
 2557TIP3    H129230   0.410   1.672   0.183  0.9346  1.0198  0.9729
 2557TIP3    H229231   0.418   1.523   0.210 -3.6531  0.7476  1.5317
 2558TIP3   OH229232   3.758   5.482   1.142  0.0068  0.4548  0.1903
 2558TIP3    H129233   3.767   5.493   1.048 -0.1893  0.8574  0.2150
 2558TIP3    H229234   3.827   5.537   1.179  0.9111 -0.6828  0.2620
 2559TIP3   OH229235   4.097   0.930   0.111  0.4699  0.3231  0.2306
 2559TIP3    H129236   4.011   0.890   0.121  0.5739  0.2274  0.7848
 2559TIP3    H229237   4.147   0.866   0.060 -0.3006  1.1578 -1.6739
 2560TIP3   OH229238   2.313   3.288   1.166 -0.6527 -0.5582 -0.5834
 2560TIP3    H129239   2.299   3.376   1.201 -1.0146 -1.1027  0.6989
 2560TIP3    H229240   2.226   3.247   1.169 -1.2486  0.0401 -4.2273
 2561TIP3   OH229241   2.167   5.087   8.197 -0.0524  0.1459 -0.0265
 2561TIP3    H129242   2.125   5.171   8.216  2.4767  1.4003  0.3247
 2561TIP3    H229243   2.116   5.023   8.247  1.3439  2.2363  4.5258
 2562TIP3   OH229244   6.271   5.852   8.468  0.1455  0.1261 -0.0004
 2562TIP3    H129245   6.324   5.920   8.509 -0.8177  1.2999 -0.6537
 2562TIP3    H229246   6.254   5.789   8.538 -1.7253  2.2158  1.5883
 2563TIP3   OH229247   4.368   0.790   0.580 -0.7157 -0.0302 -0.7109
 2563TIP3    H129248   4.319   0.840   0.516 -1.1956 -1.1131 -1.2238
 2563TIP3    H229249   4.353   0.834   0.663 -2.5325 -0.3043 -0.8629
 2564TIP3   OH229250   6.726   3.350   1.179  0.7191 -0.2768 -0.2386
 2564TIP3    H129251   6.806   3.399   1.158  0.2471  0.5137 -0.2214
 2564TIP3    H229252   6.731   3.272   1.123  1.2474  0.0180 -0.6206
 2565TIP3   OH229253   1.661   5.118   0.219  0.2473 -0.1163 -0.4126
 2565TIP3    H129254   1.675   5.163   0.135  0.4528 -1.1032 -0.9156
 2565TIP3    H229255   1.739   5.065   0.231  2.1764  2.9194  2.3723
 2566TIP3   OH229256   6.397   3.090   0.097  0.1391 -0.1575  0.3993
 2566TIP3    H129257   6.376   3.079   0.190  1.7113 -0.7727  0.7137
 2566TIP3    H229258   6.413   3.001   0.066  1.7239  0.2210  0.0783
 2567TIP3   OH229259   0.074   5.691   8.157  0.2984  0.6592 -0.5513
 2567TIP3    H129260   0.114   5.722   8.075  0.0620  1.8747 -0.2280
 2567TIP3    H229261   0.037   5.770   8.196  0.3844  0.0804  0.7205
 2568TIP3   OH229262   2.868   0.260   0.952  0.1285  0.0388  0.4016
 2568TIP3    H129263   2.851   0.200   0.879  0.2146 -0.2138  0.5866
 2568TIP3    H229264   2.785   0.262   1.000  0.3853 -0.6199  0.8895
 2569TIP3   OH229265   0.834   5.967   7.948  0.7445  0.3619  0.3087
 2569TIP3    H129266   0.747   5.967   7.988  1.2638 -0.3011  1.4656
 2569TIP3    H229267   0.869   6.054   7.966  1.3687 -0.2451  2.2280
 2570TIP3   OH229268   6.470   3.470   1.259  0.0985  0.1133 -0.2899
 2570TIP3    H129269   6.489   3.512   1.343 -0.2225 -2.5807  1.2416
 2570TIP3    H229270   6.554   3.431   1.233 -0.2881 -0.8912 -0.0775
 2571TIP3   OH229271   3.809   6.115   0.348 -0.3736  0.2636 -0.0465
 2571TIP3    H129272   3.896   6.110   0.308 -0.4487 -0.3284 -0.1346
 2571TIP3    H229273   3.749   6.085   0.280 -0.6848  0.9821 -0.0991
 2572TIP3   OH229274   5.272   2.587   0.507 -0.3740 -0.5763 -0.1139
 2572TIP3    H129275   5.347   2.542   0.470 -0.3448 -1.7163  1.2554
 2572TIP3    H229276   5.284   2.679   0.483  1.3656 -0.7678 -0.0449
 2573TIP3   OH229277   3.527   5.534   7.669  0.1845  0.2913  0.0961
 2573TIP3    H129278   3.517   5.439   7.663  1.1100  0.0103  2.2249
 2573TIP3    H229279   3.611   5.547   7.713 -1.3223  1.9842  2.7453
 2574TIP3   OH229280   3.931   6.504   1.847 -0.4795 -0.1572 -0.0665
 2574TIP3    H129281   3.899   6.507   1.756 -0.0306  0.5946 -0.2059
 2574TIP3    H229282   3.993   6.431   1.848 -1.0257 -0.6353 -0.1747
 2575TIP3   OH229283   5.621   1.448   0.093  0.3917  0.0539 -0.2748
 2575TIP3    H129284   5.612   1.541   0.072  1.7996  0.4968  0.9052
 2575TIP3    H229285   5.715   1.432   0.087  0.3217 -0.9330  0.9814
 2576TIP3   OH229286   6.471   6.108   7.953  0.0553 -0.2675  0.1210
 2576TIP3    H129287   6.499   6.167   7.883  3.2639 -1.7853 -0.0513
 2576TIP3    H229288   6.440   6.166   8.023 -1.2182  1.3512 -1.6960
 2577TIP3   OH229289   6.568   1.222   1.400 -0.0774 -0.7466 -0.1522
 2577TIP3    H129290   6.514   1.215   1.322 -0.9387  0.7823  0.2576
 2577TIP3    H229291   6.645   1.273   1.372 -0.7184  0.4080  0.1201
 2578TIP3   OH229292   1.839   4.211   2.235 -0.4613  0.0589 -0.0687
 2578TIP3    H129293   1.761   4.175   2.192 -1.1979  0.0449  1.2405
 2578TIP3    H229294   1.890   4.249   2.163 -1.8976  0.4870 -0.8963
 2579TIP3   OH229295   4.820   1.854   8.627  0.0981  0.0531 -0.0328
 2579TIP3    H129296   4.803   1.762   8.649 -1.1733  0.0229 -1.0170
 2579TIP3    H229297   4.798   1.860   8.534  0.8858  1.1959 -0.1576
 2580TIP3   OH229298   5.793   2.763   8.426 -0.9342  0.2344 -0.6483
 2580TIP3    H129299   5.852   2.826   8.468  0.3283 -1.9701  1.0893
 2580TIP3    H229300   5.708   2.807   8.427 -0.0873  1.9825  0.3227
 2581TIP3   OH229301   0.487   6.052   6.642 -0.4943  0.1495  0.1311
 2581TIP3    H129302   0.542   6.014   6.574  1.0230  0.3324  1.1971
 2581TIP3    H229303   0.472   6.142   6.613  0.0223  0.1841 -0.0507
 2582TIP3   OH229304   4.529   0.601   8.622 -0.6282 -0.3966 -0.5460
 2582TIP3    H129305   4.602   0.635   8.674 -1.9748  2.1187 -0.1433
 2582TIP3    H229306   4.484   0.541   8.680 -0.2325 -0.1410  0.0337
 2583TIP3   OH229307   2.063   3.808   8.320 -0.4681 -0.3949  0.1571
 2583TIP3    H129308   1.991   3.870   8.307 -1.0974 -1.0964  0.2167
 2583TIP3    H229309   2.028   3.724   8.288 -0.2430 -1.0793  1.6044
 2584TIP3   OH229310   5.103   3.531   7.213  0.0770  0.0711  0.3392
 2584TIP3    H129311   5.037   3.480   7.261 -0.2200 -0.7545 -0.8901
 2584TIP3    H229312   5.060   3.615   7.196  0.6061  0.8270  2.4681
 2585TIP3   OH229313   0.201   2.851   1.549 -0.0549  0.3198  0.0457
 2585TIP3    H129314   0.228   2.915   1.614 -0.8065  1.5546 -0.7954
 2585TIP3    H229315   0.106   2.841   1.563  0.2061 -1.4728  0.8680
 2586TIP3   OH229316   6.157   3.613   7.025  0.2846  0.3069  0.1128
 2586TIP3    H129317   6.157   3.536   7.080 -0.2429  0.6379  0.5907
 2586TIP3    H229318   6.142   3.579   6.936 -0.7929 -0.0812  0.4244
 2587TIP3   OH229319   5.355   2.802   1.830 -0.3180  0.7988 -0.3364
 2587TIP3    H129320   5.422   2.783   1.896 -1.3748 -1.2734  0.2473
 2587TIP3    H229321   5.283   2.841   1.879 -0.5054  0.7005 -0.5330
 2588TIP3   OH229322   3.700   5.628   0.428  0.4021  0.4029  0.3461
 2588TIP3    H129323   3.769   5.562   0.433  0.6451  0.6724  0.6017
 2588TIP3    H229324   3.747   5.709   0.409  0.2118  0.6837  1.0341
 2589TIP3   OH229325   6.519   5.459   7.349 -0.1239  0.3095  0.3200
 2589TIP3    H129326   6.571   5.522   7.298  1.4510 -1.2873 -0.1227
 2589TIP3    H229327   6.480   5.402   7.283  0.0934 -0.4107  0.8137
 2590TIP3   OH229328   3.620   2.647   0.139 -0.0119  0.7385  0.4843
 2590TIP3    H129329   3.550   2.712   0.133  1.3481  2.2665  0.4552
 2590TIP3    H229330   3.655   2.641   0.050 -0.7270 -0.7644  0.2851
 2591TIP3   OH229331   4.874   5.888   6.689  0.7929  0.4893 -0.2250
 2591TIP3    H129332   4.779   5.894   6.696  0.7760 -0.0378  0.0816
 2591TIP3    H229333   4.902   5.972   6.653  0.3606  1.2279  1.1494
 2592TIP3   OH229334   3.713   0.500   6.120  0.7537  0.2383 -0.7548
 2592TIP3    H129335   3.745   0.412   6.102  0.6179  0.0879 -0.2735
 2592TIP3    H229336   3.621   0.488   6.142  1.1592  0.2869  1.0787
 2593TIP3   OH229337   3.225   6.544   7.190  0.0151  0.3681 -0.2590
 2593TIP3    H129338   3.226   6.451   7.213  2.7386  0.5302  0.7820
 2593TIP3    H229339   3.316   6.572   7.204 -0.6105  3.0723 -1.0599
 2594TIP3   OH229340   4.071   2.052   8.319  0.2784 -0.2347 -0.3246
 2594TIP3    H129341   4.086   2.141   8.287 -1.1568  0.3403  0.4878
 2594TIP3    H229342   4.049   2.002   8.241  0.9357  0.1705 -0.7719
 2595TIP3   OH229343   0.834   1.091   0.550  1.0218  0.1610 -0.5611
 2595TIP3    H129344   0.836   1.001   0.518  2.8919  0.1884 -0.6292
 2595TIP3    H229345   0.923   1.124   0.536  0.6235  1.7284  0.3000
 2596TIP3   OH229346   5.974   5.830   7.796  0.0166 -0.3762  0.4360
 2596TIP3    H129347   6.047   5.770   7.807 -1.0713 -1.5617  1.3355
 2596TIP3    H229348   5.903   5.777   7.759 -0.6424  0.5914  0.2412
 2597TIP3   OH229349   1.509   4.160   0.920 -0.2456 -0.2930  0.3582
 2597TIP3    H129350   1.578   4.108   0.960 -0.4457 -0.4223  0.5357
 2597TIP3    H229351   1.527   4.250   0.949 -0.3021 -0.3636  0.6146
 2598TIP3   OH229352   2.700   4.455   8.612  0.0643 -0.0936 -0.3225
 2598TIP3    H129353   2.616   4.419   8.584  0.3468 -1.4369  0.4547
 2598TIP3    H229354   2.678   4.516   8.683 -0.2492 -0.6558  0.0727
 2599TIP3   OH229355   6.517   1.485   1.169  0.6577  0.0757 -0.5729
 2599TIP3    H129356   6.431   1.480   1.211  0.8441 -0.0750 -0.2014
 2599TIP3    H229357   6.532   1.397   1.135  1.5129 -0.4765  1.0897
 2600TIP3   OH229358   3.813   3.697   1.581 -0.1724  0.0716 -0.2003
 2600TIP3    H129359   3.854   3.768   1.532  0.2694 -0.0602 -0.0336
 2600TIP3    H229360   3.871   3.684   1.656 -0.7641  0.1801  0.2836
 2601TIP3   OH229361   0.457   2.143   7.070 -0.1299  0.0144  0.6190
 2601TIP3    H129362   0.370   2.165   7.103  0.2566  2.3727  0.2713
 2601TIP3    H229363   0.484   2.221   7.022  2.1409 -0.6979  0.6399
 2602TIP3   OH229364   4.017   0.841   1.899 -0.4274 -0.3098  0.0221
 2602TIP3    H129365   3.944   0.780   1.911 -0.9914  0.4168  0.3391
 2602TIP3    H229366   4.065   0.837   1.982  0.2667 -1.2526 -0.4072
 2603TIP3   OH229367   1.689   1.489   1.831 -0.0061  0.4944  0.1170
 2603TIP3    H129368   1.626   1.538   1.883  0.7133  2.5295 -0.8313
 2603TIP3    H229369   1.636   1.429   1.778 -1.0443  1.3299  0.1896
 2604TIP3   OH229370   5.965   5.923   1.025  0.2903 -0.1150  0.7236
 2604TIP3    H129371   5.934   6.012   1.039  0.1402  0.0236 -0.4095
 2604TIP3    H229372   6.027   5.907   1.096 -0.8471  0.3274  1.8534
 2605TIP3   OH229373   4.583   2.020   7.708  0.1702  0.3680 -0.7615
 2605TIP3    H129374   4.603   1.931   7.677  0.7962  0.1649  0.2011
 2605TIP3    H229375   4.616   2.077   7.639 -1.2440 -0.1631 -1.9326
 2606TIP3   OH229376   6.110   5.436   7.767  0.2134 -0.1664  0.1753
 2606TIP3    H129377   6.139   5.524   7.790  0.3112 -0.0055 -0.5308
 2606TIP3    H229378   6.158   5.415   7.687 -1.9491  0.3160 -1.3402
 2607TIP3   OH229379   2.896   4.548   0.110  0.1829  0.7415  0.5619
 2607TIP3    H129380   2.957   4.603   0.061  0.0425  0.5755  0.1962
 2607TIP3    H229381   2.936   4.538   0.196  1.1653 -0.1676  0.0230
 2608TIP3   OH229382   1.665   3.630   7.406  0.1443  0.0559 -0.3219
 2608TIP3    H129383   1.712   3.703   7.447  0.1385 -0.6099  0.9264
 2608TIP3    H229384   1.722   3.555   7.418  0.6525  0.0192 -2.5935
 2609TIP3   OH229385   0.019   6.733   8.540 -0.1746 -0.5629  0.5615
 2609TIP3    H129386   0.030   6.669   8.610  1.4872  0.3878  1.2450
 2609TIP3    H229387   0.045   6.816   8.580  1.0253 -0.0172 -1.2071
 2610TIP3   OH229388   6.688   1.870   1.601 -0.5921 -0.4240 -0.0284
 2610TIP3    H129389   6.765   1.914   1.636  0.0198 -1.7072  0.2847
 2610TIP3    H229390   6.722   1.797   1.550 -1.5899 -0.8533 -0.1133
 2611TIP3   OH229391   4.693   4.961   6.702  0.0328 -0.5617  0.3242
 2611TIP3    H129392   4.785   4.981   6.687  0.0225 -0.1339  0.8097
 2611TIP3    H229393   4.645   5.038   6.671 -0.1530 -0.7104  0.2326
 2612TIP3   OH229394   1.078   2.990   8.360  0.4707 -0.2647  0.1443
 2612TIP3    H129395   0.988   3.021   8.369  0.1881 -0.8248 -0.6746
 2612TIP3    H229396   1.070   2.898   8.336  1.2688 -0.3783  0.2762
 2613TIP3   OH229397   6.008   5.223   8.566 -0.2007  0.3108 -0.0265
 2613TIP3    H129398   5.991   5.135   8.532 -0.6246 -0.4213  1.9392
 2613TIP3    H229399   6.065   5.263   8.501 -1.5724 -0.6976 -1.9350
 2614TIP3   OH229400   3.011   2.161   8.200 -0.3803  0.3814 -0.4877
 2614TIP3    H129401   3.017   2.199   8.113 -4.1922  1.2984 -0.5271
 2614TIP3    H229402   2.988   2.234   8.257 -0.1680 -0.5818  0.9073
 2615TIP3   OH229403   5.484   1.981   8.594 -0.7048 -0.4726 -0.2187
 2615TIP3    H129404   5.489   2.034   8.514 -0.5083  1.1379  0.8261
 2615TIP3    H229405   5.528   2.033   8.660  1.2903 -2.8137  0.4536
 2616TIP3   OH229406   5.301   3.672   0.674 -0.1225 -0.3384 -0.1797
 2616TIP3    H129407   5.245   3.599   0.701  1.0707 -1.6357 -1.0086
 2616TIP3    H229408   5.388   3.650   0.709  0.4558  0.2241 -1.1929
 2617TIP3   OH229409   6.754   5.379   8.282 -0.3341  0.2026  0.2204
 2617TIP3    H129410   6.711   5.445   8.227  0.0119 -0.3756 -0.7694
 2617TIP3    H229411   6.778   5.309   8.222 -1.8141 -1.4335  1.4356
 2618TIP3   OH229412   4.426   5.081   2.131 -0.1541  0.1307 -0.7406
 2618TIP3    H129413   4.475   5.008   2.094 -0.8041  0.0793 -1.5473
 2618TIP3    H229414   4.428   5.067   2.225  0.0534 -0.7123 -0.8668
 2619TIP3   OH229415   2.589   5.995   1.751 -0.1688  0.5781  0.0893
 2619TIP3    H129416   2.570   6.037   1.667  0.2632 -0.4802 -0.5549
 2619TIP3    H229417   2.552   5.907   1.744  0.4180  0.2571  0.7649
 2620TIP3   OH229418   0.674   1.957   1.368 -0.0523 -0.3552 -0.3550
 2620TIP3    H129419   0.701   2.012   1.295 -1.6714 -0.2863 -0.9452
 2620TIP3    H229420   0.750   1.902   1.386  0.9988  0.8756 -0.8854
 2621TIP3   OH229421   0.334   6.811   1.392 -0.0450 -0.8710 -0.1318
 2621TIP3    H129422   0.418   6.852   1.411 -0.6879  0.4291  0.0998
 2621TIP3    H229423   0.270   6.882   1.405 -1.4138 -2.3822  1.9804
 2622TIP3   OH229424   1.214   2.775   1.130 -0.5153  0.3318 -0.2468
 2622TIP3    H129425   1.299   2.805   1.161 -0.0465  1.2609 -2.2926
 2622TIP3    H229426   1.233   2.697   1.078 -0.8402  0.7368 -0.9971
 2623TIP3   OH229427   2.398   2.963   1.258  0.0002 -0.1967  0.3502
 2623TIP3    H129428   2.411   2.873   1.228  1.1878 -0.3160  1.1703
 2623TIP3    H229429   2.440   3.016   1.191 -2.6886 -0.0310 -1.3902
 2624TIP3   OH229430   5.426   2.693   2.470 -0.1136  0.2241 -0.6466
 2624TIP3    H129431   5.485   2.752   2.518 -0.7466 -0.0231  0.4887
 2624TIP3    H229432   5.430   2.723   2.379  2.1714 -0.1561 -0.7109
 2625TIP3   OH229433   5.966   1.847   1.824 -0.0776  0.2421 -0.1152
 2625TIP3    H129434   6.005   1.831   1.910  1.2573  2.2002 -0.3055
 2625TIP3    H229435   5.948   1.941   1.823 -1.1854  0.0423 -1.5508
 2626TIP3   OH229436   4.921   4.604   6.823  0.0267  0.3221  0.0467
 2626TIP3    H129437   4.912   4.512   6.799 -0.3780  0.0308  1.2477
 2626TIP3    H229438   4.831   4.635   6.833  0.1324  0.0366  2.5094
 2627TIP3   OH229439   0.896   4.920   0.195  0.3225  0.2157 -0.1935
 2627TIP3    H129440   0.916   5.000   0.243 -0.8212  1.2003 -1.2839
 2627TIP3    H229441   0.805   4.931   0.166  0.2973 -1.2630 -0.7746
 2628TIP3   OH229442   3.379   3.571   7.193  0.2557 -0.2481  0.0213
 2628TIP3    H129443   3.353   3.547   7.104 -0.4940  1.4179 -0.2602
 2628TIP3    H229444   3.439   3.502   7.220 -1.7066 -2.3355 -0.6847
 2629TIP3   OH229445   1.423   3.675   8.649  0.3789  0.1974 -0.0735
 2629TIP3    H129446   1.365   3.601   8.631 -0.5435  1.0383 -0.6202
 2629TIP3    H229447   1.510   3.643   8.624 -0.1862 -0.2785 -1.5760
 2630TIP3   OH229448   4.276   0.153   7.148  0.1618  0.0420 -0.0090
 2630TIP3    H129449   4.260   0.061   7.128 -0.4119  0.1939 -0.2668
 2630TIP3    H229450   4.359   0.173   7.106 -0.0615 -0.1699 -0.5566
 2631TIP3   OH229451   0.893   4.704   6.651 -0.1238 -0.1615 -0.3047
 2631TIP3    H129452   0.849   4.766   6.710  0.7061  0.3957 -0.2468
 2631TIP3    H229453   0.822   4.666   6.599 -0.6929  0.5764 -0.0942
 2632TIP3   OH229454   2.020   3.725   1.247  0.2185 -0.1112  0.3140
 2632TIP3    H129455   2.018   3.819   1.262 -0.3114 -0.1190  0.2794
 2632TIP3    H229456   1.938   3.705   1.202  0.6041 -0.4996 -0.2273
 2633TIP3   OH229457   0.958   4.829   8.580  0.0522  0.1371 -0.2230
 2633TIP3    H129458   1.018   4.892   8.621  0.9289 -0.3735 -0.6998
 2633TIP3    H229459   0.873   4.874   8.579  0.3331  0.7223  0.8031
 2634TIP3   OH229460   0.663   5.814   0.775 -0.7271 -0.2820  0.2659
 2634TIP3    H129461   0.568   5.800   0.766 -0.6610  0.0239 -1.1146
 2634TIP3    H229462   0.699   5.726   0.780 -1.0847 -0.4020  0.8402
 2635TIP3   OH229463   4.439   2.228   1.727  0.5689  0.1516  0.1741
 2635TIP3    H129464   4.468   2.267   1.810  0.9847 -1.2193  0.7005
 2635TIP3    H229465   4.345   2.214   1.740  0.3486  1.2639 -0.1496
 2636TIP3   OH229466   0.855   3.189   7.711  0.6968  0.1589 -0.8477
 2636TIP3    H129467   0.934   3.192   7.765  0.0902  0.1479  0.0631
 2636TIP3    H229468   0.859   3.270   7.659  1.7267 -0.2593 -1.4387
 2637TIP3   OH229469   5.279   4.128   7.573  0.1056 -0.0884 -0.1294
 2637TIP3    H129470   5.286   4.034   7.556  1.0512  0.0685 -0.6849
 2637TIP3    H229471   5.189   4.151   7.546 -0.1189 -0.8173 -0.0148
 2638TIP3   OH229472   5.060   3.068   1.351  0.0618  0.1430  0.1431
 2638TIP3    H129473   5.056   3.025   1.266  1.2070  0.9537 -0.3524
 2638TIP3    H229474   5.135   3.128   1.344 -0.9094  1.5338  1.0978
 2639TIP3   OH229475   5.767   6.680   8.510  0.1784  0.2949  0.0888
 2639TIP3    H129476   5.766   6.747   8.441  1.6087  0.5605  0.2890
 2639TIP3    H229477   5.816   6.720   8.581  0.5065 -0.7381  0.4590
 2640TIP3   OH229478   5.637   6.285   7.472 -0.8682 -0.5031 -0.5480
 2640TIP3    H129479   5.552   6.273   7.513  0.2656  1.3129  2.6940
 2640TIP3    H229480   5.685   6.344   7.531  2.2469 -0.5017 -2.7877
 2641TIP3   OH229481   1.819   3.543   2.001 -0.5463  0.1179 -0.3171
 2641TIP3    H129482   1.902   3.510   2.034  0.0773  1.3992 -0.5075
 2641TIP3    H229483   1.752   3.491   2.045  0.3395 -0.4051  0.4401
 2642TIP3   OH229484   3.264   5.538   0.448  0.1756 -0.3917 -0.0658
 2642TIP3    H129485   3.318   5.464   0.474 -0.3456 -0.5321  0.6161
 2642TIP3    H229486   3.318   5.615   0.468  0.7672 -0.5705 -0.8930
 2643TIP3   OH229487   6.699   0.987   2.450  0.3660  0.1630 -0.1564
 2643TIP3    H129488   6.788   0.997   2.416  0.6244  0.6586  0.6322
 2643TIP3    H229489   6.699   0.901   2.491  0.5482  0.2458  0.0211
 2644TIP3   OH229490   3.273   1.577   7.267  0.6585 -0.4335  0.0728
 2644TIP3    H129491   3.252   1.666   7.295  0.2468 -0.5742  0.2138
 2644TIP3    H229492   3.319   1.588   7.184 -1.0352 -0.1784 -0.8610
 2645TIP3   OH229493   0.785   0.196   0.782 -0.2090  0.2700  0.3806
 2645TIP3    H129494   0.738   0.255   0.840  0.6510  0.5928  0.7672
 2645TIP3    H229495   0.863   0.245   0.756  1.5516 -1.3718  2.2612
 2646TIP3   OH229496   5.340   2.178   6.450  0.5627  0.2455 -0.5541
 2646TIP3    H129497   5.434   2.163   6.461 -0.0427 -1.4670  4.3556
 2646TIP3    H229498   5.321   2.255   6.503 -1.2420 -1.6758  1.7959
 2647TIP3   OH229499   1.019   5.794   8.076 -0.2434  0.4695 -0.5533
 2647TIP3    H129500   1.098   5.832   8.115 -0.6481  0.3877  0.3771
 2647TIP3    H229501   0.978   5.867   8.030  0.7481  0.3389 -1.6652
 2648TIP3   OH229502   4.841   0.772   6.731 -0.4163  0.1850  0.1000
 2648TIP3    H129503   4.849   0.709   6.660 -0.8119  1.4651 -1.1373
 2648TIP3    H229504   4.779   0.837   6.699  1.0894  2.0121  0.6726
 2649TIP3   OH229505   5.290   4.448   0.118  0.4190  0.5486  0.0402
 2649TIP3    H129506   5.243   4.398   0.185  0.1673 -0.2094 -0.6957
 2649TIP3    H229507   5.224   4.466   0.051  0.2999  2.5354  0.6101
 2650TIP3   OH229508   2.319   6.588   8.643  0.5512  0.5719 -0.4096
 2650TIP3    H129509   2.377   6.554   8.711  0.2713  0.7810 -0.0663
 2650TIP3    H229510   2.262   6.650   8.688 -0.3662 -0.1099 -0.6122
 2651TIP3   OH229511   3.951   0.726   0.403  0.0220 -0.7534 -0.0349
 2651TIP3    H129512   3.894   0.788   0.449  2.3871  0.7031  1.1025
 2651TIP3    H229513   3.903   0.707   0.322 -1.7203  1.0050  0.4823
 2652TIP3   OH229514   6.654   4.186   2.187  0.0316 -0.0518  0.0603
 2652TIP3    H129515   6.733   4.169   2.134 -0.3527  3.1007 -1.7609
 2652TIP3    H229516   6.583   4.143   2.138 -0.2550  2.4935 -1.9520
 2653TIP3   OH229517   2.315   0.832   8.036  0.1928 -0.0993  0.3502
 2653TIP3    H129518   2.248   0.886   7.994  1.2901 -0.7449 -2.4283
 2653TIP3    H229519   2.384   0.894   8.060  0.1903  0.1193 -0.1925
 2654TIP3   OH229520   3.060   0.254   1.156 -0.0040  0.1505  0.2039
 2654TIP3    H129521   3.015   0.217   1.232 -0.8891  1.0568  0.1370
 2654TIP3    H229522   3.018   0.211   1.081 -0.0199  0.2054  0.1812
 2655TIP3   OH229523   6.750   5.486   6.575  0.0485  1.0064 -0.3189
 2655TIP3    H129524   6.754   5.538   6.495 -0.2728  2.2699  0.4507
 2655TIP3    H229525   6.656   5.479   6.593  0.1035  0.3895 -0.2614
 2656TIP3   OH229526   0.055   3.391   7.372 -0.1028  0.6093 -0.7504
 2656TIP3    H129527   0.042   3.424   7.460 -1.4834  1.0071 -1.0786
 2656TIP3    H229528   0.014   3.456   7.315  0.5113  0.2209 -1.6720
 2657TIP3   OH229529   4.934   5.182   7.488  0.2531 -0.0167 -0.0998
 2657TIP3    H129530   4.888   5.259   7.522  1.3865  0.7143 -0.1601
 2657TIP3    H229531   5.022   5.214   7.468  0.7407 -1.3328 -0.1429
 2658TIP3   OH229532   4.669   4.840   0.486 -0.1673 -0.1255  0.0461
 2658TIP3    H129533   4.722   4.791   0.423 -1.8889 -0.0790 -1.5334
 2658TIP3    H229534   4.600   4.780   0.512 -2.6826  1.4337 -2.3901
 2659TIP3   OH229535   6.041   0.157   8.206  0.6904 -0.1975 -0.9043
 2659TIP3    H129536   6.057   0.081   8.149  1.4449  0.1794 -1.2063
 2659TIP3    H229537   6.121   0.165   8.257  0.7587  0.6307 -1.1412
 2660TIP3   OH229538   4.401   0.452   1.479  0.4454  0.4327  0.0858
 2660TIP3    H129539   4.353   0.396   1.541  1.2904 -0.2940  0.0899
 2660TIP3    H229540   4.338   0.521   1.457 -1.5900 -1.8477 -1.8872
 2661TIP3   OH229541   3.018   1.931   7.995 -0.5833 -0.3206 -0.9208
 2661TIP3    H129542   3.089   1.986   7.963 -1.4728  2.2089  1.1514
 2661TIP3    H229543   3.004   1.867   7.925  2.3007  0.3537 -2.2721
 2662TIP3   OH229544   0.207   6.440   8.459  0.7177  0.0057 -0.5663
 2662TIP3    H129545   0.273   6.476   8.519  2.8230 -3.0760 -0.8089
 2662TIP3    H229546   0.255   6.419   8.379 -0.8819 -0.9722 -1.3261
 2663TIP3   OH229547   4.131   5.727   7.928 -0.5857  0.3088  0.6466
 2663TIP3    H129548   4.137   5.649   7.982  0.0394  0.8038  1.3163
 2663TIP3    H229549   4.170   5.702   7.844 -2.5226 -0.7846  0.0073
 2664TIP3   OH229550   4.944   1.603   7.626 -0.1978  0.1245 -0.9205
 2664TIP3    H129551   4.919   1.631   7.538 -2.7045 -0.5320 -0.4718
 2664TIP3    H229552   4.867   1.560   7.661  1.2101 -0.9340  1.0964
 2665TIP3   OH229553   2.167   6.371   8.591  0.1490  0.4562  0.6231
 2665TIP3    H129554   2.163   6.304   8.659  2.1247 -1.5592 -1.0532
 2665TIP3    H229555   2.220   6.441   8.629  0.0619  0.0041  1.6092
 2666TIP3   OH229556   6.602   3.974   6.958  0.7590  0.0253 -0.1145
 2666TIP3    H129557   6.619   3.891   7.003  0.1095 -1.1025 -1.8568
 2666TIP3    H229558   6.645   3.965   6.873  1.5894  1.9367  0.0308
 2667TIP3   OH229559   1.620   2.671   0.013  0.4538 -0.3047  0.1443
 2667TIP3    H129560   1.550   2.618  -0.025 -1.1889  1.3934  0.6372
 2667TIP3    H229561   1.614   2.755  -0.034  0.6378  0.6469  1.7505
 2668TIP3   OH229562   5.783   2.218   0.598  0.3483  0.6725 -0.1889
 2668TIP3    H129563   5.838   2.179   0.666  1.3356 -0.4387 -1.5768
 2668TIP3    H229564   5.702   2.166   0.600  0.9636 -0.3418 -0.8412
 2669TIP3   OH229565   5.969   3.582   8.242 -0.1693 -0.0152 -0.2615
 2669TIP3    H129566   6.052   3.534   8.236 -0.2914 -0.3456  0.6285
 2669TIP3    H229567   5.979   3.653   8.178  1.7629  1.3771  1.4229
 2670TIP3   OH229568   3.443   4.384   7.594  0.0094  0.7201  0.0165
 2670TIP3    H129569   3.507   4.452   7.615 -0.1509  0.4345  1.6255
 2670TIP3    H229570   3.486   4.302   7.617 -0.2660  0.3747 -0.6769
 2671TIP3   OH229571   2.958   5.148   7.909 -0.1505  0.3437  0.0086
 2671TIP3    H129572   2.876   5.132   7.862  0.0902 -1.5458  0.1706
 2671TIP3    H229573   2.996   5.224   7.864 -1.1669  0.1969 -1.1719
 2672TIP3   OH229574   2.982   3.008   7.261 -0.8599 -0.2318  0.3864
 2672TIP3    H129575   2.949   2.940   7.320 -1.0734 -1.0715 -0.6491
 2672TIP3    H229576   3.077   2.999   7.264 -0.8004  0.6307  1.6027
 2673TIP3   OH229577   0.791   1.323   0.283  0.2647 -0.2507  0.0473
 2673TIP3    H129578   0.709   1.302   0.237  0.1695 -0.5754  0.3565
 2673TIP3    H229579   0.774   1.297   0.373  1.0526 -1.2617 -0.0832
 2674TIP3   OH229580   4.191   1.953   0.003  0.5400 -0.1111 -0.0876
 2674TIP3    H129581   4.165   1.863  -0.015 -1.3703  0.1361  1.1429
 2674TIP3    H229582   4.121   1.988   0.059  0.5778  2.5078 -1.5052
 2675TIP3   OH229583   4.505   1.940   0.846 -1.3827  0.3860 -0.1582
 2675TIP3    H129584   4.565   1.883   0.894 -0.6265 -0.4582 -1.9791
 2675TIP3    H229585   4.525   2.028   0.876  0.4819  0.0818 -0.3536
 2676TIP3   OH229586   2.961   5.604   8.543  0.3562  0.2633  0.1593
 2676TIP3    H129587   2.905   5.551   8.486 -1.7222 -0.2976  2.5158
 2676TIP3    H229588   3.010   5.660   8.484 -1.2328 -0.6597 -2.1754
 2677TIP3   OH229589   1.453   1.252   7.546 -0.1540  0.4365 -0.1801
 2677TIP3    H129590   1.450   1.157   7.552 -0.2524  0.3735 -1.1037
 2677TIP3    H229591   1.440   1.282   7.636  0.3378 -0.4284  0.1891
 2678TIP3   OH229592   3.186   1.431   8.174  0.5997 -0.0261  0.4034
 2678TIP3    H129593   3.146   1.414   8.089  1.6326 -0.5696  0.0042
 2678TIP3    H229594   3.273   1.466   8.154  0.7945 -0.0022  1.2307
 2679TIP3   OH229595   3.734   2.370   6.602  0.3160 -0.1062  0.6016
 2679TIP3    H129596   3.776   2.441   6.555 -0.5874 -0.8491 -1.4651
 2679TIP3    H229597   3.652   2.354   6.554  0.1780 -2.0721  1.3715
 2680TIP3   OH229598   3.523   6.740   8.416  0.2488  0.2021  0.1427
 2680TIP3    H129599   3.504   6.649   8.393 -2.5695  0.9823 -1.2087
 2680TIP3    H229600   3.479   6.754   8.500 -1.0433  0.7345 -0.5788
 2681TIP3   OH229601   0.518   0.946   1.715  0.5158 -0.0919  0.0466
 2681TIP3    H129602   0.553   0.948   1.626 -0.0367  0.4045 -0.1701
 2681TIP3    H229603   0.423   0.953   1.703  0.5020  1.2581  0.7056
 2682TIP3   OH229604   6.501   1.528   7.785 -0.3102  0.0193  0.4279
 2682TIP3    H129605   6.534   1.438   7.791 -0.2354  0.0456  0.4105
 2682TIP3    H229606   6.414   1.519   7.747  0.1292  0.0464 -0.6025
 2683TIP3   OH229607   5.671   5.724   0.136 -0.5914  0.2340  0.1452
 2683TIP3    H129608   5.680   5.672   0.216  0.9432  1.2102  0.6602
 2683TIP3    H229609   5.663   5.660   0.066  0.7901 -0.6989  0.8057
 2684TIP3   OH229610   6.444   2.417   8.435 -0.0182  0.0740 -0.0339
 2684TIP3    H129611   6.467   2.504   8.468  1.4921  0.1227 -1.1557
 2684TIP3    H229612   6.512   2.359   8.469 -1.1383 -0.7580  0.9011
 2685TIP3   OH229613   0.693   3.522   0.108 -0.4958 -0.6344  0.9474
 2685TIP3    H129614   0.673   3.504   0.016  0.4473 -0.4716  0.6936
 2685TIP3    H229615   0.661   3.445   0.155 -1.6284 -0.4095  0.5827
 2686TIP3   OH229616   0.036   3.640   0.394  0.0741 -0.4364 -0.0045
 2686TIP3    H129617   0.103   3.593   0.344 -0.6754  0.2106 -1.6914
 2686TIP3    H229618  -0.015   3.571   0.436  1.1648 -0.9713  0.4744
 2687TIP3   OH229619   4.072   6.405   6.898 -0.6598  0.7687 -0.6576
 2687TIP3    H129620   4.067   6.364   6.812 -1.5243 -0.8957  0.1248
 2687TIP3    H229621   3.997   6.464   6.902 -1.6741 -0.4735 -0.4547
 2688TIP3   OH229622   5.374   3.371   2.405  0.2651  0.2121 -0.1117
 2688TIP3    H129623   5.344   3.451   2.447  0.3307 -0.0603  0.4660
 2688TIP3    H229624   5.331   3.371   2.319  0.6465  1.0950 -0.3012
 2689TIP3   OH229625   0.585   0.243   1.129 -0.1150  0.1369  0.3435
 2689TIP3    H129626   0.671   0.281   1.110 -0.5428  0.8918 -0.1677
 2689TIP3    H229627   0.597   0.149   1.118  0.7732  0.1806  0.8172
 2690TIP3   OH229628   1.322   5.220   1.682 -0.1764  0.0958  0.3788
 2690TIP3    H129629   1.302   5.185   1.769 -0.1054 -0.4919  0.1614
 2690TIP3    H229630   1.241   5.261   1.654 -0.3611 -0.1799  0.5036
 2691TIP3   OH229631   3.390   1.416   0.409  0.1939 -0.2481  0.3617
 2691TIP3    H129632   3.478   1.420   0.446 -0.0629  0.2614  0.9260
 2691TIP3    H229633   3.345   1.493   0.445 -0.8517 -1.1509  1.0461
 2692TIP3   OH229634   4.316   6.142   2.128 -0.2284 -0.4389  0.4928
 2692TIP3    H129635   4.260   6.161   2.204  1.0167 -1.0003  1.5864
 2692TIP3    H229636   4.394   6.101   2.166  0.7994  0.0478 -1.0201
 2693TIP3   OH229637   0.501   5.522   6.637  0.2154 -0.0623 -0.1549
 2693TIP3    H129638   0.590   5.522   6.601  0.3236  0.3043  0.1082
 2693TIP3    H229639   0.445   5.504   6.562  0.4707  0.2606 -0.4296
 2694TIP3   OH229640   1.843   5.309   6.597 -0.0223  0.1881 -0.2420
 2694TIP3    H129641   1.818   5.401   6.591 -1.9517 -0.2447  0.5089
 2694TIP3    H229642   1.801   5.277   6.677  1.7095 -1.0357  0.2529
 2695TIP3   OH229643   5.251   0.646   2.853 -0.1974 -0.3035 -0.1553
 2695TIP3    H129644   5.247   0.619   2.761  0.3805  0.1457 -0.3172
 2695TIP3    H229645   5.240   0.564   2.902  0.5725 -0.7171 -0.6381
 2696TIP3   OH229646   5.669   0.022   7.737 -0.1394 -0.2930 -0.1726
 2696TIP3    H129647   5.684   0.050   7.827 -2.3195  2.2705 -0.4922
 2696TIP3    H229648   5.602  -0.047   7.745 -1.2790  0.8143  0.1438
 2697TIP3   OH229649   1.347   0.486   7.809  0.2148 -0.4671 -0.1926
 2697TIP3    H129650   1.253   0.500   7.803  0.4228  1.1851 -0.0464
 2697TIP3    H229651   1.368   0.503   7.901  0.8155  0.3867 -0.4764
 2698TIP3   OH229652   0.871   6.143   1.269  0.0948  1.3520 -0.4018
 2698TIP3    H129653   0.896   6.221   1.319 -2.4202  2.3359 -0.5440
 2698TIP3    H229654   0.887   6.166   1.178 -0.6166  1.6968 -0.4412
 2699TIP3   OH229655   1.271   2.873   1.622 -0.6131 -0.0319  0.3986
 2699TIP3    H129656   1.193   2.832   1.586 -0.3649 -1.5363  1.4609
 2699TIP3    H229657   1.248   2.892   1.713 -0.6725  2.1507 -0.0108
 2700TIP3   OH229658   6.698   0.130   8.286 -0.2920 -0.1114  0.5004
 2700TIP3    H129659   6.643   0.092   8.354 -0.1246 -1.0983  0.1086
 2700TIP3    H229660   6.758   0.059   8.261 -0.3636  0.2180 -0.6745
 2701TIP3   OH229661   2.919   3.247   8.424  0.0239 -0.2228  0.6957
 2701TIP3    H129662   2.915   3.241   8.329 -0.4861  0.4662  0.6739
 2701TIP3    H229663   2.880   3.165   8.455  0.6010 -0.6463  0.3129
 2702TIP3   OH229664   4.117   0.467   8.248  0.2565  0.6486 -0.1702
 2702TIP3    H129665   4.026   0.455   8.275  0.0403  1.8300 -0.3219
 2702TIP3    H229666   4.117   0.549   8.199  1.3720  0.5643 -0.3429
 2703TIP3   OH229667   5.822   6.687   7.342  0.0945 -0.6519 -1.0051
 2703TIP3    H129668   5.904   6.731   7.318  0.4821 -1.2656 -0.8309
 2703TIP3    H229669   5.799   6.635   7.265  1.3875 -2.6916 -0.1090
 2704TIP3   OH229670   1.845   6.544   8.180  0.3453  0.1535 -0.0912
 2704TIP3    H129671   1.930   6.523   8.219 -0.3824 -0.5549  1.1686
 2704TIP3    H229672   1.855   6.522   8.088  2.4736  2.9314 -0.6432
 2705TIP3   OH229673   6.388   4.717   0.489 -0.3424 -0.0100 -0.4589
 2705TIP3    H129674   6.361   4.809   0.478 -0.2429 -0.0619 -1.1382
 2705TIP3    H229675   6.306   4.669   0.498 -0.3770  0.3703  1.8813
 2706TIP3   OH229676   4.637   1.278   1.660  0.4561 -0.0879 -0.2718
 2706TIP3    H129677   4.695   1.249   1.589 -0.3693 -1.1206 -0.5420
 2706TIP3    H229678   4.671   1.364   1.684  0.9536  0.1503 -1.7108
 2707TIP3   OH229679   3.856   4.111   0.358 -0.0286  0.2759  0.1517
 2707TIP3    H129680   3.845   4.021   0.388 -2.1245  0.4130 -0.0721
 2707TIP3    H229681   3.901   4.155   0.431 -2.5130 -0.0576  2.0182
 2708TIP3   OH229682   2.081   2.706   6.697  0.2333 -0.9239 -0.3694
 2708TIP3    H129683   2.137   2.640   6.657  1.1520  0.3614 -1.3245
 2708TIP3    H229684   2.052   2.760   6.623  0.9021  0.7306  0.5255
 2709TIP3   OH229685   6.711   5.918   1.201 -0.0756  0.0899  0.7483
 2709TIP3    H129686   6.804   5.930   1.183  0.1530 -1.7531  0.5395
 2709TIP3    H229687   6.689   5.835   1.160 -1.7708  0.3716  1.0150
 2710TIP3   OH229688   5.560   5.493   6.909  0.4779  0.8018 -0.0302
 2710TIP3    H129689   5.571   5.424   6.976 -0.3780 -0.0173 -0.6924
 2710TIP3    H229690   5.647   5.506   6.872  0.6504  0.0476  0.0965
 2711TIP3   OH229691   5.976   2.743   7.058  0.1948 -0.0595 -0.0580
 2711TIP3    H129692   6.033   2.772   6.987 -1.8654  0.2739 -1.7159
 2711TIP3    H229693   5.983   2.648   7.058 -0.0255 -0.0848 -0.9778
 2712TIP3   OH229694   5.037   0.040   0.320  0.3835  0.0003 -0.6505
 2712TIP3    H129695   4.961   0.079   0.363  0.4289  0.5973 -1.1131
 2712TIP3    H229696   5.020  -0.054   0.322 -0.8390  0.1857 -1.6464
 2713TIP3   OH229697   4.100   4.418   7.428 -0.8353 -0.1155  0.2291
 2713TIP3    H129698   4.043   4.488   7.459 -0.6580  0.6818 -1.1622
 2713TIP3    H229699   4.180   4.427   7.481 -1.2008  0.0740  0.7563
 2714TIP3   OH229700   6.383   1.198   0.371  0.3608 -0.4739  0.3652
 2714TIP3    H129701   6.342   1.118   0.403 -0.2704 -0.4422 -0.3389
 2714TIP3    H229702   6.422   1.238   0.449 -0.9868 -0.4830  1.0732
 2715TIP3   OH229703   0.230   6.250   2.509  0.1882  0.1791 -0.6896
 2715TIP3    H129704   0.145   6.250   2.464 -0.0401 -1.2044 -0.3199
 2715TIP3    H229705   0.224   6.177   2.571  1.9870 -0.5711 -1.3248
 2716TIP3   OH229706   6.686   5.128   2.444 -0.3110 -0.5188 -0.1435
 2716TIP3    H129707   6.634   5.048   2.449 -2.6461  0.9306  0.4286
 2716TIP3    H229708   6.763   5.110   2.497 -1.0773 -2.1570  0.4803
 2717TIP3   OH229709   3.437   0.658   7.962 -0.0829  0.2576 -0.9066
 2717TIP3    H129710   3.462   0.689   7.875  1.5897  1.6335  0.0091
 2717TIP3    H229711   3.394   0.574   7.946 -0.8590  1.0020 -3.1380
 2718TIP3   OH229712   0.009   1.179   7.665  0.3754  0.0518 -0.4560
 2718TIP3    H129713   0.094   1.152   7.630 -0.5506 -0.8967 -2.0874
 2718TIP3    H229714  -0.026   1.100   7.707  1.2612  1.0426  2.3714
 2719TIP3   OH229715   0.474   5.872   8.693 -0.0507 -0.3624  0.6055
 2719TIP3    H129716   0.519   5.811   8.635 -1.7267 -0.6216 -0.5014
 2719TIP3    H229717   0.385   5.837   8.700 -1.2151  2.1748 -0.4370
 2720TIP3   OH229718   5.442   5.755   2.067 -0.7851  0.4116 -0.8851
 2720TIP3    H129719   5.508   5.710   2.014 -0.9309  0.8459 -1.4432
 2720TIP3    H229720   5.390   5.683   2.105  0.1238  0.0603 -0.2547
 2721TIP3   OH229721   1.686   6.430   0.567 -0.6361  0.5169  0.7286
 2721TIP3    H129722   1.708   6.458   0.656 -0.5192  0.0710  0.8425
 2721TIP3    H229723   1.650   6.509   0.526  0.8975  1.1854  0.6201
 2722TIP3   OH229724   6.210   0.887   0.729  0.6106  0.2569 -0.2738
 2722TIP3    H129725   6.166   0.820   0.781  2.3475 -0.5927  0.1405
 2722TIP3    H229726   6.215   0.963   0.788 -1.7085  0.9685 -0.8738
 2723TIP3   OH229727   0.128   0.528   7.900 -0.1297 -0.3382 -0.4443
 2723TIP3    H129728   0.204   0.527   7.957  0.0474 -0.1847 -0.6793
 2723TIP3    H229729   0.066   0.588   7.942  0.2917  0.3551 -0.7914
 2724TIP3   OH229730   0.722   6.284   0.585 -0.6763  0.6094 -0.1931
 2724TIP3    H129731   0.678   6.310   0.666  1.2694 -0.3454  1.2662
 2724TIP3    H229732   0.712   6.189   0.581 -1.0885  0.6867 -1.2991
 2725TIP3   OH229733   2.975   6.100   6.987  0.1423 -0.0332  0.5141
 2725TIP3    H129734   2.914   6.108   7.060  0.1308 -1.0513  0.6416
 2725TIP3    H229735   3.047   6.047   7.022  0.8081  0.6364  0.1859
 2726TIP3   OH229736   5.205   0.666   2.583 -0.5808 -0.0198  0.1490
 2726TIP3    H129737   5.129   0.657   2.525 -1.3330 -0.3104  1.1503
 2726TIP3    H229738   5.247   0.747   2.555 -1.2333  0.1217 -0.4555
 2727TIP3   OH229739   3.160   3.484   0.990  0.3218  0.1429 -0.2656
 2727TIP3    H129740   3.194   3.423   0.924  0.2599  0.4255 -0.5628
 2727TIP3    H229741   3.222   3.478   1.062  2.0713  1.9724 -1.4954
 2728TIP3   OH229742   2.231   0.054   7.461 -0.2859 -0.3569  0.5888
 2728TIP3    H129743   2.317   0.085   7.488  0.0096 -0.0533 -0.6654
 2728TIP3    H229744   2.174   0.072   7.537  0.5379  0.3475  1.0545
 2729TIP3   OH229745   2.299   3.019   0.164  0.0388  0.1762 -0.8830
 2729TIP3    H129746   2.373   3.000   0.221  0.9911  1.0194 -1.7982
 2729TIP3    H229747   2.225   2.975   0.205  1.0590 -0.7723  0.0045
 2730TIP3   OH229748   3.985   0.112   8.366  0.2550 -0.5764 -0.1558
 2730TIP3    H129749   4.023   0.186   8.414 -0.8071 -0.0276 -0.1317
 2730TIP3    H229750   3.957   0.149   8.282  0.8213 -1.2285 -0.6442
 2731TIP3   OH229751   2.590   3.422   1.115  0.0585 -0.0839 -0.1208
 2731TIP3    H129752   2.645   3.359   1.161  0.1730  1.7851  2.5132
 2731TIP3    H229753   2.500   3.396   1.138 -0.0125 -0.6329 -0.9695
 2732TIP3   OH229754   2.108   1.573   0.622 -0.3290 -0.0117  0.1979
 2732TIP3    H129755   2.031   1.614   0.660 -0.3125 -0.1283  0.3568
 2732TIP3    H229756   2.119   1.492   0.672 -0.4247 -0.2628 -0.1789
 2733TIP3   OH229757   4.362   4.682   1.718 -0.4014  0.4383  0.0355
 2733TIP3    H129758   4.389   4.597   1.753  1.5316  1.3089  0.7606
 2733TIP3    H229759   4.286   4.661   1.662  1.1243 -2.0374 -1.3080
 2734TIP3   OH229760   3.378   2.131   7.089 -0.3191 -0.3359 -0.1046
 2734TIP3    H129761   3.450   2.116   7.150  0.7515  0.0392 -1.2401
 2734TIP3    H229762   3.301   2.094   7.133  0.6626 -1.2884  0.8647
 2735TIP3   OH229763   0.786   1.908   0.988 -0.1061 -0.0263 -1.1604
 2735TIP3    H129764   0.700   1.906   1.030 -0.1410  1.0473 -1.1671
 2735TIP3    H229765   0.847   1.887   1.059 -0.1557  1.8644 -0.5163
 2736TIP3   OH229766   4.281   0.225   7.853 -0.3969  0.5589 -0.3856
 2736TIP3    H129767   4.369   0.213   7.817 -0.0752 -1.9559  0.9993
 2736TIP3    H229768   4.295   0.278   7.932  0.5408 -2.6501  1.8022
 2737TIP3   OH229769   3.831   2.519   7.695 -0.0951  0.3023 -0.1634
 2737TIP3    H129770   3.846   2.425   7.688  0.9948  0.3929  0.7746
 2737TIP3    H229771   3.896   2.559   7.637 -0.3549  0.4996 -0.3259
 2738TIP3   OH229772   3.582   5.682   2.011  0.3968  0.2336 -0.0989
 2738TIP3    H129773   3.613   5.666   2.101  0.3040  0.1934 -0.0736
 2738TIP3    H229774   3.639   5.752   1.978 -1.1754  2.0852  0.8788
 2739TIP3   OH229775   2.052   1.186   1.341  0.4059 -0.0997  0.2180
 2739TIP3    H129776   2.141   1.154   1.354  1.6537  1.2058 -3.6485
 2739TIP3    H229777   2.047   1.265   1.394  1.7035  0.0150  0.2026
 2740TIP3   OH229778   6.066   4.991   1.525 -0.4600 -0.1231  0.2252
 2740TIP3    H129779   6.085   5.084   1.540  1.6098 -0.5303  0.3837
 2740TIP3    H229780   5.975   4.990   1.495 -0.4954  1.9588  0.1001
 2741TIP3   OH229781   6.376   4.423   6.554  0.2459  0.6147 -0.6080
 2741TIP3    H129782   6.443   4.355   6.556  1.0711  1.3565 -1.8318
 2741TIP3    H229783   6.294   4.375   6.551  0.6745 -0.3113  0.9494
 2742TIP3   OH229784   4.568   2.745   1.910 -0.2063  0.2193 -0.2721
 2742TIP3    H129785   4.533   2.810   1.971 -1.1496  0.2359 -0.8156
 2742TIP3    H229786   4.647   2.786   1.874 -0.5040  0.8474 -0.2192
 2743TIP3   OH229787   3.112   0.175   7.462  0.1827  0.2998 -0.0146
 2743TIP3    H129788   3.145   0.086   7.449  1.0623  0.6749 -0.4542
 2743TIP3    H229789   3.082   0.176   7.553  0.1207 -0.4599 -0.0171
 2744TIP3   OH229790   2.504   5.856   2.028 -0.1055 -0.7673  0.3420
 2744TIP3    H129791   2.509   5.834   1.935  0.6717 -0.6921  0.3669
 2744TIP3    H229792   2.535   5.778   2.073  1.3465 -0.1336  0.4718
 2745TIP3   OH229793   2.704   3.079   7.607  0.3717 -0.4894  0.4805
 2745TIP3    H129794   2.761   3.130   7.665 -0.2857  1.4163 -0.4542
 2745TIP3    H229795   2.630   3.053   7.661 -0.3521  1.4650  0.5120
 2746TIP3   OH229796   1.372   5.484   8.624 -0.9104 -0.5355  0.3117
 2746TIP3    H129797   1.353   5.402   8.669  0.1901 -1.2053 -0.3720
 2746TIP3    H229798   1.466   5.480   8.606 -0.8030  0.9555  0.3972
 2747TIP3   OH229799   5.044   6.471   6.864 -0.3611 -0.2451 -0.2183
 2747TIP3    H129800   5.074   6.394   6.912  1.1634 -1.0631 -2.3397
 2747TIP3    H229801   4.994   6.436   6.791 -2.0045  0.9310  0.2812
 2748TIP3   OH229802   4.793   3.414   1.627 -0.0680  0.0003 -0.7231
 2748TIP3    H129803   4.886   3.397   1.638 -0.3578 -0.7621  0.8412
 2748TIP3    H229804   4.756   3.331   1.599 -0.3288  0.2226 -1.0481
 2749TIP3   OH229805   1.744   3.630   0.646  0.4721  0.4816 -0.6942
 2749TIP3    H129806   1.760   3.536   0.647 -1.2083  0.1707 -0.3766
 2749TIP3    H229807   1.814   3.665   0.591  0.8147 -1.0085 -1.2645
 2750TIP3   OH229808   1.861   6.252   0.007  0.2672  0.1218 -0.7423
 2750TIP3    H129809   1.828   6.164   0.022  0.8026  0.1038  0.4215
 2750TIP3    H229810   1.810   6.284  -0.067 -1.0362 -0.5870 -0.1922
 2751TIP3   OH229811   2.444   6.747   7.701 -0.3384  0.0109 -0.3139
 2751TIP3    H129812   2.468   6.816   7.639 -0.7826 -0.1554 -0.6703
 2751TIP3    H229813   2.503   6.761   7.775 -0.9456  1.2796 -0.0305
 2752TIP3   OH229814   2.355   3.961   7.199 -0.0910  0.2003 -0.6604
 2752TIP3    H129815   2.420   4.031   7.191  0.5538 -0.4969 -1.7321
 2752TIP3    H229816   2.310   3.979   7.282  2.7336 -0.3277  1.1206
 2753TIP3   OH229817   6.110   2.062   1.508 -0.0520  0.0456 -0.0011
 2753TIP3    H129818   6.149   1.974   1.508 -1.0752 -0.4929  2.8747
 2753TIP3    H229819   6.181   2.120   1.535  0.1375 -0.1660 -0.0411
 2754TIP3   OH229820   6.496   5.414   0.517  0.0041  0.4417  0.7740
 2754TIP3    H129821   6.564   5.347   0.522  0.2387  0.4803 -1.1737
 2754TIP3    H229822   6.543   5.497   0.520 -0.3041  0.6147  3.4453
 2755TIP3   OH229823   4.232   5.679   7.686 -0.2967  0.1425  0.3565
 2755TIP3    H129824   4.238   5.772   7.661 -1.0489  0.5685  1.6548
 2755TIP3    H229825   4.322   5.654   7.708 -0.0942  0.5820  0.0312
 2756TIP3   OH229826   4.369   0.184   8.558 -0.1250  0.3343 -0.3346
 2756TIP3    H129827   4.325   0.234   8.489 -1.0733  0.0519  0.0476
 2756TIP3    H229828   4.448   0.150   8.516  0.9039  2.6841 -0.4162
 2757TIP3   OH229829   4.051   4.216   8.490  0.3078 -0.5606  0.3962
 2757TIP3    H129830   4.049   4.312   8.494 -1.7566 -0.2829 -2.9805
 2757TIP3    H229831   4.000   4.188   8.566 -1.4357  1.2330 -0.0003
 2758TIP3   OH229832   4.134   3.792   6.263 -0.5448 -0.0069 -0.0210
 2758TIP3    H129833   4.158   3.873   6.218 -0.6440 -0.8161 -1.6190
 2758TIP3    H229834   4.040   3.784   6.250 -0.2703 -1.2712 -1.4999
 2759TIP3   OH229835   0.389   3.067   1.313  0.2336 -0.3819 -0.0299
 2759TIP3    H129836   0.310   3.057   1.366 -0.6018  0.0817 -1.1580
 2759TIP3    H229837   0.358   3.066   1.222  1.5698 -0.6112 -0.5108
 2760TIP3   OH229838   2.556   3.162   6.519 -0.6590 -0.3241 -0.2057
 2760TIP3    H129839   2.613   3.096   6.559 -0.4187  0.8794  1.6011
 2760TIP3    H229840   2.603   3.190   6.440  1.7445  1.1362  1.5860
 2761TIP3   OH229841   0.957   5.530   7.981  0.4307  0.4601  0.3184
 2761TIP3    H129842   1.047   5.513   7.954 -0.0934 -1.4915 -0.3798
 2761TIP3    H229843   0.956   5.623   8.003  1.9307  1.2290 -2.3936
 2762TIP3   OH229844   5.154   6.772   6.666  0.1564  0.3544 -0.0132
 2762TIP3    H129845   5.219   6.840   6.684  3.0627 -2.0560 -0.5248
 2762TIP3    H229846   5.149   6.769   6.570 -0.6556  0.4487  0.0236
 2763TIP3   OH229847   4.044   1.970   0.236  0.5585  0.6350 -0.5613
 2763TIP3    H129848   3.973   2.031   0.218  0.9612  1.0954 -0.6003
 2763TIP3    H229849   4.013   1.919   0.311  0.5215  1.3680 -0.0726
 2764TIP3   OH229850   4.395   4.256   1.598  0.2905  0.1139  0.0976
 2764TIP3    H129851   4.433   4.171   1.577 -1.2918 -1.0643  1.7213
 2764TIP3    H229852   4.386   4.256   1.693 -1.1810  1.4495  0.0114
 2765TIP3   OH229853   3.637   1.912   8.359 -1.4432 -0.3537  0.4257
 2765TIP3    H129854   3.713   1.969   8.348 -2.2874  0.6745 -0.3387
 2765TIP3    H229855   3.607   1.895   8.270 -3.1737  0.7903  0.7235
 2766TIP3   OH229856   5.214   3.438   0.144 -0.0088 -0.2167  0.2203
 2766TIP3    H129857   5.224   3.481   0.229 -1.2167 -1.4507  1.0299
 2766TIP3    H229858   5.286   3.472   0.091 -0.5967  2.3935  0.9486
 2767TIP3   OH229859   1.686   0.551   0.103  0.4196 -0.0546  0.8129
 2767TIP3    H129860   1.673   0.469   0.151  1.3150  1.0248  3.0545
 2767TIP3    H229861   1.744   0.527   0.030  0.5022 -1.4571  1.3107
 2768TIP3   OH229862   4.264   3.547   6.282 -0.3310 -0.2585 -0.1002
 2768TIP3    H129863   4.324   3.555   6.208 -1.0944 -1.0567 -0.8319
 2768TIP3    H229864   4.217   3.631   6.284  0.5040  0.2128  0.2245
 2769TIP3   OH229865   2.877   0.943   8.189  0.3553 -0.6933  0.1320
 2769TIP3    H129866   2.805   1.006   8.187  1.1169  0.2571  1.1937
 2769TIP3    H229867   2.954   0.995   8.213  0.7148 -2.2562  2.7245
 2770TIP3   OH229868   5.277   1.923   6.347  0.1556 -0.1522  0.2153
 2770TIP3    H129869   5.297   2.014   6.326  2.0685 -0.6418 -0.3028
 2770TIP3    H229870   5.212   1.928   6.416  2.5105  1.6982  2.4875
 2771TIP3   OH229871   6.569   5.726   8.596  0.5593  0.0402 -0.4377
 2771TIP3    H129872   6.549   5.638   8.562 -0.5923  0.8640 -2.0052
 2771TIP3    H229873   6.655   5.746   8.559 -0.6329  0.8897 -2.9938
 2772TIP3   OH229874   2.022   2.357   0.059 -0.1230 -0.6557  0.1009
 2772TIP3    H129875   2.108   2.393   0.038 -1.0087  1.3107 -0.3493
 2772TIP3    H229876   1.962   2.403   0.002 -1.7220 -0.5895  1.7509
 2773TIP3   OH229877   5.321   5.275   1.369 -0.2029  0.0337  0.4542
 2773TIP3    H129878   5.241   5.233   1.339  0.8872 -1.9102  0.0966
 2773TIP3    H229879   5.380   5.269   1.294  0.2087  1.7329  0.5937
 2774TIP3   OH229880   6.210   1.842   1.159  0.0503  0.1143 -0.0754
 2774TIP3    H129881   6.276   1.787   1.117 -0.2884 -0.2285 -0.1663
 2774TIP3    H229882   6.161   1.781   1.215 -0.4053  0.2983 -0.2737
 2775TIP3   OH229883   6.637   0.930   0.102  0.4209 -0.0325  0.1779
 2775TIP3    H129884   6.594   0.987   0.039  0.2826  1.4844  1.5743
 2775TIP3    H229885   6.566   0.897   0.157  0.7060  0.0058  0.5727
 2776TIP3   OH229886   5.256   4.220   6.239 -0.3489  0.0661  0.0437
 2776TIP3    H129887   5.323   4.163   6.204 -1.7423 -2.1939  0.8450
 2776TIP3    H229888   5.182   4.162   6.258 -2.3124  2.3134 -0.1857
 2777TIP3   OH229889   0.803   3.808   0.532 -0.3624 -0.1476  0.0802
 2777TIP3    H129890   0.735   3.828   0.468  0.0384 -0.8768 -0.5981
 2777TIP3    H229891   0.885   3.813   0.482 -0.1512 -2.4048  0.0662
 2778TIP3   OH229892   2.949   1.308   6.435  0.0912 -0.1982 -0.0383
 2778TIP3    H129893   2.924   1.223   6.472 -1.0013 -0.3663 -1.0906
 2778TIP3    H229894   2.869   1.360   6.439 -0.1828 -0.3114 -2.3220
 2779TIP3   OH229895   4.489   1.637   7.710  0.4273 -0.1193  0.4016
 2779TIP3    H129896   4.570   1.688   7.706  1.1398 -1.2546 -0.0733
 2779TIP3    H229897   4.499   1.582   7.788 -0.3196  0.4151  0.8895
 2780TIP3   OH229898   0.033   1.651   8.446  0.3566  0.0675 -0.2175
 2780TIP3    H129899   0.087   1.601   8.506 -0.8487 -1.3102 -0.2100
 2780TIP3    H229900   0.040   1.604   8.363  1.0961  1.2901 -0.8735
 2781TIP3   OH229901   5.044   3.639   1.623  0.0110 -0.7042 -0.5649
 2781TIP3    H129902   4.991   3.612   1.698  0.9798 -1.5959 -0.1741
 2781TIP3    H229903   5.027   3.572   1.557 -3.3626  1.7279 -2.4691
 2782TIP3   OH229904   2.743   2.430   0.100 -0.3097  0.2446 -0.3090
 2782TIP3    H129905   2.703   2.362   0.045  0.5725 -0.9904  0.5229
 2782TIP3    H229906   2.833   2.436   0.068  0.6941 -1.5851  1.8611
 2783TIP3   OH229907   1.993   6.199   8.431  0.0042  0.0009 -0.2907
 2783TIP3    H129908   2.044   6.234   8.504 -0.6648 -1.9820  1.2124
 2783TIP3    H229909   1.902   6.211   8.458 -0.2474 -0.9324 -0.7010
 2784TIP3   OH229910   1.599   1.765   1.758  0.3187  0.0518  0.0606
 2784TIP3    H129911   1.593   1.737   1.850 -1.0489  0.8834  0.2533
 2784TIP3    H229912   1.513   1.801   1.739  1.0789  1.3380 -1.0854
 2785TIP3   OH229913   2.150   6.104   0.974  0.2245  0.7255 -0.4741
 2785TIP3    H129914   2.093   6.173   1.009 -0.1605  1.4366 -2.3730
 2785TIP3    H229915   2.226   6.103   1.033 -1.4567  0.1053  1.8353
 2786TIP3   OH229916   4.689   5.552   7.323  0.0578  0.0628  0.2848
 2786TIP3    H129917   4.720   5.463   7.310 -0.8654 -0.2223  0.0037
 2786TIP3    H229918   4.595   5.544   7.336 -0.1202  1.0398 -0.2986
 2787TIP3   OH229919   4.776   6.553   7.444  0.3269 -0.3857  1.0586
 2787TIP3    H129920   4.821   6.494   7.505 -1.6502 -1.4259  1.6248
 2787TIP3    H229921   4.686   6.518   7.440 -0.9716  2.5885  1.4527
 2788TIP3   OH229922   5.512   4.970   8.088 -0.0076  0.1567  0.2224
 2788TIP3    H129923   5.593   5.007   8.123 -0.4314  0.3018  1.0542
 2788TIP3    H229924   5.448   5.040   8.096 -0.1351  0.1793 -0.8122
 2789TIP3   OH229925   5.892   3.160   6.727 -0.1907 -0.2111 -0.4217
 2789TIP3    H129926   5.873   3.245   6.767 -0.7002 -1.1267  1.3900
 2789TIP3    H229927   5.806   3.122   6.710  0.0266 -0.8064 -0.2084
 2790TIP3   OH229928   4.845   0.804   0.509  0.0491 -0.4624 -0.0785
 2790TIP3    H129929   4.797   0.761   0.580  0.5387  0.3039  0.7329
 2790TIP3    H229930   4.925   0.837   0.550  0.4588 -0.2222 -1.0459
 2791TIP3   OH229931   5.528   2.606   1.709 -0.4811 -0.7692 -0.0182
 2791TIP3    H129932   5.476   2.686   1.697  1.6264  0.8318  0.8196
 2791TIP3    H229933   5.489   2.563   1.785 -0.6159  0.3802  0.5911
 2792TIP3   OH229934   1.264   0.280   1.510  0.5100  0.1432  0.2852
 2792TIP3    H129935   1.243   0.355   1.565  0.5406  0.3426  0.0263
 2792TIP3    H229936   1.219   0.298   1.427 -1.4458 -1.1975  0.9529
 2793TIP3   OH229937   1.914   1.033   7.501  0.0080 -0.3461  0.0879
 2793TIP3    H129938   1.842   1.011   7.561 -3.1425 -0.2113 -3.2494
 2793TIP3    H229939   1.923   0.956   7.446  0.3425  0.7101 -1.3880
 2794TIP3   OH229940   0.588   4.723   7.441  0.2888 -0.0118  0.6336
 2794TIP3    H129941   0.497   4.718   7.411  0.4012  0.1575  0.2711
 2794TIP3    H229942   0.625   4.638   7.419  1.3651  1.2021 -2.8964
 2795TIP3   OH229943   5.451   0.020   8.680  0.2293  0.2271 -0.5966
 2795TIP3    H129944   5.506   0.090   8.716 -2.7189  2.1735  0.4267
 2795TIP3    H229945   5.430  -0.035   8.755  2.5977 -1.9993 -1.4058
 2796TIP3   OH229946   1.225   2.715   8.140 -0.1429  0.0017  0.5505
 2796TIP3    H129947   1.228   2.726   8.045 -0.6358 -3.4042 -0.0139
 2796TIP3    H229948   1.157   2.649   8.154  0.2033  0.1113  3.2404
 2797TIP3   OH229949   3.323   5.661   2.097 -0.1956  0.0721 -0.3005
 2797TIP3    H129950   3.319   5.749   2.133 -0.9700  0.7100 -1.8723
 2797TIP3    H229951   3.409   5.656   2.055  0.7886 -0.7391  1.6984
 2798TIP3   OH229952   3.740   2.113   1.310 -0.1412  0.1008 -0.2001
 2798TIP3    H129953   3.698   2.176   1.251 -1.5582 -2.5898 -2.2966
 2798TIP3    H229954   3.708   2.136   1.397  0.7889  3.2647 -0.5715
 2799TIP3   OH229955   5.649   0.187   0.109  0.2667 -0.5501  0.3144
 2799TIP3    H129956   5.740   0.179   0.080  0.6546 -0.8861  1.5599
 2799TIP3    H229957   5.656   0.218   0.199 -0.8104 -1.6944  0.8095
 2800TIP3   OH229958   0.938   0.646   1.033 -0.6492 -0.3745 -0.3471
 2800TIP3    H129959   0.865   0.689   0.987 -0.2140  1.2129  0.3743
 2800TIP3    H229960   0.902   0.623   1.118 -0.6528 -0.6874 -0.4348
 2801TIP3   OH229961   6.273   5.260   1.177  0.4017  0.0647  0.4943
 2801TIP3    H129962   6.304   5.182   1.224  3.3158  0.8968  0.1593
 2801TIP3    H229963   6.309   5.250   1.089 -0.7477  0.9383 -0.0984
 2802TIP3   OH229964   1.740   0.518   8.122  0.0309 -0.3330 -0.0229
 2802TIP3    H129965   1.759   0.521   8.216  0.5482 -0.1904 -0.1306
 2802TIP3    H229966   1.682   0.593   8.107 -0.2469 -0.4971  0.2238
 2803TIP3   OH229967   0.588   5.833   7.688  0.2583 -0.3049  0.2675
 2803TIP3    H129968   0.555   5.858   7.601  1.0432  1.5862  0.4844
 2803TIP3    H229969   0.512   5.845   7.746  0.0697 -0.4266  0.0518
 2804TIP3   OH229970   5.128   3.853   7.073  0.2817 -0.5429 -0.2584
 2804TIP3    H129971   5.092   3.916   7.136 -1.0741 -2.2607  0.8045
 2804TIP3    H229972   5.207   3.819   7.116 -0.0811 -0.9702  0.0898
 2805TIP3   OH229973   1.616   6.026   1.503  0.0110 -0.5344 -0.8206
 2805TIP3    H129974   1.617   5.981   1.588  0.0267 -0.8949 -1.0094
 2805TIP3    H229975   1.526   6.056   1.494  0.1197 -0.0834 -0.4659
 2806TIP3   OH229976   1.196   4.440   7.502 -0.2844 -0.0377  0.3636
 2806TIP3    H129977   1.132   4.456   7.433  0.7383  0.1675 -0.5637
 2806TIP3    H229978   1.195   4.346   7.516 -0.0776 -0.1456 -0.3476
 2807TIP3   OH229979   1.911   5.798   1.920  0.1047  0.2068 -0.1184
 2807TIP3    H129980   1.884   5.845   1.999  3.2181  0.2049  1.1191
 2807TIP3    H229981   1.925   5.708   1.949 -0.4389 -0.2208 -1.1360
 2808TIP3   OH229982   5.975   4.255   1.894 -0.4703 -0.4190 -0.0181
 2808TIP3    H129983   5.887   4.252   1.858 -0.3646 -0.6639 -0.2572
 2808TIP3    H229984   6.033   4.247   1.818 -0.1926  2.4398 -0.2148
 2809TIP3   OH229985   2.166   2.342   8.390  0.3781 -0.3363  0.0740
 2809TIP3    H129986   2.086   2.297   8.363  0.3556 -0.0828 -0.2858
 2809TIP3    H229987   2.236   2.281   8.368  0.1944 -1.3033  1.9439
 2810TIP3   OH229988   1.176   4.922   1.706 -0.0632 -0.4718  0.1071
 2810TIP3    H129989   1.206   4.910   1.796 -0.7237 -1.5475  0.1942
 2810TIP3    H229990   1.255   4.917   1.653  0.0380 -2.5955  0.3911
 2811TIP3   OH229991   5.122   3.491   0.818 -0.3209  0.2655  0.4557
 2811TIP3    H129992   5.119   3.397   0.830  0.4950 -0.0567 -1.3962
 2811TIP3    H229993   5.071   3.507   0.738  3.5362  0.6498 -2.2341
 2812TIP3   OH229994   6.789   5.746   1.764 -0.5002  0.2472 -0.3265
 2812TIP3    H129995   6.802   5.651   1.771  0.6629  0.3209 -1.1753
 2812TIP3    H229996   6.717   5.756   1.702 -0.7390 -0.0813 -0.1076
 2813TIP3   OH229997   3.845   2.835   7.230 -0.3224  0.1413 -0.3036
 2813TIP3    H129998   3.820   2.763   7.172  1.7945 -0.7218 -0.2137
 2813TIP3    H229999   3.893   2.896   7.174 -0.9837  0.8893 -0.0922
 2814TIP3   OH230000   6.277   6.296   1.877 -0.1093 -0.1570 -0.4361
 2814TIP3    H130001   6.211   6.361   1.850 -2.8260 -2.3501  0.4371
 2814TIP3    H230002   6.320   6.335   1.953  0.2360  1.6544 -1.4845
 2815TIP3   OH230003   1.896   3.025   7.177  0.1365 -0.7197 -0.2232
 2815TIP3    H130004   1.980   3.064   7.203  0.5552 -0.2694 -2.1110
 2815TIP3    H230005   1.830   3.076   7.226  0.7346  1.6820 -1.7372
 2816TIP3   OH230006   1.952   4.685   1.977 -0.1131  0.1299  0.2048
 2816TIP3    H130007   2.005   4.756   1.942  0.8681 -0.8092 -0.2589
 2816TIP3    H230008   1.916   4.641   1.899  1.2875 -1.3752  0.3596
 2817TIP3   OH230009   5.501   5.743   1.482 -0.0918 -0.1496  0.1314
 2817TIP3    H130010   5.467   5.776   1.399 -2.1092 -1.5000  0.3509
 2817TIP3    H230011   5.561   5.672   1.457  0.4205  0.3829 -0.1841
 2818TIP3   OH230012   1.584   6.557   1.909  0.0666  0.1288  0.1844
 2818TIP3    H130013   1.517   6.580   1.973 -0.2854 -0.5320  0.0594
 2818TIP3    H230014   1.621   6.475   1.941 -0.4125 -0.4381 -0.6692
 2819TIP3   OH230015   6.241   2.255   8.336  0.1939 -0.4375 -0.4265
 2819TIP3    H130016   6.296   2.323   8.375 -1.1218  0.4109  0.0021
 2819TIP3    H230017   6.260   2.177   8.388 -0.0282  0.1905  0.6238
 2820TIP3   OH230018   2.749   6.471   1.993 -0.5166 -0.2948  0.3698
 2820TIP3    H130019   2.821   6.531   2.015  0.2891 -0.8107 -0.7503
 2820TIP3    H230020   2.675   6.502   2.045  0.0577  1.2642  0.3113
 2821TIP3   OH230021   5.884   2.292   1.451  0.6411 -0.1770  0.3965
 2821TIP3    H130022   5.863   2.201   1.474 -0.3314 -0.1218 -0.1960
 2821TIP3    H230023   5.819   2.344   1.497  0.5299  0.1384 -0.1108
 2822TIP3   OH230024   0.143   2.983   7.529 -0.2901 -0.2868 -0.6037
 2822TIP3    H130025   0.065   2.974   7.475 -1.8914  1.7183  1.2360
 2822TIP3    H230026   0.155   2.896   7.568 -1.2987 -0.7449 -1.2745
 2823TIP3   OH230027   2.227   1.749   0.415  0.0247  0.6210  0.0069
 2823TIP3    H130028   2.137   1.724   0.395  1.0042 -3.2726 -0.3079
 2823TIP3    H230029   2.239   1.725   0.507  1.3379 -1.2396 -0.5920
 2824TIP3   OH230030   1.196   5.912   1.601 -0.0871 -0.9325 -0.2340
 2824TIP3    H130031   1.153   5.888   1.683 -2.1577 -0.6487 -1.1752
 2824TIP3    H230032   1.263   5.975   1.627 -0.5211 -1.0468  1.2620
 2825TIP3   OH230033   4.735   3.776   1.127  0.6772  0.2704 -0.3366
 2825TIP3    H130034   4.772   3.770   1.039  1.7154  0.2909  0.0767
 2825TIP3    H230035   4.641   3.762   1.115  0.9862 -1.2919 -1.2530
 2826TIP3   OH230036   3.793   2.739   1.261  0.4991 -0.1609  0.5649
 2826TIP3    H130037   3.834   2.826   1.262  0.4954 -0.1365 -0.4923
 2826TIP3    H230038   3.841   2.690   1.327 -1.2622  1.4126  3.2045
 2827TIP3   OH230039   3.993   6.248   1.535 -0.7929 -0.0562 -0.5930
 2827TIP3    H130040   3.994   6.182   1.466 -1.6795 -1.8072  0.9624
 2827TIP3    H230041   3.901   6.258   1.557 -0.4745 -0.5035  1.1418
 2828TIP3   OH230042   3.477   0.052   7.809  0.1030 -0.2673 -0.4061
 2828TIP3    H130043   3.382   0.061   7.802  0.2878  2.3121 -0.7211
 2828TIP3    H230044   3.493   0.046   7.903 -0.4416 -2.9242 -0.4131
 2829TIP3   OH230045   0.197   1.989   7.498 -0.5209  0.1955 -0.1070
 2829TIP3    H130046   0.112   1.953   7.474 -0.1213  1.2648 -3.6092
 2829TIP3    H230047   0.260   1.926   7.463  0.1651  0.3147  0.8684
 2830TIP3   OH230048   2.235   1.869   1.121  0.6626  0.1479  0.1447
 2830TIP3    H130049   2.183   1.916   1.186 -0.1146  0.3380 -0.5926
 2830TIP3    H230050   2.183   1.873   1.041  1.0602 -1.0872 -0.2053
 2831TIP3   OH230051   5.591   6.271   0.487 -0.3743  0.5701  0.0915
 2831TIP3    H130052   5.553   6.206   0.429 -0.3695  0.5366  0.1258
 2831TIP3    H230053   5.685   6.270   0.466 -0.3527  0.4618  0.1956
 2832TIP3   OH230054   1.702   6.162   0.505 -0.5424  0.6062  0.5015
 2832TIP3    H130055   1.751   6.124   0.577  0.2540 -0.7018 -0.6772
 2832TIP3    H230056   1.685   6.253   0.532  1.5087  0.7489  1.4421
 2833TIP3   OH230057   6.764   5.178   6.499 -0.7962 -0.0093  0.5695
 2833TIP3    H130058   6.684   5.221   6.467  0.5581  1.1553 -1.4311
 2833TIP3    H230059   6.750   5.085   6.481 -1.7527  0.1555  0.3988
 2834TIP3   OH230060   0.176   1.877   2.072  0.2405 -0.7730 -0.4054
 2834TIP3    H130061   0.231   1.890   1.994 -0.3268 -0.3245 -0.7407
 2834TIP3    H230062   0.229   1.910   2.144  0.2040  0.1922 -0.7997
 2835TIP3   OH230063   5.205   0.566   6.915  0.8143 -0.1757 -0.4859
 2835TIP3    H130064   5.156   0.644   6.939  0.0536 -0.3306 -1.5116
 2835TIP3    H230065   5.149   0.519   6.854  0.5409 -2.3406  1.2774
 2836TIP3   OH230066   1.248   1.311   8.629 -0.3286 -0.5844 -0.4586
 2836TIP3    H130067   1.160   1.312   8.666  0.4127 -0.2438  1.4561
 2836TIP3    H230068   1.278   1.402   8.635  0.2968 -0.7695 -0.6891
 2837TIP3   OH230069   0.138   2.051   0.699 -0.1599  0.1971  0.1557
 2837TIP3    H130070   0.231   2.072   0.712  0.1030 -0.0125 -1.2009
 2837TIP3    H230071   0.092   2.128   0.731  0.5083  0.5392  0.3282
 2838TIP3   OH230072   0.893   4.963   1.335  0.7669  0.1481  0.1082
 2838TIP3    H130073   0.884   4.923   1.421  2.9828 -1.0717 -0.1516
 2838TIP3    H230074   0.982   4.998   1.333  0.4560  0.9652 -1.3614
 2839TIP3   OH230075   5.800   6.353   7.906  0.0863  0.0080 -0.6480
 2839TIP3    H130076   5.851   6.272   7.895  1.1043 -0.0740  3.2947
 2839TIP3    H230077   5.864   6.418   7.934 -1.2834  1.2043 -0.1827
 2840TIP3   OH230078   2.938   5.819   7.521 -0.3057 -0.0361  0.8731
 2840TIP3    H130079   2.980   5.830   7.606  0.8727  0.1785  0.2920
 2840TIP3    H230080   3.011   5.818   7.459 -1.2300  1.2457 -0.2785
 2841TIP3   OH230081   3.348   1.469   1.600  0.0318  0.0462  0.5732
 2841TIP3    H130082   3.415   1.447   1.664  0.6972 -0.5529 -0.3015
 2841TIP3    H230083   3.282   1.517   1.649  0.8950  0.2658  1.5383
 2842TIP3   OH230084   3.505   6.559   8.044  0.0239  0.2537  0.1617
 2842TIP3    H130085   3.414   6.587   8.052  0.7068  2.9298 -0.3341
 2842TIP3    H230086   3.523   6.562   7.949  0.7365  0.1758  0.2853
 2843TIP3   OH230087   2.258   4.434   1.124 -0.4825 -0.0667 -0.4025
 2843TIP3    H130088   2.183   4.375   1.122  0.1701 -0.9116 -2.2010
 2843TIP3    H230089   2.268   4.464   1.034  0.0184  1.7742  0.2322
 2844TIP3   OH230090   3.159   2.985   8.294 -0.0815 -0.1003  0.1611
 2844TIP3    H130091   3.096   2.994   8.223 -0.1480  2.7404  0.4777
 2844TIP3    H230092   3.198   3.072   8.303  2.0834 -1.1491  1.6372
 2845TIP3   OH230093   2.658   4.946   0.378  0.2409 -0.0746 -0.0527
 2845TIP3    H130094   2.741   4.899   0.379  0.0519 -0.4040  0.5940
 2845TIP3    H230095   2.670   5.019   0.439 -0.0562 -0.3321  0.3205
 2846TIP3   OH230096   0.613   6.719   1.693  0.0368 -0.1169  0.2050
 2846TIP3    H130097   0.651   6.635   1.667  0.3815  0.3542 -0.9039
 2846TIP3    H230098   0.612   6.717   1.788 -0.4103 -1.5787  0.2012
 2847TIP3   OH230099   2.038   5.289   1.084  0.5198  0.3072  0.1557
 2847TIP3    H130100   1.978   5.304   1.157 -0.6250 -1.7815 -0.2708
 2847TIP3    H230101   1.999   5.337   1.010  1.1744  1.6377  0.6380
 2848TIP3   OH230102   3.915   2.846   8.603  0.4307 -0.3316 -0.9195
 2848TIP3    H130103   3.920   2.829   8.509 -1.7857  0.1717 -1.1853
 2848TIP3    H230104   3.887   2.763   8.642 -1.6672  0.2236 -1.1297
 2849TIP3   OH230105   3.861   4.526   0.047  0.2096  0.0582  0.1674
 2849TIP3    H130106   3.942   4.515  -0.002  0.1846 -1.9904  0.4914
 2849TIP3    H230107   3.889   4.547   0.136  0.3971 -0.6609  0.2818
 2850TIP3   OH230108   6.642   5.683   0.139  0.6342 -0.4401 -0.6746
 2850TIP3    H130109   6.648   5.594   0.173  1.0693 -0.4137 -0.6789
 2850TIP3    H230110   6.565   5.682   0.083 -0.7702 -0.2157  1.1360
 2851TIP3   OH230111   5.892   5.640   8.461 -0.8948  0.4188 -0.2335
 2851TIP3    H130112   5.888   5.735   8.459  0.1143  0.5041  0.6282
 2851TIP3    H230113   5.981   5.619   8.431 -0.9554 -0.2203  0.0037
 2852TIP3   OH230114   4.226   3.909   7.779 -0.5805  0.3686 -0.6287
 2852TIP3    H130115   4.131   3.896   7.780 -0.4239 -0.8469 -0.3028
 2852TIP3    H230116   4.238   3.988   7.727 -1.6709 -0.4244 -2.1738
 2853TIP3   OH230117   4.419   3.412   1.606 -0.6042  0.1880 -0.1496
 2853TIP3    H130118   4.404   3.502   1.635 -1.4848  0.0736 -0.2212
 2853TIP3    H230119   4.464   3.371   1.680 -2.6686 -0.0497  1.0656
 2854TIP3   OH230120   5.359   1.737   1.372 -0.0919  0.4096  0.2784
 2854TIP3    H130121   5.419   1.798   1.414 -0.4476  0.5328  0.6016
 2854TIP3    H230122   5.293   1.717   1.438  0.7794 -1.4051  0.6591
 2855TIP3   OH230123   3.448   4.073   1.616  0.2371  0.5952 -0.0752
 2855TIP3    H130124   3.505   4.126   1.561 -0.7753 -0.5706 -2.3789
 2855TIP3    H230125   3.360   4.102   1.596 -0.3130 -1.4746 -0.9519
 2856TIP3   OH230126   1.385   1.288   6.984 -0.0845 -1.0208 -0.0314
 2856TIP3    H130127   1.473   1.312   6.956  0.0607 -1.5003  0.0189
 2856TIP3    H230128   1.337   1.371   6.983  0.7698 -0.4498  1.4746
 2857TIP3   OH230129   3.189   0.440   7.418  0.1122  0.1080  0.2345
 2857TIP3    H130130   3.163   0.355   7.452 -0.6219  0.1075 -0.2941
 2857TIP3    H230131   3.266   0.422   7.363  0.1298 -0.1709  0.3513
 2858TIP3   OH230132   6.343   5.926   0.150 -0.1241 -0.3464 -0.2305
 2858TIP3    H130133   6.334   5.974   0.068 -3.2619  0.8058  0.6533
 2858TIP3    H230134   6.409   5.974   0.200 -0.9978  1.2893 -0.5955
 2859TIP3   OH230135   1.700   3.536   8.034  0.4231 -0.5144  0.0267
 2859TIP3    H130136   1.626   3.519   7.976  0.5836 -1.1966  0.0192
 2859TIP3    H230137   1.718   3.453   8.076  2.2369 -0.8127 -1.2184
 2860TIP3   OH230138   0.590   6.191   6.355 -0.4289  0.3071  0.5096
 2860TIP3    H130139   0.639   6.109   6.349  0.5018  0.8459  0.3834
 2860TIP3    H230140   0.499   6.167   6.339  0.0201 -0.4951 -1.0441
 2861TIP3   OH230141   2.797   0.397   2.235 -0.3124 -0.2714 -0.6573
 2861TIP3    H130142   2.761   0.484   2.219  0.3131 -0.2451 -2.0193
 2861TIP3    H230143   2.727   0.337   2.211 -0.2598 -0.1731 -1.0552
 2862TIP3   OH230144   1.433   2.519   8.605  0.4859  0.9228  0.1116
 2862TIP3    H130145   1.370   2.582   8.571  1.0576  1.1164 -0.6223
 2862TIP3    H230146   1.389   2.434   8.596  0.4979  1.0038 -0.8529
 2863TIP3   OH230147   4.292   1.114   1.003 -0.3327 -0.1304  0.2245
 2863TIP3    H130148   4.327   1.127   1.091  2.3598 -0.0768 -0.7475
 2863TIP3    H230149   4.255   1.198   0.979  1.5076  0.7542  0.2994
 2864TIP3   OH230150   6.508   6.174   7.212 -0.2452 -0.0160 -0.2203
 2864TIP3    H130151   6.542   6.173   7.301  0.3128  1.0387 -0.4034
 2864TIP3    H230152   6.565   6.114   7.164  0.5425  0.7410 -0.2392
 2865TIP3   OH230153   5.028   1.548   8.278 -0.3158  0.5519 -0.1753
 2865TIP3    H130154   5.120   1.574   8.287 -0.4879  1.4262 -0.8400
 2865TIP3    H230155   5.013   1.543   8.184 -1.2995  1.7867 -0.1227
 2866TIP3   OH230156   2.221   6.004   6.893 -0.0624  0.2166  0.1710
 2866TIP3    H130157   2.163   6.026   6.966 -0.6536 -1.6907  0.3345
 2866TIP3    H230158   2.240   6.088   6.851 -4.0293  0.8990 -0.6666
 2867TIP3   OH230159   0.123   0.621   8.403  0.0636 -0.2825  0.0273
 2867TIP3    H130160   0.072   0.577   8.335 -2.1010  3.1836 -0.8398
 2867TIP3    H230161   0.080   0.594   8.485 -0.6184 -0.5355 -0.4009
 2868TIP3   OH230162   4.420   2.637   0.513  0.4133  0.3581 -0.2448
 2868TIP3    H130163   4.388   2.554   0.478  1.9337  0.4255 -1.9600
 2868TIP3    H230164   4.353   2.700   0.489 -0.9018 -0.3555  1.3325
 2869TIP3   OH230165   0.426   3.335   1.187  0.2867 -0.3776 -0.0432
 2869TIP3    H130166   0.443   3.353   1.279 -0.5659  0.6255 -0.0645
 2869TIP3    H230167   0.337   3.300   1.185 -0.3056  1.0744 -0.6174
 2870TIP3   OH230168   6.678   1.463   8.329  0.1406 -0.2422 -0.9684
 2870TIP3    H130169   6.660   1.537   8.387  0.2447  1.1335 -2.6198
 2870TIP3    H230170   6.598   1.411   8.330 -0.1227  0.1702 -0.1779
 2871TIP3   OH230171   3.570   5.768   6.587 -0.7324  0.0775  0.2582
 2871TIP3    H130172   3.642   5.829   6.577 -0.5249  0.1516  1.9529
 2871TIP3    H230173   3.501   5.802   6.529 -0.1803  1.2099  0.2468
 2872TIP3   OH230174   6.152   1.819   6.546  0.3299  0.6298  0.7803
 2872TIP3    H130175   6.102   1.877   6.489 -1.5025 -0.8342  0.7942
 2872TIP3    H230176   6.107   1.823   6.630  1.0744  0.3256  1.2070
 2873TIP3   OH230177   0.923   3.768   7.399 -0.0791  0.2839 -0.2181
 2873TIP3    H130178   0.871   3.732   7.327 -1.3275  1.0717  0.2668
 2873TIP3    H230179   0.973   3.839   7.359 -0.2599  0.2832 -0.4486
 2874TIP3   OH230180   2.214   1.081   8.588  0.0253 -0.2273  0.2551
 2874TIP3    H130181   2.279   1.075   8.518  0.0879  0.7189  0.2151
 2874TIP3    H230182   2.232   1.166   8.629 -0.5948 -0.3718  0.8384
 2875TIP3   OH230183   5.685   5.344   0.137  0.2046  0.7370  0.3817
 2875TIP3    H130184   5.659   5.380   0.052  0.6815  1.2151  0.4345
 2875TIP3    H230185   5.714   5.420   0.188  0.8266  0.3319  0.6403
 2876TIP3   OH230186   1.906   1.771   7.618 -0.5005  0.1457  0.0360
 2876TIP3    H130187   1.949   1.851   7.588 -0.2380 -0.0212 -0.0333
 2876TIP3    H230188   1.813   1.786   7.600 -0.3894  0.2082 -0.5045
 2877TIP3   OH230189   3.308   5.110   0.599 -0.0980 -0.5583 -0.4541
 2877TIP3    H130190   3.358   5.069   0.529  1.2549 -0.1375  0.2178
 2877TIP3    H230191   3.312   5.047   0.671 -1.6637 -1.0843 -0.8024
 2878TIP3   OH230192   6.570   0.165   2.275 -0.5811  0.1083 -0.7230
 2878TIP3    H130193   6.529   0.220   2.208 -1.0826  1.4035  0.5935
 2878TIP3    H230194   6.653   0.208   2.295 -0.0071 -0.7824 -1.1627
 2879TIP3   OH230195   4.815   5.261   8.207 -0.7105 -0.6658 -0.5038
 2879TIP3    H130196   4.873   5.318   8.257  0.0907 -1.5734 -0.3688
 2879TIP3    H230197   4.748   5.319   8.172 -0.4795  0.1952  0.4551
 2880TIP3   OH230198   3.525   6.043   6.794 -0.1606  0.6144 -0.1265
 2880TIP3    H130199   3.553   6.082   6.711 -0.8411  1.0136 -0.1740
 2880TIP3    H230200   3.434   6.020   6.781 -0.5267  1.4569  0.7724
 2881TIP3   OH230201   4.616   5.071   7.002  0.8945  0.3383  0.1892
 2881TIP3    H130202   4.625   4.985   7.042  1.6728  0.0010 -0.7039
 2881TIP3    H230203   4.680   5.073   6.931 -0.0927  1.1251 -0.7235
 2882TIP3   OH230204   4.142   5.867   2.374  0.0216 -0.3445 -1.0876
 2882TIP3    H130205   4.212   5.841   2.314  0.5056  0.0683 -0.7076
 2882TIP3    H230206   4.185   5.924   2.438 -0.4853 -0.7683 -0.3534
 2883TIP3   OH230207   5.752   6.088   8.456 -0.1025  0.0300  0.1473
 2883TIP3    H130208   5.673   6.076   8.510 -0.0352  0.1633  0.2767
 2883TIP3    H230209   5.755   6.010   8.401 -0.6150  0.2650 -0.2267
 2884TIP3   OH230210   1.917   2.298   8.056 -0.1317  0.1539  0.4980
 2884TIP3    H130211   1.978   2.369   8.075 -1.0660  1.1026  0.0235
 2884TIP3    H230212   1.932   2.279   7.963  1.2486 -1.4094  0.9776
 2885TIP3   OH230213   1.915   2.686   8.082 -0.0816 -0.2428  0.4379
 2885TIP3    H130214   1.826   2.683   8.116 -1.4151  0.1524 -2.6778
 2885TIP3    H230215   1.907   2.727   7.996  3.4160  1.5869  0.7846
 2886TIP3   OH230216   0.577   4.554   0.292 -0.3292  0.0146  0.0384
 2886TIP3    H130217   0.567   4.606   0.212  0.0597 -1.1830 -0.8286
 2886TIP3    H230218   0.612   4.470   0.261  2.4667  0.4227  1.7254
 2887TIP3   OH230219   6.030   1.445   8.031  0.7889  0.3934 -0.2576
 2887TIP3    H130220   5.962   1.511   8.017  1.6438  1.4083  0.2230
 2887TIP3    H230221   6.043   1.445   8.126  1.7221  0.4921 -0.3832
 2888TIP3   OH230222   1.683   4.886   2.337 -0.6162  0.0359 -0.2098
 2888TIP3    H130223   1.592   4.915   2.350 -0.3081  0.4416  1.2005
 2888TIP3    H230224   1.726   4.961   2.295 -0.8072  0.0269 -0.4275
 2889TIP3   OH230225   2.084   3.359   0.387  0.6095  0.1997  0.3830
 2889TIP3    H130226   2.065   3.318   0.471  0.1929 -0.3068  0.0527
 2889TIP3    H230227   2.180   3.357   0.381  0.6210 -0.1744  0.6479
 2890TIP3   OH230228   4.944   4.218   8.460  0.2401  0.6771 -0.2824
 2890TIP3    H130229   4.923   4.186   8.373 -2.2418 -0.2246  0.5402
 2890TIP3    H230230   4.875   4.282   8.479  0.5463  0.6252  1.1130
 2891TIP3   OH230231   2.093   5.034   0.724  0.3139 -0.2257 -1.0052
 2891TIP3    H130232   2.032   5.024   0.650 -0.5421 -1.3529 -0.1937
 2891TIP3    H230233   2.133   5.120   0.711 -0.8734  0.2102 -2.0032
 2892TIP3   OH230234   4.509   2.981   7.653 -0.0923 -0.5004  0.7836
 2892TIP3    H130235   4.413   2.982   7.652 -0.1076 -1.3624  0.4994
 2892TIP3    H230236   4.532   2.889   7.656  0.7302 -0.5592 -2.6002
 2893TIP3   OH230237   2.187   2.316   0.404  0.6240 -0.7860  0.0688
 2893TIP3    H130238   2.223   2.233   0.435 -0.6873 -1.1458  0.7170
 2893TIP3    H230239   2.246   2.343   0.333  2.1329 -1.3116  1.0776
 2894TIP3   OH230240   5.234   5.738   7.751 -0.3509 -0.3080 -0.4136
 2894TIP3    H130241   5.330   5.740   7.749 -0.2646 -1.5246  0.6965
 2894TIP3    H230242   5.213   5.683   7.827 -1.9353  0.1101 -0.5117
 2895TIP3   OH230243   1.129   4.857   0.688 -0.0344  0.0756  0.2288
 2895TIP3    H130244   1.181   4.936   0.669 -1.4634  1.4425  1.6731
 2895TIP3    H230245   1.048   4.871   0.640 -0.2026 -0.6656  0.2924
 2896TIP3   OH230246   1.931   4.338   0.151  0.2754 -0.4191 -0.4053
 2896TIP3    H130247   1.877   4.399   0.201  0.4653  0.9515 -1.8008
 2896TIP3    H230248   1.937   4.260   0.206 -0.4536  0.6039  1.1741
 2897TIP3   OH230249   2.715   1.202   8.194  0.0624  0.0069  0.3786
 2897TIP3    H130250   2.767   1.226   8.270  0.8337  0.2346 -0.2106
 2897TIP3    H230251   2.670   1.283   8.169 -0.3291 -0.1092  0.6806
 2898TIP3   OH230252   2.172   2.279   6.319  0.0968 -0.3193  0.2027
 2898TIP3    H130253   2.209   2.320   6.241  0.2873 -0.9828 -0.0651
 2898TIP3    H230254   2.247   2.245   6.367 -0.1573 -2.1765 -0.6302
 2899TIP3   OH230255   4.574   4.425   7.587  0.4839  0.1472 -0.3254
 2899TIP3    H130256   4.588   4.414   7.681  1.3799 -1.0244 -0.5624
 2899TIP3    H230257   4.656   4.396   7.547 -0.7933 -2.0408 -1.5752
 2900TIP3   OH230258   1.808   6.566   7.883 -1.0191 -0.6783  0.2298
 2900TIP3    H130259   1.870   6.613   7.827 -0.2208 -1.6640  0.2664
 2900TIP3    H230260   1.722   6.600   7.856 -0.5128  0.3529 -0.1555
 2901TIP3   OH230261   1.837   4.577   7.387  0.3101  0.6207 -0.5049
 2901TIP3    H130262   1.909   4.603   7.330  1.1179 -0.6180 -0.1017
 2901TIP3    H230263   1.880   4.548   7.468 -0.4115 -2.2493 -1.0341
 2902TIP3   OH230264   4.277   4.302   1.150 -0.4006 -0.3191  0.6775
 2902TIP3    H130265   4.327   4.254   1.215  0.4237  1.4541  1.4223
 2902TIP3    H230266   4.215   4.354   1.201 -0.9342 -0.2106 -0.0638
 2903TIP3   OH230267   1.764   3.508   2.410 -0.2347  0.0099 -0.6683
 2903TIP3    H130268   1.691   3.510   2.472  0.5820  0.2554  0.3083
 2903TIP3    H230269   1.745   3.433   2.354 -1.5343  0.4158 -0.8060
 2904TIP3   OH230270   3.891   5.338   8.271  0.1592 -0.0148  0.3714
 2904TIP3    H130271   3.816   5.342   8.330  0.6874  2.6758  1.0125
 2904TIP3    H230272   3.966   5.362   8.325  1.0963 -0.2136 -0.7816
 2905TIP3   OH230273   0.695   5.850   7.136  0.7348 -0.2339  0.1127
 2905TIP3    H130274   0.748   5.824   7.212 -1.7620 -0.3836  1.9195
 2905TIP3    H230275   0.662   5.937   7.159  2.2622  1.0231 -2.1692
 2906TIP3   OH230276   5.352   2.914   1.396  0.3863  0.0485 -0.0512
 2906TIP3    H130277   5.320   2.868   1.319  0.9575 -0.1195 -0.1955
 2906TIP3    H230278   5.331   3.006   1.380 -2.2597 -0.2858  0.9727
 2907TIP3   OH230279   1.184   3.531   6.487  0.5030 -0.2819 -0.2354
 2907TIP3    H130280   1.228   3.613   6.511  1.1351 -0.5675 -0.3922
 2907TIP3    H230281   1.248   3.463   6.506 -0.3638 -0.8420  0.8142
 2908TIP3   OH230282   0.640   2.133   7.330  0.1049 -0.0888 -0.2549
 2908TIP3    H130283   0.610   2.102   7.415 -0.0746  0.5355 -0.0783
 2908TIP3    H230284   0.559   2.147   7.280  0.1942 -0.1674 -0.4210
 2909TIP3   OH230285   6.412   3.223   1.574  0.1328  0.4399  0.5603
 2909TIP3    H130286   6.480   3.239   1.508  0.2387 -1.5210  0.1279
 2909TIP3    H230287   6.430   3.287   1.643  0.3111  2.2331 -1.0810
 2910TIP3   OH230288   4.105   4.152   1.777 -0.0799 -0.1462 -0.0573
 2910TIP3    H130289   4.156   4.072   1.769  0.8708  0.5400 -1.1723
 2910TIP3    H230290   4.160   4.211   1.828 -1.1388 -0.4513  1.5315
 2911TIP3   OH230291   5.564   2.531   0.701 -0.5970  0.1701 -0.2726
 2911TIP3    H130292   5.545   2.456   0.646 -0.1211  0.3191 -0.6475
 2911TIP3    H230293   5.587   2.494   0.786 -2.3582 -0.0218  0.1541
 2912TIP3   OH230294   6.312   3.828   7.090  0.0739  0.1199 -0.0842
 2912TIP3    H130295   6.388   3.770   7.095 -0.3999 -0.5392 -0.3640
 2912TIP3    H230296   6.237   3.769   7.077 -0.3028  0.8451 -1.3852
 2913TIP3   OH230297   2.039   3.105   7.621 -0.3486  0.9134  0.4999
 2913TIP3    H130298   2.031   3.059   7.537  0.4237 -1.3979  1.5982
 2913TIP3    H230299   2.121   3.154   7.612 -0.3379  0.7964 -0.1428
 2914TIP3   OH230300   2.589   4.810   1.128  0.7443  0.1688 -0.3360
 2914TIP3    H130301   2.587   4.889   1.183  2.0721  0.1083 -0.1626
 2914TIP3    H230302   2.515   4.758   1.159 -0.0108  1.2316 -0.2887
 2915TIP3   OH230303   2.472   5.257   6.628 -0.1444 -0.8029 -0.0379
 2915TIP3    H130304   2.534   5.215   6.688  0.4331 -2.5562 -1.7338
 2915TIP3    H230305   2.503   5.347   6.620  2.6661 -1.7728 -1.3222
 2916TIP3   OH230306   2.233   1.414   2.503  0.0703  0.4731  0.5839
 2916TIP3    H130307   2.323   1.384   2.514  0.0130 -0.2980 -0.7791
 2916TIP3    H230308   2.230   1.446   2.412 -1.1442  0.0369  0.4513
 2917TIP3   OH230309   6.776   3.155   7.390  0.0676 -0.0922  0.0895
 2917TIP3    H130310   6.827   3.236   7.398  0.8951 -0.6236  0.3880
 2917TIP3    H230311   6.693   3.174   7.434 -0.2967  1.0232 -1.0168
 2918TIP3   OH230312   5.457   2.568   8.049 -0.3531 -0.1386 -0.6712
 2918TIP3    H130313   5.434   2.475   8.049 -1.6823  0.1623  0.4120
 2918TIP3    H230314   5.375   2.614   8.068  0.6581  1.1446  0.8979
 2919TIP3   OH230315   4.065   0.676   1.281 -0.7493 -0.1505  0.3479
 2919TIP3    H130316   4.090   0.687   1.189 -2.0865 -0.2232 -0.0589
 2919TIP3    H230317   4.147   0.677   1.329  0.0269 -0.7314 -0.9126
 2920TIP3   OH230318   2.103   2.608   6.183 -0.4219 -0.4315  0.5722
 2920TIP3    H130319   2.032   2.604   6.247  0.1609 -2.0737  1.1553
 2920TIP3    H230320   2.061   2.635   6.102 -1.5028 -0.2267  1.1820
 2921TIP3   OH230321   0.413   3.190   0.318 -0.6639 -0.5312  0.4549
 2921TIP3    H130322   0.487   3.160   0.370 -1.4776  1.1478  2.7714
 2921TIP3    H230323   0.338   3.188   0.378 -2.0408 -0.0597 -1.1386
 2922TIP3   OH230324   1.612   4.100   7.520 -0.6708 -0.4716 -0.1489
 2922TIP3    H130325   1.664   4.064   7.448 -0.5150  0.1278 -0.3394
 2922TIP3    H230326   1.563   4.172   7.481 -0.6270 -0.1756  0.3327
 2923TIP3   OH230327   4.518   2.517   1.720 -0.2551  0.1496  0.4610
 2923TIP3    H130328   4.549   2.488   1.635 -1.0226 -0.9066  0.5258
 2923TIP3    H230329   4.488   2.607   1.706  0.4897  0.3097 -0.1543
 2924TIP3   OH230330   1.549   2.251   6.786  0.5006 -0.2716 -0.1799
 2924TIP3    H130331   1.568   2.305   6.863  0.4612  1.2776 -1.2265
 2924TIP3    H230332   1.598   2.170   6.801  1.8098  0.6582  0.7074
 2925TIP3   OH230333   1.069   5.190   8.324 -0.8341 -0.6130  0.0647
 2925TIP3    H130334   1.076   5.097   8.346  1.3285  0.0793  2.9539
 2925TIP3    H230335   1.030   5.230   8.401  3.2763  1.4651  1.3582
 2926TIP3   OH230336   1.521   1.979   1.939 -0.4739  0.2714  0.4087
 2926TIP3    H130337   1.475   1.932   1.869 -2.5644 -1.5708  2.8199
 2926TIP3    H230338   1.476   2.063   1.946 -1.6645 -0.3907  0.8879
 2927TIP3   OH230339   2.222   6.709   0.930 -0.1871 -0.0536 -0.7328
 2927TIP3    H130340   2.269   6.629   0.905 -0.1909 -1.0702  2.1596
 2927TIP3    H230341   2.288   6.778   0.925  1.2716 -1.1471  1.4749
 2928TIP3   OH230342   3.776   4.240   0.981 -0.1307 -0.6576  0.3772
 2928TIP3    H130343   3.761   4.288   1.063  0.3066 -2.1629  1.3979
 2928TIP3    H230344   3.842   4.290   0.934  1.9557 -1.3084  2.4109
 2929TIP3   OH230345   5.774   1.973   7.785  0.4011  0.2898 -0.4808
 2929TIP3    H130346   5.802   2.060   7.756  0.1596  1.2068  1.8231
 2929TIP3    H230347   5.741   1.986   7.874 -2.1261 -1.7131 -0.9729
 2930TIP3   OH230348   1.542   2.858   0.365 -0.1867  0.1378 -0.1759
 2930TIP3    H130349   1.485   2.782   0.351 -1.0745  1.0392 -1.6821
 2930TIP3    H230350   1.627   2.820   0.385 -0.9151 -1.2486  0.4798
 2931TIP3   OH230351   4.845   3.216   1.331  0.1274 -0.1241  0.2037
 2931TIP3    H130352   4.809   3.249   1.413  0.9337  1.8636 -0.2041
 2931TIP3    H230353   4.927   3.174   1.356 -1.2324 -2.6564  0.8189
 2932TIP3   OH230354   1.931   1.317   8.382 -0.3066 -0.1234  0.4166
 2932TIP3    H130355   1.873   1.353   8.449 -0.5334 -0.4282  0.3883
 2932TIP3    H230356   1.931   1.223   8.398 -2.7822 -0.6333 -1.8213
 2933TIP3   OH230357   4.122   0.635   6.974  0.7800 -0.4258  0.1994
 2933TIP3    H130358   4.207   0.654   7.013  0.3158 -0.5167  1.2984
 2933TIP3    H230359   4.061   0.636   7.047 -0.1386 -0.5870 -0.5350
 2934TIP3   OH230360   4.546   2.357   0.709  0.0916  0.0497  0.3734
 2934TIP3    H130361   4.562   2.451   0.716  1.5040 -0.1689  0.4385
 2934TIP3    H230362   4.530   2.329   0.799 -1.9915  0.4609  0.1789
 2935TIP3   OH230363   5.526   3.168   0.698  0.1153 -0.4503 -0.0431
 2935TIP3    H130364   5.575   3.232   0.646  0.8089 -0.9828 -0.0721
 2935TIP3    H230365   5.521   3.090   0.642 -0.4031 -0.5442  0.1272
 2936TIP3   OH230366   5.661   6.432   8.384  0.6355  0.1438 -0.7996
 2936TIP3    H130367   5.677   6.524   8.404 -0.4916 -0.0267  1.1555
 2936TIP3    H230368   5.744   6.388   8.403  0.0880  0.2323  2.3497
 2937TIP3   OH230369   3.872   1.796   8.194  0.3796  0.0087  0.1496
 2937TIP3    H130370   3.960   1.807   8.230 -0.1310 -1.1654  1.8846
 2937TIP3    H230371   3.819   1.767   8.268 -1.1697 -0.6667 -1.1544
 2938TIP3   OH230372   5.927   1.293   0.888  0.8936 -0.4300 -0.5637
 2938TIP3    H130373   5.924   1.235   0.812  2.0687  1.0719 -1.8456
 2938TIP3    H230374   5.865   1.363   0.867  0.5531 -0.4641  0.2928
 2939TIP3   OH230375   4.811   4.035   1.216 -0.0400  0.1089  0.3185
 2939TIP3    H130376   4.881   4.040   1.151 -0.3025  0.4537  0.0560
 2939TIP3    H230377   4.790   3.942   1.222 -0.1174  0.0893 -0.2056
 2940TIP3   OH230378   0.863   0.120   8.560 -0.2067 -0.6532  0.0313
 2940TIP3    H130379   0.797   0.180   8.594 -1.5277 -1.1335 -1.5618
 2940TIP3    H230380   0.883   0.061   8.633 -0.3852  0.4382  0.9930
 2941TIP3   OH230381   4.681   0.938   0.318  0.1819  0.1419 -0.2741
 2941TIP3    H130382   4.748   0.909   0.380 -2.1853 -2.5437  1.2791
 2941TIP3    H230383   4.638   1.011   0.362  0.6924  0.4744 -0.3178
 2942TIP3   OH230384   5.615   2.909   1.716 -1.1256 -0.0286  0.0524
 2942TIP3    H130385   5.579   2.985   1.761  1.4649  1.8608 -0.8253
 2942TIP3    H230386   5.663   2.861   1.784 -1.1753  0.1993  0.2499
 2943TIP3   OH230387   5.877   4.915   7.264 -0.1349 -0.2803  0.4009
 2943TIP3    H130388   5.886   4.936   7.171  1.5558  1.2905  0.8490
 2943TIP3    H230389   5.925   4.833   7.275  0.4636  0.0111  0.0264
 2944TIP3   OH230390   6.343   6.739   0.303 -0.5201 -0.6148 -0.8188
 2944TIP3    H130391   6.294   6.659   0.319 -1.6493  0.2081  0.0541
 2944TIP3    H230392   6.281   6.810   0.325  1.1887  0.4686  0.8866
 2945TIP3   OH230393   6.668   0.957   7.825  0.0654  0.4172  0.6082
 2945TIP3    H130394   6.622   0.931   7.746  1.1018  0.5453 -0.0576
 2945TIP3    H230395   6.619   0.917   7.897 -2.0460  1.8933  0.0818
 2946TIP3   OH230396   3.394   0.235   8.502  0.3632 -0.0993  0.1642
 2946TIP3    H130397   3.339   0.215   8.427 -0.0043  2.1630 -0.2393
 2946TIP3    H230398   3.364   0.321   8.532  0.2074 -1.0664  3.1829
 2947TIP3   OH230399   5.043   2.483   0.403 -0.2658  0.1403  0.2054
 2947TIP3    H130400   4.977   2.502   0.469  0.0263 -1.1279  0.8961
 2947TIP3    H230401   5.117   2.540   0.426 -1.5735  2.6700 -1.4435
 2948TIP3   OH230402   0.416   2.778   7.262 -0.0240  0.2727  0.1010
 2948TIP3    H130403   0.410   2.853   7.320 -0.8180  1.6064 -1.6157
 2948TIP3    H230404   0.479   2.804   7.195 -1.0346 -0.1812 -1.0566
 2949TIP3   OH230405   5.317   5.396   1.042 -0.1530 -0.4423 -0.2100
 2949TIP3    H130406   5.255   5.325   1.058 -0.8090 -0.0692 -1.0390
 2949TIP3    H230407   5.304   5.456   1.115  1.0853 -1.6182  1.0226
 2950TIP3   OH230408   3.878   4.691   0.864 -0.0246  0.0206  0.7858
 2950TIP3    H130409   3.917   4.718   0.948  1.0912 -0.6984  0.5164
 2950TIP3    H230410   3.875   4.596   0.869 -0.7929  0.0219  0.3626
 2951TIP3   OH230411   2.392   6.471   0.842 -0.0341 -0.5690  0.4375
 2951TIP3    H130412   2.454   6.417   0.891 -0.0201  1.1556  2.4848
 2951TIP3    H230413   2.329   6.409   0.806 -0.2290 -1.9822  2.9885
 2952TIP3   OH230414   6.703   6.474   7.515 -0.2457 -0.2188  0.6335
 2952TIP3    H130415   6.608   6.474   7.503 -0.2584  1.2699  0.5069
 2952TIP3    H230416   6.718   6.539   7.584  0.7589  0.3840 -0.1313
 2953TIP3   OH230417   5.401   0.499   8.205 -0.0788  0.6122  0.3881
 2953TIP3    H130418   5.322   0.447   8.193 -0.7170  1.4942  0.6722
 2953TIP3    H230419   5.417   0.540   8.120  0.7794 -0.4989 -0.0156
 2954TIP3   OH230420   6.804   4.371   1.647  0.0319 -0.9584 -0.1013
 2954TIP3    H130421   6.745   4.426   1.699 -0.2117 -0.9916 -0.3454
 2954TIP3    H230422   6.865   4.433   1.607  0.1315 -0.9198  0.1087
 2955TIP3   OH230423   5.888   3.214   8.088  0.0902 -0.2214 -0.6024
 2955TIP3    H130424   5.940   3.291   8.114 -0.6624  0.0124  0.2738
 2955TIP3    H230425   5.881   3.221   7.993 -0.1460  0.9389 -0.5222
 2956TIP3   OH230426   5.039   5.482   2.314 -0.6433 -0.3271  0.4764
 2956TIP3    H130427   4.991   5.477   2.397 -2.8707 -1.0029 -0.7492
 2956TIP3    H230428   5.000   5.558   2.269  1.5909  0.9724  0.6149
 2957TIP3   OH230429   3.226   1.842   7.382  0.5082 -0.2766  0.3511
 2957TIP3    H130430   3.221   1.795   7.465 -1.1312  1.7783  1.5068
 2957TIP3    H230431   3.136   1.844   7.349  0.7557  0.8388 -0.3315
 2958TIP3   OH230432   3.840   5.815   1.200 -0.8251  0.3235 -0.0612
 2958TIP3    H130433   3.930   5.834   1.175 -1.0249  2.6258  0.6846
 2958TIP3    H230434   3.790   5.818   1.118 -0.4729  0.8696 -0.2592
 2959TIP3   OH230435   1.059   1.492   0.506  0.0233 -0.2590  0.3639
 2959TIP3    H130436   1.035   1.430   0.438 -1.5154  1.8775 -1.1861
 2959TIP3    H230437   0.976   1.515   0.548  0.5734  0.6112  1.0122
 2960TIP3   OH230438   4.263   6.391   7.637 -0.1892  0.3300  0.3508
 2960TIP3    H130439   4.242   6.334   7.712 -0.0961 -0.7108 -0.3849
 2960TIP3    H230440   4.266   6.479   7.674 -0.2107 -0.1513  1.5623
 2961TIP3   OH230441   4.768   2.184   1.877 -0.2600 -0.1666 -0.0641
 2961TIP3    H130442   4.795   2.225   1.959 -1.3668 -3.3951  2.1217
 2961TIP3    H230443   4.694   2.238   1.848 -2.2102 -0.8123  3.1033
 2962TIP3   OH230444   6.568   6.556   1.155  0.1395 -0.8123  0.2722
 2962TIP3    H130445   6.532   6.523   1.237  3.0307 -0.8468  1.6762
 2962TIP3    H230446   6.497   6.607   1.116 -1.3985 -0.9048  2.7367
 2963TIP3   OH230447   5.491   5.121   0.470  0.0304 -0.5311 -0.3403
 2963TIP3    H130448   5.406   5.125   0.514  0.6903 -1.1038  1.0502
 2963TIP3    H230449   5.513   5.028   0.468  1.0411 -0.3223  0.2012
 2964TIP3   OH230450   2.018   0.707   7.072 -0.3853  0.1533  1.3623
 2964TIP3    H130451   2.002   0.795   7.105 -0.0352  1.2350 -1.1170
 2964TIP3    H230452   1.947   0.693   7.009  2.1509  0.7110 -1.8620
 2965TIP3   OH230453   1.167   2.395   6.848  0.0081 -0.2076  0.2074
 2965TIP3    H130454   1.103   2.382   6.918 -1.2154  1.9130 -0.4218
 2965TIP3    H230455   1.240   2.441   6.891  0.5859 -1.4630  0.6406
 2966TIP3   OH230456   2.804   2.289   0.397 -0.4137 -0.3054 -0.1417
 2966TIP3    H130457   2.770   2.221   0.455  0.8541 -0.5347  0.3538
 2966TIP3    H230458   2.858   2.242   0.334 -0.8849  0.0670 -0.8419
 2967TIP3   OH230459   1.174   0.305   7.565  0.0621  0.0315  0.3873
 2967TIP3    H130460   1.256   0.261   7.545  0.2810  0.5194  0.1801
 2967TIP3    H230461   1.148   0.346   7.483 -0.0546  0.4139  0.6103
 2968TIP3   OH230462   6.292   2.252   1.589  0.3288  0.4117  0.3649
 2968TIP3    H130463   6.323   2.229   1.676  0.0911 -0.1757  0.2944
 2968TIP3    H230464   6.336   2.335   1.569  3.2177 -1.2205 -0.4492
 2969TIP3   OH230465   5.685   2.983   6.973  0.4868 -0.0458  0.1267
 2969TIP3    H130466   5.660   2.988   6.881  0.7308  0.5325  0.0911
 2969TIP3    H230467   5.673   2.890   6.996 -0.6098 -0.0028 -0.1896
 2970TIP3   OH230468   0.697   5.747   6.892 -0.2898 -0.0297  0.0252
 2970TIP3    H130469   0.609   5.714   6.876 -1.1301  1.9258  0.4360
 2970TIP3    H230470   0.692   5.789   6.978  0.8177  0.8577 -0.3154
 2971TIP3   OH230471   2.678   5.793   6.615  0.2010  0.1602 -0.0628
 2971TIP3    H130472   2.774   5.785   6.609  0.1736  0.4768 -1.2093
 2971TIP3    H230473   2.664   5.869   6.672  0.5725 -1.4200  2.2748
 2972TIP3   OH230474   2.195   2.623   1.966 -0.2488 -0.0066 -0.0982
 2972TIP3    H130475   2.116   2.585   2.002 -0.5518 -0.2118 -0.9395
 2972TIP3    H230476   2.248   2.648   2.042 -0.4343 -1.2917  0.4730
 2973TIP3   OH230477   0.790   5.619   1.693  0.0953  0.1229  0.0028
 2973TIP3    H130478   0.815   5.706   1.662 -0.4639 -0.6780 -3.0680
 2973TIP3    H230479   0.705   5.602   1.652  0.8191 -2.3580 -0.7035
 2974TIP3   OH230480   4.674   3.177   1.568  0.6950 -0.1870  0.2066
 2974TIP3    H130481   4.743   3.111   1.571  0.9227  0.0112 -0.5405
 2974TIP3    H230482   4.605   3.143   1.625 -0.3374 -2.3695 -2.1413
 2975TIP3   OH230483   4.447   2.323   1.988  0.2216 -0.3773 -0.2556
 2975TIP3    H130484   4.488   2.288   2.067 -0.9738 -0.4075  0.3734
 2975TIP3    H230485   4.358   2.289   1.991  0.2608 -0.6893 -1.8292
 2976TIP3   OH230486   4.167   3.102   0.411 -0.2411 -0.2194 -0.0474
 2976TIP3    H130487   4.188   3.010   0.393 -0.8509 -0.4284  0.2682
 2976TIP3    H230488   4.175   3.145   0.326  2.4617 -0.0443  0.1915
 2977TIP3   OH230489   0.135   0.818   1.142 -0.2904  0.5328  0.0523
 2977TIP3    H130490   0.107   0.736   1.181 -1.0725  0.7361 -0.0581
 2977TIP3    H230491   0.099   0.816   1.053  1.4725  0.0698 -0.6946
 2978TIP3   OH230492   4.334   5.157   0.446  0.0121 -0.1352 -0.2847
 2978TIP3    H130493   4.347   5.063   0.433  0.8978  0.0206 -0.5795
 2978TIP3    H230494   4.372   5.175   0.532  0.0133 -0.0158 -0.3100
 2979TIP3   OH230495   5.078   0.973   1.400 -0.4017  0.5905 -0.1395
 2979TIP3    H130496   4.983   0.967   1.387 -0.2623  0.7146 -1.3528
 2979TIP3    H230497   5.091   0.956   1.493 -1.2326 -4.1927 -0.6436
 2980TIP3   OH230498   3.598   4.226   8.672  0.0642  0.7610 -0.3002
 2980TIP3    H130499   3.604   4.185   8.758 -0.1297  0.0270 -0.6333
 2980TIP3    H230500   3.605   4.320   8.690 -0.1811  0.6258  0.5356
 2981TIP3   OH230501   0.401   4.588   6.491  0.4723  0.4701 -0.0860
 2981TIP3    H130502   0.416   4.558   6.401  0.3997  1.3592 -0.4030
 2981TIP3    H230503   0.305   4.597   6.497  0.4650  0.2343  0.1373
 2982TIP3   OH230504   3.264   4.311   6.603  0.2573 -0.0801 -0.0916
 2982TIP3    H130505   3.296   4.287   6.690 -0.9098  0.2636  0.4571
 2982TIP3    H230506   3.215   4.235   6.574  1.7123 -0.7060 -1.0403
 2983TIP3   OH230507   2.367   4.141   0.779 -0.2996 -0.3515  0.7933
 2983TIP3    H130508   2.271   4.147   0.782 -0.3454 -1.2522  2.3170
 2983TIP3    H230509   2.394   4.159   0.869  0.8048 -2.2615  0.8878
 2984TIP3   OH230510   3.203   4.412   2.004 -0.3625 -0.2794  0.2909
 2984TIP3    H130511   3.249   4.481   1.956  0.1782 -0.4159  0.6167
 2984TIP3    H230512   3.118   4.451   2.025 -0.5010 -0.1155 -0.5230
 2985TIP3   OH230513   3.111   3.940   7.632 -0.2960 -0.3097  0.3202
 2985TIP3    H130514   3.126   4.015   7.575 -1.7480  0.7741  1.2905
 2985TIP3    H230515   3.191   3.932   7.683 -0.3373  0.9822  0.6178
 2986TIP3   OH230516   3.154   2.359   2.079 -0.2210 -0.2079  0.1555
 2986TIP3    H130517   3.183   2.450   2.077 -1.3427  0.1582 -0.7599
 2986TIP3    H230518   3.068   2.362   2.122 -1.1780 -0.5200 -1.6310
 2987TIP3   OH230519   3.226   6.282   8.243  0.8793 -0.5202  0.1979
 2987TIP3    H130520   3.289   6.336   8.194  0.8972 -0.7815 -0.0760
 2987TIP3    H230521   3.256   6.192   8.227  0.0911 -0.6827 -0.4244
 2988TIP3   OH230522   2.973   5.675   2.304 -0.9523 -0.3219  0.0541
 2988TIP3    H130523   3.052   5.709   2.345 -0.6123 -1.5193  0.4529
 2988TIP3    H230524   2.938   5.748   2.252  0.8981 -0.0517 -0.8710
 2989TIP3   OH230525   0.579   1.505   8.503 -0.6580  0.5090 -0.2975
 2989TIP3    H130526   0.497   1.547   8.527 -0.3397  0.2656  1.3460
 2989TIP3    H230527   0.647   1.567   8.530 -0.2504 -0.1196  0.1406
 2990TIP3   OH230528   6.106   3.965   8.045 -0.4130  0.0076 -0.9094
 2990TIP3    H130529   6.110   4.027   8.118 -1.1921  0.2395 -1.0533
 2990TIP3    H230530   6.165   3.894   8.070 -1.8332 -0.6884  0.6855
 2991TIP3   OH230531   2.290   6.094   6.274  0.1540  0.3098 -0.6431
 2991TIP3    H130532   2.201   6.123   6.295 -0.1160 -1.1754  0.4140
 2991TIP3    H230533   2.291   6.001   6.294  1.8417  0.2024 -1.0310
 2992TIP3   OH230534   1.198   6.372   1.494 -0.5383 -0.9693 -0.2431
 2992TIP3    H130535   1.229   6.414   1.574  0.2863  0.0087 -1.0507
 2992TIP3    H230536   1.174   6.444   1.436  1.2818 -1.5397 -1.8097
 2993TIP3   OH230537   1.198   0.040   0.545  0.0883  0.0956  0.4140
 2993TIP3    H130538   1.108   0.013   0.563  0.1689  0.6192  1.7260
 2993TIP3    H230539   1.242   0.034   0.629  0.5392  2.5841  0.4304
 2994TIP3   OH230540   6.567   5.249   0.862 -0.1656  0.3016 -0.2179
 2994TIP3    H130541   6.598   5.161   0.841 -3.1732 -1.0267  0.3622
 2994TIP3    H230542   6.487   5.259   0.810  0.1901  2.8004 -0.3959
 2995TIP3   OH230543   1.494   3.274   6.858  0.2406 -0.1747 -1.2900
 2995TIP3    H130544   1.421   3.214   6.837  1.5263 -1.1073 -3.4150
 2995TIP3    H230545   1.481   3.348   6.800  0.8185 -0.2133 -1.4708
 2996TIP3   OH230546   3.774   0.967   7.235  0.3477 -0.5652 -0.1973
 2996TIP3    H130547   3.780   0.986   7.141 -1.7935  0.2066 -0.2335
 2996TIP3    H230548   3.767   0.872   7.240 -0.0075 -0.5826 -0.8823
 2997TIP3   OH230549   1.566   3.622   1.732  0.1287 -0.4021 -0.9751
 2997TIP3    H130550   1.585   3.665   1.815  0.0842 -0.2079 -1.0655
 2997TIP3    H230551   1.624   3.546   1.730 -1.2324 -1.5149  0.1109
 2998TIP3   OH230552   5.451   2.049   0.249  0.0766  1.1302 -0.1169
 2998TIP3    H130553   5.410   2.130   0.219  0.5735  2.5249  2.6083
 2998TIP3    H230554   5.534   2.077   0.287  1.1250 -0.9374 -0.7035
 2999TIP3   OH230555   6.499   2.726   7.481 -0.2467  0.9125  0.4299
 2999TIP3    H130556   6.442   2.706   7.407  0.5894 -1.6496  0.3995
 2999TIP3    H230557   6.455   2.689   7.557  0.5919  0.3026  0.6399
 3000TIP3   OH230558   1.724   3.258   1.043 -0.7250  0.1109 -0.0284
 3000TIP3    H130559   1.639   3.257   1.086  0.2795 -0.1179  2.1089
 3000TIP3    H230560   1.736   3.169   1.010 -0.8134 -0.2172  0.7926
 3001TIP3   OH230561   5.155   4.661   1.317 -0.0614 -0.2904 -0.3775
 3001TIP3    H130562   5.115   4.582   1.355 -1.0147  1.0063  1.4743
 3001TIP3    H230563   5.085   4.702   1.266 -0.1530  0.3200  0.2261
 3002TIP3   OH230564   3.457   2.808   7.840  0.2438  0.2886 -0.1506
 3002TIP3    H130565   3.367   2.780   7.860  0.1543  1.0327  0.5050
 3002TIP3    H230566   3.450   2.846   7.752  0.3494 -1.5938 -1.0361
 3003TIP3   OH230567   2.159   0.850   2.206 -0.0729  0.6454 -0.2491
 3003TIP3    H130568   2.106   0.889   2.275 -2.7928 -0.3823 -1.5941
 3003TIP3    H230569   2.174   0.760   2.235  2.0877  1.2510  0.6734
 3004TIP3   OH230570   1.095   2.537   7.164  0.0906  0.1589 -0.4112
 3004TIP3    H130571   1.147   2.507   7.238  1.8230  0.1178 -1.5813
 3004TIP3    H230572   1.020   2.479   7.162 -0.8090  1.0981  2.1706
 3005TIP3   OH230573   0.639   0.697   8.085  0.0182 -0.0980 -0.0251
 3005TIP3    H130574   0.694   0.645   8.143  0.0844 -0.2185 -0.1924
 3005TIP3    H230575   0.691   0.705   8.005  0.2607  0.7306  0.2053
 3006TIP3   OH230576   4.946   3.814   8.334 -0.3241 -0.2505 -0.1119
 3006TIP3    H130577   4.989   3.893   8.302 -1.0957  0.3793  0.3574
 3006TIP3    H230578   4.994   3.742   8.294  0.0733  0.4657 -0.9495
 3007TIP3   OH230579   6.173   0.064   0.418 -0.1475  0.1980  0.3281
 3007TIP3    H130580   6.082   0.054   0.393  1.1196  0.5119 -6.0918
 3007TIP3    H230581   6.193   0.156   0.400  1.7427 -0.2387 -0.0889
 3008TIP3   OH230582   5.653   0.386   8.262  0.1265 -0.2044 -0.3614
 3008TIP3    H130583   5.611   0.300   8.261  0.9243 -0.6417  0.6282
 3008TIP3    H230584   5.581   0.449   8.264 -0.4804 -0.9034  0.4997
 3009TIP3   OH230585   3.178   1.149   7.474  0.3412  0.4935  0.2550
 3009TIP3    H130586   3.215   1.082   7.532 -0.8705 -0.6559 -0.2752
 3009TIP3    H230587   3.229   1.228   7.495  0.5779 -0.1145  2.1934
 3010TIP3   OH230588   3.857   3.418   1.715 -0.1759  1.3942 -0.5519
 3010TIP3    H130589   3.776   3.389   1.671  0.8454 -1.1004 -0.9643
 3010TIP3    H230590   3.827   3.449   1.801 -1.5698  0.1766 -0.5452
 3011TIP3   OH230591   6.084   5.317   0.854  0.2680 -0.2782 -0.3693
 3011TIP3    H130592   6.123   5.402   0.837  0.4481 -0.5705 -1.4662
 3011TIP3    H230593   6.081   5.274   0.769 -2.6510 -0.1890 -0.4188
 3012TIP3   OH230594   4.854   1.404   0.514  0.1485  0.3812  0.2494
 3012TIP3    H130595   4.891   1.492   0.523 -0.7464  0.8169 -0.2697
 3012TIP3    H230596   4.875   1.378   0.424  0.7561 -0.1124  0.5208
 3013TIP3   OH230597   3.499   2.754   7.137 -0.0595 -0.3307 -0.3780
 3013TIP3    H130598   3.508   2.701   7.216  0.8278 -0.2933 -0.4507
 3013TIP3    H230599   3.574   2.730   7.082  0.0389  0.5767 -0.6555
 3014TIP3   OH230600   0.512   0.598   1.123 -0.1468 -0.5172  0.0638
 3014TIP3    H130601   0.539   0.592   1.214  0.5959 -1.0953 -0.1847
 3014TIP3    H230602   0.571   0.663   1.085 -0.3413 -0.4069 -0.0557
 3015TIP3   OH230603   1.696   4.919   1.515 -0.0783  0.3923  0.0949
 3015TIP3    H130604   1.763   4.870   1.467 -0.0227  1.2948 -0.7651
 3015TIP3    H230605   1.622   4.923   1.455 -0.3481  0.7380  0.4467
 3016TIP3   OH230606   3.716   0.474   7.008  0.4868  0.3147  0.5363
 3016TIP3    H130607   3.799   0.441   6.973  1.5960  1.4940  1.9398
 3016TIP3    H230608   3.723   0.570   7.000 -0.6551  0.4418  0.8812
 3017TIP3   OH230609   2.781   3.851   0.124 -0.4279  0.6026 -0.0875
 3017TIP3    H130610   2.736   3.766   0.126  1.6126 -0.5584 -0.7070
 3017TIP3    H230611   2.866   3.833   0.164 -0.8590  3.0107  2.1933
 3018TIP3   OH230612   4.005   1.209   1.252 -0.0558 -0.5661  0.1874
 3018TIP3    H130613   3.984   1.236   1.163 -1.1269  0.6723  0.7873
 3018TIP3    H230614   3.949   1.134   1.269  0.0848 -0.7465 -0.1402
 3019TIP3   OH230615   1.086   0.123   0.171 -0.1264  0.2187  0.1490
 3019TIP3    H130616   1.027   0.064   0.125 -0.1517  0.4552 -0.1277
 3019TIP3    H230617   1.104   0.193   0.108 -0.8171  0.9821  0.7746
 3020TIP3   OH230618   1.458   2.922   0.650  0.2958  0.0304  0.3131
 3020TIP3    H130619   1.398   2.860   0.690  0.2550  0.2106  0.5297
 3020TIP3    H230620   1.467   2.892   0.559  0.4628 -0.4268  0.4818
 3021TIP3   OH230621   6.818   6.349   8.512  0.0022 -0.0072 -0.5058
 3021TIP3    H130622   6.760   6.418   8.480 -0.4716 -0.6303 -0.9903
 3021TIP3    H230623   6.906   6.387   8.505 -0.2189  0.3844 -1.1908
 3022TIP3   OH230624   0.770   6.668   0.411 -0.5704  0.6817  0.6711
 3022TIP3    H130625   0.763   6.732   0.482  1.5042  1.5151  0.2209
 3022TIP3    H230626   0.839   6.704   0.354 -0.7775 -0.9622 -0.6953
 3023TIP3   OH230627   3.412   2.176   0.007  0.4150  0.2863  0.0688
 3023TIP3    H130628   3.410   2.165  -0.088 -1.0943  0.7220  0.0274
 3023TIP3    H230629   3.418   2.270   0.020  1.9604  0.1643  0.4342
 3024TIP3   OH230630   1.543   0.575   1.913  0.0164  0.4414 -0.0680
 3024TIP3    H130631   1.603   0.508   1.880 -1.1823 -0.0956 -1.2563
 3024TIP3    H230632   1.513   0.542   1.997  0.3469  0.0668 -0.0938
 3025TIP3   OH230633   5.946   3.142   1.953 -0.2771 -0.1359  0.4206
 3025TIP3    H130634   5.923   3.203   1.883 -2.0601 -1.6421 -0.3851
 3025TIP3    H230635   6.033   3.170   1.982  0.7579  0.2190 -2.7292
 3026TIP3   OH230636   0.024   5.817   0.463  0.0788  0.1811  0.1528
 3026TIP3    H130637   0.070   5.869   0.529 -0.0437  0.8602 -0.2902
 3026TIP3    H230638   0.003   5.735   0.508  1.2897  0.0435  0.5147
 3027TIP3   OH230639   3.423   2.806   0.085 -0.1209 -0.1292 -0.1970
 3027TIP3    H130640   3.352   2.827   0.024 -0.1283  1.0342  0.1953
 3027TIP3    H230641   3.404   2.857   0.163  1.9515  1.4324 -0.6368
 3028TIP3   OH230642   2.977   2.982   8.110 -0.1399  0.4758  0.1910
 3028TIP3    H130643   2.928   3.064   8.103 -0.3125  0.2141 -3.4784
 3028TIP3    H230644   2.936   2.924   8.046  1.7569 -1.5286  0.6702
 3029TIP3   OH230645   6.633   0.721   2.489 -0.4932 -0.4573 -0.0879
 3029TIP3    H130646   6.606   0.663   2.560  0.3412 -1.1560 -0.3305
 3029TIP3    H230647   6.569   0.705   2.419 -1.8533  0.8728  0.7831
 3030TIP3   OH230648   2.107   2.885   1.069  0.1013 -0.1911  0.5487
 3030TIP3    H130649   2.098   2.868   1.163  0.8023  0.9189  0.8437
 3030TIP3    H230650   2.023   2.924   1.044 -0.6003 -1.7454  0.3909
 3031TIP3   OH230651   3.271   0.495   8.590 -0.3069  0.2777 -0.2109
 3031TIP3    H130652   3.265   0.579   8.544  0.5492 -0.6436 -2.1613
 3031TIP3    H230653   3.364   0.487   8.612 -0.4475 -0.0064  0.2883
 3032TIP3   OH230654   2.891   6.137   1.753 -0.7049 -0.1245  0.3579
 3032TIP3    H130655   2.965   6.092   1.710 -1.8058  0.0452 -1.8887
 3032TIP3    H230656   2.886   6.097   1.839  0.4359 -1.9528 -0.3508
 3033TIP3   OH230657   2.347   3.308   1.588  0.1181  0.2671  0.2495
 3033TIP3    H130658   2.371   3.279   1.676 -0.6023  1.2061  0.7722
 3033TIP3    H230659   2.429   3.341   1.552 -0.1544  3.0534  1.8681
 3034TIP3   OH230660   4.022   5.073   7.899 -0.3285  0.0514  0.1868
 3034TIP3    H130661   3.948   5.115   7.943  0.1209  0.3059  0.7164
 3034TIP3    H230662   4.026   5.117   7.814 -1.2371 -0.4838 -0.1506
 3035TIP3   OH230663   2.529   6.642   0.612  0.0561 -0.1425 -0.2147
 3035TIP3    H130664   2.469   6.717   0.614  0.2576  0.0035  1.0601
 3035TIP3    H230665   2.508   6.593   0.691  1.6291 -0.0852  0.2679
 3036TIP3   OH230666   5.549   4.215   8.460 -0.4342  0.2559  0.1450
 3036TIP3    H130667   5.538   4.268   8.381 -2.5004 -0.0232  0.2009
 3036TIP3    H230668   5.630   4.167   8.445 -0.3897  0.7604 -1.4769
 3037TIP3   OH230669   6.059   1.032   7.633 -0.0631  0.4648 -0.2485
 3037TIP3    H130670   6.046   0.944   7.667 -1.5168  0.2429 -1.2933
 3037TIP3    H230671   6.031   1.090   7.704 -2.6980  0.0182 -0.8317
 3038TIP3   OH230672   5.953   6.744   0.843  0.0376 -0.5415 -0.4025
 3038TIP3    H130673   5.896   6.700   0.779 -0.8560  0.3810 -0.2726
 3038TIP3    H230674   5.907   6.826   0.863  1.2892  0.0963 -0.0687
 3039TIP3   OH230675   1.187   5.507   8.392 -0.2859 -0.0218 -0.3888
 3039TIP3    H130676   1.265   5.514   8.447 -0.1491 -2.0033 -0.2708
 3039TIP3    H230677   1.218   5.526   8.303  0.2687 -0.4649 -0.2942
 3040TIP3   OH230678   5.573   4.052   2.336  0.2197  0.2847 -0.0203
 3040TIP3    H130679   5.557   3.989   2.406 -3.3097 -0.1690 -1.0897
 3040TIP3    H230680   5.516   4.126   2.356  0.2095  0.7640 -1.6605
 3041TIP3   OH230681   1.359   3.994   1.099  0.0876 -0.1541  0.0552
 3041TIP3    H130682   1.349   4.055   1.025  1.4036  0.7322  0.5658
 3041TIP3    H230683   1.396   4.048   1.169 -1.3736 -0.9082  1.4722
 3042TIP3   OH230684   4.211   3.282   8.343 -0.7882  0.4504 -0.1574
 3042TIP3    H130685   4.170   3.199   8.367 -0.8341  0.8386  1.2146
 3042TIP3    H230686   4.143   3.330   8.296 -0.4784 -0.6154 -1.7789
 3043TIP3   OH230687   5.511   1.877   7.688 -0.6420  0.6834 -0.3521
 3043TIP3    H130688   5.426   1.905   7.721 -0.8118  1.9687 -1.7807
 3043TIP3    H230689   5.573   1.941   7.723 -0.2110 -0.3461  0.8219
 3044TIP3   OH230690   6.387   0.808   8.588 -0.3432  0.1240  0.1797
 3044TIP3    H130691   6.325   0.743   8.555 -0.3789  0.4395 -0.3789
 3044TIP3    H230692   6.472   0.762   8.587 -0.3081  0.2070 -0.5660
 3045TIP3   OH230693   6.242   5.565   6.445 -0.1516  0.0774 -0.4222
 3045TIP3    H130694   6.316   5.615   6.478 -0.3642  0.6290 -0.7715
 3045TIP3    H230695   6.175   5.631   6.425  0.9548  0.1575 -4.7593
 3046TIP3   OH230696   0.556   5.190   2.524  0.0080 -0.4394  0.4250
 3046TIP3    H130697   0.622   5.219   2.460 -2.3634  0.4814 -1.7543
 3046TIP3    H230698   0.557   5.094   2.516  1.4479 -0.4875  0.8663
 3047TIP3   OH230699   4.587   4.059   7.699 -0.0716 -0.2514 -0.0910
 3047TIP3    H130700   4.520   4.090   7.639 -0.0096 -1.0564 -0.5860
 3047TIP3    H230701   4.633   4.139   7.728  2.4457  0.0064 -4.0491
 3048TIP3   OH230702   1.574   4.035   8.007 -0.0421  0.8003 -0.2233
 3048TIP3    H130703   1.559   3.942   7.986 -0.9789  0.8440  0.1852
 3048TIP3    H230704   1.575   4.078   7.921 -1.8559  0.7039 -0.3399
 3049TIP3   OH230705   2.171   5.136   1.957 -0.1881 -0.0819 -0.0832
 3049TIP3    H130706   2.177   5.041   1.943  1.4257  0.1110 -0.9212
 3049TIP3    H230707   2.112   5.145   2.032  0.0526 -1.7766  0.3541
 3050TIP3   OH230708   5.370   4.739   1.084 -0.0478  0.0540  0.0926
 3050TIP3    H130709   5.284   4.708   1.055 -0.2467 -1.3131  1.9842
 3050TIP3    H230710   5.355   4.831   1.106 -1.1439 -0.2648  0.7771
 3051TIP3   OH230711   3.857   3.449   7.074  0.0009 -0.4567  0.5238
 3051TIP3    H130712   3.877   3.366   7.117 -1.6756 -0.6918  0.9165
 3051TIP3    H230713   3.898   3.442   6.988 -0.3401 -1.8084  0.4513
 3052TIP3   OH230714   3.942   3.298   7.634  0.6537 -0.0792  0.6487
 3052TIP3    H130715   3.955   3.220   7.581 -1.3772 -1.1963  1.6912
 3052TIP3    H230716   3.935   3.265   7.724  0.8155  1.4344  1.2513
 3053TIP3   OH230717   5.494   0.196   1.949 -0.3922  0.8674  0.3597
 3053TIP3    H130718   5.490   0.255   1.874 -0.4692  1.6045  0.9324
 3053TIP3    H230719   5.582   0.158   1.946 -0.6082  0.4050 -0.4542
 3054TIP3   OH230720   2.780   3.161   0.929  0.2205 -0.0755  0.2212
 3054TIP3    H130721   2.736   3.223   0.871  1.2795 -0.6163 -1.2160
 3054TIP3    H230722   2.860   3.205   0.956  0.9080 -0.7311 -0.6892
 3055TIP3   OH230723   3.922   4.210   6.050  0.2073  0.2667  0.2692
 3055TIP3    H130724   3.841   4.159   6.064 -0.2448  1.5297  3.0169
 3055TIP3    H230725   3.987   4.145   6.023 -1.2611 -1.0936 -0.1559
 3056TIP3   OH230726   3.440   0.743   0.144 -0.5066 -0.1894 -0.1710
 3056TIP3    H130727   3.475   0.660   0.177 -1.4259 -0.8920 -0.8947
 3056TIP3    H230728   3.366   0.763   0.202 -0.4777 -0.0406 -0.1850
 3057TIP3   OH230729   2.836   0.783   0.302 -0.5706  0.9358 -0.0802
 3057TIP3    H130730   2.857   0.771   0.395 -1.3401  1.1437  0.1233
 3057TIP3    H230731   2.917   0.761   0.257 -0.9059 -1.7827  0.4667
 3058TIP3   OH230732   6.347   0.606   8.045  0.1908  0.4293 -0.6444
 3058TIP3    H130733   6.288   0.530   8.047  0.4736  0.1584 -1.7656
 3058TIP3    H230734   6.319   0.660   8.118 -0.4270 -0.4593 -0.2048
 3059TIP3   OH230735   6.012   5.128   7.067 -0.3922 -0.0498  0.5866
 3059TIP3    H130736   6.033   5.156   6.978  1.4760 -0.5960  0.8168
 3059TIP3    H230737   6.083   5.069   7.091 -1.7741 -1.2799  1.8265
 3060TIP3   OH230738   6.399   4.787   8.115  0.2101  0.1437  0.5409
 3060TIP3    H130739   6.412   4.818   8.025  0.7939  0.9552  0.8880
 3060TIP3    H230740   6.305   4.773   8.122  0.2151 -0.3692 -0.3357
 3061TIP3   OH230741   6.762   0.372   2.163  0.3488  0.0335 -0.0642
 3061TIP3    H130742   6.816   0.295   2.146 -1.0736 -1.4848  1.8677
 3061TIP3    H230743   6.806   0.418   2.234  0.3081  0.0810 -0.0695
 3062TIP3   OH230744   2.630   3.019   1.105 -0.1763 -0.6112  0.4634
 3062TIP3    H130745   2.693   3.068   1.052  0.6435 -0.8425  1.2076
 3062TIP3    H230746   2.588   2.959   1.044 -1.6475  1.3911 -0.6168
 3063TIP3   OH230747   6.386   5.138   7.616 -0.5220 -0.2127 -0.0853
 3063TIP3    H130748   6.476   5.111   7.633 -0.3895 -0.3759 -0.9985
 3063TIP3    H230749   6.345   5.061   7.578 -1.0685 -0.1503  0.3652
 3064TIP3   OH230750   0.127   5.824   7.926 -0.2110 -0.9149 -0.8380
 3064TIP3    H130751   0.193   5.769   7.884 -1.7546 -3.2372 -0.3914
 3064TIP3    H230752   0.071   5.853   7.854  1.1005  0.9802 -1.2041
 3065TIP3   OH230753   6.761   3.823   8.258 -0.2893  0.2991 -0.5308
 3065TIP3    H130754   6.747   3.751   8.196  2.0243 -0.0588 -0.7450
 3065TIP3    H230755   6.849   3.854   8.238  0.7063 -0.0379  2.7685
 3066TIP3   OH230756   5.823   0.211   7.430  1.2227  0.4614 -0.0901
 3066TIP3    H130757   5.872   0.144   7.477  0.6757  0.5035  0.5523
 3066TIP3    H230758   5.773   0.257   7.498 -0.4924 -0.2270 -0.8135
 3067TIP3   OH230759   2.072   0.106   8.688  0.2272  0.8246 -0.4506
 3067TIP3    H130760   2.122   0.029   8.714 -2.1496 -1.1841 -1.4403
 3067TIP3    H230761   2.103   0.175   8.746  0.3534 -1.6106  2.6576
 3068TIP3   OH230762   4.584   2.141   7.307 -0.1466 -0.1350  0.2530
 3068TIP3    H130763   4.609   2.158   7.398 -0.5748  1.1595  0.1539
 3068TIP3    H230764   4.655   2.088   7.272  1.0342  1.0468  0.7688
 3069TIP3   OH230765   3.470   3.490   6.440  0.8008 -0.0405  0.2220
 3069TIP3    H130766   3.463   3.540   6.359  1.0574  0.7272  0.6647
 3069TIP3    H230767   3.422   3.409   6.422 -0.6533  0.8571 -0.1014
 3070TIP3   OH230768   2.435   5.150   1.889 -0.8388 -0.6366  0.5352
 3070TIP3    H130769   2.431   5.055   1.903 -1.9872 -0.7109 -0.1382
 3070TIP3    H230770   2.345   5.180   1.903 -0.4791  0.3753  0.7943
 3071TIP3   OH230771   5.315   3.881   7.769  0.1306 -0.1378  0.3795
 3071TIP3    H130772   5.391   3.823   7.781  0.6187  0.2232 -0.7804
 3071TIP3    H230773   5.342   3.964   7.809 -0.8898 -0.8921  2.8051
 3072TIP3   OH230774   2.639   0.367   1.059 -0.1952  0.1404  0.3575
 3072TIP3    H130775   2.580   0.442   1.055  1.6796  1.6706 -0.5279
 3072TIP3    H230776   2.713   0.399   1.110  0.6946 -1.0699 -0.1457
 3073TIP3   OH230777   1.914   3.025   0.941  0.3079 -0.3785  0.3811
 3073TIP3    H130778   1.829   2.997   0.907  0.7560 -0.3701 -0.7776
 3073TIP3    H230779   1.943   3.093   0.880 -0.0623  1.5963  2.2749
 3074TIP3   OH230780   5.398   4.878   6.844  0.1255  0.5329  0.2798
 3074TIP3    H130781   5.451   4.947   6.884 -1.1201  1.3931  0.4793
 3074TIP3    H230782   5.453   4.845   6.773  1.0080  1.2678  0.5966
 3075TIP3   OH230783   0.779   5.292   1.162 -0.1116  0.4153 -0.1070
 3075TIP3    H130784   0.846   5.306   1.228 -2.4098  1.8769  2.0903
 3075TIP3    H230785   0.743   5.206   1.182  0.8588 -0.2398 -1.0984
 3076TIP3   OH230786   2.927   1.445   7.757  0.4110 -0.2626  0.1442
 3076TIP3    H130787   2.947   1.487   7.674 -1.0890 -0.3079 -0.2714
 3076TIP3    H230788   3.006   1.456   7.810  0.4004  2.2904 -0.2623
 3077TIP3   OH230789   6.391   3.162   7.786 -0.2917  0.2559 -0.3011
 3077TIP3    H130790   6.376   3.077   7.745  1.7606 -0.2685 -0.0618
 3077TIP3    H230791   6.481   3.158   7.818 -0.4925  2.1502  0.6402
 3078TIP3   OH230792   2.750   1.297   0.432  0.1108 -0.2281 -0.2141
 3078TIP3    H130793   2.769   1.239   0.507  0.7626 -1.2604 -1.1444
 3078TIP3    H230794   2.831   1.297   0.381  0.0941  1.4564 -0.3036
 3079TIP3   OH230795   4.402   6.720   8.137 -0.5298  0.5547 -0.7359
 3079TIP3    H130796   4.393   6.703   8.231 -1.0920  0.8951 -0.7173
 3079TIP3    H230797   4.459   6.651   8.105 -0.9321 -0.0020 -0.2717
 3080TIP3   OH230798   3.099   5.544   1.951  0.1520 -0.9733  0.0600
 3080TIP3    H130799   3.135   5.602   2.017 -2.0174  1.4832 -0.7543
 3080TIP3    H230800   3.115   5.589   1.868  0.9124 -2.9567 -0.9344
 3081TIP3   OH230801   1.918   3.148   0.078 -0.3798  0.2596  0.2785
 3081TIP3    H130802   1.874   3.190   0.004 -1.0852 -0.5936  0.1971
 3081TIP3    H230803   1.922   3.216   0.145  2.7185  1.9508 -1.4005
 3082TIP3   OH230804   6.556   3.136   0.801  0.0342 -0.0685 -0.0067
 3082TIP3    H130805   6.539   3.051   0.842 -0.6932  0.3109  0.5109
 3082TIP3    H230806   6.532   3.123   0.709  0.5452 -0.6009 -0.0692
 3083TIP3   OH230807   6.506   4.883   6.762 -0.1352  0.1546  0.6263
 3083TIP3    H130808   6.472   4.843   6.682  1.9604  3.2290 -2.0655
 3083TIP3    H230809   6.450   4.959   6.777  1.1556  1.1905  0.3594
 3084TIP3   OH230810   0.190   5.149   7.649 -0.5648 -0.3183  0.3309
 3084TIP3    H130811   0.192   5.054   7.664  0.1428 -0.1458  1.5015
 3084TIP3    H230812   0.121   5.180   7.708  0.7723  0.1328  1.7311
 3085TIP3   OH230813   4.638   0.634   1.306 -0.8489 -0.2299  0.0132
 3085TIP3    H130814   4.599   0.579   1.375 -1.2412  0.8459  0.6833
 3085TIP3    H230815   4.727   0.651   1.337 -0.6606 -0.6490 -0.2936
 3086TIP3   OH230816   0.613   3.950   0.366  0.1601 -0.2052  0.1880
 3086TIP3    H130817   0.615   3.898   0.286  0.4516  0.7915 -0.4625
 3086TIP3    H230818   0.599   4.040   0.337 -1.7109 -0.0509  1.3773
 3087TIP3   OH230819   6.144   5.991   0.340  0.5043 -0.6742 -0.1091
 3087TIP3    H130820   6.200   6.049   0.392  1.4437 -0.5940 -1.1638
 3087TIP3    H230821   6.205   5.942   0.285 -0.4577 -0.6056 -1.2724
 3088TIP3   OH230822   5.984   4.719   7.900 -0.0789  0.5214  0.1904
 3088TIP3    H130823   5.890   4.734   7.911 -0.0764  0.1861  0.7155
 3088TIP3    H230824   6.005   4.762   7.818 -0.6329  0.8691  0.2196
 3089TIP3   OH230825   3.015   5.570   7.966  0.1058  0.0471  0.1428
 3089TIP3    H130826   3.057   5.561   8.051 -1.0338 -0.6347  0.6676
 3089TIP3    H230827   2.944   5.505   7.967 -0.5291  0.6803 -0.9548
 3090TIP3   OH230828   3.524   6.149   0.485  0.0334 -0.3235  0.2187
 3090TIP3    H130829   3.505   6.234   0.444  1.0791  0.3701  1.1117
 3090TIP3    H230830   3.504   6.085   0.417  1.0048  0.7327 -1.1389
 3091TIP3   OH230831   3.038   4.563   0.650  0.0690 -0.1938 -0.3773
 3091TIP3    H130832   3.110   4.507   0.622  1.2388  0.6613  0.7701
 3091TIP3    H230833   2.987   4.510   0.711  1.1709 -0.0463  0.7060
 3092TIP3   OH230834   5.007   6.589   7.283 -0.3052  0.6839  0.0433
 3092TIP3    H130835   5.086   6.547   7.317  1.0537  1.6866 -1.6766
 3092TIP3    H230836   4.953   6.606   7.360  1.2704  0.2093  1.3015
 3093TIP3   OH230837   3.392   0.803   6.884 -0.0357 -0.0579  0.2834
 3093TIP3    H130838   3.443   0.826   6.962  0.0371  0.5050  0.0795
 3093TIP3    H230839   3.327   0.873   6.877  1.1400  0.9649 -1.2101
 3094TIP3   OH230840   1.062   2.676   1.819  0.2569 -0.0599  0.1307
 3094TIP3    H130841   1.002   2.742   1.854 -0.1061 -0.8100  0.9314
 3094TIP3    H230842   1.045   2.677   1.725 -0.6119  0.1294  0.2816
 3095TIP3   OH230843   1.197   0.122   6.792 -0.6318 -0.0805  0.0514
 3095TIP3    H130844   1.130   0.058   6.769  0.3365 -1.2559  0.3986
 3095TIP3    H230845   1.279   0.084   6.761 -0.2703  2.2457 -2.1997
 3096TIP3   OH230846   0.937   2.659   1.147  0.4618  0.5381 -0.4670
 3096TIP3    H130847   0.988   2.591   1.193  0.3472  0.9717  0.3211
 3096TIP3    H230848   0.994   2.736   1.148  0.4725  0.5439 -1.1027
 3097TIP3   OH230849   5.202   2.677   7.596 -0.0274 -0.1018 -0.0608
 3097TIP3    H130850   5.246   2.625   7.529 -1.2256 -1.4480  0.1480
 3097TIP3    H230851   5.270   2.736   7.629  0.8615 -0.1603 -1.6827
 3098TIP3   OH230852   4.026   5.531   1.149 -0.3459  0.1296 -0.2262
 3098TIP3    H130853   4.035   5.475   1.227 -0.5838 -0.5072 -0.6466
 3098TIP3    H230854   4.096   5.596   1.159  1.0555 -1.2503 -0.5438
 3099TIP3   OH230855   0.480   6.292   1.422 -0.4824  0.6512  0.5502
 3099TIP3    H130856   0.457   6.201   1.408 -0.2455  0.5825  0.5909
 3099TIP3    H230857   0.508   6.296   1.514  1.0723  0.4174  0.1234
 3100TIP3   OH230858   4.810   4.670   2.393 -0.1429 -0.2188  0.7519
 3100TIP3    H130859   4.774   4.604   2.452  0.5158 -0.3376  1.0312
 3100TIP3    H230860   4.741   4.736   2.385 -0.4417 -0.4741  1.2186
 3101TIP3   OH230861   3.501   5.452   6.947  0.3180 -0.1893 -0.2090
 3101TIP3    H130862   3.490   5.547   6.945  1.5101 -0.0585 -1.5501
 3101TIP3    H230863   3.430   5.421   7.004  0.9532  1.6237  1.6967
 3102TIP3   OH230864   3.888   1.045   7.476 -0.0178 -0.5415  0.0886
 3102TIP3    H130865   3.870   1.128   7.520  1.4124 -0.7407  1.1219
 3102TIP3    H230866   3.823   1.040   7.406 -0.5176  1.1521  0.3919
 3103TIP3   OH230867   2.880   4.780   0.381  0.1451  0.1981 -0.2188
 3103TIP3    H130868   2.877   4.688   0.409  1.0154 -0.3867 -1.9131
 3103TIP3    H230869   2.921   4.826   0.454  0.9820 -0.9974  0.0952
 3104TIP3   OH230870   1.644   6.107   6.682  0.3088  0.0143  0.2543
 3104TIP3    H130871   1.550   6.113   6.695  0.5459  1.3074  1.7558
 3104TIP3    H230872   1.679   6.091   6.770  1.4085 -2.0969 -0.4960
 3105TIP3   OH230873   1.273   1.852   8.269 -0.3217  0.1561  0.2463
 3105TIP3    H130874   1.358   1.877   8.306 -0.4256 -1.6960  1.9238
 3105TIP3    H230875   1.211   1.863   8.342 -0.6613 -2.9114  0.5788
 3106TIP3   OH230876   0.598   1.333   1.877 -0.0960  0.0394 -0.8923
 3106TIP3    H130877   0.619   1.242   1.899 -1.4456  0.4743  3.1873
 3106TIP3    H230878   0.674   1.383   1.907 -0.7092  0.4460  0.0445
 3107TIP3   OH230879   5.013   2.783   8.211 -0.2472 -0.0556  0.2215
 3107TIP3    H130880   4.961   2.833   8.150 -0.4418  0.1444  0.5493
 3107TIP3    H230881   4.950   2.732   8.262 -0.0959 -0.1338  0.3362
 3108TIP3   OH230882   4.331   3.826   0.566  0.2364  0.0948 -0.6260
 3108TIP3    H130883   4.363   3.846   0.654  1.9563 -0.6495 -1.0330
 3108TIP3    H230884   4.325   3.730   0.564 -0.3799  0.1347 -1.1427
 3109TIP3   OH230885   5.054   5.691   7.992  0.6336  0.2181 -0.0309
 3109TIP3    H130886   5.011   5.669   7.909 -0.5706 -0.2674  0.6846
 3109TIP3    H230887   5.027   5.782   8.009 -0.2144 -0.1151  0.4607
 3110TIP3   OH230888   5.717   0.980   1.004 -0.5225 -0.0977 -0.2131
 3110TIP3    H130889   5.700   1.059   0.954  0.9510  0.3598 -0.0362
 3110TIP3    H230890   5.630   0.943   1.021 -1.2586  1.6174 -0.0594
 3111TIP3   OH230891   6.174   5.262   8.318 -0.2106  0.6556  0.5837
 3111TIP3    H130892   6.112   5.313   8.266 -0.4286 -0.1147  0.0721
 3111TIP3    H230893   6.240   5.325   8.347  0.1539  1.0256 -0.9907
 3112TIP3   OH230894   5.707   3.321   0.554 -0.2383 -0.1409  0.3675
 3112TIP3    H130895   5.732   3.309   0.463  0.1191 -1.2180  0.5991
 3112TIP3    H230896   5.767   3.387   0.587  0.6162 -0.8312  0.2161
 3113TIP3   OH230897   2.311   2.421   6.139  0.2897  0.8200 -0.1325
 3113TIP3    H130898   2.374   2.463   6.080  0.7370  0.4778  0.0916
 3113TIP3    H230899   2.232   2.474   6.131 -0.0726  0.0757 -1.9919
 3114TIP3   OH230900   3.305   4.840   0.708 -0.2168  0.8686 -0.2193
 3114TIP3    H130901   3.383   4.797   0.672 -0.4939  0.7800 -0.7200
 3114TIP3    H230902   3.299   4.806   0.798 -1.6105 -1.8183 -1.1987
 3115TIP3   OH230903   5.304   0.263   6.884 -0.3636  0.4834 -0.4871
 3115TIP3    H130904   5.351   0.344   6.869  1.2313 -0.6349 -1.8757
 3115TIP3    H230905   5.345   0.200   6.825 -0.3406 -1.8089  1.8094
 3116TIP3   OH230906   1.489   4.349   1.796 -0.6806 -0.2027 -0.7102
 3116TIP3    H130907   1.432   4.274   1.781 -1.7225  0.4775 -0.2237
 3116TIP3    H230908   1.430   4.422   1.809  0.3275  0.8530 -1.8274
 3117TIP3   OH230909   6.773   5.445   1.315 -0.3270  0.1875 -0.1404
 3117TIP3    H130910   6.828   5.422   1.390 -1.2696 -1.8012  0.0001
 3117TIP3    H230911   6.684   5.434   1.347 -0.7605 -2.5083 -1.9917
 3118TIP3   OH230912   6.524   1.066   2.275 -0.0483 -0.6818 -0.0920
 3118TIP3    H130913   6.574   1.038   2.351  0.5065  0.5207  0.0085
 3118TIP3    H230914   6.542   0.999   2.209  0.1670 -1.2624  0.5453
 3119TIP3   OH230915   0.298   2.134   8.497  0.0991 -0.2289  0.1359
 3119TIP3    H130916   0.265   2.092   8.418  0.8371  1.3387 -1.0701
 3119TIP3    H230917   0.382   2.172   8.471  1.0463 -0.8776  2.0803
 3120TIP3   OH230918   5.499   5.610   7.386  0.3098  0.1089  0.0508
 3120TIP3    H130919   5.531   5.522   7.367  2.0995  1.1880 -2.4839
 3120TIP3    H230920   5.440   5.631   7.314 -1.9062  0.2535  1.7920
 3121TIP3   OH230921   5.803   5.280   6.585 -0.0096 -0.0823  0.1978
 3121TIP3    H130922   5.724   5.284   6.531  1.1525  1.6191 -1.5248
 3121TIP3    H230923   5.855   5.209   6.548 -1.3182 -2.2963  2.3431
 3122TIP3   OH230924   2.605   0.446   8.583  0.5872 -0.3775  0.1151
 3122TIP3    H130925   2.648   0.475   8.503 -1.4140  1.8368 -0.2589
 3122TIP3    H230926   2.516   0.479   8.576  0.0642 -0.9503  2.8266
 3123TIP3   OH230927   1.520   1.984   8.303  0.4738 -0.4244  0.0862
 3123TIP3    H130928   1.547   2.033   8.225 -0.2612  0.0560  0.1298
 3123TIP3    H230929   1.530   2.045   8.375 -1.5510  0.1013 -0.0031
 3124TIP3   OH230930   4.199   5.099   7.537  0.2705 -0.1380  0.1768
 3124TIP3    H130931   4.145   5.135   7.467 -1.1542 -0.0465  1.2862
 3124TIP3    H230932   4.246   5.174   7.572 -2.3052  0.6930  2.1426
 3125TIP3   OH230933   5.839   3.055   0.645  0.7893 -0.1696 -0.0420
 3125TIP3    H130934   5.764   3.026   0.592  0.8092  0.3237 -0.3413
 3125TIP3    H230935   5.828   3.150   0.652  0.7647 -0.2319  0.8747
 3126TIP3   OH230936   3.948   3.274   6.581  0.0525  0.1649 -0.2847
 3126TIP3    H130937   3.878   3.269   6.515 -3.0428  0.3364  2.7443
 3126TIP3    H230938   3.998   3.194   6.567 -0.7280 -0.0297 -2.5183
 3127TIP3   OH230939   1.983   5.222   6.397 -0.2403  0.3804  0.8538
 3127TIP3    H130940   1.912   5.234   6.460 -0.3006  0.3219  0.7970
 3127TIP3    H230941   2.055   5.276   6.431 -0.1287  0.0223  1.1968
 3128TIP3   OH230942   6.763   5.847   8.430 -0.5438  0.3180  0.0612
 3128TIP3    H130943   6.849   5.841   8.472 -0.7312  0.8070  0.5227
 3128TIP3    H230944   6.736   5.938   8.443 -1.2515  0.1032  0.1493
 3129TIP3   OH230945   1.069   6.427   2.030 -0.2315 -0.2841  0.3460
 3129TIP3    H130946   1.030   6.399   2.113  1.1879 -0.9012  0.8397
 3129TIP3    H230947   1.114   6.508   2.051 -0.2517 -0.2032  0.0728
 3130TIP3   OH230948   1.225   5.469   7.937 -0.2196  0.4593  0.1194
 3130TIP3    H130949   1.245   5.506   8.023  0.4660 -1.9543  1.0963
 3130TIP3    H230950   1.310   5.460   7.894 -0.0249 -1.9010  0.8260
 3131TIP3   OH230951   4.684   2.971   6.493  0.5012  0.1208  0.1827
 3131TIP3    H130952   4.601   2.953   6.537  0.4000  0.3861  0.1031
 3131TIP3    H230953   4.710   3.057   6.525  1.3993 -0.5064  1.1822
 3132TIP3   OH230954   4.230   5.584   1.697 -0.4894  0.0406 -0.0312
 3132TIP3    H130955   4.305   5.526   1.713  0.2055 -0.1822 -3.2795
 3132TIP3    H230956   4.154   5.526   1.697 -0.6348  0.1357  2.4471
 3133TIP3   OH230957   5.672   5.962   1.518 -0.2471  0.3708 -0.4445
 3133TIP3    H130958   5.610   5.889   1.520  0.0315  0.0313 -2.2965
 3133TIP3    H230959   5.684   5.980   1.425 -1.4082  3.7502 -0.0890
 3134TIP3   OH230960   5.155   0.162   6.462  0.2231 -0.0322  0.1417
 3134TIP3    H130961   5.108   0.081   6.442  0.4854 -0.7378  2.1716
 3134TIP3    H230962   5.094   0.232   6.438 -0.1677 -0.8230 -1.2349
 3135TIP3   OH230963   4.789   4.477   8.405 -0.5394 -0.4148  0.4116
 3135TIP3    H130964   4.707   4.448   8.366 -0.9201 -1.1207  1.6680
 3135TIP3    H230965   4.776   4.570   8.423 -0.4146 -0.1232 -0.9375
 3136TIP3   OH230966   0.220   0.989   1.434  0.2773 -0.1461 -1.0840
 3136TIP3    H130967   0.274   1.018   1.361  1.4454  0.0077 -0.1964
 3136TIP3    H230968   0.266   1.023   1.512 -1.6203  0.8376 -0.3349
 3137TIP3   OH230969   4.477   1.081   0.461 -0.2804 -0.6888 -1.1328
 3137TIP3    H130970   4.485   1.176   0.472  0.8974 -1.0112  1.2460
 3137TIP3    H230971   4.392   1.070   0.417 -0.7716  1.4085 -0.8422
 3138TIP3   OH230972   1.564   2.935   7.074 -0.0128 -0.4268 -0.4283
 3138TIP3    H130973   1.487   2.990   7.085  0.8199  0.5875  0.5215
 3138TIP3    H230974   1.537   2.869   7.010 -0.9441  1.2528 -1.8642
 3139TIP3   OH230975   1.262   0.874   7.939 -0.1547 -0.5737 -0.7381
 3139TIP3    H130976   1.189   0.833   7.986 -1.3338  0.5228 -1.5464
 3139TIP3    H230977   1.225   0.954   7.903  2.1012  1.3434  0.9268
 3140TIP3   OH230978   1.919   6.388   0.873  0.5239  0.2015  0.5777
 3140TIP3    H130979   1.946   6.372   0.963  1.6855  2.0422  0.5962
 3140TIP3    H230980   1.999   6.382   0.821  0.1377  0.6858 -0.1084
 3141TIP3   OH230981   0.214   5.930   8.439 -0.0832  0.0749  0.2937
 3141TIP3    H130982   0.263   6.003   8.476  0.4261  0.5833 -1.2913
 3141TIP3    H230983   0.179   5.964   8.356  0.1009 -1.4425 -0.4446
 3142TIP3   OH230984   2.465   4.812   8.253 -0.2483 -0.2680 -0.2751
 3142TIP3    H130985   2.510   4.729   8.238 -1.8916 -1.3982  0.6820
 3142TIP3    H230986   2.401   4.817   8.182 -0.9924 -0.4555  0.3744
 3143TIP3   OH230987   2.736   3.501   0.233 -0.0821 -0.1311 -0.5150
 3143TIP3    H130988   2.695   3.583   0.207 -2.6127 -0.7609  1.1200
 3143TIP3    H230989   2.708   3.438   0.166  0.9079  0.0618 -1.1339
 3144TIP3   OH230990   6.827   0.600   6.684  0.5786  0.3576  0.3222
 3144TIP3    H130991   6.737   0.629   6.670  1.1270  2.9589  1.6896
 3144TIP3    H230992   6.877   0.681   6.696  3.0440 -1.0321  0.0591
 3145TIP3   OH230993   1.520   2.025   8.633  0.1660 -0.4544 -0.5025
 3145TIP3    H130994   1.442   2.065   8.671 -0.0686 -0.8981 -0.5062
 3145TIP3    H230995   1.497   1.933   8.623  1.4361 -1.0771  1.5488
 3146TIP3   OH230996   5.760   1.278   7.427  0.1050  0.0349 -0.2216
 3146TIP3    H130997   5.734   1.314   7.341 -0.3379 -0.3780 -0.2651
 3146TIP3    H230998   5.844   1.236   7.411  2.5649  4.0957  0.5681
 3147TIP3   OH230999   4.470   2.578   1.272  0.7951  0.2817 -0.6698
 3147TIP3    H131000   4.480   2.506   1.211 -0.6025 -0.7116  0.2098
 3147TIP3    H231001   4.550   2.576   1.325  0.1545 -1.5907  0.3029
 3148TIP3   OH231002   5.720   0.130   2.730  0.1524  0.2312 -0.3495
 3148TIP3    H131003   5.645   0.073   2.711  0.3742 -0.2616  0.2126
 3148TIP3    H231004   5.681   0.213   2.755 -0.2342 -0.2323  0.6229
 3149TIP3   OH231005   3.701   1.600   2.008  0.6319 -0.2063 -0.3891
 3149TIP3    H131006   3.659   1.682   1.980  2.1052  1.4139  1.7870
 3149TIP3    H231007   3.756   1.626   2.082  0.1751 -3.4444  1.2159
 3150TIP3   OH231008   4.131   1.682   1.544 -0.0036  0.3558 -0.2472
 3150TIP3    H131009   4.216   1.726   1.545 -0.0613  0.4611 -0.0117
 3150TIP3    H231010   4.128   1.638   1.458  1.0129 -1.1049  0.4306
 3151TIP3   OH231011   1.805   2.621   6.813  0.0253 -0.3429 -0.6934
 3151TIP3    H131012   1.830   2.706   6.850 -2.6042 -0.2173  1.0197
 3151TIP3    H231013   1.793   2.638   6.720  0.6177  0.8807 -0.5725
 3152TIP3   OH231014   2.951   2.434   8.491 -0.1959 -0.5366  0.0068
 3152TIP3    H131015   3.029   2.434   8.435 -0.2055 -0.2605 -0.0061
 3152TIP3    H231016   2.975   2.378   8.565 -0.8899 -2.6613 -1.2628
 3153TIP3   OH231017   2.098   3.295   1.431  0.4484  0.2499 -0.2618
 3153TIP3    H131018   2.181   3.307   1.476  0.0064  0.4897  0.5145
 3153TIP3    H231019   2.122   3.263   1.344  1.3512  0.4763 -0.1051
 3154TIP3   OH231020   1.551   0.975   0.378 -0.0432  0.3588 -0.4444
 3154TIP3    H131021   1.558   0.887   0.341 -0.3396  0.0949  0.1126
 3154TIP3    H231022   1.463   1.004   0.355 -0.4846 -0.0867  0.6425
 3155TIP3   OH231023   4.140   4.470   0.615  0.0005 -0.3590 -0.0227
 3155TIP3    H131024   4.107   4.560   0.613  0.5392 -0.1530 -2.0298
 3155TIP3    H231025   4.209   4.469   0.548 -0.2409 -2.3463 -0.2846
 3156TIP3   OH231026   2.935   1.436   0.760 -0.2327  0.5636 -0.2653
 3156TIP3    H131027   2.889   1.367   0.808 -2.5058  2.3100  0.2787
 3156TIP3    H231028   2.890   1.517   0.786  0.1619  1.9087 -3.3307
 3157TIP3   OH231029   4.297   3.565   0.607  0.0969 -0.4839 -0.9250
 3157TIP3    H131030   4.278   3.478   0.641  0.2337 -1.2929 -2.7739
 3157TIP3    H231031   4.382   3.556   0.564 -0.5752  0.1061 -2.4815
 3158TIP3   OH231032   2.911   0.797   0.573  0.7799 -0.0854  0.0400
 3158TIP3    H131033   2.867   0.858   0.632 -0.3460 -0.1381 -0.7025
 3158TIP3    H231034   3.001   0.829   0.567  0.3947  1.0830  0.2265
 3159TIP3   OH231035   5.759   0.030   8.309 -0.0729  0.4981  0.4333
 3159TIP3    H131036   5.818   0.038   8.233  0.1236 -1.1925  0.3572
 3159TIP3    H231037   5.680   0.076   8.282  0.7876  1.8443  0.0912
 3160TIP3   OH231038   5.003   3.745   1.292 -0.0168 -0.0804  0.1200
 3160TIP3    H131039   5.034   3.737   1.202  0.0802 -0.6936  0.2031
 3160TIP3    H231040   4.925   3.801   1.286 -0.5469 -0.8608 -0.4737
 3161TIP3   OH231041   2.193   4.387   1.396  0.3146  0.3960 -0.1395
 3161TIP3    H131042   2.173   4.423   1.310 -1.1767  0.1931  0.0975
 3161TIP3    H231043   2.289   4.387   1.400  0.4002  1.8394 -1.1830
 3162TIP3   OH231044   5.075   2.561   1.240 -0.1214 -0.5912 -0.5241
 3162TIP3    H131045   5.027   2.491   1.284  1.1499 -1.0111  0.2366
 3162TIP3    H231046   5.071   2.538   1.147 -1.1884 -0.7263 -0.4639
 3163TIP3   OH231047   5.771   5.233   0.639  0.3043  0.1383 -0.1035
 3163TIP3    H131048   5.818   5.316   0.640  0.0305  0.2981  0.7143
 3163TIP3    H231049   5.684   5.256   0.605  0.0777  0.2881  0.5498
 3164TIP3   OH231050   3.289   5.862   6.713 -0.2834 -0.4323 -0.5253
 3164TIP3    H131051   3.312   5.862   6.621 -1.7072  0.6987 -0.9161
 3164TIP3    H231052   3.210   5.808   6.718  0.1519 -1.0394  0.1592
 3165TIP3   OH231053   3.244   2.327   0.449 -0.2030  0.3795  0.3295
 3165TIP3    H131054   3.272   2.314   0.540  2.0954  1.8157 -0.0944
 3165TIP3    H231055   3.322   2.308   0.397 -0.7221  2.0241 -1.1543
 3166TIP3   OH231056   6.641   1.907   1.188  0.1682  0.3331  0.1313
 3166TIP3    H131057   6.583   1.970   1.231  0.1186  1.2615 -1.2229
 3166TIP3    H231058   6.584   1.856   1.132  0.5664  0.8926 -0.8035
 3167TIP3   OH231059   6.217   6.527   0.342 -0.0695 -0.6621 -0.1993
 3167TIP3    H131060   6.156   6.543   0.413  2.0608  0.0906  1.5779
 3167TIP3    H231061   6.186   6.445   0.301 -1.8446 -0.6368  0.9995
 3168TIP3   OH231062   0.690   0.419   7.979  0.3541  0.3696  0.0598
 3168TIP3    H131063   0.744   0.497   7.965 -2.4376  2.4769 -0.0718
 3168TIP3    H231064   0.617   0.430   7.917  0.1945 -2.7554 -0.4500
 3169TIP3   OH231065   5.843   1.788   1.090 -0.4023  0.3834 -0.1312
 3169TIP3    H131066   5.800   1.716   1.135  2.3010 -3.3543 -2.9330
 3169TIP3    H231067   5.910   1.818   1.152 -1.2544  0.2815  0.8827
 3170TIP3   OH231068   1.040   5.214   8.626  0.2274 -0.1969 -0.0935
 3170TIP3    H131069   1.049   5.143   8.689 -0.0490  0.3076  0.5175
 3170TIP3    H231070   0.946   5.234   8.625  0.6208  2.1440  1.9721
 3171TIP3   OH231071   2.192   3.714   0.374  0.1515 -0.0751 -0.3763
 3171TIP3    H131072   2.206   3.804   0.404 -1.4486 -0.0637  0.4551
 3171TIP3    H231073   2.269   3.666   0.402 -0.5864  0.2614  2.5037
 3172TIP3   OH231074   1.298   5.877   8.447 -0.5855  0.3065  0.0835
 3172TIP3    H131075   1.384   5.880   8.489 -0.0224 -0.7014 -0.9571
 3172TIP3    H231076   1.242   5.929   8.505  0.7061  0.9809  0.7830
 3173TIP3   OH231077   6.693   6.116   8.585  0.1786  0.0858  0.5308
 3173TIP3    H131078   6.615   6.109   8.530  1.0550 -0.8507 -0.6502
 3173TIP3    H231079   6.723   6.206   8.573  0.0289  0.0585 -0.0597
 3174TIP3   OH231080   6.807   4.879   7.279 -0.6063 -0.6016 -0.2150
 3174TIP3    H131081   6.773   4.881   7.369 -0.1692 -0.3391 -0.0531
 3174TIP3    H231082   6.861   4.958   7.272  2.2583 -2.3980  0.4393
 3175TIP3   OH231083   6.424   3.046   0.579 -0.1545  0.3414 -0.2198
 3175TIP3    H131084   6.349   3.103   0.597 -1.5560 -1.5774  0.4056
 3175TIP3    H231085   6.391   2.983   0.515  1.4224  0.3537 -1.0884
 3176TIP3   OH231086   6.220   3.959   1.798 -0.0168  0.1324  0.3909
 3176TIP3    H131087   6.126   3.959   1.781 -0.1633  0.9947  1.1359
 3176TIP3    H231088   6.228   3.984   1.890  0.9395 -0.0919  0.3805
 3177TIP3   OH231089   5.333   1.003   8.297 -0.0823  0.2855 -0.5062
 3177TIP3    H131090   5.336   0.962   8.210 -1.8577  0.4514 -0.6780
 3177TIP3    H231091   5.301   1.091   8.281  0.4151  0.6130  0.2471
 3178TIP3   OH231092   3.616   0.519   2.289  0.0463  0.0360  0.3042
 3178TIP3    H131093   3.550   0.584   2.311  0.3512  0.6591 -0.5786
 3178TIP3    H231094   3.700   0.566   2.293  0.2889 -0.3440 -0.1587
 3179TIP3   OH231095   4.285   2.270   6.416  0.2761 -0.2108  0.7958
 3179TIP3    H131096   4.310   2.344   6.472  2.4046 -0.3939  0.1991
 3179TIP3    H231097   4.363   2.254   6.363 -0.9542 -1.3923 -0.7400
 3180TIP3   OH231098   2.862   6.584   8.275 -0.0101 -0.8328  0.8389
 3180TIP3    H131099   2.879   6.571   8.181 -0.3147 -1.8275  0.9093
 3180TIP3    H231100   2.891   6.503   8.316  0.3020 -0.3281  1.6421
 3181TIP3   OH231101   4.812   4.502   7.103  0.6346  0.0831 -0.3296
 3181TIP3    H131102   4.842   4.591   7.084  2.4053 -0.6885 -1.3910
 3181TIP3    H231103   4.878   4.465   7.161 -0.4848 -0.3250  0.7406
 3182TIP3   OH231104   1.804   0.053   0.193 -0.3542  0.3093  0.3056
 3182TIP3    H131105   1.732   0.115   0.204 -1.6397 -1.2404  1.1466
 3182TIP3    H231106   1.855   0.087   0.120 -0.1267  3.1273  1.6407
 3183TIP3   OH231107   5.366   4.991   6.541 -0.8180 -0.1090  0.2608
 3183TIP3    H131108   5.364   5.014   6.449  0.2314 -1.5462 -0.1695
 3183TIP3    H231109   5.294   5.040   6.581 -0.9244  0.9704 -1.1989
 3184TIP3   OH231110   2.243   3.266   7.634 -0.1065 -0.1555 -0.2616
 3184TIP3    H131111   2.223   3.350   7.594 -0.3053 -0.4018 -0.6873
 3184TIP3    H231112   2.264   3.287   7.725 -1.5335  0.2055  0.0173
 3185TIP3   OH231113   3.070   1.003   2.084  0.4411  0.1406 -0.3727
 3185TIP3    H131114   3.038   1.082   2.128 -1.1121 -0.6834  0.0198
 3185TIP3    H231115   3.004   0.937   2.101  1.1273 -0.9411 -1.7193
 3186TIP3   OH231116   3.305   4.937   8.366 -0.6067 -0.0373  0.3845
 3186TIP3    H131117   3.367   4.982   8.424 -0.1452  1.6775 -1.3454
 3186TIP3    H231118   3.352   4.858   8.338  0.4753  0.7860 -0.1962
 3187TIP3   OH231119   5.555   4.870   1.301 -0.1959 -0.2176  0.2177
 3187TIP3    H131120   5.530   4.952   1.258  0.2350  0.0209  0.4175
 3187TIP3    H231121   5.479   4.814   1.290  0.4586 -0.7381 -2.2571
 3188TIP3   OH231122   5.771   0.746   0.113  0.4766 -0.6681  0.0608
 3188TIP3    H131123   5.770   0.767   0.206  2.8409  0.6982 -0.1488
 3188TIP3    H231124   5.781   0.651   0.109  0.7729 -0.6913  1.2077
 3189TIP3   OH231125   0.342   5.242   1.552  0.2439 -0.2264 -0.4010
 3189TIP3    H131126   0.425   5.278   1.519  1.1917 -1.6379  0.3433
 3189TIP3    H231127   0.310   5.186   1.481 -0.1620  0.4201 -0.7399
 3190TIP3   OH231128   4.890   6.746   7.800 -0.2241  0.6877 -0.1782
 3190TIP3    H131129   4.796   6.732   7.791 -0.3522  1.2889  0.1906
 3190TIP3    H231130   4.921   6.669   7.848 -0.8226  1.3061  1.2824
 3191TIP3   OH231131   0.749   1.191   8.271  0.1027  0.3890  0.0252
 3191TIP3    H131132   0.821   1.239   8.230  0.8282 -0.9210 -0.2614
 3191TIP3    H231133   0.739   1.234   8.356  1.8055  0.0644  0.4323
 3192TIP3   OH231134   1.112   1.925   1.494  0.8059 -0.8645  0.5379
 3192TIP3    H131135   1.019   1.908   1.480  0.4781  1.3733 -0.4235
 3192TIP3    H231136   1.120   1.935   1.589 -0.4797  1.3833  0.4747
 3193TIP3   OH231137   4.198   1.789   0.552  0.2957 -0.3213  0.0885
 3193TIP3    H131138   4.237   1.817   0.634 -2.5538  0.6808  1.2201
 3193TIP3    H231139   4.168   1.700   0.569 -2.2524  0.6340  0.9797
 3194TIP3   OH231140   3.760   3.430   0.693  0.2504 -0.4990  0.6213
 3194TIP3    H131141   3.696   3.404   0.627  0.0047  1.7154 -0.1016
 3194TIP3    H231142   3.709   3.439   0.774 -0.0767 -0.1822  0.3840
 3195TIP3   OH231143   1.974   0.680   1.684  0.3271 -0.4430  0.0054
 3195TIP3    H131144   2.012   0.760   1.720 -2.2596  1.3407 -0.8834
 3195TIP3    H231145   1.944   0.631   1.760  0.2178  0.3915  0.5107
 3196TIP3   OH231146   1.941   3.275   6.888  0.3507  0.2523  0.5556
 3196TIP3    H131147   1.877   3.344   6.872 -0.7453 -0.8107  0.2713
 3196TIP3    H231148   2.019   3.304   6.840 -0.6197  0.5148 -0.9193
 3197TIP3   OH231149   3.261   2.227   7.767 -0.7172 -0.2365 -0.2306
 3197TIP3    H131150   3.223   2.309   7.735 -0.0653  0.4584  0.7044
 3197TIP3    H231151   3.349   2.251   7.796 -1.2591 -0.7528  2.1047
 3198TIP3   OH231152   1.671   4.411   8.024  0.0243 -0.2537  0.0391
 3198TIP3    H131153   1.726   4.488   8.039  1.6021 -1.8259  3.4730
 3198TIP3    H231154   1.590   4.430   8.072  1.0513 -1.2187  2.3223
 3199TIP3   OH231155   2.823   5.416   1.139  0.2499  0.6089 -0.1193
 3199TIP3    H131156   2.845   5.374   1.056  0.3699  1.1045 -0.3405
 3199TIP3    H231157   2.908   5.432   1.181  0.1816  0.1400  0.2176
 3200TIP3   OH231158   5.941   0.669   1.109 -0.2908 -0.2884 -0.1648
 3200TIP3    H131159   5.957   0.718   1.190 -0.0106  1.0005 -0.9753
 3200TIP3    H231160   5.846   0.656   1.107 -0.2624 -0.6768  0.5530
 3201TIP3   OH231161   4.536   3.460   7.745 -0.0147  0.0837 -0.4438
 3201TIP3    H131162   4.492   3.422   7.821 -1.7448  2.0134 -0.3675
 3201TIP3    H231163   4.581   3.537   7.780  0.0992  0.3535 -1.1700
 3202TIP3   OH231164   4.114   2.529   7.915  0.3133  0.4731 -0.4621
 3202TIP3    H131165   4.073   2.537   7.829  1.6698  0.1743 -1.1794
 3202TIP3    H231166   4.143   2.438   7.918  2.9233  1.2103 -0.9842
 3203TIP3   OH231167   4.524   2.137   1.079  0.4600 -0.1565 -0.2317
 3203TIP3    H131168   4.590   2.113   1.144  0.3560  0.8860  0.2892
 3203TIP3    H231169   4.445   2.090   1.107  0.9258 -1.2860 -0.7687
 3204TIP3   OH231170   0.616   4.637   1.315  0.3140 -0.4485 -0.1621
 3204TIP3    H131171   0.606   4.552   1.357  0.2291 -0.0215  0.7074
 3204TIP3    H231172   0.535   4.684   1.335  0.8555  0.2734  0.4285
 3205TIP3   OH231173   1.839   5.098   0.559 -0.8176 -0.0095  0.3502
 3205TIP3    H131174   1.754   5.092   0.603 -1.0980 -1.7887 -0.3533
 3205TIP3    H231175   1.828   5.048   0.477  0.6888  0.3274 -0.1016
 3206TIP3   OH231176   1.617   2.329   7.698  0.2415 -0.2511  0.2482
 3206TIP3    H131177   1.700   2.376   7.706 -0.7911  2.0481 -1.4703
 3206TIP3    H231178   1.591   2.309   7.787  2.3211 -0.5017  0.8542
 3207TIP3   OH231179   1.399   4.091   1.802  0.5238 -0.2733  0.5385
 3207TIP3    H131180   1.315   4.115   1.840  0.1741 -0.2441 -0.2379
 3207TIP3    H231181   1.387   4.000   1.773  0.5628 -0.0837 -0.0935
 3208TIP3   OH231182   6.828   1.637   1.828 -0.6099  0.2451 -0.2318
 3208TIP3    H131183   6.799   1.718   1.869  0.1255  0.6107 -0.4009
 3208TIP3    H231184   6.874   1.665   1.749 -1.7330 -0.4317 -1.1571
 3209TIP3   OH231185   3.889   0.567   6.721  0.3620  0.2981 -0.5825
 3209TIP3    H131186   3.802   0.535   6.697 -0.3443  2.2640 -0.8191
 3209TIP3    H231187   3.911   0.518   6.801 -1.6827  0.9002  0.4067
 3210TIP3   OH231188   5.719   6.025   7.093 -0.1715  0.0730  0.1133
 3210TIP3    H131189   5.813   6.004   7.090 -0.1961  0.0865 -1.8363
 3210TIP3    H231190   5.677   5.942   7.116  0.2104 -0.3719 -0.7481
 3211TIP3   OH231191   0.016   3.958   7.139  0.0571  0.0590  0.2106
 3211TIP3    H131192   0.051   3.879   7.099 -0.0931 -0.0042  0.2040
 3211TIP3    H231193   0.093   4.004   7.173  0.3366  0.7759 -1.3132
 3212TIP3   OH231194   2.750   1.694   0.619 -0.3580  0.0661 -0.4439
 3212TIP3    H131195   2.721   1.761   0.556 -0.8859  2.7409  2.4077
 3212TIP3    H231196   2.670   1.657   0.654 -0.2235  1.2065  1.1700
 3213TIP3   OH231197   5.987   3.794   7.222 -0.0005 -0.2434  0.1887
 3213TIP3    H131198   5.974   3.702   7.202  1.0931  0.0800 -2.3518
 3213TIP3    H231199   5.951   3.841   7.147 -1.0427  1.4711  1.6728
 3214TIP3   OH231200   2.868   0.171   1.387  0.1399  0.2384  0.3606
 3214TIP3    H131201   2.777   0.169   1.358  0.0083  0.9100  0.7155
 3214TIP3    H231202   2.873   0.102   1.453 -0.4462  1.0604  1.2868
 3215TIP3   OH231203   5.703   5.279   1.369 -0.0814 -0.0878 -0.1706
 3215TIP3    H131204   5.700   5.332   1.289  0.2953 -0.5158 -0.4748
 3215TIP3    H231205   5.744   5.337   1.434 -2.4083  1.0578  0.3622
 3216TIP3   OH231206   5.755   5.061   6.256  0.2075  0.2420 -0.2386
 3216TIP3    H131207   5.851   5.064   6.256  0.2274 -0.2907 -0.5210
 3216TIP3    H231208   5.734   4.976   6.294 -0.1006 -0.8991 -2.7935
 3217TIP3   OH231209   2.926   6.345   8.667 -0.4007  0.3786 -0.1548
 3217TIP3    H131210   2.983   6.302   8.603 -1.8625 -1.1285 -0.5295
 3217TIP3    H231211   2.927   6.437   8.641  0.8930  0.1955 -0.8727
 3218TIP3   OH231212   2.270   3.499   1.356 -0.0155 -0.0267  0.0175
 3218TIP3    H131213   2.348   3.478   1.407  1.6248  0.8994 -1.9834
 3218TIP3    H231214   2.289   3.583   1.315 -2.6120  0.8689  0.4662
 3219TIP3   OH231215   0.808   3.168   8.620 -0.4214 -0.1671  0.3697
 3219TIP3    H131216   0.773   3.198   8.704 -2.4459 -0.4272 -0.3249
 3219TIP3    H231217   0.838   3.248   8.576 -0.4931  0.1220  0.8443
 3220TIP3   OH231218   4.391   3.986   1.920  0.4956 -0.3339  0.3244
 3220TIP3    H131219   4.382   3.942   2.004  0.9741 -1.1661 -0.0529
 3220TIP3    H231220   4.373   4.078   1.940  0.3828 -0.5517  1.2917
 3221TIP3   OH231221   4.461   4.609   1.180  0.6503 -0.2544 -0.3604
 3221TIP3    H131222   4.444   4.547   1.251  0.5759  0.6631  0.4484
 3221TIP3    H231223   4.489   4.555   1.107 -1.6676 -1.4729 -0.4487
 3222TIP3   OH231224   5.844   3.727   8.011 -0.2886 -0.3679 -0.0398
 3222TIP3    H131225   5.860   3.633   8.006 -1.7785 -0.6260 -0.4650
 3222TIP3    H231226   5.869   3.760   7.925 -1.8898 -0.7613 -0.6895
 3223TIP3   OH231227   6.548   1.327   6.617 -0.5448  0.4226 -0.0677
 3223TIP3    H131228   6.462   1.347   6.581 -0.7936  0.5562  0.5981
 3223TIP3    H231229   6.610   1.364   6.553 -0.9767  2.3509  0.5542
 3224TIP3   OH231230   0.026   0.915   0.886  0.0106  0.0309 -0.7596
 3224TIP3    H131231  -0.057   0.897   0.842  0.2637 -0.7191 -0.9527
 3224TIP3    H231232   0.091   0.867   0.834  0.3675 -0.5443  0.2003
 3225TIP3   OH231233   2.073   1.262   7.373  0.5105 -0.3713 -0.1989
 3225TIP3    H131234   2.144   1.289   7.431 -0.9156 -0.6486  1.8308
 3225TIP3    H231235   2.069   1.167   7.383 -0.1489 -0.3569 -0.2263
 3226TIP3   OH231236   0.264   0.186   1.803  0.5429 -0.4797 -0.2069
 3226TIP3    H131237   0.173   0.210   1.818  0.7674 -0.8331  2.1753
 3226TIP3    H231238   0.288   0.228   1.721 -1.4551  0.4763 -0.3404
 3227TIP3   OH231239   4.332   0.999   0.753 -0.3439 -0.1140 -0.6290
 3227TIP3    H131240   4.319   0.993   0.847 -0.7535 -2.1198 -0.7687
 3227TIP3    H231241   4.314   1.091   0.732 -1.7007  0.0396  1.0295
 3228TIP3   OH231242   4.572   4.784   7.147 -0.5423 -0.1164 -0.4388
 3228TIP3    H131243   4.537   4.812   7.232 -1.7542  0.3251 -1.0714
 3228TIP3    H231244   4.667   4.785   7.160 -0.6895  0.2697  0.8092
 3229TIP3   OH231245   3.436   1.059   1.975 -0.1805 -0.1107  0.8349
 3229TIP3    H131246   3.512   1.034   1.924 -0.2195 -1.5453  1.4055
 3229TIP3    H231247   3.454   1.024   2.063 -1.7106 -0.9965  0.8409
 3230TIP3   OH231248   4.638   0.070   7.660 -0.0549  0.2484  0.1878
 3230TIP3    H131249   4.548   0.097   7.643 -0.0543  1.0087  1.3263
 3230TIP3    H231250   4.691   0.149   7.646  0.2089  0.2892  1.3327
 3231TIP3   OH231251   6.115   4.433   7.355 -0.0381 -0.2919 -0.2248
 3231TIP3    H131252   6.116   4.353   7.408 -2.1331 -0.4746 -0.3778
 3231TIP3    H231253   6.138   4.404   7.267  3.4385  0.0074  0.4410
 3232TIP3   OH231254   3.304   0.260   8.244 -0.2941 -0.2299  0.5925
 3232TIP3    H131255   3.241   0.330   8.226 -0.3668  0.0419  1.7988
 3232TIP3    H231256   3.385   0.289   8.200  0.2200  1.5594  2.5721
 3233TIP3   OH231257   6.201   0.633   8.485 -0.1567 -0.3285 -0.0058
 3233TIP3    H131258   6.120   0.650   8.534 -1.1857 -0.4624 -1.5941
 3233TIP3    H231259   6.243   0.562   8.532  0.1801  1.1687  2.1230
 3234TIP3   OH231260   4.228   5.497   0.307 -0.5416 -0.1170 -0.1364
 3234TIP3    H131261   4.321   5.500   0.282 -0.5280  1.4753 -0.0333
 3234TIP3    H231262   4.186   5.446   0.238  0.3518 -0.5711 -0.3647
 3235TIP3   OH231263   5.660   4.814   6.368  0.0756  0.0397  0.0863
 3235TIP3    H131264   5.631   4.821   6.459  0.5446  1.9003  0.1250
 3235TIP3    H231265   5.589   4.767   6.325 -1.6289  1.7824  0.8130
 3236TIP3   OH231266   4.272   5.291   8.200 -0.0089 -0.1459  0.0777
 3236TIP3    H131267   4.235   5.204   8.213 -0.2352  0.2582  2.5772
 3236TIP3    H231268   4.211   5.350   8.245  1.0843  1.1047 -0.0232
 3237TIP3   OH231269   3.282   5.047   6.350 -0.7738  0.1717 -0.0924
 3237TIP3    H131270   3.257   4.955   6.345 -1.8492  0.3848  1.0056
 3237TIP3    H231271   3.228   5.091   6.284 -1.3790  0.2342  0.4383
 3238TIP3   OH231272   2.193   0.217   8.088  0.0571  0.5541  0.3032
 3238TIP3    H131273   2.114   0.245   8.041 -1.3476 -4.0056 -0.5801
 3238TIP3    H231274   2.257   0.203   8.019  1.0522  2.2869  0.8211
 3239TIP3   OH231275   6.559   5.125   1.384  0.0054  0.0750  0.3642
 3239TIP3    H131276   6.495   5.060   1.412 -0.6860  0.6084  0.0701
 3239TIP3    H231277   6.519   5.209   1.406  1.4154  0.4150  1.8796
 3240TIP3   OH231278   4.732   1.743   0.318  0.5451  0.1136  0.0976
 3240TIP3    H131279   4.661   1.764   0.257  0.1459 -2.0909 -0.3100
 3240TIP3    H231280   4.788   1.683   0.269  1.4002 -0.0108  1.2008
 3241TIP3   OH231281   6.470   0.923   6.836 -0.6330  0.5683  0.0977
 3241TIP3    H131282   6.449   0.922   6.929 -0.2228 -0.6279  0.1931
 3241TIP3    H231283   6.389   0.895   6.793  0.0059 -1.8640  0.3234
 3242TIP3   OH231284   2.755   0.639   1.157 -0.4510 -0.2483  0.3301
 3242TIP3    H131285   2.749   0.694   1.078 -1.7133  0.3618  0.8195
 3242TIP3    H231286   2.664   0.618   1.178 -0.2414  0.6600  2.3410
 3243TIP3   OH231287   5.952   5.408   7.499 -0.3034  0.7271  0.4499
 3243TIP3    H131288   5.984   5.393   7.410  1.7409 -1.7607  1.4765
 3243TIP3    H231289   5.860   5.382   7.495  0.2128 -1.1197 -0.5667
 3244TIP3   OH231290   4.722   1.520   2.581  0.4500  0.0112 -0.4574
 3244TIP3    H131291   4.715   1.441   2.528 -1.5412 -0.5795  0.6116
 3244TIP3    H231292   4.755   1.490   2.665 -0.4563  0.2594  0.0025
 3245TIP3   OH231293   4.550   5.569   8.046  0.0118  0.1726 -0.1231
 3245TIP3    H131294   4.625   5.606   8.092  0.1564  0.6976 -0.7722
 3245TIP3    H231295   4.495   5.645   8.026  0.3974  0.0737 -1.6247
 3246TIP3   OH231296   6.150   5.860   0.670 -0.2856 -0.0155  0.6255
 3246TIP3    H131297   6.237   5.849   0.632 -1.0297 -0.3183 -1.0710
 3246TIP3    H231298   6.159   5.934   0.729  1.3391 -0.6215  1.1998
 3247TIP3   OH231299   4.092   0.444   0.580  0.1752 -0.6473 -0.0676
 3247TIP3    H131300   4.003   0.463   0.549  0.9316  0.4224 -1.7989
 3247TIP3    H231301   4.149   0.478   0.510  1.9879  0.0146  1.6310
 3248TIP3   OH231302   5.337   4.231   0.756 -0.1974  0.5949 -0.4314
 3248TIP3    H131303   5.418   4.221   0.806 -1.1250  0.1560  1.0584
 3248TIP3    H231304   5.324   4.146   0.715 -0.7161  0.1320  0.6515
 3249TIP3   OH231305   0.072   4.950   0.599 -0.0195  0.1895  0.0690
 3249TIP3    H131306   0.163   4.929   0.621 -0.1212  0.1230  0.4266
 3249TIP3    H231307   0.030   4.865   0.589  0.2955  0.1964 -1.5339
 3250TIP3   OH231308   3.243   0.590   6.997  0.3791  0.4478  0.5397
 3250TIP3    H131309   3.315   0.529   7.018  1.0434  1.2285  0.5841
 3250TIP3    H231310   3.287   0.669   6.966 -0.4471  1.1731  1.1726
 3251TIP3   OH231311   0.690   4.561   8.036  0.0086 -0.4542  0.5609
 3251TIP3    H131312   0.596   4.577   8.046 -0.1071 -0.5740 -0.2631
 3251TIP3    H231313   0.695   4.480   7.985  0.5529 -0.0629 -0.0213
 3252TIP3   OH231314   0.952   5.385   7.756  0.1504  0.0140  0.0595
 3252TIP3    H131315   0.943   5.433   7.839  0.7234  2.2540 -1.0849
 3252TIP3    H231316   1.012   5.439   7.704  0.3913 -1.7184 -1.5528
 3253TIP3   OH231317   5.315   2.546   7.321 -0.3213  1.2883 -0.0652
 3253TIP3    H131318   5.385   2.492   7.285 -1.0194  1.5155 -1.8325
 3253TIP3    H231319   5.348   2.636   7.316 -0.7196  1.3935 -0.8754
 3254TIP3   OH231320   5.992   4.624   1.107 -0.3712 -0.7329 -0.8867
 3254TIP3    H131321   5.945   4.541   1.104  0.5260 -1.2748 -0.1770
 3254TIP3    H231322   6.076   4.604   1.146 -1.4052  1.1016  2.7362
 3255TIP3   OH231323   5.978   4.505   6.406 -0.0359  0.3369 -0.3336
 3255TIP3    H131324   5.941   4.537   6.324 -1.2785 -2.5556 -1.0085
 3255TIP3    H231325   5.906   4.513   6.469  0.0728  0.1376 -0.1848
 3256TIP3   OH231326   4.906   2.979   7.575 -0.4551  0.0177 -0.3893
 3256TIP3    H131327   4.850   2.921   7.628  1.4465  0.3525  2.1825
 3256TIP3    H231328   4.960   2.919   7.523  0.7345 -0.5629  1.4338
 3257TIP3   OH231329   0.674   0.770   2.213  0.2454 -0.7408  0.4292
 3257TIP3    H131330   0.710   0.706   2.152 -0.8510 -1.2923  0.3324
 3257TIP3    H231331   0.615   0.823   2.159  0.2800 -0.3766  0.7429
 3258TIP3   OH231332   4.566   6.601   0.906  0.3368  0.1718 -0.5791
 3258TIP3    H131333   4.534   6.514   0.929 -0.3336  0.5970  0.1770
 3258TIP3    H231334   4.518   6.624   0.826  0.0300  0.0996 -0.4188
 3259TIP3   OH231335   4.735   2.795   1.119  0.0950  0.0794  0.3180
 3259TIP3    H131336   4.656   2.849   1.119  1.0902  1.6518 -1.3604
 3259TIP3    H231337   4.720   2.729   1.052 -0.0219  0.0308  0.3931
 3260TIP3   OH231338   3.929   1.221   8.627  0.1933  0.0498 -0.0884
 3260TIP3    H131339   3.858   1.156   8.627  0.9104 -0.7751 -1.3337
 3260TIP3    H231340   3.888   1.301   8.662 -0.9681 -0.7770  0.5430
 3261TIP3   OH231341   5.430   4.751   0.754  0.1260 -0.3752 -0.2918
 3261TIP3    H131342   5.396   4.669   0.791 -0.7046 -1.4206 -3.1225
 3261TIP3    H231343   5.365   4.816   0.779  0.5777 -0.5935  1.6371
 3262TIP3   OH231344   5.801   3.618   7.113 -0.9244 -0.1495  0.3291
 3262TIP3    H131345   5.880   3.565   7.104 -0.3587  0.5414  0.9865
 3262TIP3    H231346   5.786   3.654   7.026  1.5856  2.5547  0.8495
 3263TIP3   OH231347   0.945   1.741   0.209 -0.3957  0.0255  0.0565
 3263TIP3    H131348   0.860   1.724   0.248 -0.6527  1.9044  0.4004
 3263TIP3    H231349   0.925   1.788   0.128  0.2111 -2.2743 -1.5422
 3264TIP3   OH231350   1.148   5.034   1.372  0.1788 -0.2193 -0.2270
 3264TIP3    H131351   1.178   5.081   1.295  0.6817 -0.6160 -0.2793
 3264TIP3    H231352   1.229   5.014   1.421  0.1704 -2.4188 -0.9908
 3265TIP3   OH231353   0.329   1.289   1.128 -0.2503 -0.1225  1.4583
 3265TIP3    H131354   0.252   1.345   1.115 -0.2079 -0.5280 -0.8968
 3265TIP3    H231355   0.294   1.200   1.125  0.3069 -0.3255 -0.0687
 3266TIP3   OH231356   4.050   1.584   1.786  0.3279 -0.4755  0.3994
 3266TIP3    H131357   4.117   1.520   1.810  0.4991 -1.4522 -2.3696
 3266TIP3    H231358   4.076   1.614   1.699 -3.2627 -1.5996 -1.2339
 3267TIP3   OH231359   0.246   5.111   2.318  0.3081  0.1324  0.5451
 3267TIP3    H131360   0.154   5.099   2.293  0.3167  0.9590  0.1016
 3267TIP3    H231361   0.258   5.051   2.391 -0.0313 -1.4924 -0.6647
 3268TIP3   OH231362   2.702   3.839   6.249 -0.0030  0.3555 -0.0515
 3268TIP3    H131363   2.618   3.814   6.210  0.3634 -1.5027  0.2665
 3268TIP3    H231364   2.763   3.772   6.219  0.6798 -0.0954  2.2048
 3269TIP3   OH231365   4.675   2.051   8.176 -0.1482 -0.3916 -0.1498
 3269TIP3    H131366   4.619   2.098   8.114 -0.5609  0.2634  0.7017
 3269TIP3    H231367   4.628   2.055   8.259  1.8403  1.5418  0.9740
 3270TIP3   OH231368   3.799   1.406   0.348 -0.6095 -0.1712 -0.1577
 3270TIP3    H131369   3.780   1.488   0.301 -2.6002  1.3679  3.0148
 3270TIP3    H231370   3.718   1.355   0.340  0.2398 -1.4133 -1.1725
 3271TIP3   OH231371   0.455   3.936   1.219 -0.1182 -0.0237 -0.0439
 3271TIP3    H131372   0.539   3.938   1.172  0.1702  0.2844  0.4746
 3271TIP3    H231373   0.450   4.020   1.264  0.6902 -1.1356  2.2932
 3272TIP3   OH231374   5.434   4.420   6.306  0.3007 -0.5582 -0.6245
 3272TIP3    H131375   5.369   4.362   6.267 -0.2322 -0.9411  0.7680
 3272TIP3    H231376   5.496   4.362   6.349  1.6109 -0.1976 -1.9126
 3273TIP3   OH231377   4.131   5.426   0.582 -0.0177 -0.0389  0.2497
 3273TIP3    H131378   4.180   5.439   0.501  0.5306  0.8207  0.7054
 3273TIP3    H231379   4.121   5.514   0.619 -1.9520 -0.1744  0.1543
 3274TIP3   OH231380   2.702   2.415   1.127 -0.0347  0.3208 -0.1366
 3274TIP3    H131381   2.762   2.443   1.057 -0.5568 -0.7942 -1.0710
 3274TIP3    H231382   2.668   2.496   1.163  3.6890  1.1676  2.0109
 3275TIP3   OH231383   3.195   5.857   2.372  0.8645 -0.0355  0.0659
 3275TIP3    H131384   3.221   5.910   2.296 -0.2119  0.1918 -0.1537
 3275TIP3    H231385   3.243   5.896   2.445  0.7017  0.7536 -0.2335
 3276TIP3   OH231386   3.829   6.715   8.365 -0.0740 -0.0973  0.6036
 3276TIP3    H131387   3.741   6.742   8.392 -0.6099 -1.3677  0.1921
 3276TIP3    H231388   3.876   6.797   8.352 -1.3469  0.6210  0.3690
 3277TIP3   OH231389   1.979   5.022   1.706 -0.0303  0.2261 -0.2606
 3277TIP3    H131390   2.070   5.050   1.717 -0.1096  0.1463  0.6299
 3277TIP3    H231391   1.951   5.063   1.624  1.0704 -0.4305 -1.0043
 3278TIP3   OH231392   0.326   5.597   1.391 -0.1504 -0.1414  0.1428
 3278TIP3    H131393   0.416   5.567   1.397  0.1670  0.7793  0.1450
 3278TIP3    H231394   0.312   5.612   1.297 -0.9505 -2.1587 -0.1066
 3279TIP3   OH231395   5.470   2.056   1.017  0.2730  0.2298  0.6079
 3279TIP3    H131396   5.457   2.071   1.111 -3.1016  0.0904  0.2924
 3279TIP3    H231397   5.453   2.142   0.977  0.0168 -0.0852  0.0304
 3280TIP3   OH231398   1.748   4.180   1.112 -0.8049  0.5183  0.3412
 3280TIP3    H131399   1.707   4.265   1.096  0.1458  1.0309  0.5667
 3280TIP3    H231400   1.706   4.147   1.191 -0.2086  1.4290  1.0568
 3281TIP3   OH231401   1.893   2.388   7.689  0.5144 -0.0145 -0.1946
 3281TIP3    H131402   1.957   2.351   7.750  1.1093  0.8149 -0.2920
 3281TIP3    H231403   1.925   2.477   7.672 -0.3030  0.1825 -0.7752
 3282TIP3   OH231404   3.482   6.659   1.228  0.5118  0.3340 -0.0214
 3282TIP3    H131405   3.464   6.647   1.134 -0.0688 -1.4054  0.2661
 3282TIP3    H231406   3.435   6.739   1.251  0.6761  0.8049 -1.2116
 3283TIP3   OH231407   0.009   5.067   8.468  0.4098  0.1403  0.0543
 3283TIP3    H131408   0.098   5.083   8.502  1.0028 -0.7542 -1.0389
 3283TIP3    H231409  -0.027   5.155   8.454  0.5114  0.5472  1.9636
 3284TIP3   OH231410   0.665   0.173   0.300  0.0609 -0.3025 -0.0611
 3284TIP3    H131411   0.646   0.087   0.264  1.5942 -0.4685 -0.5689
 3284TIP3    H231412   0.760   0.174   0.311  0.1969  1.6405 -0.9436
 3285TIP3   OH231413   5.741   3.996   8.464  0.5065  0.1397  0.7695
 3285TIP3    H131414   5.674   3.942   8.506 -0.5493  1.2716  0.5734
 3285TIP3    H231415   5.785   3.936   8.403 -0.4537 -0.5591  0.7506
 3286TIP3   OH231416   5.640   4.934   7.695 -0.0439  0.1710  0.4898
 3286TIP3    H131417   5.676   4.875   7.629  0.1299 -0.4630  1.1428
 3286TIP3    H231418   5.642   4.884   7.777 -0.3942  0.8888  0.9530
 3287TIP3   OH231419   1.922   4.933   7.412  0.6821 -0.1613 -0.4595
 3287TIP3    H131420   1.909   5.002   7.346  1.1652  0.1581 -0.2278
 3287TIP3    H231421   1.994   4.966   7.466  2.1964 -1.6603 -1.4451
 3288TIP3   OH231422   2.687   2.981   6.681  0.1017  0.1695 -0.0928
 3288TIP3    H131423   2.622   2.927   6.636  0.3971 -1.3199  1.1819
 3288TIP3    H231424   2.767   2.927   6.680  0.6278  0.9213  0.5304
 3289TIP3   OH231425   4.061   3.060   6.840 -0.1739 -0.2210 -0.3478
 3289TIP3    H131426   4.087   3.037   6.751 -0.1215  2.1361 -1.0220
 3289TIP3    H231427   3.971   3.092   6.832  0.4513  1.7987  0.0412
 3290TIP3   OH231428   5.559   6.479   7.292 -0.2562 -0.2861  0.1213
 3290TIP3    H131429   5.603   6.410   7.341 -0.2920  0.4779  1.2784
 3290TIP3    H231430   5.616   6.495   7.217  1.1356  0.2177  1.2349
 3291TIP3   OH231431   1.507   6.160   1.930  0.2584 -0.1425  0.1000
 3291TIP3    H131432   1.443   6.225   1.959 -0.1783 -0.5730  0.1022
 3291TIP3    H231433   1.500   6.088   1.993  1.7358  0.3904  0.9332
 3292TIP3   OH231434   6.531   5.437   8.594  0.3106 -0.1862  0.5293
 3292TIP3    H131435   6.461   5.388   8.639  1.0095 -1.4281  0.3234
 3292TIP3    H231436   6.611   5.406   8.636  0.7784  0.8008  0.3686
 3293TIP3   OH231437   1.854   3.482   0.930 -0.4895  0.3392  0.4722
 3293TIP3    H131438   1.800   3.426   0.986 -0.9995  0.7153  0.3620
 3293TIP3    H231439   1.868   3.431   0.851  2.1043 -1.1512  1.7383
 3294TIP3   OH231440   6.315   4.565   1.114 -0.1094  1.0504 -0.0940
 3294TIP3    H131441   6.385   4.626   1.136 -0.0057  0.5180  1.1552
 3294TIP3    H231442   6.339   4.531   1.028  1.9449 -0.1200  0.8615
 3295TIP3   OH231443   5.351   0.879   7.404  0.2874 -0.0175 -0.1282
 3295TIP3    H131444   5.341   0.819   7.478  1.2493 -1.2295 -0.9583
 3295TIP3    H231445   5.440   0.912   7.412 -0.0443  0.8992 -0.0123
 3296TIP3   OH231446   5.248   0.093   8.141 -0.3081  0.4584  0.2863
 3296TIP3    H131447   5.226   0.026   8.075  0.1681  1.0315 -0.4651
 3296TIP3    H231448   5.187   0.076   8.212  0.3557 -1.3269  0.4855
 3297TIP3   OH231449   6.231   0.444   1.392  0.2491 -0.5071  0.0208
 3297TIP3    H131450   6.299   0.485   1.340  1.6086 -2.0793  0.4668
 3297TIP3    H231451   6.272   0.366   1.429 -2.4061 -2.8383 -1.5123
 3298TIP3   OH231452   5.890   3.843   7.512 -0.0386  0.2252 -0.1778
 3298TIP3    H131453   5.905   3.812   7.423 -0.6157 -1.5116  0.2864
 3298TIP3    H231454   5.897   3.938   7.506  2.3831  0.0345 -1.5891
 3299TIP3   OH231455   6.120   2.642   1.878 -0.4978 -0.0679  0.0594
 3299TIP3    H131456   6.064   2.720   1.882  0.2961  0.5115  0.0526
 3299TIP3    H231457   6.063   2.574   1.843 -0.3637  1.3036 -3.2306
 3300TIP3   OH231458   3.000   5.684   0.827 -1.3571 -0.2175 -0.1891
 3300TIP3    H131459   3.063   5.659   0.895 -1.6708  0.5192  0.3978
 3300TIP3    H231460   3.053   5.726   0.759 -1.2026  0.5045  0.3543
 3301TIP3   OH231461   2.548   1.496   0.343  0.1855 -0.2863  0.6518
 3301TIP3    H131462   2.594   1.424   0.386  1.2155  0.8105  1.4410
 3301TIP3    H231463   2.482   1.453   0.289  1.2251 -1.8546  0.5637
 3302TIP3   OH231464   1.213   2.676   0.137 -0.2519 -0.2187 -0.3891
 3302TIP3    H131465   1.169   2.695   0.054  1.2095 -1.6418 -1.5519
 3302TIP3    H231466   1.188   2.749   0.194 -0.2023  1.5785 -2.5032
 3303TIP3   OH231467   5.515   4.896   0.018 -0.0003  0.8399 -0.2953
 3303TIP3    H131468   5.539   4.965   0.080 -1.9292 -0.0306  1.5511
 3303TIP3    H231469   5.528   4.815   0.066 -2.0495  0.1547 -0.7898
 3304TIP3   OH231470   2.038   4.688   1.693 -0.2844 -0.1044 -0.1080
 3304TIP3    H131471   2.030   4.752   1.621 -2.6951  1.0644  1.0698
 3304TIP3    H231472   2.097   4.730   1.756  1.4814 -0.9418 -1.1261
 3305TIP3   OH231473   1.979   4.036   7.890  0.0104 -0.2510 -0.2584
 3305TIP3    H131474   1.894   4.016   7.853 -0.0699  1.2273 -0.9262
 3305TIP3    H231475   2.039   3.975   7.847 -0.3490  0.2956 -1.5622
 3306TIP3   OH231476   1.456   6.422   0.218  0.3964  0.3072 -0.3004
 3306TIP3    H131477   1.488   6.512   0.211  0.6187  0.2542 -0.0056
 3306TIP3    H231478   1.533   6.371   0.244  0.5598 -0.1684 -1.6106
 3307TIP3   OH231479   3.429   3.352   8.063 -0.2462 -0.3786 -0.3195
 3307TIP3    H131480   3.359   3.413   8.088  2.0841  1.9989  0.8431
 3307TIP3    H231481   3.410   3.272   8.111 -1.0705  0.9052  1.5963
 3308TIP3   OH231482   1.154   3.556   1.339 -0.1511 -0.5305  0.2421
 3308TIP3    H131483   1.065   3.585   1.361 -0.6055  0.1880 -2.2503
 3308TIP3    H231484   1.149   3.461   1.343 -0.1187 -0.5179  3.1322
 3309TIP3   OH231485   5.629   0.379   7.586 -0.1838 -0.2376  0.1395
 3309TIP3    H131486   5.654   0.425   7.506 -1.6234  0.0880 -0.1347
 3309TIP3    H231487   5.658   0.437   7.657  0.0626  0.0113 -0.1607
 3310TIP3   OH231488   0.184   2.760   6.454  0.0953  1.0251  0.3362
 3310TIP3    H131489   0.266   2.729   6.416  0.0099  0.9288  0.2291
 3310TIP3    H231490   0.210   2.831   6.512  0.4708 -0.1521  1.6804
 3311TIP3   OH231491   3.383   2.080   0.946 -0.3001 -0.0190  0.0731
 3311TIP3    H131492   3.382   1.997   0.898  2.1379 -0.5289  0.7734
 3311TIP3    H231493   3.336   2.061   1.027  1.6004 -1.2998  0.9660
 3312TIP3   OH231494   2.233   4.939   0.967  0.3671  0.0555  0.7393
 3312TIP3    H131495   2.189   4.991   0.901 -0.9342 -1.7457  0.0854
 3312TIP3    H231496   2.298   4.997   1.006 -1.4834  2.3470  0.5798
 3313TIP3   OH231497   2.822   1.510   1.242 -0.2198 -0.3916  0.4869
 3313TIP3    H131498   2.788   1.436   1.291 -1.2995 -2.1488 -2.6010
 3313TIP3    H231499   2.778   1.587   1.279 -0.8355 -1.5599  2.2809
 3314TIP3   OH231500   2.840   6.349   8.076  0.2275 -0.0973  0.1165
 3314TIP3    H131501   2.799   6.398   8.004 -1.6766 -1.2256  0.3390
 3314TIP3    H231502   2.850   6.260   8.041  0.9072 -0.2452  0.6708
 3315TIP3   OH231503   4.775   0.963   7.940 -0.0651  0.3175 -0.1939
 3315TIP3    H131504   4.783   1.024   7.867 -0.7950  0.3501 -0.2567
 3315TIP3    H231505   4.732   0.886   7.902 -3.4332  1.5224  0.7853
 3316TIP3   OH231506   0.825   4.010   1.585 -0.1640  0.6327  0.5898
 3316TIP3    H131507   0.833   4.030   1.492 -0.8134 -0.9487  0.1571
 3316TIP3    H231508   0.852   3.918   1.592  0.5476  0.9407  2.0779
 3317TIP3   OH231509   4.792   4.566   1.235 -0.2532  0.0233  0.3509
 3317TIP3    H131510   4.761   4.491   1.286 -1.6721  0.9106  0.8345
 3317TIP3    H231511   4.878   4.539   1.203 -0.2104 -1.3387  1.5217
 3318TIP3   OH231512   1.863   2.781   0.085  0.0360  0.5309  0.2357
 3318TIP3    H131513   1.863   2.863   0.134 -0.0866 -0.1766  1.4636
 3318TIP3    H231514   1.770   2.761   0.073  0.0168 -0.3388  1.5747
 3319TIP3   OH231515   2.119   2.583   7.686 -0.5737 -0.1101  0.3248
 3319TIP3    H131516   2.140   2.580   7.593  0.7439  0.7031  0.5675
 3319TIP3    H231517   2.200   2.558   7.730 -1.3734 -1.2069  1.2712
 3320TIP3   OH231518   1.625   2.664   8.098  0.1263 -0.1701 -0.0576
 3320TIP3    H131519   1.541   2.697   8.065 -0.5473  0.6487  2.2681
 3320TIP3    H231520   1.618   2.569   8.090 -2.0665 -0.3089  2.1460
 3321TIP3   OH231521   5.499   2.179   1.750  0.5157  0.4720  0.1185
 3321TIP3    H131522   5.427   2.222   1.703 -0.7429  0.0709  1.5905
 3321TIP3    H231523   5.464   2.163   1.838  1.8281 -1.2811  0.3731
 3322TIP3   OH231524   5.455   3.277   7.615 -0.4131  0.4118 -0.3289
 3322TIP3    H131525   5.438   3.370   7.607  0.7552  0.8768  1.6824
 3322TIP3    H231526   5.549   3.272   7.636 -0.3817 -1.2402 -0.7211
 3323TIP3   OH231527   1.833   0.197   8.647  0.3475  0.2962  0.0284
 3323TIP3    H131528   1.924   0.168   8.649  0.1826 -0.7443 -2.6541
 3323TIP3    H231529   1.838   0.292   8.639  1.0616  0.5489  2.6532
 3324TIP3   OH231530   3.010   1.633   0.517  0.3442 -0.6291  0.3771
 3324TIP3    H131531   3.016   1.545   0.481 -3.3636  0.0191 -2.5941
 3324TIP3    H231532   2.922   1.638   0.555  1.0941  1.3033  2.0467
 3325TIP3   OH231533   0.272   3.912   7.623  0.1808 -0.1724  0.1835
 3325TIP3    H131534   0.193   3.929   7.573 -0.2060 -1.5547  0.2903
 3325TIP3    H231535   0.292   3.820   7.607  0.6358 -0.3829  1.7386
 3326TIP3   OH231536   6.433   6.310   1.613  0.4727  0.5885  0.1195
 3326TIP3    H131537   6.339   6.315   1.600 -0.1631 -2.5283  2.3528
 3326TIP3    H231538   6.448   6.356   1.696  1.1039  1.7836 -0.6276
 3327TIP3   OH231539   4.760   2.466   1.953  0.7810  0.0269  0.2129
 3327TIP3    H131540   4.798   2.404   2.016  0.2629 -1.7309 -1.1170
 3327TIP3    H231541   4.835   2.496   1.902  0.7479 -1.8937 -1.0924
 3328TIP3   OH231542   3.002   6.316   6.142  0.1737  0.4368  0.3324
 3328TIP3    H131543   3.081   6.334   6.193  0.4312  1.2315 -0.3276
 3328TIP3    H231544   3.033   6.268   6.066 -0.3131 -1.4802  1.2794
 3329TIP3   OH231545   4.971   0.179   8.049  0.0384 -0.3599 -0.1044
 3329TIP3    H131546   4.963   0.166   8.143 -0.9130  0.0891 -0.1150
 3329TIP3    H231547   5.009   0.097   8.016 -1.1806 -1.1721  0.4575
 3330TIP3   OH231548   1.719   5.947   1.793  0.2624  0.3493  0.0821
 3330TIP3    H131549   1.790   5.888   1.817 -0.0280  1.0351  3.1162
 3330TIP3    H231550   1.643   5.889   1.784  0.9338 -0.2746 -2.2908
 3331TIP3   OH231551   4.609   5.075   0.174  0.1847 -0.1071  0.2853
 3331TIP3    H131552   4.694   5.117   0.187 -0.5301  1.3333  0.5307
 3331TIP3    H231553   4.561   5.135   0.117 -0.4150 -1.2661 -0.4658
 3332TIP3   OH231554   3.027   5.747   0.072  0.4641 -0.1414  0.0455
 3332TIP3    H131555   2.939   5.784   0.079  0.8705  0.6490  1.1441
 3332TIP3    H231556   3.027   5.702  -0.013 -0.2733  1.7949 -1.0271
 3333TIP3   OH231557   5.492   3.737   0.947 -0.0137 -0.0215  0.2070
 3333TIP3    H131558   5.559   3.748   0.880  0.5664  0.3213  0.8270
 3333TIP3    H231559   5.511   3.651   0.986  0.0193  0.0387  0.3254
 3334TIP3   OH231560   2.695   0.967   0.726  0.3764 -0.7497  0.4274
 3334TIP3    H131561   2.609   0.953   0.686  0.3930  1.6348 -0.5819
 3334TIP3    H231562   2.723   1.052   0.694  3.0320 -1.3380  0.9488
 3335TIP3   OH231563   2.251   4.559   7.819  0.4725  0.1416 -0.2156
 3335TIP3    H131564   2.206   4.481   7.851 -0.8602  0.5627 -0.9442
 3335TIP3    H231565   2.284   4.534   7.733 -1.1177  0.7165 -1.0452
 3336TIP3   OH231566   5.382   4.022   8.628  0.3457 -0.1877 -0.4636
 3336TIP3    H131567   5.386   4.082   8.553 -0.0564  1.3887  0.7317
 3336TIP3    H231568   5.407   4.076   8.703  1.8635 -2.0188  0.4111
 3337TIP3   OH231569   5.955   3.969   2.137 -0.0261  0.0419 -0.2579
 3337TIP3    H131570   6.041   3.966   2.096  1.4415  2.0290  2.3647
 3337TIP3    H231571   5.920   3.880   2.127  2.2011 -0.7391 -1.6231
 3338TIP3   OH231572   2.519   0.386   1.403  0.3132 -0.7617  0.1564
 3338TIP3    H131573   2.550   0.398   1.493 -1.2587 -1.2780  0.8005
 3338TIP3    H231574   2.564   0.308   1.373  0.4306 -0.9127  0.7065
 3339TIP3   OH231575   4.650   3.785   7.279  0.3494  0.1165  0.3273
 3339TIP3    H131576   4.718   3.841   7.240  0.3085 -1.5589 -2.3712
 3339TIP3    H231577   4.570   3.808   7.233  0.4264 -2.3874 -1.2307
 3340TIP3   OH231578   2.891   2.802   6.745 -0.3587 -0.2111  0.8452
 3340TIP3    H131579   2.956   2.737   6.720  0.6551  0.0403  2.6669
 3340TIP3    H231580   2.925   2.840   6.826 -2.3024  0.6165  1.3269
 3341TIP3   OH231581   4.392   2.291   1.413 -0.2551  0.5404  0.3961
 3341TIP3    H131582   4.374   2.254   1.499 -0.4500 -0.9574 -0.2715
 3341TIP3    H231583   4.363   2.382   1.420  0.5652  0.7052  2.1800
 3342TIP3   OH231584   2.455   4.472   8.065 -0.3522 -0.1339  0.3761
 3342TIP3    H131585   2.503   4.414   8.006  0.5776  1.4042 -0.4470
 3342TIP3    H231586   2.370   4.485   8.022 -0.1165  0.0576 -0.0338
 3343TIP3   OH231587   5.047   6.643   1.597 -0.3593 -0.4079  0.1398
 3343TIP3    H131588   5.104   6.605   1.530 -1.8217  1.0467 -2.0561
 3343TIP3    H231589   4.981   6.692   1.548 -1.7528  0.4370  2.6617
 3344TIP3   OH231590   6.690   0.307   8.701  0.0149  0.2176  0.3199
 3344TIP3    H131591   6.680   0.333   8.792 -3.1580  0.3487  0.0484
 3344TIP3    H231592   6.701   0.212   8.704  0.5659  0.2905  0.8363
 3345TIP3   OH231593   5.331   0.910   8.007  0.1221  0.3976  0.7424
 3345TIP3    H131594   5.244   0.923   8.046  0.2525 -2.3311  2.1513
 3345TIP3    H231595   5.321   0.939   7.916 -1.8045  1.5573  1.2611
 3346TIP3   OH231596   4.350   0.112   7.476 -0.6341 -0.4711 -0.4159
 3346TIP3    H131597   4.382   0.202   7.483 -0.2283 -0.7435  2.3001
 3346TIP3    H231598   4.381   0.082   7.391  0.3018  1.5522 -0.8349
 3347TIP3   OH231599   0.415   0.127   7.977  0.8815  0.6128  0.3596
 3347TIP3    H131600   0.345   0.184   8.009  1.1498  0.9061  0.4308
 3347TIP3    H231601   0.470   0.111   8.053 -0.2447 -1.3357  0.8173
 3348TIP3   OH231602   4.057   2.069   1.138  0.2137 -0.2247  0.3002
 3348TIP3    H131603   4.084   2.153   1.174  1.4450 -0.5346  0.1517
 3348TIP3    H231604   4.029   2.018   1.214  1.7746 -0.5005  0.7299
 3349TIP3   OH231605   0.644   5.341   0.378 -0.2163 -0.4686 -0.4544
 3349TIP3    H131606   0.609   5.402   0.312  0.6555 -0.6923 -1.1545
 3349TIP3    H231607   0.592   5.358   0.456  0.4217  1.6551 -0.4299
 3350TIP3   OH231608   0.036   4.768   0.864 -0.0710 -0.6199 -0.0819
 3350TIP3    H131609   0.000   4.852   0.894 -1.4598 -1.0464 -0.4847
 3350TIP3    H231610   0.013   4.706   0.933  3.4433 -0.2357  1.6586
 3351TIP3   OH231611   2.930   2.943   1.103 -0.3633  0.5719  0.7455
 3351TIP3    H131612   2.910   3.020   1.157  0.0469 -0.5646  2.5951
 3351TIP3    H231613   3.009   2.907   1.140 -0.7943 -1.0171  0.1975
 3352TIP3   OH231614   1.862   5.156   1.482 -0.2595 -0.2571  0.0971
 3352TIP3    H131615   1.895   5.097   1.415 -0.7483 -0.5221  0.0826
 3352TIP3    H231616   1.772   5.127   1.498 -1.2284  1.7300 -1.3577
 3353TIP3   OH231617   2.202   2.643   2.241  0.3129  0.1535 -0.4274
 3353TIP3    H131618   2.136   2.596   2.293  0.2823  0.2180 -0.4079
 3353TIP3    H231619   2.248   2.697   2.304  1.0775 -0.6659 -0.2677
 3354TIP3   OH231620   2.505   1.290   8.462  0.1926  0.7872 -0.4713
 3354TIP3    H131621   2.514   1.227   8.533 -0.3569 -1.1779 -2.0316
 3354TIP3    H231622   2.570   1.357   8.480  0.3371  0.1412  1.6358
 3355TIP3   OH231623   4.180   4.842   7.953  0.0672  0.6020  0.4059
 3355TIP3    H131624   4.123   4.911   7.919  0.5567  1.2211  0.8238
 3355TIP3    H231625   4.154   4.764   7.904 -0.9207  0.9389  0.3730
 3356TIP3   OH231626   3.360   0.653   1.895 -0.5559  0.5896 -0.0089
 3356TIP3    H131627   3.299   0.727   1.892 -0.2763  0.8119 -0.3459
 3356TIP3    H231628   3.416   0.666   1.818 -1.5195 -0.8371 -1.0072
 3357TIP3   OH231629   4.892   1.009   8.500 -0.4509  0.2937  0.0020
 3357TIP3    H131630   4.909   0.921   8.535 -0.7541 -0.0857 -0.7763
 3357TIP3    H231631   4.898   0.998   8.405 -0.8193  1.0487 -0.1155
 3358TIP3   OH231632   3.620   2.641   7.577  0.1492  0.2862  0.0136
 3358TIP3    H131633   3.702   2.599   7.605 -0.3714  0.6472  2.2880
 3358TIP3    H231634   3.600   2.600   7.493  1.3657 -1.6520  0.5888
 3359TIP3   OH231635   2.940   2.104   0.212  0.1436  0.2150  0.1225
 3359TIP3    H131636   2.899   2.018   0.225 -0.1551  0.3144 -0.1457
 3359TIP3    H231637   3.033   2.085   0.203  0.1157 -0.0501  0.3964
 3360TIP3   OH231638   6.681   2.411   0.296 -0.1047 -0.4141 -0.3426
 3360TIP3    H131639   6.704   2.406   0.389  1.5213  0.8161 -0.6356
 3360TIP3    H231640   6.725   2.336   0.256 -0.8606 -0.9824 -0.1257
 3361TIP3   OH231641   2.771   5.440   7.972  0.6555 -0.4749 -0.1742
 3361TIP3    H131642   2.724   5.523   7.973  1.3146 -0.0887 -0.5312
 3361TIP3    H231643   2.705   5.374   7.992 -0.2938 -0.0855 -1.9204
 3362TIP3   OH231644   0.314   4.459   0.278 -0.3919 -0.0442 -0.2647
 3362TIP3    H131645   0.396   4.497   0.309 -0.9804  0.0847  1.2620
 3362TIP3    H231646   0.246   4.511   0.322 -1.2563 -0.9864 -0.4490
 3363TIP3   OH231647   6.275   1.193   7.136 -0.4426  0.0108  0.6045
 3363TIP3    H131648   6.204   1.134   7.109  1.3304 -2.7155  1.4763
 3363TIP3    H231649   6.311   1.227   7.054 -1.2614 -0.4327  0.0501
 3364TIP3   OH231650   3.860   1.838   7.935 -0.0249 -0.4587  0.4200
 3364TIP3    H131651   3.826   1.759   7.893  0.2748 -1.5361  2.0952
 3364TIP3    H231652   3.832   1.831   8.026 -0.8605  1.9036  0.4195
 3365TIP3   OH231653   0.930   0.155   0.409  0.1887 -0.1550 -0.0675
 3365TIP3    H131654   0.962   0.241   0.438 -1.2631  0.0948  0.9419
 3365TIP3    H231655   0.987   0.131   0.336 -0.5722  2.6004 -1.7409
 3366TIP3   OH231656   5.613   6.833   7.223 -0.3442  0.7163 -0.2167
 3366TIP3    H131657   5.529   6.815   7.265 -0.1321  0.0152 -0.0731
 3366TIP3    H231658   5.670   6.762   7.252 -0.4238 -0.2987 -2.3135
 3367TIP3   OH231659   0.049   2.193   8.072  0.1760  0.7668 -0.0948
 3367TIP3    H131660  -0.024   2.178   8.013 -0.3409 -0.2208  0.7583
 3367TIP3    H231661   0.024   2.270   8.123 -1.0575 -0.4779  1.3000
 3368TIP3   OH231662   4.990   1.305   0.262  0.3305  0.1422  0.0838
 3368TIP3    H131663   5.083   1.293   0.278  0.2610  0.0842  0.4616
 3368TIP3    H231664   4.975   1.267   0.175  0.8644  1.1860 -0.4820
 3369TIP3   OH231665   0.852   5.250   0.202  0.1582  0.5604  0.1954
 3369TIP3    H131666   0.886   5.223   0.288  0.8610 -1.4316 -0.6357
 3369TIP3    H231667   0.913   5.317   0.173  1.2017 -0.2671  0.3810
 3370TIP3   OH231668   4.114   5.529   8.109  0.3235 -0.3863 -0.1496
 3370TIP3    H131669   4.185   5.552   8.168  1.0332  0.6920 -1.3696
 3370TIP3    H231670   4.154   5.471   8.044  0.2919  0.7890 -1.2515
 3371TIP3   OH231671   1.122   5.606   8.705 -0.0206 -0.6850  0.9527
 3371TIP3    H131672   1.081   5.579   8.623 -0.3129 -0.5580  1.0595
 3371TIP3    H231673   1.215   5.585   8.693  0.3691  1.4634 -0.3259
 3372TIP3   OH231674   5.384   2.797   6.890 -0.6381 -0.6859 -0.1410
 3372TIP3    H131675   5.402   2.728   6.826 -0.5320  0.1479 -1.0452
 3372TIP3    H231676   5.459   2.795   6.949  0.0482 -0.4690 -0.9743
 3373TIP3   OH231677   3.463   3.405   7.777 -0.2582 -0.3677 -0.9540
 3373TIP3    H131678   3.371   3.390   7.755 -0.4954 -0.3161 -0.0381
 3373TIP3    H231679   3.465   3.407   7.872  0.3728  1.6113 -0.9608
 3374TIP3   OH231680   5.401   6.397   0.947  0.3224 -0.2423  0.2838
 3374TIP3    H131681   5.310   6.384   0.922  0.0128  0.3487  1.0613
 3374TIP3    H231682   5.451   6.349   0.881 -0.5244 -0.1666 -0.4349
 3375TIP3   OH231683   4.206   0.727   7.621  0.0026  0.0684 -0.3487
 3375TIP3    H131684   4.212   0.642   7.579 -1.2025  0.7647 -2.0306
 3375TIP3    H231685   4.168   0.709   7.707  2.2677 -1.3591  0.4335
 3376TIP3   OH231686   1.161   3.583   0.877  0.0963  0.1590 -0.5392
 3376TIP3    H131687   1.164   3.636   0.798 -0.5882  0.7465 -0.1814
 3376TIP3    H231688   1.153   3.647   0.948  1.2884 -0.3210  0.0561
 3377TIP3   OH231689   0.410   6.093   7.407 -0.1330  0.0319  0.5324
 3377TIP3    H131690   0.403   6.170   7.463 -2.3022  0.6507 -0.4787
 3377TIP3    H231691   0.447   6.126   7.325  0.3140 -0.3037  0.5958
 3378TIP3   OH231692   4.529   3.811   1.375 -0.0166  0.0318 -0.0298
 3378TIP3    H131693   4.587   3.768   1.312  0.3862  0.8816 -0.2592
 3378TIP3    H231694   4.443   3.808   1.333 -0.1414 -1.1441  0.2666
 3379TIP3   OH231695   1.321   1.829   1.757 -0.1138  0.5322 -0.3527
 3379TIP3    H131696   1.275   1.747   1.738  2.1060 -1.3329  1.6403
 3379TIP3    H231697   1.251   1.890   1.781 -1.8365 -0.7640 -1.7370
 3380TIP3   OH231698   6.656   3.743   0.245  0.6463 -0.3861  0.3193
 3380TIP3    H131699   6.697   3.812   0.194  0.9996 -1.3882 -0.7773
 3380TIP3    H231700   6.728   3.703   0.295  0.7070 -0.9358 -0.1976
 3381TIP3   OH231701   4.741   0.981   1.683 -0.3336  0.3953 -0.4639
 3381TIP3    H131702   4.730   0.895   1.724  1.2450  1.0430  1.4552
 3381TIP3    H231703   4.702   0.970   1.596 -1.4381 -1.8342  0.2084
 3382TIP3   OH231704   4.615   5.954   1.350  0.0940 -0.0903  0.4827
 3382TIP3    H131705   4.616   5.862   1.323  0.7642  0.0569 -0.0213
 3382TIP3    H231706   4.707   5.978   1.360  0.0511  1.0497 -1.2759
 3383TIP3   OH231707   3.852   1.866   7.295  0.0299  0.0404 -0.0200
 3383TIP3    H131708   3.856   1.952   7.337  0.9724  0.1475 -0.3161
 3383TIP3    H231709   3.867   1.883   7.202 -1.2116 -0.2956 -0.2973
 3384TIP3   OH231710   3.642   3.551   1.419  0.0753  0.0462 -0.2964
 3384TIP3    H131711   3.566   3.608   1.430 -1.0424 -1.2737 -0.8472
 3384TIP3    H231712   3.706   3.585   1.481 -2.0717 -0.6712  2.5500
 3385TIP3   OH231713   1.803   4.782   8.638 -0.4931 -0.0907  0.2154
 3385TIP3    H131714   1.747   4.859   8.630 -0.7371 -0.1492  1.1403
 3385TIP3    H231715   1.787   4.732   8.559 -1.7961 -0.1211  0.4729
 3386TIP3   OH231716   1.357   6.738   7.096  0.2074 -0.5070 -0.8683
 3386TIP3    H131717   1.313   6.661   7.060  0.4201  0.0428 -2.3828
 3386TIP3    H231718   1.299   6.811   7.075 -0.4956 -0.3240  1.4663
 3387TIP3   OH231719   1.814   4.218   7.076 -0.5094  0.2544  0.0851
 3387TIP3    H131720   1.810   4.123   7.065 -0.8678  0.3360 -0.5762
 3387TIP3    H231721   1.729   4.240   7.115 -0.5894  0.3386 -0.1310
 3388TIP3   OH231722   2.040   0.055   0.357  0.8113 -0.2265 -0.8090
 3388TIP3    H131723   2.047  -0.040   0.342  1.9051 -0.0177 -1.8005
 3388TIP3    H231724   1.981   0.086   0.289 -1.5462 -0.4806  0.9956
 3389TIP3   OH231725   0.482   0.452   2.097 -0.0979 -0.2258  0.2755
 3389TIP3    H131726   0.413   0.510   2.130 -0.1286 -0.4998  0.7114
 3389TIP3    H231727   0.560   0.506   2.094 -0.4096  0.1900 -0.5803
 3390TIP3   OH231728   2.759   1.971   8.467 -0.3834 -0.1727 -0.0957
 3390TIP3    H131729   2.820   1.898   8.474 -0.8715 -0.6767 -0.8823
 3390TIP3    H231730   2.787   2.033   8.534 -0.0564 -1.1527  0.7041
 3391TIP3   OH231731   4.053   6.072   7.529 -0.0696  0.6420 -0.3343
 3391TIP3    H131732   4.096   6.133   7.469 -0.3090  0.1601 -1.0199
 3391TIP3    H231733   4.092   5.987   7.508  0.6818  0.6439  1.0112
 3392TIP3   OH231734   5.089   3.748   2.033  0.1807 -0.2066 -0.2329
 3392TIP3    H131735   5.102   3.654   2.021  1.1711 -0.1105 -0.0245
 3392TIP3    H231736   5.036   3.775   1.957 -0.0072 -0.9043 -0.3527
 3393TIP3   OH231737   3.287   1.191   0.565  0.4098  0.1583  0.0342
 3393TIP3    H131738   3.337   1.270   0.542  0.9732  0.7736  2.9342
 3393TIP3    H231739   3.352   1.121   0.567  0.3644  0.1088 -0.2169
 3394TIP3   OH231740   0.355   1.009   0.508  0.1317  0.7263 -0.1312
 3394TIP3    H131741   0.293   0.953   0.555 -2.4098 -0.0925 -3.9795
 3394TIP3    H231742   0.312   1.094   0.503 -0.8931  0.1531 -2.8409
 3395TIP3   OH231743   3.839   2.376   1.162  0.1843  0.3755  0.6256
 3395TIP3    H131744   3.758   2.397   1.209 -0.4844 -0.7907  0.0336
 3395TIP3    H231745   3.839   2.436   1.087 -0.3421  0.1141  0.4115
 3396TIP3   OH231746   6.760   4.182   8.500 -0.1878  0.0687  0.7913
 3396TIP3    H131747   6.673   4.152   8.528  0.1407 -2.7315 -0.8089
 3396TIP3    H231748   6.749   4.276   8.484 -2.2081  0.3205  3.0446
 3397TIP3   OH231749   6.452   4.605   8.321  0.1790  0.0714  0.6088
 3397TIP3    H131750   6.458   4.671   8.252 -1.1754 -0.1667  0.2335
 3397TIP3    H231751   6.450   4.522   8.275 -1.4483 -0.0624  0.8481
 3398TIP3   OH231752   5.399   6.745   2.322  0.0583  0.4363 -0.1410
 3398TIP3    H131753   5.435   6.722   2.236  1.8228  2.2972  0.0008
 3398TIP3    H231754   5.440   6.829   2.342 -1.1061  0.5305  2.0877
 3399TIP3   OH231755   3.498   4.778   8.563 -0.1989  0.4557 -0.0071
 3399TIP3    H131756   3.546   4.806   8.641  0.4337  0.5196 -0.4109
 3399TIP3    H231757   3.442   4.706   8.594 -0.0996  0.6134  0.5432
 3400TIP3   OH231758   6.065   0.197   7.826  0.1249 -0.5787 -0.2421
 3400TIP3    H131759   6.088   0.206   7.734 -0.0799 -2.3071 -0.5069
 3400TIP3    H231760   5.982   0.244   7.835  0.6835  0.5159 -0.6715
 3401TIP3   OH231761   6.345   4.114   7.145  0.2353  0.0030  0.3152
 3401TIP3    H131762   6.362   4.027   7.108  1.6697  0.5705 -0.4153
 3401TIP3    H231763   6.417   4.168   7.113 -0.9752  1.6293  0.2302
 3402TIP3   OH231764   6.448   6.741   8.086 -0.0304 -0.4544 -0.2210
 3402TIP3    H131765   6.468   6.809   8.023 -0.7899 -0.7734 -0.8232
 3402TIP3    H231766   6.530   6.725   8.132  0.5397 -0.2451 -1.1540
 3403TIP3   OH231767   6.580   1.770   0.817  0.6267 -0.6334 -0.1503
 3403TIP3    H131768   6.662   1.738   0.779  1.1621  1.5248 -0.9740
 3403TIP3    H231769   6.565   1.855   0.775 -0.8320  0.0835  1.6471
 3404TIP3   OH231770   3.604   0.191   1.184  0.4094  0.0539  0.1787
 3404TIP3    H131771   3.692   0.209   1.218  0.3113  1.9606 -0.4520
 3404TIP3    H231772   3.564   0.133   1.250  0.8592  2.1522  2.4677
 3405TIP3   OH231773   4.771   4.991   7.284 -0.3598  0.1112 -0.0683
 3405TIP3    H131774   4.820   4.938   7.221 -1.4516 -1.4811  0.3712
 3405TIP3    H231775   4.839   5.037   7.334  0.5612  0.3488 -1.4727
 3406TIP3   OH231776   3.801   0.006   7.405  0.0369 -0.4340  0.6197
 3406TIP3    H131777   3.812  -0.082   7.440 -0.0436 -1.2494 -1.3254
 3406TIP3    H231778   3.737   0.047   7.464 -1.9937 -2.5673  0.0280
 3407TIP3   OH231779   0.101   0.670   2.349  0.5804  0.5666 -0.1733
 3407TIP3    H131780   0.055   0.597   2.389  0.9534  0.0000 -0.7499
 3407TIP3    H231781   0.053   0.748   2.377  1.4711  0.3114  2.2797
 3408TIP3   OH231782   0.519   4.202   0.275  0.2931 -0.6485  0.4066
 3408TIP3    H131783   0.442   4.147   0.288 -1.2755  1.4613  0.6348
 3408TIP3    H231784   0.527   4.252   0.356  1.2745 -0.1027 -0.0075
 3409TIP3   OH231785   1.215   6.737   1.748  0.3279 -0.1619 -0.4556
 3409TIP3    H131786   1.174   6.816   1.713 -0.4369 -0.6786 -0.7446
 3409TIP3    H231787   1.260   6.766   1.827 -0.2903  0.4856 -0.3359
 3410TIP3   OH231788   6.039   5.024   0.971  0.6996  0.2416 -0.3535
 3410TIP3    H131789   6.082   5.043   0.888  0.4558  0.4350 -0.4349
 3410TIP3    H231790   5.964   5.082   0.973  1.7125  1.5741  0.8363
 3411TIP3   OH231791   4.290   0.351   1.716 -0.2617  0.6467  0.2213
 3411TIP3    H131792   4.319   0.400   1.793  1.8912 -0.2765  0.0836
 3411TIP3    H231793   4.214   0.399   1.684  1.1832  3.3896  0.6039
 3412TIP3   OH231794   1.395   5.059   7.694 -0.1279 -0.2156 -0.4603
 3412TIP3    H131795   1.487   5.041   7.673 -0.0501  0.1915 -0.4806
 3412TIP3    H231796   1.383   5.021   7.781  0.0261 -0.3763 -0.5073
 3413TIP3   OH231797   0.377   0.017   1.987  0.8722 -0.3290 -0.3112
 3413TIP3    H131798   0.341   0.082   1.927  1.0495 -0.8012 -0.9438
 3413TIP3    H231799   0.300  -0.016   2.036  1.0349  1.8858  1.6104
 3414TIP3   OH231800   1.592   4.734   2.563 -0.0231  0.6405  0.1250
 3414TIP3    H131801   1.569   4.769   2.650 -1.7965  0.6156 -0.2907
 3414TIP3    H231802   1.521   4.764   2.506  1.1670  0.7426 -1.3534
 3415TIP3   OH231803   1.900   0.511   7.357 -0.3033  0.0844  0.4773
 3415TIP3    H131804   1.860   0.439   7.309  0.8985 -0.4917  0.2892
 3415TIP3    H231805   1.942   0.469   7.432  0.8777  0.4921  0.0686
 3416TIP3   OH231806   3.747   5.999   7.188  0.1575  0.0818  0.0585
 3416TIP3    H131807   3.654   6.013   7.172 -0.2110 -1.2871  0.7930
 3416TIP3    H231808   3.777   5.951   7.111  0.0717 -0.1286  0.1540
 3417TIP3   OH231809   0.579   4.010   7.226  0.7369 -0.0244 -0.1423
 3417TIP3    H131810   0.615   3.954   7.295  0.0932 -0.8125 -0.4300
 3417TIP3    H231811   0.533   4.079   7.273  1.7844  0.4473  0.2202
 3418TIP3   OH231812   0.401   3.742   1.400  0.8565  0.7322 -0.8083
 3418TIP3    H131813   0.338   3.800   1.442  1.3738  0.8904 -0.2283
 3418TIP3    H231814   0.426   3.788   1.320 -0.7315  0.0655 -1.7361
 3419TIP3   OH231815   6.203   6.638   0.710 -0.6786 -0.0164 -0.4292
 3419TIP3    H131816   6.116   6.631   0.671 -0.5475  2.0612 -1.1835
 3419TIP3    H231817   6.213   6.730   0.731  1.9014  0.0774 -1.6658
 3420TIP3   OH231818   5.846   2.771   1.310 -0.3600  0.0560  0.6448
 3420TIP3    H131819   5.899   2.718   1.369 -0.6869  2.0247  2.8650
 3420TIP3    H231820   5.760   2.775   1.353 -0.7832  1.0931 -0.2532
 3421TIP3   OH231821   2.797   6.454   6.561 -0.0428 -0.3392  0.4196
 3421TIP3    H131822   2.762   6.519   6.622 -0.3174  1.4082 -1.5037
 3421TIP3    H231823   2.722   6.398   6.540 -0.6129  0.6509 -0.2622
 3422TIP3   OH231824   2.370   4.739   6.847  0.3556 -0.5311 -0.3407
 3422TIP3    H131825   2.333   4.825   6.827 -1.2547 -1.3614 -1.1398
 3422TIP3    H231826   2.422   4.753   6.926 -0.5408  1.0088  0.0196
 3423TIP3   OH231827   2.219   5.353   6.487 -0.4211  0.1725 -1.0357
 3423TIP3    H131828   2.254   5.434   6.452  1.4761  0.9897  2.2989
 3423TIP3    H231829   2.292   5.292   6.485 -0.7292 -0.2503 -0.0476
 3424TIP3   OH231830   0.661   4.019   8.512  0.5696 -0.3975  0.4896
 3424TIP3    H131831   0.688   3.942   8.563 -0.1046 -1.4628 -0.7133
 3424TIP3    H231832   0.657   4.090   8.576  0.6801 -1.4777  1.7334
 3425TIP3   OH231833   3.496   2.991   8.363 -0.0167  0.0310  0.4031
 3425TIP3    H131834   3.494   2.979   8.268 -1.4335  2.4408  0.0260
 3425TIP3    H231835   3.549   3.070   8.376  0.0068 -0.1601  1.5961
 3426TIP3   OH231836   3.374   0.319   1.381 -0.1524 -0.2919  0.1161
 3426TIP3    H131837   3.320   0.240   1.386 -0.2870 -0.2368 -0.3566
 3426TIP3    H231838   3.318   0.384   1.340 -0.0088  0.0234  0.4206
 3427TIP3   OH231839   0.585   1.784   1.136  0.3446 -0.4857 -0.3280
 3427TIP3    H131840   0.529   1.726   1.085  0.3385  0.0418 -0.9323
 3427TIP3    H231841   0.593   1.741   1.221  0.6567 -1.5688 -0.8842
 3428TIP3   OH231842   0.121   1.776   1.618 -0.6120  0.6653  0.0729
 3428TIP3    H131843   0.177   1.738   1.550 -1.9536 -0.0477 -0.6651
 3428TIP3    H231844   0.182   1.820   1.678  0.6120  1.1311 -1.4677
 3429TIP3   OH231845   1.271   2.175   8.000 -0.8982 -0.8894 -0.0726
 3429TIP3    H131846   1.261   2.229   8.078 -1.3806 -0.4034 -0.4689
 3429TIP3    H231847   1.199   2.200   7.943  0.4926  0.1487 -1.4814
 3430TIP3   OH231848   2.233   3.392   0.020 -0.1639  0.0080  0.3926
 3430TIP3    H131849   2.251   3.330   0.090  1.6643  0.2712  0.1922
 3430TIP3    H231850   2.215   3.475   0.065  0.4106  0.0369  0.5729
 3431TIP3   OH231851   5.892   3.405   8.472  0.3516  0.4263  0.5042
 3431TIP3    H131852   5.851   3.347   8.407 -1.8147  1.2521  1.0548
 3431TIP3    H231853   5.906   3.487   8.424 -2.3050  1.4166  1.2901
 3432TIP3   OH231854   6.353   4.094   2.708 -0.2229 -0.4389  0.5180
 3432TIP3    H131855   6.316   4.182   2.702  0.5929  0.3025  4.1861
 3432TIP3    H231856   6.415   4.090   2.635 -0.4200  1.9853  0.1256
 3433TIP3   OH231857   6.428   4.519   2.899 -0.2382  0.1393  0.5127
 3433TIP3    H131858   6.400   4.566   2.977 -2.6134 -1.9263  1.0225
 3433TIP3    H231859   6.374   4.554   2.829  0.3711  0.4828  0.2050
 3434TIP3   OH231860   1.985   1.058   8.449 -0.3996  0.1186 -0.6543
 3434TIP3    H131861   1.979   0.963   8.441 -1.2795  0.0155  0.9171
 3434TIP3    H231862   2.067   1.073   8.496 -0.2040  0.1533 -1.0018
 3435TIP3   OH231863   5.393   5.069   2.762  0.0933  0.4306 -0.7837
 3435TIP3    H131864   5.464   5.030   2.711  0.1977  2.0016 -1.9246
 3435TIP3    H231865   5.338   4.995   2.787  1.5206 -0.6988 -0.8138
 3436TIP3   OH231866   6.840   2.189   0.228  0.1937 -0.0114 -0.2279
 3436TIP3    H131867   6.871   2.158   0.143 -0.1293  0.1209 -0.3986
 3436TIP3    H231868   6.918   2.192   0.283  0.5834  0.8453 -0.7976
 3437TIP3   OH231869   6.369   2.579   1.355 -0.4300 -0.4734  0.1012
 3437TIP3    H131870   6.347   2.487   1.371  0.1856 -0.2923  2.3419
 3437TIP3    H231871   6.463   2.577   1.336  0.0698 -0.1647  2.2847
 3438TIP3   OH231872   6.604   1.714   8.445 -0.5399  0.2920 -0.4124
 3438TIP3    H131873   6.570   1.796   8.482 -0.6810 -0.5443  1.4053
 3438TIP3    H231874   6.691   1.705   8.485  0.2551  0.4552 -2.0353
 3439TIP3   OH231875   6.348   1.538   1.375  0.3299  0.0363  0.3903
 3439TIP3    H131876   6.332   1.632   1.388 -1.2447 -0.2638  0.7778
 3439TIP3    H231877   6.293   1.495   1.440 -0.0288 -1.2063 -0.7078
 3440TIP3   OH231878   0.220   5.531   0.375  0.2381  0.0852  1.1300
 3440TIP3    H131879   0.160   5.568   0.309  0.6038 -0.2103  0.6273
 3440TIP3    H231880   0.193   5.440   0.383 -0.3240  0.3097  1.9912
 3441TIP3   OH231881   0.672   0.923   8.346 -0.3264  0.1769 -0.1280
 3441TIP3    H131882   0.702   1.014   8.355 -2.4029  0.8285  0.9863
 3441TIP3    H231883   0.607   0.927   8.275 -0.9733 -0.2623  0.4310
 3442TIP3   OH231884   2.756   5.423   6.499  0.1508 -0.0289  0.0732
 3442TIP3    H131885   2.722   5.388   6.417 -1.0393  1.2115  0.0064
 3442TIP3    H231886   2.841   5.460   6.476 -0.1743  0.3068 -0.5982
 3443TIP3   OH231887   3.510   1.755   1.424 -0.2183 -0.4447  0.2662
 3443TIP3    H131888   3.449   1.687   1.395 -0.1134 -0.8825  1.0467
 3443TIP3    H231889   3.562   1.775   1.346 -0.6935 -0.7801 -0.1457
 3444TIP3   OH231890   4.697   0.872   6.393 -0.3121 -0.0296 -0.1472
 3444TIP3    H131891   4.612   0.896   6.429 -0.2425 -0.0623  0.0425
 3444TIP3    H231892   4.700   0.777   6.398  0.5399  0.0529  1.7455
 3445TIP3   OH231893   0.455   3.978   8.343  1.1271  0.8056 -0.1917
 3445TIP3    H131894   0.417   3.900   8.382  2.1192  1.5314  2.4028
 3445TIP3    H231895   0.530   3.999   8.399  1.9260  2.6419 -1.8229
 3446TIP3   OH231896   6.759   2.272   0.726  0.5604  0.1047  0.2433
 3446TIP3    H131897   6.679   2.236   0.688  0.0298 -0.9551  2.2283
 3446TIP3    H231898   6.777   2.350   0.674  0.1369 -1.4358 -2.3857
 3447TIP3   OH231899   1.315   4.328   8.436  0.0343  0.4364  0.4538
 3447TIP3    H131900   1.256   4.334   8.510 -1.7795 -0.5041 -0.8377
 3447TIP3    H231901   1.374   4.256   8.458 -1.0537 -0.4277  0.6337
 3448TIP3   OH231902   6.073   5.068   7.942  0.8556  0.1204  0.2211
 3448TIP3    H131903   6.161   5.076   7.905  0.6880  0.0384 -0.2014
 3448TIP3    H231904   6.023   5.019   7.876  0.1196  1.3609 -0.1853
 3449TIP3   OH231905   4.508   5.682   0.006  0.2117  0.3772  0.2162
 3449TIP3    H131906   4.593   5.722   0.025  0.9069 -1.1800  0.5802
 3449TIP3    H231907   4.520   5.643  -0.081 -0.2070  0.3428  0.1736
 3450TIP3   OH231908   1.818   2.158   1.839 -0.0829 -0.0909 -0.0616
 3450TIP3    H131909   1.801   2.070   1.871 -1.4769  0.1905  0.0451
 3450TIP3    H231910   1.731   2.196   1.827  0.4881  1.1097 -0.5514
 3451TIP3   OH231911   5.717   4.122   1.179  0.1494 -0.5912  0.4795
 3451TIP3    H131912   5.746   4.030   1.176 -0.6291 -0.8256 -0.4989
 3451TIP3    H231913   5.718   4.144   1.272  0.6721 -1.4902  0.7043
 3452TIP3   OH231914   2.199   0.340   1.553 -0.0153 -0.0503 -0.1594
 3452TIP3    H131915   2.174   0.292   1.631 -1.9091 -0.5646 -1.0317
 3452TIP3    H231916   2.256   0.280   1.504  0.3313 -0.1178  0.3262
 3453TIP3   OH231917   6.213   2.445   0.426 -0.3800 -0.2387 -0.1956
 3453TIP3    H131918   6.155   2.379   0.463  0.2491 -0.7093 -0.0309
 3453TIP3    H231919   6.229   2.416   0.336 -0.6723  0.0702 -0.3457
 3454TIP3   OH231920   5.781   2.512   8.131  0.1073  0.1469  0.2995
 3454TIP3    H131921   5.761   2.545   8.043 -0.7447 -1.0126  0.0243
 3454TIP3    H231922   5.698   2.518   8.178 -0.3618 -2.3461 -0.0518
 3455TIP3   OH231923   3.164   1.039   1.548  0.6961 -0.2384  0.1060
 3455TIP3    H131924   3.199   1.088   1.622  0.7705  1.2432 -0.8597
 3455TIP3    H231925   3.212   0.956   1.549  0.6110 -0.2916  1.7573
 3456TIP3   OH231926   3.390   6.741   0.250  0.2297  0.7705 -0.5197
 3456TIP3    H131927   3.321   6.760   0.313  0.2074 -0.7864 -0.0413
 3456TIP3    H231928   3.448   6.817   0.254 -1.6434  2.3465 -1.2664
 3457TIP3   OH231929   0.951   5.754   6.452  0.4076  0.8531  0.4059
 3457TIP3    H131930   1.045   5.738   6.454  0.8727  3.1563  2.1748
 3457TIP3    H231931   0.920   5.724   6.538  0.0526  2.4099  0.8612
 3458TIP3   OH231932   0.919   0.004   8.071 -0.0317 -0.0449 -0.6949
 3458TIP3    H131933   0.920  -0.078   8.022 -0.3308 -1.2160  1.1486
 3458TIP3    H231934   0.930   0.072   8.005  1.9216 -1.6330 -2.1182
 3459TIP3   OH231935   3.353   1.841   0.817  0.0879  0.0202 -0.2089
 3459TIP3    H131936   3.430   1.875   0.772  0.8723 -1.0525  0.2777
 3459TIP3    H231937   3.384   1.763   0.863 -1.6052 -1.3494 -1.2428
 3460TIP3   OH231938   6.626   4.550   2.033 -0.2157  0.5375 -0.0007
 3460TIP3    H131939   6.626   4.611   1.959 -0.6689 -0.9704 -1.2923
 3460TIP3    H231940   6.636   4.464   1.993 -1.6880 -0.4288  1.6051
 3461TIP3   OH231941   3.089   1.641   1.338 -0.7783  0.4796  0.1475
 3461TIP3    H131942   3.105   1.733   1.318 -0.6018  0.3446 -0.3687
 3461TIP3    H231943   3.027   1.612   1.271 -0.0335 -0.0329 -0.3360
 3462TIP3   OH231944   4.213   0.688   8.104 -0.0968  0.3472 -0.0103
 3462TIP3    H131945   4.171   0.750   8.044  0.1771  1.7905  1.2111
 3462TIP3    H231946   4.217   0.735   8.187  0.1944 -1.3171  0.9605
 3463TIP3   OH231947   5.799   5.342   7.043  0.5555  0.0358  0.1257
 3463TIP3    H131948   5.765   5.294   7.118  0.9668 -0.9149 -0.2860
 3463TIP3    H231949   5.825   5.274   6.980  0.5195  0.8016 -0.7472
 3464TIP3   OH231950   0.832   5.040   8.268  0.2416 -0.0361 -0.3778
 3464TIP3    H131951   0.909   5.093   8.246 -0.5358  0.8290 -1.1263
 3464TIP3    H231952   0.841   4.962   8.212  0.5713  0.0593 -0.4635
 3465TIP3   OH231953   2.248   5.682   6.979  0.2579  0.1601  0.3513
 3465TIP3    H131954   2.204   5.650   6.900  0.6055  0.9832 -0.1930
 3465TIP3    H231955   2.283   5.767   6.953  1.7970 -0.2832  0.8820
 3466TIP3   OH231956   3.440   1.208   0.803 -0.0417 -0.6292  0.3130
 3466TIP3    H131957   3.408   1.292   0.771 -1.7010 -2.5215 -3.6858
 3466TIP3    H231958   3.363   1.151   0.803  1.3922 -2.6813  0.8012
 3467TIP3   OH231959   5.635   0.281   0.385  0.2325 -0.4170 -0.6001
 3467TIP3    H131960   5.637   0.240   0.472 -1.2709 -2.5960 -1.4916
 3467TIP3    H231961   5.553   0.331   0.384 -0.3521 -1.3315 -1.0765
 3468TIP3   OH231962   6.562   3.651   1.437  0.7913 -0.0936 -0.1300
 3468TIP3    H131963   6.657   3.663   1.443  0.9338 -0.1940 -1.8060
 3468TIP3    H231964   6.531   3.662   1.527  2.3201  0.5142  0.3553
 3469TIP3   OH231965   4.443   1.425   8.449 -0.0492 -0.2500  0.2842
 3469TIP3    H131966   4.506   1.424   8.521  0.2941 -1.0759 -0.0111
 3469TIP3    H231967   4.485   1.372   8.380  0.1191  1.4122 -0.9546
 3470TIP3   OH231968   5.355   1.209   2.012  0.1943 -0.2027 -0.0280
 3470TIP3    H131969   5.380   1.126   2.053 -0.7552 -0.7482 -0.5282
 3470TIP3    H231970   5.382   1.276   2.075  2.0163 -0.8048 -0.1181
 3471TIP3   OH231971   2.279   6.203   7.607  0.1732  0.2537  0.4665
 3471TIP3    H131972   2.202   6.217   7.553 -0.1842 -1.4966  0.4641
 3471TIP3    H231973   2.332   6.282   7.595 -0.3912  0.3617 -1.6044
 3472TIP3   OH231974   2.946   4.256   7.785 -0.0383  0.2642  0.1248
 3472TIP3    H131975   3.037   4.270   7.813 -0.0070  0.2267  0.0438
 3472TIP3    H231976   2.951   4.254   7.689 -0.4354  2.4560  0.0094
 3473TIP3   OH231977   0.904   0.665   0.078 -0.2981 -0.0761  0.3241
 3473TIP3    H131978   0.908   0.713  -0.004  2.8712 -0.9797 -0.1502
 3473TIP3    H231979   0.953   0.719   0.140 -0.5707 -0.5718  0.9893
 3474TIP3   OH231980   3.569   2.045   1.906  0.0506  0.3145  0.1308
 3474TIP3    H131981   3.554   1.951   1.897 -1.0957  0.5079 -0.0964
 3474TIP3    H231982   3.663   2.053   1.924  0.2251 -0.8401 -0.2269
 3475TIP3   OH231983   0.657   5.249   2.132 -0.2548 -0.0970  0.3282
 3475TIP3    H131984   0.744   5.273   2.162 -0.0632 -0.2603 -0.0883
 3475TIP3    H231985   0.658   5.271   2.038 -0.5339 -0.4609  0.2407
 3476TIP3   OH231986   2.320   0.174   2.493  0.0316 -0.3399  0.2719
 3476TIP3    H131987   2.325   0.241   2.561 -0.1747 -0.1473  0.1027
 3476TIP3    H231988   2.385   0.202   2.428  0.2129 -0.5110  0.3832
 3477TIP3   OH231989   1.483   5.824   1.709  0.1589 -0.1158 -0.5790
 3477TIP3    H131990   1.462   5.794   1.620  1.1665 -1.0709 -0.5158
 3477TIP3    H231991   1.495   5.743   1.759 -1.1087  0.4050  0.6188
 3478TIP3   OH231992   5.444   6.379   8.227 -0.1664  0.5283  0.2442
 3478TIP3    H131993   5.413   6.469   8.241  1.6608  1.2237  0.1084
 3478TIP3    H231994   5.526   6.374   8.276  0.9720 -0.3212 -1.6330
 3479TIP3   OH231995   0.085   4.153   8.221  0.0377  0.0230  0.0843
 3479TIP3    H131996   0.040   4.195   8.148  0.7319 -0.9973 -0.9562
 3479TIP3    H231997   0.028   4.169   8.297 -1.9013 -0.9019 -1.1044
 3480TIP3   OH231998   3.965   3.895   7.299  0.5839 -0.2761 -0.1653
 3480TIP3    H131999   3.905   3.828   7.268 -1.4143  0.9672  0.7748
 3480TIP3    H232000   3.988   3.867   7.388  1.2502 -0.6447 -0.4489
 3481TIP3   OH232001   5.197   4.876   1.891  0.3862  0.3669  0.1717
 3481TIP3    H132002   5.268   4.931   1.924  0.5314  1.1418 -1.3723
 3481TIP3    H232003   5.221   4.856   1.801  0.5792 -2.6665  0.7778
 3482TIP3   OH232004   6.094   4.344   1.139  0.1434 -0.1965 -0.4402
 3482TIP3    H132005   6.027   4.365   1.075 -0.5287 -0.5288  0.1387
 3482TIP3    H232006   6.116   4.252   1.121  0.3209 -0.1385 -0.5216
 3483TIP3   OH232007   6.301   6.381   7.988 -0.4079 -0.4219  0.0159
 3483TIP3    H132008   6.211   6.398   7.960 -0.4559 -1.5238 -0.5220
 3483TIP3    H232009   6.352   6.380   7.907 -0.1916 -1.5069  0.1552
 3484TIP3   OH232010   5.751   6.533   7.099 -0.4485  0.2112 -0.1845
 3484TIP3    H132011   5.716   6.498   7.017  0.2116 -0.3121 -0.2550
 3484TIP3    H232012   5.840   6.497   7.104 -0.9719 -0.9825  1.4854
 3485TIP3   OH232013   3.222   6.517   1.580  0.1800 -0.6880 -0.1965
 3485TIP3    H132014   3.230   6.530   1.485  1.0596 -1.8551 -0.3098
 3485TIP3    H232015   3.312   6.498   1.608 -0.0775 -0.3596  0.8738
 3486TIP3   OH232016   0.969   4.328   0.762  0.1913 -0.5996  0.3630
 3486TIP3    H132017   0.936   4.246   0.724 -2.9073  0.7537 -0.2408
 3486TIP3    H232018   0.934   4.329   0.851 -0.7398  0.4791  0.0132
 3487TIP3   OH232019   3.735   0.308   0.816 -0.2250  0.4578 -0.2481
 3487TIP3    H132020   3.690   0.356   0.885  1.3271  2.9715 -0.8791
 3487TIP3    H232021   3.820   0.285   0.854  0.7419  2.0788 -1.3334
 3488TIP3   OH232022   4.160   6.769   6.987  0.7971  0.1523 -0.2663
 3488TIP3    H132023   4.088   6.832   6.984  1.6821  1.1793 -2.1812
 3488TIP3    H232024   4.144   6.717   7.065 -0.0528  2.6726  1.3624
 3489TIP3   OH232025   6.404   3.644   7.962 -0.1222 -0.4111  0.4288
 3489TIP3    H132026   6.374   3.574   7.905  0.1965  0.7607 -1.2687
 3489TIP3    H232027   6.326   3.671   8.011 -1.5228  1.3461 -2.5493
 3490TIP3   OH232028   2.258   4.422   0.850  0.7215  0.3261  0.3535
 3490TIP3    H132029   2.300   4.468   0.778  3.1945  0.4601  1.7595
 3490TIP3    H232030   2.183   4.377   0.810 -0.0478  3.1047 -1.6164
 3491TIP3   OH232031   1.578   0.103   7.864  0.4795 -0.0117 -0.4720
 3491TIP3    H132032   1.525   0.182   7.851  0.0986  0.1905  1.8001
 3491TIP3    H232033   1.643   0.129   7.929  1.6924 -1.0083 -1.2510
 3492TIP3   OH232034   6.359   5.004   0.415 -0.0060  0.1880  0.2082
 3492TIP3    H132035   6.268   4.985   0.391  0.2107 -1.4480  0.5717
 3492TIP3    H232036   6.391   5.059   0.344 -0.3878 -1.7674 -1.5991
 3493TIP3   OH232037   6.695   6.668   8.219  0.3988  0.0313 -0.4700
 3493TIP3    H132038   6.686   6.624   8.303  0.7613  1.3958  0.3039
 3493TIP3    H232039   6.776   6.633   8.182  0.4515 -0.2638 -0.0763
 3494TIP3   OH232040   6.205   0.734   1.970 -0.1760 -0.2492  0.2270
 3494TIP3    H132041   6.239   0.748   2.059 -2.3579 -1.0536  1.2688
 3494TIP3    H232042   6.244   0.651   1.943 -0.5886 -0.7372  1.0589
 3495TIP3   OH232043   2.591   6.563   1.192 -0.3179  0.1325 -0.4351
 3495TIP3    H132044   2.654   6.565   1.264  0.4540  0.1872 -1.0983
 3495TIP3    H232045   2.644   6.550   1.114 -1.0107  1.2752 -1.1372
 3496TIP3   OH232046   6.485   3.100   8.094  0.3329 -0.4594  0.3866
 3496TIP3    H132047   6.479   3.020   8.147 -0.4268 -0.3490  0.4860
 3496TIP3    H232048   6.550   3.080   8.027 -0.8740 -1.7079 -0.4897
 3497TIP3   OH232049   5.534   5.979   8.119 -0.2045  0.3000  0.3193
 3497TIP3    H132050   5.526   5.976   8.214 -0.8449 -0.3316  0.2523
 3497TIP3    H232051   5.456   5.935   8.087  0.2957 -0.0137 -0.4950
 3498TIP3   OH232052   1.086   3.828   1.490  0.0938 -0.1151 -0.4212
 3498TIP3    H132053   1.036   3.781   1.557 -0.8445 -0.3555 -1.2724
 3498TIP3    H232054   1.021   3.855   1.425  1.0240 -0.1344 -1.3941
 3499TIP3   OH232055   6.342   5.794   8.219  0.1302  0.3448  0.1142
 3499TIP3    H132056   6.435   5.774   8.206  0.1181  0.4071 -0.0817
 3499TIP3    H232057   6.335   5.822   8.310  0.0337 -1.1793  0.5944
 3500TIP3   OH232058   2.828   0.150   7.216 -0.4433  0.5412  0.5206
 3500TIP3    H132059   2.754   0.153   7.155  0.9984 -5.3023 -2.1834
 3500TIP3    H232060   2.812   0.072   7.269  2.0118  1.2858  2.5315
 3501TIP3   OH232061   4.964   2.827   1.944  0.2461 -0.1938 -0.1460
 3501TIP3    H132062   4.891   2.865   1.895 -0.4351 -0.4222  0.6672
 3501TIP3    H232063   4.926   2.800   2.027  1.5719  1.0347  0.9041
 3502TIP3   OH232064   5.162   2.486   8.490  0.0335 -0.4178 -0.2372
 3502TIP3    H132065   5.085   2.448   8.447 -0.2771 -0.3322  0.2360
 3502TIP3    H232066   5.236   2.458   8.436 -0.1308 -2.1121  0.3693
 3503TIP3   OH232067   0.864   3.833   1.293 -0.0934  0.3422  0.4205
 3503TIP3    H132068   0.820   3.900   1.241 -0.8254 -0.9676 -0.7252
 3503TIP3    H232069   0.828   3.750   1.260  3.1657 -0.8309 -0.5618
 3504TIP3   OH232070   0.194   2.619   7.232 -0.1125  0.3475 -0.6183
 3504TIP3    H132071   0.201   2.573   7.148  0.4877  1.0586 -0.9788
 3504TIP3    H232072   0.275   2.670   7.238 -0.5426  0.9877 -0.0244
 3505TIP3   OH232073   1.799   6.018   2.460  0.0006  0.1269 -0.5462
 3505TIP3    H132074   1.839   5.931   2.464 -0.7870 -0.2135  0.3187
 3505TIP3    H232075   1.862   6.071   2.410  1.9884 -0.1356  1.5045
 3506TIP3   OH232076   0.738   6.465   1.626  0.1040  0.2719 -0.0154
 3506TIP3    H132077   0.824   6.499   1.652 -0.5122  0.8628  1.3012
 3506TIP3    H232078   0.758   6.405   1.554  1.9026 -1.3234  1.6769
 3507TIP3   OH232079   1.480   0.458   1.422  0.6599  0.2807 -0.4511
 3507TIP3    H132080   1.490   0.536   1.367  0.5856  0.0385 -0.8152
 3507TIP3    H232081   1.459   0.388   1.360 -1.7536  0.4303  0.1007
 3508TIP3   OH232082   5.973   2.160   7.480  0.1961 -0.1396  0.1206
 3508TIP3    H132083   6.023   2.233   7.445 -1.7872  1.8121  1.1392
 3508TIP3    H232084   6.021   2.134   7.559  0.2340  0.9523  0.4677
 3509TIP3   OH232085   1.402   5.428   7.579  0.2816  0.3963 -0.1624
 3509TIP3    H132086   1.446   5.443   7.663  0.0523  1.3447 -0.1978
 3509TIP3    H232087   1.451   5.357   7.538  1.0398  0.6236  0.3264
 3510TIP3   OH232088   5.715   4.231   6.400 -0.0415  0.0275  0.9094
 3510TIP3    H132089   5.772   4.243   6.323 -0.1149  2.8079  1.1889
 3510TIP3    H232090   5.772   4.191   6.466  0.6745 -0.2362  0.1496
 3511TIP3   OH232091   1.207   5.116   6.943 -0.4376 -0.2668 -0.8740
 3511TIP3    H132092   1.258   5.061   7.002 -2.8241 -0.4783  1.1658
 3511TIP3    H232093   1.272   5.160   6.888  1.7572 -2.0128  0.1854
 3512TIP3   OH232094   5.569   4.978   2.567 -0.1215  0.1130 -0.0534
 3512TIP3    H132095   5.662   5.001   2.561  0.0107 -0.3777  0.1386
 3512TIP3    H232096   5.567   4.883   2.556 -0.4465 -0.0822  1.4735
 3513TIP3   OH232097   6.199   4.968   7.490 -0.5425 -0.2750 -0.2615
 3513TIP3    H132098   6.110   4.980   7.522 -0.5382 -0.9701  0.0369
 3513TIP3    H232099   6.212   4.873   7.492  0.5106 -0.1281  0.5562
 3514TIP3   OH232100   1.227   3.182   8.522 -0.1342  0.0562  0.0457
 3514TIP3    H132101   1.200   3.107   8.469  1.0550  0.2802 -0.9165
 3514TIP3    H232102   1.248   3.145   8.608 -0.3597 -0.5816 -0.1686
 3515TIP3   OH232103   1.302   4.811   2.109  0.0254 -0.5047  0.2612
 3515TIP3    H132104   1.341   4.859   2.036  1.2942 -0.8781  0.6651
 3515TIP3    H232105   1.234   4.756   2.069 -0.6364  0.7178 -0.3610
 3516TIP3   OH232106   2.451   1.633   8.300  0.5791 -0.3836 -0.0538
 3516TIP3    H132107   2.429   1.710   8.248 -1.1914 -1.3423 -0.8290
 3516TIP3    H232108   2.367   1.603   8.336  1.0902 -2.3302 -0.3432
 3517TIP3   OH232109   2.594   3.685   1.091 -0.3357 -0.3434  0.0977
 3517TIP3    H132110   2.566   3.594   1.089 -0.8738 -0.1758 -0.5398
 3517TIP3    H232111   2.687   3.681   1.114  0.6043 -1.3438 -3.2752
 3518TIP3   OH232112   0.141   6.388   7.850  0.5266 -0.3060  0.8657
 3518TIP3    H132113   0.234   6.367   7.841  0.5381  0.2137 -0.4618
 3518TIP3    H232114   0.100   6.349   7.772  0.0479  1.6288  0.0978
 3519TIP3   OH232115   3.033   6.571   6.469  0.0213  0.4048 -0.3956
 3519TIP3    H132116   2.959   6.514   6.488  0.3349 -0.1347 -0.7649
 3519TIP3    H232117   3.090   6.519   6.412 -0.2421  1.4890 -1.7069
 3520TIP3   OH232118   1.871   2.439   2.422  0.0983 -0.0679  0.2478
 3520TIP3    H132119   1.880   2.525   2.380  2.1238  1.2033  3.0061
 3520TIP3    H232120   1.909   2.377   2.359 -1.1336  1.0010 -1.6737
 3521TIP3   OH232121   6.473   1.812   1.756  0.6879  0.2261 -0.3404
 3521TIP3    H132122   6.407   1.880   1.767  0.8471  0.4130 -0.5287
 3521TIP3    H232123   6.544   1.854   1.707  0.2947 -0.3924 -1.4759
 3522TIP3   OH232124   3.426   0.583   7.491  0.0387 -0.0564  0.4663
 3522TIP3    H132125   3.366   0.515   7.521 -1.7105  1.0130 -0.5143
 3522TIP3    H232126   3.486   0.537   7.431 -0.3932 -0.9369  0.6937
 3523TIP3   OH232127   4.456   0.523   0.151 -0.0455 -0.0068 -0.4490
 3523TIP3    H132128   4.507   0.462   0.206 -0.2100 -0.7591 -1.1157
 3523TIP3    H232129   4.481   0.610   0.183  4.3009 -0.0576 -2.8386
 3524TIP3   OH232130   1.106   1.482   0.184 -0.4747 -0.4577  0.0488
 3524TIP3    H132131   1.179   1.529   0.224 -0.4878  0.0641 -0.5218
 3524TIP3    H232132   1.034   1.545   0.185 -0.3071 -0.2228 -1.3206
 3525TIP3   OH232133   4.334   5.308   1.691 -0.2814  0.1278 -0.1750
 3525TIP3    H132134   4.249   5.289   1.650 -0.7571  1.0764  0.3564
 3525TIP3    H232135   4.398   5.280   1.626 -1.0016 -0.2472 -0.7414
 3526TIP3   OH232136   3.454   3.816   1.467 -0.2731 -0.1032 -0.0579
 3526TIP3    H132137   3.492   3.889   1.418 -0.3062  0.2950  0.4919
 3526TIP3    H232138   3.393   3.857   1.528 -1.3453 -0.7122 -0.6877
 3527TIP3   OH232139   0.259   2.335   0.317 -0.1700 -0.0909 -0.5606
 3527TIP3    H132140   0.349   2.367   0.315 -0.1023 -0.1907 -2.9921
 3527TIP3    H232141   0.222   2.364   0.233 -2.7480  0.8334  0.7585
 3528TIP3   OH232142   4.625   2.624   0.706 -0.3129 -0.3309  0.0536
 3528TIP3    H132143   4.568   2.629   0.630 -0.6688  1.0190  0.3836
 3528TIP3    H232144   4.578   2.671   0.775  2.0836  2.8555 -0.2525
 3529TIP3   OH232145   4.750   0.411   0.472 -0.2796  0.3991  0.3708
 3529TIP3    H132146   4.825   0.438   0.524  0.2603 -1.1623  0.4646
 3529TIP3    H232147   4.685   0.381   0.536  0.7651 -2.4815  0.2344
 3530TIP3   OH232148   6.154   1.128   8.205 -0.4295 -0.1361  0.1236
 3530TIP3    H132149   6.134   1.102   8.115  3.1800 -1.2092 -0.5551
 3530TIP3    H232150   6.113   1.060   8.260 -1.2816 -0.3895 -0.8012
 3531TIP3   OH232151   5.087   3.552   8.239  0.2647 -0.3726  0.1721
 3531TIP3    H132152   5.042   3.475   8.203 -1.7262 -0.1673  2.0014
 3531TIP3    H232153   5.128   3.520   8.319 -1.2583  0.5547  1.3856
 3532TIP3   OH232154   6.269   1.598   0.815 -0.1369  0.3703  0.1668
 3532TIP3    H132155   6.178   1.620   0.792 -0.4072  1.2005  1.8262
 3532TIP3    H232156   6.313   1.683   0.820  0.9875 -0.0737 -1.4469
 3533TIP3   OH232157   5.500   0.141   7.553  0.2018 -0.5792  0.3135
 3533TIP3    H132158   5.548   0.071   7.596  0.5210 -0.1645  0.6422
 3533TIP3    H232159   5.542   0.222   7.583 -0.0306 -0.2510 -0.2120
 3534TIP3   OH232160   2.825   1.551   6.673  0.0458 -0.5298  0.0065
 3534TIP3    H132161   2.775   1.533   6.753  0.6265 -1.7869  0.1147
 3534TIP3    H232162   2.783   1.496   6.606  1.7137 -2.2612  0.2808
 3535TIP3   OH232163   2.555   5.995   1.168 -0.1852 -0.1954  0.1772
 3535TIP3    H132164   2.596   6.066   1.218  0.1628  0.1547 -0.5860
 3535TIP3    H232165   2.574   5.916   1.218  3.3914 -0.3811 -1.2072
 3536TIP3   OH232166   6.177   6.742   8.209  0.0050 -0.0076  0.4887
 3536TIP3    H132167   6.254   6.721   8.156 -0.4529  1.6896 -0.9472
 3536TIP3    H232168   6.211   6.796   8.281  0.2077  0.4670  0.0405
 3537TIP3   OH232169   4.512   2.401   1.066 -0.0177 -0.0849  0.2295
 3537TIP3    H132170   4.596   2.445   1.053 -0.1876  0.0275 -0.5859
 3537TIP3    H232171   4.536   2.312   1.092  0.3180  0.6498  2.6769
 3538TIP3   OH232172   3.768   6.043   0.615  0.3383  0.2997 -0.4609
 3538TIP3    H132173   3.707   6.110   0.646  1.2003  0.8706  0.0511
 3538TIP3    H232174   3.767   6.051   0.520  0.8202  1.4205 -0.3901
 3539TIP3   OH232175   4.950   5.791   0.880  0.3111 -0.1773  0.1626
 3539TIP3    H132176   5.009   5.735   0.930 -1.1192 -1.9204 -0.0070
 3539TIP3    H232177   4.866   5.745   0.881 -1.1378  2.3031  0.5724
 3540TIP3   OH232178   3.385   5.253   8.355  0.1833 -0.3957 -0.1945
 3540TIP3    H132179   3.430   5.175   8.388 -0.7203 -1.2141 -0.8226
 3540TIP3    H232180   3.358   5.229   8.266  1.6629  1.3966 -1.1942
 3541TIP3   OH232181   3.343   2.064   7.976  1.3372  0.3356  0.9959
 3541TIP3    H132182   3.348   1.971   7.955 -0.5212  0.1122  1.3628
 3541TIP3    H232183   3.327   2.107   7.892  0.7421  0.1574  1.0132
 3542TIP3   OH232184   6.500   6.693   2.067  0.4682  0.0080  0.2387
 3542TIP3    H132185   6.515   6.722   2.157 -0.4010 -1.4114  0.8694
 3542TIP3    H232186   6.586   6.702   2.025  0.6629  1.6155  0.9060
 3543TIP3   OH232187   2.097   4.066   8.690  0.1578 -0.3939  0.0249
 3543TIP3    H132188   2.145   4.107   8.618  1.2808 -2.1346 -0.2710
 3543TIP3    H232189   2.142   4.096   8.769  0.5599 -0.5303 -0.1489
 3544TIP3   OH232190   5.418   4.254   2.479 -0.0839  0.0098  0.0573
 3544TIP3    H132191   5.433   4.327   2.540  1.2183  1.1223 -1.4800
 3544TIP3    H232192   5.324   4.253   2.466 -0.0857  1.9727 -0.4533
 3545TIP3   OH232193   3.257   6.529   8.643  0.0293 -0.5392  0.1128
 3545TIP3    H132194   3.338   6.484   8.617 -0.3847 -0.8804 -0.6267
 3545TIP3    H232195   3.278   6.622   8.636  0.4407 -0.6217  0.1968
 3546TIP3   OH232196   0.419   5.654   0.746  0.0289  0.1377  0.2064
 3546TIP3    H132197   0.341   5.704   0.768 -0.3073 -0.2756 -0.0390
 3546TIP3    H232198   0.399   5.613   0.662  0.4768 -0.0413  0.1813
 3547TIP3   OH232199   0.171   2.213   7.160  0.3788  0.4873  0.2861
 3547TIP3    H132200   0.099   2.212   7.222 -0.4964 -3.0223 -0.5333
 3547TIP3    H232201   0.137   2.258   7.083 -0.6941 -0.4217  0.2125
 3548TIP3   OH232202   1.895   1.699   0.746  0.2572  0.2867 -0.2444
 3548TIP3    H132203   1.948   1.753   0.804 -0.9559  0.4327  0.7896
 3548TIP3    H232204   1.806   1.709   0.779 -0.0760 -2.0265 -0.2408
 3549TIP3   OH232205   3.915   1.867   0.712  0.7331  0.6177  0.2341
 3549TIP3    H132206   3.942   1.953   0.745 -0.6779  1.7110 -1.2598
 3549TIP3    H232207   3.895   1.816   0.790 -0.4183  2.3697  1.1563
 3550TIP3   OH232208   0.477   0.419   7.375  0.0081  0.4979  0.3235
 3550TIP3    H132209   0.560   0.392   7.336  0.9352  1.7253  1.3428
 3550TIP3    H232210   0.463   0.508   7.342  0.6210  1.4225  2.3864
 3551TIP3   OH232211   4.852   6.826   1.499  0.0312  0.2662  0.2457
 3551TIP3    H132212   4.783   6.763   1.520 -0.6355  1.0304  0.4290
 3551TIP3    H232213   4.819   6.873   1.422  1.8004 -1.5185 -1.7290
 3552TIP3   OH232214   5.909   3.038   7.141 -0.2007  0.1275 -0.3006
 3552TIP3    H132215   5.965   2.986   7.083 -1.0021 -1.3768  0.2241
 3552TIP3    H232216   5.826   3.045   7.095 -0.7964 -0.9559  0.5798
 3553TIP3   OH232217   0.563   3.682   6.231 -0.2822 -0.2476  0.7057
 3553TIP3    H132218   0.515   3.631   6.166  0.5462 -0.6189  0.3640
 3553TIP3    H232219   0.609   3.616   6.284  2.3097  0.0916 -0.9077
 3554TIP3   OH232220   6.401   3.284   0.387  0.0659  0.2200  0.4925
 3554TIP3    H132221   6.347   3.361   0.364  1.1118  1.0674  0.8108
 3554TIP3    H232222   6.352   3.242   0.457 -2.5027 -1.6392 -2.1544
 3555TIP3   OH232223   1.101   3.644   1.849 -0.6431 -0.0337  0.0701
 3555TIP3    H132224   1.020   3.624   1.897  0.1581 -2.8951  0.4349
 3555TIP3    H232225   1.168   3.649   1.918 -0.0743 -0.5340 -0.4375
 3556TIP3   OH232226   3.216   1.936   1.112  0.3680  0.2572 -0.3933
 3556TIP3    H132227   3.129   1.963   1.143 -0.4728 -1.4607 -1.1420
 3556TIP3    H232228   3.203   1.849   1.076  2.5357 -0.2850 -0.0136
 3557TIP3   OH232229   4.086   6.097   1.317  0.1883  0.1475 -0.0028
 3557TIP3    H132230   4.178   6.092   1.292  0.4433  0.0679  0.9250
 3557TIP3    H232231   4.042   6.036   1.258  0.8578 -0.4871  0.1469
 3558TIP3   OH232232   2.359   3.800   0.000  0.1159  0.6701  0.4093
 3558TIP3    H132233   2.273   3.771   0.032  0.2006  0.3137  0.3155
 3558TIP3    H232234   2.362   3.772  -0.091  0.6846 -0.0975  0.6595
 3559TIP3   OH232235   4.719   4.710   8.673  0.0220 -0.6454 -0.1307
 3559TIP3    H132236   4.712   4.744   8.584  0.9938 -0.1355 -0.0218
 3559TIP3    H232237   4.635   4.665   8.687 -0.4194 -0.1595 -1.0510
 3560TIP3   OH232238   0.270   2.172   1.567  0.3184 -0.4686 -0.2373
 3560TIP3    H132239   0.297   2.101   1.509  1.2276 -0.8095  0.5792
 3560TIP3    H232240   0.349   2.224   1.579 -0.1178  0.1756 -0.1084
 3561TIP3   OH232241   0.753   2.577   8.647 -0.2741  0.2448  0.0129
 3561TIP3    H132242   0.752   2.492   8.603  0.8981  0.1016  0.2246
 3561TIP3    H232243   0.688   2.629   8.600  0.4570 -0.1088 -1.4688
 3562TIP3   OH232244   0.104   5.892   0.221  0.0432 -0.4724 -0.2460
 3562TIP3    H132245   0.076   5.862   0.307  1.9442 -0.9193  0.2637
 3562TIP3    H232246   0.023   5.902   0.171 -0.9966 -1.5332  1.1663
 3563TIP3   OH232247   2.882   1.925   1.650  0.1862 -0.0846  0.3924
 3563TIP3    H132248   2.874   1.878   1.733 -0.5084 -0.5860  0.0551
 3563TIP3    H232249   2.890   2.017   1.675 -0.6235 -0.1652  1.0045
 3564TIP3   OH232250   0.437   4.932   1.114 -0.5816  0.0810 -0.0859
 3564TIP3    H132251   0.354   4.938   1.162 -1.1791  0.5652 -1.1487
 3564TIP3    H232252   0.441   4.841   1.085 -1.7103  0.4866 -1.6589
 3565TIP3   OH232253   2.134   0.873   0.470  0.0085 -0.1356  0.3482
 3565TIP3    H132254   2.100   0.786   0.487  0.1407 -0.0486  1.0635
 3565TIP3    H232255   2.100   0.927   0.541 -0.7476  0.5877 -0.5149
 3566TIP3   OH232256   2.432   1.963   0.607 -0.7296 -0.5067 -0.5509
 3566TIP3    H132257   2.386   1.895   0.656 -0.9132 -0.0030 -0.0192
 3566TIP3    H232258   2.377   1.979   0.530 -2.0423  0.8822  0.6373
 3567TIP3   OH232259   6.320   2.463   7.413  0.5341 -0.4244 -0.1639
 3567TIP3    H132260   6.275   2.494   7.491  1.2101 -0.6850  0.3367
 3567TIP3    H232261   6.285   2.375   7.399 -2.3217  0.8861 -2.3091
 3568TIP3   OH232262   5.326   1.596   0.630  0.6284  0.4364  0.1651
 3568TIP3    H132263   5.273   1.517   0.643  1.5291 -0.6630 -2.2592
 3568TIP3    H232264   5.379   1.577   0.552  3.3467  2.1395  1.4508
 3569TIP3   OH232265   6.553   0.730   1.704  0.0898 -0.3977 -0.1676
 3569TIP3    H132266   6.512   0.805   1.746  0.8802  0.1833 -0.3990
 3569TIP3    H232267   6.520   0.654   1.752  2.0069  0.2815  2.4626
 3570TIP3   OH232268   4.296   3.201   0.886  0.0608  0.5595 -0.3246
 3570TIP3    H132269   4.272   3.109   0.870  0.1015  0.8045 -1.9529
 3570TIP3    H232270   4.261   3.220   0.973 -0.9489 -0.6718 -0.4299
 3571TIP3   OH232271   5.414   1.586   7.827 -0.2025 -0.3289 -0.0434
 3571TIP3    H132272   5.461   1.598   7.744 -0.3545 -1.2689 -0.2785
 3571TIP3    H232273   5.366   1.668   7.839  1.2508  0.5454  0.0664
 3572TIP3   OH232274   5.116   4.047   1.544  0.4661  0.5735  0.5333
 3572TIP3    H132275   5.109   4.044   1.639 -1.3845  1.9832  0.4891
 3572TIP3    H232276   5.158   3.964   1.520  0.3285 -0.1064  2.5027
 3573TIP3   OH232277   6.179   3.138   1.465 -0.0048  0.4283 -0.7707
 3573TIP3    H132278   6.266   3.163   1.495  0.6446 -0.6233 -1.7237
 3573TIP3    H232279   6.171   3.177   1.378 -0.5913  0.7266 -0.5879
 3574TIP3   OH232280   0.302   5.656   6.448 -0.4929 -0.4613  0.7263
 3574TIP3    H132281   0.276   5.710   6.523 -0.3314  0.2364  0.2896
 3574TIP3    H232282   0.266   5.702   6.372  1.2747  0.0835  0.1757
 3575TIP3   OH232283   2.674   3.116   1.531 -0.0042  0.2311  0.4284
 3575TIP3    H132284   2.682   3.195   1.585 -2.0076  0.0931  1.0122
 3575TIP3    H232285   2.647   3.048   1.592 -4.3259  0.5082 -0.8709
 3576TIP3   OH232286   5.988   1.233   7.859 -0.1908  0.2301 -0.2182
 3576TIP3    H132287   6.010   1.144   7.887 -0.4867 -0.0410 -0.8293
 3576TIP3    H232288   6.045   1.289   7.912 -0.8499 -0.2533  1.0420
 3577TIP3   OH232289   5.822   3.735   8.400 -0.4134  0.1452  0.0317
 3577TIP3    H132290   5.861   3.689   8.326  2.3590 -2.0726  2.6307
 3577TIP3    H232291   5.737   3.692   8.413 -0.5766  0.0267 -1.3401
 3578TIP3   OH232292   2.287   1.431   0.503  0.0222  0.2041 -0.0153
 3578TIP3    H132293   2.205   1.473   0.531 -0.2571 -0.4256  0.1247
 3578TIP3    H232294   2.292   1.449   0.409 -0.9506 -0.8630 -0.2897
 3579TIP3   OH232295   6.644   4.322   1.907  0.2317 -0.2957 -0.5559
 3579TIP3    H132296   6.559   4.280   1.913  0.2810 -0.7358 -2.3240
 3579TIP3    H232297   6.699   4.259   1.859  1.0311  0.6932 -0.9846
 3580TIP3   OH232298   5.217   2.600   2.646 -0.2149  0.1808  0.1343
 3580TIP3    H132299   5.278   2.611   2.719  1.3601 -1.6152 -0.8089
 3580TIP3    H232300   5.271   2.610   2.568 -1.1830 -1.1569 -0.7462
 3581TIP3   OH232301   6.542   4.549   0.868  0.3906 -0.4380 -0.1260
 3581TIP3    H132302   6.606   4.481   0.888  0.2165 -0.3837  0.6310
 3581TIP3    H232303   6.459   4.503   0.861  0.2248 -0.2709  0.6793
 3582TIP3   OH232304   6.733   4.830   8.446 -0.1727 -0.0170 -0.1901
 3582TIP3    H132305   6.679   4.841   8.369  1.6366 -0.9594 -1.6697
 3582TIP3    H232306   6.773   4.916   8.460  0.4995 -0.1682 -1.1184
 3583TIP3   OH232307   1.838   1.857   6.600 -0.0363 -0.1635  0.0717
 3583TIP3    H132308   1.883   1.814   6.673 -0.5428 -0.0672  0.4501
 3583TIP3    H232309   1.769   1.909   6.642 -0.0308  0.2681 -0.4461
 3584TIP3   OH232310   1.729   2.119   0.751 -0.3505 -0.5607  0.0555
 3584TIP3    H132311   1.771   2.125   0.838 -0.2599 -0.8037  0.0290
 3584TIP3    H232312   1.755   2.200   0.707 -2.3929  0.7536  1.1260
 3585TIP3   OH232313   6.543   3.598   0.935  1.1141  0.0985 -0.2493
 3585TIP3    H132314   6.584   3.590   0.850 -0.7034  0.1296 -1.1885
 3585TIP3    H232315   6.494   3.517   0.946 -0.0016  0.7728 -0.0173
 3586TIP3   OH232316   1.899   6.322   7.982 -0.9339 -0.0695 -0.5868
 3586TIP3    H132317   1.830   6.375   7.941 -1.7203 -1.7719 -1.5916
 3586TIP3    H232318   1.977   6.341   7.930 -1.3928 -0.4853 -1.4477
 3587TIP3   OH232319   6.173   2.728   1.248 -0.6693 -0.7020  0.0054
 3587TIP3    H132320   6.259   2.701   1.282  0.5754  1.0111 -1.5635
 3587TIP3    H232321   6.132   2.773   1.322  1.0606  1.0208  0.0173
 3588TIP3   OH232322   2.208   5.294   0.684 -0.1971  0.1442  0.5311
 3588TIP3    H132323   2.146   5.323   0.617  0.1026  1.5067  0.8162
 3588TIP3    H232324   2.294   5.319   0.649  0.0493 -0.1838  0.8981
 3589TIP3   OH232325   3.949   0.227   0.984  0.3592 -0.1299 -0.2033
 3589TIP3    H132326   4.004   0.297   0.948 -0.1561 -1.1039 -3.1810
 3589TIP3    H232327   3.999   0.147   0.970 -0.6669 -0.7465 -0.4633
 3590TIP3   OH232328   4.593   3.468   0.033  0.4595  0.1577 -0.2894
 3590TIP3    H132329   4.532   3.394   0.030 -0.5467  0.9114  0.5978
 3590TIP3    H232330   4.666   3.436   0.087  0.2223 -0.3220 -0.2468
 3591TIP3   OH232331   5.084   2.220   6.682 -0.0009  0.1566 -0.0689
 3591TIP3    H132332   5.144   2.181   6.746  0.1415  1.2749  0.4917
 3591TIP3    H232333   5.108   2.312   6.679 -0.4383  0.2460 -1.2664
 3592TIP3   OH232334   2.001   3.022   8.182 -0.3031 -0.2840 -0.0937
 3592TIP3    H132335   1.929   2.972   8.143 -0.6934  0.9290 -0.9707
 3592TIP3    H232336   1.974   3.036   8.273 -0.9875 -0.1976 -0.3060
 3593TIP3   OH232337   3.355   0.797   2.703  0.2715  0.5076 -0.1504
 3593TIP3    H132338   3.301   0.859   2.655  0.8975 -0.7032 -2.5805
 3593TIP3    H232339   3.441   0.838   2.707 -0.1409  1.3084  1.4595
 3594TIP3   OH232340   6.481   4.162   6.487 -0.2773  0.4504 -0.5558
 3594TIP3    H132341   6.458   4.106   6.561 -0.8616  0.4728 -0.7194
 3594TIP3    H232342   6.472   4.105   6.410  0.1167  0.4879 -0.6333
 3595TIP3   OH232343   5.387   3.531   1.730 -0.4063  0.1214 -0.5354
 3595TIP3    H132344   5.366   3.608   1.782  0.1540 -0.0794 -0.0053
 3595TIP3    H232345   5.313   3.471   1.745 -0.7348  0.4578 -0.7769
 3596TIP3   OH232346   0.390   0.689   7.376  0.5527 -0.2495  0.4627
 3596TIP3    H132347   0.397   0.706   7.470 -0.0138 -0.0119  0.4611
 3596TIP3    H232348   0.477   0.711   7.342  0.8196 -0.5110  0.9530
 3597TIP3   OH232349   2.409   0.670   0.676 -0.5079  0.4413  0.0096
 3597TIP3    H132350   2.401   0.766   0.680 -0.4246  0.5644 -1.9810
 3597TIP3    H232351   2.321   0.639   0.655 -0.1239  0.2578 -1.4034
 3598TIP3   OH232352   5.604   2.977   0.503  0.3644 -0.3146 -0.0709
 3598TIP3    H132353   5.608   3.006   0.411  0.1957  1.1785  0.3675
 3598TIP3    H232354   5.615   2.882   0.498 -1.1164 -0.4580 -1.7529
 3599TIP3   OH232355   0.509   0.849   7.628  0.0909  0.7455 -0.0905
 3599TIP3    H132356   0.487   0.915   7.694 -0.7487  0.5215 -0.1315
 3599TIP3    H232357   0.591   0.811   7.660 -0.8778 -0.1565  1.4767
 3600TIP3   OH232358   5.278   1.663   8.243  0.0320 -0.1960 -0.1291
 3600TIP3    H132359   5.247   1.735   8.189 -1.5470 -0.8173 -0.1356
 3600TIP3    H232360   5.275   1.697   8.332 -0.0244 -0.0306 -0.1937
 3601TIP3   OH232361   5.534   0.724   0.825 -0.5265 -0.0471 -0.6444
 3601TIP3    H132362   5.540   0.779   0.903 -0.1858 -0.0252 -0.6845
 3601TIP3    H232363   5.448   0.684   0.830 -1.5329  1.8648 -1.5238
 3602TIP3   OH232364   4.004   2.601   0.167  0.3675  0.1316  0.1529
 3602TIP3    H132365   4.019   2.525   0.110  0.4305 -0.0937  0.4667
 3602TIP3    H232366   4.083   2.655   0.155  0.2089  0.2757 -0.2637
 3603TIP3   OH232367   3.584   2.382   1.263 -0.0284  0.2160 -0.8023
 3603TIP3    H132368   3.510   2.331   1.296 -0.8355  1.4222 -0.6832
 3603TIP3    H232369   3.572   2.383   1.168  1.7537 -2.4296 -1.1527
 3604TIP3   OH232370   1.024   0.317   8.079 -0.1492 -0.2682  0.4829
 3604TIP3    H132371   0.998   0.318   8.171 -1.7404 -1.6797  0.0890
 3604TIP3    H232372   0.944   0.294   8.031  0.8520 -0.4504 -1.1875
 3605TIP3   OH232373   2.086   5.027   6.538  0.1076 -0.5859  0.6355
 3605TIP3    H132374   2.071   5.082   6.462 -0.8225 -1.0851  0.4474
 3605TIP3    H232375   2.139   4.954   6.506  1.1318  0.0451  0.8343
 3606TIP3   OH232376   5.153   2.042   7.686  0.0228 -0.2503 -0.0504
 3606TIP3    H132377   5.211   2.109   7.651 -0.8735  0.4824 -0.1674
 3606TIP3    H232378   5.096   2.018   7.613 -1.4641  0.8630  0.6875
 3607TIP3   OH232379   3.827   0.502   1.210  0.0651  0.0487 -0.7555
 3607TIP3    H132380   3.861   0.559   1.279  0.6724  0.4705 -1.3918
 3607TIP3    H232381   3.897   0.440   1.194  0.1340  0.2806 -1.3593
 3608TIP3   OH232382   2.369   5.268   8.320  0.6282 -0.1996  0.0570
 3608TIP3    H132383   2.291   5.232   8.276  0.0580  1.1904 -0.1154
 3608TIP3    H232384   2.442   5.218   8.284  0.0907  0.3148 -1.8691
 3609TIP3   OH232385   1.260   5.258   2.277  0.1445  0.0894 -0.0223
 3609TIP3    H132386   1.205   5.196   2.228  1.3542  0.9090 -2.5675
 3609TIP3    H232387   1.317   5.203   2.329 -0.1327 -0.9073 -0.7378
 3610TIP3   OH232388   1.332   4.131   0.461 -0.1733 -0.1727 -0.1685
 3610TIP3    H132389   1.264   4.197   0.476 -3.1385 -2.8205 -0.6499
 3610TIP3    H232390   1.356   4.101   0.549  1.5213  1.7508  0.0707
 3611TIP3   OH232391   6.694   4.815   7.911  0.3135 -0.3994 -0.0102
 3611TIP3    H132392   6.772   4.870   7.916 -1.3197  2.0819  0.4898
 3611TIP3    H232393   6.726   4.726   7.920  3.0396  0.5309  0.4163
 3612TIP3   OH232394   1.841   3.348   0.302 -0.4117  0.1124  0.2372
 3612TIP3    H132395   1.928   3.324   0.332 -0.1884  1.3377  0.6031
 3612TIP3    H232396   1.791   3.364   0.383 -0.8573 -0.1648  0.0225
 3613TIP3   OH232397   3.661   0.749   6.953  0.2249  0.3696  0.1427
 3613TIP3    H132398   3.708   0.821   6.911 -2.9464  2.7718  0.2787
 3613TIP3    H232399   3.636   0.692   6.881  0.9239  0.5804 -0.2751
 3614TIP3   OH232400   2.974   3.193   6.404 -0.0553  0.4215 -0.6563
 3614TIP3    H132401   3.020   3.130   6.348  0.5201 -0.9209  1.2090
 3614TIP3    H232402   3.014   3.277   6.383  1.8977 -0.4115 -0.5571
 3615TIP3   OH232403   3.866   5.086   7.583  0.5506  0.2083  0.4441
 3615TIP3    H132404   3.846   5.114   7.494  3.3872 -1.6932 -0.9835
 3615TIP3    H232405   3.912   5.161   7.622  1.1065  0.3696 -0.4770
 3616TIP3   OH232406   6.613   4.474   0.581  0.1107 -0.0794  0.3538
 3616TIP3    H132407   6.610   4.429   0.666 -2.2330 -1.7719 -0.5171
 3616TIP3    H232408   6.539   4.534   0.584 -0.1864 -0.3842 -0.5843
 3617TIP3   OH232409   3.928   1.594   2.567 -0.4592 -0.1440  0.6586
 3617TIP3    H132410   3.895   1.644   2.493 -2.7599  1.9345  2.9288
 3617TIP3    H232411   3.882   1.511   2.563 -0.7577  0.0567 -0.0814
 3618TIP3   OH232412   2.149   0.281   0.140  0.5145  0.4219  0.2618
 3618TIP3    H132413   2.159   0.376   0.150 -0.4039  0.3664  2.0457
 3618TIP3    H232414   2.202   0.243   0.209  1.4307 -0.4297 -0.8649
 3619TIP3   OH232415   5.759   0.717   7.564  0.0723  0.2244  0.2561
 3619TIP3    H132416   5.714   0.674   7.491 -0.6291  1.5741 -0.1494
 3619TIP3    H232417   5.825   0.772   7.522  0.1731  0.4387  0.6868
 3620TIP3   OH232418   4.579   1.456   0.128 -0.4290  0.7578 -0.3973
 3620TIP3    H132419   4.489   1.449   0.160 -0.5391  0.4895 -0.7596
 3620TIP3    H232420   4.625   1.505   0.197 -0.6563  0.1763  0.1874
 3621TIP3   OH232421   4.906   3.327   8.169  0.2834 -0.3354 -0.1128
 3621TIP3    H132422   4.949   3.247   8.139  1.5270  1.0397 -2.2635
 3621TIP3    H232423   4.824   3.329   8.121 -0.5648 -1.1168  1.2348
 3622TIP3   OH232424   3.367   1.260   8.402  0.7893  0.1312 -0.4352
 3622TIP3    H132425   3.396   1.263   8.493  0.2513 -1.1078 -0.2046
 3622TIP3    H232426   3.344   1.351   8.382 -0.1694  0.2521  1.0248
 3623TIP3   OH232427   5.007   2.154   7.252  0.4247 -0.0646  0.1979
 3623TIP3    H132428   4.938   2.214   7.221  1.3352  0.7066 -0.3796
 3623TIP3    H232429   5.027   2.100   7.175  1.1067  0.3345  0.0937
 3624TIP3   OH232430   6.405   4.955   1.557  0.3876  0.1669 -0.0509
 3624TIP3    H132431   6.367   5.043   1.555 -1.2390 -0.5149 -2.2388
 3624TIP3    H232432   6.367   4.915   1.635  0.4609  1.1091  0.4866
 3625TIP3   OH232433   6.306   2.140   8.093  0.4805 -0.4376 -0.2965
 3625TIP3    H132434   6.256   2.189   8.159  3.4840  2.5903  0.0037
 3625TIP3    H232435   6.273   2.172   8.009 -0.0732 -0.6947 -0.1819
 3626TIP3   OH232436   1.868   5.824   8.092  0.5763  0.2656  0.2694
 3626TIP3    H132437   1.778   5.854   8.079  1.4829  2.7622 -1.0681
 3626TIP3    H232438   1.918   5.905   8.104  2.5765 -1.0857  1.6712
 3627TIP3   OH232439   3.192   2.928   0.423 -0.2802 -0.2989 -0.7464
 3627TIP3    H132440   3.165   2.998   0.483 -0.7191 -1.5668  0.5924
 3627TIP3    H232441   3.155   2.849   0.460  0.5650 -1.3310 -1.9989
 3628TIP3   OH232442   3.818   1.890   0.436  0.3088  0.1334  0.4120
 3628TIP3    H132443   3.774   1.975   0.436  1.2146  0.6281  0.8820
 3628TIP3    H232444   3.858   1.885   0.523  0.7086 -0.5368  0.1921
 3629TIP3   OH232445   0.411   6.783   2.424  0.5076  0.2213  0.0815
 3629TIP3    H132446   0.430   6.872   2.395  0.4826  0.7901  1.7113
 3629TIP3    H232447   0.350   6.794   2.497  1.2252 -1.0756  0.9062
 3630TIP3   OH232448   4.146   6.837   7.833  0.3670  0.3762  0.3239
 3630TIP3    H132449   4.116   6.821   7.923 -3.5108  1.5492 -0.5817
 3630TIP3    H232450   4.184   6.925   7.837  2.6252 -0.5488  1.1967
 3631TIP3   OH232451   4.886   1.203   7.159 -0.1108 -0.0279 -0.4611
 3631TIP3    H132452   4.852   1.120   7.191 -0.7059 -0.2155 -1.5419
 3631TIP3    H232453   4.863   1.205   7.067 -0.1095  1.3452 -0.4559
 3632TIP3   OH232454   5.530   0.723   7.163  0.3581  0.4510  0.5416
 3632TIP3    H132455   5.600   0.742   7.226 -0.0256  0.3249  1.0060
 3632TIP3    H232456   5.492   0.808   7.142  0.1946  0.4427  0.8134
 3633TIP3   OH232457   4.192   3.626   8.190  0.0595  0.7697  0.4712
 3633TIP3    H132458   4.272   3.594   8.231 -0.1248  0.3320  0.4873
 3633TIP3    H232459   4.218   3.647   8.100 -0.1002 -0.6012  0.0870
 3634TIP3   OH232460   5.149   5.889   1.506 -0.5157 -0.0722 -0.1353
 3634TIP3    H132461   5.063   5.853   1.528 -0.5365  0.0457 -0.0215
 3634TIP3    H232462   5.208   5.850   1.571 -0.2280 -1.2829 -1.0913
 3635TIP3   OH232463   1.240   1.084   2.136 -0.0890 -0.2261 -0.4250
 3635TIP3    H132464   1.254   1.012   2.075 -0.8281  0.5840 -1.5928
 3635TIP3    H232465   1.240   1.162   2.081 -0.7252  0.5386  0.6181
 3636TIP3   OH232466   0.852   2.191   7.723  0.6831 -0.2889  0.0692
 3636TIP3    H132467   0.767   2.215   7.687  0.8934 -1.7387 -1.5401
 3636TIP3    H232468   0.835   2.111   7.773  0.4131  1.6398  3.2959
 3637TIP3   OH232469   3.802   2.958   8.063  0.1162  0.0932  0.0041
 3637TIP3    H132470   3.727   2.900   8.075 -0.3528  0.9001  1.2901
 3637TIP3    H232471   3.789   3.027   8.128  0.7747  1.5077 -1.3108
 3638TIP3   OH232472   6.684   5.114   1.133 -0.1766 -0.0237 -0.0702
 3638TIP3    H132473   6.627   5.096   1.058 -0.1919  1.1972 -0.3770
 3638TIP3    H232474   6.625   5.124   1.207 -0.3237  0.5841 -0.2615
 3639TIP3   OH232475   1.063   5.694   1.150  0.0613  0.0068 -0.3936
 3639TIP3    H132476   1.122   5.734   1.086  0.5594 -1.7211 -1.0784
 3639TIP3    H232477   1.102   5.717   1.235  1.2620 -0.3991 -0.8110
 3640TIP3   OH232478   0.544   2.201   8.338 -0.2979 -0.1006  0.1092
 3640TIP3    H132479   0.585   2.153   8.266  1.5645  1.5460  0.0023
 3640TIP3    H232480   0.600   2.182   8.414 -1.2264 -0.3931  0.7414
 3641TIP3   OH232481   6.634   2.836   8.109 -0.3072 -0.0003  0.1382
 3641TIP3    H132482   6.608   2.793   8.028 -2.2319  1.6503 -0.2071
 3641TIP3    H232483   6.570   2.807   8.174  1.3881 -1.5345  1.2059
 3642TIP3   OH232484   6.547   6.361   0.409  0.6965  0.1421  0.5767
 3642TIP3    H132485   6.575   6.398   0.325  1.0547  0.4083  0.8075
 3642TIP3    H232486   6.620   6.380   0.468  1.0661 -1.2882  0.6089
 3643TIP3   OH232487   0.860   6.803   6.999 -0.3213  0.0825  0.1731
 3643TIP3    H132488   0.805   6.880   7.013  0.3192  0.7386 -0.7807
 3643TIP3    H232489   0.923   6.804   7.071 -0.8167 -0.0245  0.6183
 3644TIP3   OH232490   0.727   0.347   7.274 -0.2156  0.8737  0.4528
 3644TIP3    H132491   0.702   0.284   7.206  2.6220 -0.1235  0.2213
 3644TIP3    H232492   0.773   0.416   7.228  0.6059  0.8380  1.2008
 3645TIP3   OH232493   2.056   3.628   6.984  0.5175  0.1267  0.5411
 3645TIP3    H132494   2.135   3.607   6.936  0.3516  0.4018  0.1350
 3645TIP3    H232495   2.011   3.692   6.928 -0.8812 -1.3747 -0.1198
 3646TIP3   OH232496   0.599   3.813   0.771 -0.1498 -0.1692 -0.0369
 3646TIP3    H132497   0.505   3.833   0.777  0.1185  0.9350  0.9037
 3646TIP3    H232498   0.636   3.887   0.723  0.1888 -0.8483 -0.8514
 3647TIP3   OH232499   1.477   4.640   1.529 -0.2536  0.1036  0.0835
 3647TIP3    H132500   1.524   4.674   1.605 -1.1386 -0.3999  0.8936
 3647TIP3    H232501   1.443   4.717   1.484  0.5730  0.4231 -0.0017
 3648TIP3   OH232502   4.470   1.586   7.389  0.2130  0.2483 -0.1032
 3648TIP3    H132503   4.393   1.614   7.439  0.3585  0.4443  0.0112
 3648TIP3    H232504   4.506   1.513   7.439  0.3776  0.4656  0.0988
 3649TIP3   OH232505   0.889   0.816   7.324 -0.8023 -0.1553  0.3418
 3649TIP3    H132506   0.876   0.744   7.385  2.2417  0.3469  1.8043
 3649TIP3    H232507   0.906   0.774   7.240 -1.5559 -1.0133  0.6061
 3650TIP3   OH232508   6.646   0.719   8.620 -0.4910  0.4463  0.3130
 3650TIP3    H132509   6.727   0.668   8.616 -0.3081  0.8308 -1.6995
 3650TIP3    H232510   6.665   0.789   8.683  0.4967  0.1306  0.3778
 3651TIP3   OH232511   4.942   3.119   6.880 -0.8423  0.0410 -0.3016
 3651TIP3    H132512   5.023   3.071   6.863 -2.1373 -1.9136 -1.4701
 3651TIP3    H232513   4.958   3.206   6.844  0.8070 -0.2197 -0.2950
 3652TIP3   OH232514   3.062   0.751   1.000  0.2465  0.2403  0.0177
 3652TIP3    H132515   3.022   0.764   1.087 -1.7459  1.7653 -1.0422
 3652TIP3    H232516   3.087   0.839   0.972 -0.1110 -0.0832 -1.3966
 3653TIP3   OH232517   4.876   0.599   1.440  0.2924 -0.2189  0.1826
 3653TIP3    H132518   4.859   0.517   1.487  1.1383  0.1735  1.2072
 3653TIP3    H232519   4.917   0.656   1.505 -1.6940  1.6066 -0.0472
 3654TIP3   OH232520   4.005   0.500   0.094 -0.4134  0.2918  0.1662
 3654TIP3    H132521   4.091   0.492   0.052 -1.1305  0.6421 -1.4124
 3654TIP3    H232522   3.978   0.410   0.112 -1.0291 -0.0460 -2.1317
 3655TIP3   OH232523   0.629   2.015   7.883 -0.2037 -0.2611  0.1904
 3655TIP3    H132524   0.701   1.956   7.862 -0.7778 -0.0163 -2.9593
 3655TIP3    H232525   0.550   1.962   7.872 -0.6139  0.2592  0.5529
 3656TIP3   OH232526   5.956   0.344   2.178  0.5366  0.4043  0.0864
 3656TIP3    H132527   5.863   0.331   2.192  0.6654 -0.5409  0.1032
 3656TIP3    H232528   5.979   0.418   2.235 -0.3600  1.2069 -0.5519
 3657TIP3   OH232529   6.202   5.903   1.144 -0.1274  0.1261 -0.1298
 3657TIP3    H132530   6.281   5.880   1.194  0.1853 -0.9083 -1.0587
 3657TIP3    H232531   6.236   5.938   1.062 -0.6408  1.5475  0.2526
 3658TIP3   OH232532   0.367   6.114   8.638 -0.5416 -0.1862  0.1090
 3658TIP3    H132533   0.418   6.033   8.635 -0.6345 -0.4194  2.7272
 3658TIP3    H232534   0.333   6.118   8.728 -0.6214  2.6991  0.0470
 3659TIP3   OH232535   2.791   5.209   0.411 -0.5037 -0.5604 -0.2964
 3659TIP3    H132536   2.872   5.158   0.409  0.4628  0.7277  2.2633
 3659TIP3    H232537   2.813   5.291   0.367 -0.4755 -0.2987  0.2025
 3660TIP3   OH232538   0.748   0.268   8.201  0.3241 -0.0829 -0.0468
 3660TIP3    H132539   0.685   0.206   8.237  0.2438  1.1712  2.1193
 3660TIP3    H232540   0.705   0.304   8.123 -0.8359 -0.6243  0.3212
 3661TIP3   OH232541   0.438   4.215   1.254 -0.0971  0.5135  0.7726
 3661TIP3    H132542   0.531   4.209   1.231  0.3580  1.0110  2.4099
 3661TIP3    H232543   0.436   4.270   1.332 -1.6649 -0.3891  1.4020
 3662TIP3   OH232544   5.142   0.362   7.101 -0.3063  0.0629 -0.1664
 3662TIP3    H132545   5.205   0.318   7.043  1.5587  0.1908  1.6370
 3662TIP3    H232546   5.065   0.377   7.046  1.0277 -0.5844 -2.3406
 3663TIP3   OH232547   3.063   0.820   0.078  0.1770 -0.3023 -0.2430
 3663TIP3    H132548   3.009   0.887   0.036  1.3697 -0.8543 -2.8458
 3663TIP3    H232549   3.051   0.742   0.024  1.2654 -1.3013  0.8868
 3664TIP3   OH232550   2.186   2.731   0.165  0.0360  0.2606  0.2539
 3664TIP3    H132551   2.094   2.757   0.171  0.0839  0.5418 -0.1428
 3664TIP3    H232552   2.185   2.653   0.110 -0.0191 -0.0656  0.7123
 3665TIP3   OH232553   0.952   2.071   6.808  0.5854  0.3763 -0.2199
 3665TIP3    H132554   0.879   2.085   6.868  0.5761  0.8094 -0.3297
 3665TIP3    H232555   0.924   2.112   6.726  0.1210 -1.1843 -0.8962
 3666TIP3   OH232556   5.626   1.775   2.550 -0.1617 -0.3801  0.7748
 3666TIP3    H132557   5.531   1.775   2.538 -0.1164  1.9144 -0.1524
 3666TIP3    H232558   5.647   1.864   2.579  1.9851  0.2317 -2.1754
 3667TIP3   OH232559   0.122   0.183   8.646 -0.4826 -0.2953  0.0269
 3667TIP3    H132560   0.079   0.232   8.717 -0.5584 -0.6339  0.2161
 3667TIP3    H232561   0.175   0.117   8.691  1.7801  1.2968 -0.0895
 3668TIP3   OH232562   6.638   5.987   7.048  0.0299  0.3522 -0.3053
 3668TIP3    H132563   6.685   5.933   7.112 -0.3495  0.6218  0.2042
 3668TIP3    H232564   6.599   5.924   6.988 -0.8667  0.0205  0.6034
 3669TIP3   OH232565   6.646   3.939   1.914 -0.4306 -0.4689 -0.1308
 3669TIP3    H132566   6.676   3.874   1.978  0.6657 -0.5092 -0.6493
 3669TIP3    H232567   6.572   3.982   1.957  1.6432  1.1012  2.1792
 3670TIP3   OH232568   4.862   4.326   7.427  0.3398  0.2977 -0.0630
 3670TIP3    H132569   4.833   4.273   7.353  1.1988  0.2556 -0.3857
 3670TIP3    H232570   4.934   4.378   7.392  2.5035 -1.5584  1.3316
 3671TIP3   OH232571   0.099   1.612   2.166 -0.3971  0.2747  0.0025
 3671TIP3    H132572   0.066   1.588   2.079 -0.5870 -0.4266  0.2658
 3671TIP3    H232573   0.162   1.683   2.149 -0.1393 -0.1244 -0.7451
 3672TIP3   OH232574   6.618   6.822   0.362 -0.3456 -0.2080  0.1666
 3672TIP3    H132575   6.624   6.835   0.456  1.1201 -1.0134  0.2164
 3672TIP3    H232576   6.535   6.777   0.348 -0.7445  0.2473  1.0245
 3673TIP3   OH232577   6.819   3.274   1.615  0.5747 -0.5290  0.7338
 3673TIP3    H132578   6.898   3.320   1.644 -0.1622  0.9352  0.4693
 3673TIP3    H232579   6.757   3.285   1.687 -0.6931  1.7019 -0.5832
 3674TIP3   OH232580   2.186   4.332   7.083 -0.2278  0.0525  0.1763
 3674TIP3    H132581   2.255   4.395   7.103  0.7128 -1.2039  1.1045
 3674TIP3    H232582   2.122   4.342   7.154  0.6193 -0.9606  1.1185
 3675TIP3   OH232583   5.110   1.247   8.556  0.8751 -0.0346 -0.3974
 3675TIP3    H132584   5.055   1.186   8.506  0.3387  0.7941 -0.8481
 3675TIP3    H232585   5.048   1.293   8.613  1.1476  0.6198 -0.6163
 3676TIP3   OH232586   5.579   2.553   8.324 -0.0023 -0.0962 -0.0093
 3676TIP3    H132587   5.569   2.572   8.418  2.2013 -0.0462  0.2580
 3676TIP3    H232588   5.524   2.618   8.280 -0.0722  0.7033  1.2111
 3677TIP3   OH232589   3.574   2.714   1.070 -0.6659  0.5857  0.2611
 3677TIP3    H132590   3.639   2.686   1.134  0.8528 -1.9445 -2.1860
 3677TIP3    H232591   3.501   2.653   1.081  0.2217 -0.8439 -1.2534
 3678TIP3   OH232592   0.712   4.015   2.121 -0.3797 -0.4385  0.0135
 3678TIP3    H132593   0.630   4.010   2.171  0.1213 -2.6698  0.7190
 3678TIP3    H232594   0.688   3.985   2.033 -0.5794  0.2663 -0.1809
 3679TIP3   OH232595   5.588   3.202   7.127  0.1211  0.1943  0.4091
 3679TIP3    H132596   5.532   3.177   7.200  0.8347  0.3066  1.0100
 3679TIP3    H232597   5.586   3.127   7.068 -1.3362  0.5302 -0.0208
 3680TIP3   OH232598   0.454   2.551   0.616  0.0983 -0.3467 -0.0539
 3680TIP3    H132599   0.379   2.603   0.587 -0.6614 -0.5154  1.4808
 3680TIP3    H232600   0.507   2.613   0.667 -0.2410 -0.8040  0.8626
 3681TIP3   OH232601   2.219   2.107   1.523  0.1352 -0.1931 -0.0207
 3681TIP3    H132602   2.197   2.129   1.432  0.1615 -0.5263 -0.1082
 3681TIP3    H232603   2.315   2.115   1.526  0.1119  0.0782  0.0484
 3682TIP3   OH232604   6.655   6.291   1.978  0.4169  0.1781 -0.2484
 3682TIP3    H132605   6.648   6.260   1.888  0.9772  1.6477 -0.8241
 3682TIP3    H232606   6.568   6.325   1.999  0.3592  0.0735 -0.3183
 3683TIP3   OH232607   4.670   1.473   2.247  0.1199  0.3663 -0.3435
 3683TIP3    H132608   4.752   1.513   2.276 -0.0979  0.0857  0.7120
 3683TIP3    H232609   4.664   1.391   2.296  0.0862 -0.5135 -1.7650
 3684TIP3   OH232610   3.436   2.020   1.500 -0.8038 -0.4725  0.9940
 3684TIP3    H132611   3.449   1.929   1.474 -0.5011  0.3531 -2.1533
 3684TIP3    H232612   3.349   2.021   1.541 -1.0788 -2.0566  0.5124
 3685TIP3   OH232613   5.356   6.345   7.552  0.8625  0.0743 -0.2366
 3685TIP3    H132614   5.320   6.258   7.535  1.9712 -0.4235 -0.1101
 3685TIP3    H232615   5.313   6.402   7.488  1.1668 -0.8328 -1.2825
 3686TIP3   OH232616   4.406   6.842   2.633  0.7930  0.0065 -0.5258
 3686TIP3    H132617   4.412   6.933   2.664  0.6363 -0.3405  0.5799
 3686TIP3    H232618   4.497   6.816   2.618  1.0074 -0.2119  0.9298
 3687TIP3   OH232619   4.098   0.468   1.576 -0.2193 -0.2653 -0.0349
 3687TIP3    H132620   4.009   0.453   1.607  0.2716  1.1575  2.3196
 3687TIP3    H232621   4.111   0.562   1.584  0.8481 -0.1362 -2.3757
 3688TIP3   OH232622   0.181   6.813   0.120 -0.0238  0.2625 -0.3078
 3688TIP3    H132623   0.234   6.842   0.194 -0.7985  1.6360 -0.2670
 3688TIP3    H232624   0.206   6.721   0.107  2.4839  0.8854 -0.4170
 3689TIP3   OH232625   6.487   6.488   1.419 -0.0353  0.1145  0.2355
 3689TIP3    H132626   6.410   6.545   1.431  0.0890  0.2930  0.1900
 3689TIP3    H232627   6.480   6.424   1.490 -0.7508 -0.4654 -0.3443
 3690TIP3   OH232628   5.693   6.780   2.267 -0.2098 -0.5494  0.2588
 3690TIP3    H132629   5.778   6.824   2.268 -0.6392  0.6518 -3.1155
 3690TIP3    H232630   5.634   6.843   2.308 -0.1832  0.5753 -1.3329
 3691TIP3   OH232631   2.490   0.651   0.168 -1.4809 -0.1015  0.5628
 3691TIP3    H132632   2.580   0.629   0.190  0.2195  3.2696 -2.1194
 3691TIP3    H232633   2.450   0.673   0.252  0.3383 -1.0223  1.7496
 3692TIP3   OH232634   1.329   4.437   0.473 -0.2387  0.3860 -0.1244
 3692TIP3    H132635   1.357   4.528   0.481 -2.6379  1.0900  1.1440
 3692TIP3    H232636   1.242   4.441   0.434  1.0803 -1.6831 -3.8339
 3693TIP3   OH232637   4.425   6.640   0.661 -0.0284  0.2901 -0.3263
 3693TIP3    H132638   4.346   6.588   0.653 -0.3394  0.9263 -1.8107
 3693TIP3    H232639   4.479   6.614   0.586  1.0404  0.1025  0.4782
 3694TIP3   OH232640   4.119   0.475   6.518  0.4706  0.0258 -0.0268
 3694TIP3    H132641   4.154   0.417   6.451 -2.0935 -0.6734 -0.8743
 3694TIP3    H232642   4.100   0.557   6.472 -1.5262 -0.5359 -0.3218
 3695TIP3   OH232643   2.698   1.901   0.200  0.1151 -0.2070  0.2479
 3695TIP3    H132644   2.612   1.862   0.216 -0.6891  0.4770 -1.9848
 3695TIP3    H232645   2.725   1.865   0.115  1.2541  0.8330  0.1417
 3696TIP3   OH232646   4.944   5.670   6.850  0.7131  0.2717  0.6567
 3696TIP3    H132647   4.884   5.602   6.821 -0.3376  0.0600  3.0494
 3696TIP3    H232648   4.889   5.746   6.866  1.7900  1.5663 -1.3618
 3697TIP3   OH232649   2.253   1.374   8.621  0.4194  0.0046 -0.0867
 3697TIP3    H132650   2.248   1.465   8.590  0.0551  0.9949  2.6484
 3697TIP3    H232651   2.162   1.352   8.642  0.7455 -0.3440  0.9784
 3698TIP3   OH232652   6.031   0.060   1.782  0.2174  0.3377 -0.4684
 3698TIP3    H132653   6.102   0.058   1.845 -1.9662 -2.6702  2.2245
 3698TIP3    H232654   5.989   0.145   1.796  0.9900  0.5391  0.7415
 3699TIP3   OH232655   0.346   4.751   8.465 -0.0729  0.1844 -0.4347
 3699TIP3    H132656   0.329   4.790   8.550  1.1877 -2.0244  0.9348
 3699TIP3    H232657   0.260   4.736   8.427 -0.6860  0.6400  0.7277
 3700TIP3   OH232658   1.082   5.364   0.586  0.4042  0.1930  0.4691
 3700TIP3    H132659   1.077   5.456   0.560 -0.6983  1.2290  3.8214
 3700TIP3    H232660   1.168   5.356   0.628 -0.0013  0.0697  1.2970
 3701TIP3   OH232661   4.204   3.329   1.108  0.7511 -0.1943 -0.3064
 3701TIP3    H132662   4.244   3.390   1.170 -0.6022  1.4853 -1.0329
 3701TIP3    H232663   4.143   3.278   1.161  1.6109 -0.6911  0.2328
 3702TIP3   OH232664   2.970   6.557   7.272 -0.2767 -0.2424 -0.0697
 3702TIP3    H132665   2.922   6.517   7.200 -1.0820  0.2487  0.1761
 3702TIP3    H232666   3.062   6.540   7.252 -0.5089 -0.5180 -0.9663
 3703TIP3   OH232667   4.426   1.991   0.568 -0.1198 -0.0849  0.2309
 3703TIP3    H132668   4.452   1.950   0.651 -0.5907  0.7489  0.8067
 3703TIP3    H232669   4.360   1.932   0.532 -0.1841 -0.2585  0.6258
 3704TIP3   OH232670   2.669   4.905   6.385  0.1926 -0.0628  0.8827
 3704TIP3    H132671   2.639   4.814   6.375  2.3280 -0.6823 -0.5629
 3704TIP3    H232672   2.589   4.955   6.399 -0.9816 -2.2655  2.7887
 3705TIP3   OH232673   5.598   2.151   6.422  0.1238  0.1921  0.2510
 3705TIP3    H132674   5.669   2.087   6.417  0.0888  0.2439 -1.4510
 3705TIP3    H232675   5.631   2.227   6.374 -0.7155  0.5884  0.2928
 3706TIP3   OH232676   6.140   4.601   0.482  0.0210  0.1849  0.2304
 3706TIP3    H132677   6.082   4.677   0.495 -0.9931 -0.3734 -0.8734
 3706TIP3    H232678   6.098   4.550   0.413  0.6610 -1.4154  0.9642
 3707TIP3   OH232679   5.085   5.625   7.484 -0.4598 -0.6853  0.0655
 3707TIP3    H132680   4.993   5.603   7.502 -0.7897 -0.2365 -1.0019
 3707TIP3    H232681   5.119   5.547   7.440 -0.5512 -0.5641 -0.2252
 3708TIP3   OH232682   1.723   4.329   7.353  0.8999 -0.0803  0.1378
 3708TIP3    H132683   1.770   4.411   7.370 -1.6434  1.7232 -0.7013
 3708TIP3    H232684   1.694   4.300   7.439  2.2987 -0.4578  0.5066
 3709TIP3   OH232685   0.737   5.557   6.493  0.2657 -0.3454 -0.7259
 3709TIP3    H132686   0.792   5.586   6.420  2.6008 -0.3502  0.9235
 3709TIP3    H232687   0.791   5.493   6.540 -0.4715  0.8255  1.9041
 3710TIP3   OH232688   0.659   2.643   1.175  0.0294  0.0083  0.0849
 3710TIP3    H132689   0.749   2.651   1.143 -0.4755 -1.3226 -1.8349
 3710TIP3    H232690   0.642   2.726   1.219  1.8601  0.6777 -0.3683
 3711TIP3   OH232691   1.810   4.448   0.377  0.6612  0.9132  0.0824
 3711TIP3    H132692   1.856   4.490   0.450 -0.7302  0.2558  1.3891
 3711TIP3    H232693   1.717   4.450   0.403  0.2804 -0.5380 -1.0562
 3712TIP3   OH232694   6.715   3.976   1.613 -0.1699  0.3845  0.2946
 3712TIP3    H132695   6.779   4.024   1.665 -1.0830  0.2219  1.6190
 3712TIP3    H232696   6.632   4.021   1.629 -1.4119 -2.5183  2.9714
 3713TIP3   OH232697   3.360   6.040   8.484 -0.0121  0.1460 -0.4147
 3713TIP3    H132698   3.437   6.051   8.429 -0.3939  0.7341 -0.8432
 3713TIP3    H232699   3.390   5.985   8.557  0.9257  0.7205 -0.3482
 3714TIP3   OH232700   3.089   5.366   7.792 -0.0696 -0.4736  0.5798
 3714TIP3    H132701   3.105   5.415   7.872  0.9917  1.0110 -0.4815
 3714TIP3    H232702   3.011   5.405   7.754  1.5198  1.4424 -0.9429
 3715TIP3   OH232703   1.496   6.703   1.201  0.2721 -0.1399 -0.1020
 3715TIP3    H132704   1.451   6.757   1.136  0.4100 -0.8611 -0.8165
 3715TIP3    H232705   1.455   6.617   1.192  0.1647 -0.2059  0.9060
 3716TIP3   OH232706   4.919   4.504   7.867 -0.4635  0.9576 -0.8525
 3716TIP3    H132707   4.931   4.410   7.859 -2.6436  0.7315 -2.1780
 3716TIP3    H232708   4.884   4.517   7.955  0.0335  0.5745 -0.5928
 3717TIP3   OH232709   6.052   2.490   7.002  0.1757  0.0229  0.0509
 3717TIP3    H132710   6.090   2.407   7.033 -0.0928 -0.2293 -0.2902
 3717TIP3    H232711   6.118   2.527   6.944 -1.2605 -1.9235 -3.0771
 3718TIP3   OH232712   6.078   2.277   1.257  0.1255  0.3312  0.9822
 3718TIP3    H132713   6.028   2.262   1.338  1.2361  0.8166  1.7908
 3718TIP3    H232714   6.101   2.370   1.260 -1.3533  0.7925 -0.8206
 3719TIP3   OH232715   2.214   6.280   6.818  0.5512 -0.5186  0.1968
 3719TIP3    H132716   2.119   6.269   6.818  0.5254 -0.7779  2.4131
 3719TIP3    H232717   2.228   6.362   6.866  1.3744  1.5436 -3.2184
 3720TIP3   OH232718   2.329   1.080   1.325 -0.2821 -0.0496 -0.7876
 3720TIP3    H132719   2.331   1.010   1.391 -1.5512  0.3794 -0.2783
 3720TIP3    H232720   2.325   1.033   1.242  1.1387 -0.5954 -0.5716
 3721TIP3   OH232721   6.301   4.669   2.151  0.8040  0.1640 -0.6374
 3721TIP3    H132722   6.343   4.755   2.151  1.1011  0.0230 -1.1355
 3721TIP3    H232723   6.322   4.632   2.065  1.3020 -0.7125 -0.1464
 3722TIP3   OH232724   0.440   3.518   0.593  0.7914  0.0661 -0.2256
 3722TIP3    H132725   0.389   3.590   0.630  1.6134  1.7535 -2.1993
 3722TIP3    H232726   0.375   3.459   0.555  0.1767  1.6558 -1.7848
 3723TIP3   OH232727   1.802   5.609   7.661 -0.3284 -0.0654 -0.1772
 3723TIP3    H132728   1.763   5.613   7.574  0.6953 -1.6731 -0.7554
 3723TIP3    H232729   1.773   5.525   7.697 -1.9040  1.1868  1.6617
 3724TIP3   OH232730   4.812   4.248   2.740 -0.4124  0.4415  0.2822
 3724TIP3    H132731   4.817   4.331   2.787 -1.5534  1.2382 -0.9578
 3724TIP3    H232732   4.894   4.204   2.762  0.5461  2.1906  0.3998
 3725TIP3   OH232733   5.048   5.856   8.559 -0.3335  0.6022  0.2889
 3725TIP3    H132734   5.095   5.863   8.476 -0.3775  0.9232  0.2901
 3725TIP3    H232735   5.068   5.767   8.591 -2.0759 -0.3420 -1.1067
 3726TIP3   OH232736   2.926   4.143   8.079 -0.5393  0.4702 -0.4630
 3726TIP3    H132737   2.966   4.128   8.165 -0.4482  2.1161 -0.1908
 3726TIP3    H232738   2.947   4.064   8.029 -0.9163 -0.6871  1.1221
 3727TIP3   OH232739   1.266   4.789   7.248  0.3055 -0.5223 -0.0533
 3727TIP3    H132740   1.320   4.857   7.206  2.2274 -1.8802  0.1228
 3727TIP3    H232741   1.213   4.754   7.177 -0.2590  0.7108 -0.2709
 3728TIP3   OH232742   0.884   0.572   7.467 -0.3318 -0.4531 -0.1215
 3728TIP3    H132743   0.849   0.497   7.516 -1.7396  0.3429  0.1451
 3728TIP3    H232744   0.884   0.543   7.376  0.3937 -1.2324  0.1150
 3729TIP3   OH232745   0.773   3.534   6.591 -0.1781  0.1995 -0.1828
 3729TIP3    H132746   0.828   3.605   6.557 -0.2795  0.3065 -0.1231
 3729TIP3    H232747   0.823   3.455   6.573  0.2823  0.3474  0.4355
 3730TIP3   OH232748   3.731   4.915   6.657 -0.2983 -0.0982  0.1889
 3730TIP3    H132749   3.639   4.894   6.638  0.7235 -2.8118 -2.6216
 3730TIP3    H232750   3.764   4.952   6.575  1.1817  0.5740  1.0658
 3731TIP3   OH232751   4.440   3.313   0.286  0.1006  0.0283 -0.4410
 3731TIP3    H132752   4.358   3.288   0.244 -1.0918  1.1747  1.0638
 3731TIP3    H232753   4.496   3.236   0.279 -0.3210 -0.1387 -3.2551
 3732TIP3   OH232754   5.132   4.464   0.469  0.1834 -0.0438 -0.2694
 3732TIP3    H132755   5.066   4.419   0.521 -0.5443  0.4696 -0.7288
 3732TIP3    H232756   5.122   4.427   0.381  1.9073 -1.4610  0.0578
 3733TIP3   OH232757   0.055   5.740   6.855 -0.3098  0.7749 -0.0906
 3733TIP3    H132758   0.070   5.793   6.933  2.0753 -1.2846  0.9681
 3733TIP3    H232759   0.095   5.791   6.784  0.4747  1.1626  0.6115
 3734TIP3   OH232760   1.171   0.564   8.044  0.2115  0.2078 -0.0436
 3734TIP3    H132761   1.112   0.492   8.020  1.4589 -0.3512 -1.6300
 3734TIP3    H232762   1.165   0.568   8.140 -3.2930  1.0073 -0.1550
 3735TIP3   OH232763   2.619   1.433   0.006  0.2232 -0.1640  0.2996
 3735TIP3    H132764   2.538   1.421   0.055 -1.5381 -1.8157 -2.7221
 3735TIP3    H232765   2.670   1.354   0.024 -0.8815 -1.2766 -1.1865
 3736TIP3   OH232766   6.687   6.620   7.228  0.3203  0.4443  0.2692
 3736TIP3    H132767   6.704   6.647   7.138 -0.6644  1.0019  0.2393
 3736TIP3    H232768   6.721   6.531   7.233  1.8366  0.9618 -0.1929
 3737TIP3   OH232769   0.287   2.128   7.695 -0.4281  0.1113 -0.3286
 3737TIP3    H132770   0.216   2.108   7.756  0.3861 -0.9378  0.3052
 3737TIP3    H232771   0.265   2.080   7.616 -0.2711 -0.4716 -0.0226
 3738TIP3   OH232772   3.217   2.881   7.212  0.0867  0.0318 -0.1063
 3738TIP3    H132773   3.275   2.811   7.242 -1.0713 -1.3327 -0.9585
 3738TIP3    H232774   3.152   2.837   7.157 -1.3466  1.6221  0.2502
 3739TIP3   OH232775   2.550   0.814   8.638 -0.3655  0.0238 -0.0044
 3739TIP3    H132776   2.468   0.781   8.602 -0.9775  1.4201  0.0385
 3739TIP3    H232777   2.576   0.885   8.579  0.8398 -0.4306 -0.0441
 3740TIP3   OH232778   1.120   2.594   6.321 -0.5149  0.5820 -0.0770
 3740TIP3    H132779   1.042   2.580   6.374 -0.4974  1.4651  0.1912
 3740TIP3    H232780   1.095   2.567   6.232 -0.2638 -1.8217  0.5001
 3741TIP3   OH232781   3.614   3.035   7.016 -1.0838 -0.1351  0.2433
 3741TIP3    H132782   3.660   3.107   6.974  0.4057  0.3395  2.5240
 3741TIP3    H232783   3.632   2.959   6.959 -0.3371  0.7300 -0.7127
 3742TIP3   OH232784   3.744   6.129   6.888  0.0006  0.3910  0.3333
 3742TIP3    H132785   3.722   6.190   6.958  1.2049  0.1236  0.9798
 3742TIP3    H232786   3.661   6.086   6.866 -0.6279  1.3842  0.6979
 3743TIP3   OH232787   1.209   1.098   6.848  0.5121  0.3445 -0.0603
 3743TIP3    H132788   1.148   1.162   6.811  2.1945  0.6509 -2.5067
 3743TIP3    H232789   1.266   1.149   6.906  0.8718  0.8022 -0.8019
 3744TIP3   OH232790   5.957   1.113   1.877  0.2082  0.3850 -0.2308
 3744TIP3    H132791   6.010   1.098   1.955  0.4101  1.1842 -0.2036
 3744TIP3    H232792   5.994   1.054   1.811 -0.8029 -1.2777  0.6150
 3745TIP3   OH232793   0.271   2.332   7.938 -0.2852 -0.3231 -0.3757
 3745TIP3    H132794   0.338   2.353   8.003  0.0996  0.0075 -0.8647
 3745TIP3    H232795   0.215   2.268   7.980 -0.1911  0.0748  0.3720
 3746TIP3   OH232796   5.210   4.198   8.400  0.1390  0.0157  0.3494
 3746TIP3    H132797   5.126   4.198   8.447 -0.2794  1.6876 -0.3185
 3746TIP3    H232798   5.194   4.145   8.322 -0.3804  0.5066  0.1162
 3747TIP3   OH232799   0.318   6.594   0.199 -0.1739  0.3549 -0.0321
 3747TIP3    H132800   0.296   6.650   0.274  1.9642  2.1272 -0.6188
 3747TIP3    H232801   0.386   6.535   0.233 -1.0421 -0.5970  0.0737
 3748TIP3   OH232802   1.106   3.332   0.415  0.2528 -0.0162 -0.1551
 3748TIP3    H132803   1.081   3.423   0.433 -0.3501 -0.4051  0.9949
 3748TIP3    H232804   1.035   3.298   0.361  0.2535  0.0540 -0.2010
 3749TIP3   OH232805   2.891   4.677   1.477 -0.2860  0.0987  0.1632
 3749TIP3    H132806   2.985   4.687   1.493 -0.0969 -0.8372 -0.3219
 3749TIP3    H232807   2.870   4.746   1.413  0.2846 -0.3488 -0.5165
 3750TIP3   OH232808   3.927   1.752   2.330  0.0581 -0.2309 -0.0937
 3750TIP3    H132809   3.961   1.837   2.357 -0.5387  0.1119 -0.4070
 3750TIP3    H232810   3.845   1.772   2.284  0.3513 -0.9077 -0.9362
 3751TIP3   OH232811   5.977   6.426   7.173 -0.2814  0.1233  0.0431
 3751TIP3    H132812   6.040   6.385   7.113  0.0395  1.0992 -0.3109
 3751TIP3    H232813   5.947   6.355   7.229 -0.3329 -0.7445 -1.0615
 3752TIP3   OH232814   2.140   1.852   7.980  0.1681  0.3106 -0.2886
 3752TIP3    H132815   2.219   1.866   7.929  1.9965 -0.8121  2.0256
 3752TIP3    H232816   2.152   1.906   8.058 -1.4325  0.2220  0.0516
 3753TIP3   OH232817   4.943   5.722   7.759  0.0743  0.2044 -0.2477
 3753TIP3    H132818   5.023   5.732   7.708 -0.8472  1.9519 -1.4439
 3753TIP3    H232819   4.888   5.664   7.707  0.4942 -0.9524  0.5476
 3754TIP3   OH232820   0.009   0.395   8.254  0.2781 -0.1098 -0.0930
 3754TIP3    H132821  -0.077   0.360   8.229  0.3773 -0.0971 -0.4492
 3754TIP3    H232822   0.045   0.330   8.315 -0.1391  0.0600  0.3460
 3755TIP3   OH232823   2.142   6.452   1.799  0.7765  0.7036 -0.0299
 3755TIP3    H132824   2.214   6.390   1.783 -0.8337 -1.7612  1.6214
 3755TIP3    H232825   2.082   6.439   1.726  0.5082  0.3917  0.2416
 3756TIP3   OH232826   0.811   0.833   0.503 -0.0149 -0.0798  0.0672
 3756TIP3    H132827   0.787   0.814   0.413  1.4972 -3.5146  0.2629
 3756TIP3    H232828   0.735   0.804   0.555 -0.8573  1.8346  0.0164
 3757TIP3   OH232829   5.444   3.640   7.451  0.2096  0.8780  0.3080
 3757TIP3    H132830   5.397   3.573   7.502  0.3584  2.5403  2.7883
 3757TIP3    H232831   5.524   3.596   7.422 -0.5899 -0.5716  0.2099
 3758TIP3   OH232832   0.924   0.521   1.835  0.0848 -0.0277  0.2421
 3758TIP3    H132833   0.933   0.445   1.778 -0.2713  0.2450 -0.1840
 3758TIP3    H232834   0.981   0.502   1.909 -0.6662 -1.0992  0.5720
 3759TIP3   OH232835   2.043   1.618   0.223  0.2802 -0.2780 -0.8565
 3759TIP3    H132836   2.042   1.524   0.242 -0.4406 -0.4245 -1.5808
 3759TIP3    H232837   2.049   1.624   0.128  1.3594  0.4295 -0.7618
 3760TIP3   OH232838   6.239   6.198   8.289  0.4037 -0.2204  0.0425
 3760TIP3    H132839   6.251   6.251   8.211 -2.6620 -0.8258 -0.9724
 3760TIP3    H232840   6.204   6.115   8.257 -1.3059 -0.3530  2.0379
 3761TIP3   OH232841   4.603   3.914   2.405 -0.3680  0.1609  0.1409
 3761TIP3    H132842   4.676   3.856   2.379 -0.4270  0.3536 -0.4735
 3761TIP3    H232843   4.646   3.988   2.447 -0.2047  0.2476 -0.1695
 3762TIP3   OH232844   3.282   3.243   8.301  0.4776 -0.4606  0.1378
 3762TIP3    H132845   3.214   3.296   8.258  0.1844 -1.8417 -1.2038
 3762TIP3    H232846   3.332   3.306   8.353 -0.4761  0.9592 -0.5776
 3763TIP3   OH232847   2.588   6.224   7.765  0.0952 -0.5845 -0.3538
 3763TIP3    H132848   2.498   6.198   7.746 -0.7762  2.0271 -0.2953
 3763TIP3    H232849   2.621   6.157   7.825 -1.2119 -2.4701 -1.6410
 3764TIP3   OH232850   6.217   0.242   1.952 -0.4689  0.5684 -0.0432
 3764TIP3    H132851   6.283   0.285   1.899 -0.5312  0.1157 -0.4969
 3764TIP3    H232852   6.258   0.160   1.981 -1.4984 -0.7188 -2.0279
 3765TIP3   OH232853   4.850   5.537   0.117 -0.4351  0.3990 -0.5517
 3765TIP3    H132854   4.929   5.585   0.142 -0.2109  0.3927 -1.2295
 3765TIP3    H232855   4.779   5.589   0.154 -0.1961  1.2934 -1.3154
 3766TIP3   OH232856   0.563   1.529   1.024 -0.5814  0.3516  0.1587
 3766TIP3    H132857   0.509   1.516   0.946  0.0767  0.5740 -0.3537
 3766TIP3    H232858   0.577   1.441   1.059  1.9836 -0.2483 -1.9888
 3767TIP3   OH232859   2.210   5.527   6.101 -0.4381 -0.4859 -0.2714
 3767TIP3    H132860   2.187   5.434   6.100 -0.7908 -0.4313  0.9868
 3767TIP3    H232861   2.234   5.544   6.192 -3.8166  1.4858  0.3960
 3768TIP3   OH232862   6.642   4.902   8.195 -0.0301 -0.2478 -0.6988
 3768TIP3    H132863   6.653   4.951   8.113  0.0876 -1.1396 -1.2346
 3768TIP3    H232864   6.554   4.864   8.188 -0.7854  1.2119  0.4558
 3769TIP3   OH232865   3.495   5.778   0.915 -0.0372  0.2219  0.3111
 3769TIP3    H132866   3.588   5.778   0.940 -0.3173 -2.3955  1.6033
 3769TIP3    H232867   3.448   5.790   0.997 -0.8551 -0.7002 -0.0062
 3770TIP3   OH232868   5.915   0.509   7.825  0.2616 -0.4391 -0.2648
 3770TIP3    H132869   5.917   0.512   7.921 -4.3106 -2.5619  0.1467
 3770TIP3    H232870   5.995   0.555   7.799  2.8692 -1.5421  4.4939
 3771TIP3   OH232871   4.105   3.025   6.556  0.2735  0.6218 -0.0815
 3771TIP3    H132872   4.053   2.949   6.582  1.5445 -0.3818 -0.3969
 3771TIP3    H232873   4.169   2.991   6.494 -0.3600  2.3048 -1.7703
 3772TIP3   OH232874   4.909   6.558   8.701 -0.4573  0.0510  0.4032
 3772TIP3    H132875   4.936   6.483   8.647  1.1571  2.3981 -2.3733
 3772TIP3    H232876   4.824   6.533   8.735 -0.0151 -3.0199 -0.3847
 3773TIP3   OH232877   4.274   1.164   1.273  0.2982 -0.1462 -0.3743
 3773TIP3    H132878   4.190   1.190   1.235  0.3342  1.0189  0.2987
 3773TIP3    H232879   4.250   1.110   1.349  0.1684 -0.0298 -0.3321
 3774TIP3   OH232880   3.290   3.258   0.848 -0.2577  0.1602 -0.7227
 3774TIP3    H132881   3.362   3.230   0.904  0.1168 -0.7420 -1.6381
 3774TIP3    H232882   3.331   3.283   0.765 -1.0014 -0.6898 -1.3762
 3775TIP3   OH232883   1.596   6.295   6.891 -0.1248 -0.1215 -0.1547
 3775TIP3    H132884   1.551   6.362   6.942 -0.7792 -0.5416 -0.1632
 3775TIP3    H232885   1.530   6.264   6.829 -0.1333 -1.4145  0.4591
 3776TIP3   OH232886   0.080   1.941   1.188 -0.5367  0.0947  0.3007
 3776TIP3    H132887  -0.006   1.953   1.146 -0.8307 -1.6194  0.3479
 3776TIP3    H232888   0.072   1.988   1.272 -0.6918  1.6832 -0.5626
 3777TIP3   OH232889   3.952   5.675   7.103 -0.5783  0.2069  0.2410
 3777TIP3    H132890   3.980   5.618   7.032 -0.6161  0.8212 -0.2824
 3777TIP3    H232891   3.885   5.731   7.063 -1.0291  0.1632  0.9202
 3778TIP3   OH232892   3.916   3.774   0.071  0.5504  0.2142 -0.4490
 3778TIP3    H132893   3.950   3.800   0.157  0.1340 -0.4911 -0.0671
 3778TIP3    H232894   3.946   3.684   0.059  0.3387  0.1986 -0.9088
 3779TIP3   OH232895   4.362   4.866   0.400  0.3241 -0.0713 -0.1289
 3779TIP3    H132896   4.383   4.800   0.466  1.2599 -0.1741 -0.5124
 3779TIP3    H232897   4.444   4.879   0.352 -0.2205  0.3472 -0.9672
 3780TIP3   OH232898   3.770   2.882   0.204  0.4144 -0.6104  0.2185
 3780TIP3    H132899   3.733   2.929   0.129 -1.4222 -2.3544 -0.0429
 3780TIP3    H232900   3.763   2.790   0.181  2.7861 -1.1075  1.2350
 3781TIP3   OH232901   0.738   3.020   0.158 -0.0896 -0.0993 -0.6885
 3781TIP3    H132902   0.645   3.004   0.138 -0.4004 -1.2947  1.4477
 3781TIP3    H232903   0.783   2.944   0.121  0.0657  0.4603 -1.6882
 3782TIP3   OH232904   3.705   6.001   0.117  0.4409  0.1480  0.0215
 3782TIP3    H132905   3.730   6.012   0.026 -2.4610 -0.4664 -0.9579
 3782TIP3    H232906   3.686   5.908   0.126 -0.8749  0.4501  0.7555
 3783TIP3   OH232907   5.476   1.511   2.943  0.4328 -0.4197  0.1181
 3783TIP3    H132908   5.453   1.576   2.877 -1.8716 -0.6323  0.6288
 3783TIP3    H232909   5.570   1.524   2.958  0.5886  0.9458 -1.7394
 3784TIP3   OH232910   2.296   0.488   8.494  0.0621 -0.4658  0.1415
 3784TIP3    H132911   2.306   0.579   8.467 -0.8145 -0.3425  0.1755
 3784TIP3    H232912   2.278   0.493   8.588  1.1584 -0.7568  0.3734
 3785TIP3   OH232913   0.740   5.164   8.657 -0.3205  0.7052 -0.4884
 3785TIP3    H132914   0.647   5.188   8.666 -0.9827 -1.7042 -0.1649
 3785TIP3    H232915   0.783   5.207   8.731 -1.6088  0.1334  0.6559
 3786TIP3   OH232916   3.979   4.595   1.993  0.5715  0.2926 -0.0070
 3786TIP3    H132917   4.019   4.520   2.037  1.2283  0.1694 -0.7867
 3786TIP3    H232918   3.906   4.620   2.049  0.5771 -0.6965  0.4569
 3787TIP3   OH232919   6.267   1.198   2.449  0.6294  0.0946  0.9753
 3787TIP3    H132920   6.330   1.213   2.519  0.3411  1.2157  1.0057
 3787TIP3    H232921   6.182   1.195   2.493  0.1961  2.9159  0.5100
 3788TIP3   OH232922   1.649   3.805   6.730 -0.4764  0.0235  0.0995
 3788TIP3    H132923   1.572   3.796   6.786 -1.2863 -0.0430 -0.9761
 3788TIP3    H232924   1.622   3.763   6.647  0.1613  1.3545 -0.8107
 3789TIP3   OH232925   0.493   2.338   8.660  0.5630 -0.4472 -0.2668
 3789TIP3    H132926   0.428   2.396   8.620 -0.5618 -0.7088  1.1172
 3789TIP3    H232927   0.554   2.319   8.589  0.4431  1.6610 -1.0023
 3790TIP3   OH232928   3.738   1.226   8.307 -0.0640  0.4702 -0.2921
 3790TIP3    H132929   3.661   1.273   8.341  1.0875  1.0676  1.6356
 3790TIP3    H232930   3.792   1.293   8.266  0.3916  0.4155  0.2068
 3791TIP3   OH232931   4.468   0.937   6.556  0.1608  0.1113  0.6212
 3791TIP3    H132932   4.511   1.011   6.600  1.3983 -0.5055  0.4745
 3791TIP3    H232933   4.489   0.861   6.611 -0.0006 -0.3419  0.0609
 3792TIP3   OH232934   2.895   2.901   0.297  0.0322  0.2621  0.1957
 3792TIP3    H132935   2.876   2.865   0.383 -0.2045  1.0852  0.4910
 3792TIP3    H232936   2.944   2.831   0.252 -3.6574 -2.0145 -0.6516
 3793TIP3   OH232937   6.840   2.657   8.045 -0.0919 -0.8355  0.0442
 3793TIP3    H132938   6.767   2.717   8.062  0.0037 -0.3816 -1.0311
 3793TIP3    H232939   6.853   2.662   7.950  1.3789 -0.8624  0.2228
 3794TIP3   OH232940   0.144   3.008   0.731  0.0078  0.7188 -0.5815
 3794TIP3    H132941   0.105   3.067   0.666  1.0394 -0.5860 -2.4847
 3794TIP3    H232942   0.162   3.065   0.806 -1.6583  2.1986 -1.2222
 3795TIP3   OH232943   6.204   4.223   7.572 -0.6159 -0.2217  0.4429
 3795TIP3    H132944   6.232   4.131   7.577 -0.8911 -0.3136  0.3360
 3795TIP3    H232945   6.253   4.267   7.642 -0.1322 -0.3542  0.1891
 3796TIP3   OH232946   2.015   4.912   8.392 -0.3762 -0.0400  0.4493
 3796TIP3    H132947   1.946   4.854   8.360 -0.0372 -0.5750  0.6694
 3796TIP3    H232948   2.084   4.852   8.421  0.0436  0.4823  0.5274
 3797TIP3   OH232949   5.724   1.544   2.414  0.1281  0.2879 -0.4343
 3797TIP3    H132950   5.756   1.571   2.328  3.1887  2.5919  1.2482
 3797TIP3    H232951   5.679   1.622   2.448 -1.1593 -0.6392  0.0809
 3798TIP3   OH232952   4.211   2.808   0.511 -0.5948 -0.2984  0.2621
 3798TIP3    H132953   4.166   2.877   0.560 -1.0857 -1.3428  1.3401
 3798TIP3    H232954   4.142   2.749   0.483 -0.3375  0.3360 -1.8796
 3799TIP3   OH232955   2.801   5.451   8.380  0.0596 -0.6726 -0.1496
 3799TIP3    H132956   2.793   5.363   8.343 -2.0397 -0.6701  0.1366
 3799TIP3    H232957   2.711   5.474   8.404  0.7019  1.1995  0.6069
 3800TIP3   OH232958   4.528   3.562   8.501 -0.4970  0.3140  0.2791
 3800TIP3    H132959   4.509   3.516   8.583  1.5640  0.4814  0.9056
 3800TIP3    H232960   4.618   3.594   8.512 -0.9900  2.3330 -1.1478
 3801TIP3   OH232961   5.215   4.528   6.887  0.0576 -0.0935  0.4256
 3801TIP3    H132962   5.248   4.475   6.959 -0.6403 -0.3622  0.5586
 3801TIP3    H232963   5.124   4.500   6.876 -0.1709  0.7212  0.1686
 3802TIP3   OH232964   2.511   1.293   2.414  0.1413 -0.1703 -0.1747
 3802TIP3    H132965   2.504   1.198   2.416  0.0466 -0.1561  0.9815
 3802TIP3    H232966   2.577   1.314   2.480  0.2121  0.5603 -0.4699
 3803TIP3   OH232967   0.497   5.698   1.650 -0.4616  0.0238 -0.1770
 3803TIP3    H132968   0.461   5.762   1.712 -0.5362  0.1604 -0.3612
 3803TIP3    H232969   0.434   5.627   1.649  1.5147 -2.0777  3.2013
 3804TIP3   OH232970   5.234   5.591   1.258  0.1363 -0.2125  0.1467
 3804TIP3    H132971   5.289   5.578   1.335 -0.7984 -2.0387  0.5521
 3804TIP3    H232972   5.156   5.636   1.291  0.1631 -0.1200  0.0852
 3805TIP3   OH232973   4.987   4.002   8.626 -0.4083  0.2158 -0.2351
 3805TIP3    H132974   5.068   3.956   8.602 -1.2865 -1.1222 -0.7412
 3805TIP3    H232975   5.005   4.094   8.608  0.5706 -0.2077 -1.5396
 3806TIP3   OH232976   5.929   0.194   2.567  0.0430  0.6317  0.2259
 3806TIP3    H132977   5.878   0.155   2.638  0.4356 -2.2430 -0.9400
 3806TIP3    H232978   5.863   0.222   2.503 -0.2652  2.5103  1.2722
 3807TIP3   OH232979   0.155   1.911   7.089  0.3151  0.0262  0.2701
 3807TIP3    H132980   0.151   1.826   7.131  0.3730  1.0616  2.5201
 3807TIP3    H232981   0.150   1.974   7.161  0.9649  1.9321 -1.2527
 3808TIP3   OH232982   5.387   3.079   8.544 -0.1113  1.1122  0.3868
 3808TIP3    H132983   5.297   3.047   8.549  0.0913  0.2786 -0.8187
 3808TIP3    H232984   5.409   3.104   8.634 -1.4470  1.0783  0.7405
 3809TIP3   OH232985   1.456   1.603   0.886 -0.2008  0.0908  0.0443
 3809TIP3    H132986   1.478   1.541   0.816 -0.4994 -1.0719  0.9462
 3809TIP3    H232987   1.517   1.676   0.874  0.5738 -0.6531 -0.6873
 3810TIP3   OH232988   3.707   2.661   0.428 -0.4727  0.0753 -0.3240
 3810TIP3    H132989   3.731   2.753   0.441  1.0895 -0.1982 -0.9611
 3810TIP3    H232990   3.676   2.658   0.337  0.8910 -0.2585 -0.8026
 3811TIP3   OH232991   3.829   4.096   1.216 -0.1033  0.2957  0.1916
 3811TIP3    H132992   3.846   4.085   1.122 -0.3309 -0.0608  0.1879
 3811TIP3    H232993   3.790   4.183   1.224 -0.7371  0.0451 -0.1365
 3812TIP3   OH232994   2.935   4.766   6.212 -0.2663 -0.1490 -0.3094
 3812TIP3    H132995   2.948   4.698   6.277  0.2970 -0.5739 -0.8453
 3812TIP3    H232996   2.857   4.738   6.163  0.8860 -1.3047 -1.5812
 3813TIP3   OH232997   1.402   3.693   1.199  0.0303  0.1309  0.1971
 3813TIP3    H132998   1.395   3.780   1.161  0.0836  0.4467  0.8904
 3813TIP3    H232999   1.328   3.688   1.260 -0.1241 -0.4081 -0.0274
 3814TIP3   OH233000   3.951   1.114   2.128  0.6834  0.3500  0.0323
 3814TIP3    H133001   3.875   1.123   2.185  0.6297 -0.3479  0.0900
 3814TIP3    H233002   4.008   1.187   2.151  0.0311  0.8852 -0.0199
 3815TIP3   OH233003   4.405   4.176   7.440  0.2444 -0.5991 -0.4235
 3815TIP3    H133004   4.400   4.256   7.388  1.3552  1.0924  1.8691
 3815TIP3    H233005   4.485   4.133   7.412  1.9063  1.3139  1.0923
 3816TIP3   OH233006   0.978   6.617   7.922 -0.0381 -0.5650  0.4894
 3816TIP3    H133007   0.948   6.605   7.832 -0.2300 -1.2418  0.6392
 3816TIP3    H233008   1.063   6.574   7.925  0.8849  1.1485  0.1277
 3817TIP3   OH233009   2.160   5.573   0.409 -0.4279  0.2122 -0.0372
 3817TIP3    H133010   2.222   5.536   0.471 -0.6821 -0.3721 -0.1258
 3817TIP3    H233011   2.180   5.667   0.408 -0.1741  0.1729  0.6434
 3818TIP3   OH233012   0.784   4.313   7.262 -1.1458 -0.2891  0.1744
 3818TIP3    H133013   0.851   4.335   7.197 -0.9997 -1.6799 -0.1781
 3818TIP3    H233014   0.831   4.314   7.345 -1.1664  0.7771  0.1842
 3819TIP3   OH233015   1.230   4.387   1.133 -0.0448  0.4382 -0.0798
 3819TIP3    H133016   1.188   4.473   1.136  0.0853  0.5475 -1.0817
 3819TIP3    H233017   1.212   4.355   1.045 -0.3808 -0.7200  0.3954
 3820TIP3   OH233018   0.987   2.047   0.866 -1.1568  0.1202 -0.7317
 3820TIP3    H133019   1.072   2.004   0.869 -0.4453  1.2382 -2.7795
 3820TIP3    H233020   0.932   1.995   0.924  0.6119 -1.3128 -0.2367
 3821TIP3   OH233021   3.714   2.093   6.848 -0.3017  0.5050  0.6602
 3821TIP3    H133022   3.700   2.184   6.823 -1.0342 -0.1232 -1.3882
 3821TIP3    H233023   3.629   2.051   6.837  0.5452 -0.9380 -0.8807
 3822TIP3   OH233024   3.546   5.287   1.470 -0.1881  0.5995  0.7840
 3822TIP3    H133025   3.569   5.254   1.384  0.3493  1.0844  0.7378
 3822TIP3    H233026   3.568   5.216   1.530 -1.6228 -0.1919  0.4374
 3823TIP3   OH233027   1.644   5.939   0.344 -0.1288 -0.2363 -0.1512
 3823TIP3    H133028   1.634   6.020   0.394  0.7928  0.9704 -1.8146
 3823TIP3    H233029   1.564   5.889   0.362 -0.8038  1.1247  0.7487
 3824TIP3   OH233030   6.644   0.050   0.627 -0.0943 -0.1258  0.2221
 3824TIP3    H133031   6.623  -0.021   0.687  1.2638 -0.8522 -0.1396
 3824TIP3    H233032   6.677   0.120   0.684 -0.1420 -0.2813  0.4426
 3825TIP3   OH233033   3.419   6.379   0.713  0.0714  0.2483  1.0436
 3825TIP3    H133034   3.444   6.394   0.622 -1.5148 -1.2009  0.3315
 3825TIP3    H233035   3.340   6.326   0.709  0.2123 -0.2511  3.2891
 3826TIP3   OH233036   2.631   1.993   0.966 -0.0808  0.1873 -0.1575
 3826TIP3    H133037   2.629   2.041   0.883  0.0581 -0.1801 -0.3758
 3826TIP3    H233038   2.682   2.049   1.025 -0.4243  0.5839 -0.2338
 3827TIP3   OH233039   1.369   0.604   0.216  0.1039 -0.0379 -0.0145
 3827TIP3    H133040   1.334   0.515   0.224 -0.1924  0.0457 -0.3494
 3827TIP3    H233041   1.346   0.630   0.127 -1.2450  0.9903  0.6137
 3828TIP3   OH233042   2.922   3.797   7.119  0.0787 -0.3770  0.2788
 3828TIP3    H133043   2.852   3.742   7.083  0.3471  1.1736 -2.9980
 3828TIP3    H233044   2.876   3.871   7.159 -0.2116 -0.3586 -0.0823
 3829TIP3   OH233045   6.564   6.525   8.438  0.0904  0.3094 -0.3141
 3829TIP3    H133046   6.565   6.458   8.506  0.2136  0.1861 -0.4375
 3829TIP3    H233047   6.494   6.498   8.379  1.4867 -0.8686 -1.5201
 3830TIP3   OH233048   1.641   5.440   1.420 -0.2627  0.0668  0.2835
 3830TIP3    H133049   1.712   5.376   1.418  1.9673  2.3315  1.8868
 3830TIP3    H233050   1.604   5.432   1.508 -0.9123  0.0713  0.0168
 3831TIP3   OH233051   0.007   6.288   2.358 -0.4758 -0.4038 -0.4592
 3831TIP3    H133052  -0.002   6.380   2.381 -0.5391 -0.6248  0.4797
 3831TIP3    H233053   0.010   6.286   2.263  1.3873  0.7455 -0.4707
 3832TIP3   OH233054   0.550   6.513   0.864  0.1371  0.0467  0.1081
 3832TIP3    H133055   0.585   6.442   0.917 -0.2017 -0.5190 -0.4070
 3832TIP3    H233056   0.477   6.473   0.816 -1.0546  1.1325  0.9684
 3833TIP3   OH233057   5.077   1.490   0.701 -0.4623 -0.2036  0.1835
 3833TIP3    H133058   5.000   1.449   0.742 -0.4471  0.8033  1.2492
 3833TIP3    H233059   5.103   1.558   0.762  0.2393  0.6167 -1.0058
 3834TIP3   OH233060   5.139   5.862   2.112  0.2583  0.4588 -0.1293
 3834TIP3    H133061   5.117   5.866   2.018  1.2437  0.9882 -0.3541
 3834TIP3    H233062   5.074   5.803   2.149  0.3450 -0.4075 -1.2962
 3835TIP3   OH233063   4.226   2.624   7.306 -0.6204  0.4969 -0.1864
 3835TIP3    H133064   4.177   2.542   7.309 -0.2721  0.1050 -2.7892
 3835TIP3    H233065   4.318   2.597   7.311 -0.4193  0.4752 -2.5953
 3836TIP3   OH233066   3.997   3.329   0.089  0.1562 -0.3334  0.3998
 3836TIP3    H133067   3.979   3.289   0.004  0.7911 -0.7680  0.4601
 3836TIP3    H233068   4.054   3.403   0.069 -1.9666  1.3095  0.1616
 3837TIP3   OH233069   5.085   1.027   7.531 -0.3101 -0.1322 -0.1134
 3837TIP3    H133070   5.166   1.065   7.497 -0.6790 -0.8734 -1.9475
 3837TIP3    H233071   5.059   0.963   7.465 -3.0596  0.9604 -0.2143
 3838TIP3   OH233072   5.057   4.393   8.712  0.1446 -0.4532 -0.2145
 3838TIP3    H133073   5.085   4.397   8.621 -0.8217  1.8356 -0.4887
 3838TIP3    H233074   4.961   4.389   8.709 -0.0086  1.3242  0.6315
 3839TIP3   OH233075   5.296   6.617   1.796  0.4023  0.0274  0.1862
 3839TIP3    H133076   5.212   6.655   1.771  0.6713  0.4456 -0.1061
 3839TIP3    H233077   5.360   6.687   1.778  0.7815 -0.1995  0.6198
 3840TIP3   OH233078   3.895   3.920   1.444 -0.1276  0.3961  0.5383
 3840TIP3    H133079   3.901   3.978   1.520 -0.2793 -0.3550  1.1356
 3840TIP3    H233080   3.914   3.976   1.369 -1.7616  1.5782  0.9543
 3841TIP3   OH233081   3.900   1.870   1.582  0.6205 -0.1466  0.2714
 3841TIP3    H133082   3.943   1.784   1.582  0.5841 -0.1759  1.1574
 3841TIP3    H233083   3.812   1.852   1.614  1.2117  0.4799  2.4134
 3842TIP3   OH233084   0.904   0.147   7.841 -0.0287 -0.1726  0.3326
 3842TIP3    H133085   0.914   0.100   7.758 -1.4808 -2.8603  1.5278
 3842TIP3    H233086   0.813   0.176   7.841 -0.0539 -0.2350  0.9972
 3843TIP3   OH233087   6.694   0.638   7.200  0.1933 -0.5484  0.1654
 3843TIP3    H133088   6.778   0.595   7.181  0.6227 -0.2510  1.3224
 3843TIP3    H233089   6.639   0.617   7.124  0.9625 -1.6392 -0.1148
 3844TIP3   OH233090   1.341   4.869   8.543  0.3411  0.2238  0.2410
 3844TIP3    H133091   1.256   4.889   8.503 -0.5172 -0.1907  1.7897
 3844TIP3    H233092   1.325   4.873   8.637  2.3774  1.4770  0.5857
 3845TIP3   OH233093   2.006   1.551   7.321 -0.5573  0.4092  1.0935
 3845TIP3    H133094   2.000   1.496   7.399 -0.6702 -3.2955 -1.2340
 3845TIP3    H233095   2.097   1.540   7.291 -1.3190 -1.0844 -0.9667
 3846TIP3   OH233096   3.630   5.843   1.419 -0.1724  0.4776  0.3493
 3846TIP3    H133097   3.687   5.891   1.359  1.0075  0.9660  1.8138
 3846TIP3    H233098   3.574   5.791   1.361  2.6719 -1.1412 -1.2001
 3847TIP3   OH233099   6.040   0.911   7.252 -0.3821  0.0969  0.0733
 3847TIP3    H133100   6.081   0.865   7.178 -2.0267  0.2110 -0.9562
 3847TIP3    H233101   6.058   0.855   7.328 -0.2384 -0.9804 -0.7332
 3848TIP3   OH233102   5.959   4.123   7.475  0.5664 -0.4369  0.1315
 3848TIP3    H133103   5.987   4.115   7.384 -0.4192  1.5439 -0.4089
 3848TIP3    H233104   6.039   4.149   7.522  1.0724 -1.4356 -0.1411
 3849TIP3   OH233105   2.118   5.262   6.135  0.6755  0.1665  0.6101
 3849TIP3    H133106   2.138   5.168   6.133 -0.1549 -0.0014 -0.0184
 3849TIP3    H233107   2.052   5.271   6.203 -0.9148 -0.0583 -0.8495
 3850TIP3   OH233108   6.316   6.127   6.866  0.4519 -0.3151 -0.1459
 3850TIP3    H133109   6.312   6.097   6.957  2.4564  2.2166  0.8979
 3850TIP3    H233110   6.269   6.210   6.866  2.6794  1.0199 -0.7421
 3851TIP3   OH233111   5.876   3.350   1.390  0.2327 -0.7961 -0.3843
 3851TIP3    H133112   5.811   3.304   1.443 -0.4677  0.1003 -0.4430
 3851TIP3    H233113   5.825   3.401   1.328  1.0057 -0.3341 -0.6549
 3852TIP3   OH233114   0.361   2.708   1.974 -0.3902 -0.0308  0.5970
 3852TIP3    H133115   0.310   2.653   1.914  2.2968  0.8420 -2.8464
 3852TIP3    H233116   0.401   2.647   2.035 -1.6618 -1.2406  0.2802
 3853TIP3   OH233117   1.574   5.651   0.240  1.4712 -0.3705 -0.1898
 3853TIP3    H133118   1.608   5.679   0.155  0.8357  0.8305 -0.0569
 3853TIP3    H233119   1.651   5.616   0.285  2.1308  0.4045 -0.6792
 3854TIP3   OH233120   2.822   4.622   7.217  0.1224  0.1281  0.3407
 3854TIP3    H133121   2.769   4.702   7.225  0.9808  0.7571 -0.1450
 3854TIP3    H233122   2.911   4.653   7.202  0.2397 -0.9197 -1.4020
 3855TIP3   OH233123   1.313   3.865   1.683 -0.0956  0.6710  0.4546
 3855TIP3    H133124   1.273   3.788   1.723 -0.5342 -0.2545 -1.6355
 3855TIP3    H233125   1.243   3.904   1.631  0.6007  1.4627  0.0859
 3856TIP3   OH233126   5.893   1.795   1.556  0.7565  0.2221 -0.4893
 3856TIP3    H133127   5.921   1.703   1.555 -1.6950 -0.7251  2.4923
 3856TIP3    H233128   5.926   1.829   1.639  1.1851  1.9650 -1.3165
 3857TIP3   OH233129   3.993   6.044   1.053  0.2994  0.1924  0.5628
 3857TIP3    H133130   4.064   6.104   1.078 -0.0325  0.1101  1.7546
 3857TIP3    H233131   3.919   6.101   1.034  0.1976  0.2026  0.9795
 3858TIP3   OH233132   4.781   0.873   1.107  0.0049  0.7253 -0.8864
 3858TIP3    H133133   4.691   0.877   1.076  0.1924  1.2709 -1.3871
 3858TIP3    H233134   4.824   0.948   1.066  1.1275 -0.5052 -2.0448
 3859TIP3   OH233135   0.351   2.716   7.944 -0.4285  0.2014  0.0823
 3859TIP3    H133136   0.294   2.789   7.969 -0.8660 -0.5654  1.3908
 3859TIP3    H233137   0.304   2.671   7.874 -0.2538  1.0285 -0.5856
 3860TIP3   OH233138   2.484   0.379   7.982 -0.1014  0.3405  0.3106
 3860TIP3    H133139   2.545   0.411   7.917  1.6765 -2.7602  0.2927
 3860TIP3    H233140   2.498   0.436   8.059  3.8317 -0.9930  0.7581
 3861TIP3   OH233141   2.135   4.257   7.853 -0.6243  0.3711  0.1857
 3861TIP3    H133142   2.063   4.319   7.863  0.0121  1.0516  0.6381
 3861TIP3    H233143   2.097   4.173   7.880 -1.2368  0.7314  0.4724
 3862TIP3   OH233144   6.723   5.363   2.032  0.8110  0.2053 -0.3242
 3862TIP3    H133145   6.660   5.294   2.012 -0.8398  2.1880 -2.5135
 3862TIP3    H233146   6.672   5.426   2.084  1.5822  0.9062 -0.4105
 3863TIP3   OH233147   6.389   5.738   1.276  0.4579  0.1221  0.2457
 3863TIP3    H133148   6.361   5.651   1.304 -0.8376  0.6481  0.6811
 3863TIP3    H233149   6.485   5.734   1.276  0.5397 -0.4243  3.2317
 3864TIP3   OH233150   0.877   6.033   6.712  0.9117 -0.3330  0.3328
 3864TIP3    H133151   0.855   5.946   6.678 -0.2428  0.1436 -0.1924
 3864TIP3    H233152   0.972   6.039   6.703  0.7853 -0.6582 -1.8836
 3865TIP3   OH233153   5.706   4.776   0.901 -0.6932 -0.3124  0.0220
 3865TIP3    H133154   5.627   4.781   0.847  0.2202 -0.0781 -1.3461
 3865TIP3    H233155   5.728   4.683   0.903 -1.4786 -0.5011  1.1726
 3866TIP3   OH233156   3.457   0.604   6.726  0.7238  0.0758 -0.0986
 3866TIP3    H133157   3.446   0.694   6.758 -1.4265 -0.5006  0.9696
 3866TIP3    H233158   3.417   0.549   6.794  3.7513 -1.9117  0.2586
 3867TIP3   OH233159   0.515   2.558   2.145  0.0114  0.2042  0.6924
 3867TIP3    H133160   0.600   2.520   2.168 -0.8890 -2.3697  0.0614
 3867TIP3    H233161   0.466   2.561   2.227 -0.0752 -0.5058  0.6720
 3868TIP3   OH233162   0.754   2.366   1.294  0.1177 -0.4209  0.3802
 3868TIP3    H133163   0.751   2.297   1.228  0.5720  0.1683 -0.2788
 3868TIP3    H233164   0.738   2.447   1.245  3.3229  0.3795  0.3890
 3869TIP3   OH233165   5.926   0.830   7.780 -0.0518  0.8322 -0.3177
 3869TIP3    H133166   5.873   0.761   7.740 -1.2098  0.6476  1.4132
 3869TIP3    H233167   5.964   0.788   7.858  1.1235  1.5144 -0.5076
 3870TIP3   OH233168   1.115   2.252   7.780  0.3092 -0.3737  0.5307
 3870TIP3    H133169   1.044   2.223   7.723 -2.1637  1.3207  2.5291
 3870TIP3    H233170   1.159   2.321   7.730 -0.5525 -0.2445 -0.0757
 3871TIP3   OH233171   5.329   1.937   7.457 -0.2163  0.7960 -0.4400
 3871TIP3    H133172   5.390   1.939   7.531 -1.8174  1.0609  0.9202
 3871TIP3    H233173   5.356   2.012   7.403  0.4687  1.1007  0.2949
 3872TIP3   OH233174   3.536   3.746   6.553  0.3309 -0.1391  0.3479
 3872TIP3    H133175   3.517   3.653   6.539 -1.6569  0.3981 -1.0550
 3872TIP3    H233176   3.573   3.775   6.470  0.3901  0.4487  0.5794
 3873TIP3   OH233177   4.400   5.267   1.198  0.6008  0.0815  0.5713
 3873TIP3    H133178   4.379   5.180   1.231 -0.0291 -0.2352 -0.6095
 3873TIP3    H233179   4.432   5.253   1.109  0.6535  1.0412  0.4201
 3874TIP3   OH233180   6.725   6.066   7.370 -0.4879  0.0210 -0.1434
 3874TIP3    H133181   6.805   6.080   7.422  0.1267 -1.0443 -0.7649
 3874TIP3    H233182   6.675   6.002   7.421  0.6483 -1.9188 -1.3539
 3875TIP3   OH233183   4.254   0.545   0.357  0.1253 -0.7737 -0.0532
 3875TIP3    H133184   4.325   0.579   0.303  1.9555 -0.0441  2.6659
 3875TIP3    H233185   4.187   0.613   0.356  0.4814 -0.4298 -0.7269
 3876TIP3   OH233186   4.263   3.783   1.272  0.0267  0.0184 -0.3652
 3876TIP3    H133187   4.265   3.747   1.183  0.4280  1.3841 -0.9232
 3876TIP3    H233188   4.191   3.737   1.315 -0.5695 -0.2177 -1.5818
 3877TIP3   OH233189   3.831   0.938   7.763 -0.0812 -0.6492  0.8021
 3877TIP3    H133190   3.906   0.996   7.773 -1.0995  0.9028 -0.1118
 3877TIP3    H233191   3.834   0.910   7.672 -0.5969 -0.6026  0.7674
 3878TIP3   OH233192   1.656   1.206   2.631 -0.0453  0.2058 -0.1560
 3878TIP3    H133193   1.706   1.191   2.551 -1.6579  2.0912 -1.6249
 3878TIP3    H233194   1.642   1.300   2.633 -1.1176  0.0538  1.6797
 3879TIP3   OH233195   6.196   4.475   1.361 -0.3114  0.6008 -0.5048
 3879TIP3    H133196   6.251   4.513   1.293 -0.1095  3.3345  1.0227
 3879TIP3    H233197   6.151   4.402   1.318  2.5055 -0.1326 -2.5027
 3880TIP3   OH233198   3.749   2.362   7.174 -0.0183  0.4350  0.6090
 3880TIP3    H133199   3.691   2.293   7.208  0.3147  0.0199  0.3444
 3880TIP3    H233200   3.740   2.356   7.079 -0.5901  1.2842  0.5940
 3881TIP3   OH233201   5.693   0.006   1.084  0.1903  0.4438 -0.2478
 3881TIP3    H133202   5.612   0.053   1.108  1.5193  3.1874 -0.7156
 3881TIP3    H233203   5.755   0.028   1.154  1.4161  0.9660 -1.4490
 3882TIP3   OH233204   3.046   5.109   1.491  0.2931 -0.6466 -0.6298
 3882TIP3    H133205   3.050   5.040   1.557  0.0345 -0.6883 -0.6540
 3882TIP3    H233206   3.134   5.112   1.454  0.3220 -0.9276 -0.5907
 3883TIP3   OH233207   6.716   6.702   6.973 -0.2748 -0.0183 -0.2652
 3883TIP3    H133208   6.798   6.667   6.938  0.5222  0.7662  0.7433
 3883TIP3    H233209   6.666   6.728   6.896  1.1376  1.0224 -0.8689
 3884TIP3   OH233210   4.281   4.059   8.078 -0.4119 -0.5589  0.1678
 3884TIP3    H133211   4.199   4.021   8.111 -0.6597 -1.7876 -1.7115
 3884TIP3    H233212   4.253   4.122   8.012  0.1516 -0.4009  0.0744
 3885TIP3   OH233213   4.784   6.212   6.912 -0.3089  0.4621 -0.2346
 3885TIP3    H133214   4.797   6.258   6.995 -1.6821 -0.8882  0.7847
 3885TIP3    H233215   4.788   6.281   6.845  0.0801  1.6830  1.0094
 3886TIP3   OH233216   2.592   4.364   6.971  0.2445 -0.0058  0.2965
 3886TIP3    H133217   2.599   4.283   6.919  0.1363  0.3233 -0.2398
 3886TIP3    H233218   2.656   4.353   7.041 -0.0176 -0.7111  0.4428
 3887TIP3   OH233219   0.170   3.258   1.185  0.8805 -0.0909 -0.1887
 3887TIP3    H133220   0.186   3.206   1.106 -1.1611 -0.9206 -0.1205
 3887TIP3    H233221   0.149   3.193   1.252 -4.6404  0.6092 -0.7514
 3888TIP3   OH233222   2.824   3.220   6.662 -0.0565 -0.9043 -0.7623
 3888TIP3    H133223   2.776   3.137   6.654 -0.6381 -0.4214 -3.0293
 3888TIP3    H233224   2.867   3.231   6.577  0.3767  0.9033 -0.3408
 3889TIP3   OH233225   6.736   2.470   7.760 -0.4474 -0.0017 -0.2681
 3889TIP3    H133226   6.732   2.390   7.812 -1.0828  0.0774 -0.1914
 3889TIP3    H233227   6.790   2.447   7.684 -0.4179 -0.4269 -0.1158
 3890TIP3   OH233228   2.134   0.897   1.769  0.0032  0.4727  0.4423
 3890TIP3    H133229   2.129   0.990   1.750  0.8898  0.0793 -2.2107
 3890TIP3    H233230   2.228   0.878   1.774 -0.1639 -0.2359  1.3703
 3891TIP3   OH233231   4.159   4.839   7.611 -0.6685  0.4926 -0.4272
 3891TIP3    H133232   4.093   4.795   7.557  0.0207  1.3769 -2.0789
 3891TIP3    H233233   4.164   4.927   7.575  0.2303  0.9488  0.7597
 3892TIP3   OH233234   6.137   2.043   0.369 -0.4535  0.2605 -0.8194
 3892TIP3    H133235   6.100   2.082   0.448  1.3654  0.4645 -0.0018
 3892TIP3    H233236   6.133   1.949   0.385  0.5952  0.3149 -0.1065
 3893TIP3   OH233237   2.925   0.411   8.646 -0.5353 -0.2521 -0.1887
 3893TIP3    H133238   2.855   0.464   8.683 -0.1081  0.2012 -0.0132
 3893TIP3    H233239   2.914   0.419   8.551 -1.1101 -0.7115 -0.1641
 3894TIP3   OH233240   0.504   2.335   1.703 -0.2991  0.4299 -0.0260
 3894TIP3    H133241   0.561   2.293   1.767  0.0227 -0.4472 -0.8537
 3894TIP3    H233242   0.435   2.376   1.754  0.1873  0.1139  0.8976
 3895TIP3   OH233243   6.702   4.358   0.987 -0.0708 -0.4043 -0.6253
 3895TIP3    H133244   6.724   4.313   0.906  1.3141  0.8712 -1.0064
 3895TIP3    H233245   6.776   4.342   1.045  0.9899  2.1205 -1.1337
 3896TIP3   OH233246   2.396   2.652   7.031  0.2328  0.5268  0.1475
 3896TIP3    H133247   2.307   2.618   7.023  0.0679  0.7153  1.0402
 3896TIP3    H233248   2.388   2.744   7.007  0.1558  0.5712  0.3352
 3897TIP3   OH233249   3.410   5.470   1.632 -0.1717 -0.7031 -0.1915
 3897TIP3    H133250   3.362   5.403   1.681  0.6114 -2.5265 -1.7857
 3897TIP3    H233251   3.461   5.421   1.567 -1.7403  1.5628 -3.4014
 3898TIP3   OH233252   3.207   0.774   0.589 -0.0644 -0.0395  0.1488
 3898TIP3    H133253   3.218   0.682   0.610 -0.5825 -0.0639  0.3185
 3898TIP3    H233254   3.197   0.777   0.494  0.8565 -0.0651  0.0396
 3899TIP3   OH233255   4.729   6.714   7.174 -0.3599 -0.2538 -0.1749
 3899TIP3    H133256   4.709   6.633   7.128 -1.1874  0.2400 -0.7204
 3899TIP3    H233257   4.817   6.701   7.209 -0.1419 -1.0594 -0.9754
 3900TIP3   OH233258   5.684   2.317   8.327 -0.1324  0.8029 -0.5049
 3900TIP3    H133259   5.682   2.408   8.299  1.9003  1.7786  2.1306
 3900TIP3    H233260   5.770   2.306   8.367 -0.5899 -2.0908 -0.0889
 3901TIP3   OH233261   6.652   4.744   0.376  0.1305 -0.0298 -0.5646
 3901TIP3    H133262   6.696   4.692   0.443 -0.1632 -1.0823 -1.1747
 3901TIP3    H233263   6.559   4.738   0.398  0.0125 -0.5708 -1.1918
 3902TIP3   OH233264   1.847   3.982   8.131  0.5760  0.3224  0.3651
 3902TIP3    H133265   1.914   3.970   8.064 -0.0489 -0.9209 -0.0636
 3902TIP3    H233266   1.782   4.040   8.091  0.8571  0.6605  0.3931
 3903TIP3   OH233267   5.461   0.915   1.590 -0.0475  1.2208 -0.1932
 3903TIP3    H133268   5.450   0.975   1.664 -0.5242  0.6177  0.2444
 3903TIP3    H233269   5.446   0.969   1.513 -1.5172  1.4634  0.2303
 3904TIP3   OH233270   5.716   2.081   0.349 -0.1998 -0.4176 -0.1348
 3904TIP3    H133271   5.771   2.108   0.275 -1.9675  1.8357 -0.7213
 3904TIP3    H233272   5.748   2.131   0.423 -0.2908 -0.5016 -0.0381
 3905TIP3   OH233273   3.374   0.053   6.977 -0.2212  0.4122 -0.3588
 3905TIP3    H133274   3.415   0.081   6.895 -1.5684  1.2569 -0.7992
 3905TIP3    H233275   3.439   0.069   7.044  0.3905  1.1082 -1.1004
 3906TIP3   OH233276   0.512   5.062   2.281  0.0499 -0.2227 -0.4957
 3906TIP3    H133277   0.430   5.088   2.325  1.1372  1.0243  0.9018
 3906TIP3    H233278   0.557   5.145   2.265  1.9986 -1.0109  0.7014
 3907TIP3   OH233279   2.389   0.054   0.838  0.1600 -0.4547  0.0377
 3907TIP3    H133280   2.478   0.021   0.833 -0.0746 -1.1159  0.1031
 3907TIP3    H233281   2.392   0.138   0.793  0.4996 -1.1684 -1.3401
 3908TIP3   OH233282   2.802   2.144   1.144  0.2256  0.0735 -0.5645
 3908TIP3    H133283   2.865   2.139   1.072  1.9574  1.4780  0.7496
 3908TIP3    H233284   2.771   2.235   1.143  0.2386  0.1010  0.4092
 3909TIP3   OH233285   3.344   5.891   6.434 -0.0010 -0.5630  0.2988
 3909TIP3    H133286   3.312   5.975   6.465 -0.6198 -1.6805  2.9205
 3909TIP3    H233287   3.272   5.856   6.382 -1.3540 -1.0726  2.3939
 3910TIP3   OH233288   5.173   4.957   8.307 -0.3492 -0.5234 -0.7062
 3910TIP3    H133289   5.231   4.950   8.383  0.7981 -1.0020 -1.6033
 3910TIP3    H233290   5.086   4.935   8.341  0.1753 -0.8905  0.4349
 3911TIP3   OH233291   3.967   4.464   6.115  0.1377  0.3181 -0.0874
 3911TIP3    H133292   3.942   4.380   6.075 -0.1512  1.9330 -3.6671
 3911TIP3    H233293   3.902   4.477   6.185  0.8199 -2.8013  1.3385
 3912TIP3   OH233294   3.396   5.424   0.151  0.1999 -0.2019 -0.2719
 3912TIP3    H133295   3.321   5.400   0.205  0.4155  0.0131  0.1288
 3912TIP3    H233296   3.368   5.405   0.061 -0.6312  0.6510 -0.2072
 3913TIP3   OH233297   5.158   3.107   2.251 -0.2919 -0.3356  0.0720
 3913TIP3    H133298   5.145   3.193   2.210 -0.4498  0.0460  0.8899
 3913TIP3    H233299   5.078   3.094   2.302  0.4749 -0.1600  1.3519
 3914TIP3   OH233300   6.656   4.051   1.022 -0.0672 -0.0265 -0.1017
 3914TIP3    H133301   6.563   4.073   1.026 -0.1057  0.2401 -1.7818
 3914TIP3    H233302   6.658   3.956   1.031 -0.4789 -0.0111  0.1939
 3915TIP3   OH233303   4.174   2.779   8.366  0.4297  0.6582 -0.0214
 3915TIP3    H133304   4.229   2.724   8.422 -0.7837 -0.4521  0.1300
 3915TIP3    H233305   4.172   2.733   8.282  0.5504  1.2331 -0.3460
 3916TIP3   OH233306   2.599   0.448   1.656  0.0002  0.0199 -0.1712
 3916TIP3    H133307   2.645   0.370   1.687  0.3865  0.3236  0.0310
 3916TIP3    H233308   2.520   0.452   1.711 -0.3815 -0.6110 -0.6535
 3917TIP3   OH233309   0.994   3.254   0.671 -0.3454 -0.2530 -0.0958
 3917TIP3    H133310   1.051   3.178   0.677 -1.1617 -0.8136  0.9345
 3917TIP3    H233311   1.036   3.311   0.607  1.5816 -0.4637  0.8981
 3918TIP3   OH233312   3.362   3.781   2.203 -0.3379 -0.0153  0.4000
 3918TIP3    H133313   3.447   3.814   2.230 -1.0009  2.0891  0.1073
 3918TIP3    H233314   3.366   3.779   2.107 -1.6591  3.4965  0.1200
 3919TIP3   OH233315   2.925   4.153   7.287 -0.4899 -0.9280  0.5509
 3919TIP3    H133316   3.006   4.115   7.251 -0.8830 -0.4189 -0.9470
 3919TIP3    H233317   2.864   4.080   7.290 -0.1666 -1.1812  1.0975
 3920TIP3   OH233318   2.886   5.890   1.032 -0.1100 -0.3587 -0.5258
 3920TIP3    H133319   2.820   5.938   0.984 -0.3386 -0.3143 -0.1733
 3920TIP3    H233320   2.915   5.821   0.972 -2.4158 -2.0984  0.2013
 3921TIP3   OH233321   2.284   1.347   1.738 -0.4214  0.6347  0.1302
 3921TIP3    H133322   2.296   1.275   1.801  0.0208 -0.2255 -0.9091
 3921TIP3    H233323   2.334   1.420   1.775  1.5901 -0.4889 -0.2260
 3922TIP3   OH233324   5.412   5.536   1.717 -0.4559 -0.1005  0.2952
 3922TIP3    H133325   5.394   5.625   1.749  1.6139  0.1290  0.9913
 3922TIP3    H233326   5.414   5.545   1.622 -2.4320  0.1066  0.2314
 3923TIP3   OH233327   2.790   2.743   0.968 -0.0825 -0.4376  0.2694
 3923TIP3    H133328   2.848   2.807   1.009  2.0028 -1.0636 -1.5049
 3923TIP3    H233329   2.848   2.670   0.945 -1.9161 -1.8462 -0.0832
 3924TIP3   OH233330   4.715   3.566   7.114 -0.5633 -0.5539 -0.0617
 3924TIP3    H133331   4.732   3.499   7.181  1.9729  0.8836  0.8794
 3924TIP3    H233332   4.729   3.649   7.160 -2.6868  0.6520 -1.4365
 3925TIP3   OH233333   2.082   5.633   7.627  0.3785 -0.4452  0.8168
 3925TIP3    H133334   2.076   5.728   7.629  1.3655 -0.3762  1.5640
 3925TIP3    H233335   1.993   5.603   7.641  0.1693  0.3759  1.2942
 3926TIP3   OH233336   6.836   0.419   7.621  0.3657  0.2518  0.0808
 3926TIP3    H133337   6.893   0.483   7.579  1.2667 -0.3428  0.3771
 3926TIP3    H233338   6.877   0.334   7.603  0.2904 -0.0860  1.3904
 3927TIP3   OH233339   1.933   0.219   1.480  0.0332  0.5348  0.0322
 3927TIP3    H133340   1.982   0.226   1.562 -0.2204 -0.8309  0.3325
 3927TIP3    H233341   1.997   0.189   1.416 -0.2414 -0.6099  0.2733
 3928TIP3   OH233342   0.514   6.263   1.681 -0.0188 -1.3496  0.2533
 3928TIP3    H133343   0.586   6.313   1.718 -1.5242  0.2523  1.1855
 3928TIP3    H233344   0.477   6.215   1.756 -3.5244  2.4554  1.2795
 3929TIP3   OH233345   4.470   1.374   2.076 -0.3095  0.5072 -0.5614
 3929TIP3    H133346   4.548   1.422   2.103 -0.7312  1.2753 -0.6886
 3929TIP3    H233347   4.432   1.342   2.158  0.3460 -0.2109 -0.5262
 3930TIP3   OH233348   4.136   6.694   0.144 -0.0146 -0.0541  0.4596
 3930TIP3    H133349   4.056   6.704   0.093  0.4318 -2.2381 -0.8003
 3930TIP3    H233350   4.203   6.741   0.095 -0.1547  0.2393  0.5486
 3931TIP3   OH233351   1.796   2.759   0.449 -0.1387 -0.0100  0.4849
 3931TIP3    H133352   1.872   2.710   0.417  0.3416  0.1495  1.3750
 3931TIP3    H233353   1.789   2.834   0.389 -1.0055 -1.2296 -1.0164
 3932TIP3   OH233354   6.278   1.274   6.554  0.7297  0.4040  0.2166
 3932TIP3    H133355   6.235   1.356   6.529  1.8039  1.2482  1.0742
 3932TIP3    H233356   6.208   1.222   6.593  0.0445  0.9209 -0.2846
 3933TIP3   OH233357   2.141   3.129   8.630 -0.7200 -0.2630 -0.9322
 3933TIP3    H133358   2.106   3.121   8.719  1.6525 -1.0652  0.0071
 3933TIP3    H233359   2.184   3.214   8.629 -1.7574  0.2811 -1.7543
 3934TIP3   OH233360   1.592   2.995   1.619  0.3311  0.0082 -0.2622
 3934TIP3    H133361   1.581   2.986   1.713 -0.5340  1.0048 -0.2522
 3934TIP3    H233362   1.545   2.921   1.581  0.8447 -0.5012  0.0842
 3935TIP3   OH233363   3.240   5.647   1.429  0.0376  0.9036 -0.2684
 3935TIP3    H133364   3.270   5.633   1.519 -0.4711 -1.2430 -0.3623
 3935TIP3    H233365   3.318   5.676   1.382  0.7574  0.2650  0.4986
 3936TIP3   OH233366   3.798   1.350   2.531 -0.0648  0.1326 -0.1595
 3936TIP3    H133367   3.743   1.274   2.514 -0.1245 -0.0548  0.7969
 3936TIP3    H233368   3.821   1.384   2.445 -2.7438  1.0048 -0.6025
 3937TIP3   OH233369   5.964   4.966   8.468 -0.5291  0.4560  0.8668
 3937TIP3    H133370   5.939   4.954   8.376 -1.7475  0.7316  1.1465
 3937TIP3    H233371   6.039   4.907   8.480 -2.0790 -1.7494  0.4169
 3938TIP3   OH233372   2.447   4.160   6.474 -0.4299  0.3875 -0.0204
 3938TIP3    H133373   2.487   4.235   6.429  0.8272 -0.1414  0.1812
 3938TIP3    H233374   2.361   4.193   6.503 -0.6006  1.2226 -1.3871
 3939TIP3   OH233375   0.452   3.670   2.052 -0.1658 -0.4557  0.7654
 3939TIP3    H133376   0.516   3.624   1.996 -1.5806  0.4886 -1.7893
 3939TIP3    H233377   0.408   3.599   2.100  0.5950 -1.3946  0.1337
 3940TIP3   OH233378   3.757   5.511   1.534  0.5969 -0.0208  0.4792
 3940TIP3    H133379   3.834   5.519   1.478 -0.2654 -1.4326 -0.9971
 3940TIP3    H233380   3.740   5.417   1.538  0.0002  0.1314  2.2737
 3941TIP3   OH233381   3.041   4.234   7.523  0.1188 -0.1805 -0.1309
 3941TIP3    H133382   3.131   4.224   7.492  0.3112 -2.7737  0.9682
 3941TIP3    H233383   2.986   4.209   7.449  0.3761 -0.3982 -0.2493
 3942TIP3   OH233384   6.690   4.919   6.498  0.2164  0.3605 -0.1858
 3942TIP3    H133385   6.596   4.904   6.509  0.1452  1.0361  0.1547
 3942TIP3    H233386   6.731   4.841   6.535 -0.2378 -0.5192 -1.4581
 3943TIP3   OH233387   0.551   4.287   2.215  0.0673 -0.4923 -0.0103
 3943TIP3    H133388   0.483   4.336   2.261  1.0651  1.5397 -0.5812
 3943TIP3    H233389   0.507   4.249   2.139 -0.6037  0.1102  0.0699
 3944TIP3   OH233390   6.266   0.049   8.416  0.3364 -0.4337  0.5677
 3944TIP3    H133391   6.258   0.140   8.445 -0.2292  0.5058 -2.2706
 3944TIP3    H233392   6.356   0.025   8.437  0.7559  1.0715  0.6015
 3945TIP3   OH233393   3.194   0.146   1.589 -0.2868 -0.1504  0.0052
 3945TIP3    H133394   3.190   0.237   1.619  0.3668  0.0082 -0.3681
 3945TIP3    H233395   3.210   0.095   1.669  1.5705  0.2801 -0.0500
 3946TIP3   OH233396   6.485   4.727   7.551  0.0258  0.8354 -0.5420
 3946TIP3    H133397   6.401   4.691   7.522  0.6930  0.9483 -2.7741
 3946TIP3    H233398   6.551   4.681   7.498  1.2678  1.7117  0.1815
 3947TIP3   OH233399   6.114   6.357   6.547  0.0363  0.2089 -0.2563
 3947TIP3    H133400   6.133   6.450   6.532  1.2221  0.3371  1.6210
 3947TIP3    H233401   6.029   6.343   6.507  0.1537  1.9195 -1.2264
 3948TIP3   OH233402   0.461   0.908   8.129  0.5217 -0.0570  0.4790
 3948TIP3    H133403   0.409   0.905   8.049 -0.0627 -0.0433  0.8536
 3948TIP3    H233404   0.513   0.828   8.127  0.9308  0.2212 -0.1920
 3949TIP3   OH233405   3.930   1.434   7.845 -0.4611 -0.1902 -0.2687
 3949TIP3    H133406   3.866   1.472   7.785 -1.7782 -0.3703  0.9542
 3949TIP3    H233407   3.975   1.509   7.884 -2.0416  0.1442  1.0543
 3950TIP3   OH233408   4.909   0.344   0.989 -0.2971  0.2506 -0.6945
 3950TIP3    H133409   4.910   0.396   0.909 -1.7041  2.6820  0.7363
 3950TIP3    H233410   4.840   0.384   1.042 -0.8751 -2.6084  0.8991
 3951TIP3   OH233411   5.109   6.314   0.352  0.2556 -0.0962  0.2017
 3951TIP3    H133412   5.170   6.364   0.298 -1.6814  0.7765 -1.3003
 3951TIP3    H233413   5.120   6.223   0.324  0.4950  0.1205 -0.4136
 3952TIP3   OH233414   0.612   5.867   1.474 -0.0006 -0.1069 -0.4689
 3952TIP3    H133415   0.692   5.837   1.516 -0.8841 -1.3128  0.4122
 3952TIP3    H233416   0.544   5.810   1.508 -0.9777 -0.2842 -2.5589
 3953TIP3   OH233417   2.940   4.107   6.917  0.1870  0.0369  0.1804
 3953TIP3    H133418   2.863   4.070   6.959 -0.4223  1.5361  0.4673
 3953TIP3    H233419   2.927   4.092   6.823  0.1001 -0.7005  0.3087
 3954TIP3   OH233420   0.201   4.284   2.087 -0.5166 -0.8027 -0.7394
 3954TIP3    H133421   0.222   4.260   2.178 -1.2116  1.1067 -0.0296
 3954TIP3    H233422   0.282   4.269   2.039 -0.1834 -2.0129  0.1422
 3955TIP3   OH233423   2.086   5.795   6.306 -0.3784 -0.0338  0.6963
 3955TIP3    H133424   2.047   5.873   6.347  0.5661  1.7912 -1.6666
 3955TIP3    H233425   2.087   5.815   6.212  1.2822 -2.2700  0.1566
 3956TIP3   OH233426   0.030   5.006   2.594  0.7424 -0.0645  0.5283
 3956TIP3    H133427   0.119   4.980   2.572 -0.2181 -2.0997 -1.2890
 3956TIP3    H233428  -0.020   4.925   2.593 -1.1705  1.0397  1.3791
 3957TIP3   OH233429   3.932   4.438   1.423  0.7662  0.3229  0.1564
 3957TIP3    H133430   4.021   4.427   1.455  0.6086  0.8106  0.8021
 3957TIP3    H233431   3.877   4.422   1.500  0.2707 -0.3796 -0.3280
 3958TIP3   OH233432   1.139   2.356   1.647  0.2542 -0.2806  0.4618
 3958TIP3    H133433   1.055   2.366   1.601  2.2236 -0.6758 -3.7151
 3958TIP3    H233434   1.174   2.444   1.653  0.3316 -0.3145  0.5124
 3959TIP3   OH233435   4.192   4.892   6.258 -0.3280  0.5921  0.4840
 3959TIP3    H133436   4.182   4.972   6.207  1.6025  0.6002  0.0681
 3959TIP3    H233437   4.173   4.822   6.197 -0.8378  0.6810  0.5334
 3960TIP3   OH233438   3.257   2.927   7.651  1.1482 -0.1576  0.1096
 3960TIP3    H133439   3.168   2.939   7.615  1.5269 -1.8920 -1.5522
 3960TIP3    H233440   3.267   3.000   7.712 -0.9342  0.8546 -0.6263
 3961TIP3   OH233441   1.311   5.630   8.145  0.1345 -0.1445 -0.4458
 3961TIP3    H133442   1.395   5.667   8.117  0.0803 -0.7967 -1.5419
 3961TIP3    H233443   1.255   5.706   8.158  1.0146  0.3279  0.7747
 3962TIP3   OH233444   3.808   2.522   8.039 -0.4666 -1.2612  0.0594
 3962TIP3    H133445   3.889   2.560   8.071 -0.7300 -0.8219  0.2203
 3962TIP3    H233446   3.768   2.591   7.987  0.4742 -2.3194 -2.1734
 3963TIP3   OH233447   6.518   5.401   1.428 -0.1828  0.5183  0.1585
 3963TIP3    H133448   6.501   5.423   1.519 -1.5965 -0.4178  0.1518
 3963TIP3    H233449   6.445   5.438   1.379  0.3800  0.7130 -0.5589
 3964TIP3   OH233450   2.046   1.739   8.229 -0.0630  0.0813 -0.4175
 3964TIP3    H133451   1.956   1.767   8.213  0.1142 -0.0719 -1.7966
 3964TIP3    H233452   2.067   1.682   8.156  0.4447 -1.6657  1.0092
 3965TIP3   OH233453   0.559   6.729   2.834 -0.2025  0.1667 -0.2544
 3965TIP3    H133454   0.600   6.757   2.752 -0.2412 -0.9083 -0.6665
 3965TIP3    H233455   0.623   6.671   2.874 -0.1471  0.7591  0.5332
 3966TIP3   OH233456   5.153   5.242   8.389  0.5855  0.5806  1.1476
 3966TIP3    H133457   5.072   5.196   8.410  0.6236  0.2453  0.5850
 3966TIP3    H233458   5.200   5.182   8.331  0.1471  1.7605 -0.5010
 3967TIP3   OH233459   4.914   2.362   0.926 -0.4361 -0.0756 -0.4271
 3967TIP3    H133460   4.883   2.276   0.900  1.0616 -0.4451 -1.0823
 3967TIP3    H233461   4.996   2.374   0.878  1.1711  0.2668  2.1826
 3968TIP3   OH233462   4.367   4.971   8.517 -0.2959 -0.3710  0.0005
 3968TIP3    H133463   4.420   5.043   8.483  0.0822 -1.0102 -0.8048
 3968TIP3    H233464   4.280   4.986   8.481  0.2091 -1.2923 -1.6707
 3969TIP3   OH233465   6.746   5.808   1.453  0.2280 -0.7321 -0.1134
 3969TIP3    H133466   6.749   5.863   1.375  1.3869 -0.2245  0.2775
 3969TIP3    H233467   6.836   5.804   1.484 -0.5614  1.6266  2.9483
 3970TIP3   OH233468   4.970   2.392   7.562  0.0860 -0.1697  0.0476
 3970TIP3    H133469   4.991   2.416   7.652  0.6158  1.1427 -0.3936
 3970TIP3    H233470   5.046   2.343   7.532 -1.2226 -3.1078  1.1239
 3971TIP3   OH233471   1.680   4.659   7.783  0.4208 -0.0568 -0.0773
 3971TIP3    H133472   1.738   4.640   7.857  3.0585  0.3555 -1.8891
 3971TIP3    H233473   1.727   4.725   7.732 -2.2256  1.1802 -1.1124
 3972TIP3   OH233474   5.234   5.382   6.986 -0.2739 -0.2370  0.5597
 3972TIP3    H133475   5.148   5.341   6.988  0.9721 -3.2593 -1.1101
 3972TIP3    H233476   5.275   5.358   7.070 -0.9512  1.1444  1.3235
 3973TIP3   OH233477   1.567   0.116   8.712  0.1336 -0.1720  0.2558
 3973TIP3    H133478   1.653   0.151   8.691 -0.0060  0.2082  0.2962
 3973TIP3    H233479   1.554   0.045   8.650 -0.1109  0.6891 -0.7137
 3974TIP3   OH233480   6.442   3.885   0.354 -0.1338 -0.2070 -0.1192
 3974TIP3    H133481   6.411   3.830   0.426  0.1863 -1.3606 -0.8349
 3974TIP3    H233482   6.492   3.826   0.298  0.0865  0.7865 -1.0135
 3975TIP3   OH233483   3.777   4.072   6.476  0.0053 -0.0140 -0.3528
 3975TIP3    H133484   3.802   4.164   6.472  0.4022 -0.1410 -0.9550
 3975TIP3    H233485   3.688   4.072   6.512  0.2794  0.5491  0.3220
 3976TIP3   OH233486   4.800   2.999   8.560 -0.1484  0.0041 -0.0221
 3976TIP3    H133487   4.892   3.011   8.536 -0.2018 -0.0270 -0.2449
 3976TIP3    H233488   4.754   2.995   8.476 -0.7628  3.0351  0.0388
 3977TIP3   OH233489   6.516   1.672   8.028  0.0980 -0.3674  1.3638
 3977TIP3    H133490   6.481   1.627   8.105  0.4505 -3.0936  0.0464
 3977TIP3    H233491   6.509   1.608   7.957  1.0794  1.5415 -0.5841
 3978TIP3   OH233492   0.381   5.708   1.139  0.7368 -0.4249  0.4062
 3978TIP3    H133493   0.477   5.713   1.133  0.7286 -1.9559 -1.8532
 3978TIP3    H233494   0.358   5.626   1.097 -1.5690 -0.4076  1.4953
 3979TIP3   OH233495   5.345   2.364   8.320  0.5381  0.0673  0.5525
 3979TIP3    H133496   5.438   2.387   8.321  0.3824  0.7832 -0.2680
 3979TIP3    H233497   5.325   2.348   8.228 -0.0567 -0.5102  0.7740
 3980TIP3   OH233498   5.044   4.323   6.976 -0.1644  0.2170 -0.2524
 3980TIP3    H133499   4.951   4.327   6.955  0.3151  0.8144 -2.5390
 3980TIP3    H233500   5.073   4.238   6.941  0.5372  0.9453 -1.5010
 3981TIP3   OH233501   0.562   0.906   1.984 -0.5801  0.7316  0.6751
 3981TIP3    H133502   0.554   0.897   1.889 -0.0120 -0.6490  0.7305
 3981TIP3    H233503   0.472   0.907   2.016 -0.7810 -0.6862  0.2460
 3982TIP3   OH233504   5.515   4.568   8.099 -0.5281 -0.5854  0.1997
 3982TIP3    H133505   5.510   4.637   8.166  3.9431 -0.6437  0.9284
 3982TIP3    H233506   5.538   4.489   8.149 -0.9954 -1.5541 -1.0735
 3983TIP3   OH233507   1.326   0.923   0.562 -0.5280 -0.7285  0.3807
 3983TIP3    H133508   1.375   1.003   0.581 -0.9095 -0.5554  0.6423
 3983TIP3    H233509   1.337   0.868   0.639 -0.6998 -0.7126  0.4169
 3984TIP3   OH233510   0.017   3.229   8.035 -0.4333 -0.2503  0.3516
 3984TIP3    H133511   0.106   3.251   8.006 -0.4474  0.7946  1.0505
 3984TIP3    H233512  -0.031   3.312   8.032 -0.5296 -0.1241  2.9224
 3985TIP3   OH233513   6.244   2.977   7.015  0.0417  0.4574  0.1030
 3985TIP3    H133514   6.224   2.957   6.923  1.8109 -2.7383  0.2793
 3985TIP3    H233515   6.335   3.003   7.015  0.5643 -1.1860  1.0574
 3986TIP3   OH233516   2.764   6.538   0.981 -0.1807  0.3170 -0.0984
 3986TIP3    H133517   2.835   6.562   0.922 -2.3101 -0.5406 -3.2746
 3986TIP3    H233518   2.764   6.442   0.981 -0.0431  0.2990  1.5972
 3987TIP3   OH233519   2.478   2.910   8.070 -0.0995  0.0672  0.1320
 3987TIP3    H133520   2.435   2.847   8.129 -0.8304 -1.1500 -1.6255
 3987TIP3    H233521   2.549   2.946   8.123  0.0899 -1.9283  1.3747
 3988TIP3   OH233522   2.683   5.667   0.325 -0.1533  0.2884 -0.4662
 3988TIP3    H133523   2.629   5.724   0.379  0.9992  0.5368  0.4786
 3988TIP3    H233524   2.711   5.722   0.252  1.5228  1.2352  0.7960
 3989TIP3   OH233525   2.855   2.707   7.292 -0.1493  0.0935 -0.0245
 3989TIP3    H133526   2.807   2.654   7.356 -1.0173 -0.3871 -1.0468
 3989TIP3    H233527   2.812   2.793   7.295 -0.0186  0.1516  0.2193
 3990TIP3   OH233528   2.360   2.691   0.372 -0.2455 -0.2178 -0.2912
 3990TIP3    H133529   2.314   2.751   0.314 -3.6514 -0.9945  1.3366
 3990TIP3    H233530   2.391   2.621   0.315  0.9917  1.4468 -1.7637
 3991TIP3   OH233531   0.748   6.350   8.280  0.0188 -0.5609 -0.0873
 3991TIP3    H133532   0.762   6.397   8.198 -2.1153 -1.0078 -0.7720
 3991TIP3    H233533   0.759   6.416   8.348 -0.5340  0.3741 -0.8836
 3992TIP3   OH233534   0.880   3.215   6.845  0.6201 -0.2202  0.4259
 3992TIP3    H133535   0.956   3.213   6.787 -0.6327 -3.1170 -1.3467
 3992TIP3    H233536   0.898   3.148   6.911 -0.0699 -0.4519  0.3937
 3993TIP3   OH233537   0.153   0.386   6.765 -0.4394  0.0560 -0.0000
 3993TIP3    H133538   0.116   0.471   6.744  1.4648  1.0223  0.3516
 3993TIP3    H233539   0.216   0.369   6.695  0.2707 -0.3556  0.7250
 3994TIP3   OH233540   0.077   6.305   7.583 -0.1479 -0.1964  0.2596
 3994TIP3    H133541   0.007   6.343   7.530  0.9595  1.8002  0.0903
 3994TIP3    H233542   0.156   6.319   7.531  0.5891 -0.9473  1.1346
 3995TIP3   OH233543   6.567   5.651   7.752 -0.2152 -0.4375  0.3178
 3995TIP3    H133544   6.559   5.614   7.840  0.2122 -0.3485  0.3966
 3995TIP3    H233545   6.607   5.581   7.701  1.4078  0.1849  0.6684
 3996TIP3   OH233546   4.360   0.883   7.409  0.4017 -0.2919  0.2513
 3996TIP3    H133547   4.351   0.790   7.430  0.6114 -0.1159  1.1564
 3996TIP3    H233548   4.397   0.884   7.321 -0.1686 -1.0559 -0.0122
 3997TIP3   OH233549   3.635   4.023   0.658  0.1045  0.6983  0.3634
 3997TIP3    H133550   3.649   4.009   0.752 -0.0252 -1.1872  0.1275
 3997TIP3    H233551   3.713   3.986   0.617 -1.0306 -0.9410 -0.3965
 3998TIP3   OH233552   5.363   3.635   6.544  0.3428 -0.3818  0.0124
 3998TIP3    H133553   5.455   3.649   6.524  0.3286 -0.9909 -0.4872
 3998TIP3    H233554   5.333   3.719   6.580  1.1404 -0.2508  0.3904
 3999TIP3   OH233555   0.499   4.321   7.556 -0.0594  0.4280 -0.0154
 3999TIP3    H133556   0.442   4.396   7.571 -0.3835  0.3319 -0.7297
 3999TIP3    H233557   0.583   4.347   7.596 -0.3885  0.8517  0.4186
 4000TIP3   OH233558   4.767   5.854   8.333 -0.1948 -0.6155 -0.2568
 4000TIP3    H133559   4.812   5.928   8.373 -0.3767  0.1052 -1.3275
 4000TIP3    H233560   4.676   5.862   8.362 -0.9703  1.5283 -2.8660
 4001TIP3   OH233561   2.403   2.880   6.833 -0.5059 -0.1411 -0.4934
 4001TIP3    H133562   2.440   2.842   6.753  2.2656 -0.1345  0.6845
 4001TIP3    H233563   2.451   2.962   6.845 -0.9776 -0.0618  1.1101
 4002TIP3   OH233564   2.320   2.438   8.661 -0.0748  0.3507  0.2837
 4002TIP3    H133565   2.252   2.464   8.599 -0.8254 -0.3643  0.7808
 4002TIP3    H233566   2.385   2.391   8.608 -1.6216 -1.9315  0.2575
 4003TIP3   OH233567   4.792   2.276   8.348 -0.1433 -0.1499 -0.2256
 4003TIP3    H133568   4.731   2.206   8.326  0.0737 -0.4270  0.0335
 4003TIP3    H233569   4.778   2.343   8.282  1.3914 -1.4785 -2.0200
 4004TIP3   OH233570   6.240   6.621   1.483 -0.1484  0.3720  0.4970
 4004TIP3    H133571   6.179   6.554   1.514  0.6817 -0.6412  0.0250
 4004TIP3    H233572   6.184   6.694   1.456 -1.2565 -0.9203 -0.9075
 4005TIP3   OH233573   0.516   4.910   7.261  0.0524 -0.5038 -0.5111
 4005TIP3    H133574   0.554   4.996   7.280 -0.2622 -0.2671 -0.9150
 4005TIP3    H233575   0.572   4.848   7.307 -0.0429 -0.0406  0.2528
 4006TIP3   OH233576   4.795   0.280   1.300 -0.2368  0.1738 -0.4851
 4006TIP3    H133577   4.754   0.341   1.239  0.5845  0.3739 -0.8467
 4006TIP3    H233578   4.830   0.211   1.245  0.3986  0.2898 -0.2352
 4007TIP3   OH233579   4.022   2.697   8.138  0.0302 -0.2092 -0.4081
 4007TIP3    H133580   4.014   2.787   8.104  1.9071  0.1371 -0.0690
 4007TIP3    H233581   4.078   2.653   8.074  0.2048 -0.7403  0.1039
 4008TIP3   OH233582   5.072   0.599   1.907  0.1403 -0.4260 -0.4003
 4008TIP3    H133583   5.090   0.505   1.910 -1.6766 -0.7844  2.3418
 4008TIP3    H233584   5.034   0.619   1.992  1.0244  2.9632 -0.6600
 4009TIP3   OH233585   0.592   3.803   7.414 -0.1329 -0.0254 -0.4516
 4009TIP3    H133586   0.497   3.815   7.408 -0.0633  0.4414 -0.6761
 4009TIP3    H233587   0.613   3.824   7.505 -0.2947 -0.5089 -0.3005
 4010TIP3   OH233588   4.811   3.405   0.859  0.0262  0.4387  0.0161
 4010TIP3    H133589   4.815   3.361   0.943  2.0965  0.4619 -0.0355
 4010TIP3    H233590   4.772   3.341   0.800 -1.6572  0.4984  0.9800
 4011TIP3   OH233591   2.710   2.716   2.133 -0.6583 -0.6097  0.2379
 4011TIP3    H133592   2.691   2.653   2.203  0.4471 -0.9631  0.2483
 4011TIP3    H233593   2.785   2.677   2.086  1.3293  1.5521  1.3993
 4012TIP3   OH233594   0.056   6.531   8.080  0.2491 -0.1001  0.1269
 4012TIP3    H133595   0.091   6.465   8.020  0.7313 -0.0338  0.3236
 4012TIP3    H233596   0.133   6.584   8.103 -0.0833  0.3595  0.1790
 4013TIP3   OH233597   4.147   1.181   8.183 -0.0768 -0.3868 -0.1256
 4013TIP3    H133598   4.100   1.098   8.189  2.4420 -1.8801  0.3451
 4013TIP3    H233599   4.173   1.200   8.273 -0.9210  1.1767 -0.1636
 4014TIP3   OH233600   5.545   3.494   8.021 -0.4250  0.1510  0.6149
 4014TIP3    H133601   5.570   3.404   8.000  1.5843  0.8122 -0.0454
 4014TIP3    H233602   5.455   3.502   7.989 -0.1266 -1.1907 -0.6531
 4015TIP3   OH233603   0.980   0.713   8.339  0.6163 -0.1232  0.6165
 4015TIP3    H133604   0.902   0.660   8.322  1.2168 -0.6201 -0.7742
 4015TIP3    H233605   1.049   0.649   8.356  1.4895  0.1345 -1.6808
 4016TIP3   OH233606   2.484   0.189   8.307  0.6577  0.0707 -0.3098
 4016TIP3    H133607   2.461   0.107   8.350 -0.1731  0.2954 -0.3144
 4016TIP3    H233608   2.573   0.175   8.275  0.8508 -0.5188  0.4532
 4017TIP3   OH233609   1.875   5.512   7.212 -0.3014  0.0754 -0.7733
 4017TIP3    H133610   1.815   5.577   7.177 -1.5841 -1.2459 -1.1265
 4017TIP3    H233611   1.910   5.468   7.134  1.3958  1.0097 -0.5898
 4018TIP3   OH233612   4.346   0.536   0.664  0.3542  1.0884 -0.4686
 4018TIP3    H133613   4.337   0.623   0.625 -1.1906  1.5894  0.8774
 4018TIP3    H233614   4.256   0.508   0.680  0.8812  0.1955  1.1387
 4019TIP3   OH233615   2.423   0.429   2.578 -0.6124  0.0360  0.9608
 4019TIP3    H133616   2.394   0.520   2.588  1.8155  1.1995 -1.3556
 4019TIP3    H233617   2.518   0.435   2.568 -0.3046 -2.8380  1.1585
 4020TIP3   OH233618   2.103   4.182   0.866  0.3722 -0.1052  0.2567
 4020TIP3    H133619   2.111   4.199   0.960 -0.2093 -0.5528  0.3948
 4020TIP3    H233620   2.010   4.163   0.852  0.2323  1.1142 -0.6177
 4021TIP3   OH233621   2.281   4.734   8.518 -0.2175 -0.0204  0.2394
 4021TIP3    H133622   2.310   4.744   8.609 -0.5876  0.2762  0.3288
 4021TIP3    H233623   2.357   4.757   8.465  0.1952 -0.7972  0.4736
 4022TIP3   OH233624   2.368   5.721   6.580 -0.0454  0.5199 -0.3454
 4022TIP3    H133625   2.438   5.768   6.626  0.4633 -1.7142  1.3358
 4022TIP3    H233626   2.288   5.769   6.602  0.4857  0.8176  1.0504
 4023TIP3   OH233627   2.225   2.542   6.531 -0.4811 -0.5854  0.4576
 4023TIP3    H133628   2.320   2.548   6.521 -0.2742 -0.4380  2.1530
 4023TIP3    H233629   2.190   2.606   6.470  0.4997 -0.7739 -0.3168
 4024TIP3   OH233630   1.387   6.063   1.180  0.4496  0.2958 -0.5164
 4024TIP3    H133631   1.446   6.138   1.185  0.6468  0.0948  0.2003
 4024TIP3    H233632   1.361   6.059   1.088  0.5646  1.1428 -0.5862
 4025TIP3   OH233633   3.763   0.945   8.266 -0.2573  0.2295 -0.1189
 4025TIP3    H133634   3.726   0.922   8.181 -0.4609  0.2216 -0.0281
 4025TIP3    H233635   3.751   1.040   8.273 -0.5900  0.1737  0.0684
 4026TIP3   OH233636   0.401   0.788   8.477  0.3227 -0.4053 -0.4772
 4026TIP3    H133637   0.486   0.780   8.434  0.7947 -2.0158  0.6790
 4026TIP3    H233638   0.406   0.730   8.553 -1.6548 -0.1982 -0.1234
 4027TIP3   OH233639   1.695   4.090   1.869 -0.1742 -0.1895  0.1297
 4027TIP3    H133640   1.743   4.119   1.791  0.4079  0.6644  0.7862
 4027TIP3    H233641   1.604   4.087   1.841  0.0784 -0.3445 -0.7100
 4028TIP3   OH233642   6.400   3.351   0.860  0.1968 -0.0400 -0.3195
 4028TIP3    H133643   6.404   3.260   0.831 -1.3891  0.5580 -2.6583
 4028TIP3    H233644   6.316   3.357   0.906  0.3456  0.2404 -0.0795
 4029TIP3   OH233645   1.263   2.463   7.355  0.0597 -0.4419 -0.2546
 4029TIP3    H133646   1.193   2.407   7.389 -0.8028 -1.0141 -2.7400
 4029TIP3    H233647   1.341   2.435   7.402 -1.0304 -1.1038  1.2351
 4030TIP3   OH233648   0.752   4.029   7.921  0.0077  0.0702  0.2165
 4030TIP3    H133649   0.799   4.100   7.878 -0.5860 -0.9890 -2.3808
 4030TIP3    H233650   0.813   3.955   7.921 -0.7585 -0.5916 -0.9158
 4031TIP3   OH233651   0.049   2.220   2.220  0.2971 -0.2193 -0.0483
 4031TIP3    H133652   0.025   2.284   2.287  0.2476  0.4921 -0.7370
 4031TIP3    H233653   0.100   2.154   2.267 -0.0075  0.1027  0.7503
 4032TIP3   OH233654   6.776   5.160   7.275 -0.3704  0.0235 -0.8079
 4032TIP3    H133655   6.696   5.111   7.297 -0.2663 -0.4922 -1.5256
 4032TIP3    H233656   6.761   5.191   7.186  1.0746 -1.9593 -1.8372
 4033TIP3   OH233657   4.253   2.238   0.738  0.0533  0.1730 -0.2654
 4033TIP3    H133658   4.254   2.332   0.720  0.9817  0.1043 -0.5879
 4033TIP3    H233659   4.315   2.200   0.675  0.5524 -0.5121  0.6182
 4034TIP3   OH233660   4.525   2.832   7.973  0.1024 -0.5996  0.0586
 4034TIP3    H133661   4.587   2.905   7.965 -0.3937 -0.3219 -1.5206
 4034TIP3    H233662   4.461   2.847   7.904 -2.7447  0.0387  2.6124
 4035TIP3   OH233663   0.640   0.698   7.297  0.0235 -0.0541 -0.0712
 4035TIP3    H133664   0.698   0.774   7.294 -0.0905  0.1196  1.3578
 4035TIP3    H233665   0.699   0.623   7.306  0.1027 -0.0857 -0.7723
 4036TIP3   OH233666   3.576   1.684   7.212  0.3901 -0.0968 -0.9391
 4036TIP3    H133667   3.549   1.771   7.242  0.3940 -0.6995  0.9337
 4036TIP3    H233668   3.505   1.655   7.155 -0.2682  0.5808 -0.4890
 4037TIP3   OH233669   2.792   1.489   8.416 -0.0057  0.2600  0.4019
 4037TIP3    H133670   2.750   1.472   8.331  1.1444 -3.1216  0.3382
 4037TIP3    H233671   2.886   1.489   8.397  0.2392  0.7367  1.5188
 4038TIP3   OH233672   2.627   6.429   8.539 -0.0566  0.1183  0.1475
 4038TIP3    H133673   2.693   6.366   8.511 -0.1737 -0.4056  1.0295
 4038TIP3    H233674   2.572   6.381   8.601 -1.7831  0.2744 -1.1666
 4039TIP3   OH233675   6.246   0.097   0.083  0.6769  0.4710  0.2161
 4039TIP3    H133676   6.196   0.120   0.005 -0.4634 -0.9324  0.4798
 4039TIP3    H233677   6.304   0.172   0.098  1.5021  0.4470 -2.4039
 4040TIP3   OH233678   2.332   1.043   8.354 -0.5645 -0.3668 -0.5409
 4040TIP3    H133679   2.265   1.098   8.314 -0.8645  0.1620  0.6337
 4040TIP3    H233680   2.412   1.095   8.350 -0.9532  0.4277  1.0243
 4041TIP3   OH233681   3.485   2.898   7.506  0.0138 -0.1188  0.6081
 4041TIP3    H133682   3.394   2.902   7.538 -0.9694 -1.2819 -1.8165
 4041TIP3    H233683   3.519   2.815   7.540 -1.3475 -1.8306 -1.8942
 4042TIP3   OH233684   3.637   4.137   1.885  0.1234  0.0458  0.0829
 4042TIP3    H133685   3.655   4.214   1.832 -0.4320 -0.2500 -0.5523
 4042TIP3    H233686   3.621   4.171   1.973 -0.0549  0.6456 -0.1785
 4043TIP3   OH233687   3.872   6.577   6.807 -0.2445  0.1420 -0.6680
 4043TIP3    H133688   3.866   6.671   6.789  1.2341  0.5933  0.9442
 4043TIP3    H233689   3.853   6.569   6.901  3.1697 -0.6633  0.0924
 4044TIP3   OH233690   5.160   3.526   8.514  0.2303 -0.6463 -0.0257
 4044TIP3    H133691   5.212   3.446   8.519  2.1986  0.6269  2.3305
 4044TIP3    H233692   5.084   3.510   8.569  1.3576 -0.4969  1.6672
 4045TIP3   OH233693   3.064   2.145   8.479  0.2697  0.3119 -0.2445
 4045TIP3    H133694   3.025   2.097   8.406 -2.7616  1.1735  0.6705
 4045TIP3    H233695   3.119   2.212   8.437 -0.4277  0.0281 -1.6779
 4046TIP3   OH233696   1.992   2.801   7.344  0.2062  0.3436 -0.5456
 4046TIP3    H133697   2.032   2.719   7.374  1.0957  1.1081  0.4566
 4046TIP3    H233698   2.064   2.846   7.299 -0.1652  0.7476 -0.7329
 4047TIP3   OH233699   5.182   2.040   8.364  0.3495  0.2234 -0.6599
 4047TIP3    H133700   5.164   2.015   8.455  0.5472 -1.8635 -1.1373
 4047TIP3    H233701   5.256   2.100   8.370  1.2591 -0.9520  0.5040
 4048TIP3   OH233702   6.545   4.647   1.453 -0.0373 -0.0020 -0.1844
 4048TIP3    H133703   6.550   4.585   1.381  0.2670 -1.2704  0.8922
 4048TIP3    H233704   6.610   4.714   1.432 -0.2016 -0.1612 -1.2444
 4049TIP3   OH233705   3.936   3.203   7.940 -0.0003 -0.1223 -0.1764
 4049TIP3    H133706   3.956   3.109   7.937  0.0240 -0.1125 -0.3889
 4049TIP3    H233707   3.842   3.208   7.921  0.6002  0.0955 -3.9627
 4050TIP3   OH233708   5.152   0.475   1.064 -0.2244 -0.1436  0.5246
 4050TIP3    H133709   5.076   0.420   1.044 -0.4495 -0.7376  2.7352
 4050TIP3    H233710   5.116   0.551   1.108  0.3398  0.3200  0.1955
 4051TIP3   OH233711   3.315   2.784   8.152  0.2416  0.0368 -0.6287
 4051TIP3    H133712   3.251   2.786   8.081  1.1047  2.0959 -1.4227
 4051TIP3    H233713   3.311   2.871   8.191  2.0238 -0.0204 -0.2127
 4052TIP3   OH233714   3.301   4.435   0.338  0.3852  0.7185  0.1322
 4052TIP3    H133715   3.369   4.371   0.360 -0.5466  0.3272  2.1676
 4052TIP3    H233716   3.240   4.387   0.283  0.4275  0.2758  0.4639
 4053TIP3   OH233717   2.452   0.223   0.235 -0.0329 -1.1654  0.1314
 4053TIP3    H133718   2.398   0.271   0.299  0.8180 -0.0602  0.0636
 4053TIP3    H233719   2.436   0.131   0.254 -2.9726 -0.9341 -0.7565
 4054TIP3   OH233720   4.634   5.485   2.155  0.0616 -0.8523  0.3481
 4054TIP3    H133721   4.614   5.578   2.156  0.6561 -0.5465 -3.0907
 4054TIP3    H233722   4.635   5.461   2.062  0.3821 -4.2038  1.0598
 4055TIP3   OH233723   3.654   0.759   8.686  0.0658  0.4375  0.1406
 4055TIP3    H133724   3.565   0.763   8.720 -0.1921  1.9523 -0.6291
 4055TIP3    H233725   3.643   0.752   8.591  0.7224  2.1765 -0.1013
 4056TIP3   OH233726   1.758   6.089   6.944 -0.1150  0.1438 -0.4518
 4056TIP3    H133727   1.690   6.152   6.968  0.0709 -0.9938  4.1006
 4056TIP3    H233728   1.840   6.134   6.961  0.0201 -0.9253  2.2916
 4057TIP3   OH233729   2.700   6.032   0.863 -0.1742  0.0072 -0.2471
 4057TIP3    H133730   2.710   6.099   0.796  1.2626  0.0692 -0.0183
 4057TIP3    H233731   2.694   5.950   0.815  1.4983 -0.0140 -0.4800
 4058TIP3   OH233732   1.819   1.525   1.038  0.0289  0.6766 -0.1435
 4058TIP3    H133733   1.773   1.471   1.102  1.9278 -1.7626 -0.6730
 4058TIP3    H233734   1.829   1.610   1.081 -1.9340  0.2721  1.2745
 4059TIP3   OH233735   2.792   2.459   0.607  0.1183  0.0503 -0.1984
 4059TIP3    H133736   2.788   2.426   0.517  0.6618 -2.2262  0.5446
 4059TIP3    H233737   2.728   2.406   0.654  0.2500  0.8234  0.8879
 4060TIP3   OH233738   2.036   3.055   6.578 -0.0424 -0.3263 -0.0227
 4060TIP3    H133739   1.947   3.092   6.584  0.8262  2.0175 -0.6398
 4060TIP3    H233740   2.023   2.969   6.538 -2.0749 -0.2836  0.4213
 4061TIP3   OH233741   4.643   4.902   2.399 -0.0083  0.3218 -0.0436
 4061TIP3    H133742   4.553   4.936   2.395  0.0438  0.6785  1.3376
 4061TIP3    H233743   4.698   4.977   2.376  0.0646  1.0591  2.2531
 4062TIP3   OH233744   6.809   6.327   7.245 -0.5231  0.3963  0.1289
 4062TIP3    H133745   6.751   6.268   7.293 -1.7797 -0.5379 -2.3489
 4062TIP3    H233746   6.863   6.269   7.192 -0.3236  1.3968 -0.7897
 4063TIP3   OH233747   2.687   6.503   7.511  0.6762  0.7967 -0.4491
 4063TIP3    H133748   2.694   6.597   7.530  0.0038  0.7830 -0.0963
 4063TIP3    H233749   2.595   6.482   7.528  1.2868 -0.4098  1.7690
 4064TIP3   OH233750   1.777   1.658   0.317  0.2812 -0.0290 -0.3380
 4064TIP3    H133751   1.734   1.725   0.264 -1.0391 -0.2345  0.4341
 4064TIP3    H233752   1.865   1.650   0.279  0.7000  2.5327 -0.0787
 4065TIP3   OH233753   1.823   5.842   7.812  0.6278  0.3521 -0.4419
 4065TIP3    H133754   1.828   5.817   7.904  0.4396  0.6318 -0.3545
 4065TIP3    H233755   1.817   5.759   7.765 -0.1850  0.2311 -0.1431
 4066TIP3   OH233756   0.492   1.754   0.519  0.0311  0.8083 -0.1285
 4066TIP3    H133757   0.406   1.771   0.557  0.2163  0.4145  0.4698
 4066TIP3    H233758   0.473   1.701   0.441 -0.2576  0.6238  0.0655
 4067TIP3   OH233759   4.340   6.732   7.606 -0.0403 -0.5740 -0.0451
 4067TIP3    H133760   4.352   6.780   7.524  1.6793  0.5828  0.8211
 4067TIP3    H233761   4.276   6.784   7.655 -0.8932 -1.1424 -0.5259
 4068TIP3   OH233762   4.907   0.373   7.870 -0.2474  0.3699  0.4733
 4068TIP3    H133763   4.984   0.415   7.832 -0.7002  0.8489  0.0710
 4068TIP3    H233764   4.938   0.286   7.896  0.2902  0.3567 -0.1821
 4069TIP3   OH233765   5.047   4.502   7.290 -0.1454  0.8271 -0.0404
 4069TIP3    H133766   5.035   4.594   7.264  0.1551  1.0374  0.5627
 4069TIP3    H233767   5.139   4.484   7.273 -0.1886  0.6565 -0.0927
 4070TIP3   OH233768   0.391   3.333   7.721  0.2987 -0.1784  0.5687
 4070TIP3    H133769   0.360   3.312   7.633 -0.3309  0.1518  0.7030
 4070TIP3    H233770   0.483   3.355   7.709  0.1638  0.0864 -0.0469
 4071TIP3   OH233771   5.013   3.103   8.082 -0.2652 -0.4615  0.6505
 4071TIP3    H133772   5.094   3.116   8.034 -1.8856  1.9376 -1.6934
 4071TIP3    H233773   4.967   3.034   8.034 -1.2171  0.8677 -0.4259
 4072TIP3   OH233774   1.225   1.751   0.922  1.2592 -0.0433  0.6756
 4072TIP3    H133775   1.311   1.710   0.922  1.1090 -0.3791  1.6904
 4072TIP3    H233776   1.178   1.709   0.850  2.1011  0.5266 -0.2449
 4073TIP3   OH233777   5.782   1.811   7.384  0.6530  0.0940  0.1877
 4073TIP3    H133778   5.820   1.842   7.467 -0.0055  2.1988 -0.2333
 4073TIP3    H233779   5.840   1.847   7.317  0.0086  0.1739 -0.3308
 4074TIP3   OH233780   0.013   5.481   1.780 -0.0501 -0.1276 -0.0660
 4074TIP3    H133781   0.014   5.421   1.706  0.7747 -0.1915 -0.0092
 4074TIP3    H233782  -0.045   5.440   1.844 -1.9648  0.6251 -1.2265
 4075TIP3   OH233783   4.848   0.167   0.453  0.2974  0.4608 -0.1916
 4075TIP3    H133784   4.766   0.118   0.455  0.9839 -0.7169  0.0130
 4075TIP3    H233785   4.821   0.258   0.442 -1.0511  0.1393  0.2527
 4076TIP3   OH233786   2.643   5.459   7.559 -0.2696  0.3742  0.3849
 4076TIP3    H133787   2.606   5.503   7.483 -0.7770 -1.0412 -0.2248
 4076TIP3    H233788   2.568   5.445   7.617 -0.8667 -2.7195 -0.9569
 4077TIP3   OH233789   5.102   3.100   1.773  0.0480  0.2280  0.3634
 4077TIP3    H133790   5.126   3.180   1.819  2.3790 -0.7627  1.0484
 4077TIP3    H233791   5.128   3.029   1.832 -3.5910 -1.1130  0.5745
 4078TIP3   OH233792   5.128   4.441   6.610 -0.2139 -0.1857 -0.1690
 4078TIP3    H133793   5.036   4.417   6.597 -0.4822  0.7227 -0.0295
 4078TIP3    H233794   5.163   4.453   6.522  0.0126 -1.3748 -0.2525
 4079TIP3   OH233795   2.592   6.248   6.551  0.0407 -0.2560 -0.0671
 4079TIP3    H133796   2.496   6.240   6.558 -0.0226 -0.4928 -1.0764
 4079TIP3    H233797   2.626   6.184   6.613 -0.4527 -0.0911  0.3877
 4080TIP3   OH233798   4.393   5.976   7.709 -0.4454  0.3720 -0.0234
 4080TIP3    H133799   4.467   6.021   7.751  1.3544  1.9004 -4.3303
 4080TIP3    H233800   4.316   6.025   7.739  0.6610  1.3402  1.4233
 4081TIP3   OH233801   3.662   4.071   7.901  0.2122 -0.0975 -0.3897
 4081TIP3    H133802   3.678   4.165   7.892 -0.3725  0.0607  0.1429
 4081TIP3    H233803   3.629   4.061   7.991  2.5408 -1.1343  0.4135
 4082TIP3   OH233804   4.277   5.912   0.968 -0.1907 -0.3693 -0.1075
 4082TIP3    H133805   4.323   5.982   0.923  0.5371 -0.0617  1.0742
 4082TIP3    H233806   4.184   5.931   0.953  0.0191 -0.5557 -1.8423
 4083TIP3   OH233807   4.040   2.072   0.829  0.4055  0.5353 -0.2159
 4083TIP3    H133808   4.022   2.122   0.909  0.9846  0.0725  0.2086
 4083TIP3    H233809   4.123   2.108   0.797  0.9327 -0.2877  0.2051
 4084TIP3   OH233810   4.517   5.709   7.663  0.1028  0.5343  0.2647
 4084TIP3    H133811   4.605   5.747   7.662  0.1549  0.4475  0.9978
 4084TIP3    H233812   4.459   5.784   7.650  0.2746  0.6436  0.1309
 4085TIP3   OH233813   5.782   1.714   8.424 -0.1464 -0.3026 -0.1232
 4085TIP3    H133814   5.735   1.691   8.503 -1.0813  0.2171 -0.5211
 4085TIP3    H233815   5.784   1.633   8.373  0.8994 -0.7762  0.6274
 4086TIP3   OH233816   4.757   1.110   2.054  0.1529 -0.9427  0.2616
 4086TIP3    H133817   4.811   1.174   2.008  0.0024 -0.7190  0.3973
 4086TIP3    H233818   4.676   1.107   2.003  0.5206 -1.7260 -0.2953
 4087TIP3   OH233819   3.154   6.505   7.919  0.2153 -0.2696 -0.3731
 4087TIP3    H133820   3.176   6.514   8.011  0.6616  0.2779 -0.5292
 4087TIP3    H233821   3.063   6.536   7.913  0.1455 -0.4178 -0.1002
 4088TIP3   OH233822   3.382   3.322   6.667 -0.1344  0.0518 -0.9153
 4088TIP3    H133823   3.323   3.255   6.701 -2.0798  1.0096 -2.2143
 4088TIP3    H233824   3.401   3.294   6.577  1.8302 -0.4768 -0.3792
 4089TIP3   OH233825   6.196   4.795   8.422  0.1987  0.0360  0.0774
 4089TIP3    H133826   6.184   4.769   8.331  0.1237 -0.8608  0.3337
 4089TIP3    H233827   6.243   4.722   8.462  0.4224  0.5133  0.7142
 4090TIP3   OH233828   4.276   6.399   7.095  0.6831 -0.1608 -0.7470
 4090TIP3    H133829   4.203   6.414   7.034  1.0627  1.6715 -0.8082
 4090TIP3    H233830   4.355   6.417   7.043  1.0565  0.4933  0.0277
 4091TIP3   OH233831   2.112   4.727   7.373  0.0953  0.4370 -0.8873
 4091TIP3    H133832   2.117   4.733   7.277  2.3444  2.0469 -0.7446
 4091TIP3    H233833   2.046   4.791   7.398 -1.2903 -0.7443 -1.3633
 4092TIP3   OH233834   4.080   6.009   0.254 -0.6614 -0.6977 -0.0270
 4092TIP3    H133835   4.118   6.064   0.185 -0.2126 -0.1512  0.6349
 4092TIP3    H233836   4.156   5.967   0.295 -0.9361 -1.1258  0.0455
 4093TIP3   OH233837   1.419   3.704   7.356 -0.1027  0.5042  0.6489
 4093TIP3    H133838   1.415   3.610   7.340 -0.5541  0.6961 -0.4067
 4093TIP3    H233839   1.510   3.720   7.383  0.3162 -0.0393 -0.4090
 4094TIP3   OH233840   2.712   4.395   7.839 -0.1793  0.6968  0.4304
 4094TIP3    H133841   2.664   4.321   7.876  0.6464 -0.5011 -0.8024
 4094TIP3    H233842   2.796   4.359   7.813 -0.3974  1.6197 -1.8226
 4095TIP3   OH233843   3.354   3.546   1.628  0.1130 -0.1696  0.1572
 4095TIP3    H133844   3.386   3.545   1.538 -0.6533  0.5602 -0.1260
 4095TIP3    H233845   3.376   3.633   1.661 -2.1098  0.6080 -0.2564
 4096TIP3   OH233846   6.224   4.663   7.496  0.3574 -0.0616 -0.3634
 4096TIP3    H133847   6.176   4.649   7.577 -0.4071  0.1288 -0.7724
 4096TIP3    H233848   6.195   4.592   7.438  0.6843 -0.0339 -0.5642
 4097TIP3   OH233849   3.731   0.069   7.675  0.1112  0.1129 -0.6306
 4097TIP3    H133850   3.643   0.076   7.711 -0.9534 -0.0047 -2.9855
 4097TIP3    H233851   3.768   0.157   7.683  0.4136 -0.1628  1.7025
 4098TIP3   OH233852   5.913   0.317   0.486 -0.1414  0.0003  0.3781
 4098TIP3    H133853   5.959   0.328   0.403  0.1804 -1.7217  0.2722
 4098TIP3    H233854   5.822   0.340   0.466 -0.1402 -0.7128 -0.5724
 4099TIP3   OH233855   3.349   0.576   1.114  0.2004  0.4808 -0.0689
 4099TIP3    H133856   3.444   0.577   1.100  0.2367 -0.3934  0.0492
 4099TIP3    H233857   3.323   0.487   1.091 -0.3973  0.3175  1.1562
 4100TIP3   OH233858   1.354   3.945   0.019 -0.5514 -0.9610  0.2406
 4100TIP3    H133859   1.397   4.015  -0.029 -0.6235 -1.2998 -0.3282
 4100TIP3    H233860   1.398   3.865  -0.010 -0.5757 -1.1722  0.7634
 4101TIP3   OH233861   2.416   5.993   7.721 -0.8427 -0.0393  0.1922
 4101TIP3    H133862   2.474   5.991   7.644  1.4460  1.1256  1.7766
 4101TIP3    H233863   2.341   6.045   7.693  1.7501  3.8754 -0.2295
 4102TIP3   OH233864   5.722   1.454   8.518 -0.4637  0.6331  0.2558
 4102TIP3    H133865   5.769   1.370   8.512  0.3822  1.1895 -2.1870
 4102TIP3    H233866   5.654   1.448   8.451 -0.0863  2.0602 -0.2947
 4103TIP3   OH233867   3.398   3.528   8.340  0.3772 -0.6122  0.2670
 4103TIP3    H133868   3.360   3.561   8.422  1.6742 -1.7830  1.3941
 4103TIP3    H233869   3.483   3.492   8.366  0.6767 -1.3230 -1.5539
 4104TIP3   OH233870   0.679   0.206   2.523  0.3981  0.2161 -0.5896
 4104TIP3    H133871   0.693   0.282   2.579 -1.3708  1.3536 -1.6143
 4104TIP3    H233872   0.600   0.227   2.473 -0.2650 -2.3906 -0.7624
 4105TIP3   OH233873   0.773   1.343   2.490 -0.3250  0.0493 -0.2823
 4105TIP3    H133874   0.774   1.264   2.546  1.4499  0.2414  0.0315
 4105TIP3    H233875   0.821   1.317   2.412  0.0440  0.7360 -0.2909
 4106TIP3   OH233876   5.377   1.455   1.608 -0.1560  0.1853 -0.7201
 4106TIP3    H133877   5.292   1.421   1.637 -0.0191 -1.1790 -1.8154
 4106TIP3    H233878   5.356   1.523   1.545 -0.4300  0.9659  0.1972
 4107TIP3   OH233879   0.199   0.549   2.124  0.2263 -0.9337 -0.3695
 4107TIP3    H133880   0.175   0.612   2.192  2.0559  0.6696 -1.0856
 4107TIP3    H233881   0.200   0.602   2.043 -0.8112 -2.5306 -1.4868
 4108TIP3   OH233882   2.255   5.587   6.366 -0.0785  0.0857  0.1853
 4108TIP3    H133883   2.191   5.655   6.347  0.2136  0.4355  0.4368
 4108TIP3    H233884   2.328   5.633   6.409 -1.1872 -0.8112  3.3179
 4109TIP3   OH233885   3.189   5.637   1.018 -0.2053 -0.0807  0.0948
 4109TIP3    H133886   3.146   5.592   1.091  1.5419  0.3235  1.4236
 4109TIP3    H233887   3.264   5.582   0.996 -0.3175  0.1548 -0.9798
 4110TIP3   OH233888   1.642   2.504   1.342 -0.0777 -0.0173  0.3450
 4110TIP3    H133889   1.610   2.502   1.252  0.0509 -0.0772  0.3011
 4110TIP3    H233890   1.731   2.470   1.337  0.6898  1.8870  0.1861
 4111TIP3   OH233891   0.340   3.644   7.516 -0.5741 -0.2007  0.6441
 4111TIP3    H133892   0.365   3.627   7.426 -0.7732  0.7432  0.3955
 4111TIP3    H233893   0.252   3.607   7.524 -1.2992  1.2448 -0.0970
 4112TIP3   OH233894   4.854   6.033   1.443 -0.4651 -0.0938 -0.4919
 4112TIP3    H133895   4.845   5.967   1.512  0.1085  0.2835 -0.0408
 4112TIP3    H233896   4.931   6.085   1.470 -0.5961  0.4273 -1.1051
 4113TIP3   OH233897   0.440   4.577   0.656 -0.3783  0.7110  0.3553
 4113TIP3    H133898   0.407   4.537   0.737  0.6505 -2.4410 -0.6736
 4113TIP3    H233899   0.535   4.581   0.668 -0.4432  3.4284  0.5760
 4114TIP3   OH233900   4.855   0.342   6.629  0.1147  0.1337 -0.3429
 4114TIP3    H133901   4.794   0.395   6.680  0.6252 -1.3333  1.9845
 4114TIP3    H233902   4.799   0.287   6.574 -0.4436  2.0465 -1.7904
 4115TIP3   OH233903   2.762   1.602   0.201 -0.5877  0.3036 -0.0683
 4115TIP3    H133904   2.748   1.567   0.113  0.1631 -0.2173  0.0083
 4115TIP3    H233905   2.698   1.557   0.255 -2.3201  1.9646 -0.6371
 4116TIP3   OH233906   3.048   1.448   1.577 -0.1729 -0.4214 -0.6045
 4116TIP3    H133907   3.093   1.515   1.525 -0.5648  0.0259 -0.3760
 4116TIP3    H233908   3.087   1.455   1.664 -0.4583 -0.2522 -0.4897
 4117TIP3   OH233909   1.847   4.131   0.845 -0.7702  0.0244  0.1170
 4117TIP3    H133910   1.806   4.068   0.787 -2.0276 -0.2840  1.3105
 4117TIP3    H233911   1.788   4.139   0.920 -0.8009  2.7945 -0.0780
 4118TIP3   OH233912   1.874   0.816   8.068 -0.1434  0.2281 -0.4557
 4118TIP3    H133913   1.780   0.798   8.072  0.0290 -0.5269  0.3612
 4118TIP3    H233914   1.882   0.887   8.004 -1.1395 -0.5739 -1.5098
 4119TIP3   OH233915   0.142   2.265   1.223  0.2238 -0.1291 -0.5854
 4119TIP3    H133916   0.097   2.194   1.267  0.1793 -1.5564 -2.7580
 4119TIP3    H233917   0.234   2.239   1.223  0.4483  0.6192 -0.0170
 4120TIP3   OH233918   4.792   0.352   1.898  0.3585  0.0889  0.6894
 4120TIP3    H133919   4.735   0.367   1.974  0.7595 -0.2962  1.0709
 4120TIP3    H233920   4.800   0.437   1.857  0.0844  0.2912  1.0458
 4121TIP3   OH233921   2.033   3.325   8.107  0.2125  0.0802 -0.2366
 4121TIP3    H133922   2.126   3.342   8.091  1.5075 -1.6765  4.0378
 4121TIP3    H233923   2.023   3.230   8.095 -0.9040  0.1519 -0.0304
 4122TIP3   OH233924   4.217   4.479   1.372 -0.4535 -0.6180 -0.4595
 4122TIP3    H133925   4.288   4.544   1.376 -2.0659  1.4445 -2.5383
 4122TIP3    H233926   4.183   4.476   1.461  2.2785 -1.8537  0.6704
 4123TIP3   OH233927   0.171   5.921   7.033 -0.7573  0.2483 -0.2608
 4123TIP3    H133928   0.241   5.876   7.079 -0.6716 -1.0795 -1.6058
 4123TIP3    H233929   0.094   5.911   7.090 -0.9314 -2.3279 -0.8377
 4124TIP3   OH233930   0.077   4.499   8.128  0.2947  0.5440  0.0920
 4124TIP3    H133931   0.158   4.470   8.086  0.2043 -3.1435  2.0989
 4124TIP3    H233932   0.013   4.504   8.057  0.8034 -2.7720 -0.7458
 4125TIP3   OH233933   5.443   4.683   6.264  0.7035 -0.1094  0.4677
 4125TIP3    H133934   5.444   4.588   6.272  1.2310 -0.4117 -2.1233
 4125TIP3    H233935   5.354   4.704   6.235  0.8882  0.0633  0.0199
 4126TIP3   OH233936   6.353   6.235   6.559  0.2791 -0.1860 -0.5152
 4126TIP3    H133937   6.260   6.244   6.541  0.3606 -0.7342 -1.2178
 4126TIP3    H233938   6.395   6.303   6.506  0.3111 -0.1326 -0.4238
 4127TIP3   OH233939   3.837   3.636   8.164  0.0896  0.4929 -0.0948
 4127TIP3    H133940   3.925   3.671   8.179  0.6214 -1.3234  1.4126
 4127TIP3    H233941   3.782   3.713   8.149  1.7950  1.7060 -0.3226
 4128TIP3   OH233942   1.366   0.733   1.375 -0.1394 -0.7605 -0.1567
 4128TIP3    H133943   1.431   0.731   1.305 -2.7251  0.2994 -2.7727
 4128TIP3    H233944   1.350   0.826   1.391 -1.5813 -0.9691 -0.2136
 4129TIP3   OH233945   0.680   1.924   0.453  0.0123 -0.2513 -0.1286
 4129TIP3    H133946   0.668   1.995   0.516  0.4002  1.8390 -2.2697
 4129TIP3    H233947   0.603   1.869   0.464 -0.9643  1.2092  0.7210
 4130TIP3   OH233948   1.413   5.803   7.482  0.1542  0.2573  0.0787
 4130TIP3    H133949   1.432   5.750   7.560 -0.0788 -1.4331 -0.9685
 4130TIP3    H233950   1.431   5.745   7.408 -0.5140  1.5244 -1.1347
 4131TIP3   OH233951   2.043   5.118   8.575 -0.1133 -0.4993 -0.6264
 4131TIP3    H133952   2.066   5.034   8.614 -1.3590 -0.7827 -0.4592
 4131TIP3    H233953   2.020   5.097   8.485  2.4004  0.1051 -1.5012
 4132TIP3   OH233954   3.262   6.003   8.214 -0.1742  0.0128 -0.0465
 4132TIP3    H133955   3.217   5.956   8.284  0.1454 -0.0529  0.1184
 4132TIP3    H233956   3.310   5.934   8.167  2.7831  0.4669  2.0342
 4133TIP3   OH233957   6.453   1.040   8.208  0.3090 -0.0914 -0.5081
 4133TIP3    H133958   6.397   1.105   8.164  0.8384  0.9199  0.2508
 4133TIP3    H233959   6.413   1.029   8.294  0.2509 -0.7444 -0.6190
 4134TIP3   OH233960   1.305   2.573   0.973 -0.0431 -0.5279  0.5258
 4134TIP3    H133961   1.327   2.612   0.889 -0.4351  0.3699  0.8320
 4134TIP3    H233962   1.312   2.479   0.958 -0.0184 -0.3769 -0.4783
 4135TIP3   OH233963   3.698   1.102   1.967  0.3055 -0.4976  0.2193
 4135TIP3    H133964   3.700   1.126   2.060  0.7624 -0.9435  0.3303
 4135TIP3    H233965   3.784   1.063   1.951 -0.7771 -3.1974  0.3732
 4136TIP3   OH233966   0.644   4.753   8.389 -0.2259  0.1576 -0.1907
 4136TIP3    H133967   0.572   4.747   8.451 -0.7311 -1.6438 -0.9085
 4136TIP3    H233968   0.672   4.663   8.374 -0.6020  0.4312 -3.1015
 4137TIP3   OH233969   4.001   4.145   8.194  0.8651 -0.0977  0.1988
 4137TIP3    H133970   4.015   4.203   8.269 -1.6273 -0.3546  0.9737
 4137TIP3    H233971   4.031   4.059   8.224  3.4550  0.4653 -0.5348
 4138TIP3   OH233972   5.064   0.347   1.766  0.3473  0.5354 -0.4577
 4138TIP3    H133973   5.041   0.330   1.675  0.2134  0.1020 -0.3423
 4138TIP3    H233974   4.989   0.317   1.816  0.9073 -0.3336 -0.1218
 4139TIP3   OH233975   2.416   2.384   8.041  0.4059  0.3045 -0.3615
 4139TIP3    H133976   2.474   2.456   8.065 -0.1662  0.1098  1.8802
 4139TIP3    H233977   2.414   2.329   8.119 -1.9936 -0.2161 -0.7190
 4140TIP3   OH233978   4.430   1.553   0.876  0.1527 -0.5144 -0.6191
 4140TIP3    H133979   4.390   1.595   0.800  1.6932  0.0088 -1.1636
 4140TIP3    H233980   4.523   1.546   0.855  0.2495 -2.5396  0.2310
 4141TIP3   OH233981   5.327   1.640   7.502 -0.1656  0.1551 -0.0163
 4141TIP3    H133982   5.315   1.734   7.506  0.7726  0.2387  2.3200
 4141TIP3    H233983   5.416   1.629   7.469  0.1298  0.1379  0.7713
 4142TIP3   OH233984   5.071   4.492   8.462  0.2171 -0.0587 -0.0587
 4142TIP3    H133985   4.980   4.501   8.435  0.3945 -0.0596 -0.6586
 4142TIP3    H233986   5.119   4.551   8.405  0.4540  0.8929  1.0804
 4143TIP3   OH233987   0.469   2.496   6.934  0.3480  0.3010 -0.3340
 4143TIP3    H133988   0.389   2.549   6.934  0.5668  0.7595  2.0596
 4143TIP3    H233989   0.449   2.422   6.878 -1.6246  0.6207 -0.1265
 4144TIP3   OH233990   5.579   1.031   7.401  0.0366 -0.3567  0.4960
 4144TIP3    H133991   5.630   1.024   7.482  0.6535  2.9171  0.5343
 4144TIP3    H233992   5.645   1.041   7.332 -0.4441  1.6776  0.2643
 4145TIP3   OH233993   5.520   5.939   7.613  0.0269  0.0690  0.1007
 4145TIP3    H133994   5.576   5.987   7.553  2.2883 -1.4196  0.8865
 4145TIP3    H233995   5.506   5.999   7.686  0.1333  0.6606 -0.3587
 4146TIP3   OH233996   3.941   6.718   7.692 -0.2415 -0.0771 -0.4096
 4146TIP3    H133997   4.009   6.781   7.717  1.9845 -1.4815 -2.4638
 4146TIP3    H233998   3.860   6.769   7.690  0.7349  1.7190  1.9574
 4147TIP3   OH233999   6.764   6.069   8.001  0.4735 -0.2931  0.7357
 4147TIP3    H134000   6.745   6.123   7.925  0.7197 -0.4680  0.5473
 4147TIP3    H234001   6.738   5.981   7.975 -0.1998 -0.2208  1.1457
 4148TIP3   OH234002   1.244   5.894   8.182 -0.1924 -0.6526  0.0997
 4148TIP3    H134003   1.247   5.886   8.278  0.6654 -1.2938  0.0399
 4148TIP3    H234004   1.335   5.907   8.157 -0.6978  2.5118 -0.4479
 4149TIP3   OH234005   0.208   5.417   7.138 -0.5395  0.0543  0.4853
 4149TIP3    H134006   0.200   5.334   7.092  1.3053 -0.2349  0.6269
 4149TIP3    H234007   0.202   5.395   7.231 -1.7629  0.3273  0.4937
 4150TIP3   OH234008   3.261   0.991   7.720  0.1693  0.3933  0.3756
 4150TIP3    H134009   3.231   1.039   7.797  2.3098  2.1778  0.1937
 4150TIP3    H234010   3.356   0.990   7.728  0.3105 -2.0779 -0.7359
 4151TIP3   OH234011   2.580   1.309   1.548 -0.3319  0.6171 -0.0612
 4151TIP3    H134012   2.634   1.379   1.583 -1.5364  1.1299  0.8592
 4151TIP3    H234013   2.490   1.338   1.564 -1.0238  0.9330 -3.6589
 4152TIP3   OH234014   4.603   1.013   2.245  0.0466 -0.3158  0.9960
 4152TIP3    H134015   4.664   1.051   2.182 -0.1764 -0.1342  0.8864
 4152TIP3    H234016   4.517   1.026   2.205 -0.0463 -0.7545  1.0553
 4153TIP3   OH234017   3.469   6.658   0.547 -0.2854  0.2965 -0.2522
 4153TIP3    H134018   3.392   6.715   0.542  0.2193  0.9131 -1.1898
 4153TIP3    H234019   3.544   6.717   0.542  0.2953 -0.5105 -3.3662
 4154TIP3   OH234020   4.633   6.315   8.189 -0.5671 -0.0961  0.2654
 4154TIP3    H134021   4.559   6.369   8.163 -0.4707 -0.6906 -1.3662
 4154TIP3    H234022   4.635   6.321   8.285  0.7061  4.4368  0.1674
 4155TIP3   OH234023   6.312   3.257   6.944 -0.2637  0.0869 -0.3190
 4155TIP3    H134024   6.234   3.208   6.968  0.7052 -1.0949  0.5604
 4155TIP3    H234025   6.287   3.349   6.953 -2.0385 -0.2130 -1.7517
 4156TIP3   OH234026   6.444   1.293   8.458  0.1973 -0.4039 -0.6087
 4156TIP3    H134027   6.373   1.339   8.503 -0.4138 -1.7863 -0.1039
 4156TIP3    H234028   6.424   1.302   8.365  0.9489  1.6623 -0.6227
 4157TIP3   OH234029   0.416   5.794   8.275 -0.2773 -0.0487  0.1045
 4157TIP3    H134030   0.441   5.726   8.338  0.0201  0.3809  0.4601
 4157TIP3    H234031   0.368   5.858   8.328  3.0692  2.1827  0.7518
 4158TIP3   OH234032   6.192   4.332   2.693 -0.2154  0.1006  0.1001
 4158TIP3    H134033   6.097   4.336   2.701 -0.6545  0.1525 -3.5493
 4158TIP3    H234034   6.221   4.422   2.708 -1.1413  0.7610 -1.7862
 4159TIP3   OH234035   2.069   6.342   1.131 -0.6182 -0.0347  0.4754
 4159TIP3    H134036   2.048   6.300   1.214 -0.0224 -1.7198 -0.1663
 4159TIP3    H234037   2.152   6.387   1.146 -1.2390  0.9198  1.1631
 4160TIP3   OH234038   3.595   5.641   1.730  0.8428 -0.0714  0.7158
 4160TIP3    H134039   3.587   5.637   1.826 -2.4603  0.4957  0.5922
 4160TIP3    H234040   3.545   5.566   1.699 -0.4801  1.2672 -0.5452
 4161TIP3   OH234041   6.569   0.474   1.540 -0.2912  0.5204  0.0898
 4161TIP3    H134042   6.534   0.537   1.478  1.4361  0.6914 -0.7804
 4161TIP3    H234043   6.515   0.396   1.528 -2.2882  1.6887  1.0100
 4162TIP3   OH234044   0.857   6.792   0.069  0.7722  0.2462 -0.1101
 4162TIP3    H134045   0.766   6.781   0.097  0.7215 -1.0436 -0.7039
 4162TIP3    H234046   0.880   6.707   0.032  2.0984  0.6918 -0.3278
 4163TIP3   OH234047   1.650   4.772   7.484  0.3244  0.1858  0.1965
 4163TIP3    H134048   1.562   4.751   7.452  0.8711  1.7057 -2.5819
 4163TIP3    H234049   1.701   4.692   7.469 -0.7491 -1.2237  3.1391
 4164TIP3   OH234050   1.025   3.567   7.796 -0.0239  0.0636 -0.1436
 4164TIP3    H134051   1.081   3.603   7.865 -1.6439  0.1757  1.1520
 4164TIP3    H234052   0.992   3.644   7.749  2.6368 -0.0200 -2.4736
 4165TIP3   OH234053   4.139   1.465   6.662 -0.0019 -0.1815  0.1006
 4165TIP3    H134054   4.189   1.532   6.708  1.6164 -0.5906 -0.9761
 4165TIP3    H234055   4.122   1.504   6.576  0.2239 -0.8288 -0.2381
 4166TIP3   OH234056   1.002   2.757   7.007  0.4153 -0.1240 -0.6856
 4166TIP3    H134057   0.910   2.747   7.031  0.2683 -2.1531 -1.9462
 4166TIP3    H234058   1.047   2.683   7.048  1.0402 -0.5979 -2.1530
 4167TIP3   OH234059   3.410   6.077   0.720 -0.1197  0.5796 -0.1017
 4167TIP3    H134060   3.456   6.082   0.636 -3.6349 -0.9421 -2.3173
 4167TIP3    H234061   3.459   6.012   0.770  2.0478  1.5116 -0.8476
 4168TIP3   OH234062   6.036   2.432   1.676 -0.0053  0.8012 -0.7232
 4168TIP3    H134063   6.055   2.366   1.609 -1.6344 -2.1622  1.4921
 4168TIP3    H234064   6.119   2.446   1.721  0.3383  0.1427 -1.1470
 4169TIP3   OH234065   0.101   5.329   7.420 -1.1617 -0.4681  0.3434
 4169TIP3    H134066   0.051   5.257   7.380 -0.6434 -0.8509  0.3780
 4169TIP3    H234067   0.149   5.288   7.491 -0.2126 -0.2547 -0.1610
 4170TIP3   OH234068   5.126   3.984   8.205  0.1850 -0.0768 -0.0985
 4170TIP3    H134069   5.201   3.925   8.193 -1.1331 -1.6354 -1.1060
 4170TIP3    H234070   5.125   4.038   8.126 -0.0254 -0.3805 -0.3047
 4171TIP3   OH234071   2.895   6.067   8.716  0.5054  0.0648 -0.0137
 4171TIP3    H134072   2.946   6.055   8.796 -2.6468  0.2470  2.2151
 4171TIP3    H234073   2.892   6.162   8.703 -1.1797  0.2289  1.2984
 4172TIP3   OH234074   4.489   5.293   1.466 -0.8302 -0.2093  0.6090
 4172TIP3    H134075   4.475   5.388   1.466 -0.7154 -0.1675  2.2961
 4172TIP3    H234076   4.461   5.265   1.379 -2.7139  1.1191  0.7205
 4173TIP3   OH234077   0.730   2.711   7.604 -0.4920  0.9317 -0.6100
 4173TIP3    H134078   0.782   2.773   7.654  2.1831 -1.0451 -0.7600
 4173TIP3    H234079   0.659   2.685   7.663 -0.4259  2.4949  0.1923
 4174TIP3   OH234080   2.358   6.325   1.487 -0.9767 -0.1455 -0.2550
 4174TIP3    H134081   2.353   6.412   1.446  0.2075  0.1909  0.2719
 4174TIP3    H234082   2.330   6.265   1.418 -1.5348  0.6263 -0.7224
 4175TIP3   OH234083   5.277   3.219   1.389 -0.6126 -0.5549  0.7931
 4175TIP3    H134084   5.316   3.257   1.310 -0.3956  0.4099  1.3509
 4175TIP3    H234085   5.349   3.213   1.451  0.0787 -4.5184 -0.0928
 4176TIP3   OH234086   3.796   0.462   0.594  0.0674  0.0817  0.0696
 4176TIP3    H134087   3.756   0.547   0.611 -0.7987 -0.2536 -0.2859
 4176TIP3    H234088   3.783   0.413   0.675  0.3451  0.1869  0.1829
 4177TIP3   OH234089   4.446   4.861   0.974  0.0466 -0.1253  0.8273
 4177TIP3    H134090   4.393   4.924   0.924 -0.7999 -0.1988  1.6215
 4177TIP3    H234091   4.388   4.787   0.988  0.5814 -0.4895  1.1279
 4178TIP3   OH234092   6.459   4.862   7.778  0.1800 -0.2695  0.1116
 4178TIP3    H134093   6.537   4.850   7.831  0.8473 -1.3566 -1.0565
 4178TIP3    H234094   6.475   4.810   7.699 -1.5334 -0.1636 -0.3571
 4179TIP3   OH234095   1.142   5.586   7.688  0.1648  0.1851 -0.2020
 4179TIP3    H134096   1.164   5.552   7.775  0.9052  0.3579 -0.3171
 4179TIP3    H234097   1.224   5.580   7.639  0.0640  1.2376 -0.5168
 4180TIP3   OH234098   4.464   6.293   1.731  0.1472  0.2057 -0.2958
 4180TIP3    H134099   4.414   6.280   1.812  0.0634 -3.0739 -0.7182
 4180TIP3    H234100   4.407   6.257   1.663  1.6289 -0.3644 -1.2755
 4181TIP3   OH234101   3.550   3.427   0.495 -0.2784  0.1203  0.2023
 4181TIP3    H134102   3.562   3.433   0.401 -1.2897  2.7508  0.1740
 4181TIP3    H234103   3.462   3.460   0.511 -0.1295 -0.2561  2.0827
 4182TIP3   OH234104   6.410   1.746   7.271 -0.1554 -0.5169  0.0630
 4182TIP3    H134105   6.416   1.653   7.290  0.9773 -0.3369  0.6806
 4182TIP3    H234106   6.490   1.766   7.222 -0.1021  0.2238  0.4326
 4183TIP3   OH234107   6.791   3.503   6.260 -0.5174  0.7898 -0.4990
 4183TIP3    H134108   6.723   3.460   6.312 -3.0145  2.8693 -1.8009
 4183TIP3    H234109   6.873   3.472   6.298 -2.1271 -2.0079  1.0725
 4184TIP3   OH234110   0.017   1.569   8.150  0.0247 -0.1184 -0.0905
 4184TIP3    H134111  -0.050   1.524   8.200  0.5146 -0.0201  0.6664
 4184TIP3    H234112   0.093   1.511   8.153  0.0399 -0.1516 -0.7939
 4185TIP3   OH234113   3.184   2.459   7.648  0.0271  0.4858  0.3828
 4185TIP3    H134114   3.092   2.483   7.660 -0.4872 -1.3877  0.3760
 4185TIP3    H234115   3.205   2.493   7.560 -1.0395 -0.1476 -0.1441
 4186TIP3   OH234116   4.272   4.792   7.287 -0.0140 -0.1867 -0.1897
 4186TIP3    H134117   4.332   4.738   7.337  0.8585  1.8413  1.0653
 4186TIP3    H234118   4.299   4.882   7.305 -2.1720  0.7401 -1.1890
 4187TIP3   OH234119   0.140   0.686   1.902  0.5402 -0.7883 -0.3056
 4187TIP3    H134120   0.125   0.706   1.810  0.5175  1.3153  0.1023
 4187TIP3    H234121   0.053   0.691   1.942  0.5106 -1.9588 -0.1960
 4188TIP3   OH234122   6.774   1.224   2.224  0.3804 -0.4953  0.1316
 4188TIP3    H134123   6.696   1.217   2.279  0.1657 -2.5207 -0.3752
 4188TIP3    H234124   6.846   1.232   2.287  0.0844 -2.2343  0.7353
 4189TIP3   OH234125   1.930   2.985   1.338  0.3214  0.7647 -0.0695
 4189TIP3    H134126   1.886   2.905   1.310 -0.2187  1.3517 -0.9385
 4189TIP3    H234127   1.956   2.968   1.429 -2.8344  0.8439  0.9479
 4190TIP3   OH234128   5.556   4.539   1.724 -0.5543  0.7886 -0.3151
 4190TIP3    H134129   5.616   4.512   1.793 -0.4930 -0.1849 -0.7257
 4190TIP3    H234130   5.511   4.458   1.698 -0.5736  1.1262 -1.4047
 4191TIP3   OH234131   0.773   0.022   0.583  0.0752  0.2978 -0.0649
 4191TIP3    H134132   0.781   0.068   0.667  2.6195  0.0295 -0.0760
 4191TIP3    H234133   0.844   0.058   0.530 -0.8452 -0.2883 -1.7510
 4192TIP3   OH234134   2.120   3.375   6.634 -0.2220  0.1525 -0.5904
 4192TIP3    H134135   2.088   3.303   6.580  0.8483 -1.3047  0.6405
 4192TIP3    H234136   2.214   3.359   6.643 -0.4690 -0.1495  2.3126
 4193TIP3   OH234137   6.060   1.139   6.646  0.3803 -0.2585  0.1485
 4193TIP3    H134138   6.023   1.095   6.570  0.0557  0.4938 -0.1415
 4193TIP3    H234139   6.040   1.081   6.720 -1.9073  0.3747  0.1037
 4194TIP3   OH234140   1.733   3.070   8.430  0.0348 -0.1801 -0.2178
 4194TIP3    H134141   1.827   3.076   8.443  0.7151 -0.3221 -4.0396
 4194TIP3    H234142   1.704   3.160   8.420  0.3644 -0.2563 -2.1081
 4195TIP3   OH234143   1.771   2.930   7.999  0.6460  0.1401 -0.2933
 4195TIP3    H134144   1.708   2.880   7.947  1.5713 -0.7307 -0.6007
 4195TIP3    H234145   1.845   2.945   7.940  1.1939  0.2097  0.4003
 4196TIP3   OH234146   2.690   3.437   6.403 -0.0586  0.0432 -0.4887
 4196TIP3    H134147   2.733   3.352   6.392 -0.5471 -0.0480 -1.9108
 4196TIP3    H234148   2.745   3.498   6.353 -0.0128  0.4652  0.0700
 4197TIP3   OH234149   5.015   0.353   6.845 -0.4187 -0.0601 -0.2884
 4197TIP3    H134150   5.102   0.339   6.807 -0.5682 -0.6382 -0.4302
 4197TIP3    H234151   4.956   0.349   6.769 -0.4865  1.2155 -0.3134
 4198TIP3   OH234152   4.635   2.926   0.799 -0.2526 -0.1213 -0.3953
 4198TIP3    H134153   4.610   2.997   0.740 -0.3256  0.8258  0.7293
 4198TIP3    H234154   4.558   2.914   0.855 -0.7841 -2.0863 -1.4622
 4199TIP3   OH234155   0.931   1.133   0.150  0.0565  0.2151  0.6634
 4199TIP3    H134156   0.895   1.201   0.206 -1.0606  0.5051 -0.3572
 4199TIP3    H234157   0.961   1.181   0.072 -0.6258 -0.4244 -0.0093
 4200TIP3   OH234158   2.670   5.420   0.615 -0.1177 -0.6153  0.1728
 4200TIP3    H134159   2.727   5.497   0.614  0.0924 -0.7701 -0.8758
 4200TIP3    H234160   2.713   5.358   0.555 -0.7956 -1.1698  0.2495
 4201TIP3   OH234161   5.953   5.310   7.969 -0.0685 -0.3307  0.2811
 4201TIP3    H134162   5.989   5.372   7.905 -0.8004  1.1129  1.2155
 4201TIP3    H234163   5.985   5.225   7.940 -1.4471  0.0664 -2.8028
 4202TIP3   OH234164   4.710   2.552   1.482 -0.5989 -0.4746  0.2924
 4202TIP3    H134165   4.790   2.550   1.533 -1.6006  0.2261  1.9837
 4202TIP3    H234166   4.723   2.487   1.413  1.4459 -0.2717  0.4285
 4203TIP3   OH234167   4.672   2.351   0.466  0.7280 -0.0739 -0.1736
 4203TIP3    H134168   4.637   2.273   0.423 -0.2259  0.8920 -1.2257
 4203TIP3    H234169   4.598   2.387   0.514  0.2622  1.7856 -2.1195
 4204TIP3   OH234170   4.968   5.452   8.347  0.1963 -0.0817 -0.3288
 4204TIP3    H134171   5.054   5.417   8.329  0.2863  0.1894 -0.4340
 4204TIP3    H234172   4.963   5.456   8.443  0.6901  0.8389 -0.3286
 4205TIP3   OH234173   5.458   6.155   7.790 -0.0727  0.1111 -0.0705
 4205TIP3    H134174   5.495   6.147   7.878  3.1673 -0.2072 -1.3281
 4205TIP3    H234175   5.437   6.248   7.781  3.2735  0.9877 -0.1597
 4206TIP3   OH234176   1.785   1.889   1.582 -0.3293  0.1339  0.0427
 4206TIP3    H134177   1.750   1.863   1.668  1.8510 -3.7899 -0.0568
 4206TIP3    H234178   1.718   1.862   1.520 -0.8538  0.7688  0.3104
 4207TIP3   OH234179   3.488   0.791   2.164 -0.0685 -0.0835 -0.3988
 4207TIP3    H134180   3.421   0.735   2.204 -1.4364  0.7224 -1.4642
 4207TIP3    H234181   3.486   0.872   2.216  1.8805 -0.9484  1.1193
 4208TIP3   OH234182   6.513   3.429   0.145  0.3732  0.3310 -0.2606
 4208TIP3    H134183   6.555   3.355   0.102  1.0154  1.0197 -0.8482
 4208TIP3    H234184   6.544   3.426   0.235 -0.3087 -0.6205 -0.0364
 4209TIP3   OH234185   6.103   0.738   0.303 -0.6890  0.0700  0.2414
 4209TIP3    H134186   6.073   0.821   0.266  0.9978  0.8581  0.5727
 4209TIP3    H234187   6.053   0.729   0.384  0.1594  1.5357  0.9659
 4210TIP3   OH234188   5.895   1.508   0.000 -0.6458 -0.4790 -0.2182
 4210TIP3    H134189   5.808   1.547  -0.007 -0.6323 -0.2609  0.6863
 4210TIP3    H234190   5.905   1.458  -0.081 -1.6104 -0.5065 -0.3396
 4211TIP3   OH234191   0.546   4.655   0.022 -0.3627  0.1542  0.6100
 4211TIP3    H134192   0.563   4.737  -0.025  0.3728 -0.9258 -1.1204
 4211TIP3    H234193   0.510   4.596  -0.044  1.4031 -1.6696  1.1732
 4212TIP3   OH234194   5.504   0.234   7.141 -0.7489 -0.6618 -0.5648
 4212TIP3    H134195   5.494   0.145   7.175 -2.2335 -0.4754 -0.4486
 4212TIP3    H234196   5.535   0.222   7.051 -0.3974 -1.2594 -0.3740
 4213TIP3   OH234197   1.548   5.380   1.969  0.0251 -0.3193 -0.6623
 4213TIP3    H134198   1.630   5.356   2.012 -0.6434 -0.5346  0.5274
 4213TIP3    H234199   1.490   5.306   1.985  0.0561 -0.9104 -2.8866
 4214TIP3   OH234200   0.342   6.150   1.909 -0.1300  0.6244 -0.3571
 4214TIP3    H134201   0.264   6.114   1.950 -0.9605 -0.6143 -2.8299
 4214TIP3    H234202   0.315   6.172   1.820  2.3710 -0.0021 -1.3564
 4215TIP3   OH234203   3.679   2.615   8.588  0.0035  0.0153 -0.0576
 4215TIP3    H134204   3.695   2.560   8.511  0.0784 -0.7797  0.5136
 4215TIP3    H234205   3.655   2.700   8.552 -1.6004 -0.7780 -1.0058
 4216TIP3   OH234206   5.407   0.842   0.030  0.2970  0.2539  0.1896
 4216TIP3    H134207   5.342   0.854  -0.040  0.4458 -2.7462 -0.5954
 4216TIP3    H234208   5.363   0.786   0.094  1.6763 -0.8020  0.2425
 4217TIP3   OH234209   6.679   4.718   2.248  0.4861 -0.0047 -0.3072
 4217TIP3    H134210   6.639   4.651   2.193 -0.3917  1.9311 -2.1323
 4217TIP3    H234211   6.753   4.673   2.290 -1.4250 -2.7305  0.4354
 4218TIP3   OH234212   5.156   3.645   0.396  0.0226 -0.4212 -0.1912
 4218TIP3    H134213   5.178   3.732   0.363 -0.9268  0.5110  1.4777
 4218TIP3    H234214   5.236   3.615   0.439  0.9499 -1.2261 -2.3327
 4219TIP3   OH234215   3.480   4.830   6.563 -0.1231 -0.1798 -0.3444
 4219TIP3    H134216   3.526   4.763   6.512 -0.2877  0.1619 -0.9562
 4219TIP3    H234217   3.431   4.880   6.497 -0.5231  0.1269  0.1798
 4220TIP3   OH234218   1.013   6.288   8.565  0.0710  0.1003 -0.2871
 4220TIP3    H134219   1.020   6.248   8.478  1.4740 -1.7856  0.6369
 4220TIP3    H234220   1.058   6.372   8.556 -0.2934  0.1813 -1.5193
 4221TIP3   OH234221   5.477   6.303   1.792 -0.0828  0.1248  0.1316
 4221TIP3    H134222   5.381   6.296   1.799 -0.1592 -0.6031 -1.3335
 4221TIP3    H234223   5.501   6.364   1.862 -1.6099  0.2894  0.5596
 4222TIP3   OH234224   3.010   6.481   1.747  0.1457 -0.0460 -0.0149
 4222TIP3    H134225   3.007   6.515   1.836 -1.2956 -0.6937  0.2282
 4222TIP3    H234226   3.086   6.522   1.707 -0.5037  2.0587  0.7959
 4223TIP3   OH234227   5.835   4.212   6.675 -0.0790  0.2576 -0.3267
 4223TIP3    H134228   5.749   4.178   6.699 -0.9496  1.8080 -1.1009
 4223TIP3    H234229   5.845   4.290   6.730  1.7454 -0.9628  1.2109
 4224TIP3   OH234230   4.840   3.287   8.427  0.3437  0.0098 -0.2634
 4224TIP3    H134231   4.875   3.309   8.340  2.7580 -0.1927  0.5753
 4224TIP3    H234232   4.877   3.354   8.485  0.1861 -0.8524  0.8640
 4225TIP3   OH234233   1.179   3.695   0.612  0.0137  0.2831  0.0902
 4225TIP3    H134234   1.129   3.647   0.546 -0.0791  0.3879  0.0833
 4225TIP3    H234235   1.270   3.670   0.596  0.3906  2.6308 -2.0746
 4226TIP3   OH234236   2.694   6.164   8.461 -0.0624 -0.0044 -0.3724
 4226TIP3    H134237   2.644   6.120   8.392 -0.8673  0.1698  0.0801
 4226TIP3    H234238   2.773   6.112   8.470 -0.3424 -0.5239 -0.8446
 4227TIP3   OH234239   5.505   6.078   8.642  0.0174  1.1041  0.5630
 4227TIP3    H134240   5.428   6.075   8.700 -0.8595 -1.4057 -0.5800
 4227TIP3    H234241   5.579   6.066   8.701 -0.7691 -0.1857  1.3660
 4228TIP3   OH234242   1.808   1.626   6.096 -0.0204 -0.2722  0.2807
 4228TIP3    H134243   1.855   1.709   6.088  1.8244 -1.4166 -2.0340
 4228TIP3    H234244   1.732   1.636   6.038  0.3875 -0.2916 -0.2665
 4229TIP3   OH234245   2.690   6.653   6.722 -0.2834  0.0838 -0.1538
 4229TIP3    H134246   2.629   6.690   6.659  0.3067  0.4420 -0.5273
 4229TIP3    H234247   2.651   6.672   6.807  0.5936  2.7730 -0.2493
 4230TIP3   OH234248   0.123   1.418   1.341  0.3740 -0.5114 -0.4009
 4230TIP3    H134249   0.061   1.357   1.301  1.1006 -0.7653 -1.1695
 4230TIP3    H234250   0.139   1.484   1.274 -0.6534  0.7300  0.5428
 4231TIP3   OH234251   5.732   2.125   1.615  0.7654  0.8879  0.2683
 4231TIP3    H134252   5.806   2.114   1.674  0.0724 -2.1848  0.7607
 4231TIP3    H234253   5.658   2.145   1.672  0.6820  1.1247  0.0812
 4232TIP3   OH234254   5.598   3.664   0.376  0.1676 -0.2229  0.6869
 4232TIP3    H134255   5.600   3.751   0.416 -0.5609 -0.7628  1.9647
 4232TIP3    H234256   5.529   3.618   0.424  0.8361 -1.6445  0.3167
 4233TIP3   OH234257   0.383   0.962   7.858 -0.5130 -0.1385 -0.7157
 4233TIP3    H134258   0.382   1.057   7.855 -2.1540  0.3269  4.3690
 4233TIP3    H234259   0.291   0.937   7.856 -0.3036 -1.2441  0.9457
 4234TIP3   OH234260   4.839   2.416   8.589 -0.0959  0.1954 -0.7473
 4234TIP3    H134261   4.830   2.367   8.507  0.3991  0.6891 -1.1041
 4234TIP3    H234262   4.909   2.371   8.636 -0.2953 -0.0139 -0.6504
 4235TIP3   OH234263   1.810   1.346   7.444  0.3164  0.3233  0.0356
 4235TIP3    H134264   1.903   1.323   7.440 -0.3474 -2.7997 -0.4683
 4235TIP3    H234265   1.784   1.325   7.534 -0.0398  0.5887 -0.0036
 4236TIP3   OH234266   5.640   4.985   6.990 -0.6515 -0.0274  0.4616
 4236TIP3    H134267   5.717   5.028   6.952 -0.6113 -1.6655 -1.4726
 4236TIP3    H234268   5.574   5.054   6.994  0.2790  0.9097  0.2431
 4237TIP3   OH234269   6.650   1.907   8.079 -0.6510  0.3781  0.4666
 4237TIP3    H134270   6.739   1.886   8.106 -1.0867  1.0079  2.6170
 4237TIP3    H234271   6.611   1.823   8.056 -0.1842 -0.2208  1.7834
 4238TIP3   OH234272   2.060   1.899   0.897 -1.0166  0.3681 -0.3654
 4238TIP3    H134273   2.055   1.983   0.852  0.0641  0.2300 -0.7661
 4238TIP3    H234274   2.132   1.852   0.854 -0.3121  0.0055  1.1317
 4239TIP3   OH234275   4.720   2.879   0.425  0.0315 -0.3543  0.1515
 4239TIP3    H134276   4.738   2.880   0.519  0.2179  0.5705  0.1176
 4239TIP3    H234277   4.743   2.791   0.397  1.5112 -0.1701  0.6899
 4240TIP3   OH234278   3.097   6.739   0.639  0.6717 -0.2832 -0.4044
 4240TIP3    H134279   3.156   6.791   0.584  0.4101 -0.6574 -1.0422
 4240TIP3    H234280   3.086   6.657   0.591 -1.1929  0.1765 -0.8168
 4241TIP3   OH234281   4.870   5.962   7.856  0.3748  0.2304 -0.3381
 4241TIP3    H134282   4.885   5.873   7.826  0.6007 -0.3231  1.3103
 4241TIP3    H234283   4.905   5.964   7.945 -2.4675  1.0480  0.8836
 4242TIP3   OH234284   6.314   0.473   7.425  0.4856  0.4049  0.4670
 4242TIP3    H134285   6.279   0.544   7.372  2.5606  1.6222  0.6213
 4242TIP3    H234286   6.314   0.397   7.367  1.3956  1.3759 -0.8548
 4243TIP3   OH234287   1.553   3.717   6.488 -0.1078  0.0718  0.4433
 4243TIP3    H134288   1.599   3.700   6.405 -0.1584 -0.9244  0.6002
 4243TIP3    H234289   1.503   3.796   6.471  1.1702  0.8369  0.0654
 4244TIP3   OH234290   0.609   3.600   1.781  0.3606 -0.5114  0.0196
 4244TIP3    H134291   0.607   3.645   1.697  0.6561  1.2592  0.9120
 4244TIP3    H234292   0.557   3.521   1.767  0.4477 -0.2840 -1.8284
 4245TIP3   OH234293   0.858   4.722   1.243 -0.1413  0.3742  0.5781
 4245TIP3    H134294   0.768   4.701   1.263  0.5411 -1.5357  1.8383
 4245TIP3    H234295   0.866   4.816   1.262 -1.9067  0.6436  0.1073
 4246TIP3   OH234296   4.176   2.144   6.777  0.3386 -0.3057  0.2888
 4246TIP3    H134297   4.176   2.226   6.727  3.8025 -1.1050 -1.3303
 4246TIP3    H234298   4.101   2.096   6.745 -0.2014  1.1303 -0.7034
 4247TIP3   OH234299   0.529   0.016   7.539  0.0945 -0.2788 -0.0028
 4247TIP3    H134300   0.463  -0.054   7.547 -1.4187  1.0067 -0.6675
 4247TIP3    H234301   0.553   0.015   7.447 -0.5230  0.5540 -0.1852
 4248TIP3   OH234302   6.790   3.277   7.668 -0.3988  0.3619  0.8522
 4248TIP3    H134303   6.828   3.191   7.652  0.8465  0.4377  3.0721
 4248TIP3    H234304   6.700   3.270   7.634  0.1417 -1.3101 -0.3295
 4249TIP3   OH234305   1.807   3.369   0.658  0.0083  0.1177 -0.1397
 4249TIP3    H134306   1.725   3.321   0.645  0.0440 -1.0899  3.1094
 4249TIP3    H234307   1.875   3.302   0.650  0.7142  1.0245 -2.3368
 4250TIP3   OH234308   5.089   4.732   8.672  0.0059 -0.3357  0.1173
 4250TIP3    H134309   5.085   4.647   8.628 -1.1024 -0.1607 -0.1536
 4250TIP3    H234310   4.999   4.748   8.701  0.7469 -0.6647  2.8959
 4251TIP3   OH234311   4.149   5.634   2.535 -0.6222 -0.2896 -0.5338
 4251TIP3    H134312   4.199   5.573   2.482 -0.5883 -0.9451  0.2211
 4251TIP3    H234313   4.121   5.702   2.474  1.6631  0.4334 -0.8769
 4252TIP3   OH234314   0.608   1.253   1.078 -0.6342 -0.2282 -0.0846
 4252TIP3    H134315   0.640   1.175   1.124  0.6149  1.1915  1.6004
 4252TIP3    H234316   0.513   1.249   1.088 -0.6271 -1.7483 -0.4118
 4253TIP3   OH234317   3.141   2.581   6.220  0.2709  0.2140  0.5300
 4253TIP3    H134318   3.196   2.506   6.243 -1.1062 -0.8483  0.5441
 4253TIP3    H234319   3.066   2.574   6.279 -0.6906  0.6400 -0.5977
 4254TIP3   OH234320   1.186   5.466   6.371  0.4125 -0.0209  0.1991
 4254TIP3    H134321   1.255   5.403   6.391  1.0305  0.5647 -0.0692
 4254TIP3    H234322   1.227   5.552   6.383 -0.0151  0.3385 -0.8137
 4255TIP3   OH234323   0.578   5.512   1.275 -0.0383 -0.4133 -0.3283
 4255TIP3    H134324   0.654   5.570   1.278 -1.3496  1.3866 -0.0425
 4255TIP3    H234325   0.610   5.432   1.233  1.5297  1.0669 -2.1535
 4256TIP3   OH234326   1.587   4.317   0.494 -0.2003 -0.3616 -0.1671
 4256TIP3    H134327   1.507   4.366   0.473 -1.1304 -0.6253  2.3525
 4256TIP3    H234328   1.555   4.230   0.517  1.0415 -1.0394 -0.9534
 4257TIP3   OH234329   6.125   6.477   1.206 -0.1874 -0.5004  0.3883
 4257TIP3    H134330   6.206   6.528   1.215 -0.1364  0.0726 -2.4004
 4257TIP3    H234331   6.148   6.389   1.236  1.4124 -0.2801 -0.1043
 4258TIP3   OH234332   6.628   5.576   7.110 -0.2970  0.0755 -0.0942
 4258TIP3    H134333   6.582   5.654   7.078 -3.4714 -2.0181 -1.1013
 4258TIP3    H234334   6.676   5.543   7.034  1.3820  1.1572  0.4361
 4259TIP3   OH234335   2.721   2.731   8.231  0.2632 -0.2171  0.2944
 4259TIP3    H134336   2.767   2.798   8.180  1.8005 -1.4307  0.0151
 4259TIP3    H234337   2.768   2.729   8.315 -0.8497  0.2111  0.9548
 4260TIP3   OH234338   0.332   3.871   6.633  0.5235 -0.2755  0.4636
 4260TIP3    H134339   0.362   3.789   6.672  2.4086 -0.3989 -1.0812
 4260TIP3    H234340   0.237   3.863   6.631  0.5614 -1.6908  1.8528
 4261TIP3   OH234341   2.012   6.737   7.659  0.0593 -0.0275 -0.1621
 4261TIP3    H134342   2.093   6.690   7.681  0.0219  0.7126  1.7605
 4261TIP3    H234343   2.035   6.830   7.669 -0.6821  0.2530 -0.9290
 4262TIP3   OH234344   4.712   1.827   0.591 -0.1756  0.4588  0.3544
 4262TIP3    H134345   4.803   1.856   0.584 -0.6678  1.6783 -1.8950
 4262TIP3    H234346   4.676   1.839   0.503 -2.5618  0.1171  1.2063
 4263TIP3   OH234347   4.416   6.168   7.339  0.3615 -0.1121 -0.5950
 4263TIP3    H134348   4.324   6.147   7.328  0.3117  0.2215 -0.8286
 4263TIP3    H234349   4.437   6.223   7.264  0.5773  0.3878 -0.1720
 4264TIP3   OH234350   6.264   4.312   0.306  0.0943 -0.3352  0.0103
 4264TIP3    H134351   6.350   4.332   0.270 -0.5012 -0.6190 -1.6624
 4264TIP3    H234352   6.261   4.217   0.309 -0.6233 -0.3662 -1.1803
 4265TIP3   OH234353   0.158   6.801   8.300 -0.1657  0.0607 -0.6390
 4265TIP3    H134354   0.248   6.796   8.333  0.0948  0.9207 -1.1762
 4265TIP3    H234355   0.103   6.775   8.373  0.5836 -1.8556 -0.7173
 4266TIP3   OH234356   0.058   3.283   8.563  0.5117  0.1380 -0.6253
 4266TIP3    H134357   0.076   3.226   8.488 -0.6464 -1.6129  0.3759
 4266TIP3    H234358   0.107   3.245   8.635 -0.4009  0.2966  0.0997
 4267TIP3   OH234359   2.945   3.614   1.111 -0.2832  0.7979  0.0439
 4267TIP3    H134360   2.907   3.553   1.174 -0.4919 -0.5546 -1.3246
 4267TIP3    H234361   3.036   3.585   1.103  0.0829  1.7443  0.6108
 4268TIP3   OH234362   0.866   2.922   2.240 -0.2779 -0.1423  0.0078
 4268TIP3    H134363   0.942   2.963   2.197  1.1786 -0.4443  2.1537
 4268TIP3    H234364   0.879   2.828   2.227  0.5379 -0.2728  1.6103
 4269TIP3   OH234365   0.978   1.154   2.612  0.0281  0.3501 -0.6485
 4269TIP3    H134366   0.960   1.142   2.519  1.1000 -0.8511 -0.7201
 4269TIP3    H234367   1.038   1.083   2.635 -1.5784 -0.4726  1.3696
 4270TIP3   OH234368   4.688   3.991   8.625  0.1765 -0.2127  0.0044
 4270TIP3    H134369   4.658   4.015   8.713  1.5843  0.7139  0.2749
 4270TIP3    H234370   4.783   4.001   8.629  0.5551 -2.7178 -0.8719
 4271TIP3   OH234371   4.690   6.440   6.246 -0.4241 -0.5238 -0.1011
 4271TIP3    H134372   4.748   6.471   6.315  0.5733 -0.1317 -1.0788
 4271TIP3    H234373   4.734   6.465   6.165 -2.2171  0.2842 -0.8833
 4272TIP3   OH234374   4.238   2.716   0.118  0.2722  0.3376  0.0154
 4272TIP3    H134375   4.250   2.681   0.030 -1.3101 -0.2194 -0.0083
 4272TIP3    H234376   4.325   2.748   0.143  0.6541  0.9518 -1.9231
 4273TIP3   OH234377   0.973   4.876   2.006 -0.1091  0.0651  0.2913
 4273TIP3    H134378   1.029   4.800   1.989  0.4631  0.5256  0.0428
 4273TIP3    H234379   0.892   4.858   1.959  0.9546  0.7241 -1.8830
 4274TIP3   OH234380   1.006   4.204   2.493 -0.2123 -0.4094  0.3798
 4274TIP3    H134381   1.037   4.124   2.450 -0.0739 -0.5278  0.7012
 4274TIP3    H234382   0.929   4.229   2.442  0.6913  0.1864 -0.7495
 4275TIP3   OH234383   6.536   0.651   6.974  0.3402 -0.3552 -0.3359
 4275TIP3    H134384   6.509   0.722   6.917  0.2147 -0.2407 -0.1356
 4275TIP3    H234385   6.458   0.596   6.982 -0.4249  0.9218  1.6828
 4276TIP3   OH234386   0.057   0.999   0.098  0.3588 -0.1618  0.2844
 4276TIP3    H134387   0.059   1.068   0.165 -1.2023  0.1357  0.0514
 4276TIP3    H234388  -0.025   0.953   0.113  0.8519 -1.2507 -0.2955
 4277TIP3   OH234389   1.028   3.848   7.149  0.2364 -0.9910  0.3745
 4277TIP3    H134390   0.968   3.922   7.158  0.3337 -0.5965 -1.7380
 4277TIP3    H234391   1.092   3.877   7.084  2.0967 -1.8201  1.7235
 4278TIP3   OH234392   6.608   5.198   0.098 -0.0273 -0.1473  0.2707
 4278TIP3    H134393   6.536   5.179   0.037 -2.0271  1.3809  1.9892
 4278TIP3    H234394   6.567   5.194   0.185  2.0002  0.7113  1.3269
 4279TIP3   OH234395   3.709   3.367   6.417  0.3584 -0.0854  1.0321
 4279TIP3    H134396   3.618   3.397   6.414  0.5724  0.5536  0.6611
 4279TIP3    H234397   3.724   3.328   6.330  0.4885 -0.0259  1.0273
 4280TIP3   OH234398   3.225   5.187   0.100  0.1265 -0.6028 -0.0753
 4280TIP3    H134399   3.271   5.234   0.030  0.0265 -0.7524 -0.2425
 4280TIP3    H234400   3.168   5.125   0.054  1.1841 -1.7894  0.1454
 4281TIP3   OH234401   3.791   2.184   0.969  0.7961 -0.5128  0.5439
 4281TIP3    H134402   3.796   2.272   0.930 -0.7098 -0.4433  0.4717
 4281TIP3    H234403   3.836   2.194   1.053  1.9689 -0.0699 -0.1081
 4282TIP3   OH234404   1.154   5.172   8.048  0.6257 -0.2058  0.2107
 4282TIP3    H134405   1.176   5.257   8.011  1.4226 -0.3311  0.3630
 4282TIP3    H234406   1.111   5.192   8.131 -1.1126  0.0735 -0.7259
 4283TIP3   OH234407   6.180   5.645   1.040  0.5556  0.6765 -0.0139
 4283TIP3    H134408   6.256   5.592   1.064  0.2449  0.5992  0.8578
 4283TIP3    H234409   6.210   5.735   1.050  0.5025  0.6465  0.4695
 4284TIP3   OH234410   0.529   4.935   0.405  0.2335  0.3512  0.1954
 4284TIP3    H134411   0.458   4.933   0.469 -0.5481  2.1223 -0.5388
 4284TIP3    H234412   0.589   4.866   0.433 -0.9896 -0.1331  1.7586
 4285TIP3   OH234413   2.156   3.446   2.458 -0.0963  0.4783 -0.3197
 4285TIP3    H134414   2.114   3.530   2.443  0.8780  0.8483 -1.1047
 4285TIP3    H234415   2.204   3.428   2.377 -0.1883 -0.7763 -0.1176
 4286TIP3   OH234416   4.609   0.132   7.203 -0.7919 -0.2181 -0.2297
 4286TIP3    H134417   4.653   0.058   7.161 -2.0843 -0.2511 -1.6279
 4286TIP3    H234418   4.652   0.209   7.168  0.5306 -0.2570  1.1987
 4287TIP3   OH234419   6.241   1.062   0.952 -0.4643  0.0471  0.3772
 4287TIP3    H134420   6.186   1.049   1.029 -1.3882  0.7547 -0.1471
 4287TIP3    H234421   6.239   1.156   0.937  1.2300  0.1514  0.5738
 4288TIP3   OH234422   2.387   3.712   7.605 -0.3382 -0.8161 -0.3497
 4288TIP3    H134423   2.345   3.709   7.519 -0.5373 -0.8618 -0.2502
 4288TIP3    H234424   2.421   3.802   7.612  3.3162 -1.8470 -2.2141
 4289TIP3   OH234425   0.971   4.455   6.769 -0.0475  0.2682  0.0314
 4289TIP3    H134426   0.886   4.411   6.776  0.9305 -1.5932  1.0191
 4289TIP3    H234427   0.949   4.547   6.751 -2.2192 -0.3460 -0.7615
 4290TIP3   OH234428   3.211   2.615   1.959  0.1637  0.0888  0.0514
 4290TIP3    H134429   3.290   2.660   1.929 -0.1474  1.6139  1.3593
 4290TIP3    H234430   3.191   2.656   2.043 -2.2601  0.0539 -0.4322
 4291TIP3   OH234431   3.560   3.484   0.150  0.1336  0.7444  0.1141
 4291TIP3    H134432   3.647   3.522   0.134  0.6033 -0.7318 -1.0153
 4291TIP3    H234433   3.557   3.406   0.095 -1.0390 -0.5285  1.8853
 4292TIP3   OH234434   2.224   1.096   0.302 -0.4052 -0.2137  0.1301
 4292TIP3    H134435   2.193   1.055   0.383 -0.4874 -0.2526  0.0791
 4292TIP3    H234436   2.312   1.061   0.289  0.0794  0.6698  0.8296
 4293TIP3   OH234437   3.064   4.249   0.282 -0.7800 -0.0409  0.2647
 4293TIP3    H134438   3.079   4.192   0.357 -1.2521  1.4288  1.5398
 4293TIP3    H234439   2.976   4.227   0.252 -0.6982 -0.4445  0.3145
 4294TIP3   OH234440   0.512   3.884   1.668 -0.4475  0.3869 -0.2543
 4294TIP3    H134441   0.458   3.963   1.659  0.4459  0.9922 -0.3885
 4294TIP3    H234442   0.591   3.902   1.618  0.4881  0.0689  1.0400
 4295TIP3   OH234443   0.751   5.944   6.394 -0.2517  0.8219  0.1914
 4295TIP3    H134444   0.826   5.891   6.418 -1.3493 -0.3235  1.2289
 4295TIP3    H234445   0.675   5.894   6.425 -1.4018  2.3012 -0.1222
 4296TIP3   OH234446   0.124   0.104   6.691  0.0103 -0.1556 -0.4380
 4296TIP3    H134447   0.141   0.189   6.731  0.4892 -0.8347  0.8814
 4296TIP3    H234448   0.091   0.124   6.604  0.4859  1.3647 -0.2909
 4297TIP3   OH234449   1.600   4.913   7.253 -0.6874 -0.8160 -0.0624
 4297TIP3    H134450   1.621   4.841   7.194 -0.1902  0.0755 -1.0011
 4297TIP3    H234451   1.671   4.913   7.317 -0.0471 -0.4218 -0.7619
 4298TIP3   OH234452   6.377   2.631   7.214 -0.7636  0.5080 -0.0899
 4298TIP3    H134453   6.328   2.575   7.276 -0.1675  1.6980  1.5301
 4298TIP3    H234454   6.324   2.710   7.206 -0.8236  0.3711 -1.1207
 4299TIP3   OH234455   6.039   2.835   7.731 -0.0629 -0.0073  0.1285
 4299TIP3    H134456   5.966   2.897   7.727  2.5501  3.3869 -0.3584
 4299TIP3    H234457   6.061   2.830   7.824 -0.2409 -0.1617  0.1629
 4300TIP3   OH234458   2.207   4.001   7.424 -0.0733 -0.0900 -0.5543
 4300TIP3    H134459   2.116   4.025   7.441 -0.7576 -2.5420 -0.3789
 4300TIP3    H234460   2.252   4.018   7.506 -1.5294 -3.5939  1.1830
 4301TIP3   OH234461   3.540   2.310   1.846 -0.0316  0.2964 -0.0066
 4301TIP3    H134462   3.483   2.322   1.771  0.3259 -0.5761 -0.4219
 4301TIP3    H234463   3.532   2.217   1.869  1.0626  0.1965  0.0447
 4302TIP3   OH234464   0.145   0.151   1.381 -0.2467  0.0594  0.7551
 4302TIP3    H134465   0.138   0.203   1.462  0.0036  1.9862 -0.3883
 4302TIP3    H234466   0.161   0.216   1.313  1.1051 -1.6452 -0.6486
 4303TIP3   OH234467   4.491   5.482   7.795 -0.3534  0.3924  0.1442
 4303TIP3    H134468   4.517   5.551   7.735 -0.1712  0.2811  0.0930
 4303TIP3    H234469   4.549   5.493   7.871  0.1010 -0.0806 -0.1225
 4304TIP3   OH234470   1.101   0.936   0.083 -0.4234  0.4704 -0.2569
 4304TIP3    H134471   1.184   0.924   0.130  0.2801  0.5546 -1.4217
 4304TIP3    H234472   1.061   1.012   0.124  0.8549  1.4261 -0.7030
 4305TIP3   OH234473   6.092   1.752   0.403 -0.0296  0.2121  0.7553
 4305TIP3    H134474   6.177   1.709   0.410 -0.2675 -0.4293 -0.0714
 4305TIP3    H234475   6.072   1.751   0.310 -1.1009  0.0382  0.9695
 4306TIP3   OH234476   0.456   4.150   1.964 -0.3201 -0.3189  0.2654
 4306TIP3    H134477   0.465   4.169   1.870  2.5865  1.8334  0.8413
 4306TIP3    H234478   0.486   4.060   1.973  0.4672 -0.1745 -0.7456
 4307TIP3   OH234479   4.087   2.571   1.124  0.3003  0.0580  0.4169
 4307TIP3    H134480   4.121   2.481   1.124 -2.8327 -1.2695  0.0780
 4307TIP3    H234481   4.042   2.579   1.209 -0.8604  0.6821 -0.2383
 4308TIP3   OH234482   2.646   3.208   1.881 -0.0134  0.0091  0.2505
 4308TIP3    H134483   2.723   3.265   1.875  1.1615 -1.5975 -0.4806
 4308TIP3    H234484   2.674   3.137   1.939 -1.1798 -0.2766  0.4750
 4309TIP3   OH234485   0.973   1.938   8.421 -0.4356 -0.3259 -0.0864
 4309TIP3    H134486   0.985   1.973   8.333  1.1009 -0.0928  0.1874
 4309TIP3    H234487   0.879   1.949   8.439 -1.0263 -1.4299 -2.1143
 4310TIP3   OH234488   2.512   1.535   0.679 -0.5508  0.1045 -0.4307
 4310TIP3    H134489   2.458   1.496   0.748  0.7159 -1.2534 -0.1666
 4310TIP3    H234490   2.450   1.555   0.609 -1.5606 -0.3846  0.2976
 4311TIP3   OH234491   2.779   0.415   7.293  0.4093  0.5420 -0.2427
 4311TIP3    H134492   2.791   0.322   7.274  0.5465  0.1233  1.6526
 4311TIP3    H234493   2.827   0.428   7.375 -0.5171  2.0386  0.0847
 4312TIP3   OH234494   4.484   6.381   8.408  0.7610 -0.4857 -0.2781
 4312TIP3    H134495   4.499   6.429   8.490  1.8332  1.1132 -1.3620
 4312TIP3    H234496   4.393   6.351   8.415 -0.1054  2.0378  0.3280
 4313TIP3   OH234497   0.460   0.533   0.382  0.1747 -0.0119  0.3171
 4313TIP3    H134498   0.487   0.625   0.384  0.8731  0.1126 -4.1394
 4313TIP3    H234499   0.536   0.487   0.347 -1.5116 -1.5108 -1.6161
 4314TIP3   OH234500   3.978   5.908   0.758 -0.2245 -0.1919 -0.4315
 4314TIP3    H134501   3.895   5.942   0.724 -1.2439 -0.8616  1.2827
 4314TIP3    H234502   4.022   5.984   0.794 -1.0690 -0.1481  0.5484
 4315TIP3   OH234503   2.545   0.832   2.144  0.2425 -0.5355 -0.1254
 4315TIP3    H134504   2.609   0.802   2.209 -0.6690 -1.2711  0.4656
 4315TIP3    H234505   2.516   0.752   2.100 -2.5097 -0.6845  1.7241
 4316TIP3   OH234506   3.910   4.335   6.457 -0.0825 -0.2192  0.0443
 4316TIP3    H134507   3.850   4.382   6.398 -1.0052 -1.6380 -0.2032
 4316TIP3    H234508   3.997   4.350   6.420 -0.5008  0.1678 -0.8087
 4317TIP3   OH234509   4.552   4.897   1.979 -0.2358 -0.0992  0.1156
 4317TIP3    H134510   4.590   4.810   1.967 -0.1374  0.1235 -1.5373
 4317TIP3    H234511   4.562   4.939   1.893  1.8286  2.4013  1.4318
 4318TIP3   OH234512   3.821   2.282   2.535 -0.7187 -0.0513  0.1829
 4318TIP3    H134513   3.779   2.293   2.620 -1.0626 -2.0454  0.3359
 4318TIP3    H234514   3.914   2.292   2.553 -0.8998  1.5124  0.3874
 4319TIP3   OH234515   4.402   1.735   1.103  0.2176  0.6011  0.1083
 4319TIP3    H134516   4.496   1.750   1.095  1.0426 -2.1561  2.4937
 4319TIP3    H234517   4.376   1.698   1.019  1.8723 -0.7840  0.1445
 4320TIP3   OH234518   2.642   4.511   7.557  1.0825  0.1281  0.0684
 4320TIP3    H134519   2.634   4.430   7.607  0.2646  0.7042  0.9032
 4320TIP3    H234520   2.737   4.527   7.554  1.2567 -0.8443 -0.1147
 4321TIP3   OH234521   0.000   5.365   8.541  0.3508 -0.2006  0.1482
 4321TIP3    H134522  -0.021   5.391   8.452 -0.9720 -0.8447  0.2548
 4321TIP3    H234523   0.082   5.411   8.561  1.2207 -0.8286 -1.7347
 4322TIP3   OH234524   4.243   4.980   6.917  0.1670  0.2263 -0.5752
 4322TIP3    H134525   4.197   5.016   6.842 -1.9723 -1.0969 -0.0166
 4322TIP3    H234526   4.280   4.897   6.885  0.3846  0.2990 -0.5106
 4323TIP3   OH234527   0.243   3.500   0.272  0.2268  0.1264  0.9530
 4323TIP3    H134528   0.267   3.579   0.223  0.2013 -0.1987  0.4025
 4323TIP3    H234529   0.326   3.460   0.295  0.2345 -0.3625  0.1027
 4324TIP3   OH234530   4.423   5.352   0.937 -0.5209 -0.1361 -0.0728
 4324TIP3    H134531   4.353   5.399   0.982 -1.1767 -0.3823 -0.8158
 4324TIP3    H234532   4.379   5.306   0.865  0.6334  1.0426 -1.5844
 4325TIP3   OH234533   0.572   6.671   8.275 -0.1776  0.4133 -0.4590
 4325TIP3    H134534   0.623   6.634   8.347 -0.0925  1.7162  0.1644
 4325TIP3    H234535   0.616   6.638   8.196  1.0293  0.6861  0.0718
 4326TIP3   OH234536   3.689   3.774   8.448  0.0548  0.3818 -0.1171
 4326TIP3    H134537   3.727   3.688   8.463  0.2625  0.8318  2.2079
 4326TIP3    H234538   3.750   3.835   8.489 -0.0811  1.6721 -1.7385
 4327TIP3   OH234539   0.612   0.408   0.182  0.6509 -0.2490  0.4019
 4327TIP3    H134540   0.702   0.427   0.153  0.5651  1.2736  1.0012
 4327TIP3    H234541   0.618   0.323   0.226  1.3560 -1.1774 -1.3890
 4328TIP3   OH234542   4.574   0.931   7.571 -0.2232  0.5788  0.2446
 4328TIP3    H134543   4.510   0.926   7.499 -0.8213  0.9358  0.7394
 4328TIP3    H234544   4.523   0.911   7.649 -0.0533  2.2739  0.8166
 4329TIP3   OH234545   6.616   4.331   8.174  0.5150 -0.4101 -0.2568
 4329TIP3    H134546   6.683   4.318   8.107  0.6987  1.1220 -0.4131
 4329TIP3    H234547   6.545   4.272   8.148  1.8275 -2.1634 -0.0044
 4330TIP3   OH234548   6.655   4.601   1.699 -0.6263 -0.2898  0.1478
 4330TIP3    H134549   6.695   4.677   1.741 -0.8583 -0.0259 -0.1012
 4330TIP3    H234550   6.610   4.637   1.623 -0.1057 -0.7718 -0.4033
 4331TIP3   OH234551   1.452   3.814   0.898 -0.4035  0.4865 -0.4415
 4331TIP3    H134552   1.428   3.860   0.817 -0.5656 -0.5040 -0.9618
 4331TIP3    H234553   1.399   3.856   0.966 -2.3396 -0.5097 -1.2938
 4332TIP3   OH234554   6.514   6.806   8.711  0.0410  0.3310 -0.2846
 4332TIP3    H134555   6.604   6.832   8.731 -0.5731  1.6095  1.0207
 4332TIP3    H234556   6.460   6.870   8.758 -1.5516 -0.2001 -1.3273
 4333TIP3   OH234557   6.713   4.455   8.406  0.2176 -0.4163  0.2567
 4333TIP3    H134558   6.680   4.395   8.339  0.8611 -0.5040  0.0120
 4333TIP3    H234559   6.659   4.534   8.396  0.1928 -0.4919 -0.2530
 4334TIP3   OH234560   0.438   2.276   6.792  0.0216  0.4503  0.9125
 4334TIP3    H134561   0.499   2.243   6.727 -0.7181  1.4615 -0.3442
 4334TIP3    H234562   0.375   2.205   6.804  1.1025 -0.3882  1.8172
 4335TIP3   OH234563   2.038   3.402   7.125  0.2214 -0.5526 -0.6840
 4335TIP3    H134564   2.001   3.360   7.047 -0.7187  0.8399 -1.0182
 4335TIP3    H234565   2.059   3.491   7.096  2.0027 -0.6953  0.0537
 4336TIP3   OH234566   2.281   1.504   7.296 -0.1266 -0.2769  0.6333
 4336TIP3    H134567   2.367   1.476   7.264  0.0269 -0.0890  0.8896
 4336TIP3    H234568   2.261   1.443   7.367  1.2619  1.6467  2.8313
 4337TIP3   OH234569   0.052   3.680   7.513 -0.1399  0.3778  0.0311
 4337TIP3    H134570   0.013   3.690   7.600  1.8854 -0.4510  1.1189
 4337TIP3    H234571   0.080   3.768   7.489  0.3058  0.4573  0.7814
 4338TIP3   OH234572   2.965   3.153   0.239  0.2752  0.1170  0.1787
 4338TIP3    H134573   2.933   3.076   0.286 -0.1426 -0.8113 -1.5181
 4338TIP3    H234574   2.916   3.153   0.157  1.2023  1.4700 -0.4186
 4339TIP3   OH234575   5.769   5.022   1.493 -0.0311  0.0595 -0.0077
 4339TIP3    H134576   5.757   5.055   1.582 -0.6064  0.0090 -0.0624
 4339TIP3    H234577   5.754   5.098   1.437  0.0255  0.0223 -0.0727
 4340TIP3   OH234578   3.351   1.094   8.183  0.5061 -0.2550 -0.2342
 4340TIP3    H134579   3.405   1.111   8.106  0.0224  1.0732 -0.3030
 4340TIP3    H234580   3.375   1.162   8.245 -1.0107  0.3462 -0.2504
 4341TIP3   OH234581   0.876   0.409   0.150 -0.2745 -0.5120 -0.0554
 4341TIP3    H134582   0.901   0.501   0.146 -1.7104 -0.1375 -1.0733
 4341TIP3    H234583   0.943   0.363   0.099 -1.1364  0.3589 -2.0443
 4342TIP3   OH234584   1.212   6.815   7.650  0.1758 -0.2657  0.6093
 4342TIP3    H134585   1.261   6.765   7.715  0.5863 -1.4196 -0.5469
 4342TIP3    H234586   1.120   6.794   7.666  0.0231  1.4529  2.4122
 4343TIP3   OH234587   6.022   1.333   0.568 -0.6232 -0.3474 -0.2461
 4343TIP3    H134588   6.012   1.262   0.632 -1.2101  0.4509  0.5688
 4343TIP3    H234589   5.938   1.378   0.568 -0.4818 -0.0604 -1.2635
 4344TIP3   OH234590   2.923   2.542   7.657 -0.6329  0.2117  0.4653
 4344TIP3    H134591   2.874   2.517   7.735 -1.1916 -0.1604  0.0065
 4344TIP3    H234592   2.856   2.560   7.591 -0.1744  0.7281  0.1265
 4345TIP3   OH234593   1.037   2.086   0.110  0.3006  0.2553  0.2410
 4345TIP3    H134594   1.082   2.095   0.194 -2.1593  2.1459  1.5219
 4345TIP3    H234595   0.944   2.083   0.134 -0.3913 -1.7921 -2.3180
 4346TIP3   OH234596   0.836   3.451   2.554 -0.7317 -0.1084 -0.7353
 4346TIP3    H134597   0.908   3.511   2.537 -0.0011 -0.2629  1.5606
 4346TIP3    H234598   0.878   3.365   2.559 -1.7594 -0.9733 -4.0016
 4347TIP3   OH234599   5.157   1.787   1.170  0.2697 -0.1171 -0.5429
 4347TIP3    H134600   5.180   1.874   1.136 -0.3962  0.5953  0.7456
 4347TIP3    H234601   5.227   1.767   1.232 -0.5763  0.4129  0.6329
 4348TIP3   OH234602   4.755   6.236   0.457  0.2469 -0.3120 -0.1695
 4348TIP3    H134603   4.813   6.309   0.478  0.1407 -0.3286  0.1870
 4348TIP3    H234604   4.779   6.168   0.519 -0.2716 -0.2562  0.1005
 4349TIP3   OH234605   1.706   5.521   1.069 -0.0042  0.1854  0.1680
 4349TIP3    H134606   1.802   5.524   1.064  0.0852 -0.1095  1.4593
 4349TIP3    H234607   1.684   5.587   1.135 -0.6272 -0.3828  0.5305
 4350TIP3   OH234608   6.133   4.889   0.034 -0.0598 -0.6113  0.5553
 4350TIP3    H134609   6.127   4.917   0.125  1.2355  1.1701  0.1694
 4350TIP3    H234610   6.163   4.968  -0.013 -0.8855 -1.4073 -1.4437
 4351TIP3   OH234611   6.007   4.757   2.104  0.4174  0.0003  0.0130
 4351TIP3    H134612   6.036   4.846   2.082  0.2335  0.6332  2.1031
 4351TIP3    H234613   6.088   4.706   2.108  0.4090 -0.3840 -2.7678
 4352TIP3   OH234614   0.394   6.502   2.394  0.0874 -0.4317  0.1018
 4352TIP3    H134615   0.376   6.482   2.486  1.8606 -1.1626  0.3140
 4352TIP3    H234616   0.404   6.597   2.392  0.2380 -0.4307  0.7043
 4353TIP3   OH234617   4.352   6.461   1.400 -0.0212 -0.3992  0.2625
 4353TIP3    H134618   4.408   6.437   1.325  1.7213  1.1237  1.0011
 4353TIP3    H234619   4.345   6.380   1.451  1.3623 -0.6709  0.0553
 4354TIP3   OH234620   4.247   2.077   7.045 -0.0459 -0.5397  0.4577
 4354TIP3    H134621   4.217   2.110   6.960 -1.4771  0.8676  1.4324
 4354TIP3    H234622   4.242   1.982   7.037  0.3704 -0.4434 -1.1991
 4355TIP3   OH234623   0.059   1.227   0.974  0.0603  0.3132 -0.1254
 4355TIP3    H134624   0.026   1.162   0.912  1.6570 -1.5399  0.8262
 4355TIP3    H234625  -0.007   1.296   0.975 -2.3134 -1.7976 -0.3999
 4356TIP3   OH234626   4.288   2.767   7.533  0.1441  0.0726 -0.0052
 4356TIP3    H134627   4.280   2.736   7.443 -0.3056  0.8317 -0.2328
 4356TIP3    H234628   4.377   2.743   7.559 -0.0466 -1.0252 -0.3107
 4357TIP3   OH234629   0.758   2.929   0.562 -0.1524  0.4175 -0.2507
 4357TIP3    H134630   0.670   2.891   0.563 -0.2131  0.5050 -1.0351
 4357TIP3    H234631   0.747   3.013   0.517  0.4908 -0.0159 -1.2651
 4358TIP3   OH234632   0.402   1.944   1.442  0.1577  0.0834 -0.3694
 4358TIP3    H134633   0.406   1.877   1.510 -0.9640  1.5697  1.2592
 4358TIP3    H234634   0.491   1.978   1.436  0.3791 -0.4340 -0.0194
 4359TIP3   OH234635   3.219   1.010   6.842 -0.7688 -0.2588 -0.6538
 4359TIP3    H134636   3.169   1.017   6.761 -0.1421  1.4517 -0.9279
 4359TIP3    H234637   3.231   1.100   6.871 -0.3545 -0.8015  0.9672
 4360TIP3   OH234638   4.898   1.795   8.332  0.0515 -0.1648 -0.1909
 4360TIP3    H134639   4.932   1.716   8.290 -0.4718 -0.9321  0.7961
 4360TIP3    H234640   4.843   1.835   8.266  0.2547 -0.6744 -0.6769
 4361TIP3   OH234641   5.863   5.074   0.074 -0.7792  0.1690  0.0815
 4361TIP3    H134642   5.824   5.160   0.088  1.5068  1.1058  1.2156
 4361TIP3    H234643   5.915   5.084  -0.005 -1.1828 -0.4389 -0.2648
 4362TIP3   OH234644   4.657   0.017   0.222  0.4398 -0.0164 -1.3538
 4362TIP3    H134645   4.620  -0.026   0.299  0.7055 -0.7092 -1.6000
 4362TIP3    H234646   4.611   0.101   0.216 -0.3349 -0.4104 -1.0463
 4363TIP3   OH234647   6.583   0.817   0.569 -0.6769 -0.5025  0.2668
 4363TIP3    H134648   6.536   0.817   0.485 -0.4840 -1.2725  0.1543
 4363TIP3    H234649   6.573   0.728   0.602  0.7604 -0.7053  0.1995
 4364TIP3   OH234650   2.105   6.042   6.530 -0.5451  0.4168 -0.0801
 4364TIP3    H134651   2.103   5.962   6.583 -1.0545  1.0766  0.9153
 4364TIP3    H234652   2.014   6.071   6.526 -0.3783  0.9035 -0.5194
 4365TIP3   OH234653   0.090   1.434   2.733  0.1058 -0.0939 -0.0846
 4365TIP3    H134654   0.175   1.401   2.760  1.2092  0.0058 -3.0955
 4365TIP3    H234655   0.037   1.355   2.719  0.4447 -0.2627 -0.4203
 4366TIP3   OH234656   6.711   3.857   0.733 -0.4355  0.1067 -0.0658
 4366TIP3    H134657   6.634   3.913   0.738  0.2281  1.2331 -1.5587
 4366TIP3    H234658   6.784   3.918   0.719  0.4598 -1.0612 -0.6614
 4367TIP3   OH234659   5.955   2.320   7.833 -0.3376 -0.2201  0.9444
 4367TIP3    H134660   5.951   2.268   7.913 -1.8136  1.5918  2.1141
 4367TIP3    H234661   5.909   2.401   7.854  0.0672  0.7190 -1.4565
 4368TIP3   OH234662   0.994   4.194   0.457 -0.1491  0.3573  0.6852
 4368TIP3    H134663   0.978   4.120   0.516  0.4098  0.9163  1.5640
 4368TIP3    H234664   0.982   4.158   0.369 -1.0749 -0.4812  1.1299
 4369TIP3   OH234665   5.528   4.559   7.607  0.2894 -0.7890 -0.1480
 4369TIP3    H134666   5.467   4.570   7.680  0.0489  1.0261 -0.5523
 4369TIP3    H234667   5.514   4.470   7.576 -0.0029 -1.4004  1.6513
 4370TIP3   OH234668   4.791   6.638   8.278 -0.2793  1.2763  0.5426
 4370TIP3    H134669   4.823   6.562   8.229  0.1593  0.6327  1.7979
 4370TIP3    H234670   4.755   6.602   8.359  0.0904  2.4058  1.2431
 4371TIP3   OH234671   5.325   4.468   7.228  0.3412 -0.0670 -0.4191
 4371TIP3    H134672   5.327   4.562   7.245 -0.9805 -0.2133  0.7967
 4371TIP3    H234673   5.411   4.437   7.254 -0.0072  0.4753  1.5173
 4372TIP3   OH234674   2.526   3.464   1.440 -0.1199  0.1544 -0.4312
 4372TIP3    H134675   2.582   3.424   1.373 -1.1625  0.8336 -1.7460
 4372TIP3    H234676   2.581   3.533   1.478  0.0590  0.6031 -1.4753
 4373TIP3   OH234677   0.050   4.127   0.868  0.4224 -0.2749  0.1463
 4373TIP3    H134678   0.105   4.124   0.947 -1.0691  0.4940  1.2497
 4373TIP3    H234679  -0.037   4.105   0.899 -0.7123  2.4853 -0.8017
 4374TIP3   OH234680   5.840   1.006   8.706  0.6562 -0.1471 -0.1017
 4374TIP3    H134681   5.795   1.034   8.626 -0.1458  0.0718  0.4135
 4374TIP3    H234682   5.802   0.920   8.725  1.3687 -0.5200 -0.3484
 4375TIP3   OH234683   1.348   0.531   1.665 -0.4921  0.5927  0.4529
 4375TIP3    H134684   1.417   0.553   1.727 -1.2788  1.0704  1.1824
 4375TIP3    H234685   1.394   0.507   1.585  0.5772 -0.4638  1.3342
 4376TIP3   OH234686   0.385   0.426   8.677  0.4552 -0.6785  0.6394
 4376TIP3    H134687   0.317   0.487   8.705  1.8075  1.1833  0.0893
 4376TIP3    H234688   0.467   0.473   8.692  1.4868 -1.7374 -1.2715
 4377TIP3   OH234689   5.818   5.981   8.111  0.4499 -0.4964 -0.1337
 4377TIP3    H134690   5.848   5.890   8.106  1.8123 -0.0313 -3.0695
 4377TIP3    H234691   5.723   5.975   8.110  0.4692 -1.9737 -2.3256
 4378TIP3   OH234692   4.072   1.098   7.760 -0.3152  0.0435 -0.1923
 4378TIP3    H134693   4.094   1.045   7.836 -3.0563  1.3115  1.6587
 4378TIP3    H234694   4.150   1.095   7.705  1.9991 -0.5936  2.8562
 4379TIP3   OH234695   1.872   3.889   8.626  0.4100 -0.2664 -0.0135
 4379TIP3    H134696   1.961   3.890   8.661 -0.4570 -0.9058  2.3967
 4379TIP3    H234697   1.870   3.959   8.561  1.9110  1.6382  1.8766
 4380TIP3   OH234698   0.889   0.632   7.930 -0.4012 -0.7163 -0.4227
 4380TIP3    H134699   0.930   0.706   7.975  1.8470 -0.6464 -2.3447
 4380TIP3    H234700   0.963   0.582   7.895 -1.9228 -1.2372 -3.1639
 4381TIP3   OH234701   4.351   5.850   7.226  0.6562  0.0435  0.2694
 4381TIP3    H134702   4.440   5.835   7.260  0.1020 -1.8347  1.0759
 4381TIP3    H234703   4.335   5.775   7.168  0.0284  1.0115 -0.8468
 4382TIP3   OH234704   1.643   4.403   2.003  0.1483  0.3202  0.0861
 4382TIP3    H134705   1.584   4.399   1.928  0.6694 -1.3756 -0.2666
 4382TIP3    H234706   1.592   4.367   2.076  0.3733 -0.1377  0.0230
 4383TIP3   OH234707   6.470   5.786   0.884  0.5755  0.2064 -0.5363
 4383TIP3    H134708   6.521   5.735   0.947  1.9667  0.1087 -1.7107
 4383TIP3    H234709   6.444   5.724   0.817 -0.9719  0.2999 -0.0758
 4384TIP3   OH234710   5.628   1.416   7.906 -0.5371  0.7273  0.0012
 4384TIP3    H134711   5.654   1.324   7.892 -0.6758  0.7606 -0.5035
 4384TIP3    H234712   5.552   1.411   7.964 -2.2417  0.3383 -2.1492
 4385TIP3   OH234713   2.952   3.699   1.464 -0.2446  0.8742  0.2930
 4385TIP3    H134714   2.969   3.618   1.510  1.7431  0.4112 -1.1244
 4385TIP3    H234715   2.945   3.765   1.533 -0.5745 -0.2794  1.3906
 4386TIP3   OH234716   4.267   1.436   1.866 -0.1750  0.0003 -0.5048
 4386TIP3    H134717   4.316   1.469   1.790  0.9586  1.9682  0.9770
 4386TIP3    H234718   4.332   1.389   1.918 -0.5702 -0.0348 -0.0345
 4387TIP3   OH234719   3.033   4.558   6.377  0.3658 -0.1566  0.2025
 4387TIP3    H134720   3.042   4.463   6.362 -1.3970 -0.3641  0.2475
 4387TIP3    H234721   3.048   4.569   6.470  1.5246 -0.2363  0.0452
 4388TIP3   OH234722   0.592   2.370   0.791  0.0685 -0.0340  0.3963
 4388TIP3    H134723   0.593   2.466   0.782  0.5316 -0.2306 -5.1183
 4388TIP3    H234724   0.502   2.345   0.771  0.6666 -0.7727 -1.5704
 4389TIP3   OH234725   5.710   0.740   1.845  0.4549  0.1924  0.1527
 4389TIP3    H134726   5.718   0.818   1.900 -1.0224  1.0921 -0.8370
 4389TIP3    H234727   5.792   0.693   1.858  1.6626  2.2261  0.2964
 4390TIP3   OH234728   2.249   5.080   7.816  0.2626  0.2719  0.0060
 4390TIP3    H134729   2.273   5.145   7.750  0.3511  2.2246  1.8354
 4390TIP3    H234730   2.327   5.071   7.870 -0.3524  0.0520  0.8750
 4391TIP3   OH234731   3.381   3.740   7.653 -0.1290 -0.1425 -0.3903
 4391TIP3    H134732   3.474   3.726   7.634  0.1923  1.4248 -0.1093
 4391TIP3    H234733   3.339   3.744   7.567  0.3192  0.6170 -0.5879
 4392TIP3   OH234734   5.390   2.806   7.434  0.1348  0.2179 -0.0339
 4392TIP3    H134735   5.475   2.805   7.390  0.2393  0.7374  0.1466
 4392TIP3    H234736   5.338   2.869   7.384  0.4918  1.3746  0.9893
 4393TIP3   OH234737   1.787   3.515   0.081 -0.0388 -0.6642  0.1109
 4393TIP3    H134738   1.777   3.471   0.166 -0.7603  1.8536  1.4138
 4393TIP3    H234739   1.794   3.608   0.103  0.7318 -0.0208 -2.5562
 4394TIP3   OH234740   1.915   2.133   0.452  0.1404  0.4927 -0.0002
 4394TIP3    H134741   1.909   2.118   0.357 -1.4743 -1.0611  0.3067
 4394TIP3    H234742   1.885   2.051   0.492 -0.0313  1.4052  1.8547
 4395TIP3   OH234743   0.297   5.849   6.659 -0.1337  0.2266  0.0826
 4395TIP3    H134744   0.375   5.899   6.638 -1.0757  1.2497 -1.1750
 4395TIP3    H234745   0.226   5.913   6.654 -1.3059 -1.0926 -0.9071
 4396TIP3   OH234746   4.938   1.846   7.790 -0.0285 -0.0790 -0.0568
 4396TIP3    H134747   4.961   1.897   7.713 -2.1367  1.2921  0.1414
 4396TIP3    H234748   4.931   1.756   7.759  0.9064  0.1738 -1.0483
 4397TIP3   OH234749   4.310   6.564   1.777 -0.2898  0.3608  0.4526
 4397TIP3    H134750   4.296   6.626   1.849 -2.0599  0.9492 -0.3251
 4397TIP3    H234751   4.312   6.478   1.820 -2.4754  0.5922  1.1913
 4398TIP3   OH234752   6.201   3.146   8.017  0.1083 -0.6281 -0.3423
 4398TIP3    H134753   6.290   3.161   7.985  0.4202 -1.4158  0.1215
 4398TIP3    H234754   6.148   3.211   7.971  0.8586 -0.4108 -0.9316
 4399TIP3   OH234755   3.387   3.904   0.950  0.6829  0.0445 -0.1869
 4399TIP3    H134756   3.363   3.995   0.931  1.1915 -0.1812 -2.1104
 4399TIP3    H234757   3.304   3.858   0.958  0.4046  0.7637  1.4224
 4400TIP3   OH234758   3.001   1.836   7.244 -0.6459 -0.3753  0.1726
 4400TIP3    H134759   2.912   1.833   7.209 -0.8113 -0.2915  0.5792
 4400TIP3    H234760   3.052   1.882   7.177 -1.2565  1.0417  0.6537
 4401TIP3   OH234761   4.947   6.162   8.348  0.0421  0.0784  0.3599
 4401TIP3    H134762   4.977   6.157   8.439 -0.0707  1.3457  0.4830
 4401TIP3    H234763   4.877   6.227   8.350  0.2392  0.3337 -0.6865
 4402TIP3   OH234764   4.722   4.734   1.454 -0.4851  0.0893  0.3206
 4402TIP3    H134765   4.769   4.660   1.492  1.8248  1.5875  0.5958
 4402TIP3    H234766   4.709   4.710   1.362  0.3343 -0.5954  0.3755
 4403TIP3   OH234767   0.824   6.405   0.358 -0.1960  0.0747 -0.6642
 4403TIP3    H134768   0.820   6.501   0.367  3.1512  0.3991 -1.3785
 4403TIP3    H234769   0.775   6.373   0.434 -1.6407  2.3241 -0.5347
 4404TIP3   OH234770   6.648   0.404   1.038  0.2646 -0.2497 -0.5307
 4404TIP3    H134771   6.588   0.461   0.990  0.2660  0.8685  0.7523
 4404TIP3    H234772   6.724   0.459   1.057  0.0865 -0.5192  1.0960
 4405TIP3   OH234773   0.075   6.547   7.374  0.2472 -1.0137 -0.1864
 4405TIP3    H134774   0.056   6.481   7.307  1.4062 -1.5566 -0.0051
 4405TIP3    H234775  -0.008   6.560   7.419 -0.6635 -0.3677 -1.9475
 4406TIP3   OH234776   0.760   3.044   1.670 -0.2040  0.4512 -0.2649
 4406TIP3    H134777   0.827   2.977   1.654 -1.2675 -0.4012 -1.3254
 4406TIP3    H234778   0.690   2.998   1.715 -0.3047  1.2278  0.3958
 4407TIP3   OH234779   2.574   0.883   1.206 -0.1933  0.1577 -0.6215
 4407TIP3    H134780   2.607   0.866   1.294  1.3124  2.5102 -0.6303
 4407TIP3    H234781   2.480   0.872   1.213 -0.1014  0.3145  1.3035
 4408TIP3   OH234782   6.211   6.214   1.246 -0.4287  0.1122 -0.1155
 4408TIP3    H134783   6.252   6.127   1.241  1.4522  0.9345 -0.0397
 4408TIP3    H234784   6.136   6.202   1.303 -0.9726 -1.7312 -1.1294
 4409TIP3   OH234785   1.921   6.296   6.797 -0.3803  0.0532 -0.3124
 4409TIP3    H134786   1.929   6.354   6.872 -1.2905  0.0353 -0.1878
 4409TIP3    H234787   1.848   6.332   6.746 -0.2521 -0.3577 -0.8007
 4410TIP3   OH234788   0.865   5.802   0.003  0.0358  0.2453 -0.2219
 4410TIP3    H134789   0.902   5.890   0.002 -0.2772  0.3740 -0.6740
 4410TIP3    H234790   0.800   5.802  -0.067  0.1908 -0.4166 -0.3724
 4411TIP3   OH234791   4.682   3.801   7.631  0.0435 -0.1863  0.1058
 4411TIP3    H134792   4.589   3.788   7.648  0.4860 -1.7994  1.6116
 4411TIP3    H234793   4.701   3.888   7.666 -0.7977 -0.0311  0.1913
 4412TIP3   OH234794   6.057   0.357   0.231 -0.0673 -0.2401 -0.3782
 4412TIP3    H134795   6.128   0.339   0.293  1.5120 -0.2513 -2.1161
 4412TIP3    H234796   6.079   0.441   0.193 -1.7273  0.3953 -0.0196
 4413TIP3   OH234797   3.023   4.403   8.023 -0.4964  0.1240  0.5398
 4413TIP3    H134798   3.111   4.369   8.012 -0.1743  1.2263 -0.4932
 4413TIP3    H234799   2.965   4.329   8.003  0.1332  0.4966 -3.5023
 4414TIP3   OH234800   1.123   3.116   7.758  0.2099 -0.6518 -0.7496
 4414TIP3    H134801   1.204   3.094   7.713  0.1546  0.2957 -1.3312
 4414TIP3    H234802   1.142   3.198   7.803  0.1154 -1.3353  0.5887
 4415TIP3   OH234803   6.122   4.764   8.146  0.9200  0.4402 -0.4557
 4415TIP3    H134804   6.077   4.844   8.175 -1.6273 -1.2475  0.5698
 4415TIP3    H234805   6.062   4.723   8.085  1.9618 -0.9507 -0.5956
 4416TIP3   OH234806   0.031   2.779   1.870 -0.5038 -0.5963 -0.1968
 4416TIP3    H134807   0.052   2.703   1.817 -0.6544  0.5231 -1.9526
 4416TIP3    H234808  -0.001   2.844   1.807  1.1610  1.4831  0.9856
 4417TIP3   OH234809   2.386   4.812   0.343  0.0804  0.0529 -0.2460
 4417TIP3    H134810   2.442   4.888   0.359 -0.5641  0.7064 -1.0573
 4417TIP3    H234811   2.297   4.847   0.338 -0.1876 -0.6846 -1.0239
 4418TIP3   OH234812   0.829   2.996   8.253  0.2440 -0.2611 -0.3294
 4418TIP3    H134813   0.840   2.926   8.188 -0.4028  0.9459 -1.8217
 4418TIP3    H234814   0.807   3.074   8.201 -0.2252  0.7931  1.3493
 4419TIP3   OH234815   5.253   6.364   2.116 -0.0102 -0.2137  0.4587
 4419TIP3    H134816   5.229   6.363   2.209 -2.5372 -1.5768 -0.1075
 4419TIP3    H234817   5.261   6.272   2.093 -0.6447  0.0694 -0.9527
 4420TIP3   OH234818   4.052   6.774   7.242 -0.4594 -0.3660 -0.5913
 4420TIP3    H134819   3.986   6.834   7.275 -1.2827 -0.9534 -1.1321
 4420TIP3    H234820   4.072   6.717   7.317 -0.7085 -0.3063 -0.4774
 4421TIP3   OH234821   1.928   5.440   0.877 -0.2691 -0.0722  0.3981
 4421TIP3    H134822   1.859   5.429   0.811 -0.1363  0.2808  0.1972
 4421TIP3    H234823   2.006   5.465   0.826 -0.3208  0.8185  0.7376
 4422TIP3   OH234824   6.559   5.537   2.181  0.1818  0.5350  0.0187
 4422TIP3    H134825   6.502   5.612   2.200  0.3888  1.0483 -1.2940
 4422TIP3    H234826   6.595   5.512   2.266  0.8940  2.5763  0.3654
 4423TIP3   OH234827   5.085   5.583   0.282  0.4669 -0.4574 -0.1655
 4423TIP3    H134828   5.040   5.634   0.350  1.8767 -0.1982  0.6077
 4423TIP3    H234829   5.048   5.495   0.289 -1.7994  0.3231 -1.3331
 4424TIP3   OH234830   6.403   3.833   7.763  0.3436 -0.1635 -0.1994
 4424TIP3    H134831   6.409   3.779   7.842  0.8964  0.0211 -0.1081
 4424TIP3    H234832   6.379   3.772   7.694 -0.3776 -0.2908  0.1504
 4425TIP3   OH234833   3.142   3.776   0.936  0.3724 -0.2469 -0.3179
 4425TIP3    H134834   3.095   3.806   1.013  0.2404  0.3726 -0.6325
 4425TIP3    H234835   3.151   3.681   0.948 -0.7730 -0.3397 -0.1639
 4426TIP3   OH234836   4.294   2.607   1.948 -0.9260  0.4733  0.6302
 4426TIP3    H134837   4.300   2.667   2.022 -0.1621  0.1511  0.8370
 4426TIP3    H234838   4.223   2.547   1.971 -2.2864  1.7808  0.0468
 4427TIP3   OH234839   2.750   5.616   7.201  0.0714  0.3774 -0.0573
 4427TIP3    H134840   2.677   5.653   7.250 -0.4947 -0.2156 -0.4317
 4427TIP3    H234841   2.764   5.529   7.239  2.5333  1.5377  2.0022
 4428TIP3   OH234842   1.674   3.232   1.456 -0.4144  0.4652  0.1001
 4428TIP3    H134843   1.765   3.254   1.475 -0.5772  0.3861  1.0055
 4428TIP3    H234844   1.659   3.149   1.502 -0.9458  0.4831 -0.0356
 4429TIP3   OH234845   4.828   2.799   0.129 -0.1321 -0.6436  0.6229
 4429TIP3    H134846   4.778   2.736   0.182  1.2663 -0.4137  2.3090
 4429TIP3    H234847   4.840   2.755   0.045 -0.6679 -1.9019  1.1767
 4430TIP3   OH234848   3.051   3.328   0.673 -0.1088  0.4298  0.1193
 4430TIP3    H134849   3.120   3.370   0.621 -0.6034  1.7733  0.4989
 4430TIP3    H234850   3.097   3.297   0.751  0.4708 -0.7915 -0.6695
 4431TIP3   OH234851   5.233   6.786   2.927  0.3877  0.2330 -0.1783
 4431TIP3    H134852   5.328   6.783   2.939  0.6775  0.8015 -2.1121
 4431TIP3    H234853   5.199   6.798   3.016  2.2150  1.9352  0.3776
 4432TIP3   OH234854   4.438   3.783   1.063 -0.0778  0.3550 -0.1279
 4432TIP3    H134855   4.442   3.749   0.974 -3.1984  1.1290 -0.6624
 4432TIP3    H234856   4.378   3.858   1.058 -1.5268 -0.4638  2.8467
 4433TIP3   OH234857   3.533   0.753   7.678 -0.2129 -0.0373 -0.4885
 4433TIP3    H134858   3.538   0.847   7.663  2.7946  0.2147  1.2297
 4433TIP3    H234859   3.509   0.716   7.593  2.1379  2.0619 -2.2037
 4434TIP3   OH234860   1.925   4.214   1.717  0.3291 -0.3529  0.0040
 4434TIP3    H134861   1.889   4.293   1.676  0.2174 -0.4960 -0.1700
 4434TIP3    H234862   1.984   4.177   1.651 -1.6179 -1.8811 -0.9621
 4435TIP3   OH234863   1.022   1.825   2.579 -0.1737 -0.1428 -0.5843
 4435TIP3    H134864   1.017   1.730   2.584  1.5064 -0.2104  1.9691
 4435TIP3    H234865   0.937   1.853   2.547 -1.0314 -2.4629 -0.4679
 4436TIP3   OH234866   5.281   3.783   0.108 -0.1916  0.7601  0.0545
 4436TIP3    H134867   5.340   3.709   0.095 -0.5771  0.2195  1.2840
 4436TIP3    H234868   5.244   3.800   0.021 -0.9909 -1.2283 -0.0297
 4437TIP3   OH234869   6.627   4.222   0.757 -0.1701  0.1787 -0.0247
 4437TIP3    H134870   6.676   4.203   0.676 -0.7056  1.3040 -0.6359
 4437TIP3    H234871   6.563   4.151   0.762  1.1312 -1.0246  0.5129
 4438TIP3   OH234872   6.845   6.833   1.211 -0.2420 -0.0544  0.2847
 4438TIP3    H134873   6.799   6.767   1.262 -3.6065  2.0862  0.3665
 4438TIP3    H234874   6.885   6.891   1.276  1.3068 -1.0210  0.2413
 4439TIP3   OH234875   1.543   6.032   7.426 -0.3811 -0.2225  0.4412
 4439TIP3    H134876   1.495   5.953   7.450  0.8174 -0.8157  0.9850
 4439TIP3    H234877   1.623   6.028   7.479 -0.0526  1.0792  0.0689
 4440TIP3   OH234878   3.041   1.594   8.363  0.1941 -0.4671 -0.2664
 4440TIP3    H134879   3.022   1.676   8.317  1.3378 -0.7543 -1.2941
 4440TIP3    H234880   3.107   1.550   8.309  2.1784 -0.4920  2.0230
 4441TIP3   OH234881   3.938   3.398   1.248 -0.3482 -0.0914  1.0225
 4441TIP3    H134882   3.902   3.391   1.160 -0.7736 -2.0981  1.3134
 4441TIP3    H234883   3.982   3.484   1.249 -2.5606  1.1612 -0.2750
 4442TIP3   OH234884   5.241   4.966   8.702 -0.7303 -0.6836  1.0570
 4442TIP3    H134885   5.333   4.943   8.718 -0.6519 -1.0574  0.1362
 4442TIP3    H234886   5.197   4.882   8.692 -0.5945 -0.5141 -1.5469
 4443TIP3   OH234887   1.659   6.452   0.880  0.0154  0.0170  0.2905
 4443TIP3    H134888   1.668   6.542   0.910  0.5838 -0.3789  1.3661
 4443TIP3    H234889   1.749   6.420   0.872 -0.1826 -0.9100  1.4329
 4444TIP3   OH234890   5.254   1.080   1.117 -0.1725 -1.1121  0.2883
 4444TIP3    H134891   5.282   1.161   1.161  0.2500 -0.1493 -1.6394
 4444TIP3    H234892   5.221   1.025   1.187 -1.3727  1.1150  1.5833
 4445TIP3   OH234893   2.993   0.461   7.058 -0.5457 -0.1325 -0.3147
 4445TIP3    H134894   3.065   0.459   6.995 -0.6049  1.0653 -0.4410
 4445TIP3    H234895   3.001   0.379   7.107  0.4761 -0.3310 -0.8004
 4446TIP3   OH234896   1.052   6.028   8.391 -0.3272  0.2703 -0.4990
 4446TIP3    H134897   1.012   6.060   8.310  1.3295  1.3811 -0.9299
 4446TIP3    H234898   1.010   5.943   8.407 -2.1790  0.9646 -1.3660
 4447TIP3   OH234899   2.211   1.313   8.281  0.0287 -0.3445 -0.2218
 4447TIP3    H134900   2.126   1.312   8.325 -0.6355  1.7115 -1.3453
 4447TIP3    H234901   2.264   1.373   8.333  0.7587 -1.4355  0.3350
 4448TIP3   OH234902   3.544   5.600   1.296 -0.6954  0.3076 -0.1515
 4448TIP3    H134903   3.595   5.553   1.362 -2.0501  0.2447  0.8981
 4448TIP3    H234904   3.554   5.548   1.216  1.0361  0.4252 -0.0350
 4449TIP3   OH234905   1.206   6.576   0.539  0.4405 -0.2652  0.1007
 4449TIP3    H134906   1.215   6.492   0.494 -0.2817  0.6575 -1.8974
 4449TIP3    H234907   1.183   6.638   0.470 -0.8325  1.2578  1.7772
 4450TIP3   OH234908   2.589   4.133   0.612  0.1588 -0.0141 -0.0750
 4450TIP3    H134909   2.514   4.135   0.672  0.7861  0.3405  0.7149
 4450TIP3    H234910   2.609   4.225   0.595  0.2973 -0.1098 -0.4362
 4451TIP3   OH234911   1.456   1.662   8.122 -0.0304 -0.3973 -0.3029
 4451TIP3    H134912   1.375   1.679   8.170  0.5267 -1.1896  0.9918
 4451TIP3    H234913   1.469   1.567   8.130  0.6414 -0.3905 -1.1195
 4452TIP3   OH234914   5.084   3.692   7.994  0.4269  0.0014  0.3274
 4452TIP3    H134915   5.155   3.755   7.985 -0.0311  0.7120  1.3680
 4452TIP3    H234916   5.087   3.667   8.087 -2.3062  2.1339  1.1567
 4453TIP3   OH234917   4.272   2.977   0.003  0.2522  0.4598 -0.2952
 4453TIP3    H134918   4.350   2.920   0.002  0.5885  0.7929  1.8161
 4453TIP3    H234919   4.214   2.937   0.068 -1.4440  0.1712 -1.8980
 4454TIP3   OH234920   0.853   4.717   7.646  0.0135  0.1919  0.3353
 4454TIP3    H134921   0.777   4.678   7.690 -0.0833  0.3840  0.3433
 4454TIP3    H234922   0.815   4.786   7.591  0.2730  0.9800  1.1297
 4455TIP3   OH234923   0.922   2.466   0.567  0.0601 -0.4297  0.3605
 4455TIP3    H134924   0.881   2.543   0.607 -1.1044 -1.2427  0.8099
 4455TIP3    H234925   0.985   2.501   0.505  0.6493  0.8892  1.6450
 4456TIP3   OH234926   4.363   6.695   1.540 -0.6423  0.0423  0.3535
 4456TIP3    H134927   4.373   6.620   1.482 -1.4410  1.2384 -1.3883
 4456TIP3    H234928   4.338   6.656   1.624  1.5771 -1.8105  0.2916
 4457TIP3   OH234929   3.364   5.387   2.037  1.0077 -0.3746 -0.4499
 4457TIP3    H134930   3.452   5.398   2.071  0.6666 -1.6215  0.9297
 4457TIP3    H234931   3.313   5.456   2.078  1.1360 -0.2818 -0.4473
 4458TIP3   OH234932   5.481   1.944   1.511  0.5870  0.0329  0.0715
 4458TIP3    H134933   5.451   2.002   1.581  0.9078  0.8684 -0.4622
 4458TIP3    H234934   5.529   2.002   1.452  1.0240 -0.8102 -0.4125
 4459TIP3   OH234935   0.250   2.020   6.834 -0.1898 -0.0082  0.4351
 4459TIP3    H134936   0.175   2.078   6.823 -2.7938 -2.8020  1.7545
 4459TIP3    H234937   0.242   1.987   6.923  2.3620 -0.8370  0.4449
 4460TIP3   OH234938   1.802   4.254   8.577 -0.3338 -0.4714 -0.3456
 4460TIP3    H134939   1.819   4.183   8.515  0.1367 -0.7845  0.1337
 4460TIP3    H234940   1.832   4.220   8.661 -1.1105 -0.1121  0.0883
 4461TIP3   OH234941   2.590   5.642   0.940 -0.5218 -0.5244  0.1351
 4461TIP3    H134942   2.606   5.686   0.857 -2.0269 -1.1377 -0.5243
 4461TIP3    H234943   2.658   5.675   0.999  0.2214  0.3497 -1.1731
 4462TIP3   OH234944   5.728   6.725   1.792 -0.3590 -0.7742 -0.1363
 4462TIP3    H134945   5.722   6.806   1.843 -3.7880 -0.4298 -0.8129
 4462TIP3    H234946   5.768   6.662   1.852  2.5143  1.3394  0.3759
 4463TIP3   OH234947   0.929   2.411   8.239  0.6706  0.0513  0.3556
 4463TIP3    H134948   0.876   2.486   8.266  1.4196  0.6185  0.3190
 4463TIP3    H234949   0.960   2.435   8.151  2.0842  0.3771  0.9010
 4464TIP3   OH234950   4.801   4.964   1.584  0.1959 -0.2456 -0.1028
 4464TIP3    H134951   4.753   4.906   1.525 -0.8767 -0.3077  0.8154
 4464TIP3    H234952   4.791   5.052   1.546 -0.4512 -0.2931 -0.0424
 4465TIP3   OH234953   6.609   1.990   0.317 -0.9006 -0.6311 -0.7662
 4465TIP3    H134954   6.653   2.066   0.279  1.0388 -1.2865  0.0741
 4465TIP3    H234955   6.613   1.923   0.248  0.6082 -1.0958 -0.2572
 4466TIP3   OH234956   1.677   0.026   2.629  0.0620  0.5835 -0.0940
 4466TIP3    H134957   1.618   0.080   2.575 -1.8039 -0.4746  0.7730
 4466TIP3    H234958   1.660  -0.064   2.601  0.4762  0.1714  0.9179
 4467TIP3   OH234959   0.844   4.799   7.299 -0.4561 -0.1082 -0.2812
 4467TIP3    H134960   0.874   4.831   7.214  0.2883 -0.5325 -0.1835
 4467TIP3    H234961   0.794   4.720   7.280 -0.4893 -0.0720 -0.3433
 4468TIP3   OH234962   4.581   0.759   1.766 -0.7351  0.8535 -0.3351
 4468TIP3    H134963   4.544   0.676   1.735 -0.1665  0.3477  0.3059
 4468TIP3    H234964   4.527   0.782   1.842 -1.0629  1.2223 -0.6715
 4469TIP3   OH234965   4.780   4.321   1.356  0.0828  0.2519  0.0242
 4469TIP3    H134966   4.752   4.293   1.443  0.0541  0.6512  0.1477
 4469TIP3    H234967   4.778   4.241   1.303  1.0843 -0.1970  0.6361
 4470TIP3   OH234968   0.915   2.180   1.399  0.4038  0.2445 -0.1395
 4470TIP3    H134969   0.886   2.180   1.491 -0.3673 -0.6642 -0.3650
 4470TIP3    H234970   0.861   2.248   1.358 -0.1088 -0.1645 -0.1599
 4471TIP3   OH234971   3.124   6.715   2.408 -0.3726 -0.0636  0.2320
 4471TIP3    H134972   3.199   6.773   2.397 -0.3404 -0.5288 -2.8302
 4471TIP3    H234973   3.147   6.660   2.482  1.2479  1.3362  0.8313
 4472TIP3   OH234974   2.410   0.670   7.727 -0.5461  0.0380  0.1175
 4472TIP3    H134975   2.351   0.598   7.752 -2.0416  1.4337  0.7676
 4472TIP3    H234976   2.355   0.748   7.729  1.1748  1.3096  0.0016
 4473TIP3   OH234977   0.837   5.874   1.635 -0.2525  0.4311  0.3322
 4473TIP3    H134978   0.814   5.964   1.656 -0.3326  0.3344  0.6659
 4473TIP3    H234979   0.919   5.880   1.586  0.2139  0.6229  1.1289
 4474TIP3   OH234980   0.894   5.128   1.842 -0.2939 -0.0470  0.4326
 4474TIP3    H134981   0.946   5.150   1.765 -1.1332  1.5529  0.3100
 4474TIP3    H234982   0.945   5.058   1.884  2.0679  1.5072  0.3871
 4475TIP3   OH234983   5.446   6.534   1.583  0.2870  0.0635 -0.3876
 4475TIP3    H134984   5.407   6.530   1.670 -0.1783 -1.3452 -0.6319
 4475TIP3    H234985   5.398   6.604   1.538  0.1161  0.3839  0.2830
 4476TIP3   OH234986   0.267   5.055   1.345 -0.0409 -0.5851 -0.1676
 4476TIP3    H134987   0.174   5.038   1.336  0.1367 -1.5609 -0.2147
 4476TIP3    H234988   0.304   4.973   1.378  0.6106  0.2057  1.1522
 4477TIP3   OH234989   0.278   0.050   7.730  0.3775  0.1275 -0.2120
 4477TIP3    H134990   0.195   0.097   7.742 -0.4700 -1.3472 -0.1145
 4477TIP3    H234991   0.327   0.069   7.809 -0.0974  0.5360 -0.0058
 4478TIP3   OH234992   0.965   2.073   0.587  0.2478  0.4890 -0.4947
 4478TIP3    H134993   0.971   2.067   0.682 -0.0016  2.2031 -0.3434
 4478TIP3    H234994   0.964   1.982   0.557 -0.9610 -0.0965  1.2139
 4479TIP3   OH234995   1.672   3.765   1.962 -0.0443 -0.3190  0.2785
 4479TIP3    H134996   1.744   3.827   1.964 -0.2348 -0.0663 -0.3640
 4479TIP3    H234997   1.703   3.690   2.012 -0.2499  0.7571  2.1380
 4480TIP3   OH234998   1.763   2.050   7.733 -0.1492  0.6009 -0.3836
 4480TIP3    H134999   1.783   1.983   7.798 -0.7468 -0.8890 -1.6610
 4480TIP3    H235000   1.733   2.125   7.784 -0.7376 -0.5629  1.0496
 4481TIP3   OH235001   5.032   0.776   6.916 -0.1822 -0.1631 -0.0764
 4481TIP3    H135002   4.970   0.758   6.846 -1.7362  0.4571  1.0780
 4481TIP3    H235003   5.026   0.871   6.930  0.1807 -0.2629  0.8237
 4482TIP3   OH235004   0.613   4.895   8.625  0.0639 -0.3624  0.5912
 4482TIP3    H135005   0.651   4.937   8.548  0.2686 -0.2592  0.7507
 4482TIP3    H235006   0.583   4.967   8.681 -1.1334 -0.4384  0.0936
 4483TIP3   OH235007   0.333   0.343   1.203  0.1435 -0.4222 -0.4727
 4483TIP3    H135008   0.335   0.376   1.113  0.7340  0.9776  0.0249
 4483TIP3    H235009   0.417   0.299   1.214  2.1701  3.2586  0.6825
 4484TIP3   OH235010   1.961   4.078   7.529  0.1354  0.5952  0.1460
 4484TIP3    H135011   1.917   4.052   7.610  1.5388  1.1004  1.1177
 4484TIP3    H235012   1.921   4.024   7.461  0.4652 -1.5118  1.5257
 4485TIP3   OH235013   4.139   4.744   0.260 -0.5541 -0.5336 -0.1559
 4485TIP3    H135014   4.134   4.776   0.350 -0.5086 -0.8057 -0.0528
 4485TIP3    H235015   4.127   4.821   0.206  0.3742 -0.2122  0.0817
 4486TIP3   OH235016   6.122   2.922   2.155 -0.4063  0.0601  0.4086
 4486TIP3    H135017   6.135   3.014   2.133  1.4525 -0.0883  0.7045
 4486TIP3    H235018   6.083   2.883   2.077 -1.0249  1.0395  0.2139
 4487TIP3   OH235019   2.234   6.659   7.843 -0.7938 -0.1538  0.0052
 4487TIP3    H135020   2.225   6.696   7.931 -2.8204  0.3060 -0.3461
 4487TIP3    H235021   2.296   6.717   7.799 -0.1079 -0.1216  0.9905
 4488TIP3   OH235022   2.264   6.015   1.603  0.6080 -0.3904 -0.0006
 4488TIP3    H135023   2.340   6.009   1.661  0.1026  0.7804  0.8289
 4488TIP3    H235024   2.192   5.977   1.653  0.6130 -1.3816 -0.7350
 4489TIP3   OH235025   3.872   6.606   8.105 -0.1881  0.7731 -0.1374
 4489TIP3    H135026   3.875   6.615   8.200  1.7242  1.6093 -0.2301
 4489TIP3    H235027   3.863   6.696   8.073 -0.1150  0.5583 -0.7605
 4490TIP3   OH235028   0.257   3.640   6.441  0.0456 -0.4489  0.1299
 4490TIP3    H135029   0.198   3.658   6.514 -0.1766  1.7013 -0.4875
 4490TIP3    H235030   0.252   3.719   6.387  1.9633 -1.0290 -0.9892
 4491TIP3   OH235031   6.224   3.866   7.365  0.7550 -0.2193  0.4052
 4491TIP3    H135032   6.132   3.857   7.338  1.1600 -1.3971 -0.7127
 4491TIP3    H235033   6.272   3.875   7.283  1.6207  0.8046  1.0017
 4492TIP3   OH235034   4.200   3.615   7.534  0.1269  0.1404  0.5082
 4492TIP3    H135035   4.112   3.607   7.500  0.2925 -0.9217  0.2895
 4492TIP3    H235036   4.257   3.604   7.458  0.4691 -1.1081  0.9077
 4493TIP3   OH235037   0.353   1.497   7.380 -0.2465 -0.0882 -0.1208
 4493TIP3    H135038   0.292   1.559   7.341 -0.6434  0.4802  1.3505
 4493TIP3    H235039   0.341   1.417   7.329 -1.6675  0.2366 -0.3353
 4494TIP3   OH235040   1.253   4.496   1.593 -0.5160  0.5211  0.2022
 4494TIP3    H135041   1.340   4.536   1.596  0.1050 -0.7715  0.2588
 4494TIP3    H235042   1.220   4.504   1.682  0.3488 -0.6253  0.6558
 4495TIP3   OH235043   4.957   3.578   0.590 -0.0569  0.0338  0.0270
 4495TIP3    H135044   4.885   3.641   0.590  0.7638  1.0236 -1.4593
 4495TIP3    H235045   5.016   3.609   0.522 -0.1215 -2.9007 -1.5422
 4496TIP3   OH235046   6.076   1.763   7.868  0.1524 -0.1681  0.5085
 4496TIP3    H135047   6.121   1.791   7.947  0.2813  2.1444 -0.2959
 4496TIP3    H235048   6.144   1.759   7.801 -0.2503 -0.1416  0.0891
 4497TIP3   OH235049   4.426   0.799   1.994 -0.3111  0.1365 -0.5111
 4497TIP3    H135050   4.422   0.865   2.063  1.7551  0.5667 -0.7340
 4497TIP3    H235051   4.383   0.722   2.031  2.3529 -0.2982  2.0750
 4498TIP3   OH235052   2.851   5.792   7.990 -0.3373  0.5216 -0.0080
 4498TIP3    H135053   2.915   5.721   7.996  1.3491  2.1364  3.0691
 4498TIP3    H235054   2.808   5.794   8.075  1.3604  4.5832  0.9530
 4499TIP3   OH235055   1.030   3.773   8.445  0.0177 -0.0762 -0.4121
 4499TIP3    H135056   0.976   3.843   8.483  2.8324  2.5410 -0.7908
 4499TIP3    H235057   1.067   3.812   8.366  2.7465 -1.4837  0.0320
 4500TIP3   OH235058   6.754   5.669   2.680 -0.3413  0.0040 -0.1780
 4500TIP3    H135059   6.664   5.636   2.679  0.4447 -2.4768  1.4355
 4500TIP3    H235060   6.803   5.603   2.729  2.1214  1.9651  0.1877
 4501TIP3   OH235061   0.531   1.370   7.958  0.3625 -0.0415  0.2166
 4501TIP3    H135062   0.496   1.456   7.934  0.5916 -0.0390 -0.1066
 4501TIP3    H235063   0.568   1.384   8.046  2.8398  0.9108 -0.8821
 4502TIP3   OH235064   2.902   4.868   7.393 -0.6629  0.1585  0.5326
 4502TIP3    H135065   2.843   4.926   7.346 -1.0633  0.7347  1.7095
 4502TIP3    H235066   2.945   4.925   7.457  0.6483 -0.3916  0.1785
 4503TIP3   OH235067   0.668   1.277   8.642  0.1378 -0.0409  0.3746
 4503TIP3    H135068   0.644   1.317   8.726 -0.0882 -1.0236  0.7924
 4503TIP3    H235069   0.643   1.342   8.576 -1.7258 -0.1534  0.9228
 4504TIP3   OH235070   0.326   4.420   1.817 -0.9039  0.2460 -0.4707
 4504TIP3    H135071   0.315   4.329   1.788 -0.0440  0.8235 -2.7905
 4504TIP3    H235072   0.271   4.471   1.758 -0.4215  1.3540  0.0165
 4505TIP3   OH235073   3.494   6.139   7.400 -0.6068 -0.0902 -0.3375
 4505TIP3    H135074   3.486   6.126   7.494  0.5402  0.3225 -0.1638
 4505TIP3    H235075   3.567   6.200   7.390  1.3191 -2.4283 -1.6087
 4506TIP3   OH235076   1.895   3.804   7.478  0.0807 -0.1473 -0.5093
 4506TIP3    H135077   1.970   3.780   7.532  0.3579 -1.9998 -1.6292
 4506TIP3    H235078   1.906   3.753   7.398 -0.7888  1.8439 -1.9665
 4507TIP3   OH235079   1.753   1.683   6.934 -0.6950 -0.3521  0.1532
 4507TIP3    H135080   1.811   1.749   6.895  0.3308 -0.7170  1.0131
 4507TIP3    H235081   1.709   1.728   7.006  0.1405 -0.6350  0.8547
 4508TIP3   OH235082   0.700   1.916   8.404  0.2817 -0.9765  0.1807
 4508TIP3    H135083   0.615   1.872   8.409 -0.1219 -0.1570  0.6603
 4508TIP3    H235084   0.694   1.972   8.326 -0.5872  1.0163  1.5974
 4509TIP3   OH235085   3.987   6.505   8.485  0.0142  0.0331  0.8471
 4509TIP3    H135086   3.931   6.577   8.454  0.2118 -0.7815 -1.6081
 4509TIP3    H235087   4.075   6.530   8.459  0.2021 -0.6855  0.7771
 4510TIP3   OH235088   5.976   2.280   0.308  0.3768  0.0459  0.1316
 4510TIP3    H135089   6.013   2.197   0.337 -1.0392  0.1377  2.5231
 4510TIP3    H235090   6.034   2.309   0.238  1.3014 -2.5955 -0.3190
 4511TIP3   OH235091   1.640   3.982   7.271 -0.6878  0.2682 -0.0922
 4511TIP3    H135092   1.695   3.977   7.193 -0.0427 -0.1110  0.3766
 4511TIP3    H235093   1.551   3.983   7.238 -0.4014  1.0679 -0.8748
 4512TIP3   OH235094   4.652   0.241   6.460  0.7347 -0.6830 -0.3257
 4512TIP3    H135095   4.573   0.188   6.461  1.3114 -1.5629 -0.2763
 4512TIP3    H235096   4.621   0.332   6.460 -0.2611 -1.0199 -0.2709
 4513TIP3   OH235097   3.413   5.753   0.567  0.5164  0.0781  0.1361
 4513TIP3    H135098   3.481   5.797   0.516  1.9075 -2.4965 -0.3578
 4513TIP3    H235099   3.449   5.746   0.655  0.0824  0.3703  0.3392
 4514TIP3   OH235100   0.890   0.285   1.668 -0.2207 -0.0003  0.3846
 4514TIP3    H135101   0.895   0.245   1.754 -1.0202  1.6961  1.2734
 4514TIP3    H235102   0.930   0.221   1.609  0.9851 -0.9055  2.0945
 4515TIP3   OH235103   4.216   5.670   1.423 -0.1357  0.2590  0.3070
 4515TIP3    H135104   4.298   5.638   1.386  1.3247  2.3252  1.5184
 4515TIP3    H235105   4.231   5.672   1.518 -2.0673 -0.4744  0.6781
 4516TIP3   OH235106   1.340   5.330   0.715 -0.1384  0.5966 -0.4097
 4516TIP3    H135107   1.376   5.352   0.800 -1.3303  0.3324  0.1805
 4516TIP3    H235108   1.348   5.411   0.664  0.9717  0.6292 -0.2045
 4517TIP3   OH235109   5.792   4.743   6.940 -0.1413 -0.1330  0.0659
 4517TIP3    H135110   5.741   4.815   6.976  1.7408  1.5325 -0.4255
 4517TIP3    H235111   5.785   4.753   6.845 -1.1440 -1.5933 -0.0449
 4518TIP3   OH235112   1.662   1.957   7.483 -0.5978  0.0973 -0.0018
 4518TIP3    H135113   1.650   1.864   7.499 -0.9716  0.0042 -0.7562
 4518TIP3    H235114   1.659   1.997   7.569  0.9248 -0.7195  0.4767
 4519TIP3   OH235115   5.475   1.494   1.301 -0.6353 -0.0432  0.3073
 4519TIP3    H135116   5.442   1.583   1.310  3.6751  2.3150 -3.0813
 4519TIP3    H235117   5.451   1.467   1.212  1.5675 -0.4524 -0.2287
 4520TIP3   OH235118   1.867   2.163   7.293 -0.0378  1.0609 -0.5939
 4520TIP3    H135119   1.885   2.155   7.386 -1.5373 -0.7079 -0.4052
 4520TIP3    H235120   1.867   2.258   7.277  1.5398  1.3617  0.8880
 4521TIP3   OH235121   5.398   3.232   0.066 -0.4247 -0.4158 -0.2377
 4521TIP3    H135122   5.416   3.305   0.126  0.6835 -1.2005  0.4159
 4521TIP3    H235123   5.303   3.221   0.070 -0.4862  0.2980  0.4836
 4522TIP3   OH235124   5.399   6.112   2.078  0.0186 -0.1064 -0.2432
 4522TIP3    H135125   5.379   6.119   1.985  3.3869  1.6864 -0.9845
 4522TIP3    H235126   5.491   6.085   2.081  0.4595  1.3863  2.5262
 4523TIP3   OH235127   2.567   2.333   8.579 -0.5436  0.0877 -0.1694
 4523TIP3    H135128   2.628   2.273   8.622 -0.5194  0.4418  0.2979
 4523TIP3    H235129   2.620   2.373   8.509 -0.3340  0.1524  0.0247
 4524TIP3   OH235130   3.793   4.771   7.664 -0.3087  0.3823 -0.0323
 4524TIP3    H135131   3.787   4.790   7.570  0.6651 -1.5841 -0.5466
 4524TIP3    H235132   3.878   4.807   7.690  0.9971 -1.9858 -0.7401
 4525TIP3   OH235133   3.162   5.134   8.204 -0.1288 -0.5515 -0.9659
 4525TIP3    H135134   3.210   5.080   8.265 -0.2845  2.0706  1.7028
 4525TIP3    H235135   3.103   5.073   8.159  0.8633 -2.7932  0.6072
 4526TIP3   OH235136   1.248   1.658   0.369  0.0298 -0.1522  0.0127
 4526TIP3    H135137   1.222   1.744   0.401 -0.3026 -0.6950  1.2569
 4526TIP3    H235138   1.193   1.596   0.417 -0.1543 -1.0491 -1.2842
 4527TIP3   OH235139   2.257   1.411   7.554 -0.6027 -0.6041  0.6523
 4527TIP3    H135140   2.303   1.356   7.618  0.1610  0.0752  0.6965
 4527TIP3    H235141   2.174   1.431   7.597 -0.9669 -1.8379  0.5719
 4528TIP3   OH235142   5.179   1.765   0.157  0.2198  0.2996 -0.2184
 4528TIP3    H135143   5.104   1.716   0.123  0.9076  0.0407 -1.4279
 4528TIP3    H235144   5.163   1.855   0.129 -1.0570  0.8279  2.0258
 4529TIP3   OH235145   4.896   1.256   8.181 -0.0187 -0.2742 -0.1040
 4529TIP3    H135146   4.971   1.301   8.219 -0.8164 -0.0034  1.2414
 4529TIP3    H235147   4.905   1.268   8.087  1.3392  0.1925  0.0689
 4530TIP3   OH235148   4.704   0.732   2.001  0.3863  0.2329  0.0671
 4530TIP3    H135149   4.703   0.736   1.906 -0.6628 -1.2729 -0.0261
 4530TIP3    H235150   4.612   0.740   2.027  0.2243 -2.4833  0.7100
 4531TIP3   OH235151   4.311   6.658   1.115 -0.2623 -0.1443 -0.1017
 4531TIP3    H135152   4.392   6.650   1.166  0.5684  0.7720 -1.2339
 4531TIP3    H235153   4.253   6.711   1.170 -0.0829 -0.7523  0.6876
 4532TIP3   OH235154   3.343   2.883   0.970  0.0387  0.1497  0.3635
 4532TIP3    H135155   3.432   2.911   0.990 -0.4793  1.8079  0.5057
 4532TIP3    H235156   3.290   2.922   1.040 -1.2059  2.0799 -1.5477
 4533TIP3   OH235157   1.974   5.404   7.884 -0.0793  0.7442 -0.2941
 4533TIP3    H135158   1.924   5.469   7.933 -1.8392 -0.9230  0.2842
 4533TIP3    H235159   1.907   5.349   7.843  1.2841 -1.2418 -0.0105
 4534TIP3   OH235160   4.306   1.973   2.545  0.3042 -1.1037 -0.6792
 4534TIP3    H135161   4.380   1.973   2.484 -0.3429 -0.9226 -1.4962
 4534TIP3    H235162   4.285   2.066   2.556  0.1124 -1.1603 -0.5684
 4535TIP3   OH235163   4.178   0.053   1.556  0.0039  0.1117 -0.1752
 4535TIP3    H135164   4.248  -0.012   1.542  1.7975  1.0639  3.1260
 4535TIP3    H235165   4.223   0.137   1.556 -1.3597  0.8795  0.6672
 4536TIP3   OH235166   2.983   5.317   2.031  0.4010  0.2347  0.5526
 4536TIP3    H135167   3.023   5.255   1.971 -1.1567  0.0890 -0.3747
 4536TIP3    H235168   3.013   5.403   2.001  0.5293  0.0896  0.2683
 4537TIP3   OH235169   4.018   5.374   1.394 -0.0802  0.4657  0.2450
 4537TIP3    H135170   3.953   5.346   1.459 -2.4759  3.4754 -0.5825
 4537TIP3    H235171   4.098   5.388   1.444 -0.8944 -0.5646  1.9014
 4538TIP3   OH235172   6.204   3.479   1.008 -0.0827  0.5090 -0.3280
 4538TIP3    H135173   6.153   3.414   1.056  0.5466 -0.1725 -0.5727
 4538TIP3    H235174   6.226   3.545   1.074  3.2607 -1.8216  1.1813
 4539TIP3   OH235175   2.857   5.049   8.537 -0.0552  0.0441 -0.3640
 4539TIP3    H135176   2.903   5.130   8.558 -2.6024  1.1720  1.2316
 4539TIP3    H235177   2.784   5.076   8.482  0.4739 -1.5536 -1.9374
 4540TIP3   OH235178   3.730   3.635   0.459  0.3890 -0.1555  0.8288
 4540TIP3    H135179   3.777   3.579   0.398  0.1467  0.0882  0.4109
 4540TIP3    H235180   3.660   3.580   0.494 -0.2693  0.0709 -0.0926
 4541TIP3   OH235181   2.804   4.979   0.629  0.4815 -0.0360  0.3235
 4541TIP3    H135182   2.797   4.983   0.725  2.4247 -3.1660  0.7483
 4541TIP3    H235183   2.891   5.014   0.610 -0.1339  1.1373 -0.4102
 4542TIP3   OH235184   6.304   0.339   8.305  0.1868  0.1681  0.4789
 4542TIP3    H135185   6.335   0.358   8.393  0.9408  0.2380  0.2032
 4542TIP3    H235186   6.381   0.349   8.249 -0.1463 -0.4298 -0.1125
 4543TIP3   OH235187   3.341   1.314   2.055  0.5356  0.0136 -0.1696
 4543TIP3    H135188   3.372   1.226   2.080  1.5917  0.1081 -1.0805
 4543TIP3    H235189   3.263   1.327   2.109 -0.2756 -1.9135 -0.7636
 4544TIP3   OH235190   3.500   0.216   0.706 -0.0445  0.5492 -0.0698
 4544TIP3    H135191   3.572   0.231   0.767  0.0807  0.9933 -0.3231
 4544TIP3    H235192   3.421   0.224   0.760  0.1203 -2.0281  0.6618
 4545TIP3   OH235193   6.395   0.513   7.683  0.5237 -0.3429 -0.5162
 4545TIP3    H135194   6.389   0.505   7.588  0.9828  1.4090 -0.7308
 4545TIP3    H235195   6.475   0.563   7.698 -0.4132  0.8725  0.6914
 4546TIP3   OH235196   1.547   5.237   7.473  0.3424 -0.7003  0.0490
 4546TIP3    H135197   1.540   5.180   7.550  0.5116 -1.8840 -0.7901
 4546TIP3    H235198   1.641   5.245   7.458  0.2999 -0.8948 -0.3304
 4547TIP3   OH235199   3.440   2.868   1.393  0.1083 -0.4231 -0.0914
 4547TIP3    H135200   3.491   2.808   1.448 -0.2670 -0.7748 -0.1153
 4547TIP3    H235201   3.502   2.899   1.327 -0.0139 -1.8681 -0.9222
 4548TIP3   OH235202   3.338   1.794   8.315 -0.1261 -0.3988 -0.4398
 4548TIP3    H135203   3.392   1.731   8.269 -0.8877 -0.5779 -1.1090
 4548TIP3    H235204   3.363   1.785   8.407  0.4014 -1.0320 -0.6420
 4549TIP3   OH235205   6.563   0.261   2.537  0.1377 -0.5263 -0.4904
 4549TIP3    H135206   6.633   0.204   2.569 -0.0850 -1.3479 -1.4213
 4549TIP3    H235207   6.548   0.232   2.447  1.0175  1.9623 -1.5095
 4550TIP3   OH235208   4.780   5.754   0.573 -0.4652  0.2487  0.1260
 4550TIP3    H135209   4.789   5.665   0.606  2.0033  0.0501 -0.9057
 4550TIP3    H235210   4.785   5.809   0.651  1.4130 -0.3848  0.4948
 4551TIP3   OH235211   6.744   4.935   7.550  0.4363 -0.0067  0.0579
 4551TIP3    H135212   6.744   5.024   7.586  0.9730 -0.2644  0.7192
 4551TIP3    H235213   6.651   4.914   7.540  0.3032  1.3129 -1.9006
 4552TIP3   OH235214   3.274   5.867   1.209  0.2847 -0.5155  0.1074
 4552TIP3    H135215   3.208   5.893   1.273  0.5380  0.8435 -0.1661
 4552TIP3    H235216   3.228   5.806   1.151 -0.6790  0.2294  0.0619
 4553TIP3   OH235217   1.193   1.315   2.567 -0.3661  0.3270  0.0870
 4553TIP3    H135218   1.126   1.252   2.594 -0.9244  0.2825 -1.3147
 4553TIP3    H235219   1.269   1.293   2.619 -1.3268  0.1343  1.4555
 4554TIP3   OH235220   0.360   5.257   1.209 -0.0730 -0.6520 -0.1777
 4554TIP3    H135221   0.367   5.169   1.245  0.1279 -1.6621 -2.5176
 4554TIP3    H235222   0.403   5.313   1.274  1.2096 -2.4782  0.6219
 4555TIP3   OH235223   0.849   2.166   1.670 -0.3464 -0.2600 -0.1780
 4555TIP3    H135224   0.864   2.089   1.724  0.9041 -0.3298 -0.6037
 4555TIP3    H235225   0.821   2.234   1.731 -2.0317 -1.1710  0.1346
 4556TIP3   OH235226   0.711   1.026   0.799 -0.1918  0.0662 -0.3942
 4556TIP3    H135227   0.665   1.103   0.765 -1.0659 -0.7200 -1.0506
 4556TIP3    H235228   0.797   1.028   0.755 -0.1749  0.7196 -0.3297
 4557TIP3   OH235229   4.212   4.161   7.644  0.7135  0.6226 -0.6428
 4557TIP3    H135230   4.273   4.173   7.572 -1.8358  0.9105 -2.9110
 4557TIP3    H235231   4.176   4.249   7.660  0.0400  0.2682 -0.1450
 4558TIP3   OH235232   4.170   1.814   7.070  0.0852  0.3396  0.2104
 4558TIP3    H135233   4.149   1.814   7.163 -0.4661 -2.9648  0.2082
 4558TIP3    H235234   4.255   1.772   7.064  0.7519  1.7526 -0.7317
 4559TIP3   OH235235   2.111   4.354   0.587 -0.2495  0.0460  0.9010
 4559TIP3    H135236   2.115   4.394   0.500 -0.9536 -0.6263  0.5432
 4559TIP3    H235237   2.167   4.277   0.580 -1.9551 -1.2269  0.3414
 4560TIP3   OH235238   0.204   2.970   6.627  0.4506  0.3244  0.6054
 4560TIP3    H135239   0.151   3.015   6.693  0.0821  0.0525  0.4951
 4560TIP3    H235240   0.290   2.962   6.668  0.2696  0.3046  0.9901
 4561TIP3   OH235241   0.861   4.290   0.032  0.1455 -0.0914  0.0495
 4561TIP3    H135242   0.876   4.380   0.063 -0.3355  0.9515 -2.4880
 4561TIP3    H235243   0.768   4.289   0.007  0.7510 -0.3998 -2.4364
 4562TIP3   OH235244   1.881   2.474   8.311  0.2803 -0.4700  0.7057
 4562TIP3    H135245   1.791   2.500   8.332  0.3960 -0.5544  1.3280
 4562TIP3    H235246   1.929   2.557   8.308 -0.0944 -0.2926 -1.0611
 4563TIP3   OH235247   3.157   4.897   0.251  0.4736  0.0259  0.2649
 4563TIP3    H135248   3.126   4.862   0.335  0.1033 -1.4531 -0.4599
 4563TIP3    H235249   3.084   4.950   0.220 -0.3981 -1.4003 -0.2387
 4564TIP3   OH235250   1.998   5.816   2.215 -0.0981 -0.5796  0.2639
 4564TIP3    H135251   1.964   5.815   2.305 -0.0281 -1.1180  0.2854
 4564TIP3    H235252   2.062   5.887   2.215 -0.7930  0.0707  0.3778
 4565TIP3   OH235253   2.496   2.138   0.276 -0.0392  0.7896 -0.9402
 4565TIP3    H135254   2.423   2.093   0.318  0.5658  0.9371  0.3323
 4565TIP3    H235255   2.569   2.076   0.281  0.2905  1.1726 -0.9137
 4566TIP3   OH235256   0.113   4.406   0.711  0.0713  0.2168  0.0785
 4566TIP3    H135257   0.137   4.388   0.620 -0.7130  0.8969 -0.2737
 4566TIP3    H235258   0.066   4.328   0.740 -0.8824  0.5393 -0.5499
 4567TIP3   OH235259   2.549   4.640   7.323 -0.1133  0.2654 -0.0434
 4567TIP3    H135260   2.553   4.729   7.359  0.5438 -0.1676  0.9990
 4567TIP3    H235261   2.585   4.585   7.392  0.8118 -0.6601 -1.2315
 4568TIP3   OH235262   0.761   5.241   6.466  0.2036 -0.0477 -0.2585
 4568TIP3    H135263   0.767   5.160   6.517 -0.3184  0.4175  0.5701
 4568TIP3    H235264   0.846   5.250   6.424  1.9373  1.2441  3.1635
 4569TIP3   OH235265   5.791   2.390   1.180 -0.0951 -0.3273  0.0238
 4569TIP3    H135266   5.807   2.428   1.266  0.5241  0.8318 -0.5862
 4569TIP3    H235267   5.756   2.303   1.199  1.9417 -0.9189  1.4573
 4570TIP3   OH235268   2.650   2.678   1.183  0.5293 -0.3301  0.3924
 4570TIP3    H135269   2.673   2.737   1.255 -0.3049  1.3354 -0.6413
 4570TIP3    H235270   2.705   2.707   1.111 -1.5793  0.8726 -0.8456
 4571TIP3   OH235271   0.991   2.443   7.978 -0.1130 -0.1035 -0.1870
 4571TIP3    H135272   0.981   2.530   7.939  1.6586  0.0350 -0.4121
 4571TIP3    H235273   1.071   2.409   7.940  0.1166 -1.1492  1.1609
 4572TIP3   OH235274   4.243   5.266   0.752 -0.7306 -0.0367  0.2478
 4572TIP3    H135275   4.177   5.287   0.818  0.4529  1.9791  0.9074
 4572TIP3    H235276   4.226   5.327   0.681 -0.5137 -0.5419 -0.2426
 4573TIP3   OH235277   3.883   2.090   7.462 -0.0502  0.3742 -0.1128
 4573TIP3    H135278   3.974   2.067   7.441 -0.4258 -1.5301  0.2273
 4573TIP3    H235279   3.891   2.159   7.528  1.1130  1.8006 -1.6397
 4574TIP3   OH235280   4.736   0.982   7.164 -0.1474  0.2235 -0.0083
 4574TIP3    H135281   4.665   0.929   7.202 -1.6936  2.2913  0.1631
 4574TIP3    H235282   4.700   1.011   7.079  1.5958 -0.8670 -1.1781
 4575TIP3   OH235283   2.196   6.748   0.109  0.1817 -0.8648  0.1102
 4575TIP3    H135284   2.152   6.697   0.177 -0.5373 -0.4964 -0.0658
 4575TIP3    H235285   2.256   6.805   0.157  1.3094 -2.1437  0.2863
 4576TIP3   OH235286   1.079   2.712   8.569  0.8628 -0.5471 -0.2054
 4576TIP3    H135287   1.125   2.636   8.534  1.0602  0.2679 -1.8217
 4576TIP3    H235288   1.000   2.719   8.516  0.7131  0.2169  0.1080
 4577TIP3   OH235289   0.130   5.157   2.806 -0.0362  0.1830 -0.0398
 4577TIP3    H135290   0.184   5.092   2.851  0.6889  0.8094  0.0057
 4577TIP3    H235291   0.094   5.110   2.730 -0.4403 -0.5850  0.6153
 4578TIP3   OH235292   1.816   3.466   1.732 -0.7013  0.3684  0.5641
 4578TIP3    H135293   1.843   3.517   1.809 -2.8124  1.1147  0.8648
 4578TIP3    H235294   1.875   3.391   1.731 -1.2906 -0.2506  3.5674
 4579TIP3   OH235295   3.582   0.488   0.229 -0.2885 -0.0327  0.4703
 4579TIP3    H135296   3.671   0.453   0.236 -0.5711 -0.7063  0.7502
 4579TIP3    H235297   3.530   0.432   0.286 -1.0307 -0.0992 -0.2634
 4580TIP3   OH235298   4.703   5.063   8.614  0.6410 -0.0672  0.0948
 4580TIP3    H135299   4.671   5.015   8.690  1.1843  2.3109  1.9830
 4580TIP3    H235300   4.700   5.155   8.642  2.9323  0.7387 -1.9585
 4581TIP3   OH235301   5.141   6.133   1.348  0.0088 -0.2147 -0.5410
 4581TIP3    H135302   5.171   6.078   1.420  2.3483  0.6884 -0.7419
 4581TIP3    H235303   5.158   6.082   1.269  1.0196  0.2698 -0.6510
 4582TIP3   OH235304   0.153   1.643   7.266  0.7263  0.2226  0.4581
 4582TIP3    H135305   0.115   1.690   7.341  0.5458  0.5036  0.1953
 4582TIP3    H235306   0.089   1.575   7.245  0.9688 -0.1144  0.8143
 4583TIP3   OH235307   4.516   1.471   1.140 -0.1017  0.3618 -0.0721
 4583TIP3    H135308   4.469   1.502   1.062  0.5040 -0.1193 -0.6296
 4583TIP3    H235309   4.601   1.515   1.136 -0.0515  0.3036  0.3014
 4584TIP3   OH235310   2.191   4.073   1.628 -0.1976  0.5330 -0.0114
 4584TIP3    H135311   2.142   3.991   1.640  2.2500 -1.0458 -0.1203
 4584TIP3    H235312   2.217   4.098   1.717  0.7971  0.0352 -0.1545
 4585TIP3   OH235313   5.840   0.075   1.339  0.1167 -0.4058 -0.1136
 4585TIP3    H135314   5.828   0.159   1.384  1.3911 -0.7737  0.9840
 4585TIP3    H235315   5.781   0.015   1.386  1.3237 -0.7512  1.0252
 4586TIP3   OH235316   5.060   3.321   1.581  0.4219 -0.3383 -0.1142
 4586TIP3    H135317   5.111   3.336   1.501  1.0466 -1.3460  0.0749
 4586TIP3    H235318   5.098   3.241   1.619 -0.4742 -0.3944  0.7024
 4587TIP3   OH235319   3.602   4.817   8.332  0.0288  0.1764  0.0660
 4587TIP3    H135320   3.536   4.759   8.292  1.0390  0.0455 -1.4896
 4587TIP3    H235321   3.610   4.786   8.422 -2.5484  0.6602  0.5355
 4588TIP3   OH235322   0.513   6.453   2.038 -0.3290  0.8310  0.2754
 4588TIP3    H135323   0.427   6.430   2.073 -0.2173  2.5614  1.8393
 4588TIP3    H235324   0.497   6.533   1.987  0.3453  1.1731  0.5962
 4589TIP3   OH235325   3.260   6.390   7.620 -0.1817 -0.3877  0.0400
 4589TIP3    H135326   3.262   6.462   7.557 -1.6672  0.1911  0.6080
 4589TIP3    H235327   3.250   6.433   7.705  2.0519 -1.1383  0.7377
 4590TIP3   OH235328   3.875   3.017   1.250  0.1700 -0.0360 -0.2352
 4590TIP3    H135329   3.948   3.045   1.306  0.4827  0.7155 -0.9947
 4590TIP3    H235330   3.909   3.025   1.161 -0.8608  0.4115 -0.6002
 4591TIP3   OH235331   5.689   3.513   0.172  0.1463  0.2217  0.7743
 4591TIP3    H135332   5.681   3.559   0.255 -1.8962  1.5563 -0.0764
 4591TIP3    H235333   5.698   3.583   0.107  2.6928 -0.8171 -0.1120
 4592TIP3   OH235334   3.587   6.414   7.431  0.1129  0.1094  0.1895
 4592TIP3    H135335   3.643   6.445   7.501 -0.1023 -0.0823  0.4490
 4592TIP3    H235336   3.517   6.479   7.425  0.8715  0.8594 -0.7803
 4593TIP3   OH235337   3.075   3.198   1.592 -0.3198 -0.7406  0.2042
 4593TIP3    H135338   3.125   3.143   1.532 -0.3500  0.5577 -1.0679
 4593TIP3    H235339   3.051   3.140   1.664  0.7561 -2.0393 -0.4493
 4594TIP3   OH235340   5.470   4.061   1.892 -0.6011  1.1129 -0.0175
 4594TIP3    H135341   5.471   4.150   1.926 -0.0512  0.9009  0.5603
 4594TIP3    H235342   5.454   4.007   1.970 -0.2368  0.6735 -0.2436
 4595TIP3   OH235343   1.892   2.743   0.844  0.0374 -0.5376  0.3680
 4595TIP3    H135344   1.880   2.815   0.782  2.1500  0.5316  1.1017
 4595TIP3    H235345   1.835   2.766   0.918  0.4920  0.2633  0.4841
 4596TIP3   OH235346   6.156   4.230   0.007  0.2800  0.1997 -0.5736
 4596TIP3    H135347   6.142   4.181   0.088  3.0732 -1.0454 -0.7203
 4596TIP3    H235348   6.083   4.205  -0.050 -1.0096  0.0943  1.0507
 4597TIP3   OH235349   6.097   6.836   1.343  0.1122 -0.3730  0.2745
 4597TIP3    H135350   6.131   6.807   1.258  0.4276 -0.0130  0.2783
 4597TIP3    H235351   6.002   6.839   1.330  0.0645 -1.4733  0.2965
 4598TIP3   OH235352   1.250   4.328   0.822 -0.1963 -0.1473 -0.2206
 4598TIP3    H135353   1.161   4.360   0.805  0.6460  2.1315 -0.7702
 4598TIP3    H235354   1.302   4.364   0.750  1.8691  1.9987  2.1365
 4599TIP3   OH235355   2.039   5.394   8.672  0.2538 -0.2950  0.0905
 4599TIP3    H135356   2.028   5.303   8.645  0.6459  0.0298 -1.2418
 4599TIP3    H235357   2.069   5.389   8.763  0.7200 -1.5089 -0.1095
 4600TIP3   OH235358   0.153   6.184   7.100  0.3629  0.1158 -0.5449
 4600TIP3    H135359   0.169   6.236   7.021  0.0427 -1.0697 -1.4193
 4600TIP3    H235360   0.167   6.093   7.072 -1.5649 -0.4879  0.2712
 4601TIP3   OH235361   2.004   5.088   7.928 -0.2246  0.1654  0.2130
 4601TIP3    H135362   2.033   5.093   8.019 -0.1105 -2.0016  0.3427
 4601TIP3    H235363   2.085   5.080   7.878 -0.3641 -1.6028  0.2118
 4602TIP3   OH235364   4.830   3.366   0.159  1.1584 -0.2100  0.1415
 4602TIP3    H135365   4.875   3.442   0.195 -2.2855  0.5035  3.7409
 4602TIP3    H235366   4.859   3.292   0.213  3.2906 -1.3039 -2.3059
 4603TIP3   OH235367   4.648   1.821   7.535  0.0408  0.6155 -0.1547
 4603TIP3    H135368   4.609   1.740   7.504 -1.0225  0.9760  0.1981
 4603TIP3    H235369   4.692   1.857   7.458 -4.1874  2.5056 -2.0138
 4604TIP3   OH235370   5.150   0.134   8.670  0.2010  0.0044  0.3568
 4604TIP3    H135371   5.154   0.169   8.581  1.2098 -0.2701  0.2786
 4604TIP3    H235372   5.134   0.040   8.657  1.5092 -0.2440  0.4015
 4605TIP3   OH235373   3.429   4.785   7.607 -0.3668 -0.0116  0.4129
 4605TIP3    H135374   3.433   4.877   7.581 -0.6522 -0.1800 -0.2391
 4605TIP3    H235375   3.385   4.786   7.692 -3.0033  0.2272 -0.8587
 4606TIP3   OH235376   0.330   2.476   8.427  0.0049 -0.0726  0.3208
 4606TIP3    H135377   0.393   2.528   8.377  1.2344 -1.0776  0.7699
 4606TIP3    H235378   0.245   2.514   8.405  0.5295 -0.1335 -2.1077
 4607TIP3   OH235379   3.741   3.994   0.897  0.4057  0.5565 -0.5038
 4607TIP3    H135380   3.721   4.084   0.921 -2.6961 -0.2304  0.3374
 4607TIP3    H235381   3.715   3.943   0.973 -0.0888 -1.2377 -1.8091
 4608TIP3   OH235382   1.563   0.740   8.113  0.2795  0.3079 -0.5014
 4608TIP3    H135383   1.547   0.731   8.207  0.6408 -0.4175 -0.4979
 4608TIP3    H235384   1.490   0.793   8.081 -0.6895 -0.7226 -0.0577
 4609TIP3   OH235385   4.082   5.141   6.769  0.3615  0.1331 -0.1152
 4609TIP3    H135386   4.147   5.206   6.795  1.2173 -0.6048 -0.3647
 4609TIP3    H235387   4.072   5.153   6.674  0.5679 -0.1433 -0.1713
 4610TIP3   OH235388   5.748   5.910   1.250  0.1613  0.5414  0.6336
 4610TIP3    H135389   5.818   5.875   1.194 -1.4225 -1.7624 -0.0496
 4610TIP3    H235390   5.667   5.878   1.211 -1.2884  2.4603  1.8502
 4611TIP3   OH235391   1.894   2.419   7.216 -0.3258  0.8343  0.1475
 4611TIP3    H135392   1.939   2.464   7.144 -1.0892  0.5759 -0.5162
 4611TIP3    H235393   1.852   2.488   7.265  0.5921  1.0581  0.6425
 4612TIP3   OH235394   5.834   1.666   7.981  0.6391  0.3120  0.0425
 4612TIP3    H135395   5.909   1.716   7.949  2.0471 -0.5619  1.7963
 4612TIP3    H235396   5.784   1.729   8.034  0.3081  0.8033 -0.8350
 4613TIP3   OH235397   0.468   3.077   6.257  0.2444 -0.1987  0.3175
 4613TIP3    H135398   0.543   3.134   6.238  1.3394 -1.4342  0.7966
 4613TIP3    H235399   0.503   2.989   6.252 -1.5316 -0.8923 -0.8710
 4614TIP3   OH235400   6.407   2.570   0.999 -0.6217 -0.4238  0.0474
 4614TIP3    H135401   6.500   2.591   1.010 -0.8328  0.9319 -0.5274
 4614TIP3    H235402   6.382   2.616   0.918 -1.4912 -1.8178 -0.5076
 4615TIP3   OH235403   0.393   6.333   6.644  0.5613  0.5303 -0.0831
 4615TIP3    H135404   0.305   6.295   6.646  0.6554  0.2305 -1.1148
 4615TIP3    H235405   0.383   6.417   6.600  0.8361  0.3569 -0.4871
 4616TIP3   OH235406   6.273   2.824   6.448  0.3917  0.1122  0.7175
 4616TIP3    H135407   6.208   2.764   6.485  0.3955 -0.2492  0.1520
 4616TIP3    H235408   6.353   2.803   6.495  0.1187  0.5125  1.3716
 4617TIP3   OH235409   5.540   5.744   1.039  0.4099 -0.1124  0.1101
 4617TIP3    H135410   5.513   5.819   1.092 -0.1629  0.4779 -0.9961
 4617TIP3    H235411   5.458   5.705   1.009  0.7259 -0.0501 -0.8730
 4618TIP3   OH235412   3.952   2.202   8.519 -0.5285  0.4089  0.5675
 4618TIP3    H135413   4.009   2.145   8.467 -1.3140  1.2256 -1.2735
 4618TIP3    H235414   3.867   2.159   8.517 -0.3319 -0.1283  2.1986
 4619TIP3   OH235415   1.091   4.977   7.395 -0.0477  0.7517 -0.4200
 4619TIP3    H135416   1.147   5.011   7.465 -0.4316  2.6039 -0.9504
 4619TIP3    H235417   1.137   4.901   7.361  0.0395 -0.3177  1.9666
 4620TIP3   OH235418   3.124   3.947   6.289  0.1630 -0.3576  0.3828
 4620TIP3    H135419   3.208   3.947   6.243 -0.6888 -1.0431 -1.2515
 4620TIP3    H235420   3.083   3.864   6.265 -1.9686  0.9334 -0.7956
 4621TIP3   OH235421   4.497   4.643   2.560  0.3763  0.1042  0.3352
 4621TIP3    H135422   4.554   4.580   2.603  0.2601 -0.9911 -1.0441
 4621TIP3    H235423   4.431   4.589   2.516 -1.4958  1.3048  1.5187
 4622TIP3   OH235424   3.578   3.355   1.647  0.2694  0.0320  0.5455
 4622TIP3    H135425   3.557   3.272   1.605  0.0803 -0.0147  0.7306
 4622TIP3    H235426   3.499   3.408   1.639  0.3480  0.1490  0.5361
 4623TIP3   OH235427   2.578   6.074   0.314  0.4789  0.7130  0.1414
 4623TIP3    H135428   2.560   6.064   0.221  0.0869  2.4852 -0.0058
 4623TIP3    H235429   2.670   6.103   0.317  0.7037 -0.0093  0.3554
 4624TIP3   OH235430   1.043   3.077   7.465  0.2485  0.0729 -0.1267
 4624TIP3    H135431   1.124   3.047   7.424  0.1731 -0.3497  0.0319
 4624TIP3    H235432   1.069   3.153   7.517  0.7564 -0.7637  0.8546
 4625TIP3   OH235433   6.382   4.365   8.709 -0.1512 -0.4130 -0.2149
 4625TIP3    H135434   6.420   4.283   8.677  0.6810 -0.1089 -0.0512
 4625TIP3    H235435   6.295   4.341   8.741  0.6758 -1.5837  1.3301
 4626TIP3   OH235436   2.909   5.379   0.857 -0.3361  0.2521  0.2225
 4626TIP3    H135437   3.000   5.404   0.845 -0.1479 -0.6286 -0.2430
 4626TIP3    H235438   2.885   5.333   0.776 -0.3200 -2.0435  1.4263
 4627TIP3   OH235439   3.838   6.581   7.492 -0.0421  0.5420 -0.1231
 4627TIP3    H135440   3.897   6.514   7.458 -0.4450  0.7220 -1.2138
 4627TIP3    H235441   3.889   6.624   7.561  0.8838  0.3173 -0.6435
 4628TIP3   OH235442   0.464   4.655   8.137 -0.4787  0.3538 -0.3088
 4628TIP3    H135443   0.400   4.589   8.163 -0.7286  0.5015 -0.5407
 4628TIP3    H235444   0.491   4.696   8.219  0.7437 -0.9778  0.0063
 4629TIP3   OH235445   5.956   2.132   0.857 -0.7005  0.1146 -0.2339
 4629TIP3    H135446   5.982   2.099   0.943 -0.0938  0.6115 -0.2197
 4629TIP3    H235447   5.934   2.224   0.873  0.8656  0.6335 -0.8654
 4630TIP3   OH235448   6.444   5.549   0.747  0.1005  0.0025  0.9676
 4630TIP3    H135449   6.475   5.474   0.697 -1.3097 -0.1682  0.2870
 4630TIP3    H235450   6.348   5.545   0.738  0.0060  2.1002  0.5723
 4631TIP3   OH235451   0.392   1.784   6.830 -0.0043  0.3697  0.0109
 4631TIP3    H135452   0.363   1.736   6.907  1.6758  0.5311  0.7728
 4631TIP3    H235453   0.329   1.856   6.822 -0.4987  0.0577  0.9142
 4632TIP3   OH235454   0.408   2.936   0.126 -0.2005 -0.0338 -0.0117
 4632TIP3    H135455   0.431   2.978   0.043  0.7668  0.6869  0.6003
 4632TIP3    H235456   0.331   2.984   0.156  2.4831  3.4933  2.0932
 4633TIP3   OH235457   1.270   1.866   0.589 -0.3988 -0.1822  0.2773
 4633TIP3    H135458   1.327   1.790   0.595  4.2379  2.8243 -0.7366
 4633TIP3    H235459   1.291   1.918   0.666 -4.4077 -0.2515  1.6398
 4634TIP3   OH235460   2.477   0.552   8.245  1.0739 -0.6599  0.4509
 4634TIP3    H135461   2.572   0.553   8.246  1.0765  0.6691  1.3057
 4634TIP3    H235462   2.451   0.615   8.313 -0.4158 -1.5634  0.7719
 4635TIP3   OH235463   1.530   4.454   7.192  0.1084  0.2221  0.8613
 4635TIP3    H135464   1.465   4.389   7.166 -0.9872  1.9488 -1.0997
 4635TIP3    H235465   1.588   4.409   7.253 -0.2918 -2.7232 -0.7669
 4636TIP3   OH235466   3.366   1.780   7.912 -0.3051  0.1962 -0.1792
 4636TIP3    H135467   3.384   1.701   7.962  0.6454  0.3441 -0.2754
 4636TIP3    H235468   3.352   1.749   7.822  0.8162  0.1867 -0.3705
 4637TIP3   OH235469   1.188   3.085   0.447  0.2761 -0.1954  0.4226
 4637TIP3    H135470   1.172   3.179   0.435  0.8662 -0.3506 -1.9772
 4637TIP3    H235471   1.119   3.042   0.396  0.4784 -1.0621  0.8649
 4638TIP3   OH235472   2.019   0.815   1.332 -0.3785 -0.0565 -0.9581
 4638TIP3    H135473   1.990   0.896   1.376 -1.0418  0.1719 -1.7948
 4638TIP3    H235474   1.957   0.749   1.363  1.0935 -0.6271  0.9554
 4639TIP3   OH235475   5.398   3.345   8.426  0.2128 -0.2058  0.0617
 4639TIP3    H135476   5.426   3.310   8.342  1.3672 -1.5006  0.9372
 4639TIP3    H235477   5.385   3.268   8.481  4.5263  0.5990  2.6259
 4640TIP3   OH235478   1.680   5.477   8.672  0.4313 -0.5690  0.6385
 4640TIP3    H135479   1.737   5.541   8.714 -0.8339 -1.1650  3.5047
 4640TIP3    H235480   1.721   5.393   8.690 -0.0579 -0.8384  0.5114
 4641TIP3   OH235481   2.581   6.457   0.314 -0.2329  0.2110  0.2645
 4641TIP3    H135482   2.582   6.553   0.309  2.5356  0.2689  0.1578
 4641TIP3    H235483   2.535   6.429   0.235 -2.0183  1.4144  0.8122
 4642TIP3   OH235484   4.101   5.997   7.149 -0.0762 -0.4215  0.1249
 4642TIP3    H135485   4.098   6.035   7.060  0.5789  0.2278  0.3685
 4642TIP3    H235486   4.117   5.904   7.134  0.4178 -0.2576 -0.4354
 4643TIP3   OH235487   1.167   6.786   8.493 -0.0580 -0.1788 -0.2027
 4643TIP3    H135488   1.186   6.782   8.399 -0.0671 -0.0668 -0.2089
 4643TIP3    H235489   1.202   6.870   8.521 -0.8394  0.1828 -0.2843
 4644TIP3   OH235490   6.104   5.860   7.235 -0.0321  0.3923  0.3052
 4644TIP3    H135491   6.144   5.776   7.259 -0.0083  0.4738  0.5494
 4644TIP3    H235492   6.041   5.877   7.305 -0.2982  0.4015  0.0694
 4645TIP3   OH235493   0.959   4.172   8.475 -0.0185  0.2602  0.0409
 4645TIP3    H135494   1.007   4.137   8.550  0.2604  0.2220 -0.1540
 4645TIP3    H235495   0.867   4.149   8.492 -0.2139  1.8008  1.2419
 4646TIP3   OH235496   4.184   3.604   1.579 -0.5344 -0.1172  0.4096
 4646TIP3    H135497   4.120   3.569   1.641  1.6531 -0.0495  2.8685
 4646TIP3    H235498   4.191   3.696   1.602 -0.0912  0.0349 -0.3257
 4647TIP3   OH235499   2.955   4.970   8.123 -0.3262  0.0116 -0.0646
 4647TIP3    H135500   2.894   4.900   8.103  0.2640  0.0433 -2.2994
 4647TIP3    H235501   2.949   5.029   8.048  2.5120 -0.0756 -0.4868
 4648TIP3   OH235502   0.368   6.321   7.208 -0.5418  0.6918  0.1321
 4648TIP3    H135503   0.413   6.303   7.125 -0.1065  1.0671  0.2774
 4648TIP3    H235504   0.277   6.295   7.193 -0.4386  0.6436 -0.4218
 4649TIP3   OH235505   0.013   4.143   1.805 -0.3016 -0.1338  0.2269
 4649TIP3    H135506   0.000   4.221   1.751  0.3340 -0.1889 -0.0166
 4649TIP3    H235507   0.108   4.128   1.802 -0.0553  0.5750  2.3237
 4650TIP3   OH235508   6.345   0.975   1.429 -0.1002 -0.1731  0.0376
 4650TIP3    H135509   6.377   1.044   1.488 -0.0662 -0.9662  0.9761
 4650TIP3    H235510   6.272   0.936   1.477 -2.5836  1.5900 -2.0508
 4651TIP3   OH235511   2.441   3.900   1.518 -0.0707 -0.1653  0.2380
 4651TIP3    H135512   2.467   3.988   1.545 -1.3392  0.2516  0.1886
 4651TIP3    H235513   2.372   3.875   1.581  0.2577 -1.1146  0.2397
 4652TIP3   OH235514   1.965   0.994   1.525 -0.0481 -0.0185 -0.3257
 4652TIP3    H135515   2.020   1.033   1.592 -2.3260  2.3895  0.3038
 4652TIP3    H235516   1.953   1.063   1.460 -1.3731 -0.8201 -0.9880
 4653TIP3   OH235517   6.583   3.303   8.266  0.0542 -0.1457 -0.4792
 4653TIP3    H135518   6.559   3.260   8.184 -1.0470 -1.0955  0.2960
 4653TIP3    H235519   6.554   3.241   8.334  0.9653  0.6018  0.6211
 4654TIP3   OH235520   3.078   1.816   1.974 -0.2966 -0.2498 -0.0180
 4654TIP3    H135521   3.134   1.748   2.011  1.6524  0.5516 -1.3590
 4654TIP3    H235522   3.000   1.815   2.030  0.9233 -1.5768  1.7838
 4655TIP3   OH235523   4.423   1.963   7.939 -0.1646  0.2843  0.2015
 4655TIP3    H135524   4.491   1.978   7.872  0.6328  0.6146  1.0631
 4655TIP3    H235525   4.426   2.042   7.993 -0.1421 -0.3894  1.1945
 4656TIP3   OH235526   5.596   4.475   0.882 -0.1966  0.2236 -0.3195
 4656TIP3    H135527   5.511   4.498   0.842 -0.1290  0.0426 -0.5703
 4656TIP3    H235528   5.587   4.501   0.973  0.7176  3.5207 -1.0490
 4657TIP3   OH235529   3.812   4.428   7.160 -0.3042  0.1533 -0.2806
 4657TIP3    H135530   3.895   4.397   7.123 -1.5296 -1.4975 -1.8375
 4657TIP3    H235531   3.785   4.358   7.220 -0.8676  0.3870 -0.2556
 4658TIP3   OH235532   1.744   4.521   1.332 -0.1508  0.4620 -0.3907
 4658TIP3    H135533   1.684   4.464   1.380 -0.1784  1.9438  1.4756
 4658TIP3    H235534   1.697   4.604   1.325  1.3324  1.4126  0.3958
 4659TIP3   OH235535   4.489   5.017   7.613  0.2068  0.8027  0.5268
 4659TIP3    H135536   4.499   5.031   7.519  1.4616  1.6942  0.7588
 4659TIP3    H235537   4.396   5.031   7.630 -0.5409 -1.7606 -0.9257
 4660TIP3   OH235538   5.909   0.443   6.504 -0.6791  0.1097  0.0318
 4660TIP3    H135539   5.896   0.367   6.446  0.9718  0.2152 -0.5094
 4660TIP3    H235540   5.974   0.414   6.568 -0.1858  1.0025 -0.0558
 4661TIP3   OH235541   6.395   2.013   1.315 -1.4143 -0.1479 -0.1207
 4661TIP3    H135542   6.341   2.011   1.394 -1.6127  1.5383 -0.1628
 4661TIP3    H235543   6.345   1.963   1.251 -1.2075 -1.6170  0.8153
 4662TIP3   OH235544   2.134   2.016   8.239  0.1390  0.0100  0.4332
 4662TIP3    H135545   2.122   1.925   8.266  1.1057 -0.0873  0.5571
 4662TIP3    H235546   2.066   2.064   8.286 -1.1870 -0.7962 -0.5683
 4663TIP3   OH235547   0.299   5.001   8.248  0.1258 -0.5615  0.4706
 4663TIP3    H135548   0.299   5.062   8.322  4.7436 -0.0024  0.2942
 4663TIP3    H235549   0.330   4.918   8.285 -0.4979 -1.1572 -0.3149
 4664TIP3   OH235550   0.606   2.961   0.812  0.8358  0.6942  0.1866
 4664TIP3    H135551   0.602   2.953   0.908  2.3925 -0.9337  0.1795
 4664TIP3    H235552   0.674   3.026   0.796 -0.4304  2.0592  0.1533
 4665TIP3   OH235553   5.833   4.606   2.752 -0.3312  0.1768  0.0297
 4665TIP3    H135554   5.878   4.632   2.832 -0.5960  2.8745 -0.6000
 4665TIP3    H235555   5.748   4.573   2.782  0.9324 -2.4864  1.0340
 4666TIP3   OH235556   1.906   5.958   1.399 -0.0092 -0.2609 -0.3987
 4666TIP3    H135557   1.933   5.868   1.419  0.5133  0.2151  1.1370
 4666TIP3    H235558   1.810   5.954   1.397  0.0136 -0.9248 -0.7802
 4667TIP3   OH235559   3.024   2.705   0.549  0.3433  0.0417 -0.3126
 4667TIP3    H135560   2.996   2.636   0.490  1.6449 -0.3518 -0.4768
 4667TIP3    H235561   3.074   2.661   0.617 -0.8846  0.5233  0.9656
 4668TIP3   OH235562   1.048   0.427   7.780 -0.3308 -0.0754 -0.0356
 4668TIP3    H135563   1.076   0.396   7.694  0.7812 -1.4128  0.7679
 4668TIP3    H235564   1.005   0.351   7.820 -1.6564  0.7982  0.2728
 4669TIP3   OH235565   3.134   5.757   0.607  0.4670 -0.8232 -0.2981
 4669TIP3    H135566   3.083   5.805   0.541 -0.9968 -1.8541  0.0327
 4669TIP3    H235567   3.222   5.755   0.572  0.6117  2.0105 -0.3856
 4670TIP3   OH235568   1.844   4.903   7.805  0.0677  0.8477 -0.4435
 4670TIP3    H135569   1.905   4.830   7.809 -0.8721  0.0202 -0.8563
 4670TIP3    H235570   1.893   4.977   7.839  0.7518 -0.1625  0.8349
 4671TIP3   OH235571   0.940   5.082   7.671 -0.3317  0.4152 -0.0438
 4671TIP3    H135572   0.893   5.162   7.697 -1.0168 -0.7830  2.7909
 4671TIP3    H235573   1.030   5.112   7.658 -0.6439  1.7427  0.6013
 4672TIP3   OH235574   5.970   3.881   7.802  0.0637  0.2267 -0.1002
 4672TIP3    H135575   6.023   3.925   7.868 -1.8971  2.9498 -0.1445
 4672TIP3    H235576   6.021   3.890   7.721  1.2444 -0.7320  0.5036
 4673TIP3   OH235577   1.132   4.635   1.144  0.0720 -0.2687 -0.2998
 4673TIP3    H135578   1.041   4.665   1.145  0.1560 -0.0091 -0.2430
 4673TIP3    H235579   1.173   4.685   1.073  0.1536 -0.4340 -0.3687
 4674TIP3   OH235580   1.030   5.442   7.063  0.1997  0.3104  0.0511
 4674TIP3    H135581   1.030   5.411   6.972  0.5460 -1.2859  0.5628
 4674TIP3    H235582   1.036   5.362   7.115  0.1834  1.2166  1.4848
 4675TIP3   OH235583   5.821   2.702   7.272 -0.4199 -0.2357  0.4969
 4675TIP3    H135584   5.781   2.639   7.212  0.4664 -0.7617  0.4484
 4675TIP3    H235585   5.890   2.744   7.221 -1.5489  1.4281  0.2522
 4676TIP3   OH235586   2.136   2.457   7.019  0.2327  0.3580 -0.6902
 4676TIP3    H135587   2.158   2.427   6.931  0.1954  2.0963 -1.3330
 4676TIP3    H235588   2.123   2.377   7.070  1.2981 -0.6755 -1.9935
 4677TIP3   OH235589   4.441   1.143   0.065 -0.3223  0.2668 -0.2726
 4677TIP3    H135590   4.479   1.159  -0.021 -0.7453 -0.1631 -0.5484
 4677TIP3    H235591   4.379   1.215   0.078  0.9447  1.2744  0.4146
 4678TIP3   OH235592   3.224   0.206   0.320  0.7910 -0.3514 -0.1273
 4678TIP3    H135593   3.133   0.183   0.342  0.5366 -0.0233 -0.8304
 4678TIP3    H235594   3.219   0.247   0.234  1.1021  3.0883  1.3099
 4679TIP3   OH235595   0.414   4.377   1.496  0.4278  0.0165  1.1569
 4679TIP3    H135596   0.394   4.287   1.522  0.0347 -0.9291 -1.9847
 4679TIP3    H235597   0.336   4.427   1.522  0.0448 -0.8213  1.6642
 4680TIP3   OH235598   4.569   2.492   2.174 -0.3815 -0.2089 -0.1393
 4680TIP3    H135599   4.575   2.400   2.201 -2.1364 -0.5790 -0.8922
 4680TIP3    H235600   4.606   2.541   2.247  1.7044 -1.5473 -0.2204
 4681TIP3   OH235601   0.746   0.613   6.697 -0.1973 -0.1180 -0.3120
 4681TIP3    H135602   0.680   0.569   6.751 -0.5399 -0.6555 -1.1557
 4681TIP3    H235603   0.727   0.706   6.707  1.8706  0.1272  3.2761
 4682TIP3   OH235604   4.181   3.973   0.098 -0.3483  0.1488 -0.0736
 4682TIP3    H135605   4.198   3.963   0.192  0.4997  1.6947 -0.0228
 4682TIP3    H235606   4.115   4.043   0.093  2.6518  3.1799 -0.6860
 4683TIP3   OH235607   0.294   6.358   2.169  0.1913  0.1167  0.2551
 4683TIP3    H135608   0.204   6.330   2.156 -0.6514  2.5054  0.4250
 4683TIP3    H235609   0.300   6.379   2.262  1.0094 -0.2622  0.2979
 4684TIP3   OH235610   6.442   4.795   6.490  0.0565  0.0311  0.3358
 4684TIP3    H135611   6.363   4.747   6.466  0.2489 -0.0901 -0.0568
 4684TIP3    H235612   6.514   4.734   6.474  0.2788  0.3481  0.1174
 4685TIP3   OH235613   4.336   1.350   8.052  0.1517  0.3869 -0.0152
 4685TIP3    H135614   4.298   1.270   8.089  0.6115  0.8423  1.5431
 4685TIP3    H235615   4.262   1.396   8.012 -1.1622  1.3889  3.1759
 4686TIP3   OH235616   2.927   5.117   1.231 -0.3542 -0.1075 -0.1219
 4686TIP3    H135617   2.989   5.116   1.304  0.3540 -0.5668 -0.7111
 4686TIP3    H235618   2.978   5.151   1.157  0.3487 -3.7989 -1.5503
 4687TIP3   OH235619   0.549   2.208   7.728  0.1216  0.4959  0.0979
 4687TIP3    H135620   0.454   2.209   7.737  0.0983 -0.9376  0.1788
 4687TIP3    H235621   0.579   2.153   7.800  0.8908 -0.4106 -0.8941
 4688TIP3   OH235622   4.626   0.125   8.510  0.2287  0.0876 -0.4358
 4688TIP3    H135623   4.678   0.199   8.540 -1.6894  1.1657  0.4413
 4688TIP3    H235624   4.656   0.051   8.563  0.9402  0.6524 -0.0417
 4689TIP3   OH235625   3.347   0.830   7.424  0.1188 -0.2036 -0.1645
 4689TIP3    H135626   3.367   0.742   7.456  0.6992 -0.2813 -0.7230
 4689TIP3    H235627   3.273   0.859   7.477  0.5372 -0.6512  0.6753
 4690TIP3   OH235628   1.105   4.915   8.364  0.3319  0.0296 -0.5731
 4690TIP3    H135629   1.148   4.858   8.300 -1.1256  0.6360 -2.1845
 4690TIP3    H235630   1.039   4.858   8.405 -0.0915  0.1401 -1.0854
 4691TIP3   OH235631   0.031   6.389   0.784  0.4614 -0.0309 -0.0727
 4691TIP3    H135632   0.090   6.370   0.856 -0.6466 -0.2510  0.8196
 4691TIP3    H235633   0.008   6.481   0.795  0.5273  0.0172 -0.3312
 4692TIP3   OH235634   2.534   3.116   6.860 -0.2161  0.0380  0.8248
 4692TIP3    H135635   2.617   3.089   6.821 -1.4060 -1.4562 -0.8161
 4692TIP3    H235636   2.554   3.128   6.953  2.2552  1.6746  0.1927
 4693TIP3   OH235637   5.997   5.908   8.412  0.1903  0.2747  0.1964
 4693TIP3    H135638   6.092   5.907   8.420  0.2012  0.9660  0.2689
 4693TIP3    H235639   5.978   5.990   8.366 -0.4409  0.7628  1.2861
 4694TIP3   OH235640   5.937   1.924   7.202 -0.4167  0.8026  0.1282
 4694TIP3    H135641   5.905   1.955   7.117 -0.7482 -0.0410 -0.0625
 4694TIP3    H235642   6.032   1.925   7.194 -0.4401  1.0195 -0.1430
 4695TIP3   OH235643   5.818   3.799   1.395 -0.4106 -0.1174 -0.4417
 4695TIP3    H135644   5.731   3.818   1.430 -1.0033 -0.3101 -1.7770
 4695TIP3    H235645   5.825   3.853   1.317  1.1515  0.7894  0.2911
 4696TIP3   OH235646   3.619   0.076   8.226  0.3629 -0.0264 -0.0619
 4696TIP3    H135647   3.635   0.160   8.269 -0.5605  0.4819 -0.7023
 4696TIP3    H235648   3.576   0.022   8.293  0.1387  0.3120  0.0676
 4697TIP3   OH235649   0.159   0.812   0.674  0.2358  0.1664  0.4263
 4697TIP3    H135650   0.097   0.748   0.639 -0.2889 -0.6314  2.6082
 4697TIP3    H235651   0.229   0.759   0.712 -0.0022  0.8588  1.9145
 4698TIP3   OH235652   5.382   4.880   7.868  0.3450 -0.4457 -0.1739
 4698TIP3    H135653   5.411   4.899   7.957 -0.4734  1.1123 -0.2081
 4698TIP3    H235654   5.379   4.785   7.864  2.7944 -0.6277  0.6559
 4699TIP3   OH235655   2.346   2.549   7.284  0.3050 -0.3180  0.3775
 4699TIP3    H135656   2.385   2.599   7.212 -1.0336  0.6617  0.3125
 4699TIP3    H235657   2.393   2.465   7.281  2.0380  0.5989 -0.0182
 4700TIP3   OH235658   1.432   4.585   1.046  0.1231  0.5781  0.3836
 4700TIP3    H135659   1.356   4.534   1.075  1.2143 -0.7140  1.0146
 4700TIP3    H235660   1.415   4.599   0.952 -1.1415  0.7675  0.6134
 4701TIP3   OH235661   0.122   0.892   7.874  0.3064 -0.4655 -0.0309
 4701TIP3    H135662   0.044   0.843   7.899 -0.2895 -0.1560 -1.2137
 4701TIP3    H235663   0.114   0.976   7.920 -0.4328 -0.1539 -0.7125
 4702TIP3   OH235664   5.493   5.340   6.452  0.2575 -0.1127  0.4179
 4702TIP3    H135665   5.530   5.405   6.392 -0.6907  0.9137  0.9059
 4702TIP3    H235666   5.483   5.261   6.399  1.7699  0.0149 -0.0982
 4703TIP3   OH235667   0.824   1.809   7.171  0.6284  0.3603 -0.1292
 4703TIP3    H135668   0.754   1.805   7.106 -0.9612  0.5696  1.4763
 4703TIP3    H235669   0.833   1.719   7.203  0.8311  0.4015 -0.0671
 4704TIP3   OH235670   2.047   4.629   8.387  0.0263  0.2269 -0.3347
 4704TIP3    H135671   1.963   4.599   8.423  0.5394 -0.5256  0.2795
 4704TIP3    H235672   2.112   4.578   8.435  0.8182  0.5206 -1.0846
 4705TIP3   OH235673   4.174   6.746   8.371  0.1979 -0.5875 -0.4478
 4705TIP3    H135674   4.133   6.818   8.418  0.7115 -0.2092 -0.5751
 4705TIP3    H235675   4.242   6.714   8.431 -0.2407 -1.1808 -0.2551
 4706TIP3   OH235676   3.112   5.206   1.050  0.7444  0.3367 -0.3086
 4706TIP3    H135677   3.113   5.161   0.966 -0.2056  2.4384 -1.5252
 4706TIP3    H235678   3.202   5.237   1.061  0.6696  0.8220 -1.0124
 4707TIP3   OH235679   4.903   3.872   1.870  0.6066 -0.6877  0.0033
 4707TIP3    H135680   4.912   3.777   1.868  2.4758 -0.5344 -1.0804
 4707TIP3    H235681   4.817   3.889   1.832  0.7953 -1.9102 -1.0097
 4708TIP3   OH235682   3.261   1.626   2.083  0.0256  0.2256 -0.4378
 4708TIP3    H135683   3.233   1.558   2.144 -1.1936  0.2712 -0.9280
 4708TIP3    H235684   3.346   1.654   2.117  0.8707 -1.9359 -0.5414
 4709TIP3   OH235685   2.566   5.654   7.393  0.4680 -0.4303 -0.3895
 4709TIP3    H135686   2.471   5.657   7.400  0.3313 -0.9753 -1.6537
 4709TIP3    H235687   2.597   5.724   7.451 -0.8406  1.6750 -2.0382
 4710TIP3   OH235688   0.734   3.425   0.537  0.2085 -0.5148 -0.6288
 4710TIP3    H135689   0.750   3.332   0.525 -1.4177 -0.9950  0.5639
 4710TIP3    H235690   0.639   3.432   0.550  0.5674  0.9725  1.9405
 4711TIP3   OH235691   1.536   6.683   0.210  0.3568 -0.2741  0.8807
 4711TIP3    H135692   1.461   6.736   0.237  0.7731 -0.4193  2.4437
 4711TIP3    H235693   1.563   6.720   0.126  0.4764  1.8465  1.8009
 4712TIP3   OH235694   5.491   5.429   7.803  0.3929 -0.3689  0.1758
 4712TIP3    H135695   5.418   5.472   7.760  0.6798  0.6592  0.6973
 4712TIP3    H235696   5.485   5.338   7.773 -0.9784 -0.2708  0.0647
 4713TIP3   OH235697   6.419   3.345   2.063  0.2490 -0.1143  0.2798
 4713TIP3    H135698   6.480   3.416   2.040  3.4682 -1.7726  2.8465
 4713TIP3    H235699   6.422   3.341   2.158 -1.0362 -2.7214  0.2853
 4714TIP3   OH235700   4.019   2.817   0.696 -0.4378 -0.1367  0.5918
 4714TIP3    H135701   3.989   2.903   0.667 -0.5350 -0.3497  0.0489
 4714TIP3    H235702   3.971   2.755   0.642 -0.3157 -0.5319  0.9323
 4715TIP3   OH235703   2.969   6.301   8.325 -0.4634 -0.1587 -0.1311
 4715TIP3    H135704   3.055   6.276   8.292 -0.5379  0.2200 -0.6275
 4715TIP3    H235705   2.914   6.308   8.246 -0.5171  1.2519 -0.0006
 4716TIP3   OH235706   0.496   4.967   1.980  0.3986 -0.2441  0.2215
 4716TIP3    H135707   0.414   5.013   1.964 -0.9992 -2.2296  1.2086
 4716TIP3    H235708   0.530   5.006   2.061  0.3198  0.4349 -0.0681
 4717TIP3   OH235709   0.602   6.739   7.266 -0.0415 -0.1174  0.5532
 4717TIP3    H135710   0.519   6.693   7.271 -0.6090  0.5644 -1.5561
 4717TIP3    H235711   0.622   6.743   7.172  1.2853  1.5819  0.8493
 4718TIP3   OH235712   1.595   0.810   0.167  0.3776  0.2478  0.4319
 4718TIP3    H135713   1.616   0.717   0.155  0.2542  0.4553 -1.9061
 4718TIP3    H235714   1.675   0.856   0.142  0.9420  0.8116  2.9795
 4719TIP3   OH235715   0.799   3.922   8.257  0.1576 -0.8237  0.5693
 4719TIP3    H135716   0.890   3.951   8.268  0.8035 -2.2222 -0.7823
 4719TIP3    H235717   0.752   3.962   8.330  1.5081  1.3465  0.3321
 4720TIP3   OH235718   6.789   0.715   0.329 -0.3070 -0.1313  0.6171
 4720TIP3    H135719   6.731   0.787   0.351 -2.6078 -1.5279 -0.4769
 4720TIP3    H235720   6.876   0.754   0.324 -1.2850  2.2741  1.2878
 4721TIP3   OH235721   0.118   3.073   1.926  0.2812  0.0988  0.9843
 4721TIP3    H135722   0.125   2.986   1.965  0.5238 -0.6595 -0.6631
 4721TIP3    H235723   0.191   3.122   1.963  0.2384 -0.4250  1.8024
 4722TIP3   OH235724   5.017   3.740   6.265 -0.0352 -0.6700 -0.2437
 4722TIP3    H135725   4.996   3.671   6.327  0.1049 -1.0542 -0.6231
 4722TIP3    H235726   5.110   3.759   6.280 -0.3089  0.1255  0.5366
 4723TIP3   OH235727   6.623   0.150   1.868 -0.0439  0.6692 -0.1549
 4723TIP3    H135728   6.643   0.058   1.884  0.7823  0.8117 -0.3318
 4723TIP3    H235729   6.707   0.189   1.845 -0.3844  1.4768 -0.0507
 4724TIP3   OH235730   4.700   5.350   0.401  0.0023  0.4259 -0.0211
 4724TIP3    H135731   4.723   5.262   0.432  1.8784  1.1663  0.7909
 4724TIP3    H235732   4.632   5.334   0.335  0.5109 -1.6609 -0.1304
 4725TIP3   OH235733   6.646   3.247   1.422  0.3502  0.2313 -0.4809
 4725TIP3    H135734   6.692   3.290   1.349  1.1080  1.2344  0.5529
 4725TIP3    H235735   6.710   3.244   1.493  0.6888 -3.5452 -0.7345
 4726TIP3   OH235736   3.297   1.671   0.507 -0.6135 -0.1305 -0.1792
 4726TIP3    H135737   3.333   1.753   0.474  0.4647 -0.6456 -0.3352
 4726TIP3    H235738   3.204   1.688   0.520 -0.6121  0.7694 -1.2906
 4727TIP3   OH235739   1.735   5.304   7.753 -0.1689  0.4098 -0.1795
 4727TIP3    H135740   1.703   5.214   7.765  0.7055  0.2915  1.5059
 4727TIP3    H235741   1.757   5.308   7.660 -0.8870 -0.9020 -0.4364
 4728TIP3   OH235742   6.068   6.491   8.210 -0.3570 -0.3229  0.1517
 4728TIP3    H135743   6.101   6.578   8.232  0.2248 -0.5119  0.0487
 4728TIP3    H235744   6.007   6.506   8.138 -0.6301  0.0529  0.4586
 4729TIP3   OH235745   2.834   1.764   7.760  0.5699  0.4019 -0.4015
 4729TIP3    H135746   2.805   1.737   7.673  2.9617 -0.5936 -0.9732
 4729TIP3    H235747   2.920   1.803   7.745  0.9933  0.2777  1.5123
 4730TIP3   OH235748   0.285   5.372   2.691  0.2754 -0.3494  0.1199
 4730TIP3    H135749   0.252   5.287   2.721  1.1781 -1.3245 -1.5152
 4730TIP3    H235750   0.374   5.377   2.726  0.3471 -0.2324 -0.0766
 4731TIP3   OH235751   0.321   3.794   8.515 -0.1118  0.5390  0.2708
 4731TIP3    H135752   0.306   3.813   8.608  0.1243  0.1503  0.3944
 4731TIP3    H235753   0.312   3.698   8.509  0.9967  0.4328  0.1109
 4732TIP3   OH235754   0.575   1.895   7.554 -0.8058  0.3230 -0.3069
 4732TIP3    H135755   0.655   1.866   7.598 -1.1460  0.6466  0.5539
 4732TIP3    H235756   0.548   1.972   7.604 -3.1024 -1.2918  1.1240
 4733TIP3   OH235757   0.998   1.530   8.507  0.5757 -0.0823  0.1047
 4733TIP3    H135758   0.937   1.602   8.518 -0.7626 -1.1400 -0.1934
 4733TIP3    H235759   0.981   1.498   8.418  1.9330 -0.0825 -0.1828
 4734TIP3   OH235760   4.494   5.039   7.348  0.4948 -0.0106 -0.0710
 4734TIP3    H135761   4.431   5.022   7.278  0.2566 -0.4140  0.2372
 4734TIP3    H235762   4.579   5.026   7.308  0.5555  2.9974 -1.2208
 4735TIP3   OH235763   0.603   1.296   0.812  0.2691  0.1967 -0.1402
 4735TIP3    H135764   0.627   1.265   0.899 -0.3911 -1.3163 -0.4660
 4735TIP3    H235765   0.509   1.277   0.805 -0.3598  2.8375 -0.1697
 4736TIP3   OH235766   6.194   3.185   0.588 -0.4776 -0.1351 -0.0109
 4736TIP3    H135767   6.156   3.179   0.675  1.2795  2.4169  1.0819
 4736TIP3    H235768   6.131   3.237   0.537 -0.8388 -0.3724  0.1964
 4737TIP3   OH235769   0.614   2.898   1.353 -0.1878 -0.0542 -0.3649
 4737TIP3    H135770   0.604   2.838   1.427  0.2637 -0.2455 -0.4554
 4737TIP3    H235771   0.534   2.950   1.353 -0.8276 -1.0116 -0.5973
 4738TIP3   OH235772   2.641   4.403   0.231  0.5115  0.0530 -0.2975
 4738TIP3    H135773   2.723   4.381   0.187 -0.2725 -1.9511 -0.8726
 4738TIP3    H235774   2.573   4.381   0.167 -0.4840  3.1722 -0.4530
 4739TIP3   OH235775   0.635   3.309   6.252 -0.7545 -0.3856  0.1197
 4739TIP3    H135776   0.611   3.337   6.340  1.1923 -0.1402  0.6152
 4739TIP3    H235777   0.725   3.278   6.260 -0.0593  0.8552 -2.0442
 4740TIP3   OH235778   2.123   3.379   6.290  0.1052  0.1698 -0.1009
 4740TIP3    H135779   2.107   3.474   6.291  2.7798  0.7849  2.7263
 4740TIP3    H235780   2.047   3.342   6.334 -0.0712  1.2783  0.5778
 4741TIP3   OH235781   3.024   6.652   1.160 -0.5556  0.5021 -0.0283
 4741TIP3    H135782   2.974   6.637   1.079  1.0039  1.1385 -1.1650
 4741TIP3    H235783   3.065   6.568   1.178 -0.5111  0.4894 -0.1821
 4742TIP3   OH235784   1.652   5.534   7.452  0.6998  0.1303 -0.3931
 4742TIP3    H135785   1.560   5.532   7.479  0.3306 -0.8167 -1.6084
 4742TIP3    H235786   1.649   5.522   7.357  2.0543  0.8566 -0.5550
 4743TIP3   OH235787   0.183   4.478   8.528 -0.5292 -0.5286  0.6979
 4743TIP3    H135788   0.120   4.431   8.582 -0.2303 -0.2337  1.3209
 4743TIP3    H235789   0.136   4.500   8.448 -0.6023 -2.1257  0.2493
 4744TIP3   OH235790   6.175   6.346   1.593  0.3083  0.0176 -0.4091
 4744TIP3    H135791   6.095   6.348   1.645  0.1544 -2.1097 -0.4687
 4744TIP3    H235792   6.145   6.337   1.502  0.5158 -3.4418 -0.2483
 4745TIP3   OH235793   6.482   6.154   8.391  0.1961  0.0948 -0.2834
 4745TIP3    H135794   6.533   6.177   8.313 -0.1009 -0.3153 -0.6025
 4745TIP3    H235795   6.391   6.164   8.364  0.0963  0.8968  0.3071
 4746TIP3   OH235796   0.866   6.658   0.909 -0.3313 -0.1472  0.1227
 4746TIP3    H135797   0.824   6.583   0.952 -0.2553 -0.6479 -0.6595
 4746TIP3    H235798   0.877   6.630   0.818 -0.0347  0.7089 -0.1083
 4747TIP3   OH235799   1.035   0.682   0.410 -0.5083 -0.3026  0.8317
 4747TIP3    H135800   1.115   0.721   0.375  1.2685 -1.7301  2.9984
 4747TIP3    H235801   0.983   0.757   0.438 -0.0269  0.6733 -0.7536
 4748TIP3   OH235802   1.677   4.799   0.462 -0.0342 -0.1551 -0.0956
 4748TIP3    H135803   1.670   4.732   0.530  1.3525  0.5013  0.7280
 4748TIP3    H235804   1.771   4.819   0.457 -0.3552  1.3641 -0.6596
 4749TIP3   OH235805   4.891   1.591   8.599  0.6642 -0.7014  0.1608
 4749TIP3    H135806   4.891   1.622   8.508  1.7242 -1.3786 -0.0786
 4749TIP3    H235807   4.830   1.517   8.599 -1.4574  0.9427  0.6197
 4750TIP3   OH235808   5.103   6.139   1.006  0.1539  0.5931 -0.2676
 4750TIP3    H135809   5.129   6.199   0.935 -1.2503 -0.8897 -2.1664
 4750TIP3    H235810   5.021   6.176   1.039  0.1530  0.6054 -0.2832
 4751TIP3   OH235811   3.831   4.628   8.096  0.0551  0.4579 -0.5171
 4751TIP3    H135812   3.895   4.627   8.025 -0.3723  0.7179 -0.9117
 4751TIP3    H235813   3.882   4.651   8.174  0.3676  1.1474 -0.9091
 4752TIP3   OH235814   5.361   2.293   0.096  0.0718  0.1866  0.9900
 4752TIP3    H135815   5.409   2.305   0.014 -0.3430  1.6907  0.9333
 4752TIP3    H235816   5.269   2.295   0.070 -0.0640  0.8179  1.4876
 4753TIP3   OH235817   1.948   1.589   1.674  0.0915 -0.9017  0.0816
 4753TIP3    H135818   2.028   1.604   1.724 -0.2492  3.2482 -0.3125
 4753TIP3    H235819   1.878   1.586   1.740  0.1703 -0.5249  0.1845
 4754TIP3   OH235820   4.313   4.268   8.296  0.2312  0.5984 -0.3404
 4754TIP3    H135821   4.289   4.201   8.361  0.1253  0.4322 -0.5476
 4754TIP3    H235822   4.312   4.221   8.212  0.6967  0.7333 -0.4233
 4755TIP3   OH235823   0.828   1.534   7.519  0.1563 -0.1991  0.4491
 4755TIP3    H135824   0.813   1.542   7.424  0.0437 -0.4609  0.4435
 4755TIP3    H235825   0.888   1.606   7.540  0.8131 -0.6168  0.0428
 4756TIP3   OH235826   2.374   2.597   7.800 -0.1399 -0.5557 -0.1563
 4756TIP3    H135827   2.455   2.634   7.833 -0.7033  0.0613  0.5596
 4756TIP3    H235828   2.337   2.548   7.874 -1.1805  0.4536  0.0286
 4757TIP3   OH235829   4.114   4.434   1.633 -0.3062 -0.1322 -0.1146
 4757TIP3    H135830   4.088   4.510   1.685  2.6313  1.9304 -1.4115
 4757TIP3    H235831   4.102   4.360   1.693 -3.2531  1.2400  1.2060
 4758TIP3   OH235832   0.275   2.706   6.929  0.3382 -0.5996 -0.7376
 4758TIP3    H135833   0.191   2.752   6.935  1.0766  0.7709 -0.3561
 4758TIP3    H235834   0.325   2.756   6.865  1.0862 -1.0241 -0.4999
 4759TIP3   OH235835   4.395   4.701   7.714 -0.9261 -0.4176 -0.0078
 4759TIP3    H135836   4.324   4.756   7.681 -0.5284  1.2960  1.8821
 4759TIP3    H235837   4.461   4.762   7.746 -0.0140 -1.9837  1.2421
 4760TIP3   OH235838   2.414   5.100   8.045 -0.8418 -0.1405 -0.6258
 4760TIP3    H135839   2.346   5.054   8.094  1.6405  0.0039  3.4788
 4760TIP3    H235840   2.454   5.033   7.990 -0.9414 -1.5910  0.9834
 4761TIP3   OH235841   4.039   1.717   0.044  0.1797  0.2710  0.1553
 4761TIP3    H135842   4.106   1.649   0.053  1.4432  1.2287 -1.6779
 4761TIP3    H235843   4.005   1.727   0.133  3.3866  0.6783  1.4697
 4762TIP3   OH235844   4.641   3.870   1.796  0.5178 -0.2947 -0.7145
 4762TIP3    H135845   4.562   3.899   1.841  0.2396  1.4886 -2.2506
 4762TIP3    H235846   4.610   3.806   1.732  0.5292 -0.6472 -0.3746
 4763TIP3   OH235847   0.786   2.995   2.499 -0.2700  0.1935  0.3657
 4763TIP3    H135848   0.691   2.998   2.494 -0.2684 -0.2735 -0.0752
 4763TIP3    H235849   0.814   2.963   2.413  0.1278 -2.1986  1.2946
 4764TIP3   OH235850   5.148   5.332   8.652 -0.1159 -0.0116  0.2595
 4764TIP3    H135851   5.153   5.261   8.716 -1.3995 -0.3098  0.0457
 4764TIP3    H235852   5.161   5.290   8.568  1.2690  0.3385  0.2810
 4765TIP3   OH235853   1.497   4.518   7.655 -0.0976  0.3807  0.0464
 4765TIP3    H135854   1.541   4.581   7.712  2.2433 -0.6208 -0.5177
 4765TIP3    H235855   1.500   4.558   7.568  1.8440 -0.5960 -0.4085
 4766TIP3   OH235856   1.500   3.733   0.292 -0.0138  0.0111 -0.5436
 4766TIP3    H135857   1.456   3.794   0.233  1.8636  0.5590 -1.4865
 4766TIP3    H235858   1.448   3.734   0.372 -0.9527  1.6104 -1.1278
 4767TIP3   OH235859   2.522   2.822   0.918 -0.4498  0.0855 -0.5654
 4767TIP3    H135860   2.606   2.777   0.903 -0.1498 -0.0139  1.1890
 4767TIP3    H235861   2.469   2.758   0.964 -1.1310  0.5089 -0.7578
 4768TIP3   OH235862   2.818   5.823   1.609 -0.5452 -0.3224  0.0171
 4768TIP3    H135863   2.909   5.801   1.627 -0.8194 -0.5337  1.2818
 4768TIP3    H235864   2.803   5.904   1.658 -1.0649 -0.3531 -0.0883
 4769TIP3   OH235865   1.166   5.667   7.119 -0.4617  0.0404  0.2658
 4769TIP3    H135866   1.112   5.588   7.108  0.7428 -0.8737  0.7224
 4769TIP3    H235867   1.193   5.664   7.211 -1.6935  1.8540  0.7277
 4770TIP3   OH235868   2.246   5.774   8.377 -0.4116  0.1664 -0.1653
 4770TIP3    H135869   2.186   5.708   8.413  1.2820 -1.4242 -0.1484
 4770TIP3    H235870   2.209   5.795   8.292 -0.6201 -1.3566 -0.4762
 4771TIP3   OH235871   4.640   6.352   1.482 -0.5847 -0.2180  0.1454
 4771TIP3    H135872   4.581   6.378   1.411 -0.3352  0.4446  0.1697
 4771TIP3    H235873   4.587   6.296   1.539 -1.5646  1.3162  0.8050
 4772TIP3   OH235874   4.836   6.681   0.863  0.2843 -0.2737 -0.2041
 4772TIP3    H135875   4.744   6.657   0.853 -0.0527  0.9655 -0.2728
 4772TIP3    H235876   4.837   6.743   0.937  0.7500  1.2477 -1.4130
 4773TIP3   OH235877   1.111   4.502   7.073  0.0686  0.2384 -0.3652
 4773TIP3    H135878   1.191   4.475   7.029  0.5827  1.3322 -0.1414
 4773TIP3    H235879   1.047   4.434   7.051  0.4631  0.4336 -2.3380
 4774TIP3   OH235880   3.320   0.820   1.225 -0.3555 -0.4555 -0.1869
 4774TIP3    H135881   3.316   0.738   1.176  0.9174 -0.2946 -0.5903
 4774TIP3    H235882   3.378   0.802   1.299  0.3684  0.2203 -0.5772
 4775TIP3   OH235883   0.046   1.973   8.485  0.4661 -0.1059  0.8005
 4775TIP3    H135884   0.124   2.012   8.524  0.4101 -0.9804  1.8356
 4775TIP3    H235885   0.060   1.879   8.492 -0.3099 -0.2738  0.2214
 4776TIP3   OH235886   1.065   6.734   1.100 -0.0055 -0.1766 -0.3034
 4776TIP3    H135887   1.119   6.806   1.069 -1.0868  0.9817  0.4206
 4776TIP3    H235888   1.007   6.714   1.026 -0.0123  0.0055 -0.3472
 4777TIP3   OH235889   6.228   3.520   8.286  0.0392 -0.1985 -0.3721
 4777TIP3    H135890   6.293   3.541   8.353 -0.3502  0.1624 -0.1037
 4777TIP3    H235891   6.226   3.424   8.284  0.3639 -0.2114 -0.1762
 4778TIP3   OH235892   4.175   3.560   8.665  0.1012 -0.6091  0.6737
 4778TIP3    H135893   4.227   3.560   8.746  0.0229  0.5346  0.7420
 4778TIP3    H235894   4.190   3.473   8.627  1.9420 -0.3876  0.7788
 4779TIP3   OH235895   0.624   2.573   0.292 -0.4857 -0.0928 -0.4012
 4779TIP3    H135896   0.635   2.621   0.374  1.1490 -0.3427 -0.4400
 4779TIP3    H235897   0.550   2.515   0.308 -0.4072  0.1051  0.7924
 4780TIP3   OH235898   5.828   0.467   0.063 -0.2921  0.1052 -0.2064
 4780TIP3    H135899   5.863   0.383   0.093  0.4912  0.3829 -0.3374
 4780TIP3    H235900   5.746   0.444   0.019 -1.4718 -0.3534  2.0329
 4781TIP3   OH235901   0.256   5.252   6.500 -0.1937 -0.3007  0.8188
 4781TIP3    H135902   0.313   5.328   6.487  0.3547 -0.5468  1.7295
 4781TIP3    H235903   0.297   5.182   6.450  0.1833 -0.4114  1.2730
 4782TIP3   OH235904   4.799   1.840   8.055  0.4643 -0.3116  0.3629
 4782TIP3    H135905   4.850   1.840   7.973 -0.3038 -1.0207 -0.1296
 4782TIP3    H235906   4.778   1.932   8.070  1.8150 -0.0098  0.5324
 4783TIP3   OH235907   5.684   5.946   0.474 -0.0121 -0.1741 -0.1573
 4783TIP3    H135908   5.614   6.002   0.442  1.3139  3.9018  3.1663
 4783TIP3    H235909   5.759   5.968   0.419 -0.2486 -1.3764 -1.0081
 4784TIP3   OH235910   0.244   3.177   0.918  0.1259 -0.8030 -0.5510
 4784TIP3    H135911   0.331   3.214   0.932 -0.0254 -0.6777  0.1186
 4784TIP3    H235912   0.196   3.246   0.872 -0.0577 -0.2801  0.4036
 4785TIP3   OH235913   5.671   5.501   7.572  0.6200  0.5240 -0.3315
 4785TIP3    H135914   5.608   5.492   7.643  0.3905 -0.1851 -0.6211
 4785TIP3    H235915   5.629   5.560   7.509  0.1319 -0.1248 -0.6321
 4786TIP3   OH235916   3.211   2.649   8.663  0.8316  0.2489 -0.5921
 4786TIP3    H135917   3.142   2.704   8.700  0.2497 -0.5423 -0.4739
 4786TIP3    H235918   3.264   2.709   8.611  0.9410  1.1513  0.5299
 4787TIP3   OH235919   2.480   3.005   0.355 -0.1662 -0.0033  0.2471
 4787TIP3    H135920   2.477   2.961   0.440 -2.1093  0.5144  0.4977
 4787TIP3    H235921   2.532   3.084   0.371  0.0119 -0.2290  0.7997
 4788TIP3   OH235922   4.485   0.254   2.731  0.5727 -0.4457  0.2367
 4788TIP3    H135923   4.470   0.349   2.723  1.3962 -0.2837  0.4910
 4788TIP3    H235924   4.562   0.237   2.677 -0.3253 -1.2038 -0.8388
 4789TIP3   OH235925   2.738   3.835   7.777 -0.3021  0.8778 -0.4898
 4789TIP3    H135926   2.720   3.752   7.732  0.2560  0.4681  0.0246
 4789TIP3    H235927   2.804   3.812   7.843 -0.0529  1.7601 -0.4305
 4790TIP3   OH235928   5.619   3.118   0.272 -0.1130  0.0762  0.0203
 4790TIP3    H135929   5.546   3.136   0.212  0.1360 -0.7859 -0.5596
 4790TIP3    H235930   5.694   3.103   0.215  0.9261  2.4862  0.6462
 4791TIP3   OH235931   2.436   1.530   1.882  0.0952  0.0976  0.7442
 4791TIP3    H135932   2.459   1.561   1.794  0.7815  0.4147  1.0313
 4791TIP3    H235933   2.479   1.591   1.941 -1.0646  0.3871  1.3135
 4792TIP3   OH235934   4.158   0.806   6.548  0.1348  0.2986  0.1801
 4792TIP3    H135935   4.153   0.826   6.641  0.7325  1.4840 -0.0214
 4792TIP3    H235936   4.221   0.869   6.513  2.0993 -1.9000 -0.5555
 4793TIP3   OH235937   0.422   5.180   0.538  0.3126  0.6674  0.3198
 4793TIP3    H135938   0.486   5.142   0.478  0.6173 -3.5541  2.9045
 4793TIP3    H235939   0.473   5.237   0.595  0.7650  1.3656 -0.7610
 4794TIP3   OH235940   4.924   3.285   0.531  0.1733  0.1142 -0.2985
 4794TIP3    H135941   4.906   3.379   0.539  0.2172 -0.0087  1.5355
 4794TIP3    H235942   4.841   3.243   0.550  0.1422 -0.2451 -1.1680
 4795TIP3   OH235943   4.444   3.232   7.308 -0.2692 -0.4102  0.3168
 4795TIP3    H135944   4.379   3.302   7.312 -0.9601 -1.0241  0.0675
 4795TIP3    H235945   4.523   3.275   7.273 -0.3700  0.4492  1.0882
 4796TIP3   OH235946   2.310   6.577   1.437  1.1630 -0.4373  0.4973
 4796TIP3    H135947   2.369   6.652   1.427 -0.5830  1.0083  0.6973
 4796TIP3    H235948   2.224   6.615   1.453  0.0768 -2.4805 -0.0961
 4797TIP3   OH235949   3.654   1.629   7.805  0.3370 -0.2360 -0.6655
 4797TIP3    H135950   3.615   1.581   7.879  1.5908 -0.6512 -0.2467
 4797TIP3    H235951   3.591   1.699   7.787 -0.2166 -0.3917  0.5089
 4798TIP3   OH235952   3.921   0.254   8.132  0.4404  0.0543 -0.3427
 4798TIP3    H135953   3.988   0.199   8.091 -1.0519 -1.8112 -0.4245
 4798TIP3    H235954   3.849   0.256   8.068 -0.2183  0.7032  0.3957
 4799TIP3   OH235955   5.841   4.129   0.476  0.0948 -0.6480  0.1375
 4799TIP3    H135956   5.774   4.168   0.420 -1.9670  0.3334  3.0406
 4799TIP3    H235957   5.908   4.197   0.485 -0.1961 -0.3246 -0.1180
 4800TIP3   OH235958   1.495   5.467   7.209 -0.1298  0.3079  0.2082
 4800TIP3    H135959   1.424   5.403   7.212 -0.1323  0.3110  0.2118
 4800TIP3    H235960   1.557   5.431   7.145  0.6539 -0.4997  1.3867
 4801TIP3   OH235961   2.591   5.975   7.292 -0.3488  0.4316 -0.3551
 4801TIP3    H135962   2.625   5.932   7.370  0.1286  0.5127 -0.5128
 4801TIP3    H235963   2.524   6.034   7.325 -1.4567 -0.8740 -0.1977
 4802TIP3   OH235964   4.892   1.512   7.165 -0.0526  0.5772  0.7978
 4802TIP3    H135965   4.852   1.426   7.151 -0.2418  0.6527  0.8792
 4802TIP3    H235966   4.913   1.544   7.078  0.4058  0.2636  0.7867
 4803TIP3   OH235967   4.758   1.430   7.793 -0.0322  0.6953  0.6247
 4803TIP3    H135968   4.710   1.350   7.768 -0.7325  0.8596  1.4059
 4803TIP3    H235969   4.700   1.474   7.855  0.8526  1.2348  1.0859
 4804TIP3   OH235970   5.080   5.575   1.017 -0.3185 -0.0767 -0.1734
 4804TIP3    H135971   5.109   5.570   1.109 -0.5923  0.0494 -0.0808
 4804TIP3    H235972   5.061   5.484   0.993  1.9323 -0.4401 -0.8161
 4805TIP3   OH235973   3.565   1.415   0.132  0.5666  0.6440 -0.0131
 4805TIP3    H135974   3.574   1.380   0.043  2.7157  1.1422 -0.0519
 4805TIP3    H235975   3.563   1.338   0.188 -1.3738  0.3043 -0.4882
 4806TIP3   OH235976   1.979   0.243   7.882 -0.2430  0.1438  0.4941
 4806TIP3    H135977   1.931   0.265   7.802  0.7572 -1.8292 -0.7386
 4806TIP3    H235978   1.910   0.227   7.947 -1.1551  0.1051 -0.4513
 4807TIP3   OH235979   5.491   4.157   0.998  0.7432 -0.0911  0.3183
 4807TIP3    H135980   5.463   4.076   1.040  1.6377 -0.0585  0.9958
 4807TIP3    H235981   5.569   4.184   1.047  1.9507 -0.1542 -1.4873
 4808TIP3   OH235982   1.757   5.117   8.363  0.6846  0.2202 -0.2419
 4808TIP3    H135983   1.810   5.075   8.295  3.5311 -0.0741  1.9390
 4808TIP3    H235984   1.736   5.203   8.328  1.0274 -0.3644 -1.9483
 4809TIP3   OH235985   1.031   5.717   7.484 -0.2169 -0.0556  0.5273
 4809TIP3    H135986   1.112   5.688   7.441 -0.9876 -0.2373 -0.8746
 4809TIP3    H235987   1.027   5.666   7.565 -0.2306 -2.0291 -0.6494
 4810TIP3   OH235988   0.289   3.823   0.973  0.8962 -0.1667 -0.1192
 4810TIP3    H135989   0.283   3.732   1.003 -1.1010  0.5515  2.0382
 4810TIP3    H235990   0.320   3.871   1.049  0.0086  1.1975 -0.5761
 4811TIP3   OH235991   1.284   5.111   1.125 -0.1807 -0.1816  0.8008
 4811TIP3    H135992   1.218   5.072   1.067 -0.1442 -0.1517  0.7379
 4811TIP3    H235993   1.356   5.048   1.126  0.0070  0.0214  0.4551
 4812TIP3   OH235994   5.136   1.823   7.249 -0.1293  0.2499 -0.3901
 4812TIP3    H135995   5.123   1.868   7.165  0.2156  0.3926 -0.3686
 4812TIP3    H235996   5.205   1.873   7.292 -0.0007 -0.0837 -0.2074
 4813TIP3   OH235997   6.634   0.772   2.172 -0.2380  0.2425  0.2710
 4813TIP3    H135998   6.685   0.718   2.112  0.2000  2.0678 -1.0567
 4813TIP3    H235999   6.545   0.738   2.164  0.2672 -1.2142  0.5726
 4814TIP3   OH236000   5.715   4.280   0.039  0.5787 -0.1436 -0.5931
 4814TIP3    H136001   5.755   4.224  -0.028 -1.6983 -1.1549 -1.1717
 4814TIP3    H236002   5.755   4.366   0.024  0.0688 -0.2911 -3.3636
 4815TIP3   OH236003   3.569   2.498   7.328 -0.3326  0.0620 -0.2364
 4815TIP3    H136004   3.494   2.439   7.316  0.2665 -1.1187  1.4326
 4815TIP3    H236005   3.642   2.452   7.285 -0.2177  0.4323 -0.4386
 4816TIP3   OH236006   3.646   3.408   8.243  0.1729  0.1218 -0.0752
 4816TIP3    H136007   3.603   3.409   8.158 -1.2352 -0.0809  0.6032
 4816TIP3    H236008   3.702   3.485   8.242  0.3691 -0.0250 -1.2793
 4817TIP3   OH236009   2.594   4.131   1.399  0.4565 -0.2553 -0.1485
 4817TIP3    H136010   2.663   4.071   1.374  1.5419  1.3143 -1.1427
 4817TIP3    H236011   2.520   4.107   1.343  1.2403 -0.0019 -1.3397
 4818TIP3   OH236012   6.336   2.245   2.212 -0.1818 -0.7898 -0.1459
 4818TIP3    H136013   6.400   2.302   2.169 -0.0307 -1.5144 -0.9189
 4818TIP3    H236014   6.281   2.304   2.263  0.0812  0.0266 -0.7890
 4819TIP3   OH236015   1.255   2.310   0.263  0.1244 -0.3529  0.0491
 4819TIP3    H136016   1.344   2.287   0.291 -0.3020 -1.1446  0.7820
 4819TIP3    H236017   1.198   2.248   0.309 -0.9799  1.4408  1.2203
 4820TIP3   OH236018   3.487   6.612   7.174 -0.3098  0.1110  0.2154
 4820TIP3    H136019   3.577   6.588   7.195 -0.3803  0.3447  0.8150
 4820TIP3    H236020   3.486   6.708   7.179  0.2633  0.4343 -3.2920
 4821TIP3   OH236021   2.262   3.772   1.720 -0.6433 -0.2314 -0.0915
 4821TIP3    H136022   2.204   3.700   1.744  0.1003 -0.0634  2.4980
 4821TIP3    H236023   2.348   3.746   1.754  0.3427  0.5498 -1.8318
 4822TIP3   OH236024   3.508   3.783   0.743  0.0297 -0.1173 -0.4887
 4822TIP3    H136025   3.505   3.854   0.679  1.4882 -0.0510 -0.5205
 4822TIP3    H236026   3.476   3.822   0.825  1.0062  0.6511 -0.4570
 4823TIP3   OH236027   6.164   1.131   8.632  0.1391  0.3032  0.7879
 4823TIP3    H136028   6.189   1.128   8.724  1.6097 -0.0060  0.4080
 4823TIP3    H236029   6.213   1.206   8.597  1.8617 -1.2487 -0.3267
 4824TIP3   OH236030   3.556   0.037   7.185 -0.4440  0.0060 -0.1690
 4824TIP3    H136031   3.585   0.049   7.276  1.4395 -0.1019 -0.7168
 4824TIP3    H236032   3.628   0.071   7.133 -0.2792 -2.4006 -1.6568
 4825TIP3   OH236033   0.429   4.976   0.807  0.1326  0.1990  0.4697
 4825TIP3    H136034   0.432   5.066   0.839  3.3543 -0.0349  1.1915
 4825TIP3    H236035   0.428   4.922   0.887 -2.7046 -0.5402  0.0743
 4826TIP3   OH236036   4.851   4.720   0.748  0.0818  0.3622  0.0172
 4826TIP3    H136037   4.801   4.788   0.792  0.3292  0.3926  0.2514
 4826TIP3    H236038   4.831   4.640   0.797  0.0724  0.3304 -0.0382
 4827TIP3   OH236039   0.250   0.237   2.186  0.0431  0.2899 -0.9910
 4827TIP3    H136040   0.176   0.185   2.153 -0.3469  1.2162 -1.6080
 4827TIP3    H236041   0.263   0.305   2.120 -0.1909  1.6602  0.3210
 4828TIP3   OH236042   0.915   4.183   1.390 -0.1940  0.5597  0.4555
 4828TIP3    H136043   1.005   4.191   1.420 -0.4037  2.8794  0.6111
 4828TIP3    H236044   0.891   4.270   1.360 -1.4159 -0.6614 -2.5130
 4829TIP3   OH236045   5.525   0.328   1.719  0.7573 -0.3355 -0.0554
 4829TIP3    H136046   5.450   0.287   1.676  1.7560 -0.3730 -1.8557
 4829TIP3    H236047   5.518   0.421   1.695 -0.4497  0.3463  2.4616
 4830TIP3   OH236048   2.582   3.929   0.416 -0.0675 -0.2816  0.2811
 4830TIP3    H136049   2.547   3.930   0.505  0.4088  1.4137  0.4765
 4830TIP3    H236050   2.512   3.967   0.362  0.2447  0.1577  0.1819
 4831TIP3   OH236051   0.856   2.872   7.378  0.3361  0.1552  0.3862
 4831TIP3    H136052   0.908   2.935   7.428  1.6513 -0.7586  0.2186
 4831TIP3    H236053   0.793   2.837   7.442 -2.0882  3.2835 -0.0496
 4832TIP3   OH236054   4.785   4.497   0.903  0.5656  0.2638  0.6912
 4832TIP3    H136055   4.751   4.440   0.972  1.7426 -0.8542  0.3936
 4832TIP3    H236056   4.708   4.523   0.853  0.0960 -2.0369  0.1378
 4833TIP3   OH236057   5.349   5.752   2.383  0.5501  0.4495  0.7302
 4833TIP3    H136058   5.253   5.752   2.382  0.4678 -1.2594 -2.3380
 4833TIP3    H236059   5.372   5.669   2.423  0.7479  0.4753  0.6674
 4834TIP3   OH236060   3.478   4.251   0.621 -0.3996 -0.1073  0.4594
 4834TIP3    H136061   3.505   4.161   0.601  0.2768  0.1858  0.0439
 4834TIP3    H236062   3.555   4.305   0.602 -1.2592  0.7423 -0.7947
 4835TIP3   OH236063   2.368   1.381   0.166  0.4820  0.3939 -0.2592
 4835TIP3    H136064   2.362   1.290   0.194 -0.7308  0.4508 -0.2592
 4835TIP3    H236065   2.326   1.383   0.080 -1.0431  1.2119  0.4528
 4836TIP3   OH236066   0.984   6.544   1.710 -0.5920  0.0406 -0.5288
 4836TIP3    H136067   1.025   6.481   1.769 -0.7786  0.4674  0.0579
 4836TIP3    H236068   1.032   6.625   1.724 -2.4995  0.9422  1.2297
 4837TIP3   OH236069   2.212   2.881   0.819 -0.2108  0.0466 -0.6419
 4837TIP3    H136070   2.172   2.891   0.905 -0.9821 -0.2755 -0.9508
 4837TIP3    H236071   2.146   2.915   0.758  0.9336  1.7363 -1.0137
 4838TIP3   OH236072   6.271   0.944   0.466  0.2000 -0.4420  0.8732
 4838TIP3    H136073   6.219   0.937   0.546  0.0892 -1.3376  0.7375
 4838TIP3    H236074   6.232   0.880   0.406  1.9157 -1.7431  1.0373
 4839TIP3   OH236075   1.199   6.500   7.005 -0.1689  0.5581  0.1967
 4839TIP3    H136076   1.179   6.565   6.938 -2.0990 -0.1359  0.0270
 4839TIP3    H236077   1.199   6.417   6.958  0.7796  0.2723  0.6756
 4840TIP3   OH236078   0.247   5.122   0.020 -0.0678  0.0997  0.4379
 4840TIP3    H136079   0.168   5.165   0.054  0.5198  0.0929  1.8898
 4840TIP3    H236080   0.270   5.057   0.087  0.9139 -0.2244 -0.1835
 4841TIP3   OH236081   6.616   0.589   8.220  0.7773 -1.0106 -0.3413
 4841TIP3    H136082   6.619   0.572   8.314  0.0272  0.6714  0.0278
 4841TIP3    H236083   6.578   0.510   8.182 -1.2967 -0.7854  1.0824
 4842TIP3   OH236084   2.902   1.120   0.617 -0.2324 -0.2688 -0.4614
 4842TIP3    H136085   2.944   1.063   0.681  1.6707  0.6982 -0.7838
 4842TIP3    H236086   2.914   1.208   0.652 -0.7243  0.1462 -1.2973
 4843TIP3   OH236087   4.239   0.438   7.704 -0.0102 -0.1001  0.2094
 4843TIP3    H136088   4.193   0.384   7.768 -2.0048  0.4448 -0.6583
 4843TIP3    H236089   4.298   0.493   7.757  0.5960 -1.7006  1.2605
 4844TIP3   OH236090   1.387   4.116   7.134  0.1751 -0.3018  0.2569
 4844TIP3    H136091   1.373   4.197   7.183  1.1748 -0.2100  0.4253
 4844TIP3    H236092   1.352   4.134   7.047 -0.9636 -0.2160  0.7158
 4845TIP3   OH236093   3.031   1.669   0.246  0.1238  0.0702 -0.3576
 4845TIP3    H136094   2.975   1.591   0.242  0.1281  0.1041 -1.6481
 4845TIP3    H236095   3.017   1.705   0.333 -1.4680 -0.2204 -0.4690
 4846TIP3   OH236096   2.672   1.718   0.994  0.5511 -0.0219  0.0107
 4846TIP3    H136097   2.742   1.711   0.930  1.3167 -0.0305  0.8399
 4846TIP3    H236098   2.654   1.812   1.000  1.5803  0.1303  0.9433
 4847TIP3   OH236099   2.669   3.391   0.841 -0.3383 -0.0588  0.2741
 4847TIP3    H136100   2.718   3.471   0.825 -0.1162 -0.6074 -2.1183
 4847TIP3    H236101   2.622   3.408   0.923  1.3746  1.6559  0.9872
 4848TIP3   OH236102   4.052   4.925   1.912  0.0966 -0.1999  0.4852
 4848TIP3    H136103   4.008   4.908   1.995  0.9864 -1.3697  0.7532
 4848TIP3    H236104   3.992   4.981   1.864 -0.7888 -0.1461  1.6061
 4849TIP3   OH236105   3.083   0.563   0.775 -0.4492 -0.5763  0.1589
 4849TIP3    H136106   3.080   0.618   0.853  1.8828  0.1316 -0.1728
 4849TIP3    H236107   2.994   0.530   0.765 -1.6344  2.0802  1.1245
 4850TIP3   OH236108   4.297   4.427   7.644 -0.3688 -0.2739 -0.2785
 4850TIP3    H136109   4.281   4.512   7.684  0.8951 -0.1264 -0.0474
 4850TIP3    H236110   4.387   4.432   7.611  1.0511 -2.6035  2.7032
 4851TIP3   OH236111   3.160   6.107   0.764 -0.3505  0.7615 -0.0414
 4851TIP3    H136112   3.181   6.105   0.857  0.9263  0.6995 -0.3152
 4851TIP3    H236113   3.245   6.098   0.720 -1.1600 -2.2477 -1.2237
 4852TIP3   OH236114   4.744   5.477   0.657  0.5051  0.4496 -0.4505
 4852TIP3    H136115   4.726   5.463   0.564  2.7392  0.5416 -0.9562
 4852TIP3    H236116   4.769   5.391   0.690  1.2142  0.6941 -0.3287
 4853TIP3   OH236117   0.122   5.798   1.120  0.3645 -0.4123 -0.3839
 4853TIP3    H136118   0.194   5.770   1.175 -0.0660 -0.4251  0.1824
 4853TIP3    H236119   0.101   5.722   1.066 -0.1817 -0.8921  0.4812
 4854TIP3   OH236120   6.121   6.464   7.826  0.0072  0.6223  0.1633
 4854TIP3    H136121   6.092   6.554   7.809 -0.1939  0.1971 -2.0413
 4854TIP3    H236122   6.100   6.417   7.746 -0.4542 -1.5707  1.5082
 4855TIP3   OH236123   1.132   6.584   1.328  0.4120  0.2517 -0.5177
 4855TIP3    H136124   1.207   6.632   1.364  1.7480 -1.3602 -1.0186
 4855TIP3    H236125   1.106   6.634   1.251  0.0547  1.5643  0.4062
 4856TIP3   OH236126   5.727   0.892   0.694 -0.4364  0.2657  0.2033
 4856TIP3    H136127   5.788   0.820   0.688 -1.2084 -0.4613  0.8215
 4856TIP3    H236128   5.662   0.864   0.759  0.1429  2.1712  1.7257
 4857TIP3   OH236129   5.285   3.962   0.596 -0.0201  0.1486 -0.5344
 4857TIP3    H136130   5.264   3.969   0.503 -0.3763 -1.2830 -0.5784
 4857TIP3    H236131   5.312   3.871   0.608  1.0289  0.5686  0.5713
 4858TIP3   OH236132   2.259   1.643   1.397  0.2442  0.1712  0.0951
 4858TIP3    H136133   2.180   1.697   1.403  0.2382  0.2036 -0.2481
 4858TIP3    H236134   2.318   1.680   1.463  0.4521  0.9690 -0.5218
 4859TIP3   OH236135   4.408   1.796   2.040 -0.7283  0.4825  0.0281
 4859TIP3    H136136   4.315   1.795   2.016 -1.2867  0.0268  1.9763
 4859TIP3    H236137   4.414   1.860   2.111  0.3280  0.0792  0.3247
 4860TIP3   OH236138   2.044   0.822   0.218 -0.1434  0.2806 -0.0161
 4860TIP3    H136139   2.095   0.892   0.258  0.9830 -0.4322 -0.1543
 4860TIP3    H236140   2.070   0.823   0.126 -1.6538  0.9852 -0.4680
 4861TIP3   OH236141   0.487   3.169   6.567 -0.7156 -0.2664  0.1749
 4861TIP3    H136142   0.448   3.099   6.515 -0.8696  0.4686 -0.7450
 4861TIP3    H236143   0.566   3.193   6.520 -1.1736  0.8236 -0.0726
 4862TIP3   OH236144   0.019   0.504   8.617 -0.0637 -0.4924 -0.0924
 4862TIP3    H136145  -0.038   0.428   8.626  0.3047 -0.7353  0.2234
 4862TIP3    H236146   0.082   0.495   8.688 -0.7418  0.7515  0.7048
 4863TIP3   OH236147   3.631   1.204   0.534 -0.0732 -0.3094 -0.7866
 4863TIP3    H136148   3.614   1.120   0.577  0.5962 -0.1837 -0.2648
 4863TIP3    H236149   3.662   1.261   0.604  1.3076 -0.1747 -1.4721
 4864TIP3   OH236150   6.825   5.121   8.177 -0.1060  0.2456  0.1065
 4864TIP3    H136151   6.851   5.052   8.115 -2.7571  0.5200 -1.4712
 4864TIP3    H236152   6.832   5.080   8.263  1.9830 -0.7342 -0.4537
 4865TIP3   OH236153   4.526   1.803   8.137 -0.5606 -0.2035 -0.3952
 4865TIP3    H136154   4.476   1.864   8.084 -0.2032  0.4177 -0.0368
 4865TIP3    H236155   4.617   1.830   8.126 -0.4407 -0.3487  0.1596
 4866TIP3   OH236156   0.548   2.475   7.668  0.2034 -0.2330  0.0687
 4866TIP3    H136157   0.464   2.452   7.628  1.0314 -1.6831 -0.9061
 4866TIP3    H236158   0.583   2.392   7.700  0.7507  0.5295  1.5624
 4867TIP3   OH236159   3.381   5.502   8.024 -0.2131  0.3462 -0.2473
 4867TIP3    H136160   3.469   5.540   8.030 -0.5042  0.9542  0.3408
 4867TIP3    H236161   3.395   5.411   7.998  0.7149 -0.1720  1.8701
 4868TIP3   OH236162   4.628   3.503   1.868  0.0760  0.2171 -0.0506
 4868TIP3    H136163   4.601   3.549   1.788 -0.1247 -1.6064 -1.0778
 4868TIP3    H236164   4.580   3.421   1.866  0.3508 -0.0296  1.7860
 4869TIP3   OH236165   1.728   1.866   0.127 -0.3475  0.4173 -0.1085
 4869TIP3    H136166   1.708   1.960   0.127  1.3880  0.8228 -0.2412
 4869TIP3    H236167   1.651   1.825   0.090 -0.8471  1.8704 -0.7406
 4870TIP3   OH236168   0.050   5.550   0.160 -0.3272  0.2266 -0.0763
 4870TIP3    H136169   0.014   5.462   0.159 -0.2406  0.1516  1.5497
 4870TIP3    H236170  -0.026   5.607   0.148 -0.4714 -0.0377 -0.4417
 4871TIP3   OH236171   1.502   2.335   0.889  0.6799 -0.0689  0.4473
 4871TIP3    H136172   1.488   2.342   0.795  0.1353  0.7155  0.5788
 4871TIP3    H236173   1.476   2.246   0.911  0.1261 -0.0327 -0.0362
 4872TIP3   OH236174   6.057   1.636   1.344  0.1895  0.3009  0.5481
 4872TIP3    H136175   6.069   1.553   1.297  0.5813  1.2568 -1.0946
 4872TIP3    H236176   5.993   1.615   1.412 -0.7529 -1.0274 -0.6755
 4873TIP3   OH236177   2.451   6.208   0.933 -0.3283  0.2464  0.4802
 4873TIP3    H136178   2.434   6.119   0.904 -0.6223  0.6139 -0.4889
 4873TIP3    H236179   2.528   6.236   0.884 -0.9475  0.9422 -0.1320
 4874TIP3   OH236180   6.554   5.030   7.354  0.3827 -0.2061  0.0284
 4874TIP3    H136181   6.486   5.097   7.359  0.4003 -0.2069  0.2672
 4874TIP3    H236182   6.514   4.959   7.304  0.1138 -0.3214  0.4019
 4875TIP3   OH236183   3.067   1.353   0.525 -0.2487 -0.5002 -0.2190
 4875TIP3    H136184   3.142   1.298   0.547  0.9953  1.6506  1.3124
 4875TIP3    H236185   3.042   1.394   0.608 -0.6443  1.7327 -1.3622
 4876TIP3   OH236186   2.350   3.268   0.287  0.6379 -0.4396 -0.3820
 4876TIP3    H136187   2.441   3.294   0.305  0.2540  0.1674  0.8011
 4876TIP3    H236188   2.350   3.173   0.295  1.3422 -0.5250 -1.2576
 4877TIP3   OH236189   6.563   1.287   0.155  0.4752  0.2208  0.1088
 4877TIP3    H136190   6.637   1.227   0.150  1.1390  0.9991  0.3537
 4877TIP3    H236191   6.500   1.244   0.213  0.4205 -0.7664 -0.6553
 4878TIP3   OH236192   4.991   1.648   0.497  0.0646  0.2608 -0.1943
 4878TIP3    H136193   5.010   1.625   0.588 -1.2174 -2.2506 -0.4614
 4878TIP3    H236194   4.963   1.739   0.500  1.9851  0.8660  1.5918
 4879TIP3   OH236195   2.929   2.947   0.654  0.3013 -0.2558 -0.3096
 4879TIP3    H136196   2.947   2.861   0.615 -0.2621 -2.5589  3.8777
 4879TIP3    H236197   2.993   2.954   0.724 -0.2119  2.4598 -0.0327
 4880TIP3   OH236198   4.892   2.073   1.663  0.1551  0.1079 -0.0714
 4880TIP3    H136199   4.902   2.151   1.717 -0.1457  0.2288 -0.1873
 4880TIP3    H236200   4.797   2.060   1.658  0.1951 -0.1087 -0.2760
 4881TIP3   OH236201   2.398   4.242   2.382 -0.1327  0.0214 -0.3709
 4881TIP3    H136202   2.423   4.233   2.290  0.7936  1.4836 -0.2973
 4881TIP3    H236203   2.469   4.198   2.430 -0.9358 -1.2988 -0.3505
 4882TIP3   OH236204   1.267   0.241   8.210 -0.0604  0.1259  0.0948
 4882TIP3    H136205   1.314   0.166   8.173 -0.8444 -0.2741 -0.1125
 4882TIP3    H236206   1.179   0.234   8.174 -0.1817  1.0779  0.1850
 4883TIP3   OH236207   3.864   6.667   7.075 -0.4074 -0.5463 -0.5641
 4883TIP3    H136208   3.936   6.697   7.130 -1.6022  0.8628  0.2909
 4883TIP3    H236209   3.818   6.603   7.129 -0.2925 -0.8286 -0.7951
 4884TIP3   OH236210   4.959   5.345   7.056 -0.0537  0.1068  0.1285
 4884TIP3    H136211   4.954   5.335   6.961 -1.5386 -1.7075  0.3551
 4884TIP3    H236212   4.928   5.434   7.072  0.7615  0.6396 -1.1119
 4885TIP3   OH236213   3.132   5.106   7.205 -0.4197 -0.0324  0.8427
 4885TIP3    H136214   3.137   5.055   7.124  1.4316  1.8167 -0.3051
 4885TIP3    H236215   3.140   5.041   7.274  2.1425 -1.3749 -0.5434
 4886TIP3   OH236216   5.969   0.903   0.951 -0.5372 -0.2175 -0.2022
 4886TIP3    H136217   5.880   0.934   0.971 -0.1313  0.1869  1.1158
 4886TIP3    H236218   5.970   0.813   0.981  0.2428  0.5595  2.3282
 4887TIP3   OH236219   6.365   2.057   6.221  0.5764  0.3885 -0.1008
 4887TIP3    H136220   6.288   2.088   6.267  0.6941 -1.2321  1.3067
 4887TIP3    H236221   6.366   2.106   6.139 -2.1278  0.2367 -0.3245
 4888TIP3   OH236222   5.545   5.367   7.297  0.5691 -0.1532  0.1692
 4888TIP3    H136223   5.618   5.306   7.295  1.3961  0.8223 -0.3018
 4888TIP3    H236224   5.469   5.315   7.269  1.3954 -0.7758 -1.0154
 4889TIP3   OH236225   0.225   5.459   6.724  0.4864 -0.0054 -0.6950
 4889TIP3    H136226   0.303   5.514   6.724 -0.2824  1.1384  0.1485
 4889TIP3    H236227   0.191   5.465   6.814 -0.1227 -1.1374 -0.8310
 4890TIP3   OH236228   3.141   0.398   1.653 -0.1055  0.0369  0.0771
 4890TIP3    H136229   3.121   0.387   1.747 -1.3667 -0.3853 -0.2138
 4890TIP3    H236230   3.221   0.449   1.651  0.2586 -0.4353  1.4056
 4891TIP3   OH236231   0.948   4.522   0.167  0.3887 -0.3589 -0.2033
 4891TIP3    H136232   1.042   4.519   0.182 -0.0199 -1.3997  2.8235
 4891TIP3    H236233   0.925   4.614   0.182  0.8708 -0.1585 -0.6649
 4892TIP3   OH236234   0.994   0.997   8.260  0.0646  0.4165 -0.1553
 4892TIP3    H136235   1.016   1.023   8.350 -0.1633 -1.5772  0.5453
 4892TIP3    H236236   0.947   0.914   8.271  1.4518 -0.7211 -2.2050
 4893TIP3   OH236237   5.364   2.287   8.060 -0.5193  0.2311 -0.0365
 4893TIP3    H136238   5.437   2.275   7.999 -0.3987  2.1255 -0.3107
 4893TIP3    H236239   5.304   2.215   8.039  0.2333 -0.0512 -1.3465
 4894TIP3   OH236240   5.232   1.233   0.577 -0.1819  0.0117 -0.2899
 4894TIP3    H136241   5.221   1.197   0.665  1.4123  1.8151  0.7109
 4894TIP3    H236242   5.150   1.279   0.560 -0.6395 -0.6380  0.0992
 4895TIP3   OH236243   5.936   5.470   0.293  0.0428 -0.1796  0.1101
 4895TIP3    H136244   5.983   5.554   0.295  0.0596 -0.1949  0.3255
 4895TIP3    H236245   5.923   5.453   0.200 -1.9410  1.1624  0.0968
 4896TIP3   OH236246   2.004   6.439   2.044 -0.4622  0.1206 -0.1733
 4896TIP3    H136247   2.064   6.418   2.116 -2.4308 -0.9879  1.2432
 4896TIP3    H236248   2.057   6.429   1.965  1.2803 -0.5073  1.0116
 4897TIP3   OH236249   5.560   2.575   7.800  0.3078  0.3663 -0.0519
 4897TIP3    H136250   5.524   2.617   7.878 -0.8477  0.1193 -0.4357
 4897TIP3    H236251   5.544   2.481   7.814 -1.3572  0.4211 -1.2612
 4898TIP3   OH236252   2.356   2.187   7.242 -0.1711  0.1508  0.1637
 4898TIP3    H136253   2.362   2.247   7.168  1.6750 -0.3918 -0.1724
 4898TIP3    H236254   2.273   2.140   7.229  0.5573 -0.6127 -2.1082
 4899TIP3   OH236255   5.550   3.892   1.187  0.1336  0.3145  0.0269
 4899TIP3    H136256   5.514   3.833   1.120  1.9500 -0.2963 -0.4585
 4899TIP3    H236257   5.484   3.891   1.256 -1.0255 -0.3485 -1.0265
 4900TIP3   OH236258   3.749   3.468   7.964  0.1128  0.5070 -0.9044
 4900TIP3    H136259   3.721   3.521   7.890  0.3885  1.0829 -0.6037
 4900TIP3    H236260   3.784   3.531   8.027 -1.8658  0.2257  0.5448
 4901TIP3   OH236261   1.695   2.837   2.204  0.2146  0.1114  0.0220
 4901TIP3    H136262   1.622   2.887   2.241  0.8203  1.7623 -0.8830
 4901TIP3    H236263   1.655   2.780   2.139 -0.2434  1.4855 -0.9444
 4902TIP3   OH236264   3.955   4.785   1.127  0.1403 -0.1065  0.5195
 4902TIP3    H136265   3.936   4.877   1.110  1.9450  0.5233  1.5304
 4902TIP3    H236266   4.040   4.787   1.173 -0.5104 -2.1646  1.9406
 4903TIP3   OH236267   5.309   6.170   6.816  0.2698  0.2250 -0.0556
 4903TIP3    H136268   5.333   6.257   6.783 -0.7859  0.9865  1.0648
 4903TIP3    H236269   5.292   6.118   6.738 -0.4334  1.4414 -0.7368
 4904TIP3   OH236270   6.421   5.233   0.286 -0.0596 -0.1634 -0.4088
 4904TIP3    H136271   6.413   5.305   0.348 -1.6864 -1.3987  0.9109
 4904TIP3    H236272   6.347   5.244   0.227 -1.4798 -1.7659  0.9820
 4905TIP3   OH236273   4.739   2.770   8.307 -0.0833  0.0565 -0.7089
 4905TIP3    H136274   4.645   2.754   8.300  0.3720 -3.9664  0.2270
 4905TIP3    H236275   4.750   2.861   8.279 -4.1190  0.4602 -1.5237
 4906TIP3   OH236276   5.712   1.574   2.751 -0.0229  1.0302  0.9983
 4906TIP3    H136277   5.796   1.616   2.735  0.2146  0.4449  0.6828
 4906TIP3    H236278   5.651   1.619   2.692  0.5040  0.0316 -0.3487
 4907TIP3   OH236279   5.167   1.044   7.130 -0.1760 -0.6782  0.3375
 4907TIP3    H136280   5.117   1.035   7.049 -0.3935  1.1339  0.2378
 4907TIP3    H236281   5.109   1.008   7.198 -0.5574 -0.9284 -0.1160
 4908TIP3   OH236282   3.773   4.001   8.624 -0.1435  0.6212 -0.6925
 4908TIP3    H136283   3.850   3.982   8.677 -2.1653  0.2396  2.3334
 4908TIP3    H236284   3.763   4.096   8.629 -0.7384  0.5144  0.2510
 4909TIP3   OH236285   1.139   4.588   0.708 -1.3247  0.3925 -0.7365
 4909TIP3    H136286   1.054   4.555   0.736 -0.7935 -0.2977  0.1085
 4909TIP3    H236287   1.128   4.683   0.703 -1.7688  0.4389  0.7240
 4910TIP3   OH236288   4.648   3.632   7.930 -0.5212 -0.8220  0.3755
 4910TIP3    H136289   4.631   3.627   8.024  0.4085 -0.3324  0.5769
 4910TIP3    H236290   4.632   3.723   7.907 -0.3402 -0.8455  0.1495
 4911TIP3   OH236291   2.681   5.854   7.790 -0.2668  0.0939 -0.2053
 4911TIP3    H136292   2.640   5.926   7.838  1.3753  0.9344 -0.0124
 4911TIP3    H236293   2.746   5.818   7.850 -0.4318 -0.9901 -0.6399
 4912TIP3   OH236294   3.115   1.758   1.621 -0.1538 -0.8585  0.1502
 4912TIP3    H136295   3.033   1.807   1.620  0.6758  0.5961 -0.5071
 4912TIP3    H236296   3.129   1.737   1.714 -0.5462  0.1745  0.4568
 4913TIP3   OH236297   0.583   3.780   0.111  0.1474  0.1552 -0.7420
 4913TIP3    H136298   0.488   3.782   0.118  0.2325 -0.9865  1.4533
 4913TIP3    H236299   0.604   3.690   0.087  0.6940  0.0153  0.1815
 4914TIP3   OH236300   3.413   5.878   7.210 -0.6533  0.3281 -0.9279
 4914TIP3    H136301   3.428   5.953   7.267  0.3738 -0.8775  0.4920
 4914TIP3    H236302   3.345   5.827   7.255 -0.6069 -0.0959 -1.3282
 4915TIP3   OH236303   3.921   1.335   8.113 -0.2783 -0.4544  0.4137
 4915TIP3    H136304   3.939   1.395   8.042 -1.9569 -0.2796  0.0912
 4915TIP3    H236305   4.003   1.289   8.128  1.0903  1.9383  0.7367
 4916TIP3   OH236306   6.127   5.071   2.251 -0.3454  0.0241 -0.0414
 4916TIP3    H136307   6.092   5.086   2.339  0.8279  0.4680  0.3607
 4916TIP3    H236308   6.177   5.150   2.230  0.0604 -0.4123 -0.7790
 4917TIP3   OH236309   3.606   0.098   0.275 -0.1271 -0.2790  0.3319
 4917TIP3    H136310   3.607   0.152   0.355 -0.3326 -0.5901  0.5456
 4917TIP3    H236311   3.691   0.055   0.275 -0.0711 -0.1696  0.3075
 4918TIP3   OH236312   5.558   2.076   8.356 -0.2440  0.0701 -0.0632
 4918TIP3    H136313   5.648   2.045   8.355 -0.1702  0.2823 -0.0313
 4918TIP3    H236314   5.561   2.159   8.309 -0.2819  0.4676  0.6327
 4919TIP3   OH236315   1.050   2.315   7.474 -0.5673 -0.0884 -0.3331
 4919TIP3    H136316   0.984   2.382   7.458 -0.2998  0.2757  0.0675
 4919TIP3    H236317   1.003   2.247   7.522 -0.6594  0.1617 -0.0631
 4920TIP3   OH236318   5.720   0.834   1.563  0.4050 -0.3742  0.4912
 4920TIP3    H136319   5.632   0.871   1.575  0.8935  0.9979  0.0246
 4920TIP3    H236320   5.747   0.865   1.477  0.8583 -1.8668  0.0682
 4921TIP3   OH236321   6.541   1.440   0.784  0.2947 -0.2871  0.1125
 4921TIP3    H136322   6.459   1.489   0.794 -0.4771 -1.3852 -0.6069
 4921TIP3    H236323   6.586   1.484   0.712  0.5338  0.5410  0.7415
 4922TIP3   OH236324   1.247   6.215   2.643  0.0998 -0.6500  0.7324
 4922TIP3    H136325   1.201   6.288   2.685  0.7984  0.0651  0.2854
 4922TIP3    H236326   1.209   6.212   2.555  0.8905 -0.0552  0.3609
 4923TIP3   OH236327   5.350   2.973   0.930  0.4115 -0.7132  0.1273
 4923TIP3    H136328   5.383   2.940   0.846  3.5908 -1.5637  1.5466
 4923TIP3    H236329   5.378   2.907   0.994 -0.7347  0.5605  2.0467
 4924TIP3   OH236330   2.381   1.761   8.534  0.3940  0.0515  0.2818
 4924TIP3    H136331   2.472   1.733   8.547  0.7780 -0.0490 -2.1469
 4924TIP3    H236332   2.389   1.851   8.501 -0.3168 -0.3045 -0.8928
 4925TIP3   OH236333   6.495   5.481   6.721 -0.6030  0.5368 -0.3283
 4925TIP3    H136334   6.492   5.460   6.628  0.4994  0.5080 -0.3693
 4925TIP3    H236335   6.482   5.576   6.724  0.2653  0.6678 -0.5832
 4926TIP3   OH236336   4.635   0.305   7.875  0.0232 -0.4477  0.4272
 4926TIP3    H136337   4.724   0.307   7.909 -0.4352 -1.6580  1.7776
 4926TIP3    H236338   4.603   0.217   7.896 -0.2303 -1.4387 -3.3765
 4927TIP3   OH236339   3.052   2.981   1.813 -0.3629 -0.6494  0.6393
 4927TIP3    H136340   2.961   2.949   1.817 -0.0397 -1.7402 -0.4081
 4927TIP3    H236341   3.052   3.057   1.871 -2.4178  0.5295 -0.7526
 4928TIP3   OH236342   5.130   6.255   7.016 -0.4313 -0.0726  0.4917
 4928TIP3    H136343   5.192   6.209   6.959 -1.1917 -1.1801  0.5352
 4928TIP3    H236344   5.165   6.244   7.104  0.1360  0.6600  0.3667
 4929TIP3   OH236345   1.213   2.272   1.011  0.3053 -0.1075  0.2814
 4929TIP3    H136346   1.179   2.241   0.927  1.8292 -1.4587  0.1073
 4929TIP3    H236347   1.182   2.209   1.075 -0.4903  0.6809  0.6981
 4930TIP3   OH236348   6.801   1.460   7.246  0.0882  0.4756  0.7126
 4930TIP3    H136349   6.755   1.399   7.304  0.0860  0.2065  0.4297
 4930TIP3    H236350   6.798   1.418   7.160  1.5571  0.0768  0.8377
 4931TIP3   OH236351   4.131   5.967   8.067 -0.0206  0.2902  0.6318
 4931TIP3    H136352   4.171   5.888   8.032 -2.5011 -1.0157  0.5046
 4931TIP3    H236353   4.108   6.019   7.990 -3.0135 -1.3257  0.3027
 4932TIP3   OH236354   4.175   2.958   0.868  0.1344 -0.1358  0.3852
 4932TIP3    H136355   4.201   2.899   0.939 -0.8643  0.8430  1.6020
 4932TIP3    H236356   4.119   2.904   0.812 -0.1206 -0.5853  1.0521
 4933TIP3   OH236357   1.426   1.174   1.451 -0.1155  0.2178 -0.0985
 4933TIP3    H136358   1.428   1.144   1.360 -0.6189 -0.1932  0.0221
 4933TIP3    H236359   1.338   1.154   1.481 -0.6320  2.2669 -0.1532
 4934TIP3   OH236360   1.981   6.192   6.293 -0.2234 -0.0034 -0.0804
 4934TIP3    H136361   1.921   6.152   6.355 -1.3434  0.9008 -0.5537
 4934TIP3    H236362   1.972   6.287   6.308  1.7391  0.1539  0.4338
 4935TIP3   OH236363   2.713   2.920   7.339  0.4020 -0.5532  0.2334
 4935TIP3    H136364   2.620   2.898   7.328  0.3136 -0.3943  0.6399
 4935TIP3    H236365   2.714   2.983   7.411  0.6290  0.9669 -1.0540
 4936TIP3   OH236366   0.173   3.929   2.480 -0.1487  0.1058 -0.2790
 4936TIP3    H136367   0.252   3.880   2.458 -0.6819 -2.1428  2.2991
 4936TIP3    H236368   0.106   3.894   2.421  0.6548  2.0253 -2.4766
 4937TIP3   OH236369   4.301   2.108   8.489  0.2314 -0.3464  0.5656
 4937TIP3    H136370   4.251   2.129   8.410  0.6103 -0.4598  0.2966
 4937TIP3    H236371   4.255   2.032   8.526  0.8230 -1.1410 -0.2680
 4938TIP3   OH236372   4.304   5.391   7.283 -0.0035  0.5180 -0.2602
 4938TIP3    H136373   4.345   5.346   7.356 -0.4645 -1.1148 -0.9699
 4938TIP3    H236374   4.361   5.373   7.208 -1.8975 -1.7919 -1.2621
 4939TIP3   OH236375   1.028   4.180   7.874  0.4355 -0.5863  0.6817
 4939TIP3    H136376   1.120   4.182   7.848  0.3606 -0.8023  0.3996
 4939TIP3    H236377   1.008   4.270   7.899  0.5342 -0.3925  0.0740
 4940TIP3   OH236378   2.245   2.021   0.382  0.1954 -0.0642  0.4337
 4940TIP3    H136379   2.214   1.931   0.380 -0.9230  0.1785  2.7283
 4940TIP3    H236380   2.197   2.065   0.312  0.6623 -1.1955 -0.6204
 4941TIP3   OH236381   0.352   1.281   7.221 -0.1947  0.3834 -0.3389
 4941TIP3    H136382   0.310   1.298   7.137  0.1718 -0.6092 -0.7391
 4941TIP3    H236383   0.405   1.202   7.206 -2.2755 -1.5188  1.5419
 4942TIP3   OH236384   1.830   1.128   0.219 -0.1404  0.3515 -0.1990
 4942TIP3    H136385   1.793   1.043   0.244  1.3533 -0.4814 -0.6427
 4942TIP3    H236386   1.852   1.117   0.126  0.4168  1.0809 -0.1605
 4943TIP3   OH236387   0.095   2.015   7.851 -0.1948 -0.1516  0.0090
 4943TIP3    H136388   0.091   2.020   7.946 -0.3587  1.7361 -0.0543
 4943TIP3    H236389   0.063   1.928   7.829 -0.0440 -0.6471  1.6779
 4944TIP3   OH236390   3.296   2.835   8.478  0.2405  0.2275  0.0657
 4944TIP3    H136391   3.254   2.891   8.413  0.7101 -2.3287 -2.6557
 4944TIP3    H236392   3.389   2.835   8.454  0.5985 -0.0586  1.3580
 4945TIP3   OH236393   1.377   3.054   1.387  0.2044 -0.2020  0.0011
 4945TIP3    H136394   1.358   3.015   1.473  0.0943 -1.8068 -0.7181
 4945TIP3    H236395   1.445   2.997   1.350  0.6204  0.7854 -0.7653
 4946TIP3   OH236396   3.219   2.666   2.228 -0.0087  0.0144  0.3503
 4946TIP3    H136397   3.195   2.747   2.272  0.0448 -0.7693  1.9146
 4946TIP3    H236398   3.229   2.602   2.299  1.8610 -0.8932 -0.6429
 4947TIP3   OH236399   0.822   4.039   7.145 -0.2689  0.3654 -0.2902
 4947TIP3    H136400   0.726   4.044   7.154 -0.3087  1.4805 -1.1369
 4947TIP3    H236401   0.847   4.125   7.110  1.2682  0.8248  1.7694
 4948TIP3   OH236402   3.619   5.218   1.200 -0.1524  0.0607  0.8380
 4948TIP3    H136403   3.683   5.158   1.161  0.0673 -0.0074  1.3016
 4948TIP3    H236404   3.654   5.305   1.183 -1.3221  0.1745 -1.3701
 4949TIP3   OH236405   1.386   0.869   0.020  0.5000  0.0472 -0.2242
 4949TIP3    H136406   1.468   0.841   0.061  0.8663  0.6193 -0.5470
 4949TIP3    H236407   1.338   0.788   0.004  0.6850 -0.2372  0.6196
 4950TIP3   OH236408   5.436   4.982   8.464  0.2102  0.1905  0.1365
 4950TIP3    H136409   5.433   5.074   8.437  1.4082  0.4002  0.6827
 4950TIP3    H236410   5.454   4.984   8.558  0.4232 -0.6024  0.1238
 4951TIP3   OH236411   0.447   5.486   0.185 -0.5607 -0.1385 -0.4207
 4951TIP3    H136412   0.391   5.408   0.185 -0.6198 -0.1103  0.8335
 4951TIP3    H236413   0.392   5.555   0.220 -0.4904  0.4846 -1.4758
 4952TIP3   OH236414   2.595   2.506   6.902 -0.1438 -0.7248  0.7414
 4952TIP3    H136415   2.547   2.575   6.947  0.3651  0.3772 -0.3770
 4952TIP3    H236416   2.686   2.516   6.931  0.1918  0.0002 -0.4804
 4953TIP3   OH236417   4.332   0.135   0.832 -0.2457 -0.1021 -0.5599
 4953TIP3    H136418   4.263   0.076   0.862 -1.1099  1.0985 -0.1298
 4953TIP3    H236419   4.299   0.171   0.750  0.3363 -0.2949 -0.8856
 4954TIP3   OH236420   4.674   0.054   1.008  0.1565 -0.0089  0.4056
 4954TIP3    H136421   4.579   0.043   1.000 -0.0153  1.8712 -0.7484
 4954TIP3    H236422   4.686   0.106   1.087  0.0378  1.5349 -0.5657
 4955TIP3   OH236423   4.014   2.264   6.349 -0.2527 -0.6371  0.0796
 4955TIP3    H136424   3.996   2.183   6.303  0.3815 -0.1263 -1.1172
 4955TIP3    H236425   4.104   2.255   6.380 -0.4247 -0.6756  0.5819
 4956TIP3   OH236426   4.132   5.176   8.653  0.1455 -0.6966  0.0933
 4956TIP3    H136427   4.150   5.261   8.614  3.1379 -0.9192  0.7684
 4956TIP3    H236428   4.132   5.115   8.579  1.7258 -0.5706 -0.0387
 4957TIP3   OH236429   0.219   3.426   6.248  0.5949 -0.2665 -0.1578
 4957TIP3    H136430   0.248   3.494   6.308  2.0485 -1.0154  0.0525
 4957TIP3    H236431   0.279   3.434   6.173 -0.2759 -0.2655 -0.8702
 4958TIP3   OH236432   2.791   4.327   0.694 -0.3308 -0.4086  0.0792
 4958TIP3    H136433   2.748   4.367   0.770  0.5713  0.8504 -0.0319
 4958TIP3    H236434   2.739   4.356   0.619  0.6821  1.2101 -0.0665
 4959TIP3   OH236435   3.622   1.087   0.967 -0.1044  0.0756 -0.1425
 4959TIP3    H136436   3.566   1.064   0.893  1.8261 -2.1758 -1.0381
 4959TIP3    H236437   3.649   1.177   0.950 -1.4024  0.3220 -1.0029
 4960TIP3   OH236438   0.734   1.596   0.329  0.0998  0.0023 -0.4933
 4960TIP3    H136439   0.659   1.612   0.272 -0.2599 -1.7568 -0.5824
 4960TIP3    H236440   0.748   1.501   0.324  2.8012  0.3418 -1.0532
 4961TIP3   OH236441   4.178   4.484   6.357 -0.1444 -0.2293 -0.4905
 4961TIP3    H136442   4.244   4.417   6.344 -0.4853 -0.3118 -1.9620
 4961TIP3    H236443   4.183   4.539   6.278  0.2466  1.5981  0.7380
 4962TIP3   OH236444   2.319   3.038   1.519 -0.6861  0.4907  0.3536
 4962TIP3    H136445   2.279   3.124   1.507 -0.5375  0.4225 -0.7345
 4962TIP3    H236446   2.360   3.018   1.435 -0.3446 -0.4566  0.7238
 4963TIP3   OH236447   4.105   3.595   7.802  0.4129 -0.2112 -0.1811
 4963TIP3    H136448   4.159   3.647   7.861  1.6014 -2.9190  1.2980
 4963TIP3    H236449   4.154   3.595   7.720  1.9412 -1.3310  0.6772
 4964TIP3   OH236450   5.922   2.203   7.054 -0.3364 -0.3152  0.7047
 4964TIP3    H136451   5.925   2.133   6.989  0.6690 -1.0961  1.5590
 4964TIP3    H236452   6.007   2.200   7.097 -0.5537  0.9489  1.2719
 4965TIP3   OH236453   1.885   6.091   7.263 -0.0530 -0.0394 -0.0290
 4965TIP3    H136454   1.849   6.011   7.302  1.1077 -0.6199 -0.1227
 4965TIP3    H236455   1.808   6.140   7.233 -0.8717 -0.3642  1.4578
 4966TIP3   OH236456   5.949   2.642   1.534  0.2586  0.5426  0.2623
 4966TIP3    H136457   6.020   2.706   1.548  0.0912  0.6808  0.4801
 4966TIP3    H236458   5.977   2.565   1.582 -0.9833  1.4889  2.6472
 4967TIP3   OH236459   5.857   5.312   1.082 -0.3015  0.4396 -0.3329
 4967TIP3    H136460   5.923   5.328   1.015 -0.1455  0.7011 -0.1189
 4967TIP3    H236461   5.788   5.263   1.037  0.9668 -1.7280 -0.0833
 4968TIP3   OH236462   5.304   5.485   0.459  0.1306  0.2638  0.0254
 4968TIP3    H136463   5.238   5.551   0.477 -0.3521 -0.1010 -0.3964
 4968TIP3    H236464   5.302   5.474   0.364 -1.1521 -1.7210  0.2233
 4969TIP3   OH236465   4.498   5.321   7.084 -0.0179  0.2684 -0.6424
 4969TIP3    H136466   4.527   5.230   7.071  1.5902  0.8397 -1.4077
 4969TIP3    H236467   4.579   5.369   7.100 -0.8465  1.5762 -0.2638
 4970TIP3   OH236468   4.044   4.514   1.125 -0.3739  0.2650 -0.2665
 4970TIP3    H136469   4.013   4.495   1.213  1.5344 -1.9823  0.0024
 4970TIP3    H236470   4.075   4.605   1.129  0.5903 -0.1040  1.6722
 4971TIP3   OH236471   6.505   1.894   6.949  0.2379  0.2981  0.2844
 4971TIP3    H136472   6.561   1.925   6.877  0.3901 -3.1249 -1.2880
 4971TIP3    H236473   6.565   1.846   7.007 -0.6803 -2.0235 -0.5634
 4972TIP3   OH236474   2.367   6.322   1.175 -0.1572  0.3601 -0.1202
 4972TIP3    H136475   2.422   6.400   1.178 -1.5265  1.4147 -0.9307
 4972TIP3    H236476   2.395   6.277   1.095  1.3939 -0.6176  0.9208
 4973TIP3   OH236477   1.667   5.391   6.970  0.0619 -0.0361 -0.1588
 4973TIP3    H136478   1.659   5.357   6.881  0.7013 -0.4313 -0.0716
 4973TIP3    H236479   1.656   5.315   7.026 -3.0079  0.5852  0.2462
 4974TIP3   OH236480   2.121   5.923   7.678  0.3929  0.0621 -0.2240
 4974TIP3    H136481   2.123   5.979   7.755  2.7202  0.1897 -0.2973
 4974TIP3    H236482   2.116   5.984   7.604 -0.7678 -0.0142 -0.2197
 4975TIP3   OH236483   1.255   4.484   7.821 -0.2449 -0.7315 -0.6479
 4975TIP3    H136484   1.216   4.512   7.738  0.3519  1.9615 -0.0982
 4975TIP3    H236485   1.349   4.486   7.805 -0.1509 -1.1253 -0.1551
 4976TIP3   OH236486   2.983   5.929   6.762 -0.2148 -0.2455  0.4131
 4976TIP3    H136487   3.021   5.846   6.790 -1.9225 -1.2205  0.0210
 4976TIP3    H236488   2.972   5.979   6.844 -1.0042 -1.2383  0.9439
 4977TIP3   OH236489   2.506   0.076   7.468 -0.5980  0.7377 -0.1714
 4977TIP3    H136490   2.562   0.149   7.497  0.1185  0.9065 -1.8509
 4977TIP3    H236491   2.489   0.095   7.376 -2.0023 -0.2424 -0.1390
 4978TIP3   OH236492   4.769   3.415   6.893  0.5962  0.2123 -0.2650
 4978TIP3    H136493   4.710   3.429   6.819  0.3260 -1.2404 -0.3362
 4978TIP3    H236494   4.762   3.496   6.944 -1.1252  0.2547 -0.5089
 4979TIP3   OH236495   2.700   3.603   1.994  1.0539  0.0531 -0.1850
 4979TIP3    H136496   2.633   3.582   2.059  0.3528 -1.3091 -1.2737
 4979TIP3    H236497   2.744   3.519   1.978  2.0822  0.6396 -0.5285
 4980TIP3   OH236498   3.008   3.002   2.113  0.1300 -0.4211  0.0482
 4980TIP3    H136499   3.022   3.092   2.081 -0.4362 -0.1698  0.4819
 4980TIP3    H236500   3.086   2.983   2.164 -0.6517  0.6267  1.7087
 4981TIP3   OH236501   5.403   6.516   1.252  0.0174  0.2072 -0.5532
 4981TIP3    H136502   5.375   6.508   1.160  0.4324  0.3441 -0.6921
 4981TIP3    H236503   5.497   6.500   1.250  0.2343  1.3500 -0.3239
 4982TIP3   OH236504   4.260   5.679   8.296  0.7508  0.3539 -0.8898
 4982TIP3    H136505   4.194   5.663   8.364  0.4269 -0.7636 -1.4417
 4982TIP3    H236506   4.281   5.772   8.304  0.6257  0.2867  0.6557
 4983TIP3   OH236507   0.438   3.123   8.158 -0.1340  0.1995 -0.4395
 4983TIP3    H136508   0.525   3.154   8.136  0.3841  0.0056  1.1674
 4983TIP3    H236509   0.389   3.126   8.076  0.7195  2.4756 -0.9165
 4984TIP3   OH236510   1.312   2.095   7.208  0.2095 -0.3531  0.4805
 4984TIP3    H136511   1.282   2.123   7.122  2.7254 -0.6647 -0.5753
 4984TIP3    H236512   1.255   2.021   7.231 -1.8857  1.0812  0.1212
 4985TIP3   OH236513   2.956   0.171   2.072  0.4933  0.6298 -0.3060
 4985TIP3    H136514   2.883   0.135   2.122  0.6392 -0.4041 -0.8211
 4985TIP3    H236515   3.031   0.166   2.131  0.3301  0.9442 -0.0638
 4986TIP3   OH236516   2.185   0.379   1.975  0.5336  0.3124  0.2258
 4986TIP3    H136517   2.133   0.314   1.928  0.1465  1.4942 -1.0678
 4986TIP3    H236518   2.246   0.412   1.909  0.2539  1.7304  0.6430
 4987TIP3   OH236519   2.698   6.488   1.602  0.1290  0.6207  0.3120
 4987TIP3    H136520   2.755   6.492   1.526 -0.2075 -0.1138  0.0121
 4987TIP3    H236521   2.725   6.408   1.648 -0.0888  0.7229  0.6211
 4988TIP3   OH236522   2.682   0.377   2.532  0.6548  0.2513  0.2953
 4988TIP3    H136523   2.716   0.307   2.586 -0.1562  0.7377  1.4801
 4988TIP3    H236524   2.684   0.342   2.443 -0.7643 -1.7151  0.9627
 4989TIP3   OH236525   2.840   5.080   0.923 -0.6100  0.0939 -0.4297
 4989TIP3    H136526   2.933   5.101   0.916 -0.8246  0.9735 -0.6723
 4989TIP3    H236527   2.829   5.047   1.012 -0.2306  0.8483 -0.1007
 4990TIP3   OH236528   5.867   4.538   0.825 -0.1577 -0.1936 -0.8223
 4990TIP3    H136529   5.854   4.487   0.906  2.0724  0.8197  0.2441
 4990TIP3    H236530   5.793   4.512   0.769 -2.4466 -0.1425  1.9178
 4991TIP3   OH236531   3.507   6.491   2.655  0.2156  0.0097  0.0032
 4991TIP3    H136532   3.523   6.584   2.639  1.2710 -0.4053 -1.5586
 4991TIP3    H236533   3.574   6.465   2.718 -0.0126  0.2746  0.3576
 4992TIP3   OH236534   3.407   0.186   7.513 -0.2482  0.3392  0.8291
 4992TIP3    H136535   3.357   0.104   7.522 -1.7359  1.1652  0.3939
 4992TIP3    H236536   3.360   0.248   7.569  0.6537  1.0025  0.8624
 4993TIP3   OH236537   1.265   5.854   1.051 -0.5506  0.1961 -0.0703
 4993TIP3    H136538   1.258   5.943   1.017 -0.3824  0.7143  1.2213
 4993TIP3    H236539   1.304   5.863   1.137 -0.5935 -1.1276  0.1170
 4994TIP3   OH236540   3.380   4.665   8.235 -0.6146  0.3548  0.4164
 4994TIP3    H136541   3.315   4.640   8.170 -0.3164  2.0154 -0.5693
 4994TIP3    H236542   3.365   4.604   8.308 -1.7399 -0.7679 -0.6994
 4995TIP3   OH236543   6.538   3.435   7.394  0.0692  0.1638 -0.5499
 4995TIP3    H136544   6.469   3.494   7.427  0.6447 -0.0153  1.0507
 4995TIP3    H236545   6.514   3.349   7.426 -0.0206 -0.2675 -1.7168
 4996TIP3   OH236546   3.011   5.803   6.011 -0.0410 -0.3247 -0.9932
 4996TIP3    H136547   2.983   5.758   6.092 -1.0485  1.6875 -0.1524
 4996TIP3    H236548   3.098   5.836   6.031 -0.8858  1.5082 -0.0748
 4997TIP3   OH236549   0.815   5.776   2.223  0.1232 -0.2369  0.0540
 4997TIP3    H136550   0.844   5.713   2.289  1.4323 -1.0313 -1.2394
 4997TIP3    H236551   0.734   5.811   2.259  2.5691  2.1725  3.9187
 4998TIP3   OH236552   2.832   4.672   8.510 -0.0890 -0.8692  0.4630
 4998TIP3    H136553   2.800   4.653   8.421  0.1280  0.8999 -0.0287
 4998TIP3    H236554   2.806   4.595   8.561 -1.4504 -1.3270 -0.8219
 4999TIP3   OH236555   0.418   5.118   7.991 -0.3124  0.3156 -0.6186
 4999TIP3    H136556   0.392   5.088   8.079 -1.8142  0.0900 -1.1237
 4999TIP3    H236557   0.423   5.037   7.940  0.3494  0.4730 -0.8075
 5000TIP3   OH236558   3.188   4.101   7.104 -0.2090  0.8379  0.1395
 5000TIP3    H136559   3.111   4.096   7.047  1.1864  0.2941 -1.7718
 5000TIP3    H236560   3.248   4.160   7.058  1.0762  0.1525  0.8999
 5001TIP3   OH236561   1.343   5.555   1.582  0.1351  0.0536  0.4624
 5001TIP3    H136562   1.328   5.540   1.675  1.3630  0.5719  0.7625
 5001TIP3    H236563   1.429   5.517   1.565 -0.0701 -0.0170 -0.4664
 5002TIP3   OH236564   2.983   5.264   6.314  0.1924  0.0228  0.0740
 5002TIP3    H136565   2.896   5.260   6.354  0.4738 -1.0003  0.5994
 5002TIP3    H236566   2.989   5.184   6.263  1.1248 -0.2901  0.6633
 5003TIP3   OH236567   3.713   4.573   2.189 -0.1170  1.1600  0.6858
 5003TIP3    H136568   3.629   4.615   2.172 -0.2151 -0.0383 -2.4005
 5003TIP3    H236569   3.696   4.479   2.178  1.9461  1.0024 -2.1397
 5004TIP3   OH236570   3.022   6.030   7.324 -0.5308  0.5358 -0.6136
 5004TIP3    H136571   3.068   5.950   7.297 -0.9356  0.4802 -1.1470
 5004TIP3    H236572   3.048   6.043   7.415 -0.2864 -0.0834 -0.5925
 5005TIP3   OH236573   5.987   1.382   7.249 -0.2496  0.1579 -0.0880
 5005TIP3    H136574   5.953   1.324   7.317  0.7329  1.6345  1.7341
 5005TIP3    H236575   6.020   1.322   7.182  0.1880 -1.4064  1.4416
 5006TIP3   OH236576   0.277   3.729   0.695 -0.1413 -0.2063  0.3599
 5006TIP3    H136577   0.290   3.767   0.782 -1.7500  1.8114 -0.1870
 5006TIP3    H236578   0.191   3.688   0.700 -0.4847  0.3925 -0.3958
 5007TIP3   OH236579   2.792   6.136   7.191  0.3164  0.2863 -0.1352
 5007TIP3    H136580   2.865   6.100   7.241  0.7227 -1.0158 -1.6185
 5007TIP3    H236581   2.720   6.075   7.207 -0.1289  0.9297  0.3812
 5008TIP3   OH236582   4.893   3.552   7.811 -0.3024 -0.0026  0.0451
 5008TIP3    H136583   4.815   3.607   7.804  0.0713  0.7768  1.6245
 5008TIP3    H236584   4.954   3.604   7.863  0.3666 -1.5840  0.8979
 5009TIP3   OH236585   6.749   0.771   1.498  0.0799 -0.2119  0.3066
 5009TIP3    H136586   6.763   0.865   1.491  1.9487 -0.4887 -0.0982
 5009TIP3    H236587   6.677   0.763   1.560 -1.3055  1.5187 -0.9775
 5010TIP3   OH236588   0.491   0.176   2.319  1.0798 -0.1204 -0.2201
 5010TIP3    H136589   0.544   0.170   2.240 -0.8066 -2.2148 -1.4324
 5010TIP3    H236590   0.402   0.186   2.288  0.4734  1.0823  1.7207
 5011TIP3   OH236591   2.844   1.209   8.436  0.3273  0.2121 -0.4927
 5011TIP3    H136592   2.832   1.295   8.476  0.0773  0.1667 -0.4668
 5011TIP3    H236593   2.823   1.147   8.505  2.0737  0.1000 -0.0149
 5012TIP3   OH236594   3.247   3.874   0.244  0.2284 -0.8302 -0.4657
 5012TIP3    H136595   3.290   3.938   0.186  1.3666  0.6624  1.8488
 5012TIP3    H236596   3.313   3.806   0.257  0.5640 -0.3930  0.2082
 5013TIP3   OH236597   0.697   0.390   7.602 -0.0151 -0.0161  0.3233
 5013TIP3    H136598   0.647   0.374   7.523  1.9310  0.2835 -1.0435
 5013TIP3    H236599   0.671   0.320   7.662 -1.6345 -0.1542 -0.4936
 5014TIP3   OH236600   4.577   5.324   6.768 -0.2502  0.0158 -0.5747
 5014TIP3    H136601   4.547   5.257   6.706  0.0598  0.5835 -1.3622
 5014TIP3    H236602   4.579   5.280   6.853 -1.4959 -0.5532 -0.8214
 5015TIP3   OH236603   1.613   1.437   8.562  0.0411  0.1068  0.5148
 5015TIP3    H136604   1.633   1.482   8.480 -0.3876  2.1503  1.4517
 5015TIP3    H236605   1.644   1.348   8.549  1.7861  0.8791 -1.1584
 5016TIP3   OH236606   6.509   6.341   7.791  0.0077  0.0777  0.1662
 5016TIP3    H136607   6.557   6.382   7.863 -0.8561  0.5252  0.5044
 5016TIP3    H236608   6.512   6.406   7.720  0.9231 -0.3934 -0.2457
 5017TIP3   OH236609   1.306   4.626   8.674  0.0348  0.2253 -1.1056
 5017TIP3    H136610   1.296   4.681   8.596 -0.3830 -0.5996 -1.6612
 5017TIP3    H236611   1.261   4.544   8.651  0.6443 -0.3522 -0.3155
 5018TIP3   OH236612   3.511   3.224   1.026  0.9024 -0.5406  0.0325
 5018TIP3    H136613   3.545   3.137   1.048  1.9967  0.0508  0.7892
 5018TIP3    H236614   3.537   3.279   1.100  0.7832  0.5755 -0.7288
 5019TIP3   OH236615   6.388   0.855   7.102  0.3072  0.0384  0.3095
 5019TIP3    H136616   6.380   0.844   7.197  0.3469  1.4702  0.4988
 5019TIP3    H236617   6.310   0.812   7.067  0.8764 -1.5451  0.8781
 5020TIP3   OH236618   1.953   6.794   1.750  0.1015  0.3129 -0.2409
 5020TIP3    H136619   1.968   6.761   1.662 -0.8520 -0.2083 -0.2082
 5020TIP3    H236620   1.859   6.786   1.764  0.4163 -1.0281  1.3826
 5021TIP3   OH236621   1.435   3.425   7.356 -0.3412 -0.2161 -0.3188
 5021TIP3    H136622   1.487   3.387   7.285  1.9155 -1.4949  1.8558
 5021TIP3    H236623   1.492   3.420   7.433 -2.0306  2.6118  1.2985
 5022TIP3   OH236624   5.817   3.648   1.107 -0.0711 -0.4756 -0.4284
 5022TIP3    H136625   5.807   3.569   1.054  0.9543 -1.8675  1.3372
 5022TIP3    H236626   5.890   3.629   1.165  0.0858  1.7299  0.1900
 5023TIP3   OH236627   3.529   4.024   1.276 -0.0240 -0.1492 -0.3101
 5023TIP3    H136628   3.480   4.081   1.217  1.1586 -0.7520 -1.9594
 5023TIP3    H236629   3.604   4.076   1.304  0.8766 -0.7080 -1.5544
 5024TIP3   OH236630   5.895   4.861   1.255  0.5492  0.8245  0.2780
 5024TIP3    H136631   5.945   4.811   1.191  0.4235 -0.1590  0.9192
 5024TIP3    H236632   5.948   4.938   1.273  0.9978  0.6627 -0.3474
 5025TIP3   OH236633   4.013   4.273   7.945 -0.3089  0.3083  0.6848
 5025TIP3    H136634   3.979   4.242   8.029 -0.7493  0.4601  0.5638
 5025TIP3    H236635   4.083   4.333   7.968 -0.3623  0.2720  0.9422
 5026TIP3   OH236636   3.289   3.655   8.539  0.8486 -0.2071 -0.2488
 5026TIP3    H136637   3.330   3.603   8.608 -0.1043 -1.4198 -0.5560
 5026TIP3    H236638   3.201   3.675   8.572  0.4291 -0.6931 -1.0457
 5027TIP3   OH236639   4.736   3.769   0.617 -0.6300 -0.4096 -0.2826
 5027TIP3    H136640   4.760   3.782   0.709 -2.4226 -2.0271  0.4675
 5027TIP3    H236641   4.655   3.718   0.620 -1.4774  0.6442 -2.7462
 5028TIP3   OH236642   0.606   1.121   0.384  0.3583  0.0645 -0.2448
 5028TIP3    H136643   0.679   1.113   0.445  0.0704  1.8846  0.3890
 5028TIP3    H236644   0.528   1.108   0.438  0.1338  0.7197 -0.4041
 5029TIP3   OH236645   4.588   4.361   1.061 -0.1133  0.0329  0.0283
 5029TIP3    H136646   4.609   4.309   0.983 -0.7004 -0.3600  0.1339
 5029TIP3    H236647   4.569   4.297   1.129  2.8041  0.2810  1.2385
 5030TIP3   OH236648   1.640   2.130   0.191 -0.2391  0.5002  0.4116
 5030TIP3    H136649   1.584   2.187   0.138  0.1002 -1.1094 -1.8626
 5030TIP3    H236650   1.728   2.144   0.157 -0.1784 -1.4767 -0.3833
 5031TIP3   OH236651   4.252   1.254   0.640 -0.3198 -0.3803 -0.9124
 5031TIP3    H136652   4.171   1.275   0.592 -0.5590  0.2091 -0.2804
 5031TIP3    H236653   4.322   1.277   0.580 -0.4996  3.4954  0.0289
 5032TIP3   OH236654   6.338   4.559   7.199 -0.0011 -0.5919 -0.3813
 5032TIP3    H136655   6.388   4.520   7.128  2.4643  0.4032  0.6973
 5032TIP3    H236656   6.359   4.506   7.276  2.3000  1.8156  0.8135
 5033TIP3   OH236657   1.621   4.783   0.848 -0.4256 -0.6209 -0.0887
 5033TIP3    H136658   1.694   4.763   0.907 -1.6100 -1.0666  1.2751
 5033TIP3    H236659   1.609   4.702   0.798  0.6736 -0.1955 -1.1006
 5034TIP3   OH236660   4.657   1.204   8.287  0.0562 -0.2285  0.8379
 5034TIP3    H136661   4.722   1.272   8.269 -0.3143  0.0270  0.4311
 5034TIP3    H236662   4.705   1.122   8.280  0.3066 -0.0472  0.4087
 5035TIP3   OH236663   1.950   6.200   1.803 -0.0694  0.0842  0.4556
 5035TIP3    H136664   2.006   6.126   1.779  1.8073  1.3917  0.5894
 5035TIP3    H236665   1.975   6.269   1.742  1.0086  1.8097  2.7230
 5036TIP3   OH236666   0.192   4.197   0.277  0.0224 -0.0009 -0.4270
 5036TIP3    H136667   0.208   4.290   0.260  0.0646 -0.1156 -1.0527
 5036TIP3    H236668   0.184   4.191   0.372 -2.4016  1.0150 -0.5032
 5037TIP3   OH236669   2.848   3.596   8.223  0.0655  0.0383 -0.0382
 5037TIP3    H136670   2.853   3.609   8.317 -0.4988 -0.1347  0.0199
 5037TIP3    H236671   2.849   3.501   8.211 -0.1710  0.0509 -0.1801
 5038TIP3   OH236672   2.608   4.718   0.583 -0.3438  0.2037  0.4404
 5038TIP3    H136673   2.631   4.801   0.541 -0.6705 -0.1159 -0.3885
 5038TIP3    H236674   2.649   4.723   0.670  0.3589  0.8637  0.0792
 5039TIP3   OH236675   0.021   3.530   8.509 -0.1482 -0.3802 -0.4816
 5039TIP3    H136676  -0.010   3.522   8.419 -2.2658  1.3645 -0.0141
 5039TIP3    H236677  -0.000   3.445   8.549 -1.1069 -0.4632 -1.1308
 5040TIP3   OH236678   2.078   1.680   8.647  0.9588  0.0463  0.5870
 5040TIP3    H136679   1.998   1.732   8.637  0.6556 -0.2125  1.5498
 5040TIP3    H236680   2.115   1.676   8.559 -0.9850 -1.2660 -0.2365
 5041TIP3   OH236681   5.828   2.218   8.078  0.6835  0.1327 -0.0410
 5041TIP3    H136682   5.835   2.312   8.098 -1.6771  0.2907  0.2571
 5041TIP3    H236683   5.832   2.175   8.164  2.0785 -0.1146 -0.1973
 5042TIP3   OH236684   6.133   0.304   7.576 -0.0353 -0.2368  0.0228
 5042TIP3    H136685   6.076   0.365   7.529  0.8576  0.9666  0.4687
 5042TIP3    H236686   6.218   0.347   7.580  0.2494 -0.8663  1.6235
 5043TIP3   OH236687   0.004   2.129   0.943 -0.6252  0.5401  0.5701
 5043TIP3    H136688  -0.034   2.207   0.903  0.1218  1.4217  1.5412
 5043TIP3    H236689   0.084   2.159   0.985 -0.3587 -0.7353  1.0370
 5044TIP3   OH236690   5.986   4.067   8.559 -0.0323 -0.1396  0.4141
 5044TIP3    H136691   5.894   4.040   8.567 -0.0947  0.4903  2.4397
 5044TIP3    H236692   6.003   4.064   8.465 -1.9276 -0.9031  0.0313
 5045TIP3   OH236693   2.483   3.017   7.789  0.7002 -0.1492 -0.2881
 5045TIP3    H136694   2.489   3.112   7.796  0.0587 -0.0176 -1.4142
 5045TIP3    H236695   2.444   2.989   7.872  1.2592  0.5229  0.2080
 5046TIP3   OH236696   6.326   0.472   6.969 -0.4164  0.0595 -0.4200
 5046TIP3    H136697   6.271   0.484   7.046 -0.5842  0.7489 -0.6340
 5046TIP3    H236698   6.306   0.384   6.939 -0.3078 -0.2328  0.3563
 5047TIP3   OH236699   6.498   2.091   7.482  0.3216  0.5644  0.0563
 5047TIP3    H136700   6.561   2.043   7.428 -0.0426 -1.5693  1.4464
 5047TIP3    H236701   6.553   2.143   7.541  0.7664  0.1983 -0.0236
 5048TIP3   OH236702   2.639   2.480   8.333 -0.0217  0.4987  0.4516
 5048TIP3    H136703   2.654   2.548   8.267 -1.0457 -0.2132 -0.5310
 5048TIP3    H236704   2.676   2.401   8.295  0.1693  0.2593  1.1246
 5049TIP3   OH236705   6.648   2.276   1.685 -0.0394  0.7362  0.3918
 5049TIP3    H136706   6.729   2.227   1.675 -0.4727  0.0985 -0.0481
 5049TIP3    H236707   6.663   2.332   1.762  1.0226  1.0696 -0.0467
 5050TIP3   OH236708   1.014   3.563   8.622  0.6319  0.4126  0.3162
 5050TIP3    H136709   1.078   3.600   8.683  1.3027  0.5956 -0.4787
 5050TIP3    H236710   1.006   3.629   8.553 -0.3416  0.3433  0.3525
 5051TIP3   OH236711   4.062   1.774   6.830  0.0890 -0.6495 -0.1993
 5051TIP3    H136712   4.085   1.788   6.922  1.0631 -0.2167 -0.5024
 5051TIP3    H236713   4.032   1.859   6.799  0.4108 -0.6307 -0.4645
 5052TIP3   OH236714   5.700   2.285   7.671  0.1788 -0.3147 -0.4291
 5052TIP3    H136715   5.677   2.252   7.584 -0.5254 -0.7956 -0.0696
 5052TIP3    H236716   5.789   2.320   7.661  0.4058 -1.0784 -1.1497
 5053TIP3   OH236717   3.199   2.144   7.368 -0.6256 -0.1897 -0.2915
 5053TIP3    H136718   3.178   2.057   7.402 -1.6780 -1.0184 -2.8333
 5053TIP3    H236719   3.113   2.185   7.354 -0.1404  1.3979  1.0932
 5054TIP3   OH236720   0.105   2.257   1.946 -0.1762 -0.0225 -0.6215
 5054TIP3    H136721   0.019   2.242   1.986 -0.1537 -0.9826 -0.9111
 5054TIP3    H236722   0.168   2.236   2.014 -0.1103 -2.6690 -1.3933
 5055TIP3   OH236723   2.447   5.898   8.516  0.2285  0.3513 -0.6756
 5055TIP3    H136724   2.502   5.942   8.451  0.4603 -0.2007 -0.8678
 5055TIP3    H236725   2.392   5.839   8.464  1.6276 -1.3946 -0.2848
 5056TIP3   OH236726   4.086   0.775   0.676  0.4337 -0.1167 -0.0861
 5056TIP3    H136727   4.111   0.867   0.677  0.1429 -0.0340 -0.3766
 5056TIP3    H236728   4.036   0.764   0.595  2.9503 -1.1873 -1.6121
 5057TIP3   OH236729   4.457   4.142   0.580  0.1596 -0.6366 -0.2187
 5057TIP3    H136730   4.457   4.080   0.653  2.2973  1.0393  1.3212
 5057TIP3    H236731   4.546   4.176   0.577 -0.8729  2.3189 -0.9818
 5058TIP3   OH236732   5.409   3.192   6.607 -0.0912  0.1202 -1.1842
 5058TIP3    H136733   5.417   3.111   6.556 -1.5507 -1.3529  0.7917
 5058TIP3    H236734   5.324   3.227   6.581  0.4733  0.9975 -1.9231
 5059TIP3   OH236735   0.725   6.553   8.718  0.1186 -0.0411 -0.3968
 5059TIP3    H136736   0.646   6.567   8.769 -0.0161 -0.5558 -0.4534
 5059TIP3    H236737   0.717   6.462   8.686  0.3940  0.1312 -0.9782
 5060TIP3   OH236738   3.305   4.328   6.978 -0.0600  0.0618  0.6630
 5060TIP3    H136739   3.383   4.382   6.970 -0.6456  0.8273 -0.0293
 5060TIP3    H236740   3.233   4.390   6.988 -0.4271 -0.6401  3.2979
 5061TIP3   OH236741   0.447   1.862   7.120 -0.4351  0.0166 -0.0177
 5061TIP3    H136742   0.429   1.949   7.087 -0.8348 -0.7859 -2.0412
 5061TIP3    H236743   0.521   1.831   7.068 -1.1787 -1.3584 -0.3025
 5062TIP3   OH236744   0.520   2.313   1.439  0.8607  0.0723 -0.2428
 5062TIP3    H136745   0.510   2.339   1.531  0.7455  0.2056 -0.2915
 5062TIP3    H236746   0.613   2.327   1.420  0.3283  3.2698 -1.0890
 5063TIP3   OH236747   1.611   0.029   6.544  0.4976 -0.5448 -0.5344
 5063TIP3    H136748   1.579  -0.040   6.485 -1.7535 -0.8268  0.8964
 5063TIP3    H236749   1.538   0.044   6.605  1.4213  2.1802  0.0385
 5064TIP3   OH236750   3.515   2.373   6.131 -0.2382  0.1168  0.0741
 5064TIP3    H136751   3.448   2.384   6.198  0.3889  0.5648  0.6393
 5064TIP3    H236752   3.570   2.302   6.164 -0.1446  0.0868 -0.1451
 5065TIP3   OH236753   0.493   0.492   7.785 -0.6515 -0.6120 -0.0851
 5065TIP3    H136754   0.557   0.519   7.719 -0.5251 -1.3964 -0.2935
 5065TIP3    H236755   0.438   0.428   7.741 -1.3514 -0.2171  0.2099
 5066TIP3   OH236756   5.856   4.435   6.831  0.6397  0.2764 -0.4731
 5066TIP3    H136757   5.949   4.416   6.835  0.5639  0.0906  1.7055
 5066TIP3    H236758   5.849   4.511   6.772  2.1689  0.4097 -0.5129
 5067TIP3   OH236759   6.310   2.789   0.802 -0.6018 -0.1489 -0.0579
 5067TIP3    H136760   6.279   2.787   0.712 -0.0108  1.0389 -0.3034
 5067TIP3    H236761   6.253   2.852   0.846  1.1602  1.8148 -0.4369
 5068TIP3   OH236762   4.986   0.891   7.290  0.1913  0.4730 -0.4199
 5068TIP3    H136763   4.908   0.892   7.234  0.9696 -0.0354 -1.5432
 5068TIP3    H236764   4.975   0.814   7.346 -0.3820  0.7339 -0.1639
 5069TIP3   OH236765   0.027   0.415   2.392  0.5267 -0.8291  0.1044
 5069TIP3    H136766  -0.007   0.334   2.432  0.6916 -0.9296  0.0420
 5069TIP3    H236767   0.122   0.409   2.403  0.9015 -2.3320 -2.9641
 5070TIP3   OH236768   4.695   5.644   0.884  0.4197 -0.1873 -0.0938
 5070TIP3    H136769   4.689   5.586   0.808  2.5839 -1.8868  0.8886
 5070TIP3    H236770   4.610   5.636   0.928  0.0384 -1.2186 -0.9731
 5071TIP3   OH236771   2.158   3.497   7.541 -0.1569  0.2704  0.1151
 5071TIP3    H136772   2.178   3.554   7.466  0.4711 -2.0466 -1.6127
 5071TIP3    H236773   2.115   3.554   7.604 -1.5233  2.2002 -2.3809
 5072TIP3   OH236774   4.120   1.511   2.074 -0.2028  0.5498  0.0965
 5072TIP3    H136775   4.110   1.443   2.141 -0.9340  0.5193 -0.0350
 5072TIP3    H236776   4.158   1.466   1.999 -1.0959  0.1729 -0.1469
 5073TIP3   OH236777   4.408   3.009   6.872  0.3420  0.3402 -0.4528
 5073TIP3    H136778   4.440   2.974   6.955  3.2306  1.4090 -0.9885
 5073TIP3    H236779   4.359   3.087   6.896  1.1211  0.6138  0.3004
 5074TIP3   OH236780   5.856   4.996   0.742  0.5951 -0.4940  0.0173
 5074TIP3    H136781   5.802   5.053   0.687  1.6387  0.0720 -0.4534
 5074TIP3    H236782   5.793   4.944   0.793 -0.3895 -0.5020 -1.1683
 5075TIP3   OH236783   5.914   6.582   7.996  0.1378 -0.0159  0.0128
 5075TIP3    H136784   5.961   6.648   7.945  0.0495  0.9281  1.1154
 5075TIP3    H236785   5.832   6.625   8.020  0.4397 -0.2119  1.4618
 5076TIP3   OH236786   5.570   5.092   0.217 -0.2378  0.8281 -0.2623
 5076TIP3    H136787   5.560   5.181   0.184 -2.7270  0.4427 -0.6676
 5076TIP3    H236788   5.508   5.086   0.290 -0.2778 -0.6370 -0.3897
 5077TIP3   OH236789   0.368   0.975   1.180  0.1442 -0.2573 -0.1887
 5077TIP3    H136790   0.395   0.953   1.090 -1.1171  0.4637 -0.7797
 5077TIP3    H236791   0.280   0.939   1.187  0.4716 -0.8703  1.0099
 5078TIP3   OH236792   1.519   4.651   2.216  0.2868  0.1704  0.6049
 5078TIP3    H136793   1.550   4.604   2.138 -0.4561  0.1673  0.3027
 5078TIP3    H236794   1.440   4.697   2.186  0.8765  1.4451  0.9532
 5079TIP3   OH236795   4.297   4.028   1.049 -0.4361  1.1195 -0.3764
 5079TIP3    H136796   4.240   3.989   0.983 -0.6159 -1.0887  0.9830
 5079TIP3    H236797   4.257   4.112   1.070 -3.3417 -0.4049  0.6327
 5080TIP3   OH236798   2.337   0.957   0.698  0.2925  0.3173  0.7691
 5080TIP3    H136799   2.314   1.037   0.746 -0.9802 -0.1855  1.0408
 5080TIP3    H236800   2.350   0.987   0.607  0.2856  0.8934  0.9504
 5081TIP3   OH236801   0.318   3.872   7.270 -0.3901  0.5247  0.1676
 5081TIP3    H136802   0.370   3.896   7.193  1.4685 -1.2868  0.7652
 5081TIP3    H236803   0.288   3.783   7.252 -0.7867  0.4496  1.1184
 5082TIP3   OH236804   0.387   3.916   0.518  0.4061  0.8791  0.4857
 5082TIP3    H136805   0.465   3.884   0.473  0.0590  1.0192 -0.2452
 5082TIP3    H236806   0.367   3.849   0.583  0.8736  0.6227  0.3714
 5083TIP3   OH236807   1.294   0.203   8.497  0.0781  0.4723  0.1657
 5083TIP3    H136808   1.302   0.220   8.403  0.6778  3.3155  0.6403
 5083TIP3    H236809   1.384   0.195   8.528 -0.1239 -1.5647  0.4202
 5084TIP3   OH236810   3.594   4.164   0.233  0.5007 -0.2812 -0.2766
 5084TIP3    H136811   3.642   4.081   0.231  2.6055  0.8682 -0.3160
 5084TIP3    H236812   3.617   4.203   0.317  1.3296  1.1987 -1.1326
 5085TIP3   OH236813   2.783   5.745   8.272 -0.2667  0.5932 -0.1475
 5085TIP3    H136814   2.838   5.788   8.337  1.7747 -1.2172 -0.5478
 5085TIP3    H236815   2.777   5.654   8.302 -2.0746  0.4726 -0.7728
 5086TIP3   OH236816   6.123   6.204   8.586 -0.2911 -0.3421  0.6560
 5086TIP3    H136817   6.199   6.179   8.534  0.7026  1.4406  1.1751
 5086TIP3    H236818   6.125   6.146   8.662 -0.5914 -1.5905 -0.2574
 5087TIP3   OH236819   5.343   4.437   8.485  0.0988 -0.1768  0.2148
 5087TIP3    H136820   5.257   4.441   8.443  0.7734  1.7756 -1.1407
 5087TIP3    H236821   5.366   4.344   8.484 -1.1896 -0.5207 -1.1244
 5088TIP3   OH236822   0.845   0.222   1.937  0.1326  0.6288 -0.0293
 5088TIP3    H136823   0.870   0.297   1.990  1.1043  0.5567 -0.3729
 5088TIP3    H236824   0.750   0.214   1.950  0.1112  1.5604  0.4536
 5089TIP3   OH236825   5.889   2.528   0.083 -0.1709  0.0875  0.6540
 5089TIP3    H136826   5.871   2.441   0.119  1.3742 -0.0098  1.2760
 5089TIP3    H236827   5.863   2.589   0.152 -0.1368  0.0621  0.6890
 5090TIP3   OH236828   3.966   6.624   1.122  0.0907 -0.3302 -0.5039
 5090TIP3    H136829   3.882   6.580   1.131  0.3217 -1.3334 -2.6786
 5090TIP3    H236830   3.990   6.648   1.211 -1.8311 -1.2802  0.3190
 5091TIP3   OH236831   0.892   6.122   7.582 -0.3287 -0.3482  0.2098
 5091TIP3    H136832   0.957   6.127   7.652  1.2915 -1.9486 -1.0624
 5091TIP3    H236833   0.924   6.183   7.515 -0.7878 -0.2721  0.0572
 5092TIP3   OH236834   5.465   5.159   7.742  0.2499  0.5607 -0.0736
 5092TIP3    H136835   5.403   5.117   7.802 -0.6610  2.4141  0.3512
 5092TIP3    H236836   5.533   5.092   7.728 -1.9095 -1.6241 -0.7559
 5093TIP3   OH236837   3.025   6.658   1.945  0.2698 -0.4319 -0.6473
 5093TIP3    H136838   2.994   6.686   2.032  2.1655 -2.2146  0.7078
 5093TIP3    H236839   3.041   6.739   1.898 -1.4825  0.5865  0.3863
 5094TIP3   OH236840   2.713   3.414   6.863 -0.2611 -0.1297 -0.3472
 5094TIP3    H136841   2.649   3.432   6.794  1.1036 -0.1933 -1.6995
 5094TIP3    H236842   2.776   3.355   6.821  0.2930 -0.6353  1.1559
 5095TIP3   OH236843   6.226   2.276   7.119  0.0109  0.5540  0.4342
 5095TIP3    H136844   6.316   2.286   7.089  0.1391 -0.5354  0.4184
 5095TIP3    H236845   6.234   2.234   7.205 -0.5182 -1.7318 -0.5610
 5096TIP3   OH236846   1.612   5.031   2.638 -0.1425  0.2979 -0.1768
 5096TIP3    H136847   1.703   5.009   2.619 -0.8073 -1.4491 -1.7179
 5096TIP3    H236848   1.567   5.020   2.554 -2.1772 -1.4258  1.0387
 5097TIP3   OH236849   3.292   0.367   7.684  0.5026  0.0551 -0.3096
 5097TIP3    H136850   3.218   0.318   7.718  1.9531 -0.9718  1.5340
 5097TIP3    H236851   3.263   0.458   7.686 -1.3258 -0.4415 -1.4044
 5098TIP3   OH236852   2.380   1.142   1.902 -0.0825 -0.0225 -0.1519
 5098TIP3    H136853   2.401   1.141   1.995 -0.0215  3.1556 -0.0409
 5098TIP3    H236854   2.419   1.061   1.868 -0.1880 -1.3030  2.5464
 5099TIP3   OH236855   1.081   6.572   7.414 -0.3736  0.1427  0.6610
 5099TIP3    H136856   1.172   6.569   7.385  0.6978  1.5652  3.5275
 5099TIP3    H236857   1.046   6.653   7.377 -0.6133 -0.5151 -0.6271
 5100TIP3   OH236858   3.553   0.383   7.793  0.4099  0.3687 -0.2530
 5100TIP3    H136859   3.460   0.375   7.774  0.0427  0.6563  1.3586
 5100TIP3    H236860   3.595   0.376   7.707 -0.9665 -1.3054 -0.8537
 5101TIP3   OH236861   1.312   6.091   0.924 -0.3629 -0.2330  0.4416
 5101TIP3    H136862   1.252   6.122   0.855 -0.7989  0.9922  1.3379
 5101TIP3    H236863   1.398   6.126   0.898 -0.5564  0.3733  0.5849
 5102TIP3   OH236864   1.483   0.978   0.934  0.2351  0.3864 -0.4973
 5102TIP3    H136865   1.459   0.891   0.902 -1.3392  0.0555  1.4037
 5102TIP3    H236866   1.460   1.037   0.862  0.2975 -0.6499 -1.3905
 5103TIP3   OH236867   4.148   6.803   8.118 -0.0990  0.0081 -0.1648
 5103TIP3    H136868   4.236   6.785   8.085 -0.5866 -2.0487 -0.5008
 5103TIP3    H236869   4.152   6.785   8.212 -0.3402 -0.9147 -0.3229
 5104TIP3   OH236870   0.439   5.455   8.059  0.5409  0.3346  0.0046
 5104TIP3    H136871   0.362   5.444   8.116  0.1197  0.0122 -0.6239
 5104TIP3    H236872   0.459   5.549   8.066 -0.9733  0.8005 -1.1471
 5105TIP3   OH236873   3.923   5.690   6.121  0.0539  0.2345  0.1997
 5105TIP3    H136874   3.877   5.609   6.143  1.0357 -0.4882 -0.3380
 5105TIP3    H236875   4.016   5.666   6.121  0.2387  0.5452 -3.0615
 5106TIP3   OH236876   4.849   0.592   0.296 -0.0490  0.3142  0.4224
 5106TIP3    H136877   4.800   0.520   0.337  0.1507 -0.8809 -1.3603
 5106TIP3    H236878   4.863   0.655   0.368 -1.1282 -0.9273  1.7812
 5107TIP3   OH236879   5.862   4.528   8.664 -0.3684  0.0570 -0.2738
 5107TIP3    H136880   5.954   4.544   8.686 -0.7936 -1.4514  3.1185
 5107TIP3    H236881   5.818   4.610   8.687 -0.2729 -0.2769  1.1935
 5108TIP3   OH236882   3.484   3.336   8.644  0.2950 -1.0066 -0.2685
 5108TIP3    H136883   3.421   3.264   8.646 -0.2175 -0.5543  0.0011
 5108TIP3    H236884   3.562   3.298   8.602  0.4261 -2.0413  0.8189
 5109TIP3   OH236885   1.415   4.016   0.709  0.2968 -0.5450  0.1095
 5109TIP3    H136886   1.503   3.994   0.678 -0.2938 -0.1195 -1.9911
 5109TIP3    H236887   1.430   4.066   0.789  1.9343 -1.0179  0.1376
 5110TIP3   OH236888   6.151   0.581   0.960  0.7515 -0.2002  0.3360
 5110TIP3    H136889   6.069   0.604   1.004  0.4371  0.9060 -0.7607
 5110TIP3    H236890   6.160   0.487   0.973 -1.2806 -0.5542 -0.4249
 5111TIP3   OH236891   5.442   0.637   2.222  0.2814 -0.3899 -1.0278
 5111TIP3    H136892   5.528   0.611   2.255  1.1098 -0.3974 -3.0361
 5111TIP3    H236893   5.458   0.719   2.176 -1.4805  1.4480  1.4415
 5112TIP3   OH236894   6.183   1.448   7.447 -0.2124 -0.4013 -0.6213
 5112TIP3    H136895   6.261   1.445   7.392  0.2474 -1.6961  0.0500
 5112TIP3    H236896   6.115   1.407   7.393 -0.5738  1.1310 -1.3785
 5113TIP3   OH236897   6.043   1.712   0.696 -0.1062 -0.2960  0.2155
 5113TIP3    H136898   5.958   1.687   0.732 -1.3451  1.7189 -1.0681
 5113TIP3    H236899   6.035   1.695   0.602  1.2286 -0.8445  0.1830
 5114TIP3   OH236900   2.246   2.561   0.858  0.4747  0.0272 -0.1936
 5114TIP3    H136901   2.295   2.560   0.776 -1.8143  0.1013 -1.6786
 5114TIP3    H236902   2.160   2.526   0.834 -0.3265  0.2252  2.1562
 5115TIP3   OH236903   3.278   1.257   1.129 -0.5285  0.4088 -0.3741
 5115TIP3    H136904   3.276   1.346   1.094  0.4877  0.4642 -0.3206
 5115TIP3    H236905   3.244   1.265   1.217  1.3312  1.1105  0.3408
 5116TIP3   OH236906   0.979   1.091   2.043  0.2632  0.9186 -0.1052
 5116TIP3    H136907   0.920   1.016   2.029 -0.2981  1.5663 -1.3537
 5116TIP3    H236908   1.050   1.055   2.095 -1.2421  0.1231  1.5181
 5117TIP3   OH236909   4.835   3.069   0.124  0.0817 -0.0844  0.0230
 5117TIP3    H136910   4.842   3.074   0.029 -0.3809  1.1238  0.0284
 5117TIP3    H236911   4.820   2.976   0.142  0.4981 -0.3764 -1.0506
 5118TIP3   OH236912   0.981   3.589   0.464 -0.1860 -0.4625 -0.2587
 5118TIP3    H136913   0.949   3.612   0.377 -0.8998 -0.2698  0.0534
 5118TIP3    H236914   0.902   3.571   0.516  0.1797  0.2307  0.5759
 5119TIP3   OH236915   0.049   6.249   2.084  0.0074  0.0704  0.2114
 5119TIP3    H136916   0.047   6.154   2.096 -0.1634  0.2532  1.8732
 5119TIP3    H236917  -0.030   6.268   2.033  0.4089 -0.7303 -0.7590
 5120TIP3   OH236918   6.335   3.749   1.646  0.0959  0.0100  0.2887
 5120TIP3    H136919   6.414   3.763   1.698  0.9527 -1.4804 -0.5415
 5120TIP3    H236920   6.272   3.811   1.682  1.3822  0.6815  1.5105
 5121TIP3   OH236921   1.051   2.854   0.293  1.2929 -0.1312 -0.2954
 5121TIP3    H136922   1.043   2.909   0.216  0.7054  0.2462  0.0302
 5121TIP3    H236923   0.974   2.797   0.291  1.4156 -0.3066 -0.1345
 5122TIP3   OH236924   6.601   5.681   8.221 -0.5759 -0.1153 -0.2445
 5122TIP3    H136925   6.610   5.716   8.132  2.8574 -2.1712 -0.9051
 5122TIP3    H236926   6.663   5.732   8.273 -0.6010 -0.6654  0.3322
 5123TIP3   OH236927   1.824   0.561   1.078  0.6578 -0.7018 -0.3433
 5123TIP3    H136928   1.849   0.544   1.168 -1.3922 -1.3063  0.1762
 5123TIP3    H236929   1.735   0.526   1.071  0.2558  0.5354 -2.2184
 5124TIP3   OH236930   0.639   3.639   7.952 -0.1159  0.6621 -0.1873
 5124TIP3    H136931   0.632   3.620   7.858  1.5728  1.0122 -0.4154
 5124TIP3    H236932   0.566   3.698   7.970 -1.9850 -1.3755 -0.6972
 5125TIP3   OH236933   3.899   5.961   6.763 -0.3434 -0.4142 -1.0053
 5125TIP3    H136934   3.872   6.046   6.798  0.2578  0.1427 -1.8461
 5125TIP3    H236935   3.838   5.944   6.691 -2.0446 -1.9023  0.6920
 5126TIP3   OH236936   1.181   6.040   8.691  0.1326  0.1236 -0.2997
 5126TIP3    H136937   1.214   6.130   8.686 -0.6266  0.4352  0.0626
 5126TIP3    H236938   1.087   6.049   8.675  0.2277 -0.7518 -1.4553
 5127TIP3   OH236939   0.426   5.655   6.867  0.1856 -0.3448 -0.0325
 5127TIP3    H136940   0.378   5.712   6.806 -1.5500 -1.0451  0.6096
 5127TIP3    H236941   0.404   5.689   6.954  0.6921 -0.8298  0.2891
 5128TIP3   OH236942   2.649   2.582   0.310  0.2204  0.0854 -0.1731
 5128TIP3    H136943   2.670   2.543   0.226 -1.1319  0.1242 -0.5550
 5128TIP3    H236944   2.600   2.515   0.357 -0.9989  0.8189 -0.3306
 5129TIP3   OH236945   0.297   3.181   7.919 -0.0738  0.4114 -0.1167
 5129TIP3    H136946   0.309   3.121   7.845  1.2119  0.6970 -0.1664
 5129TIP3    H236947   0.331   3.265   7.887  0.8492  0.4473  0.9100
 5130TIP3   OH236948   5.948   4.089   7.155  0.1287  0.0202  0.1079
 5130TIP3    H136949   6.017   4.150   7.128  0.0073  0.1827  0.1625
 5130TIP3    H236950   5.941   4.026   7.083 -0.6858  0.8564 -0.5660
 5131TIP3   OH236951   2.065   5.075   7.592  0.4752  0.1989 -0.0195
 5131TIP3    H136952   2.133   5.127   7.550 -0.2410 -0.6211 -2.3299
 5131TIP3    H236953   2.104   5.047   7.675  2.7059  0.2849 -0.9687
 5132TIP3   OH236954   3.338   0.837   1.569  0.2125  0.0008 -0.3929
 5132TIP3    H136955   3.305   0.821   1.657 -0.9366  0.5375 -0.7055
 5132TIP3    H236956   3.329   0.753   1.523 -0.1725 -0.0073 -0.3020
 5133TIP3   OH236957   3.457   4.921   7.199 -0.6783 -0.0994  0.2914
 5133TIP3    H136958   3.492   4.873   7.124 -0.7548 -0.2848  0.3728
 5133TIP3    H236959   3.449   5.011   7.169  0.5498  0.0930  0.4913
 5134TIP3   OH236960   5.124   0.487   7.763  0.0059  0.2382 -0.5749
 5134TIP3    H136961   5.175   0.558   7.802 -1.0020  0.5829  0.1236
 5134TIP3    H236962   5.167   0.407   7.794 -1.3255  0.4608  2.1214
 5135TIP3   OH236963   0.950   0.984   7.033  0.6630  0.1305 -0.1627
 5135TIP3    H136964   0.931   0.903   7.080  1.6320  0.9362  1.7257
 5135TIP3    H236965   0.992   0.955   6.952 -0.4882 -1.2799 -0.3000
 5136TIP3   OH236966   1.182   3.683   7.982  0.1482  0.2658 -0.7925
 5136TIP3    H136967   1.173   3.778   7.993  1.4405  0.3667 -0.4467
 5136TIP3    H236968   1.235   3.655   8.057 -0.1811 -0.7195 -0.9204
 5137TIP3   OH236969   4.445   3.575   6.073  0.1956 -0.0365 -0.1979
 5137TIP3    H136970   4.505   3.634   6.117  1.9521 -0.7194 -1.5773
 5137TIP3    H236971   4.490   3.550   5.993 -1.5622 -1.2920 -0.8583
 5138TIP3   OH236972   5.133   5.271   6.417  0.3081  0.1417  0.3859
 5138TIP3    H136973   5.137   5.208   6.488  0.2938 -0.6843 -0.3214
 5138TIP3    H236974   5.069   5.235   6.356 -0.3088  1.2613  0.3470
 5139TIP3   OH236975   2.697   6.811   8.223  0.5265  0.3842  0.4296
 5139TIP3    H136976   2.686   6.819   8.128  4.6079  3.1527 -0.0847
 5139TIP3    H236977   2.764   6.743   8.234  0.0015  0.0006  1.3614
 5140TIP3   OH236978   4.679   1.400   8.600 -0.4304  0.2003  0.0597
 5140TIP3    H136979   4.690   1.310   8.630  0.7438  0.0771 -0.6681
 5140TIP3    H236980   4.627   1.442   8.668 -0.8188 -0.9767  0.5050
 5141TIP3   OH236981   6.326   6.021   0.934 -0.2301  0.0450  0.0956
 5141TIP3    H136982   6.370   5.945   0.898  0.5137  0.2268  0.6103
 5141TIP3    H236983   6.383   6.051   1.005 -0.9160  0.5942  0.4290
 5142TIP3   OH236984   0.632   1.150   7.771  0.5987 -0.0399  0.0571
 5142TIP3    H136985   0.578   1.181   7.698 -0.4032 -0.7911  0.4695
 5142TIP3    H236986   0.613   1.211   7.843 -0.9462 -1.2035  0.6936
 5143TIP3   OH236987   4.674   3.567   7.494 -0.1018  0.2633 -0.1261
 5143TIP3    H136988   4.662   3.661   7.488 -0.4166  0.1619 -1.1399
 5143TIP3    H236989   4.636   3.544   7.579 -1.0200  0.9004 -0.3485
 5144TIP3   OH236990   2.368   2.400   0.224 -0.2976  0.1337 -0.3038
 5144TIP3    H136991   2.421   2.320   0.229 -2.1791 -1.1616 -0.3959
 5144TIP3    H236992   2.364   2.421   0.131 -3.6787 -2.4727 -0.9249
 5145TIP3   OH236993   0.115   0.247   7.873  0.5335  0.0365 -0.6349
 5145TIP3    H136994   0.134   0.330   7.829  1.4316  0.3882  0.3636
 5145TIP3    H236995   0.137   0.263   7.965 -1.5235 -0.5934  0.0094
 5146TIP3   OH236996   6.107   5.769   1.929  0.7287 -0.9289 -0.4927
 5146TIP3    H136997   6.080   5.800   2.015 -0.5180 -1.0421 -0.8137
 5146TIP3    H236998   6.090   5.843   1.870  1.6845 -0.8074 -0.6365
 5147TIP3   OH236999   6.334   1.553   0.114  0.4146  0.0391 -0.5130
 5147TIP3    H137000   6.301   1.600   0.190 -0.8778 -1.0958 -0.3440
 5147TIP3    H237001   6.407   1.607   0.083  0.0065  1.3025  0.6126
 5148TIP3   OH237002   1.424   3.168   0.918  0.5274 -0.0237 -0.5653
 5148TIP3    H137003   1.415   3.256   0.881  2.5370  0.3443 -0.2872
 5148TIP3    H237004   1.356   3.163   0.985  1.8252  2.2549  1.0797
 5149TIP3   OH237005   4.398   0.640   1.051 -0.0514  0.2893  0.1268
 5149TIP3    H137006   4.333   0.709   1.042 -0.1568 -0.0083 -2.0696
 5149TIP3    H237007   4.461   0.673   1.114 -0.1383  2.3944 -0.8160
 5150TIP3   OH237008   4.302   4.623   6.746  0.0120 -0.4532 -0.0220
 5150TIP3    H137009   4.311   4.643   6.839 -0.2994  0.4032 -0.1635
 5150TIP3    H237010   4.357   4.688   6.702  0.2168 -0.8976 -0.4367
 5151TIP3   OH237011   4.167   6.677   6.729  0.4337  0.4470 -0.3734
 5151TIP3    H137012   4.082   6.633   6.730  0.4511  0.4198 -0.0179
 5151TIP3    H237013   4.170   6.724   6.812 -0.7263  3.3264 -1.8331
 5152TIP3   OH237014   1.125   5.428   1.478 -0.1743 -0.0271  0.2025
 5152TIP3    H137015   1.137   5.408   1.385 -0.0476 -4.4686  0.9400
 5152TIP3    H237016   1.197   5.486   1.500  0.3749  0.3381 -2.2519
 5153TIP3   OH237017   5.277   5.913   6.672 -0.1497  0.2246  0.5333
 5153TIP3    H137018   5.211   5.887   6.607  1.1448 -1.6556 -0.1030
 5153TIP3    H237019   5.274   5.843   6.737 -0.0246  1.0636  1.4478
 5154TIP3   OH237020   2.065   6.102   6.049 -0.6704  0.4367 -0.3027
 5154TIP3    H137021   2.018   6.120   6.130 -1.2314 -0.6932 -0.3530
 5154TIP3    H237022   2.040   6.012   6.026  1.8046 -0.3692 -0.1132
 5155TIP3   OH237023   0.474   4.859   7.873 -0.4097 -0.3183 -0.8761
 5155TIP3    H137024   0.522   4.826   7.949  0.3503 -0.0032 -1.2103
 5155TIP3    H237025   0.540   4.866   7.804 -0.9898 -0.1208 -1.4213
 5156TIP3   OH237026   0.066   3.785   6.913  0.1889 -0.2419  0.8513
 5156TIP3    H137027   0.064   3.792   6.817 -1.0348 -0.0682  0.8795
 5156TIP3    H237028   0.047   3.693   6.931 -1.3585  0.0856  0.9651
 5157TIP3   OH237029   5.283   6.326   0.578  0.3417  1.1534  0.5267
 5157TIP3    H137030   5.235   6.298   0.500 -1.1368 -0.0346  1.7972
 5157TIP3    H237031   5.375   6.320   0.553  0.0055 -1.5090 -0.4151
 5158TIP3   OH237032   4.065   2.046   1.433  0.0907 -0.3265 -0.0836
 5158TIP3    H137033   4.000   1.988   1.472 -0.6134 -0.2084 -1.0698
 5158TIP3    H237034   4.041   2.134   1.464  1.5842 -0.5835  2.0064
 5159TIP3   OH237035   2.790   0.452   8.020 -0.0747 -0.3217 -0.2129
 5159TIP3    H137036   2.783   0.543   8.049 -0.2922 -0.6503  0.8157
 5159TIP3    H237037   2.880   0.426   8.043 -0.2815 -0.6159  0.2939
 5160TIP3   OH237038   5.901   6.560   6.698  0.3572 -0.3399  0.0337
 5160TIP3    H137039   5.953   6.611   6.760 -1.5187  1.6844  0.1196
 5160TIP3    H237040   5.823   6.535   6.747 -1.0887  1.1486 -1.3628
 5161TIP3   OH237041   3.211   4.106   1.847  0.0884 -0.3822 -0.2961
 5161TIP3    H137042   3.185   4.120   1.938  1.2138  0.7880 -0.1220
 5161TIP3    H237043   3.285   4.046   1.853  0.4621  0.0710 -0.4063
 5162TIP3   OH237044   5.406   1.522   8.637  0.0098 -0.2829 -0.1874
 5162TIP3    H137045   5.501   1.530   8.633 -0.0666  1.0896  0.3539
 5162TIP3    H237046   5.373   1.594   8.583 -0.7432 -1.4404 -1.3587
 5163TIP3   OH237047   4.046   0.465   0.869 -0.2612  0.0699  0.7515
 5163TIP3    H137048   3.998   0.545   0.886 -0.4815  0.0749  0.1093
 5163TIP3    H237049   4.062   0.465   0.775  0.6157 -0.1456  0.8834
 5164TIP3   OH237050   5.805   3.039   1.234 -0.5266  0.1469  0.1785
 5164TIP3    H137051   5.714   3.047   1.262 -1.1506  0.1783 -1.6977
 5164TIP3    H237052   5.822   2.945   1.239 -0.8354  0.0823  0.0902
 5165TIP3   OH237053   6.447   0.185   1.070 -0.3331  0.1836 -0.9050
 5165TIP3    H137054   6.475   0.157   1.157 -0.7256 -0.4288 -0.9749
 5165TIP3    H237055   6.511   0.253   1.046  0.1300 -0.0569 -0.3916
 5166TIP3   OH237056   6.538   4.702   1.092 -0.0975  0.2962  0.1553
 5166TIP3    H137057   6.504   4.783   1.053 -2.7177 -1.0553 -0.5532
 5166TIP3    H237058   6.556   4.645   1.017  1.9406  0.2143  0.6367
 5167TIP3   OH237059   6.368   1.623   0.383  0.2150  0.1578  0.3242
 5167TIP3    H137060   6.335   1.547   0.431  1.4950 -0.3256  0.5074
 5167TIP3    H237061   6.382   1.690   0.449 -3.5565  1.6532 -0.1624
 5168TIP3   OH237062   1.161   3.639   0.121  0.8434 -0.0013 -0.3916
 5168TIP3    H137063   1.164   3.703   0.192 -2.3035 -0.8269  0.6494
 5168TIP3    H237064   1.242   3.590   0.131  2.3708  2.4146  0.0712
 5169TIP3   OH237065   1.177   2.112   1.767  1.1319 -0.2720 -0.1309
 5169TIP3    H137066   1.150   2.190   1.719  0.2099  0.2676  1.2255
 5169TIP3    H237067   1.261   2.137   1.806  0.6331  0.2060  0.6537
 5170TIP3   OH237068   6.835   3.185   0.568 -0.7878  0.3078  0.2819
 5170TIP3    H137069   6.785   3.258   0.604 -1.3286 -0.3451  0.8748
 5170TIP3    H237070   6.773   3.138   0.513 -1.2773 -1.2750  2.0639
 5171TIP3   OH237071   5.255   4.459   1.591 -0.0038 -0.1890  0.0741
 5171TIP3    H137072   5.188   4.394   1.570  0.5142 -0.6353 -0.2087
 5171TIP3    H237073   5.327   4.408   1.628  0.6643  0.1467 -0.7364
 5172TIP3   OH237074   2.008   2.513   0.751 -0.1921  1.0443  0.0924
 5172TIP3    H137075   1.979   2.602   0.772  1.2366  1.9093 -1.3955
 5172TIP3    H237076   1.944   2.481   0.687 -1.6446  0.3108  1.8024
 5173TIP3   OH237077   0.355   6.363   7.497 -0.5261 -0.9034  0.3880
 5173TIP3    H137078   0.342   6.455   7.519  0.5620 -0.7602  0.4991
 5173TIP3    H237079   0.403   6.364   7.414 -1.8076 -1.4056 -0.3855
 5174TIP3   OH237080   1.491   5.694   7.736  0.0118  0.1934  0.5727
 5174TIP3    H137081   1.543   5.666   7.812 -0.8823  2.4895  2.1482
 5174TIP3    H237082   1.475   5.787   7.751 -4.5949 -0.3219  0.3003
 5175TIP3   OH237083   2.652   0.296   7.533  0.4043 -0.2388  0.0246
 5175TIP3    H137084   2.745   0.317   7.527  0.3118  0.8907  1.7001
 5175TIP3    H237085   2.627   0.324   7.621 -1.2556 -1.6736  0.0601
 5176TIP3   OH237086   2.732   5.279   6.982 -0.1354 -0.8919  0.2326
 5176TIP3    H137087   2.644   5.304   6.957  0.0582 -1.8867 -1.6314
 5176TIP3    H237088   2.737   5.297   7.076 -2.1186 -0.3072  0.2586
 5177TIP3   OH237089   0.779   6.566   8.446 -0.0983  0.2080 -0.1151
 5177TIP3    H137090   0.813   6.652   8.422 -2.5910  0.7897 -1.9860
 5177TIP3    H237091   0.745   6.578   8.535 -0.6696  1.2681 -0.4637
 5178TIP3   OH237092   1.492   4.368   8.245  0.1425 -0.7568  0.1244
 5178TIP3    H137093   1.436   4.313   8.191 -0.5864  0.7576 -0.7387
 5178TIP3    H237094   1.435   4.397   8.317 -0.7822  1.9352 -1.5042
 5179TIP3   OH237095   3.775   3.007   1.755 -0.4604  0.4475 -0.1396
 5179TIP3    H137096   3.741   2.930   1.799 -0.8785  0.2589 -0.7719
 5179TIP3    H237097   3.869   3.007   1.773 -0.8325  1.2093  1.9974
 5180TIP3   OH237098   6.392   1.204   1.198 -0.0291 -0.0572  0.2802
 5180TIP3    H137099   6.308   1.157   1.196  0.8757 -1.7555 -0.0578
 5180TIP3    H237100   6.429   1.190   1.111  0.4755  0.9617  0.3158
 5181TIP3   OH237101   3.701   2.445   6.906 -0.2323 -0.3524 -1.1802
 5181TIP3    H137102   3.712   2.432   6.811 -2.8799  1.6382 -1.8571
 5181TIP3    H237103   3.608   2.429   6.922 -0.4363  2.0659  0.5464
 5182TIP3   OH237104   2.452   2.355   2.461 -0.0935 -0.1455 -0.3684
 5182TIP3    H137105   2.523   2.294   2.479 -0.7305 -0.9980 -0.6291
 5182TIP3    H237106   2.375   2.315   2.502 -0.2162  1.3507  0.9506
 5183TIP3   OH237107   2.566   3.394   8.189  0.1406  0.0999  0.0757
 5183TIP3    H137108   2.579   3.327   8.256 -0.2280  1.3471  1.4583
 5183TIP3    H237109   2.643   3.387   8.132  0.5393 -0.9069  0.7179
 5184TIP3   OH237110   2.064   2.659   8.382 -0.0032  0.3559  0.6969
 5184TIP3    H137111   2.153   2.685   8.357  0.0686 -0.6427 -0.1759
 5184TIP3    H237112   2.055   2.689   8.472  1.6881 -0.6356  1.2457
 5185TIP3   OH237113   2.793   6.002   6.037 -0.9285  0.2278 -0.0759
 5185TIP3    H137114   2.881   5.963   6.031 -1.1922 -0.4150  0.1828
 5185TIP3    H237115   2.733   5.928   6.028 -1.4291  0.4921  0.9263
 5186TIP3   OH237116   5.318   0.562   0.869  0.6010 -0.3510 -0.0682
 5186TIP3    H137117   5.289   0.505   0.798 -0.3180  0.7145 -0.5716
 5186TIP3    H237118   5.244   0.567   0.929  0.4064  0.8322 -0.3719
 5187TIP3   OH237119   3.485   1.662   0.163  0.0850 -0.0926  0.3948
 5187TIP3    H137120   3.522   1.573   0.162 -0.3049 -0.2579  0.5778
 5187TIP3    H237121   3.391   1.649   0.158  0.0348  0.3214  0.2372
 5188TIP3   OH237122   0.440   4.475   2.360 -0.3502 -0.1157  0.1370
 5188TIP3    H137123   0.353   4.447   2.390 -0.9326  1.1558 -0.2641
 5188TIP3    H237124   0.468   4.539   2.425 -1.4272  2.3310 -1.5963
 5189TIP3   OH237125   4.139   4.463   8.306 -0.0001 -0.0285 -0.6501
 5189TIP3    H137126   4.208   4.398   8.304 -0.8641 -1.0070  0.3119
 5189TIP3    H237127   4.175   4.536   8.357  0.3079 -0.5420 -0.1317
 5190TIP3   OH237128   4.114   0.943   7.048 -0.5438  0.3051 -0.5372
 5190TIP3    H137129   4.138   0.884   7.119 -0.5453 -0.1778 -0.9396
 5190TIP3    H237130   4.020   0.955   7.056 -0.3016  1.7875  0.7219
 5191TIP3   OH237131   3.718   0.049   0.944  0.1812  0.5236 -0.1169
 5191TIP3    H137132   3.799   0.100   0.946 -0.5330  1.7189 -0.7949
 5191TIP3    H237133   3.667   0.082   1.018 -0.8956  1.8790 -1.4128
 5192TIP3   OH237134   4.554   2.504   0.163 -0.2775 -0.3946 -0.1479
 5192TIP3    H137135   4.501   2.567   0.213 -1.2592 -1.1939 -0.1529
 5192TIP3    H237136   4.554   2.539   0.073 -0.3589 -0.1062 -0.0356
 5193TIP3   OH237137   1.459   6.441   8.060 -0.4214 -0.6598  0.2722
 5193TIP3    H137138   1.502   6.367   8.015 -0.5422 -0.8619  0.4898
 5193TIP3    H237139   1.407   6.483   7.991  1.6718  0.8058 -0.5188
 5194TIP3   OH237140   3.665   4.347   7.865  0.8309  0.2011 -0.3854
 5194TIP3    H137141   3.632   4.383   7.948  0.9402 -1.7450  0.5799
 5194TIP3    H237142   3.648   4.415   7.800 -1.5910  0.8113  0.7745
 5195TIP3   OH237143   2.162   4.455   8.063 -0.3605 -0.1186  0.6511
 5195TIP3    H137144   2.148   4.534   8.115 -0.0526  0.7029 -0.4756
 5195TIP3    H237145   2.076   4.435   8.027 -0.1533  0.5793 -0.2560
 5196TIP3   OH237146   1.314   3.954   7.341  0.1693  0.4899 -0.1924
 5196TIP3    H137147   1.352   3.866   7.344  0.7213  0.7595  1.3879
 5196TIP3    H237148   1.332   3.984   7.252 -1.6408 -1.6605 -1.4201
 5197TIP3   OH237149   2.944   1.811   6.639 -0.2431 -0.1956  0.0675
 5197TIP3    H137150   2.910   1.722   6.631  0.4139 -0.3773 -0.9875
 5197TIP3    H237151   2.931   1.834   6.731 -1.9581 -0.7341 -0.0187
 5198TIP3   OH237152   5.822   5.758   1.668  0.2375 -0.1602 -0.1081
 5198TIP3    H137153   5.806   5.835   1.613 -2.5455  0.1746  1.0260
 5198TIP3    H237154   5.877   5.701   1.613  0.2057  1.4916 -1.9806
 5199TIP3   OH237155   4.011   2.317   6.626 -0.2679  0.2032  0.0144
 5199TIP3    H137156   3.917   2.333   6.625 -0.5312 -1.1562  0.2837
 5199TIP3    H237157   4.032   2.293   6.535 -0.4873 -0.9517  0.2480
 5200TIP3   OH237158   3.701   3.238   8.524 -0.6484 -0.3303 -0.0060
 5200TIP3    H137159   3.781   3.197   8.558 -1.9474 -3.6176 -0.5156
 5200TIP3    H237160   3.698   3.212   8.432 -2.7344 -1.1560  0.2357
 5201TIP3   OH237161   4.916   2.568   7.319  0.0508  0.0634 -0.3894
 5201TIP3    H137162   4.860   2.541   7.246 -0.1642  0.1296 -0.2490
 5201TIP3    H237163   4.911   2.495   7.381 -0.0327  0.1510 -0.2918
 5202TIP3   OH237164   6.098   0.722   7.478  0.0848  0.0879  0.1323
 5202TIP3    H137165   6.123   0.696   7.567  0.7565 -1.6731 -0.5408
 5202TIP3    H237166   6.046   0.649   7.445 -1.4432  1.3673 -0.4424
 5203TIP3   OH237167   4.118   1.751   8.295 -0.1225 -0.5222  0.2269
 5203TIP3    H137168   4.213   1.758   8.303 -0.2710  0.4515  1.3321
 5203TIP3    H237169   4.100   1.658   8.308  0.8002 -1.0119 -1.6888
 5204TIP3   OH237170   3.001   1.562   7.517  0.7350 -0.5178  0.5031
 5204TIP3    H137171   2.960   1.641   7.484 -0.3100 -1.6178 -0.9512
 5204TIP3    H237172   3.085   1.591   7.552 -0.5072  1.5339  1.9668
 5205TIP3   OH237173   0.393   1.535   0.814  0.2070  0.0415 -0.2166
 5205TIP3    H137174   0.449   1.529   0.737 -0.0895 -1.1446 -0.3531
 5205TIP3    H237175   0.387   1.629   0.832  1.7565  0.2348 -0.5472
 5206TIP3   OH237176   6.438   0.749   0.297 -0.0028 -0.4579  0.2326
 5206TIP3    H137177   6.388   0.818   0.254 -2.7168  0.3077  4.1808
 5206TIP3    H237178   6.412   0.669   0.251 -0.9753  0.5031 -0.9687
 5207TIP3   OH237179   1.029   1.048   8.535  0.4852 -0.0229 -0.5478
 5207TIP3    H137180   0.991   0.985   8.596  0.8623 -1.1364 -1.4175
 5207TIP3    H237181   1.040   1.128   8.586 -2.0613  0.0429  0.0239
 5208TIP3   OH237182   4.052   3.016   7.129  0.3969 -0.0930  0.0915
 5208TIP3    H137183   4.075   3.026   7.037 -0.7176 -0.7090 -0.2669
 5208TIP3    H237184   4.136   3.014   7.174  0.9427  2.9667 -0.5787
 5209TIP3   OH237185   5.200   6.610   8.242  0.2082 -0.0719 -0.0570
 5209TIP3    H137186   5.111   6.617   8.207  0.6020  0.7883 -0.9253
 5209TIP3    H237187   5.188   6.573   8.330 -1.3754  3.4729  1.3904
 5210TIP3   OH237188   0.211   0.750   1.568  0.1831  0.4744 -0.5317
 5210TIP3    H137189   0.288   0.706   1.532 -0.2959 -0.2060 -0.7513
 5210TIP3    H237190   0.191   0.819   1.504 -0.0893 -0.1096 -1.0933
 5211TIP3   OH237191   0.969   5.337   6.828 -0.5306 -0.8395  0.4709
 5211TIP3    H137192   1.053   5.344   6.783 -0.5523  0.8739  0.6107
 5211TIP3    H237193   0.931   5.255   6.797  0.5294 -0.8922 -0.7612
 5212TIP3   OH237194   4.243   1.033   1.510 -0.1776 -0.7399 -0.2584
 5212TIP3    H137195   4.151   1.010   1.519 -0.3872  0.3421  0.6603
 5212TIP3    H237196   4.287   0.982   1.578 -0.2347 -0.5577 -0.0842
 5213TIP3   OH237197   0.284   3.640   8.245 -0.0943 -0.3258 -0.3618
 5213TIP3    H137198   0.209   3.695   8.269 -0.8243  0.2048 -3.3516
 5213TIP3    H237199   0.249   3.551   8.244 -0.4860 -0.1719 -0.9536
 5214TIP3   OH237200   1.641   4.995   7.624  0.2455  0.0711 -0.3405
 5214TIP3    H137201   1.655   4.922   7.565  2.2598  1.1108 -1.2175
 5214TIP3    H237202   1.700   4.979   7.698  0.3163  0.5449 -0.2883
 5215TIP3   OH237203   0.134   5.205   0.625  0.4973 -0.3620 -0.1876
 5215TIP3    H137204   0.093   5.119   0.621 -0.0251 -0.1286 -0.0284
 5215TIP3    H237205   0.223   5.191   0.594 -0.0360 -0.6800 -1.6570
 5216TIP3   OH237206   5.181   4.731   7.517  0.2948 -0.4045 -0.6394
 5216TIP3    H137207   5.094   4.732   7.478  0.7936 -0.8451 -1.8456
 5216TIP3    H237208   5.172   4.677   7.596 -0.7732  0.5985 -0.0595
 5217TIP3   OH237209   5.090   4.299   1.452 -0.3748  0.7490  0.1734
 5217TIP3    H137210   5.103   4.210   1.486 -1.4427  0.8931  0.9887
 5217TIP3    H237211   5.033   4.287   1.376  0.9237  0.5720 -0.8107
 5218TIP3   OH237212   0.303   5.576   1.769 -0.6146 -0.0592  0.3954
 5218TIP3    H137213   0.336   5.514   1.834 -0.0719  0.7983  0.9584
 5218TIP3    H237214   0.208   5.566   1.772 -0.5666 -0.3717  0.9784
 5219TIP3   OH237215   2.438   2.784   0.621  0.0458  0.2132 -0.9140
 5219TIP3    H137216   2.523   2.746   0.642 -0.2288  0.3037  0.5192
 5219TIP3    H237217   2.419   2.755   0.532  0.4119 -1.9494 -0.3372
 5220TIP3   OH237218   3.161   4.571   6.634 -0.2332  0.3975 -0.3309
 5220TIP3    H137219   3.237   4.624   6.659 -0.5309  0.3805  0.6400
 5220TIP3    H237220   3.199   4.489   6.601  0.1957  0.8448 -0.9813
 5221TIP3   OH237221   1.548   3.573   0.826  0.0446 -0.1183 -0.1488
 5221TIP3    H137222   1.638   3.598   0.808  0.9882 -0.9541  2.7930
 5221TIP3    H237223   1.509   3.650   0.868  0.4130 -0.7360  1.4054
 5222TIP3   OH237224   0.133   1.423   0.765 -0.0387  0.2754  0.4491
 5222TIP3    H137225   0.093   1.426   0.852  0.5928 -1.6799  0.8622
 5222TIP3    H237226   0.226   1.438   0.781  0.2757 -1.3855  0.3034
 5223TIP3   OH237227   0.484   2.840   6.739 -0.3959  0.6600  1.0673
 5223TIP3    H137228   0.546   2.793   6.796  1.2382 -0.0515 -1.1613
 5223TIP3    H237229   0.528   2.923   6.721 -0.1036  0.2115 -0.4105
 5224TIP3   OH237230   4.514   5.482   0.192 -0.3890 -0.0522  0.1635
 5224TIP3    H137231   4.524   5.401   0.142  0.5255  0.1700 -0.0246
 5224TIP3    H237232   4.474   5.543   0.130 -0.6453 -0.2206  0.1627
 5225TIP3   OH237233   5.753   4.448   7.737 -0.5845 -0.2397  0.8120
 5225TIP3    H137234   5.671   4.483   7.702 -1.0142  1.0537  2.9544
 5225TIP3    H237235   5.728   4.368   7.782 -0.9098  0.6720  2.3324
 5226TIP3   OH237236   0.447   0.657   0.112  0.1848 -0.4436  0.0190
 5226TIP3    H137237   0.443   0.587   0.177 -1.6323 -0.2574  0.1703
 5226TIP3    H237238   0.410   0.733   0.157  1.1350  0.3403 -0.4859
 5227TIP3   OH237239   1.282   5.836   1.973 -0.2745  0.0163  0.1504
 5227TIP3    H137240   1.275   5.741   1.987 -0.1073 -0.1865 -1.0345
 5227TIP3    H237241   1.365   5.847   1.927 -0.6822  0.6533 -0.4355
 5228TIP3   OH237242   5.052   3.015   0.370  0.4883 -0.2768  0.0702
 5228TIP3    H137243   4.995   3.006   0.446 -1.0480  0.5310 -0.9306
 5228TIP3    H237244   4.992   3.034   0.297  1.6965 -2.6844 -1.6933
 5229TIP3   OH237245   0.667   0.439   0.569 -0.8009 -0.5704 -0.4809
 5229TIP3    H137246   0.734   0.419   0.635 -1.2991 -0.3623  0.0954
 5229TIP3    H237247   0.618   0.357   0.560 -0.9825 -0.4832 -0.2965
 5230TIP3   OH237248   4.297   6.317   7.974 -0.1518  0.4054  0.0140
 5230TIP3    H137249   4.256   6.403   7.979 -0.8743  0.0679  0.0042
 5230TIP3    H237250   4.265   6.270   8.051  1.4555  0.6551  0.8783
 5231TIP3   OH237251   1.427   1.757   0.008 -0.2061  0.4462 -0.4498
 5231TIP3    H137252   1.414   1.680  -0.047 -2.8785  1.2684 -1.0797
 5231TIP3    H237253   1.434   1.721   0.097  0.1298 -0.5978 -0.8769
 5232TIP3   OH237254   2.304   1.265   7.999 -0.1192 -0.4061 -0.9225
 5232TIP3    H137255   2.334   1.223   8.080  3.0318  0.1582 -1.6748
 5232TIP3    H237256   2.286   1.356   8.024 -1.2529 -0.7433 -0.4632
 5233TIP3   OH237257   2.427   0.614   6.987 -0.2010 -0.2065  0.3987
 5233TIP3    H137258   2.420   0.700   6.946 -0.5138 -2.1811 -4.3389
 5233TIP3    H237259   2.517   0.586   6.967 -0.0272 -0.9289  2.0589
 5234TIP3   OH237260   1.655   3.978   1.268  0.0419 -0.3679  0.2595
 5234TIP3    H137261   1.706   3.925   1.207  0.7658  1.4047 -0.7646
 5234TIP3    H237262   1.624   3.916   1.335  1.0866 -1.9791 -0.6934
 5235TIP3   OH237263   4.520   3.091   2.001 -0.3115  0.4817  0.0176
 5235TIP3    H137264   4.446   3.050   1.956 -2.2383 -0.3611  3.5296
 5235TIP3    H237265   4.495   3.183   2.010 -1.4497  0.0507  1.8751
 5236TIP3   OH237266   6.146   1.914   8.285  0.5902  0.0620  0.6488
 5236TIP3    H137267   6.219   1.921   8.347  0.0208  1.1804  1.2297
 5236TIP3    H237268   6.185   1.879   8.205  1.5298 -0.4631  1.3290
 5237TIP3   OH237269   4.702   6.415   2.318 -0.1730 -0.2233  0.3640
 5237TIP3    H137270   4.643   6.350   2.356 -0.9594  0.4947  0.4134
 5237TIP3    H237271   4.720   6.476   2.389  0.0157 -0.0151  0.1403
 5238TIP3   OH237272   5.218   0.032   2.069  0.0295 -0.2898  0.5013
 5238TIP3    H137273   5.313   0.030   2.073  0.1850  0.9676 -1.2836
 5238TIP3    H237274   5.192  -0.059   2.055  1.1444 -0.3954 -1.1738
 5239TIP3   OH237275   1.448   3.256   8.179 -0.0546  0.2618 -0.3908
 5239TIP3    H137276   1.357   3.235   8.158  0.2293 -0.4051 -0.9905
 5239TIP3    H237277   1.490   3.171   8.192 -0.4534  0.5066  4.2869
 5240TIP3   OH237278   3.478   5.856   7.814 -0.4152  0.2182 -0.2437
 5240TIP3    H137279   3.509   5.884   7.728 -0.7864 -1.2313 -0.8727
 5240TIP3    H237280   3.491   5.762   7.815  0.0850  0.2585  1.5123
 5241TIP3   OH237281   0.017   5.416   2.769 -0.2372 -0.1219 -0.0971
 5241TIP3    H137282   0.109   5.429   2.749 -0.3530  1.6397  0.3176
 5241TIP3    H237283   0.013   5.333   2.816  1.5017  0.8535  1.9583
 5242TIP3   OH237284   5.630   0.890   2.260 -0.2714 -0.5050 -0.0385
 5242TIP3    H137285   5.688   0.823   2.222 -0.5725 -1.4460  1.1203
 5242TIP3    H237286   5.623   0.866   2.352 -3.0339 -0.8278 -0.2514
 5243TIP3   OH237287   5.294   2.771   8.654  0.4868  0.0665  0.4300
 5243TIP3    H137288   5.336   2.778   8.739 -1.3650 -0.0895  1.4229
 5243TIP3    H237289   5.200   2.767   8.674 -0.1333  1.7137 -1.6920
 5244TIP3   OH237290   6.552   5.710   1.625 -0.1980 -0.1773  0.4654
 5244TIP3    H137291   6.629   5.727   1.571 -0.0970  0.0235  0.6729
 5244TIP3    H237292   6.489   5.777   1.598  0.3796  0.8708  1.6425
 5245TIP3   OH237293   3.421   0.902   0.830 -0.4560 -0.4862  0.7969
 5245TIP3    H137294   3.354   0.928   0.894 -0.6873 -0.5037  0.5658
 5245TIP3    H237295   3.483   0.849   0.880 -0.2381  0.1052  1.1688
 5246TIP3   OH237296   3.039   2.507   8.051  0.5489  0.3810 -0.4750
 5246TIP3    H137297   3.016   2.576   8.114  1.2258 -0.9223  1.3093
 5246TIP3    H237298   3.135   2.502   8.056  0.5226 -0.5556 -0.6966
 5247TIP3   OH237299   3.906   6.243   7.818  0.2702  0.5274  0.1016
 5247TIP3    H137300   3.844   6.227   7.890  1.1230 -0.0332  0.7400
 5247TIP3    H237301   3.934   6.333   7.831 -1.3097  1.2098 -0.9279
 5248TIP3   OH237302   0.285   0.287   8.424 -0.3597  0.1820  0.3776
 5248TIP3    H137303   0.340   0.211   8.444  0.3434  0.4483 -0.4709
 5248TIP3    H237304   0.220   0.288   8.494  0.2395 -0.5994  0.9752
 5249TIP3   OH237305   0.761   1.446   0.581 -0.4392  0.5558  0.2611
 5249TIP3    H137306   0.705   1.392   0.636 -0.9157  0.5671 -0.2083
 5249TIP3    H237307   0.734   1.536   0.598  0.6411  0.7010  1.3635
 5250TIP3   OH237308   0.200   3.212   0.103  0.1289 -0.2388 -0.4840
 5250TIP3    H137309   0.259   3.211   0.178  0.1123 -3.2134 -0.3892
 5250TIP3    H237310   0.122   3.259   0.133  0.8487  0.2090  0.7215
 5251TIP3   OH237311   5.233   3.795   1.573 -0.0579  0.6335 -0.0414
 5251TIP3    H137312   5.151   3.746   1.576  1.0832 -1.5033 -1.6269
 5251TIP3    H237313   5.258   3.805   1.665 -2.4744  2.1277  0.5425
 5252TIP3   OH237314   1.614   6.815   0.516  0.3655 -0.0032 -0.2259
 5252TIP3    H137315   1.686   6.837   0.575  2.2081 -2.6368 -1.3182
 5252TIP3    H237316   1.657   6.785   0.436 -1.7737 -3.7222 -0.2034
 5253TIP3   OH237317   4.063   5.696   0.048  0.2807  0.5085 -0.2678
 5253TIP3    H137318   4.136   5.749   0.080  0.6270 -0.7036  1.0293
 5253TIP3    H237319   4.081   5.608   0.079 -1.4514  0.0635 -0.4104
 5254TIP3   OH237320   0.223   4.118   1.077 -1.2665 -0.9439  0.8586
 5254TIP3    H137321   0.306   4.160   1.100 -1.2229 -0.1704 -0.6267
 5254TIP3    H237322   0.159   4.157   1.137 -0.9742  0.2238  0.4346
 5255TIP3   OH237323   4.620   1.381   7.486  0.6872 -0.2246 -0.1429
 5255TIP3    H137324   4.597   1.327   7.562  1.2172  0.2203  0.3489
 5255TIP3    H237325   4.715   1.392   7.492  0.5382  1.2008  0.0784
 5256TIP3   OH237326   2.650   0.183   0.019 -0.4650 -0.0340 -0.2314
 5256TIP3    H137327   2.594   0.165   0.095 -1.4142  1.6216 -0.4996
 5256TIP3    H237328   2.646   0.278   0.008  1.8664  0.0642 -0.7189
 5257TIP3   OH237329   5.481   2.482   0.268  0.5667 -0.2434 -0.2521
 5257TIP3    H137330   5.435   2.429   0.203  0.2478  0.3843 -0.5537
 5257TIP3    H237331   5.529   2.419   0.321 -0.2268 -0.8822 -0.2608
 5258TIP3   OH237332   6.728   1.090   8.329 -0.1357  0.2965  0.1618
 5258TIP3    H137333   6.777   1.166   8.359  0.6106  0.1453 -0.6195
 5258TIP3    H237334   6.678   1.122   8.254 -1.1150  0.4044  0.8397
 5259TIP3   OH237335   6.417   5.951   6.686 -0.2242 -0.1965  0.4975
 5259TIP3    H137336   6.378   6.014   6.746  0.1056  0.0047  0.5071
 5259TIP3    H237337   6.369   5.963   6.604 -3.3843 -3.1540  1.6795
 5260TIP3   OH237338   0.584   0.717   0.623  0.7554 -0.5317 -0.2259
 5260TIP3    H137339   0.568   0.624   0.609  0.6519 -0.5782  0.1771
 5260TIP3    H237340   0.502   0.750   0.660  0.2662  0.0377 -1.7607
 5261TIP3   OH237341   0.471   1.695   1.607  0.3194  0.1059  0.6145
 5261TIP3    H137342   0.533   1.745   1.660  0.3979 -0.6168  1.2303
 5261TIP3    H237343   0.524   1.662   1.534  0.7749 -0.8397  1.3500
 5262TIP3   OH237344   4.675   6.626   1.504 -0.4583 -0.2828 -0.0091
 5262TIP3    H137345   4.628   6.547   1.532  1.9616 -1.7618  0.0981
 5262TIP3    H237346   4.708   6.606   1.417  1.0855  0.1673  0.4359
 5263TIP3   OH237347   3.791   6.148   7.574 -0.6519 -0.4159  0.2278
 5263TIP3    H137348   3.829   6.201   7.645 -1.6530 -2.0474  2.0908
 5263TIP3    H237349   3.861   6.090   7.547 -0.3775 -0.0590  0.1684
 5264TIP3   OH237350   2.658   6.073   7.990  0.4941  0.2043  0.1027
 5264TIP3    H137351   2.594   6.120   8.043  1.4735  1.9824 -0.2236
 5264TIP3    H237352   2.692   6.004   8.048 -1.5640 -0.7022  0.3203
 5265TIP3   OH237353   0.436   6.100   2.447 -0.0652  0.5901  0.5844
 5265TIP3    H137354   0.405   6.059   2.366  0.4959 -0.2516  0.7885
 5265TIP3    H237355   0.361   6.151   2.477 -1.2989 -1.3994  1.0735
 5266TIP3   OH237356   5.908   1.259   8.540  0.7057 -0.0422  0.0417
 5266TIP3    H137357   5.862   1.203   8.477 -0.2207  0.6874  0.0454
 5266TIP3    H237358   5.976   1.203   8.577 -0.2117 -1.1729  0.0754
 5267TIP3   OH237359   3.374   4.856   0.104  0.2958  0.2637 -0.4397
 5267TIP3    H137360   3.319   4.882   0.178 -0.0641 -2.0667  0.1911
 5267TIP3    H237361   3.443   4.803   0.144  0.4971 -0.4587 -1.6964
 5268TIP3   OH237362   5.187   0.335   8.463  0.2953 -0.1280 -0.0541
 5268TIP3    H137363   5.159   0.359   8.375 -0.4003 -1.3281 -0.1869
 5268TIP3    H237364   5.181   0.415   8.514  0.4133  0.5125 -1.0227
 5269TIP3   OH237365   2.160   3.101   7.002 -0.0614  0.2585 -0.4519
 5269TIP3    H137366   2.067   3.104   6.977  0.0328  3.3791 -0.8759
 5269TIP3    H237367   2.206   3.136   6.926  1.3476 -0.0303  0.2411
 5270TIP3   OH237368   4.773   5.508   1.600 -0.4982  0.1830 -0.2231
 5270TIP3    H137369   4.691   5.552   1.622  1.0829  1.5579  4.1262
 5270TIP3    H237370   4.838   5.578   1.600  1.3099 -1.3606  1.5777
 5271TIP3   OH237371   0.148   3.514   1.295  0.1978  0.1399 -0.2584
 5271TIP3    H137372   0.239   3.534   1.319  0.2358  0.5133 -0.7047
 5271TIP3    H237373   0.138   3.422   1.316  1.2114 -0.3656 -1.8675
 5272TIP3   OH237374   1.947   1.341   1.870  0.1210  0.3857 -0.4404
 5272TIP3    H137375   1.877   1.406   1.877 -0.1887 -0.0207  0.3558
 5272TIP3    H237376   1.992   1.345   1.955 -0.2365 -0.8126 -0.1830
 5273TIP3   OH237377   6.797   1.913   0.048 -0.3779  0.3224 -0.2943
 5273TIP3    H137378   6.728   1.975   0.071  0.9147  2.0332 -0.8345
 5273TIP3    H237379   6.823   1.937  -0.041  0.5469 -0.6410 -0.3079
 5274TIP3   OH237380   6.292   1.364   7.694  0.2603 -0.0817  0.2462
 5274TIP3    H137381   6.263   1.386   7.605 -0.0771  2.3457  0.8728
 5274TIP3    H237382   6.296   1.269   7.696  0.8602 -0.1973 -2.5560
 5275TIP3   OH237383   0.265   4.171   0.579  0.0784 -0.4275 -0.8373
 5275TIP3    H137384   0.281   4.136   0.667 -0.3876  0.3236 -0.4440
 5275TIP3    H237385   0.252   4.094   0.524 -0.4699 -0.8841 -0.0791
 5276TIP3   OH237386   3.022   3.147   7.640 -0.4998  0.1823 -0.4634
 5276TIP3    H137387   3.009   3.080   7.573 -0.8066  0.6492 -0.8803
 5276TIP3    H237388   3.051   3.224   7.591  0.1133  0.2771  0.0401
 5277TIP3   OH237389   4.388   3.955   6.156  0.0525  0.2338  0.4066
 5277TIP3    H137390   4.442   4.009   6.213  1.0422 -0.3832  0.0813
 5277TIP3    H237391   4.443   3.879   6.136 -0.6322 -0.0140 -0.5959
 5278TIP3   OH237392   0.026   4.649   0.162 -0.9095 -0.1506  0.9378
 5278TIP3    H137393   0.070   4.644   0.247  2.3536  1.0129 -0.4957
 5278TIP3    H237394   0.066   4.579   0.110 -2.7961 -0.8010  0.2737
 5279TIP3   OH237395   5.900   6.046   1.619 -0.6652  0.4969 -0.1873
 5279TIP3    H137396   5.916   6.007   1.705 -0.7228  0.2522 -0.2859
 5279TIP3    H237397   5.813   6.015   1.595  0.1970 -1.2143 -1.2896
 5280TIP3   OH237398   6.516   0.498   6.651 -1.0220 -0.0397 -0.5997
 5280TIP3    H137399   6.478   0.454   6.575 -0.2431  0.3173 -1.1958
 5280TIP3    H237400   6.517   0.591   6.628 -0.6728  0.0601 -0.2020
 5281TIP3   OH237401   3.355   5.574   6.371 -0.3650 -0.0217 -0.8620
 5281TIP3    H137402   3.319   5.504   6.425  0.2562  0.6875  0.5114
 5281TIP3    H237403   3.279   5.624   6.343 -0.8265 -1.2726 -1.9503
 5282TIP3   OH237404   2.571   1.105   8.666 -0.1287 -0.0691  0.6307
 5282TIP3    H137405   2.525   1.040   8.719 -0.3209 -0.8042 -0.4045
 5282TIP3    H237406   2.648   1.128   8.718 -1.2048  0.5537  2.0193
 5283TIP3   OH237407   1.279   6.122   7.732  0.1988  0.3528 -0.4941
 5283TIP3    H137408   1.330   6.050   7.769  0.5891  0.6794 -0.3908
 5283TIP3    H237409   1.343   6.178   7.690 -0.3195 -0.4690 -2.4827
 5284TIP3   OH237410   2.180   3.511   1.742  0.5780  0.3256  0.0197
 5284TIP3    H137411   2.182   3.468   1.827 -3.2478 -0.5548 -0.1428
 5284TIP3    H237412   2.235   3.457   1.685  0.2942 -1.1684  1.1155
 5285TIP3   OH237413   0.138   5.982   7.384  0.0442 -0.0210 -0.0856
 5285TIP3    H137414   0.175   5.893   7.383  0.0917 -0.0921  2.3629
 5285TIP3    H237415   0.214   6.040   7.387  0.0139  0.1467 -1.7237
 5286TIP3   OH237416   4.038   3.312   1.518  0.6563 -0.4193  0.5206
 5286TIP3    H137417   3.996   3.335   1.436  0.2282  1.2053  1.1622
 5286TIP3    H237418   3.975   3.338   1.586  1.9788  0.5269  1.4369
 5287TIP3   OH237419   2.665   0.877   7.714 -0.0040 -1.1231  0.7137
 5287TIP3    H137420   2.579   0.835   7.709 -1.0579  0.9887 -0.2844
 5287TIP3    H237421   2.657   0.942   7.784  0.3327 -0.0621 -0.1918
 5288TIP3   OH237422   5.160   2.323   1.985  0.4197  0.5210  0.2945
 5288TIP3    H137423   5.138   2.338   2.077 -1.0965  0.3916 -0.0274
 5288TIP3    H237424   5.108   2.388   1.937  0.0638 -0.3726 -0.5621
 5289TIP3   OH237425   1.331   1.560   8.556 -0.9056  0.1689  0.2139
 5289TIP3    H137426   1.416   1.535   8.520  0.1887  1.4654  1.7172
 5289TIP3    H237427   1.270   1.550   8.483  0.5510 -0.6608 -0.9577
 5290TIP3   OH237428   0.657   6.401   6.664  0.6144  0.7508 -0.3429
 5290TIP3    H137429   0.573   6.359   6.644  0.8284  0.2620 -0.2341
 5290TIP3    H237430   0.703   6.404   6.580  1.8471 -2.0413  0.1102
 5291TIP3   OH237431   2.449   6.255   7.003  0.1553 -0.3445  0.1250
 5291TIP3    H137432   2.376   6.215   6.957  0.5507 -2.1359  0.9764
 5291TIP3    H237433   2.430   6.348   7.002 -1.1482 -0.5854 -1.3564
 5292TIP3   OH237434   2.138   4.184   0.283  0.9570 -0.0730 -0.4490
 5292TIP3    H137435   2.196   4.108   0.275  1.1946 -0.1082  1.2468
 5292TIP3    H237436   2.065   4.153   0.337  0.8020  0.7623 -0.1598
 5293TIP3   OH237437   3.602   4.605   7.222 -0.1676  0.2433  0.0212
 5293TIP3    H137438   3.534   4.540   7.237 -0.9221  1.1283  0.5677
 5293TIP3    H237439   3.684   4.557   7.232 -0.7065 -0.6279  0.3571
 5294TIP3   OH237440   0.114   2.967   7.132  0.3470 -0.1808 -0.3655
 5294TIP3    H137441   0.094   2.888   7.083  1.9276 -2.0646  1.7576
 5294TIP3    H237442   0.029   3.006   7.152 -0.5512 -1.8248 -0.7773
 5295TIP3   OH237443   5.919   3.037   7.423  0.6997  0.3831 -0.3296
 5295TIP3    H137444   5.915   3.011   7.331  1.2562 -0.3223 -0.1612
 5295TIP3    H237445   5.851   2.985   7.466 -0.0011  1.1840 -0.4392
 5296TIP3   OH237446   0.182   2.970   1.129 -0.1467 -0.1749 -0.3552
 5296TIP3    H137447   0.148   2.970   1.039  1.8193 -1.6332 -1.1622
 5296TIP3    H237448   0.149   2.889   1.167 -0.8589  0.3733  0.2147
 5297TIP3   OH237449   3.201   2.706   7.875 -0.3195  0.0495 -0.1503
 5297TIP3    H137450   3.179   2.633   7.818 -2.6202  0.3539  0.2775
 5297TIP3    H237451   3.157   2.781   7.837 -1.8701  0.2800  1.8949
 5298TIP3   OH237452   1.521   3.800   1.508 -0.2142 -0.1617  0.3011
 5298TIP3    H137453   1.443   3.843   1.544  0.3953  0.1675  1.2580
 5298TIP3    H237454   1.548   3.738   1.576 -1.7813 -3.0497 -1.5067
 5299TIP3   OH237455   3.073   2.698   0.224 -0.2575  0.4192 -0.0191
 5299TIP3    H137456   3.043   2.610   0.244  2.3519 -0.5445 -0.0007
 5299TIP3    H237457   3.164   2.700   0.252 -0.3730  3.3463  0.5317
 5300TIP3   OH237458   0.693   1.143   2.056  0.4561  0.2125  0.0905
 5300TIP3    H137459   0.641   1.064   2.041 -0.3691  0.5291  1.1405
 5300TIP3    H237460   0.657   1.180   2.137  1.9564  0.7501  0.5451
 5301TIP3   OH237461   0.867   0.151   2.327  0.2952  0.2394 -0.4119
 5301TIP3    H137462   0.890   0.244   2.332 -1.0383  0.5298  2.0424
 5301TIP3    H237463   0.789   0.143   2.381  0.5884 -2.3896 -0.2586
 5302TIP3   OH237464   0.287   2.057   1.012  0.4987 -0.8903 -0.3651
 5302TIP3    H137465   0.322   2.129   1.064  0.6038 -0.7800 -0.5867
 5302TIP3    H237466   0.237   2.004   1.074 -1.0824  0.3478 -0.5188
 5303TIP3   OH237467   6.773   3.280   1.882  0.0455 -0.0157  0.4380
 5303TIP3    H137468   6.839   3.217   1.912  0.3319  0.5678  1.0797
 5303TIP3    H237469   6.770   3.346   1.952 -1.3364 -0.1194  0.4967
 5304TIP3   OH237470   1.553   4.274   6.832  0.1571 -0.2738  0.0821
 5304TIP3    H137471   1.639   4.317   6.838 -0.1716  0.1749  3.6390
 5304TIP3    H237472   1.568   4.200   6.773  2.8273  0.1622  0.0686
 5305TIP3   OH237473   4.869   3.226   7.505  0.6783  0.3777  0.0295
 5305TIP3    H137474   4.775   3.240   7.519  0.4154 -0.4955 -0.7482
 5305TIP3    H237475   4.884   3.136   7.535  1.5670  0.9909  1.5015
 5306TIP3   OH237476   2.783   1.220   0.086  0.4754  0.4735  0.4173
 5306TIP3    H137477   2.848   1.163   0.045  0.0846 -0.8031  1.5237
 5306TIP3    H237478   2.833   1.271   0.151  0.4121 -0.4120  1.1743
 5307TIP3   OH237479   1.516   1.445   1.395 -0.1002 -0.3092 -0.2099
 5307TIP3    H137480   1.503   1.374   1.458 -2.2717  0.4916  0.3477
 5307TIP3    H237481   1.578   1.504   1.438 -0.5044 -0.4567  0.6085
 5308TIP3   OH237482   5.443   5.429   0.821 -0.0012 -0.1127 -0.2640
 5308TIP3    H137483   5.368   5.415   0.878 -0.4314 -0.0906 -0.8123
 5308TIP3    H237484   5.491   5.346   0.823  1.4420  0.6692  2.1577
 5309TIP3   OH237485   6.724   6.180   1.726  0.3876 -0.2538  0.2483
 5309TIP3    H137486   6.791   6.117   1.752  1.1433  0.7367  0.7820
 5309TIP3    H237487   6.733   6.186   1.630  0.3946 -0.8568  0.2111
 5310TIP3   OH237488   5.354   5.502   2.130 -0.0674  0.0822 -0.6621
 5310TIP3    H137489   5.293   5.478   2.199  2.0481  1.2173  1.7733
 5310TIP3    H237490   5.416   5.428   2.126  0.8540  0.7970 -0.0177
 5311TIP3   OH237491   5.193   1.466   2.091 -0.1977  0.1904 -0.2435
 5311TIP3    H137492   5.223   1.522   2.162 -0.4383  1.1586 -0.8847
 5311TIP3    H237493   5.176   1.382   2.132 -1.3639  1.0223  1.0503
 5312TIP3   OH237494   6.090   4.107   1.001 -0.0727 -0.3041 -0.2434
 5312TIP3    H137495   6.062   4.035   1.057 -0.5969 -0.7620 -1.0942
 5312TIP3    H237496   6.053   4.089   0.915  0.0174  0.8333 -0.5489
 5313TIP3   OH237497   3.134   5.778   7.320 -0.1751 -0.2528 -0.4284
 5313TIP3    H137498   3.092   5.695   7.298 -0.6763  0.0241 -0.5325
 5313TIP3    H237499   3.207   5.754   7.377 -0.2229 -0.7775 -0.5855
 5314TIP3   OH237500   1.629   3.352   8.373  0.1745 -0.0665  0.8275
 5314TIP3    H137501   1.591   3.439   8.362  0.4884  0.0748  0.8628
 5314TIP3    H237502   1.587   3.299   8.305  0.7803  0.3714  0.0927
 5315TIP3   OH237503   2.967   3.465   7.000  0.1769 -0.3391 -0.2305
 5315TIP3    H137504   3.002   3.395   7.056 -0.5980 -0.2670  0.3715
 5315TIP3    H237505   2.872   3.460   7.014  0.1245  0.9408 -0.0443
 5316TIP3   OH237506   1.950   0.832   1.989  0.1457 -0.7027  0.5370
 5316TIP3    H137507   1.935   0.742   2.019  0.5801 -0.7645  0.5723
 5316TIP3    H237508   2.029   0.827   1.937 -0.6764 -0.6158 -0.7595
 5317TIP3   OH237509   0.957   4.470   2.595  0.0771 -0.2186 -0.1303
 5317TIP3    H137510   0.872   4.455   2.635 -0.3066 -0.4171 -1.0089
 5317TIP3    H237511   0.990   4.383   2.572  1.2694 -0.2912  1.6868
 5318TIP3   OH237512   1.301   4.134   7.813  0.0354 -0.2620  0.6291
 5318TIP3    H137513   1.390   4.166   7.797 -1.1082  1.8857 -2.2799
 5318TIP3    H237514   1.281   4.080   7.737 -1.6958  0.7262  0.3234
 5319TIP3   OH237515   1.272   0.954   1.891  0.3887  0.7968  0.2189
 5319TIP3    H137516   1.299   0.953   1.800  1.2315 -1.9360  0.3944
 5319TIP3    H237517   1.187   0.911   1.892  0.5516  0.4639  0.7271
 5320TIP3   OH237518   1.309   2.760   7.601  0.2678 -0.2686 -0.7905
 5320TIP3    H137519   1.247   2.716   7.543 -0.2289 -2.0441  0.9639
 5320TIP3    H237520   1.394   2.748   7.559 -0.0184 -1.9214 -0.9882
 5321TIP3   OH237521   3.927   4.793   8.604 -0.2339  0.6529  0.1119
 5321TIP3    H137522   3.873   4.784   8.526 -0.1301  3.1598 -0.3506
 5321TIP3    H237523   3.866   4.789   8.677 -0.3488 -1.5714 -0.0655
 5322TIP3   OH237524   5.228   3.811   2.275  0.1021 -1.1540 -0.1930
 5322TIP3    H137525   5.275   3.859   2.207 -0.8317  0.5695  0.3116
 5322TIP3    H237526   5.144   3.788   2.236 -0.3616 -0.3289  0.2983
 5323TIP3   OH237527   5.104   5.707   6.561  0.4703  0.0632  0.1295
 5323TIP3    H137528   5.102   5.618   6.598  3.2069  0.6098  1.9137
 5323TIP3    H237529   5.031   5.752   6.603 -1.3207 -1.4173 -1.2307
 5324TIP3   OH237530   4.044   0.948   8.250  0.0928 -0.2827  0.3608
 5324TIP3    H137531   3.954   0.948   8.283  0.3011 -0.0843  0.9335
 5324TIP3    H237532   4.092   0.892   8.311  0.2146 -0.9706 -0.3527
 5325TIP3   OH237533   3.936   2.014   6.711  0.0786 -0.1470  0.1082
 5325TIP3    H137534   3.877   1.983   6.643  1.1659  2.6368 -2.3072
 5325TIP3    H237535   3.880   2.062   6.772 -0.6214 -0.6952 -0.0964
 5326TIP3   OH237536   5.087   4.719   0.910  0.0221  0.7926 -0.2012
 5326TIP3    H137537   5.006   4.710   0.860 -0.6066 -1.6729  1.1103
 5326TIP3    H237538   5.059   4.749   0.996  0.7769  2.0307 -0.3613
 5327TIP3   OH237539   3.223   1.689   0.056  0.2825  0.1505 -0.1663
 5327TIP3    H137540   3.149   1.687   0.117  1.3618 -0.2007  1.1754
 5327TIP3    H237541   3.205   1.765   0.000 -1.5160 -0.4262 -0.4508
 5328TIP3   OH237542   5.035   0.054   0.647 -0.4126  0.3598  0.5600
 5328TIP3    H137543   5.124   0.037   0.617 -0.5027  0.4942  0.2183
 5328TIP3    H237544   4.991   0.094   0.572 -0.8629 -0.0348  0.6091
 5329TIP3   OH237545   2.456   1.087   2.160  0.4650  0.0565  0.1387
 5329TIP3    H137546   2.484   0.997   2.145  0.2147 -0.0049  0.0258
 5329TIP3    H237547   2.397   1.081   2.236  1.5107  0.3243  0.9984
 5330TIP3   OH237548   3.546   1.036   7.662 -0.3546  0.0155 -0.1407
 5330TIP3    H137549   3.613   1.024   7.730  0.2911 -1.9581 -1.0446
 5330TIP3    H237550   3.557   1.127   7.633  1.9616 -0.2303 -0.2347
 5331TIP3   OH237551   2.821   5.077   6.586  0.2580  0.4468  0.5677
 5331TIP3    H137552   2.786   5.051   6.501  0.4546 -1.0655  0.9123
 5331TIP3    H237553   2.913   5.053   6.582  0.6711  1.9736  0.6061
 5332TIP3   OH237554   4.861   2.279   2.133  0.2401  0.2299  0.0365
 5332TIP3    H137555   4.807   2.202   2.150 -0.0984  0.8539  2.0754
 5332TIP3    H237556   4.900   2.300   2.218  0.5599  2.1283 -0.5362
 5333TIP3   OH237557   4.408   0.898   7.844  0.2411  0.1244  0.1189
 5333TIP3    H137558   4.433   0.966   7.907  0.1849 -0.4565  0.7826
 5333TIP3    H237559   4.323   0.867   7.875  0.8295 -1.1153  0.5704
 5334TIP3   OH237560   5.025   3.316   1.121 -0.4594  0.1190  0.1939
 5334TIP3    H137561   5.036   3.228   1.086  2.6098  0.7018 -0.5848
 5334TIP3    H237562   4.930   3.330   1.124 -1.0562 -3.3322  0.7964
 5335TIP3   OH237563   5.855   6.147   0.172  0.1100 -0.4827  0.0983
 5335TIP3    H137564   5.913   6.083   0.131  1.4268  0.2354  0.7605
 5335TIP3    H237565   5.767   6.112   0.160  0.7256 -1.8870 -0.4547
 5336TIP3   OH237566   6.198   1.336   1.527 -0.2819 -0.3389 -0.2172
 5336TIP3    H137567   6.102   1.334   1.535 -0.5386 -0.3201 -2.5616
 5336TIP3    H237568   6.228   1.265   1.583 -1.7408 -0.8319 -0.0135
 5337TIP3   OH237569   0.380   2.671   8.691  0.3714 -0.0254  0.4428
 5337TIP3    H137570   0.380   2.731   8.766 -0.5225 -0.2876  0.6587
 5337TIP3    H237571   0.464   2.688   8.648  0.0391  1.5420  0.3570
 5338TIP3   OH237572   2.794   0.500   8.378  0.2978 -1.0143  0.7662
 5338TIP3    H137573   2.888   0.521   8.376 -0.1481  1.0697 -0.8251
 5338TIP3    H237574   2.788   0.415   8.333  1.3000 -0.5607 -0.2721
 5339TIP3   OH237575   1.665   0.900   8.462  0.0878  0.1067  0.2866
 5339TIP3    H137576   1.591   0.840   8.459 -0.8360  1.1124  1.7584
 5339TIP3    H237577   1.653   0.956   8.384  0.3814 -0.9253 -0.5181
 5340TIP3   OH237578   6.753   5.792   6.570 -0.0995 -0.5055 -0.0978
 5340TIP3    H137579   6.807   5.721   6.602 -0.0440  0.4825  2.2016
 5340TIP3    H237580   6.805   5.871   6.586 -2.1695  0.4906  2.3768
 5341TIP3   OH237581   5.361   4.747   7.239  0.0829  0.1056  0.3450
 5341TIP3    H137582   5.343   4.771   7.330  1.7895  1.4553  0.3881
 5341TIP3    H237583   5.457   4.749   7.232 -0.0021 -0.2637 -1.4097
 5342TIP3   OH237584   1.769   6.211   1.387  0.0765  0.2048  0.0567
 5342TIP3    H137585   1.689   6.172   1.422 -0.0949  0.7353  0.2612
 5342TIP3    H237586   1.837   6.147   1.405 -0.0451  0.3777  1.1743
 5343TIP3   OH237587   2.065   4.745   8.138 -0.0113  0.6333 -0.1730
 5343TIP3    H137588   2.154   4.770   8.114  0.5071 -1.2368 -0.3223
 5343TIP3    H237589   2.069   4.730   8.233 -0.3494  1.2191 -0.0607
 5344TIP3   OH237590   0.413   6.683   6.881 -0.3842 -0.0417  0.2986
 5344TIP3    H137591   0.424   6.733   6.800 -0.2129  0.7083  0.7697
 5344TIP3    H237592   0.348   6.732   6.931  0.2337  0.0595  1.0340
 5345TIP3   OH237593   6.728   5.022   0.846 -0.1119  0.0821  0.4207
 5345TIP3    H137594   6.653   4.974   0.882 -0.2011 -0.8545 -0.9433
 5345TIP3    H237595   6.720   5.012   0.751  0.9771  1.1534  0.1948
 5346TIP3   OH237596   2.505   2.045   6.825  0.0586 -0.4780 -0.4698
 5346TIP3    H137597   2.479   2.121   6.876  1.0149 -1.1424  1.0687
 5346TIP3    H237598   2.595   2.065   6.796  0.4672 -1.1634  0.2840
 5347TIP3   OH237599   0.703   0.618   1.979  0.3863 -0.1668  0.4107
 5347TIP3    H137600   0.770   0.559   1.944 -1.6483 -1.5663 -1.4206
 5347TIP3    H237601   0.722   0.702   1.938  0.6733 -0.7237 -0.6507
 5348TIP3   OH237602   6.266   2.963   1.798  0.9518 -0.3074  0.2247
 5348TIP3    H137603   6.205   2.975   1.725 -0.4248  1.6443  1.6195
 5348TIP3    H237604   6.324   3.039   1.794  0.5343  0.0860  1.4636
 5349TIP3   OH237605   6.279   3.597   8.553  0.2057  0.4266 -0.3294
 5349TIP3    H137606   6.194   3.638   8.572 -0.9497 -0.8948 -2.3240
 5349TIP3    H237607   6.295   3.539   8.628 -0.3089  1.1452  0.3577
 5350TIP3   OH237608   2.303   5.175   7.005  0.2627  0.1812 -0.1844
 5350TIP3    H137609   2.232   5.235   7.027 -1.5606 -0.4569 -3.5780
 5350TIP3    H237610   2.364   5.228   6.953  0.8088  0.0299  0.2845
 5351TIP3   OH237611   4.130   0.747   1.652  0.7344 -0.5349 -0.0347
 5351TIP3    H137612   4.107   0.748   1.745 -0.4230 -1.0060 -0.3067
 5351TIP3    H237613   4.072   0.811   1.612  0.2975 -1.2958 -0.6398
 5352TIP3   OH237614   1.661   2.979   0.894  0.2579  0.1121  0.4654
 5352TIP3    H137615   1.699   2.934   0.818 -1.4041 -1.8530  0.7198
 5352TIP3    H237616   1.592   3.033   0.856  0.3426  0.2040  0.4418
 5353TIP3   OH237617   1.582   1.409   8.181 -0.0301  0.1906 -0.5070
 5353TIP3    H137618   1.656   1.455   8.221  1.3010 -1.1258 -1.3582
 5353TIP3    H237619   1.538   1.367   8.255 -0.1710  1.2677  0.0495
 5354TIP3   OH237620   5.628   6.009   0.191  0.2127 -0.0022 -0.9794
 5354TIP3    H137621   5.662   5.924   0.161  1.9047  0.2198  0.1574
 5354TIP3    H237622   5.547   5.987   0.237  0.3984 -0.9555 -1.0812
 5355TIP3   OH237623   5.344   5.838   1.696  0.1691  0.1347  0.1312
 5355TIP3    H137624   5.405   5.821   1.624 -2.4457 -1.9842 -1.7287
 5355TIP3    H237625   5.397   5.887   1.760  3.4683 -0.5808 -1.8126
 5356TIP3   OH237626   3.289   0.079   0.916  0.1557  0.3436  0.4511
 5356TIP3    H137627   3.337  -0.002   0.931  0.5569  0.1234 -1.6773
 5356TIP3    H237628   3.226   0.057   0.847 -0.7709  1.4787  0.8898
 5357TIP3   OH237629   2.664   1.212   7.333 -0.3844 -0.4073 -0.0235
 5357TIP3    H137630   2.733   1.242   7.392 -0.1520  0.1908 -0.5936
 5357TIP3    H237631   2.675   1.117   7.330 -0.6711 -0.4899  1.2246
 5358TIP3   OH237632   2.607   3.518   6.104 -0.2370  0.6182 -0.2326
 5358TIP3    H137633   2.684   3.515   6.160 -1.3823  1.5347  1.4946
 5358TIP3    H237634   2.533   3.511   6.165 -1.5350 -0.6759 -1.8504
 5359TIP3   OH237635   5.442   6.754   0.215  0.3854  0.2048  0.2828
 5359TIP3    H137636   5.395   6.674   0.238  0.2483  0.0247 -0.5883
 5359TIP3    H237637   5.405   6.821   0.273 -1.0387  0.0831 -0.4378
 5360TIP3   OH237638   0.608   5.405   1.594 -0.0031  0.5041 -0.9423
 5360TIP3    H137639   0.690   5.387   1.550 -0.3025 -0.5399 -1.1067
 5360TIP3    H237640   0.616   5.360   1.678 -0.3779  0.4447 -0.9366
 5361TIP3   OH237641   6.500   2.034   8.244 -0.0273 -0.5660  0.3567
 5361TIP3    H137642   6.559   1.989   8.184  0.9858  0.4928  0.5292
 5361TIP3    H237643   6.429   2.067   8.189  1.7065  1.8063 -0.5998
 5362TIP3   OH237644   4.552   4.417   8.272 -0.3701 -0.0481  0.6101
 5362TIP3    H137645   4.480   4.374   8.318  0.1905  0.3509  1.9072
 5362TIP3    H237646   4.590   4.349   8.216 -1.5618 -0.3356  0.1190
 5363TIP3   OH237647   5.546   1.378   8.316  0.1827 -0.5165  0.2165
 5363TIP3    H137648   5.533   1.415   8.229  1.2391 -2.4365 -0.8020
 5363TIP3    H237649   5.458   1.354   8.346 -0.1434 -0.1818 -0.4647
 5364TIP3   OH237650   5.551   5.967   2.332 -0.4470 -0.4863 -0.5440
 5364TIP3    H137651   5.510   5.905   2.392  0.3508 -1.4182 -0.9456
 5364TIP3    H237652   5.645   5.963   2.353 -0.4486  1.1538 -0.0539
 5365TIP3   OH237653   0.391   6.036   6.910  0.5115 -0.0508 -0.1809
 5365TIP3    H137654   0.424   6.022   6.821  1.1480  0.1443  0.0152
 5365TIP3    H237655   0.314   5.980   6.916 -0.0757  0.6101 -1.1596
 5366TIP3   OH237656   1.731   1.568   8.343  0.1891 -0.4094 -0.1669
 5366TIP3    H137657   1.725   1.663   8.333 -0.1206 -0.4865 -0.7649
 5366TIP3    H237658   1.823   1.548   8.328  0.1630 -0.2587 -0.5221
 5367TIP3   OH237659   3.002   2.218   1.465  0.5073 -0.1998  0.4593
 5367TIP3    H137660   2.939   2.289   1.477 -1.7585 -2.0906  0.4002
 5367TIP3    H237661   3.038   2.234   1.377 -0.8878  0.2048 -0.0675
 5368TIP3   OH237662   3.057   4.862   8.392  0.1784  0.5829 -0.6767
 5368TIP3    H137663   2.989   4.901   8.338 -1.2405 -1.8287 -0.7806
 5368TIP3    H237664   3.096   4.794   8.336  2.1049  1.3402 -0.3145
 5369TIP3   OH237665   2.235   5.417   7.754 -0.2833  0.3724 -0.7885
 5369TIP3    H137666   2.154   5.381   7.790  0.6928 -1.6707 -0.4783
 5369TIP3    H237667   2.217   5.510   7.742 -1.6931  0.5550  2.0524
 5370TIP3   OH237668   6.204   2.578   8.689  0.4945 -0.2291  0.1327
 5370TIP3    H137669   6.157   2.556   8.609  1.5802  2.0231 -1.2286
 5370TIP3    H237670   6.137   2.611   8.749 -0.1964 -0.9467 -0.2308
 5371TIP3   OH237671   1.201   1.349   2.283 -0.1307 -0.0084 -0.3079
 5371TIP3    H137672   1.231   1.305   2.362  1.5426 -1.5928 -1.7524
 5371TIP3    H237673   1.280   1.366   2.232 -1.2785 -0.6294 -2.4416
 5372TIP3   OH237674   0.299   6.463   2.663 -0.2647  0.2632 -0.3261
 5372TIP3    H137675   0.267   6.376   2.637 -0.1222  0.0282  0.2661
 5372TIP3    H237676   0.368   6.445   2.726 -0.6361  0.8203  0.2500
 5373TIP3   OH237677   2.771   0.149   2.679  0.1685  0.4469  0.4853
 5373TIP3    H137678   2.813   0.134   2.594  1.5027  0.8320  1.0569
 5373TIP3    H237679   2.684   0.111   2.669  1.2672 -2.1358 -0.1200
 5374TIP3   OH237680   6.631   2.853   0.107 -0.5917  0.1539 -0.2705
 5374TIP3    H137681   6.688   2.921   0.143 -0.2834 -0.5784  0.6695
 5374TIP3    H237682   6.614   2.881   0.017 -1.4569  2.1035  0.4504
 5375TIP3   OH237683   1.057   2.427   1.231 -0.4759 -0.2578 -1.1587
 5375TIP3    H137684   1.034   2.351   1.285  1.5644 -0.8518 -1.0381
 5375TIP3    H237685   1.069   2.390   1.143 -1.3441  0.2762 -1.5121
 5376TIP3   OH237686   2.298   5.554   8.672  0.5308 -0.1341  0.0179
 5376TIP3    H137687   2.216   5.600   8.688  0.5745  0.2928 -0.9159
 5376TIP3    H237688   2.271   5.466   8.645  0.4210 -0.3549  0.8185
 5377TIP3   OH237689   4.095   4.335   2.050 -0.2810 -0.3772  0.7420
 5377TIP3    H137690   4.122   4.263   2.107 -0.0568 -1.8737 -1.1532
 5377TIP3    H237691   4.169   4.396   2.052 -0.2070 -0.4953  1.8928
 5378TIP3   OH237692   5.672   0.634   1.137 -0.0311  0.0547  0.1363
 5378TIP3    H137693   5.639   0.613   1.224 -1.8884  2.7970  0.1969
 5378TIP3    H237694   5.622   0.578   1.078  0.3123 -0.8777  0.7112
 5379TIP3   OH237695   2.154   3.641   0.088  0.2097 -0.1711 -0.0172
 5379TIP3    H137696   2.187   3.649   0.178  0.5100  1.0959 -0.2248
 5379TIP3    H237697   2.060   3.657   0.096 -0.0443 -1.5901  0.2589
 5380TIP3   OH237698   2.613   5.927   7.018 -0.0866 -0.2260 -0.2778
 5380TIP3    H137699   2.585   5.933   7.109 -1.0272  2.3060 -0.6604
 5380TIP3    H237700   2.696   5.880   7.021 -0.0681 -0.1446  1.8751
 5381TIP3   OH237701   5.487   6.800   2.064 -0.0745 -0.5046  0.6654
 5381TIP3    H137702   5.575   6.798   2.102 -0.4595 -0.3101  1.5956
 5381TIP3    H237703   5.485   6.880   2.011  0.5558 -0.9211 -0.0072
 5382TIP3   OH237704   4.536   4.188   1.275  0.0390 -0.0047 -0.1194
 5382TIP3    H137705   4.543   4.264   1.333 -2.9119 -0.6059  1.2262
 5382TIP3    H237706   4.546   4.112   1.332 -0.5197 -0.6132 -0.8006
 5383TIP3   OH237707   5.953   5.232   0.407 -0.3760  0.1824  0.4731
 5383TIP3    H137708   5.862   5.209   0.424 -0.7015  0.8177 -0.3342
 5383TIP3    H237709   5.952   5.327   0.392  0.1894  0.0016 -0.9107
 5384TIP3   OH237710   1.083   5.285   0.911  0.4212  0.4116 -0.3052
 5384TIP3    H137711   1.168   5.254   0.878 -0.1250 -0.2816 -1.0964
 5384TIP3    H237712   1.025   5.209   0.905 -0.4655  1.0841 -0.5226
 5385TIP3   OH237713   3.081   1.930   7.679 -0.0375 -0.2882 -0.6770
 5385TIP3    H137714   3.117   2.017   7.663 -0.6837  0.0381 -0.4010
 5385TIP3    H237715   3.156   1.871   7.671  0.3789  0.2766 -1.0031
 5386TIP3   OH237716   3.065   5.480   1.292  0.5218 -0.3809  0.0713
 5386TIP3    H137717   3.135   5.528   1.336  1.5167 -1.6428 -0.1054
 5386TIP3    H237718   3.076   5.389   1.320 -0.8833 -0.6543 -0.1727
 5387TIP3   OH237719   5.573   4.350   7.251  0.2790  0.3388 -0.5306
 5387TIP3    H137720   5.641   4.411   7.225 -0.1575  0.6089 -1.0483
 5387TIP3    H237721   5.610   4.263   7.234  1.2856  0.4011  1.1359
 5388TIP3   OH237722   3.333   3.561   0.727 -0.2723 -0.8078 -0.5151
 5388TIP3    H137723   3.317   3.544   0.634 -1.5161 -2.0436 -0.1158
 5388TIP3    H237724   3.383   3.642   0.729  0.2042 -1.0215 -2.2852
 5389TIP3   OH237725   5.735   4.658   2.161 -0.7678 -0.1050  0.5793
 5389TIP3    H137726   5.656   4.712   2.159 -0.5827  0.1746 -2.1499
 5389TIP3    H237727   5.805   4.716   2.134 -0.4365 -1.4507 -1.6892
 5390TIP3   OH237728   4.080   0.326   8.516  0.0392 -0.2465  0.1270
 5390TIP3    H137729   4.107   0.358   8.602 -3.0228 -1.4560  1.7132
 5390TIP3    H237730   4.091   0.401   8.458 -0.3666  1.5224  2.1914
 5391TIP3   OH237731   5.647   2.099   1.356  0.1381 -0.1109  0.2632
 5391TIP3    H137732   5.721   2.090   1.295  0.3117  1.6697  0.1694
 5391TIP3    H237733   5.686   2.095   1.443  0.4373  1.2919  0.2124
 5392TIP3   OH237734   4.785   0.290   7.598 -0.3525  0.1050  0.4445
 5392TIP3    H137735   4.747   0.337   7.673 -0.2226 -0.5239  0.9129
 5392TIP3    H237736   4.866   0.253   7.631  0.0255  0.3436 -0.1926
 5393TIP3   OH237737   3.980   1.966   1.824 -0.6245 -0.5469  0.0313
 5393TIP3    H137738   3.930   1.914   1.761  1.2951 -1.7304 -0.5878
 5393TIP3    H237739   4.042   1.905   1.862 -0.8994  0.4392  2.2076
 5394TIP3   OH237740   5.439   5.106   1.567 -0.8746 -0.6078  0.4793
 5394TIP3    H137741   5.366   5.155   1.528 -1.9467 -1.1722  1.7076
 5394TIP3    H237742   5.484   5.067   1.492 -0.8160  1.0983 -0.4266
 5395TIP3   OH237743   5.564   2.962   1.136  1.0592 -0.0929 -0.2436
 5395TIP3    H137744   5.523   2.876   1.145 -0.4427  0.5618 -0.3789
 5395TIP3    H237745   5.622   2.954   1.061  1.1233 -1.0479 -0.1077
 5396TIP3   OH237746   0.449   1.286   7.581 -0.3790 -0.2711  0.0126
 5396TIP3    H137747   0.376   1.232   7.610 -1.6912  0.6424 -1.4105
 5396TIP3    H237748   0.430   1.373   7.615 -0.2059  0.0713 -0.7357
 5397TIP3   OH237749   2.486   1.585   7.547 -0.1483  0.4198  0.0791
 5397TIP3    H137750   2.419   1.516   7.541  0.1615  0.1337 -0.0921
 5397TIP3    H237751   2.544   1.568   7.473  1.1107 -0.3784  1.2181
 5398TIP3   OH237752   4.852   5.881   0.282  0.0348  0.7088 -0.5925
 5398TIP3    H137753   4.940   5.868   0.316  0.7011 -0.8815 -2.7195
 5398TIP3    H237754   4.795   5.842   0.349  1.1235 -0.2899 -0.2209
 5399TIP3   OH237755   6.328   0.549   2.466  0.0169  0.6199  0.3652
 5399TIP3    H137756   6.258   0.491   2.496  0.7047  0.5375  1.8904
 5399TIP3    H237757   6.400   0.534   2.527  1.1415  1.1948 -0.7697
 5400TIP3   OH237758   5.443   2.147   7.287 -0.1027  0.2776 -0.5148
 5400TIP3    H137759   5.430   2.224   7.231 -2.2693 -0.5205 -1.2418
 5400TIP3    H237760   5.520   2.168   7.339  1.1380  1.7053 -2.7387
 5401TIP3   OH237761   5.879   3.468   0.688  0.6127 -0.0638  0.2703
 5401TIP3    H137762   5.955   3.508   0.646  2.0058 -1.6122  1.1996
 5401TIP3    H237763   5.914   3.392   0.734 -1.2341  0.1400  2.1714
 5402TIP3   OH237764   1.985   4.660   0.478  0.8874 -0.2294 -0.1090
 5402TIP3    H137765   1.971   4.676   0.384 -0.2428 -3.2995 -0.5847
 5402TIP3    H237766   2.073   4.623   0.483  1.3644  0.9173  0.2218
 5403TIP3   OH237767   1.135   1.419   0.878  0.2513  0.0692 -0.6272
 5403TIP3    H137768   1.083   1.339   0.867 -1.0768  0.8451 -0.2464
 5403TIP3    H237769   1.078   1.488   0.844  0.9325  0.9960  0.0935
 5404TIP3   OH237770   1.827   4.657   8.016 -0.7228 -0.3924  0.4103
 5404TIP3    H137771   1.901   4.706   8.052 -1.4839  1.5086 -0.4426
 5404TIP3    H237772   1.751   4.710   8.037 -1.4656 -0.5244 -1.6586
 5405TIP3   OH237773   1.839   5.581   0.152 -0.3520 -0.0003  0.2904
 5405TIP3    H137774   1.881   5.496   0.166  0.7838  0.5610  0.4130
 5405TIP3    H237775   1.911   5.644   0.155 -1.2478  1.0366  0.8411
 5406TIP3   OH237776   1.773   3.760   1.132  0.2769 -0.0936 -0.0773
 5406TIP3    H137777   1.702   3.696   1.138 -0.5818  0.9318  1.3838
 5406TIP3    H237778   1.794   3.763   1.039 -1.6953 -0.3329 -0.5791
 5407TIP3   OH237779   1.073   0.267   0.950  0.3855  0.1902 -0.2325
 5407TIP3    H137780   1.130   0.325   0.900  0.3008 -0.5492 -1.2140
 5407TIP3    H237781   1.072   0.185   0.901 -3.1087  0.7923 -1.4489
 5408TIP3   OH237782   1.120   4.759   6.464  0.3503  0.4211 -0.2402
 5408TIP3    H137783   1.034   4.717   6.470 -0.2374  1.1311 -2.5462
 5408TIP3    H237784   1.115   4.832   6.525 -1.2718  1.2940 -1.3320
 5409TIP3   OH237785   6.437   6.503   7.573 -0.4698 -0.1040 -0.1553
 5409TIP3    H137786   6.473   6.573   7.628 -0.3050 -0.8376  0.6971
 5409TIP3    H237787   6.351   6.536   7.546 -0.9092 -0.0499  1.2229
 5410TIP3   OH237788   3.045   2.530   1.743 -0.4541  0.7716 -0.1888
 5410TIP3    H137789   3.136   2.515   1.768 -1.0829 -0.1955  1.6407
 5410TIP3    H237790   3.051   2.565   1.654  1.6760  0.3265 -0.2801
 5411TIP3   OH237791   4.451   3.660   2.354 -0.3166 -0.1008  0.5052
 5411TIP3    H137792   4.520   3.614   2.306 -0.2489  1.1210 -0.6120
 5411TIP3    H237793   4.499   3.720   2.413 -0.4189 -0.5431  1.0484
 5412TIP3   OH237794   5.873   6.174   7.324  0.2395 -0.1155  0.1632
 5412TIP3    H137795   5.914   6.101   7.370 -0.9834 -0.2332  1.0927
 5412TIP3    H237796   5.786   6.182   7.363 -0.8914 -0.2450 -2.1089
 5413TIP3   OH237797   5.997   3.489   7.264 -0.5237 -0.1880  0.2735
 5413TIP3    H137798   5.932   3.424   7.290 -1.9882  1.9102  2.1183
 5413TIP3    H237799   6.068   3.479   7.328 -1.1153  0.5083  1.0642
 5414TIP3   OH237800   0.305   4.024   0.799 -0.1539 -0.4066  0.1391
 5414TIP3    H137801   0.224   4.073   0.813 -0.1573 -0.1219 -0.8552
 5414TIP3    H237802   0.294   3.945   0.853 -0.3298  0.4533  1.4109
 5415TIP3   OH237803   1.355   6.106   1.468 -0.3334  0.0769  0.2424
 5415TIP3    H137804   1.287   6.173   1.476 -1.0622 -0.3121 -1.8905
 5415TIP3    H237805   1.340   6.068   1.381  2.1138 -0.5883  0.0438
 5416TIP3   OH237806   0.320   3.442   8.538 -0.2967  0.1880 -0.1825
 5416TIP3    H137807   0.351   3.353   8.521 -1.6105 -0.4305  0.5131
 5416TIP3    H237808   0.228   3.432   8.559 -0.2932  1.6347  0.6799
 5417TIP3   OH237809   0.665   1.820   0.093 -0.7375 -0.1532  0.5862
 5417TIP3    H137810   0.711   1.903   0.100  1.7643 -1.4864  1.3193
 5417TIP3    H237811   0.616   1.812   0.175 -0.9467  0.5546  0.5315
 5418TIP3   OH237812   1.555   2.499   7.198 -0.2763  0.0072 -0.3715
 5418TIP3    H137813   1.542   2.482   7.292 -0.0168  0.1327 -0.3110
 5418TIP3    H237814   1.612   2.575   7.195  0.0474 -0.2395 -0.6256
 5419TIP3   OH237815   5.928   6.203   8.268  0.1614 -0.0458  0.2582
 5419TIP3    H137816   5.932   6.135   8.201  1.8674 -0.4214  0.6849
 5419TIP3    H237817   5.848   6.185   8.317  0.0619 -1.1249 -0.2794
 5420TIP3   OH237818   4.977   0.255   0.132 -0.0659  0.7480  0.3365
 5420TIP3    H137819   4.975   0.177   0.189 -0.5335 -1.0663 -1.9969
 5420TIP3    H237820   5.058   0.246   0.082 -0.0443  1.8750  0.1621
 5421TIP3   OH237821   4.429   6.473   7.444 -0.1395 -0.0191  0.4434
 5421TIP3    H137822   4.381   6.471   7.361 -1.4558  1.0713  1.1574
 5421TIP3    H237823   4.366   6.442   7.509  0.0458  1.5862  1.4255
 5422TIP3   OH237824   4.811   2.689   7.606 -0.3344  0.1526  0.4404
 5422TIP3    H137825   4.823   2.644   7.523  0.2919 -0.4456  0.8381
 5422TIP3    H237826   4.851   2.631   7.671 -0.3254  0.8576  1.0886
 5423TIP3   OH237827   3.860   0.036   0.227 -0.0760  0.7433  0.0091
 5423TIP3    H137828   3.930   0.027   0.291 -0.5284 -0.3724  0.3596
 5423TIP3    H237829   3.858  -0.047   0.179 -1.2571  0.6766  0.1237
 5424TIP3   OH237830   2.850   4.170   6.650 -0.4096  0.1020  0.1600
 5424TIP3    H137831   2.776   4.202   6.701  0.1992  0.2952  0.9453
 5424TIP3    H237832   2.811   4.121   6.578 -1.2988 -0.2078  0.8373
 5425TIP3   OH237833   5.066   4.275   0.834  0.0866  0.0850 -0.0257
 5425TIP3    H137834   5.149   4.242   0.799  0.1966  0.6611 -0.3244
 5425TIP3    H237835   5.019   4.306   0.757 -0.6117 -0.6556  0.0812
 5426TIP3   OH237836   5.406   4.935   7.526 -0.5024  0.3858  0.0638
 5426TIP3    H137837   5.484   4.929   7.581  0.0306  0.7548 -0.6410
 5426TIP3    H237838   5.353   4.860   7.553  0.5436 -0.4545 -0.1445
 5427TIP3   OH237839   0.557   3.649   8.303  0.2940  0.1492 -0.7289
 5427TIP3    H137840   0.572   3.719   8.239 -0.7283  1.6906  0.6317
 5427TIP3    H237841   0.465   3.625   8.290 -0.8329  2.4824  1.9148
 5428TIP3   OH237842   1.335   2.513   1.326 -0.5886 -0.3299  0.4821
 5428TIP3    H137843   1.243   2.528   1.304  0.1622  3.7528 -0.8769
 5428TIP3    H237844   1.341   2.534   1.419 -0.9047  0.4086  0.3440
 5429TIP3   OH237845   3.006   1.292   0.251 -0.0469 -0.1907 -0.1435
 5429TIP3    H137846   3.015   1.331   0.338 -1.1136 -0.4153  0.0849
 5429TIP3    H237847   3.089   1.310   0.207  0.7585 -0.6343  1.1435
 5430TIP3   OH237848   1.693   6.765   1.749 -0.1856 -0.1422 -0.0898
 5430TIP3    H137849   1.629   6.778   1.679 -0.5945 -1.5051  0.0008
 5430TIP3    H237850   1.666   6.684   1.791  0.5682  0.2009  1.1033
 5431TIP3   OH237851   6.416   1.467   7.317  0.0391 -0.6125  0.2182
 5431TIP3    H137852   6.475   1.510   7.379 -1.2531 -0.9850  1.7760
 5431TIP3    H237853   6.462   1.387   7.292  0.9090 -0.0831  0.1032
 5432TIP3   OH237854   1.053   6.531   7.682  0.7137 -0.3605  0.3379
 5432TIP3    H137855   1.041   6.523   7.587  0.7439 -0.4590  0.3425
 5432TIP3    H237856   1.148   6.527   7.695  0.8303  1.4333  0.2146
 5433TIP3   OH237857   2.034   0.372   7.542  0.1069  0.0152  0.2839
 5433TIP3    H137858   2.038   0.288   7.496  1.4040  1.1877 -1.9558
 5433TIP3    H237859   1.977   0.356   7.617  0.5652 -2.9218  0.1296
 5434TIP3   OH237860   0.674   3.377   8.301  0.2989  0.0630 -0.2098
 5434TIP3    H137861   0.755   3.381   8.352 -1.2190  0.9287  2.3648
 5434TIP3    H237862   0.657   3.468   8.277 -0.0056 -0.0761 -0.5242
 5435TIP3   OH237863   2.528   2.893   1.909 -0.0109 -0.1306  0.6563
 5435TIP3    H137864   2.601   2.946   1.944  0.4438  0.1187 -0.6222
 5435TIP3    H237865   2.553   2.803   1.928 -0.1433  0.0226  1.6391
 5436TIP3   OH237866   1.199   2.764   0.507 -0.0145  0.1425 -0.1314
 5436TIP3    H137867   1.167   2.680   0.474 -0.8930  0.6435 -0.5896
 5436TIP3    H237868   1.167   2.829   0.444  0.9114  0.7998  0.0451
 5437TIP3   OH237869   3.845   3.832   6.277 -0.7235 -0.0747 -0.3267
 5437TIP3    H137870   3.763   3.831   6.228 -0.3869 -0.4637 -0.8941
 5437TIP3    H237871   3.847   3.918   6.319 -1.3685 -0.0261 -0.3923
 5438TIP3   OH237872   5.542   3.770   6.205 -0.0628 -0.0349 -0.8396
 5438TIP3    H137873   5.617   3.823   6.178 -0.9577  1.3500 -0.7267
 5438TIP3    H237874   5.543   3.775   6.301 -0.6274  0.4947 -0.8538
 5439TIP3   OH237875   1.648   5.620   7.937  0.1678  0.2842  0.5860
 5439TIP3    H137876   1.712   5.574   7.992  1.5234  1.0062 -0.3282
 5439TIP3    H237877   1.623   5.697   7.987  1.0796  0.7184  0.3927
 5440TIP3   OH237878   5.912   1.206   1.554  0.0864 -0.1280 -0.9835
 5440TIP3    H137879   5.907   1.285   1.501  0.4176  0.8536  0.3841
 5440TIP3    H237880   5.875   1.231   1.639  1.9980 -0.8248  0.1305
 5441TIP3   OH237881   3.397   6.071   1.095  0.0908 -0.6509 -0.3322
 5441TIP3    H137882   3.366   5.995   1.145 -0.2839 -0.9907 -1.0666
 5441TIP3    H237883   3.318   6.106   1.053 -0.1104  1.3362  1.5289
 5442TIP3   OH237884   2.408   4.471   7.099  0.5823 -0.0821 -0.3172
 5442TIP3    H137885   2.472   4.432   7.038  2.3566 -0.3712  1.6070
 5442TIP3    H237886   2.451   4.550   7.131 -0.6723  0.5152 -0.0430
 5443TIP3   OH237887   3.712   6.099   0.989  0.1548  0.3817  0.3339
 5443TIP3    H137888   3.649   6.103   1.062  0.5722 -0.5899  0.7762
 5443TIP3    H237889   3.675   6.155   0.922 -2.5202 -2.0153 -0.4006
 5444TIP3   OH237890   2.018   2.118   6.857 -0.5056  0.0033  0.5202
 5444TIP3    H137891   1.997   2.025   6.854  1.0942 -0.3917  0.6361
 5444TIP3    H237892   2.087   2.129   6.791  0.4870  0.7751  1.6551
 5445TIP3   OH237893   4.527   5.596   6.932 -0.5765 -0.0630  0.7269
 5445TIP3    H137894   4.443   5.599   6.978 -1.4621 -1.3458 -0.7191
 5445TIP3    H237895   4.541   5.504   6.911 -1.6238  0.5728 -3.8870
 5446TIP3   OH237896   2.221   4.165   8.455  0.0179  0.0750  0.1448
 5446TIP3    H137897   2.224   4.192   8.363  1.3212 -0.5094 -0.0079
 5446TIP3    H237898   2.296   4.209   8.495  0.5074 -1.0581  0.5102
 5447TIP3   OH237899   2.974   6.238   2.019  0.1999  0.0112 -0.4477
 5447TIP3    H137900   2.928   6.317   1.988  1.0934  0.2155 -1.2840
 5447TIP3    H237901   2.982   6.251   2.113 -1.2586  0.0742 -0.3092
 5448TIP3   OH237902   4.803   0.638   6.503 -0.3868  0.5502  0.4431
 5448TIP3    H137903   4.871   0.609   6.442  0.0614  2.6743 -0.1344
 5448TIP3    H237904   4.728   0.582   6.483  0.4336 -0.2411 -0.5639
 5449TIP3   OH237905   2.994   2.539   1.337 -0.6152  0.8292  0.3628
 5449TIP3    H137906   2.915   2.488   1.351 -2.1201  1.4264 -4.2418
 5449TIP3    H237907   2.978   2.622   1.382 -1.0711 -0.2034  2.2023
 5450TIP3   OH237908   0.494   0.823   0.324  0.1546 -0.5473  0.2525
 5450TIP3    H137909   0.588   0.842   0.323 -0.2272  1.5810 -0.5269
 5450TIP3    H237910   0.460   0.872   0.399 -0.2891 -1.7439  0.8655
 5451TIP3   OH237911   3.223   2.237   1.726  0.5640 -0.2192  0.3423
 5451TIP3    H137912   3.273   2.297   1.670  1.9519 -1.4060  0.2605
 5451TIP3    H237913   3.209   2.159   1.672  0.6113 -0.7864  1.1274
 5452TIP3   OH237914   3.415   3.058   7.301 -0.2514  0.1682 -0.5307
 5452TIP3    H137915   3.434   3.005   7.378  0.2330  0.0389 -0.7356
 5452TIP3    H237916   3.490   3.118   7.295  0.0030 -0.2163 -1.2416
 5453TIP3   OH237917   5.698   3.259   8.296 -0.2229 -0.0280  0.2184
 5453TIP3    H137918   5.744   3.232   8.217 -0.5860  0.0980 -0.0406
 5453TIP3    H237919   5.620   3.204   8.299  0.9249 -1.6729  1.7418
 5454TIP3   OH237920   3.522   0.677   6.388  0.3659  0.8363 -0.4587
 5454TIP3    H137921   3.610   0.645   6.405  0.6772  2.0553  0.3694
 5454TIP3    H237922   3.464   0.608   6.421  1.0072  1.0407  1.1955
 5455TIP3   OH237923   3.012   4.027   8.332  0.4370 -0.6119 -0.3428
 5455TIP3    H137924   3.099   3.994   8.352  0.8393  1.2389  1.3936
 5455TIP3    H237925   2.978   4.056   8.417 -0.8138  1.0683 -1.3490
 5456TIP3   OH237926   3.055   6.671   7.625  0.4861 -0.1217  0.3506
 5456TIP3    H137927   3.011   6.586   7.622  2.1096 -0.9818 -0.8096
 5456TIP3    H237928   2.984   6.735   7.620 -0.7097 -1.4115 -3.7663
 5457TIP3   OH237929   2.186   2.112   1.238 -0.3091  0.0852  0.5381
 5457TIP3    H137930   2.272   2.149   1.214 -0.9557  2.1116  1.1390
 5457TIP3    H237931   2.124   2.157   1.180 -1.1093 -0.4222  0.9865
 5458TIP3   OH237932   5.354   5.657   6.445 -0.5523 -0.6311 -0.3346
 5458TIP3    H137933   5.336   5.605   6.367  0.2783 -0.4126 -0.6861
 5458TIP3    H237934   5.268   5.681   6.479 -0.9327  0.2445 -1.8469
 5459TIP3   OH237935   6.292   4.555   1.896 -0.1546 -0.9134 -0.1247
 5459TIP3    H137936   6.290   4.615   1.821 -0.1002 -0.6539  0.0830
 5459TIP3    H237937   6.336   4.476   1.862  1.2910 -0.2235  0.0589
 5460TIP3   OH237938   3.308   0.036   0.524 -0.2600 -0.0694 -0.3415
 5460TIP3    H137939   3.266   0.102   0.469  0.2713  1.0907  0.5807
 5460TIP3    H237940   3.372   0.086   0.576  0.1691 -1.3186  0.3735
 5461TIP3   OH237941   5.701   3.928   7.765  0.1016 -0.4588 -0.4472
 5461TIP3    H137942   5.689   3.975   7.682  0.2600  2.1482  0.9093
 5461TIP3    H237943   5.795   3.913   7.771  0.0717 -0.8040 -0.8093
 5462TIP3   OH237944   0.342   4.176   8.089 -0.4564 -0.1503  0.2760
 5462TIP3    H137945   0.251   4.169   8.116 -0.0077 -2.2072  1.4390
 5462TIP3    H237946   0.392   4.160   8.169  0.9170 -1.1216 -0.7364
 5463TIP3   OH237947   5.117   2.448   0.742 -0.2802 -0.3717  0.0515
 5463TIP3    H137948   5.183   2.466   0.675  0.8899 -0.4684  1.1350
 5463TIP3    H237949   5.046   2.510   0.723  1.0173  1.1928  0.0804
 5464TIP3   OH237950   0.201   5.190   7.012 -0.2027  0.2965  0.3453
 5464TIP3    H137951   0.183   5.188   6.918  0.4716  1.0476  0.1943
 5464TIP3    H237952   0.120   5.158   7.053  0.1498 -1.9181 -0.5550
 5465TIP3   OH237953   5.325   5.512   7.589 -0.2463  0.4973  0.0823
 5465TIP3    H137954   5.271   5.590   7.579 -0.9177  0.1060  0.6107
 5465TIP3    H237955   5.379   5.510   7.510 -1.6692  0.3736 -0.9176
 5466TIP3   OH237956   3.697   1.555   8.318 -0.0648 -0.2869  0.4977
 5466TIP3    H137957   3.620   1.566   8.375 -0.5637  0.4707 -0.3122
 5466TIP3    H237958   3.662   1.557   8.229  1.0585  1.6564  0.0463
 5467TIP3   OH237959   1.566   3.076   7.390  0.1124  0.4204 -0.4351
 5467TIP3    H137960   1.607   2.994   7.418 -0.2848  1.0562  2.3003
 5467TIP3    H237961   1.488   3.048   7.342 -0.2420 -0.8595  0.8142
 5468TIP3   OH237962   3.462   1.881   0.402  0.0060  0.1945  0.3732
 5468TIP3    H137963   3.517   1.900   0.326  0.5172  0.3520  0.7704
 5468TIP3    H237964   3.475   1.956   0.460  0.3616 -0.3475  1.0179
 5469TIP3   OH237965   0.346   5.986   1.449 -0.0703 -0.0088  0.0843
 5469TIP3    H137966   0.284   5.924   1.488 -1.2359  0.8102 -0.4196
 5469TIP3    H237967   0.428   5.936   1.441 -0.4615 -0.9130  1.3600
 5470TIP3   OH237968   2.454   3.609   0.793  0.4348 -0.1515  0.0771
 5470TIP3    H137969   2.399   3.619   0.871  1.0946 -0.9333  0.6693
 5470TIP3    H237970   2.540   3.642   0.820  0.4836  0.2437 -0.5518
 5471TIP3   OH237971   4.792   2.545   2.385  0.4940  0.0440 -0.1208
 5471TIP3    H137972   4.857   2.602   2.425  0.8357  0.1214 -0.7690
 5471TIP3    H237973   4.832   2.458   2.384 -0.7181 -0.6312  2.4985
 5472TIP3   OH237974   6.699   1.256   7.393  0.0264 -0.4541 -0.5368
 5472TIP3    H137975   6.621   1.204   7.412  0.2060 -0.3793  0.4322
 5472TIP3    H237976   6.754   1.246   7.470 -0.4259  2.0956  0.2238
 5473TIP3   OH237977   2.773   6.736   0.483  0.3095 -0.6906 -0.2278
 5473TIP3    H137978   2.705   6.679   0.519  1.6523 -1.0002  2.0355
 5473TIP3    H237979   2.834   6.678   0.439  0.9593 -0.8687  0.8817
 5474TIP3   OH237980   2.053   1.102   1.057 -0.0795  0.1408 -0.0023
 5474TIP3    H137981   2.064   1.108   1.152 -0.3491  0.0691  0.0350
 5474TIP3    H237982   2.057   1.192   1.026  0.9565  0.0921 -0.0354
 5475TIP3   OH237983   2.432   4.989   6.531 -0.1747 -0.5912 -0.5451
 5475TIP3    H137984   2.446   5.081   6.510  1.7571 -0.6826  0.0656
 5475TIP3    H237985   2.391   4.990   6.618  0.1515 -0.3009 -0.3923
 5476TIP3   OH237986   3.638   3.345   1.240 -0.2792 -0.5743 -0.7994
 5476TIP3    H137987   3.655   3.410   1.308 -0.8076 -1.1075 -0.1390
 5476TIP3    H237988   3.716   3.289   1.240 -1.1502 -1.8885  0.9201
 5477TIP3   OH237989   1.991   1.800   1.373  0.1430  0.4317  0.0616
 5477TIP3    H137990   1.947   1.818   1.290  0.9194 -0.2653 -0.5075
 5477TIP3    H237991   1.919   1.797   1.437 -0.6514 -0.6884 -0.8440
 5478TIP3   OH237992   5.284   3.854   1.304 -0.2525 -0.2224 -0.4669
 5478TIP3    H137993   5.283   3.821   1.393 -0.5385 -0.8186 -0.6874
 5478TIP3    H237994   5.247   3.783   1.251  0.2340 -0.0135 -1.1044
 5479TIP3   OH237995   5.897   1.226   2.327  0.0567 -0.6565 -0.1604
 5479TIP3    H137996   5.872   1.167   2.398 -1.5073  1.5090  1.1972
 5479TIP3    H237997   5.928   1.305   2.371  0.7791  0.1075 -1.9187
 5480TIP3   OH237998   3.334   2.558   0.306  0.3221 -0.4606 -0.0233
 5480TIP3    H137999   3.421   2.524   0.328 -0.4212 -1.8115  1.0325
 5480TIP3    H238000   3.274   2.508   0.362 -1.1795  0.1535 -1.0108
 5481TIP3   OH238001   1.059   5.744   0.331  0.2782 -0.1099  0.6893
 5481TIP3    H138002   1.149   5.769   0.311  0.7713 -1.6000  0.9617
 5481TIP3    H238003   1.051   5.759   0.426  0.3647 -0.3754  0.7375
 5482TIP3   OH238004   1.414   0.203   0.867 -0.3145 -0.4023 -0.3336
 5482TIP3    H138005   1.500   0.219   0.828  0.5389  1.1649  1.9698
 5482TIP3    H238006   1.358   0.272   0.831 -0.8252 -1.7441 -2.2508
 5483TIP3   OH238007   4.534   0.695   0.376  0.0174 -0.4412  0.8951
 5483TIP3    H138008   4.589   0.771   0.358 -1.0514  0.1300 -0.1045
 5483TIP3    H238009   4.492   0.715   0.460 -0.7793  0.4240  0.3152
 5484TIP3   OH238010   3.270   4.120   7.393 -0.1449 -0.1609 -0.6334
 5484TIP3    H138011   3.356   4.125   7.434 -0.9225 -1.7924  1.3610
 5484TIP3    H238012   3.285   4.150   7.303  2.1044  1.3455  0.1442
 5485TIP3   OH238013   5.748   6.466   7.659  0.0580 -0.3951  0.2244
 5485TIP3    H138014   5.835   6.435   7.635 -0.2147 -0.6700 -0.4461
 5485TIP3    H238015   5.742   6.451   7.753  1.3581  1.2129  0.6022
 5486TIP3   OH238016   6.131   2.697   2.638  0.0060  0.4621 -0.3018
 5486TIP3    H138017   6.053   2.752   2.627 -0.8936 -0.6545  0.2385
 5486TIP3    H238018   6.096   2.610   2.656  1.3939 -0.2034 -0.7053
 5487TIP3   OH238019   4.295   5.648   0.713 -0.5571 -0.2210 -0.6047
 5487TIP3    H138020   4.223   5.710   0.704  0.9138  1.9405  1.3114
 5487TIP3    H238021   4.370   5.692   0.673  0.3308 -1.1717 -0.0552
 5488TIP3   OH238022   6.105   3.169   7.622  0.2321  0.1662 -0.2885
 5488TIP3    H138023   6.158   3.098   7.659 -0.4079 -0.4592 -0.5507
 5488TIP3    H238024   6.053   3.127   7.554 -3.1034 -0.0188  2.1368
 5489TIP3   OH238025   3.818   3.891   0.516 -0.5669 -0.0648  0.0979
 5489TIP3    H138026   3.777   3.808   0.490 -1.5036 -0.2316  1.9054
 5489TIP3    H238027   3.873   3.868   0.590 -0.5385  0.8648  0.3736
 5490TIP3   OH238028   2.313   5.032   0.084 -0.1577  0.4765 -0.3443
 5490TIP3    H138029   2.242   4.978   0.050  0.6448 -0.9788  0.1901
 5490TIP3    H238030   2.370   5.048   0.008  0.3733 -0.7218 -0.2194
 5491TIP3   OH238031   3.635   5.655   6.318 -0.1342 -0.1030  0.6294
 5491TIP3    H138032   3.676   5.591   6.260  0.8140 -0.2516  1.4393
 5491TIP3    H238033   3.542   5.632   6.317  0.1915 -1.5404  0.9565
 5492TIP3   OH238034   0.652   5.771   1.088 -0.2439  0.3428  0.0912
 5492TIP3    H138035   0.644   5.858   1.126  1.5797 -0.0339  1.4838
 5492TIP3    H238036   0.713   5.725   1.146 -0.0764 -1.4151 -1.3854
 5493TIP3   OH238037   1.483   4.980   0.404 -0.4290  0.0204  0.1886
 5493TIP3    H138038   1.542   4.911   0.435 -0.3619  0.6364  1.4958
 5493TIP3    H238039   1.539   5.035   0.348 -0.1492 -0.2483  0.1998
 5494TIP3   OH238040   2.808   2.095   7.076  0.6255 -0.1880 -0.2812
 5494TIP3    H138041   2.836   2.075   6.987 -3.3468 -0.8074 -1.5507
 5494TIP3    H238042   2.778   2.011   7.111  0.1530  0.4411  0.8709
 5495TIP3   OH238043   3.493   1.243   8.639  0.2305 -0.0452 -0.3147
 5495TIP3    H138044   3.444   1.186   8.699  1.5778  1.6053  2.6100
 5495TIP3    H238045   3.575   1.197   8.623  0.1622 -0.1751 -0.2913
 5496TIP3   OH238046   6.174   0.385   8.037  0.4657  0.0151 -0.4511
 5496TIP3    H138047   6.158   0.366   8.130  0.1913  0.8465 -0.3159
 5496TIP3    H238048   6.177   0.299   7.995 -1.6321 -0.3329 -0.0220
 5497TIP3   OH238049   5.088   2.792   2.290  0.3350 -0.3474  0.2352
 5497TIP3    H138050   5.019   2.757   2.232 -0.5525  0.1658  0.9483
 5497TIP3    H238051   5.066   2.885   2.300  2.1635  0.2499 -0.9305
 5498TIP3   OH238052   0.276   1.230   7.867  0.0656 -0.3608 -0.2507
 5498TIP3    H138053   0.346   1.284   7.904 -0.8083 -0.2298  1.2555
 5498TIP3    H238054   0.229   1.196   7.942 -2.4154  0.7480 -1.1910
 5499TIP3   OH238055   4.340   1.589   1.352  0.4093 -0.3067  0.0358
 5499TIP3    H138056   4.255   1.553   1.329  1.0511 -2.0196  0.1856
 5499TIP3    H238057   4.387   1.595   1.268  0.5239 -0.4216  0.0915
 5500TIP3   OH238058   2.229   2.343   6.794 -0.7208  0.3929  0.0528
 5500TIP3    H138059   2.237   2.399   6.716 -0.0759 -0.2679 -0.3706
 5500TIP3    H238060   2.250   2.255   6.762  4.1638  0.6396  1.7477
 5501TIP3   OH238061   0.617   3.292   1.518 -0.3231  0.5070 -0.5740
 5501TIP3    H138062   0.589   3.215   1.467  0.4193  0.5923 -1.1228
 5501TIP3    H238063   0.703   3.268   1.552 -1.1846  0.0614  1.4961
 5502TIP3   OH238064   5.151   4.377   8.170  0.3686 -0.2026  0.0613
 5502TIP3    H138065   5.116   4.346   8.253  1.1819 -0.7575  0.2093
 5502TIP3    H238066   5.188   4.463   8.190  3.0406 -1.4340  0.9878
 5503TIP3   OH238067   0.388   2.165   0.663  0.0659  0.5140 -0.5638
 5503TIP3    H138068   0.369   2.120   0.581 -0.7422 -1.5214  0.6412
 5503TIP3    H238069   0.474   2.131   0.690  0.2346  1.0128 -0.4657
 5504TIP3   OH238070   6.781   5.636   0.639  0.6423  0.6441  0.1359
 5504TIP3    H138071   6.802   5.562   0.696  2.0662  0.6399 -0.3518
 5504TIP3    H238072   6.770   5.710   0.697  1.2220  0.4587  0.4897
 5505TIP3   OH238073   4.903   3.034   1.606 -0.1568  1.2753  0.0563
 5505TIP3    H138074   4.969   3.055   1.671  0.2703 -1.6109  0.6931
 5505TIP3    H238075   4.950   2.986   1.538 -1.5863 -1.3882  0.8181
 5506TIP3   OH238076   4.125   1.296   1.577  0.6293  0.3788 -0.2098
 5506TIP3    H138077   4.158   1.207   1.567 -0.9820 -0.4033  0.9278
 5506TIP3    H238078   4.203   1.351   1.572  1.9000 -1.2226  0.7573
 5507TIP3   OH238079   5.624   3.532   8.272  0.0314  0.0723 -0.7684
 5507TIP3    H138080   5.601   3.532   8.179  0.2165  0.5459 -0.8178
 5507TIP3    H238081   5.655   3.444   8.289  2.4406  0.6462 -1.7715
 5508TIP3   OH238082   5.610   1.204   0.870 -0.2595 -0.3839 -0.5103
 5508TIP3    H138083   5.569   1.156   0.799 -1.3245  1.5263 -1.2689
 5508TIP3    H238084   5.675   1.260   0.828 -0.0684 -0.0836  0.1641
 5509TIP3   OH238085   1.499   3.835   6.989 -0.2872 -0.0491  0.1518
 5509TIP3    H138086   1.541   3.758   7.026  0.1665 -0.3738 -0.9948
 5509TIP3    H238087   1.414   3.805   6.958 -0.1585 -0.0639 -0.1902
 5510TIP3   OH238088   2.537   3.768   1.824 -0.0761 -0.4994 -0.2431
 5510TIP3    H138089   2.516   3.848   1.872  1.8101 -0.2424  0.2295
 5510TIP3    H238090   2.613   3.732   1.869  0.6474 -1.2368 -1.9550
 5511TIP3   OH238091   6.317   2.976   6.225  0.5933 -0.0327  0.2658
 5511TIP3    H138092   6.295   2.908   6.289 -1.9383  1.6748  1.3761
 5511TIP3    H238093   6.411   2.989   6.235  0.4653 -0.5983  2.9120
 5512TIP3   OH238094   1.902   4.734   1.412  0.5101  0.6171  0.2631
 5512TIP3    H138095   1.886   4.668   1.345  0.4100  0.7715  0.1327
 5512TIP3    H238096   1.996   4.750   1.408  0.5785  0.2692  0.4975
 5513TIP3   OH238097   6.807   3.473   8.248 -0.2954 -0.1375  0.0892
 5513TIP3    H138098   6.736   3.409   8.244 -1.5916  1.1688  1.1768
 5513TIP3    H238099   6.781   3.541   8.185 -0.6983  0.9711  1.4100
 5514TIP3   OH238100   5.223   0.505   0.589  0.2555 -0.3636 -0.0828
 5514TIP3    H138101   5.272   0.423   0.581  1.1378  0.2742 -1.5757
 5514TIP3    H238102   5.270   0.567   0.533 -2.3818  0.2305 -1.8535
 5515TIP3   OH238103   2.351   3.174   7.390  0.1274 -0.0519 -0.3742
 5515TIP3    H138104   2.381   3.084   7.401  0.4000  0.2325  1.6603
 5515TIP3    H238105   2.309   3.195   7.474  0.8975  2.0024 -0.4561
 5516TIP3   OH238106   0.938   1.259   2.293  0.4700  0.1887  0.1865
 5516TIP3    H138107   0.918   1.207   2.215 -1.0594  0.3889  0.4186
 5516TIP3    H238108   1.024   1.298   2.274  0.4596 -0.3520 -1.0705
 5517TIP3   OH238109   6.553   5.685   0.421 -0.3720 -0.2137 -0.4028
 5517TIP3    H138110   6.618   5.702   0.490 -0.3358  0.6976 -0.6545
 5517TIP3    H238111   6.599   5.703   0.339 -0.5938 -0.7228 -0.6450
 5518TIP3   OH238112   3.101   5.501   0.235  0.1023 -0.4356  0.6606
 5518TIP3    H138113   3.069   5.571   0.178 -1.6287  0.2652  2.3963
 5518TIP3    H238114   3.158   5.546   0.297 -0.1701 -0.7329  1.1303
 5519TIP3   OH238115   1.076   6.366   8.057 -0.2742 -0.2661  0.3143
 5519TIP3    H138116   1.063   6.342   7.966  1.5218  0.9121 -0.3031
 5519TIP3    H238117   1.164   6.334   8.078 -1.1228 -1.6216  2.0429
 5520TIP3   OH238118   5.023   1.041   6.896  0.6397 -0.3315 -0.1158
 5520TIP3    H138119   5.078   1.065   6.821  0.5615  0.6906  0.1451
 5520TIP3    H238120   4.942   1.091   6.884  0.0360 -1.2822 -0.1147
 5521TIP3   OH238121   0.877   6.141   1.658 -0.3217  0.4755  0.0300
 5521TIP3    H138122   0.910   6.182   1.578  1.4521  0.0173  0.4669
 5521TIP3    H238123   0.937   6.171   1.726  0.6524 -2.2146  0.4894
 5522TIP3   OH238124   3.891   5.142   0.683 -0.3069  0.6494  0.3054
 5522TIP3    H138125   3.846   5.061   0.708  0.5009  0.4736  1.2722
 5522TIP3    H238126   3.911   5.131   0.590 -1.1852  0.2226  0.1590
 5523TIP3   OH238127   2.843   2.306   1.960 -0.0095 -0.0060  0.7318
 5523TIP3    H138128   2.836   2.402   1.964 -3.1288 -0.1328  0.7777
 5523TIP3    H238129   2.844   2.279   2.052  0.6690 -0.0526  0.7166
 5524TIP3   OH238130   4.183   2.153   1.807 -0.0864  0.4677  0.0995
 5524TIP3    H138131   4.111   2.092   1.791  0.4358 -0.1335 -0.0194
 5524TIP3    H238132   4.191   2.156   1.902  2.1015 -2.4007  0.1510
 5525TIP3   OH238133   1.188   5.195   7.588  0.1269  0.6403 -0.5003
 5525TIP3    H138134   1.233   5.271   7.551  1.1525  1.2704  1.8696
 5525TIP3    H238135   1.257   5.146   7.633 -1.1257  0.3492  1.2142
 5526TIP3   OH238136   6.321   0.751   2.226  0.4936 -0.1364  0.3940
 5526TIP3    H138137   6.333   0.681   2.291  1.1993  0.1609  0.5935
 5526TIP3    H238138   6.252   0.807   2.263  2.4076  1.2843  2.0065
 5527TIP3   OH238139   3.646   4.199   1.480 -0.4945  0.5558 -0.2924
 5527TIP3    H138140   3.733   4.161   1.496 -0.8706 -0.5863 -0.8626
 5527TIP3    H238141   3.652   4.288   1.515 -0.1799 -0.6095  2.9435
 5528TIP3   OH238142   5.826   1.398   7.670  0.8534 -0.0522 -0.0858
 5528TIP3    H138143   5.800   1.355   7.589  0.6562  0.9256 -0.5524
 5528TIP3    H238144   5.885   1.335   7.712  0.4265 -0.8534 -0.6487
 5529TIP3   OH238145   6.179   0.582   1.613 -0.0025 -0.0550  0.1702
 5529TIP3    H138146   6.084   0.593   1.613 -0.1567 -1.2041  0.4936
 5529TIP3    H238147   6.199   0.542   1.528 -0.0425 -1.3692  0.7444
 5530TIP3   OH238148   1.331   6.171   1.735  0.1666 -0.2800 -0.2542
 5530TIP3    H138149   1.355   6.123   1.655 -0.0405 -2.1926  0.7732
 5530TIP3    H238150   1.410   6.170   1.789 -0.5219 -1.6590  0.7877
 5531TIP3   OH238151   1.725   6.306   8.489  0.2540  0.1795 -0.1652
 5531TIP3    H138152   1.692   6.244   8.424 -0.5812 -1.0676  1.3450
 5531TIP3    H238153   1.678   6.387   8.471 -0.3728 -0.3062 -0.7769
 5532TIP3   OH238154   5.319   0.252   1.563  0.2036  0.2090 -0.6350
 5532TIP3    H138155   5.289   0.200   1.637 -0.0657  2.0662  0.6479
 5532TIP3    H238156   5.239   0.276   1.516  0.4386 -1.6891 -2.1017
 5533TIP3   OH238157   5.276   1.256   7.722 -0.2137  0.1732  0.0744
 5533TIP3    H138158   5.216   1.219   7.657 -0.7823  0.5096  0.4069
 5533TIP3    H238159   5.344   1.300   7.669  0.0358 -0.6492 -0.3081
 5534TIP3   OH238160   5.133   2.783   6.394  0.0476 -0.2005 -0.3390
 5534TIP3    H138161   5.169   2.695   6.388  0.1350 -0.0812 -2.2444
 5534TIP3    H238162   5.040   2.771   6.372 -1.6266 -0.6659  5.4309
 5535TIP3   OH238163   4.610   3.639   1.634  0.0301 -0.3413 -0.2325
 5535TIP3    H138164   4.614   3.688   1.553  1.8961  2.7226  1.5513
 5535TIP3    H238165   4.674   3.568   1.623  0.6049  0.3179 -1.2599
 5536TIP3   OH238166   6.504   5.686   6.520  0.1356  0.0333  0.2838
 5536TIP3    H138167   6.589   5.725   6.541  0.1458  0.6007 -0.7749
 5536TIP3    H238168   6.457   5.754   6.473  1.0502 -1.8762 -3.8486
 5537TIP3   OH238169   5.926   5.917   0.004  0.8803  0.0604 -0.2002
 5537TIP3    H138170   5.845   5.869  -0.014  0.0833  0.7932  1.2639
 5537TIP3    H238171   5.963   5.936  -0.082 -0.2077 -0.7754 -0.8758
 5538TIP3   OH238172   4.391   1.423   1.601 -0.4121 -0.1966 -0.2496
 5538TIP3    H138173   4.389   1.483   1.526  0.1056  0.0318 -0.0899
 5538TIP3    H238174   4.477   1.382   1.596 -0.0793  0.3573  0.6263
 5539TIP3   OH238175   1.998   4.782   1.027  0.2147 -0.2823  0.1008
 5539TIP3    H138176   1.993   4.788   0.931  0.3601 -2.1674 -0.0548
 5539TIP3    H238177   2.082   4.824   1.049  1.2836 -1.8269 -0.8417
 5540TIP3   OH238178   5.869   3.926   1.098 -0.3254 -0.5765  0.4964
 5540TIP3    H138179   5.824   3.842   1.111 -0.4000 -0.3813  1.5476
 5540TIP3    H238180   5.857   3.944   1.005 -0.0299 -1.8901  0.1732
 5541TIP3   OH238181   4.739   2.684   8.602 -0.3698  0.2573 -0.7049
 5541TIP3    H138182   4.731   2.590   8.589  2.5864 -0.3970  1.1401
 5541TIP3    H238183   4.742   2.721   8.514 -0.8119 -1.4607 -1.4789
 5542TIP3   OH238184   5.270   2.294   0.363  0.4338  0.3294  0.0035
 5542TIP3    H138185   5.219   2.360   0.410  0.7180  1.8462 -1.6942
 5542TIP3    H238186   5.281   2.330   0.275  2.1516 -1.1780 -0.4741
 5543TIP3   OH238187   4.148   6.215   7.292 -0.2127 -0.4901  0.4210
 5543TIP3    H138188   4.196   6.270   7.230  0.5018 -1.1382  0.3797
 5543TIP3    H238189   4.134   6.133   7.245 -0.1293 -0.8000  0.9224
 5544TIP3   OH238190   0.264   4.548   0.880 -0.2109  0.4691 -0.4636
 5544TIP3    H138191   0.214   4.477   0.839  1.8456 -0.7142 -1.0583
 5544TIP3    H238192   0.204   4.623   0.878 -1.9206 -0.8390 -1.1795
 5545TIP3   OH238193   3.633   5.510   0.690 -0.4289 -0.0231 -0.0817
 5545TIP3    H138194   3.633   5.571   0.616 -1.3563  0.8081  0.5838
 5545TIP3    H238195   3.726   5.497   0.710 -0.2085  1.1934 -0.2198
 5546TIP3   OH238196   5.653   5.547   7.988 -0.2157  0.3525 -1.0494
 5546TIP3    H138197   5.571   5.516   7.950 -0.3752 -1.1147  0.3803
 5546TIP3    H238198   5.715   5.475   7.974 -0.0715  0.0967  0.6707
 5547TIP3   OH238199   0.734   3.209   0.810 -0.2248  0.2128  0.2216
 5547TIP3    H138200   0.795   3.227   0.738  0.8939 -1.0225  0.8010
 5547TIP3    H238201   0.791   3.188   0.884 -1.2563 -2.8134  0.3235
 5548TIP3   OH238202   1.497   0.121   1.582 -0.1818  0.3317 -0.1733
 5548TIP3    H138203   1.416   0.153   1.542 -2.0921 -4.1963 -0.5396
 5548TIP3    H238204   1.500   0.164   1.668 -3.7174 -0.1278  0.3506
 5549TIP3   OH238205   2.912   6.315   1.532 -0.1904  0.0701 -0.1469
 5549TIP3    H138206   2.957   6.396   1.557 -2.9468  1.3783  0.9956
 5549TIP3    H238207   2.913   6.262   1.612 -0.5118  0.0407 -0.1603
 5550TIP3   OH238208   6.185   6.535   8.489 -0.7402 -0.0008  0.0409
 5550TIP3    H138209   6.215   6.557   8.578  2.2535 -0.9754 -0.6177
 5550TIP3    H238210   6.186   6.619   8.443  1.0405  0.0434  0.0882
 5551TIP3   OH238211   5.759   0.786   8.281 -0.4953  0.2315  0.5331
 5551TIP3    H138212   5.708   0.802   8.361 -1.7423 -0.2124 -0.1419
 5551TIP3    H238213   5.801   0.701   8.298 -2.1598 -0.7466  0.0858
 5552TIP3   OH238214   3.198   0.807   0.300  0.1172 -0.1395  0.1471
 5552TIP3    H138215   3.132   0.816   0.232 -0.9739 -0.2962  1.1559
 5552TIP3    H238216   3.212   0.896   0.333  0.1663 -0.1527  0.1630
 5553TIP3   OH238217   3.922   3.214   7.310  0.0517 -0.4333  0.8436
 5553TIP3    H138218   3.961   3.161   7.240  1.1897 -0.2773  1.3270
 5553TIP3    H238219   3.956   3.175   7.391 -1.0941 -0.4929  1.3071
 5554TIP3   OH238220   4.491   3.916   8.225  0.2533 -0.0607  0.8182
 5554TIP3    H138221   4.401   3.926   8.192  0.0672 -1.1740  0.9532
 5554TIP3    H238222   4.482   3.860   8.302  1.2283 -1.4647 -0.0462
 5555TIP3   OH238223   6.029   6.256   2.521 -0.0351  0.7504  0.1383
 5555TIP3    H138224   6.026   6.337   2.471  0.5934 -0.1834 -1.4984
 5555TIP3    H238225   6.118   6.222   2.506 -0.0889  0.0480  1.2779
 5556TIP3   OH238226   5.607   4.334   6.964 -0.1394 -0.5565  0.0361
 5556TIP3    H138227   5.683   4.385   6.937  0.2837 -1.7922 -1.2332
 5556TIP3    H238228   5.642   4.265   7.020 -0.6271  0.1429  1.2354
 5557TIP3   OH238229   5.092   3.011   0.702 -0.2764 -0.2551 -0.0058
 5557TIP3    H138230   5.098   3.106   0.691 -0.6147 -0.0877  1.0785
 5557TIP3    H238231   5.178   2.985   0.734 -0.3619 -0.2208  0.2565
 5558TIP3   OH238232   2.681   4.038   6.468 -0.1342  0.6626 -0.0608
 5558TIP3    H138233   2.677   3.971   6.399  0.4328  0.0366  0.5006
 5558TIP3    H238234   2.590   4.053   6.493 -0.1883 -0.9643  0.8169
 5559TIP3   OH238235   3.200   4.757   0.961  0.7146  0.1927 -0.5921
 5559TIP3    H138236   3.192   4.795   1.049 -0.3053 -0.5827 -0.3360
 5559TIP3    H238237   3.215   4.664   0.976  1.1155  0.1445 -1.2390
 5560TIP3   OH238238   1.155   4.661   8.458 -0.0432  0.7673 -0.1557
 5560TIP3    H138239   1.082   4.680   8.517 -1.3928 -0.0205 -1.5283
 5560TIP3    H238240   1.126   4.588   8.405  2.1194 -0.1806 -0.1466
 5561TIP3   OH238241   5.112   3.469   1.335  0.1107 -0.8544 -0.0235
 5561TIP3    H138242   5.105   3.424   1.251  0.6671  0.8137 -1.0076
 5561TIP3    H238243   5.071   3.555   1.320 -1.6210 -1.2278  1.9949
 5562TIP3   OH238244   6.543   6.844   7.377  0.2948 -0.4007  0.4356
 5562TIP3    H138245   6.488   6.837   7.299 -0.1398  2.2785  0.4143
 5562TIP3    H238246   6.617   6.785   7.359 -0.1378 -0.3957 -1.6663
 5563TIP3   OH238247   5.121   0.740   1.638 -0.0927  0.2979  0.2992
 5563TIP3    H138248   5.184   0.805   1.670 -0.4824 -0.1447  2.0942
 5563TIP3    H238249   5.095   0.692   1.717 -0.6455 -1.3048 -0.8220
 5564TIP3   OH238250   4.484   6.747   8.390 -0.8889  0.0181 -0.2670
 5564TIP3    H138251   4.576   6.774   8.389 -0.9483  0.2201 -0.5258
 5564TIP3    H238252   4.476   6.691   8.467  0.1212 -2.4368 -1.8303
 5565TIP3   OH238253   5.927   4.136   2.544 -0.1332  0.2253  0.1202
 5565TIP3    H138254   5.883   4.221   2.545 -0.4387  0.1261 -1.6246
 5565TIP3    H238255   6.017   4.155   2.568 -0.4038  0.9131  0.6132
 5566TIP3   OH238256   3.999   2.555   1.371 -0.3628 -0.1724 -0.0816
 5566TIP3    H138257   3.945   2.497   1.425  1.8231 -3.3706 -0.9959
 5566TIP3    H238258   4.087   2.547   1.410  0.3622  1.0908 -1.3871
 5567TIP3   OH238259   1.417   2.077   7.458 -0.2514 -0.1632 -0.2693
 5567TIP3    H138260   1.394   2.099   7.368  1.4507  1.4155 -0.3759
 5567TIP3    H238261   1.488   2.013   7.449 -0.8409 -0.8699 -0.0123
 5568TIP3   OH238262   6.575   1.669   1.965 -0.0702  0.5746 -0.3304
 5568TIP3    H138263   6.508   1.705   1.907 -2.5533 -0.6410  1.5846
 5568TIP3    H238264   6.647   1.732   1.960 -0.9115  1.4894 -3.1742
 5569TIP3   OH238265   5.256   2.730   1.585 -0.0500  0.3909  0.2697
 5569TIP3    H138266   5.290   2.793   1.522  1.2653  0.0444  0.5997
 5569TIP3    H238267   5.293   2.758   1.669 -0.3719 -0.1525  0.5993
 5570TIP3   OH238268   3.788   0.553   6.385 -0.1239 -0.0061 -0.2094
 5570TIP3    H138269   3.792   0.473   6.437  0.3385  0.5798  0.6828
 5570TIP3    H238270   3.779   0.523   6.295  1.4097 -1.0875 -0.0325
 5571TIP3   OH238271   1.496   5.751   0.512  0.5208 -0.0940 -0.3802
 5571TIP3    H138272   1.587   5.727   0.531  1.2875  2.2780 -0.7281
 5571TIP3    H238273   1.482   5.832   0.561 -1.7276 -0.8405  0.3425
 5572TIP3   OH238274   2.635   0.919   0.158  0.0950 -0.6405  0.5245
 5572TIP3    H138275   2.619   0.850   0.094 -0.8673 -0.3774  0.4750
 5572TIP3    H238276   2.715   0.890   0.204  0.0220 -1.5058  0.1331
 5573TIP3   OH238277   2.513   5.488   8.375 -0.1585  0.5258 -0.4730
 5573TIP3    H138278   2.465   5.413   8.339  1.3402  0.5108 -2.6592
 5573TIP3    H238279   2.451   5.560   8.373 -1.0741 -0.2382 -0.0688
 5574TIP3   OH238280   2.411   5.823   6.203  0.1499  0.6282 -0.2244
 5574TIP3    H138281   2.326   5.802   6.166  0.7159 -1.3994 -0.5267
 5574TIP3    H238282   2.471   5.822   6.129  0.7400 -0.0315  0.2401
 5575TIP3   OH238283   1.197   4.154   7.502 -0.5061  0.6642 -0.1962
 5575TIP3    H138284   1.113   4.162   7.457  0.0681  1.0059 -1.2407
 5575TIP3    H238285   1.232   4.070   7.472 -0.3858  0.6118  0.0888
 5576TIP3   OH238286   5.105   2.394   0.142  0.1724  0.0152  0.6062
 5576TIP3    H138287   5.019   2.368   0.174 -1.1489  0.6077 -2.1378
 5576TIP3    H238288   5.097   2.488   0.125  0.9036 -0.1679 -0.9339
 5577TIP3   OH238289   0.666   5.198   7.767  0.1561  0.5989  0.3480
 5577TIP3    H138290   0.678   5.271   7.707  2.1840 -0.1471 -0.2450
 5577TIP3    H238291   0.627   5.129   7.713 -0.4569  0.7813  0.5551
 5578TIP3   OH238292   3.626   3.535   6.968 -0.0064 -0.1517 -0.5342
 5578TIP3    H138293   3.633   3.505   6.877 -0.7079  1.9664 -1.3629
 5578TIP3    H238294   3.704   3.501   7.011 -0.1286 -1.9833 -1.6694
 5579TIP3   OH238295   6.297   4.590   1.578  0.0219 -0.9263 -0.2504
 5579TIP3    H138296   6.376   4.623   1.535 -0.2902 -0.7915 -0.7179
 5579TIP3    H238297   6.242   4.558   1.507 -1.6346  1.6335 -0.2784
 5580TIP3   OH238298   0.292   2.460   1.835 -0.3438 -0.2383 -0.2478
 5580TIP3    H138299   0.254   2.391   1.890 -0.6675  0.8193  0.9028
 5580TIP3    H238300   0.219   2.489   1.781 -0.0257 -1.2805 -1.2735
 5581TIP3   OH238301   6.838   1.486   1.579  0.2286  0.0016 -0.4121
 5581TIP3    H138302   6.877   1.433   1.510  1.7496  0.1370  0.3173
 5581TIP3    H238303   6.770   1.537   1.535  0.2627 -0.8878 -1.5401
 5582TIP3   OH238304   1.203   1.164   8.211 -0.3650 -0.5837 -0.4844
 5582TIP3    H138305   1.130   1.102   8.202 -1.1188 -0.0736  1.5039
 5582TIP3    H238306   1.187   1.230   8.144 -1.2751 -0.9110 -0.6024
 5583TIP3   OH238307   4.553   6.212   2.404  0.3302  0.5280  0.2589
 5583TIP3    H138308   4.602   6.187   2.482  0.5088  2.2155  0.7143
 5583TIP3    H238309   4.564   6.138   2.344  1.1622 -0.2851  1.3768
 5584TIP3   OH238310   3.710   5.314   7.443 -0.2797  0.1607  0.0061
 5584TIP3    H138311   3.691   5.295   7.535 -1.2176  0.2177 -0.1617
 5584TIP3    H238312   3.722   5.409   7.440  1.3074 -0.0009  0.3164
 5585TIP3   OH238313   5.073   5.799   2.415 -0.8324  0.0790  0.1062
 5585TIP3    H138314   5.045   5.782   2.505 -0.1353 -1.5954  0.0569
 5585TIP3    H238315   5.080   5.894   2.409 -1.0943  0.2327  1.7532
 5586TIP3   OH238316   2.331   0.703   2.010  1.1560  0.2926  0.5761
 5586TIP3    H138317   2.320   0.624   2.064  1.7612 -1.3085 -1.4918
 5586TIP3    H238318   2.259   0.760   2.035  0.1157 -1.3448  1.4700
 5587TIP3   OH238319   1.892   3.929   1.986  0.5572  0.9337 -0.1682
 5587TIP3    H138320   1.824   3.996   1.975 -1.1517 -0.9512 -1.7544
 5587TIP3    H238321   1.925   3.914   1.898  0.1436 -1.0440 -0.0263
 5588TIP3   OH238322   3.732   6.472   7.193  0.0891 -0.0350  0.5102
 5588TIP3    H138323   3.693   6.456   7.279 -1.5871 -1.4761 -0.4628
 5588TIP3    H238324   3.808   6.413   7.191  0.1919  0.0698  1.0192
 5589TIP3   OH238325   4.142   1.798   2.009 -0.3794  0.1017 -0.0304
 5589TIP3    H138326   4.122   1.705   2.020 -1.4896  0.2634 -0.4837
 5589TIP3    H238327   4.127   1.836   2.095 -0.3111 -0.0788  0.0604
 5590TIP3   OH238328   5.595   4.558   8.488  0.8983  0.8262  0.5107
 5590TIP3    H138329   5.586   4.608   8.569  0.5931  1.4524  0.1023
 5590TIP3    H238330   5.510   4.515   8.476  0.5812  1.5639  0.0002
 5591TIP3   OH238331   4.004   4.074   0.829  0.1852 -0.1024 -0.2063
 5591TIP3    H138332   4.006   4.168   0.850  0.8206 -0.4070  1.1383
 5591TIP3    H238333   3.912   4.049   0.842  0.4314 -0.1387  1.6813
 5592TIP3   OH238334   6.176   6.238   7.157 -0.1554 -0.1741 -0.3458
 5592TIP3    H138335   6.257   6.272   7.120 -0.4787  0.0726 -0.8357
 5592TIP3    H238336   6.187   6.247   7.252 -1.1453  3.5486 -0.4194
 5593TIP3   OH238337   0.962   6.292   0.770 -0.0530  0.1425 -0.6734
 5593TIP3    H138338   1.056   6.287   0.755 -0.2439 -1.5667 -1.5382
 5593TIP3    H238339   0.926   6.218   0.722 -1.7691  0.2833  0.3174
 5594TIP3   OH238340   6.414   5.461   8.349 -0.6465 -0.0551 -0.3361
 5594TIP3    H138341   6.469   5.475   8.426 -0.9204 -1.3760  0.1257
 5594TIP3    H238342   6.443   5.528   8.286  2.5586 -1.6038 -0.7171
 5595TIP3   OH238343   4.673   4.532   7.342 -0.1906  0.1394  0.2577
 5595TIP3    H138344   4.741   4.485   7.392  0.5317 -0.1741 -0.9732
 5595TIP3    H238345   4.700   4.523   7.251 -0.0846  2.8626 -0.0642
 5596TIP3   OH238346   0.333   1.686   7.629 -0.2726 -0.7451  0.1508
 5596TIP3    H138347   0.382   1.604   7.627 -1.0584 -1.2621  1.1409
 5596TIP3    H238348   0.351   1.726   7.544  0.8484 -1.5036  0.0058
 5597TIP3   OH238349   4.090   1.491   1.323 -0.1830  0.7304  0.1852
 5597TIP3    H138350   4.008   1.498   1.274 -0.3854 -0.0640  0.3861
 5597TIP3    H238351   4.090   1.401   1.356  2.1445 -0.2449 -2.1768
 5598TIP3   OH238352   5.794   1.062   2.530  0.2310 -0.3003  0.2390
 5598TIP3    H138353   5.761   1.097   2.613 -1.0113 -0.2963 -0.2255
 5598TIP3    H238354   5.741   0.984   2.515  1.1598 -0.8868 -0.0499
 5599TIP3   OH238355   3.430   2.465   2.312  0.1846  0.8530 -0.0820
 5599TIP3    H138356   3.372   2.436   2.241  0.1149 -0.3241  0.4285
 5599TIP3    H238357   3.505   2.505   2.267  0.1084  0.1825 -0.8263
 5600TIP3   OH238358   5.429   6.018   0.388  0.1653  0.5697  0.1149
 5600TIP3    H138359   5.373   6.037   0.313  4.4909  0.9285 -3.4352
 5600TIP3    H238360   5.402   5.931   0.417 -1.2649  0.0890 -2.3721
 5601TIP3   OH238361   0.777   1.718   8.565 -0.1087  0.4110 -0.4076
 5601TIP3    H138362   0.734   1.753   8.642 -1.4161 -0.1238 -0.8614
 5601TIP3    H238363   0.762   1.784   8.497  0.5566  0.6262 -0.3485
 5602TIP3   OH238364   0.008   3.333   0.253 -0.0118 -0.0064  0.0280
 5602TIP3    H138365   0.089   3.384   0.260 -0.7578  1.3396 -0.7852
 5602TIP3    H238366  -0.062   3.397   0.266 -0.9994 -0.6628 -1.7381
 5603TIP3   OH238367   5.894   4.401   2.573  0.6809  0.4367  0.5559
 5603TIP3    H138368   5.905   4.468   2.640 -1.8036  1.1803  0.2842
 5603TIP3    H238369   5.829   4.436   2.513  0.4176 -1.5911 -0.4383
 5604TIP3   OH238370   4.207   3.949   0.358  0.1377  0.1119 -0.2827
 5604TIP3    H138371   4.233   4.038   0.380 -0.0894 -0.3945  2.5365
 5604TIP3    H238372   4.249   3.894   0.425  1.6908 -2.1891 -2.9031
 5605TIP3   OH238373   1.673   3.277   8.055  0.4828  0.0429 -0.2696
 5605TIP3    H138374   1.682   3.188   8.090 -0.4163  0.9364  2.5502
 5605TIP3    H238375   1.582   3.301   8.076  0.0576  0.9671 -2.8079
 5606TIP3   OH238376   3.583   0.908   2.678  0.2940 -0.4350  0.1674
 5606TIP3    H138377   3.648   0.960   2.726  0.1885 -0.6221  0.5131
 5606TIP3    H238378   3.618   0.902   2.589  1.7257 -2.1524  0.7852
 5607TIP3   OH238379   0.446   0.964   0.893 -0.2871  0.1555 -0.1669
 5607TIP3    H138380   0.398   1.045   0.877 -0.7504  0.1256  0.9352
 5607TIP3    H238381   0.532   0.979   0.855 -0.1322  1.4418  0.6227
 5608TIP3   OH238382   5.737   1.461   0.750 -0.1329  0.4653  0.0079
 5608TIP3    H138383   5.753   1.500   0.664  0.3764  0.0323 -0.1017
 5608TIP3    H238384   5.663   1.510   0.785 -2.0097 -0.9594 -1.7117
 5609TIP3   OH238385   4.566   3.881   7.915 -0.6814 -0.2605  0.0063
 5609TIP3    H138386   4.585   3.956   7.858 -0.5466 -1.0258 -0.9967
 5609TIP3    H238387   4.591   3.910   8.002 -0.5017  0.8121 -0.3831
 5610TIP3   OH238388   3.852   6.646   0.093 -0.0279 -0.5427 -0.4267
 5610TIP3    H138389   3.799   6.614   0.166 -0.4992  2.8497  0.8826
 5610TIP3    H238390   3.804   6.617   0.015 -2.8817  0.7467  0.6859
 5611TIP3   OH238391   2.349   0.854   6.863  0.4266 -0.5758 -0.5827
 5611TIP3    H138392   2.341   0.947   6.885 -0.9625 -0.8418  0.1693
 5611TIP3    H238393   2.263   0.830   6.827  1.1237 -1.3181 -1.8018
 5612TIP3   OH238394   4.964   0.063   1.240 -0.0714 -0.2353  0.0828
 5612TIP3    H138395   5.018   0.055   1.161 -0.3584 -0.2700 -0.1100
 5612TIP3    H238396   4.969  -0.024   1.281 -2.5872 -1.2832 -1.6216
 5613TIP3   OH238397   0.536   0.060   8.210  0.1094 -0.1831  0.4447
 5613TIP3    H138398   0.554  -0.034   8.204 -1.5191 -0.5477  0.7088
 5613TIP3    H238399   0.502   0.073   8.298 -0.2552  0.5448  0.2081
 5614TIP3   OH238400   2.909   5.932   8.441  0.0353  0.1645  0.5422
 5614TIP3    H138401   3.002   5.914   8.426 -0.1213 -1.1515  0.9690
 5614TIP3    H238402   2.906   5.972   8.528  0.3297  1.7220 -0.1314
 5615TIP3   OH238403   0.909   3.748   1.680  0.2148  0.2686 -0.4464
 5615TIP3    H138404   0.969   3.725   1.751 -1.0421 -0.4150  0.4340
 5615TIP3    H238405   0.906   3.671   1.624  1.9703  1.1431 -1.8814
 5616TIP3   OH238406   4.916   0.469   7.409  0.4275  0.1673  0.1099
 5616TIP3    H138407   4.927   0.398   7.346  0.4470  0.3981 -0.1498
 5616TIP3    H238408   4.847   0.439   7.467 -0.5748  0.5301 -0.8529
 5617TIP3   OH238409   5.417   0.992   2.158 -0.2194 -0.1620  0.1269
 5617TIP3    H138410   5.357   1.039   2.215 -0.2558 -0.8286  0.6495
 5617TIP3    H238411   5.496   0.980   2.209  0.4049  0.7655 -0.5840
 5618TIP3   OH238412   3.661   0.458   6.655  0.2249 -0.2784 -0.0783
 5618TIP3    H138413   3.613   0.390   6.607  1.1848  0.0102 -1.4908
 5618TIP3    H238414   3.594   0.523   6.676 -0.5610 -1.2757  0.6165
 5619TIP3   OH238415   3.148   5.799   8.387 -0.6323  0.5786 -0.0481
 5619TIP3    H138416   3.225   5.807   8.443 -1.5545  2.0215  1.0827
 5619TIP3    H238417   3.170   5.729   8.326  2.1036  1.8419 -0.6533
 5620TIP3   OH238418   5.563   6.499   1.989 -0.4851 -0.2467  0.2020
 5620TIP3    H138419   5.486   6.556   1.988 -0.8577 -0.7428 -0.5690
 5620TIP3    H238420   5.636   6.557   2.012 -0.7844  0.6548 -1.0131
 5621TIP3   OH238421   0.295   3.055   1.703  0.5336 -0.1615  0.2893
 5621TIP3    H138422   0.273   3.122   1.638  0.7787 -0.1198  0.2482
 5621TIP3    H238423   0.232   3.069   1.774  0.8976  0.4421  0.5040
 5622TIP3   OH238424   2.804   3.098   7.047 -0.2874  0.3109  0.3200
 5622TIP3    H138425   2.727   3.145   7.081 -0.8602 -1.4905  1.6187
 5622TIP3    H238426   2.839   3.051   7.122  0.4543 -1.0902 -0.8582
 5623TIP3   OH238427   2.364   5.316   0.906 -0.1083  0.4202  0.0795
 5623TIP3    H138428   2.307   5.303   0.831 -0.8755  0.0906  0.7100
 5623TIP3    H238429   2.452   5.301   0.872 -0.5282 -0.8440 -0.5086
 5624TIP3   OH238430   0.909   0.857   2.365  0.2137 -0.1209 -0.0739
 5624TIP3    H138431   0.960   0.781   2.337  0.6271  0.5344 -1.1342
 5624TIP3    H238432   0.825   0.848   2.320 -0.6140 -1.1322  1.5726
 5625TIP3   OH238433   3.711   0.655   7.847 -0.3539  0.1418  0.0131
 5625TIP3    H138434   3.665   0.706   7.780 -0.0627 -0.6515 -0.8092
 5625TIP3    H238435   3.671   0.569   7.843 -0.3176  0.0780  0.8591
 5626TIP3   OH238436   5.289   5.903   8.021 -0.4232  0.1503 -0.4217
 5626TIP3    H138437   5.292   5.866   7.933  1.1863 -0.3647 -0.1870
 5626TIP3    H238438   5.201   5.939   8.029 -0.0917  1.7295 -2.8485
 5627TIP3   OH238439   5.969   5.409   8.212 -0.2129  0.2187 -0.1380
 5627TIP3    H138440   5.951   5.368   8.128 -0.7918  0.3338 -0.0777
 5627TIP3    H238441   5.940   5.499   8.202 -0.5032  0.1748  0.2508
 5628TIP3   OH238442   3.619   6.426   0.158 -0.3191  0.5547 -0.5572
 5628TIP3    H138443   3.598   6.516   0.135 -0.4560  0.4683 -0.7673
 5628TIP3    H238444   3.603   6.376   0.079 -0.7486  0.2663 -0.2925
 5629TIP3   OH238445   4.595   6.523   2.087  0.1295 -0.4602  0.3930
 5629TIP3    H138446   4.527   6.589   2.104  0.1665 -0.2964 -0.0634
 5629TIP3    H238447   4.623   6.494   2.173  0.7500  0.7891  0.6438
 5630TIP3   OH238448   4.721   6.125   0.199  0.2334  0.3365  0.0288
 5630TIP3    H138449   4.713   6.176   0.280  1.3479  1.6428 -0.6384
 5630TIP3    H238450   4.810   6.091   0.200  0.2726  0.3947 -0.6520
 5631TIP3   OH238451   4.419   6.731   7.267  0.2273  0.2946 -0.5438
 5631TIP3    H138452   4.511   6.708   7.283  0.4873  0.2316 -2.0110
 5631TIP3    H238453   4.375   6.647   7.255 -0.2902  0.2531  1.2883
 5632TIP3   OH238454   4.853   1.786   1.242 -0.2909  0.7156 -0.1208
 5632TIP3    H138455   4.942   1.789   1.207 -0.5963 -0.3284 -1.0414
 5632TIP3    H238456   4.863   1.741   1.326  0.0083  0.2784 -0.3844
 5633TIP3   OH238457   3.314   2.377   7.258  0.0193 -0.0003 -0.6821
 5633TIP3    H138458   3.327   2.379   7.163  0.3794 -1.2750 -0.6813
 5633TIP3    H238459   3.271   2.293   7.274 -0.0347  0.2021  0.2886
 5634TIP3   OH238460   1.586   4.802   8.033  0.4006 -0.2386 -0.1224
 5634TIP3    H138461   1.529   4.785   8.108  2.2896 -0.0431  1.4394
 5634TIP3    H238462   1.527   4.801   7.958 -1.3018 -2.4710  1.0986
 5635TIP3   OH238463   4.669   4.298   7.822  0.2299 -0.2537  0.2032
 5635TIP3    H138464   4.756   4.281   7.857 -0.0577 -0.5394  0.8008
 5635TIP3    H238465   4.638   4.374   7.873  0.0186 -0.3367  0.1982
 5636TIP3   OH238466   0.336   1.201   0.818 -0.2329  0.1633 -0.3753
 5636TIP3    H138467   0.295   1.214   0.732 -1.4839 -0.2247  0.1287
 5636TIP3    H238468   0.266   1.221   0.880 -0.1164 -1.9429  0.5086
 5637TIP3   OH238469   1.326   6.342   2.018 -0.1006  0.2922 -0.2378
 5637TIP3    H138470   1.231   6.333   2.031  0.1943 -0.4704  1.6344
 5637TIP3    H238471   1.344   6.434   2.034 -0.5213  0.4485 -0.6428
 5638TIP3   OH238472   4.331   2.607   6.339  0.2786 -0.1631 -0.1595
 5638TIP3    H138473   4.357   2.583   6.427 -0.1868 -1.7912 -0.4429
 5638TIP3    H238474   4.381   2.549   6.282  0.3807  0.6915 -0.9660
 5639TIP3   OH238475   0.934   6.164   8.192 -0.0919  0.2330  0.2809
 5639TIP3    H138476   0.873   6.204   8.254 -0.4284  0.6492 -0.3077
 5639TIP3    H238477   0.964   6.237   8.138 -0.5026 -0.2606 -0.6327
 5640TIP3   OH238478   5.712   1.021   7.689 -0.6459 -0.0001  0.3245
 5640TIP3    H138479   5.716   1.101   7.742  2.7386  1.3901 -1.7365
 5640TIP3    H238480   5.790   0.972   7.714 -0.0344 -0.2455 -1.9187
 5641TIP3   OH238481   1.922   1.811   7.301 -0.6032  0.0276 -0.5637
 5641TIP3    H138482   2.015   1.825   7.317 -1.3285  2.1769  2.9498
 5641TIP3    H238483   1.908   1.719   7.324  0.3625  0.2444  1.0755
 5642TIP3   OH238484   4.158   3.031   8.482  0.1969 -0.3799 -0.5066
 5642TIP3    H138485   4.129   2.949   8.441 -1.4987  0.1901 -0.5202
 5642TIP3    H238486   4.201   3.004   8.563 -0.0766 -1.2946 -0.6567
 5643TIP3   OH238487   6.239   0.262   2.314 -0.0994 -0.3110  0.3137
 5643TIP3    H138488   6.172   0.270   2.247 -1.9026  0.5951  2.0926
 5643TIP3    H238489   6.320   0.289   2.271 -0.9293 -0.9723 -1.7836
 5644TIP3   OH238490   6.163   5.773   0.020 -0.0308 -0.1059 -0.0929
 5644TIP3    H138491   6.223   5.820   0.078  0.3145 -0.0786 -0.4639
 5644TIP3    H238492   6.077   5.807   0.041  0.1419  0.2155  0.1038
 5645TIP3   OH238493   0.534   3.907   8.058  0.5181  0.7970 -0.3156
 5645TIP3    H138494   0.514   3.937   8.147  0.7461 -0.1064  0.0468
 5645TIP3    H238495   0.617   3.949   8.037 -0.3691  2.4222 -0.7990
 5646TIP3   OH238496   5.546   6.041   1.745 -0.3572  0.2355  0.1953
 5646TIP3    H138497   5.521   6.133   1.757 -1.6764  0.0829 -1.1495
 5646TIP3    H238498   5.595   6.040   1.663 -1.4935 -0.4406 -0.4971
 5647TIP3   OH238499   5.674   2.169   7.415 -0.1586 -0.5103  0.0380
 5647TIP3    H138500   5.753   2.123   7.445  0.9558  0.9169 -0.6078
 5647TIP3    H238501   5.707   2.242   7.364 -1.8658  1.2779  1.3517
 5648TIP3   OH238502   1.027   4.219   1.701 -0.2969  0.0486  0.4742
 5648TIP3    H138503   1.065   4.297   1.742  0.0793  0.0005  0.2212
 5648TIP3    H238504   1.075   4.209   1.619 -0.9541  0.0668  0.0828
 5649TIP3   OH238505   5.067   6.637   7.590  0.3372  0.1691 -0.0688
 5649TIP3    H138506   4.994   6.698   7.588 -0.1952 -0.4136  0.6903
 5649TIP3    H238507   5.027   6.551   7.575  1.0507 -0.0235 -0.9824
 5650TIP3   OH238508   3.295   3.669   7.912  0.4304 -0.7350  0.2635
 5650TIP3    H138509   3.262   3.590   7.870 -2.6071  1.1974 -1.3123
 5650TIP3    H238510   3.348   3.712   7.844 -0.4457  0.0208  0.0386
 5651TIP3   OH238511   3.377   6.834   8.651  0.1218  0.9197 -0.2328
 5651TIP3    H138512   3.406   6.914   8.607 -0.0631  1.4017  0.5015
 5651TIP3    H238513   3.368   6.860   8.743 -0.4628  0.1951 -0.0815
 5652TIP3   OH238514   3.567   3.470   0.914 -0.4451  0.3212 -0.1150
 5652TIP3    H138515   3.511   3.403   0.954 -2.5057  2.7104  1.3223
 5652TIP3    H238516   3.508   3.544   0.898  1.9416  2.2836 -0.4400
 5653TIP3   OH238517   4.184   5.510   1.977 -0.4364 -0.8388 -0.3070
 5653TIP3    H138518   4.253   5.443   1.976  1.3374  0.7195  2.7234
 5653TIP3    H238519   4.219   5.581   1.923 -0.8369 -1.0106 -0.8052
 5654TIP3   OH238520   4.125   5.824   7.425 -0.0238 -0.4830  0.1693
 5654TIP3    H138521   4.125   5.731   7.403  1.4928 -0.4879  0.0772
 5654TIP3    H238522   4.182   5.864   7.360 -1.7338  0.7581 -0.6462
 5655TIP3   OH238523   5.944   0.185   0.728  0.7194  0.0155 -0.2484
 5655TIP3    H138524   5.919   0.239   0.803 -2.6273 -0.7294 -0.6590
 5655TIP3    H238525   5.937   0.244   0.653 -1.5046 -0.4797 -0.5213
 5656TIP3   OH238526   0.895   6.559   0.685  0.0725  0.2030 -0.2490
 5656TIP3    H138527   0.889   6.467   0.709  1.8402 -0.3268 -1.6768
 5656TIP3    H238528   0.926   6.559   0.595 -1.8757  2.1902 -1.0112
 5657TIP3   OH238529   1.292   2.981   8.705 -0.5506  0.6835 -0.0571
 5657TIP3    H138530   1.200   2.995   8.729 -0.6546  0.6177 -0.4145
 5657TIP3    H238531   1.339   2.988   8.787 -0.7220  2.0633 -0.0610
 5658TIP3   OH238532   1.323   1.004   7.560  0.3073 -0.2058 -0.4063
 5658TIP3    H138533   1.240   0.977   7.522 -0.3054  1.2204 -0.1558
 5658TIP3    H238534   1.302   1.023   7.652  0.9950 -0.1960 -0.2451
 5659TIP3   OH238535   4.922   3.465   8.629 -0.1407 -0.0189  0.2776
 5659TIP3    H138536   4.860   3.537   8.622 -2.1746 -1.7894 -1.6859
 5659TIP3    H238537   4.902   3.423   8.713  0.1719  0.8943  0.8227
 5660TIP3   OH238538   1.391   1.324   7.803 -0.5030 -0.1774  0.2779
 5660TIP3    H138539   1.306   1.361   7.826 -0.5957  1.3553 -2.0789
 5660TIP3    H238540   1.455   1.385   7.840 -0.3912 -1.1381  1.7445
 5661TIP3   OH238541   6.721   5.874   0.798  0.2887 -0.4000  0.1872
 5661TIP3    H138542   6.650   5.864   0.861  1.5305  0.7932  1.8778
 5661TIP3    H238543   6.713   5.964   0.766 -0.1454 -0.8952 -1.1872
 5662TIP3   OH238544   6.145   6.141   7.664  0.0673  0.7557  0.5527
 5662TIP3    H138545   6.202   6.217   7.662 -1.3070  1.8768  1.7110
 5662TIP3    H238546   6.096   6.150   7.746 -0.6227 -1.0134  0.3788
 5663TIP3   OH238547   6.224   3.098   8.277  0.2999 -0.1316 -0.3333
 5663TIP3    H138548   6.209   3.126   8.186 -0.2239  2.2135  0.4225
 5663TIP3    H238549   6.316   3.114   8.293  0.4529 -0.7929 -0.4979
 5664TIP3   OH238550   4.837   4.701   7.704 -0.4949 -0.0343 -0.0640
 5664TIP3    H138551   4.856   4.672   7.615 -0.1812 -0.0140 -0.0037
 5664TIP3    H238552   4.854   4.624   7.758 -3.6504 -1.0429 -0.3240
 5665TIP3   OH238553   1.612   3.607   7.125 -0.3612 -0.1059 -0.1238
 5665TIP3    H138554   1.608   3.618   7.220 -1.4043 -0.5132 -0.0993
 5665TIP3    H238555   1.635   3.515   7.112  0.0070  0.0051 -0.2670
 5666TIP3   OH238556   4.674   4.353   1.640 -0.4880 -0.4669  0.5197
 5666TIP3    H138557   4.676   4.265   1.676 -0.9272 -0.9068 -0.5173
 5666TIP3    H238558   4.608   4.399   1.693  1.1851 -0.1235  2.4184
 5667TIP3   OH238559   2.226   4.785   0.718  0.2284 -1.0313 -0.0550
 5667TIP3    H138560   2.232   4.797   0.813 -0.1342 -2.0468  0.1069
 5667TIP3    H238561   2.219   4.874   0.683  0.4048 -0.6459  0.8659
 5668TIP3   OH238562   1.810   4.605   0.981 -0.3755  0.5408  0.4079
 5668TIP3    H138563   1.861   4.676   1.019 -1.3394  2.7872 -2.1225
 5668TIP3    H238564   1.870   4.563   0.920 -0.1660 -0.0313  1.0007
 5669TIP3   OH238565   3.069   4.954   7.581 -0.9790 -0.3289  0.2958
 5669TIP3    H138566   3.132   4.911   7.524  0.4927  2.5114 -0.3533
 5669TIP3    H238567   3.073   4.903   7.663  1.6752 -0.6620  0.0524
 5670TIP3   OH238568   3.125   4.804   0.520 -0.3598  0.2701 -0.3412
 5670TIP3    H138569   3.180   4.817   0.596 -1.5641  0.0993  0.5957
 5670TIP3    H238570   3.090   4.715   0.530  0.6747 -0.3742 -1.9233
 5671TIP3   OH238571   1.046   1.693   7.486 -0.1157 -0.1339 -0.4987
 5671TIP3    H138572   1.075   1.779   7.456 -0.2216 -0.5852 -1.9572
 5671TIP3    H238573   1.111   1.667   7.551 -0.1965  1.1265  0.1033
 5672TIP3   OH238574   3.615   2.042   0.186  0.0373  0.0075 -0.0249
 5672TIP3    H138575   3.550   2.082   0.128  0.9361  3.3040  1.0194
 5672TIP3    H238576   3.667   1.986   0.129 -0.1151  1.8436 -2.1061
 5673TIP3   OH238577   2.609   0.170   1.246  0.3343 -0.5340  1.0914
 5673TIP3    H138578   2.548   0.100   1.227  1.3885 -0.9959 -0.9266
 5673TIP3    H238579   2.586   0.240   1.184  0.0457  0.4533  2.2731
 5674TIP3   OH238580   0.459   3.222   8.424 -0.0794 -0.4744  0.1929
 5674TIP3    H138581   0.547   3.246   8.395 -0.2065  0.8493  0.8193
 5674TIP3    H238582   0.407   3.220   8.343  0.1215  0.6234  0.0255
 5675TIP3   OH238583   5.949   0.822   1.334  0.4486 -0.0084 -0.3231
 5675TIP3    H138584   5.922   0.903   1.291  1.5508 -0.4745 -1.9828
 5675TIP3    H238585   6.011   0.850   1.402 -1.4696  0.7493  1.2050
 5676TIP3   OH238586   4.744   1.116   7.689  0.2750  0.4933  0.1807
 5676TIP3    H138587   4.661   1.161   7.701  1.0737  1.7685  1.2019
 5676TIP3    H238588   4.733   1.066   7.608 -1.0358  1.6431 -0.3907
 5677TIP3   OH238589   2.670   6.343   6.846  0.2545 -0.0725  0.1283
 5677TIP3    H138590   2.595   6.304   6.891 -1.1937  0.7840 -1.4446
 5677TIP3    H238591   2.646   6.434   6.833  1.1541  0.0058 -1.2452
 5678TIP3   OH238592   3.231   6.284   7.287 -0.3122  0.0934  1.0691
 5678TIP3    H138593   3.158   6.232   7.320  1.0178 -2.6376 -0.0006
 5678TIP3    H238594   3.304   6.264   7.346  0.7363 -0.9099 -0.4843
 5679TIP3   OH238595   1.530   3.787   7.898 -0.4010  0.9209 -0.2570
 5679TIP3    H138596   1.467   3.816   7.832 -1.6282 -1.7198 -0.3811
 5679TIP3    H238597   1.490   3.709   7.936  1.4513  0.9007  1.8400
 5680TIP3   OH238598   5.216   4.117   1.255  0.1738 -0.1959 -0.7559
 5680TIP3    H138599   5.231   4.036   1.304  0.1812 -0.1527 -0.6864
 5680TIP3    H238600   5.158   4.091   1.183 -2.4813  0.3184  1.0413
 5681TIP3   OH238601   2.306   2.488   0.593  0.0669  0.0012  0.1668
 5681TIP3    H138602   2.251   2.443   0.529  1.9981 -1.8512 -0.2995
 5681TIP3    H238603   2.334   2.568   0.549  0.5998 -0.7890 -0.9738
 5682TIP3   OH238604   3.708   6.667   2.258  0.2859 -0.5699 -0.0665
 5682TIP3    H138605   3.691   6.576   2.236  0.5646 -0.8265  0.7846
 5682TIP3    H238606   3.731   6.708   2.174  1.0766 -1.4856 -0.3138
 5683TIP3   OH238607   6.215   1.946   7.215 -0.1028  0.2967 -0.0223
 5683TIP3    H138608   6.283   1.882   7.239 -0.5307  0.2634  1.1641
 5683TIP3    H238609   6.259   2.005   7.154  0.9819  0.2129  0.6369
 5684TIP3   OH238610   2.518   4.781   7.064  0.0295 -0.4502  0.4830
 5684TIP3    H138611   2.583   4.844   7.033 -1.6400  0.8237 -0.6239
 5684TIP3    H238612   2.558   4.740   7.140  2.0428  0.3880 -0.0640
 5685TIP3   OH238613   1.100   0.390   7.309 -0.1435  0.1966  0.4202
 5685TIP3    H138614   1.042   0.455   7.271  0.7601  1.5072  1.2045
 5685TIP3    H238615   1.174   0.385   7.249  0.2887  0.6974  0.9009
 5686TIP3   OH238616   2.314   3.346   8.108 -0.3418  0.3803 -0.0606
 5686TIP3    H138617   2.307   3.251   8.116 -1.6653  0.2481 -2.1688
 5686TIP3    H238618   2.402   3.366   8.142  0.8353 -1.8704 -1.5291
 5687TIP3   OH238619   6.822   0.828   8.320  0.4156  0.6711 -0.1270
 5687TIP3    H138620   6.745   0.772   8.322 -0.0071  1.0642 -2.5188
 5687TIP3    H238621   6.790   0.915   8.347  0.4360  0.4350  0.6769
 5688TIP3   OH238622   5.389   5.656   8.320  0.0127  0.1622  0.0762
 5688TIP3    H138623   5.349   5.607   8.392 -0.6614  1.4143  0.5871
 5688TIP3    H238624   5.347   5.621   8.241 -1.2923  0.6566  0.5188
 5689TIP3   OH238625   2.308   4.473   7.457 -0.0117  0.2476  0.1639
 5689TIP3    H138626   2.219   4.496   7.430  0.3391  0.8115 -0.5468
 5689TIP3    H238627   2.362   4.546   7.427  1.1197 -1.3571 -2.0879
 5690TIP3   OH238628   5.411   2.215   6.983 -0.2738  0.4061  0.0231
 5690TIP3    H138629   5.323   2.182   6.962 -0.8709  2.0199 -0.2033
 5690TIP3    H238630   5.431   2.276   6.912  1.1840 -0.1882 -0.0999
 5691TIP3   OH238631   5.633   2.751   7.576  0.0214  0.1912  0.6402
 5691TIP3    H138632   5.630   2.671   7.628 -2.3679 -1.2176 -1.4980
 5691TIP3    H238633   5.542   2.778   7.567  0.6186  2.0590 -0.3686
 5692TIP3   OH238634   5.410   2.070   6.691 -0.0375  0.4755  0.6596
 5692TIP3    H138635   5.331   2.074   6.744 -1.7224  4.9305 -1.6379
 5692TIP3    H238636   5.379   2.054   6.602  1.5528  2.2297 -0.2944
 5693TIP3   OH238637   4.740   2.198   7.551  0.3131 -0.2839  0.2280
 5693TIP3    H138638   4.782   2.200   7.637  0.8282 -0.7132 -0.0129
 5693TIP3    H238639   4.737   2.289   7.523  0.0964 -0.1366  0.7237
 5694TIP3   OH238640   2.213   2.322   1.028 -0.0259  0.5667 -0.2045
 5694TIP3    H138641   2.157   2.385   1.074  1.3141  1.3402  0.4276
 5694TIP3    H238642   2.253   2.373   0.958  0.0450  0.0775 -0.5254
 5695TIP3   OH238643   4.986   6.474   2.280  0.3589  0.9377  0.2193
 5695TIP3    H138644   5.040   6.416   2.333  0.4601  0.9544  0.1349
 5695TIP3    H238645   4.923   6.512   2.342  2.1146  2.9663  0.8809
 5696TIP3   OH238646   0.164   3.151   6.248 -0.7997  0.0445  0.0855
 5696TIP3    H138647   0.164   3.241   6.281 -0.6148 -0.7661  2.4994
 5696TIP3    H238648   0.256   3.132   6.230 -0.8469  0.3438 -0.4917
 5697TIP3   OH238649   2.028   1.968   1.643  0.0290  0.1117  0.7442
 5697TIP3    H138650   2.072   2.017   1.574  2.3855 -1.5549  0.9434
 5697TIP3    H238651   1.943   1.943   1.606  1.1617 -0.5952 -1.4755
 5698TIP3   OH238652   5.091   6.444   8.465  0.0904 -0.2653 -1.4320
 5698TIP3    H138653   5.033   6.403   8.401 -2.7700 -1.7704  1.7892
 5698TIP3    H238654   5.130   6.371   8.513 -2.6396  0.4557  2.3566
 5699TIP3   OH238655   3.587   4.493   8.114 -0.0090  0.1057  0.3820
 5699TIP3    H138656   3.529   4.568   8.127  0.6514  0.7470 -0.2720
 5699TIP3    H238657   3.672   4.531   8.095 -0.1327 -0.7236 -2.3145
 5700TIP3   OH238658   5.289   1.266   8.173 -0.0298 -0.1610  0.0458
 5700TIP3    H138659   5.237   1.320   8.113 -2.5550 -2.5061 -0.1192
 5700TIP3    H238660   5.360   1.231   8.118 -1.7214 -1.4744 -1.4657
 5701TIP3   OH238661   5.471   0.161   1.174 -0.6949  0.5200  0.1312
 5701TIP3    H138662   5.437   0.250   1.165 -0.7524  0.4500 -0.3896
 5701TIP3    H238663   5.472   0.145   1.268 -0.1721  1.2693  0.2622
 5702TIP3   OH238664   2.950   6.722   8.029  0.0191 -0.2651  0.3410
 5702TIP3    H138665   2.968   6.802   8.077 -3.3175 -0.5235  2.2776
 5702TIP3    H238666   2.856   6.723   8.012 -0.0021 -3.2957 -0.4812
 5703TIP3   OH238667   0.289   6.722   2.735 -0.3780 -0.0687 -0.1680
 5703TIP3    H138668   0.295   6.628   2.720 -1.5058 -0.3280  0.7753
 5703TIP3    H238669   0.372   6.745   2.776  0.0844 -0.5559 -0.8027
 5704TIP3   OH238670   5.814   2.755   0.216 -0.3054  0.2200 -0.0149
 5704TIP3    H138671   5.845   2.762   0.306  1.1043  0.1546 -0.4784
 5704TIP3    H238672   5.853   2.829   0.171 -0.8940  0.1765 -0.6123
 5705TIP3   OH238673   0.640   3.643   1.499 -0.2468  0.0332 -0.3541
 5705TIP3    H138674   0.572   3.695   1.457 -0.8555 -1.9218 -1.9405
 5705TIP3    H238675   0.709   3.634   1.434  1.0674  1.0496  0.8458
 5706TIP3   OH238676   6.230   6.237   7.415 -0.1955 -0.1746  0.0298
 5706TIP3    H138677   6.167   6.173   7.448  0.2404 -0.2280  0.7562
 5706TIP3    H238678   6.315   6.196   7.426  0.0184  0.1248 -0.4427
 5707TIP3   OH238679   5.940   1.021   8.371  0.2570  0.3027  0.3604
 5707TIP3    H138680   5.909   0.933   8.350  1.2203  0.2780 -1.0590
 5707TIP3    H238681   5.863   1.077   8.360  0.5423  0.2266 -2.9845
 5708TIP3   OH238682   6.028   2.869   0.659 -0.1158 -0.9018  0.3646
 5708TIP3    H138683   5.971   2.945   0.644  3.0831  1.3297 -1.6214
 5708TIP3    H238684   6.032   2.862   0.755  0.7108  2.5609  0.7142
 5709TIP3   OH238685   1.612   3.594   1.338 -0.0578 -0.0641 -0.3983
 5709TIP3    H138686   1.583   3.630   1.421 -0.4026 -1.7236  0.2368
 5709TIP3    H238687   1.538   3.605   1.278  0.1780  1.0940 -0.4899
 5710TIP3   OH238688   1.394   6.424   0.887  0.7006 -0.4586 -0.1089
 5710TIP3    H138689   1.488   6.428   0.866  0.7323 -0.2735  0.0632
 5710TIP3    H238690   1.391   6.424   0.983  0.4769  1.0889 -0.0765
 5711TIP3   OH238691   5.958   2.504   0.699  0.0736  0.6421 -0.4922
 5711TIP3    H138692   6.026   2.441   0.722  1.0227  1.2441 -1.5953
 5711TIP3    H238693   5.904   2.459   0.634 -0.0377  0.4996 -0.3025
 5712TIP3   OH238694   4.882   0.261   7.205  0.0195 -0.2620 -0.5630
 5712TIP3    H138695   4.971   0.228   7.221  0.4475  0.6020 -1.0507
 5712TIP3    H238696   4.845   0.200   7.141  0.2374 -0.6788 -0.2902
 5713TIP3   OH238697   5.559   3.895   7.365  0.3689  0.3292  0.6322
 5713TIP3    H138698   5.536   3.832   7.434  0.5152  0.5166  0.8505
 5713TIP3    H238699   5.540   3.980   7.404  1.1435  0.4721  0.7004
 5714TIP3   OH238700   5.670   6.542   1.363 -0.6508  0.1217 -0.0622
 5714TIP3    H138701   5.713   6.627   1.374 -1.7988  0.7580 -0.3647
 5714TIP3    H238702   5.623   6.528   1.445 -1.3150  0.2744 -0.4149
 5715TIP3   OH238703   3.418   4.481   1.248  0.1264  0.8182 -0.4526
 5715TIP3    H138704   3.337   4.493   1.198  0.2117  0.3234 -0.7221
 5715TIP3    H238705   3.393   4.495   1.339 -0.2271  0.8298 -0.5510
 5716TIP3   OH238706   0.363   2.965   7.773  0.1495 -0.5114  0.0498
 5716TIP3    H138707   0.354   2.878   7.735  2.8293 -1.1839  0.7217
 5716TIP3    H238708   0.427   3.009   7.717  0.6001  0.1516  1.0512
 5717TIP3   OH238709   2.137   0.123   7.705  0.8376  1.1215 -0.2483
 5717TIP3    H138710   2.093   0.155   7.783 -0.0119  0.3084 -0.3851
 5717TIP3    H238711   2.226   0.102   7.734  0.4650  0.6061  0.5568
 5718TIP3   OH238712   1.928   3.713   7.202 -0.1283 -0.1723  0.6796
 5718TIP3    H138713   1.850   3.673   7.165 -0.2375  0.8605 -0.2283
 5718TIP3    H238714   2.000   3.681   7.148  0.1419 -1.3220  1.6656
 5719TIP3   OH238715   6.670   0.314   6.432  0.1967  0.5007  0.5176
 5719TIP3    H138716   6.577   0.322   6.408  0.6883  2.1756 -0.9927
 5719TIP3    H238717   6.701   0.404   6.440  1.9535 -0.0173 -0.0388
 5720TIP3   OH238718   4.573   3.775   6.932  0.2211  0.6322  0.0924
 5720TIP3    H138719   4.620   3.790   6.850  1.2145 -1.6450  0.1729
 5720TIP3    H238720   4.631   3.811   7.000  0.7002  0.0722 -0.0121
 5721TIP3   OH238721   1.811   0.272   7.654  0.4424 -0.5749 -0.1594
 5721TIP3    H138722   1.797   0.234   7.568 -2.0102  1.1712 -0.6474
 5721TIP3    H238723   1.723   0.289   7.688  1.3124 -1.3438  2.8053
 5722TIP3   OH238724   5.696   1.349   2.576  0.4474 -0.4773  0.0170
 5722TIP3    H138725   5.710   1.409   2.504  0.5505 -0.5264 -0.0052
 5722TIP3    H238726   5.698   1.404   2.655 -0.1340 -0.3588 -0.0493
 5723TIP3   OH238727   3.042   2.684   8.264 -0.4104  0.1642  0.0770
 5723TIP3    H138728   2.991   2.715   8.338 -0.4197  3.7418 -1.2614
 5723TIP3    H238729   3.128   2.724   8.275  0.1523 -0.6849 -0.9794
 5724TIP3   OH238730   1.840   6.055   6.491  0.1138  0.7461  0.0835
 5724TIP3    H138731   1.766   6.099   6.534 -0.0258 -0.4489  1.1257
 5724TIP3    H238732   1.829   5.963   6.514  0.8186  0.2629 -1.4236
 5725TIP3   OH238733   0.133   5.428   8.085 -0.1271  0.1896 -1.0980
 5725TIP3    H138734   0.154   5.381   8.165  0.2172 -0.1658 -1.3930
 5725TIP3    H238735   0.101   5.513   8.115 -0.8782 -0.2777 -0.5599
 5726TIP3   OH238736   3.384   3.074   8.608  0.2874 -0.1084 -0.4775
 5726TIP3    H138737   3.420   3.047   8.524  0.2362  0.9120 -0.8489
 5726TIP3    H238738   3.304   3.022   8.618  0.7966 -0.9284 -0.5938
 5727TIP3   OH238739   0.879   4.071   1.008 -0.2732 -0.2313 -0.1169
 5727TIP3    H138740   0.956   4.082   1.065 -1.4622  0.7508  1.3877
 5727TIP3    H238741   0.883   3.980   0.979  0.4832 -0.7152  1.4099
 5728TIP3   OH238742   3.142   2.557   7.361 -0.5507 -0.4506  0.2775
 5728TIP3    H138743   3.068   2.553   7.301 -0.9587  0.1542  0.7304
 5728TIP3    H238744   3.209   2.501   7.320 -0.1450  1.3242 -1.6694
 5729TIP3   OH238745   3.681   6.788   8.014  0.8125  0.3532  0.5921
 5729TIP3    H138746   3.626   6.713   8.039  1.9757 -0.7278  0.0022
 5729TIP3    H238747   3.670   6.850   8.086  0.1220 -0.5476  1.2939
 5730TIP3   OH238748   2.579   2.155   1.839 -0.5162 -0.1653  0.4002
 5730TIP3    H138749   2.668   2.188   1.848 -0.4465 -0.0205 -0.6843
 5730TIP3    H238750   2.529   2.200   1.907 -0.0206  0.6902  0.2063
 5731TIP3   OH238751   4.031   5.090   1.295  0.1115 -0.2698  0.0143
 5731TIP3    H138752   4.052   5.183   1.302 -1.2337  0.1015 -0.6238
 5731TIP3    H238753   4.018   5.062   1.385 -4.6818  1.4694  0.1352
 5732TIP3   OH238754   2.086   3.809   1.519  0.2833  0.1112  0.3649
 5732TIP3    H138755   2.055   3.719   1.511  2.0812 -0.4521 -0.9515
 5732TIP3    H238756   2.167   3.802   1.571 -1.2685  1.4511  3.1850
 5733TIP3   OH238757   6.562   3.721   7.083 -0.1067  0.4804  0.3140
 5733TIP3    H138758   6.562   3.633   7.046  1.8328  0.8162 -0.6434
 5733TIP3    H238759   6.624   3.716   7.156  0.5364  1.1670 -0.1617
 5734TIP3   OH238760   0.295   6.610   7.601 -0.1575 -0.3628  0.1732
 5734TIP3    H138761   0.249   6.637   7.681 -2.0963 -0.8522 -0.7211
 5734TIP3    H238762   0.274   6.677   7.537  2.5370  0.7919  0.3632
 5735TIP3   OH238763   2.772   6.145   7.560 -0.1713 -0.2481  0.0051
 5735TIP3    H138764   2.733   6.065   7.597 -0.7927  0.0802  0.0556
 5735TIP3    H238765   2.784   6.125   7.467 -1.9551  0.2155 -0.3540
 5736TIP3   OH238766   0.839   3.317   1.204  0.1972  0.2299 -0.1001
 5736TIP3    H138767   0.903   3.263   1.251  1.4107  0.8696 -0.9619
 5736TIP3    H238768   0.871   3.318   1.114 -0.7922  0.9444 -0.4545
 5737TIP3   OH238769   4.704   2.557   0.969 -0.5920 -0.4796 -0.3953
 5737TIP3    H138770   4.785   2.506   0.977 -0.1833  0.0929 -0.8612
 5737TIP3    H238771   4.689   2.563   0.875 -0.0432  1.1780 -0.4116
 5738TIP3   OH238772   4.150   2.981   1.337  0.1597  0.3504 -0.2670
 5738TIP3    H138773   4.073   2.990   1.392 -0.8105  1.5075 -1.7226
 5738TIP3    H238774   4.206   3.055   1.362 -0.0864  0.6253 -0.5148
 5739TIP3   OH238775   1.212   1.317   1.736  0.0369 -0.6000  0.3824
 5739TIP3    H138776   1.167   1.327   1.819 -0.8581 -1.3492  0.0021
 5739TIP3    H238777   1.154   1.264   1.683 -0.1800  1.2031 -1.3141
 5740TIP3   OH238778   3.587   1.308   7.645  0.2252 -0.1382 -0.0929
 5740TIP3    H138779   3.535   1.370   7.594 -0.8491 -0.3331  0.7324
 5740TIP3    H238780   3.582   1.340   7.735 -1.3872 -2.0204  0.5720
 5741TIP3   OH238781   4.485   5.879   1.777 -0.1002 -0.0305  0.3812
 5741TIP3    H138782   4.397   5.916   1.779 -0.3504 -0.5859 -0.3029
 5741TIP3    H238783   4.502   5.856   1.869 -1.7299 -2.3801  0.1671
 5742TIP3   OH238784   5.540   5.379   0.540  0.7571 -0.2658 -0.1712
 5742TIP3    H138785   5.514   5.290   0.517 -0.3294 -0.0017 -0.0342
 5742TIP3    H238786   5.458   5.429   0.540  1.2631  0.5995  0.3639
 5743TIP3   OH238787   4.643   4.088   8.382  1.0154 -0.2559 -0.0118
 5743TIP3    H138788   4.609   4.020   8.324 -2.7108  0.9177  0.5507
 5743TIP3    H238789   4.663   4.041   8.463  0.0029 -0.9601 -0.1468
 5744TIP3   OH238790   2.952   6.796   6.643 -0.0539 -0.1292 -0.1584
 5744TIP3    H138791   2.972   6.730   6.577  0.5009 -0.2873  0.1621
 5744TIP3    H238792   2.881   6.757   6.694  0.8302 -0.8519  0.5526
 5745TIP3   OH238793   0.856   0.835   8.562 -0.0315  0.0915  0.0998
 5745TIP3    H138794   0.907   0.775   8.508 -0.5310 -0.4380  0.1997
 5745TIP3    H238795   0.813   0.893   8.500  0.2991  0.2223 -0.0084
 5746TIP3   OH238796   3.512   1.057   1.525  0.0534  0.1589  0.6054
 5746TIP3    H138797   3.438   0.997   1.514 -0.1146  0.2122  1.3508
 5746TIP3    H238798   3.516   1.106   1.443  1.8729 -2.6629 -1.1467
 5747TIP3   OH238799   2.869   4.404   1.511 -0.1741  0.0928 -0.2785
 5747TIP3    H138800   2.963   4.420   1.497 -0.1643 -1.2348 -2.1641
 5747TIP3    H238801   2.830   4.491   1.515  1.2298  0.7025  1.5643
 5748TIP3   OH238802   5.868   1.092   1.224  0.1351 -0.4164 -0.1295
 5748TIP3    H138803   5.886   1.162   1.163  0.3221 -1.0556 -0.8163
 5748TIP3    H238804   5.819   1.027   1.173  2.4873 -2.1336 -0.3463
 5749TIP3   OH238805   2.421   0.452   2.289  0.5922 -0.2510 -0.0222
 5749TIP3    H138806   2.485   0.388   2.257  1.0035 -0.4475  1.1455
 5749TIP3    H238807   2.437   0.457   2.383 -0.6165  0.2625  0.1763
 5750TIP3   OH238808   4.833   5.226   0.692 -0.0529  0.2469 -0.2909
 5750TIP3    H138809   4.794   5.189   0.613 -0.2828 -1.4468  0.5639
 5750TIP3    H238810   4.918   5.259   0.663 -0.7264  0.9686 -1.5150
 5751TIP3   OH238811   2.973   5.299   8.641 -0.1975  0.0099  0.2144
 5751TIP3    H138812   2.992   5.323   8.732  0.7846 -0.6690  0.2154
 5751TIP3    H238813   3.006   5.373   8.589 -0.8045  0.4201  0.4088
 5752TIP3   OH238814   2.167   1.894   7.392 -0.1325 -0.5958 -0.2747
 5752TIP3    H138815   2.248   1.882   7.442  0.0353  0.2321 -0.3331
 5752TIP3    H238816   2.121   1.965   7.437 -0.5502 -0.6611 -0.5904
 5753TIP3   OH238817   0.797   1.345   1.650 -0.0709 -0.1221 -0.5075
 5753TIP3    H138818   0.799   1.263   1.698  0.9805  0.3477  0.2852
 5753TIP3    H238819   0.741   1.402   1.703  0.5162  0.1772 -0.2078
 5754TIP3   OH238820   6.649   4.530   7.398  0.6132  0.1425 -0.4598
 5754TIP3    H138821   6.575   4.471   7.410  0.3467  0.6615  0.5682
 5754TIP3    H238822   6.678   4.514   7.308  1.3979 -2.4757  0.2118
 5755TIP3   OH238823   1.498   4.151   8.564  0.2206  0.3642  0.1828
 5755TIP3    H138824   1.523   4.097   8.489 -0.5803  0.8451 -0.4441
 5755TIP3    H238825   1.564   4.220   8.568 -0.6633  1.3398 -1.1564
 5756TIP3   OH238826   3.545   1.180   1.218 -0.3737  0.2209  0.1657
 5756TIP3    H138827   3.570   1.133   1.138 -1.0319 -0.7647  0.5247
 5756TIP3    H238828   3.461   1.143   1.243  0.2796 -0.2197  1.8706
 5757TIP3   OH238829   5.322   2.867   7.763 -0.5203  0.1907 -0.1028
 5757TIP3    H138830   5.370   2.888   7.843  0.8887 -0.4089 -0.7515
 5757TIP3    H238831   5.307   2.952   7.721  0.8027  0.3383 -0.3237
 5758TIP3   OH238832   1.356   5.454   0.271 -0.0766 -0.2623 -0.4152
 5758TIP3    H138833   1.412   5.523   0.234  0.5354 -1.3507 -1.5793
 5758TIP3    H238834   1.340   5.395   0.198 -1.3577 -0.8828  0.3420
 5759TIP3   OH238835   6.508   2.883   0.943 -0.0927  0.2957  0.1989
 5759TIP3    H138836   6.430   2.848   0.901 -0.5747  0.2517  1.1261
 5759TIP3    H238837   6.557   2.805   0.971  0.8893  0.2763 -1.4052
 5760TIP3   OH238838   3.046   2.680   7.102  0.2251  0.2391  0.3070
 5760TIP3    H138839   3.018   2.724   7.022 -0.0582  1.7638  1.2107
 5760TIP3    H238840   2.987   2.713   7.170  1.2134 -0.1048  1.3703
 5761TIP3   OH238841   3.709   0.688   7.292  0.1565  0.2872 -0.4176
 5761TIP3    H138842   3.746   0.696   7.380 -0.9880 -2.1242  0.3757
 5761TIP3    H238843   3.752   0.611   7.255 -3.2046 -2.1857  0.2561
 5762TIP3   OH238844   6.458   1.740   1.064  0.7361 -0.5417 -0.5494
 5762TIP3    H138845   6.505   1.736   0.981  0.2115 -2.1277 -0.8004
 5762TIP3    H238846   6.498   1.670   1.117 -0.3841 -0.9796 -0.2681
 5763TIP3   OH238847   5.744   3.728   0.029 -0.4831  0.7080  0.2415
 5763TIP3    H138848   5.774   3.808   0.072 -0.0872  1.1246 -0.7717
 5763TIP3    H238849   5.685   3.759  -0.040  0.9929  0.2899 -1.2955
 5764TIP3   OH238850   1.895   2.531   1.051  0.0820  0.0827 -0.5232
 5764TIP3    H138851   1.807   2.558   1.076  0.7078  1.9323 -0.1233
 5764TIP3    H238852   1.908   2.569   0.964  1.2379  1.8649  0.3437
 5765TIP3   OH238853   4.588   2.881   2.159  0.4620  0.0469  0.2531
 5765TIP3    H138854   4.596   2.961   2.107  1.2198  0.4312  0.9452
 5765TIP3    H238855   4.497   2.854   2.147  0.1976  1.0018  0.0059
 5766TIP3   OH238856   6.217   6.404   0.878  0.6375  0.0187  0.5030
 5766TIP3    H138857   6.245   6.481   0.829  1.1311 -1.6365 -1.9645
 5766TIP3    H238858   6.123   6.416   0.891  0.0346 -0.3771 -2.7629
 5767TIP3   OH238859   3.545   3.925   7.378 -0.3273 -0.6412  0.1153
 5767TIP3    H138860   3.575   3.863   7.444 -0.4939 -0.2011  0.6154
 5767TIP3    H238861   3.528   3.872   7.300 -1.8811 -1.4713  0.9652
 5768TIP3   OH238862   3.815   6.488   2.087 -0.1387 -0.2533  0.1470
 5768TIP3    H138863   3.898   6.476   2.134 -0.3407 -0.3781  0.4694
 5768TIP3    H238864   3.834   6.458   1.998 -0.1566 -1.3861  0.5067
 5769TIP3   OH238865   6.362   4.017   1.034 -0.1027 -0.3956 -0.6512
 5769TIP3    H138866   6.389   3.963   1.108  0.4167 -0.2470 -0.7269
 5769TIP3    H238867   6.269   4.033   1.049  0.2274  0.5771  0.5837
 5770TIP3   OH238868   3.079   0.532   1.190 -0.0370  0.4467  0.2353
 5770TIP3    H138869   3.062   0.444   1.156 -0.5306  0.4349  0.4998
 5770TIP3    H238870   3.120   0.578   1.118 -1.4021  0.5428 -0.5208
 5771TIP3   OH238871   3.077   6.779   7.101 -0.4631  0.5123 -0.2991
 5771TIP3    H138872   3.139   6.717   7.140 -1.5810  0.2880  1.1718
 5771TIP3    H238873   3.108   6.865   7.130 -1.1787  0.3588  0.9334
 5772TIP3   OH238874   5.650   4.896   6.656 -0.1676  0.3158  0.3936
 5772TIP3    H138875   5.731   4.947   6.645 -0.2415  0.5879  1.0151
 5772TIP3    H238876   5.582   4.953   6.621 -0.3810  1.1051  1.9631
 5773TIP3   OH238877   0.984   5.116   7.110 -0.5448  0.0254 -0.0240
 5773TIP3    H138878   0.941   5.031   7.102  0.4074 -0.3624 -1.1417
 5773TIP3    H238879   1.068   5.105   7.066 -0.4241  1.5614 -0.2144
 5774TIP3   OH238880   1.983   1.038   0.658  0.1267 -0.5698 -0.0442
 5774TIP3    H138881   1.925   1.064   0.587 -0.3609 -0.7068  0.2978
 5774TIP3    H238882   2.013   1.121   0.696 -2.0203 -0.4203  1.5273
 5775TIP3   OH238883   1.932   4.775   6.540 -0.1546  0.5570 -0.4659
 5775TIP3    H138884   1.961   4.866   6.534 -0.3011  0.7474  1.2280
 5775TIP3    H238885   2.013   4.724   6.540 -0.0595  0.6932 -1.0436
 5776TIP3   OH238886   5.950   6.355   1.736  0.1874 -0.0725  0.0983
 5776TIP3    H138887   5.922   6.264   1.736  0.8030 -0.2761  0.8762
 5776TIP3    H238888   5.877   6.403   1.696  0.1635 -0.9847 -0.9858
 5777TIP3   OH238889   6.689   1.421   2.024  0.4765 -0.2689  0.0639
 5777TIP3    H138890   6.678   1.398   2.116  0.0445 -0.7607 -0.1086
 5777TIP3    H238891   6.652   1.509   2.016 -1.1994 -0.9672 -0.0287
 5778TIP3   OH238892   2.299   4.789   7.996 -0.5131  0.0137 -0.1090
 5778TIP3    H138893   2.277   4.716   7.938 -0.6494  0.1205 -0.1895
 5778TIP3    H238894   2.347   4.850   7.941 -0.1867 -0.1230  0.0152
 5779TIP3   OH238895   0.396   6.455   8.229  0.0630 -0.3219 -0.0670
 5779TIP3    H138896   0.369   6.513   8.158 -0.9504 -0.1236  0.4607
 5779TIP3    H238897   0.452   6.510   8.284 -1.0935  0.2622  0.5639
 5780TIP3   OH238898   5.803   4.754   1.661 -0.0200  0.1472  0.7413
 5780TIP3    H138899   5.807   4.834   1.713  0.6209 -0.3431  1.4834
 5780TIP3    H238900   5.841   4.687   1.718  0.5050 -0.4521 -0.2846
 5781TIP3   OH238901   2.889   5.520   1.481  0.0069 -0.0762 -0.1158
 5781TIP3    H138902   2.935   5.490   1.403 -0.8705 -1.1640 -0.2354
 5781TIP3    H238903   2.951   5.506   1.552  0.9013  1.1357 -0.6158
 5782TIP3   OH238904   6.034   3.814   0.647 -0.0035 -0.8403  0.6733
 5782TIP3    H138905   6.102   3.879   0.661  0.0565 -1.0355  1.3038
 5782TIP3    H238906   6.029   3.765   0.729 -2.7017  0.8513  1.6623
 5783TIP3   OH238907   0.281   0.974   7.330 -0.2029  0.2074  0.1938
 5783TIP3    H138908   0.357   0.979   7.272 -0.3564 -1.0423 -0.1430
 5783TIP3    H238909   0.286   0.887   7.369  0.1888  1.1790  2.4909
 5784TIP3   OH238910   6.789   6.699   6.546 -0.3374  0.2296  0.1168
 5784TIP3    H138911   6.740   6.716   6.627 -1.8208 -0.0457 -0.7049
 5784TIP3    H238912   6.784   6.781   6.497 -2.2345 -0.5844 -1.1171
 5785TIP3   OH238913   0.553   5.782   6.487  0.3147  0.3302  0.3962
 5785TIP3    H138914   0.466   5.752   6.463  0.2073 -1.0168  2.2893
 5785TIP3    H238915   0.598   5.703   6.518  1.8418  1.2086  0.5160
 5786TIP3   OH238916   6.251   0.205   6.902 -0.2692 -0.5207 -0.0793
 5786TIP3    H138917   6.214   0.133   6.953  1.6920 -0.5553  1.4551
 5786TIP3    H238918   6.326   0.166   6.857  0.5695  0.4197  0.4509
 5787TIP3   OH238919   0.894   3.194   0.304 -0.0093  0.2798  0.0867
 5787TIP3    H138920   0.915   3.225   0.216  2.1453 -0.9005  0.1103
 5787TIP3    H238921   0.836   3.119   0.290 -1.0633  1.1277 -0.2095
 5788TIP3   OH238922   1.617   5.077   7.902  0.6359  0.7375 -0.2977
 5788TIP3    H138923   1.676   5.002   7.894 -1.9116 -1.2103 -2.5287
 5788TIP3    H238924   1.543   5.044   7.951  1.4256  3.3037  2.9497
 5789TIP3   OH238925   4.490   2.876   6.646 -0.5230 -0.1870 -0.1666
 5789TIP3    H138926   4.508   2.783   6.641 -2.5717 -0.5997 -0.5340
 5789TIP3    H238927   4.459   2.890   6.736 -1.3140 -0.0769 -0.4547
 5790TIP3   OH238928   1.732   1.080   1.680 -0.2012  0.2942  0.2919
 5790TIP3    H138929   1.712   1.011   1.744 -0.1666  0.6949  0.7368
 5790TIP3    H238930   1.813   1.051   1.639 -0.4678 -0.1960  0.0987
 5791TIP3   OH238931   3.955   5.315   7.688 -0.2774 -0.4502  0.2673
 5791TIP3    H138932   3.914   5.348   7.767  0.9431 -0.3771  0.8860
 5791TIP3    H238933   3.989   5.392   7.644 -0.2543 -0.5706  0.0719
 5792TIP3   OH238934   6.561   1.239   7.766 -0.3579  0.2492  0.1616
 5792TIP3    H138935   6.557   1.148   7.794  0.9602  0.1541  0.0971
 5792TIP3    H238936   6.654   1.256   7.751 -0.6316  1.4566 -0.3255
 5793TIP3   OH238937   1.913   3.210   1.616  0.0643  0.0290 -0.0700
 5793TIP3    H138938   1.964   3.252   1.547  3.0415 -2.2087  0.5709
 5793TIP3    H238939   1.946   3.120   1.619 -1.2509 -0.4694  3.0289
 5794TIP3   OH238940   3.744   5.881   8.090  0.9001 -0.2956 -0.0304
 5794TIP3    H138941   3.803   5.840   8.153  1.1268 -0.8217 -0.5661
 5794TIP3    H238942   3.785   5.864   8.005 -0.0914 -0.8176 -0.4285
 5795TIP3   OH238943   4.893   3.961   2.186  0.1004  0.0555 -0.0763
 5795TIP3    H138944   4.926   3.900   2.120 -1.2285 -0.2577 -0.4713
 5795TIP3    H238945   4.891   3.910   2.267 -1.3573 -0.5789 -0.4778
 5796TIP3   OH238946   5.476   2.071   0.696  0.2633 -0.6804  0.2030
 5796TIP3    H138947   5.435   2.064   0.783 -1.4515  0.5096 -0.4648
 5796TIP3    H238948   5.467   1.983   0.659 -4.0286 -0.0476 -0.8350
 5797TIP3   OH238949   2.046   5.537   8.433 -0.3455 -0.0730  0.1301
 5797TIP3    H138950   2.054   5.504   8.523 -0.0505  0.7043  0.3991
 5797TIP3    H238951   1.956   5.517   8.407  0.2838 -2.6053 -0.3468
 5798TIP3   OH238952   6.343   4.368   7.763 -0.0460 -0.6497 -0.0043
 5798TIP3    H138953   6.393   4.443   7.795 -0.3784  0.5109 -2.0429
 5798TIP3    H238954   6.304   4.329   7.842 -1.8856  2.7860  0.9611
 5799TIP3   OH238955   5.282   0.929   0.471  0.6881 -0.1702 -0.2532
 5799TIP3    H138956   5.241   0.929   0.557  0.7302 -0.8893 -0.2319
 5799TIP3    H238957   5.208   0.926   0.410  0.6397  0.8053 -0.2612
 5800TIP3   OH238958   2.946   2.798   1.484 -0.1186 -0.0236  0.1954
 5800TIP3    H138959   2.934   2.807   1.579  0.3187  0.5645  0.2085
 5800TIP3    H238960   2.878   2.853   1.446  0.4843  0.7582  0.2059
 5801TIP3   OH238961   6.722   5.139   1.594 -0.3192  0.1442  0.4046
 5801TIP3    H138962   6.681   5.061   1.631  0.1566 -1.4093 -2.1676
 5801TIP3    H238963   6.684   5.148   1.507  0.8008  1.8839  0.0386
 5802TIP3   OH238964   3.449   6.418   1.688  0.5917 -0.4727 -0.0528
 5802TIP3    H138965   3.426   6.328   1.710 -2.1995  0.5284  1.6976
 5802TIP3    H238966   3.509   6.445   1.758 -1.4311  0.0211  1.6159
 5803TIP3   OH238967   2.758   1.938   8.168  0.5367  0.8289  0.0310
 5803TIP3    H138968   2.835   1.942   8.110  1.2184 -0.1237  0.8274
 5803TIP3    H238969   2.795   1.946   8.256 -0.3159  0.6326  0.4121
 5804TIP3   OH238970   5.847   1.452   1.423  0.2435  0.4021  0.1518
 5804TIP3    H138971   5.765   1.404   1.434  2.1731 -2.6787  3.4523
 5804TIP3    H238972   5.871   1.438   1.332 -1.8214 -0.4532 -0.3129
 5805TIP3   OH238973   0.960   2.284   7.025  0.3552  0.6122 -0.1279
 5805TIP3    H138974   0.902   2.271   7.100  0.3038  3.0845  0.3565
 5805TIP3    H238975   1.013   2.205   7.021 -1.2571 -0.5926  1.0310
 5806TIP3   OH238976   4.480   5.840   0.608 -0.0624  0.3616 -0.1900
 5806TIP3    H138977   4.550   5.900   0.632  0.5223  0.1381 -1.2583
 5806TIP3    H238978   4.466   5.856   0.514 -0.6973 -0.3510 -0.2245
 5807TIP3   OH238979   6.420   4.779   0.061  0.6525  0.7343  0.1655
 5807TIP3    H138980   6.337   4.826   0.054 -0.0771 -0.7250 -1.4998
 5807TIP3    H238981   6.420   4.718  -0.012  1.8459 -1.4303  1.8449
 5808TIP3   OH238982   4.383   0.310   0.479 -0.0037  0.0223 -0.7180
 5808TIP3    H138983   4.348   0.399   0.482 -1.9493 -0.7229  0.7412
 5808TIP3    H238984   4.446   0.307   0.551 -1.3091 -0.2594  0.4596
 5809TIP3   OH238985   5.596   1.624   7.626 -0.2000  0.3546  0.1378
 5809TIP3    H138986   5.557   1.710   7.610 -1.1584 -0.0002  0.4605
 5809TIP3    H238987   5.630   1.597   7.541 -0.7547  0.6452 -0.1881
 5810TIP3   OH238988   4.264   6.641   2.786 -0.1805 -0.2049  0.3166
 5810TIP3    H138989   4.288   6.716   2.732 -2.9427  0.2941 -0.3686
 5810TIP3    H238990   4.200   6.593   2.733 -0.7928 -1.3261  1.9890
 5811TIP3   OH238991   4.736   3.394   1.143 -0.1005  0.1697  0.3551
 5811TIP3    H138992   4.715   3.354   1.228  1.1246  1.4722  1.3203
 5811TIP3    H238993   4.679   3.470   1.137  0.3205  0.4903  0.3605
 5812TIP3   OH238994   1.945   5.785   2.505  0.2347  0.2576 -0.1454
 5812TIP3    H138995   1.977   5.819   2.588 -0.3025  0.4729 -0.0244
 5812TIP3    H238996   1.962   5.691   2.509  1.0868  0.3984 -0.1929
 5813TIP3   OH238997   6.199   2.454   2.335  0.6407  0.2664  0.7374
 5813TIP3    H138998   6.157   2.535   2.307 -0.4763 -0.8875 -1.2283
 5813TIP3    H238999   6.125   2.395   2.353  1.2426 -1.6186 -2.1678
 5814TIP3   OH239000   1.251   5.528   0.963  0.7359 -0.2121  0.0156
 5814TIP3    H139001   1.313   5.490   1.025 -0.3420 -0.1056  1.2109
 5814TIP3    H239002   1.205   5.452   0.926 -1.2498 -0.1796  2.2234
 5815TIP3   OH239003   5.069   5.771   8.305 -0.1863  0.0855 -0.3084
 5815TIP3    H139004   5.147   5.715   8.301  0.0755  0.3407  0.8924
 5815TIP3    H239005   4.995   5.710   8.297  0.0995 -0.4629  0.9335
 5816TIP3   OH239006   4.123   1.328   7.451  0.6101 -0.9208 -0.5512
 5816TIP3    H139007   4.177   1.270   7.505  1.0149 -0.8521 -0.8763
 5816TIP3    H239008   4.034   1.315   7.483  0.9463 -0.2027  0.7444
 5817TIP3   OH239009   4.210   0.978   0.402 -0.5713  0.0713  0.0302
 5817TIP3    H139010   4.171   0.968   0.315 -0.0988  1.0080 -0.2910
 5817TIP3    H239011   4.137   0.962   0.462 -0.9359 -0.4220 -0.5299
 5818TIP3   OH239012   0.538   1.317   0.177  0.0893  1.0287  0.5196
 5818TIP3    H139013   0.449   1.337   0.150 -0.5537 -0.0639  1.6835
 5818TIP3    H239014   0.527   1.262   0.255  1.7398 -0.5117 -0.2608
 5819TIP3   OH239015   2.653   3.213   1.281  0.0901  0.6675  0.1176
 5819TIP3    H139016   2.670   3.175   1.367 -1.6826  1.6309  0.9510
 5819TIP3    H239017   2.641   3.138   1.223 -1.5740 -0.0577  1.3330
 5820TIP3   OH239018   4.071   6.752   1.927 -0.5670  0.3406  0.3160
 5820TIP3    H139019   4.138   6.704   1.975 -0.5022 -0.7969 -0.8703
 5820TIP3    H239020   4.013   6.684   1.892 -1.7450  1.2465  0.4394
 5821TIP3   OH239021   0.358   0.994   0.038  0.1570  0.6474 -0.3694
 5821TIP3    H139022   0.264   0.986   0.050  0.3795  0.8535  1.8977
 5821TIP3    H239023   0.392   1.013   0.125  2.6418 -2.5011 -0.4535
 5822TIP3   OH239024   6.274   5.498   1.329 -0.9407 -0.1125  0.3143
 5822TIP3    H139025   6.299   5.456   1.247 -1.4098 -1.2078  0.7122
 5822TIP3    H239026   6.215   5.435   1.371 -1.3350  0.7759  1.1271
 5823TIP3   OH239027   5.305   6.647   0.437 -0.0492 -0.4263  0.2934
 5823TIP3    H139028   5.230   6.589   0.451 -1.3371  0.5640 -1.9277
 5823TIP3    H239029   5.296   6.714   0.505 -0.1589 -1.2592  1.1211
 5824TIP3   OH239030   6.766   3.193   7.115  0.4952 -0.0733 -0.2720
 5824TIP3    H139031   6.766   3.287   7.097 -0.1174 -0.0909 -0.3658
 5824TIP3    H239032   6.754   3.187   7.210  2.1088 -0.0238 -0.0389
 5825TIP3   OH239033   2.345   0.834   1.506  0.4073 -0.1135 -0.1014
 5825TIP3    H139034   2.340   0.747   1.546 -0.8851 -0.1367 -0.2732
 5825TIP3    H239035   2.254   0.863   1.501  0.4993 -0.0696 -2.9392
 5826TIP3   OH239036   2.682   6.073   6.755 -0.2145  0.2974 -0.2306
 5826TIP3    H139037   2.657   6.026   6.834 -1.5529  1.5662  0.1514
 5826TIP3    H239038   2.746   6.138   6.785 -1.0012  1.0271 -0.0945
 5827TIP3   OH239039   4.481   6.237   0.580 -0.2580 -0.4848  0.5189
 5827TIP3    H139040   4.408   6.250   0.520  1.4033 -0.8796 -1.6930
 5827TIP3    H239041   4.558   6.234   0.524  1.4962 -0.0138  2.7667
 5828TIP3   OH239042   2.056   4.209   1.160  0.8504 -0.1506  0.1703
 5828TIP3    H139043   2.093   4.163   1.235  1.8870  1.8692  0.9730
 5828TIP3    H239044   1.963   4.186   1.161  0.3072  1.6356  3.5504
 5829TIP3   OH239045   1.844   5.018   0.897  0.0483 -0.3200 -0.1820
 5829TIP3    H139046   1.936   5.043   0.907  1.3600 -4.6244  0.9107
 5829TIP3    H239047   1.843   4.962   0.819 -1.2899 -1.5663  0.6861
 5830TIP3   OH239048   2.471   0.545   1.199 -0.1683 -0.2106 -0.0287
 5830TIP3    H139049   2.467   0.472   1.260 -0.9962  1.2048  1.6935
 5830TIP3    H239050   2.398   0.602   1.224  1.6818  2.2702  0.1318
 5831TIP3   OH239051   4.095   0.131   0.396  0.2072  0.1818  0.0121
 5831TIP3    H139052   4.089   0.110   0.489 -1.7498  0.1909 -0.0639
 5831TIP3    H239053   4.172   0.083   0.366  0.8187  0.0935  1.5936
 5832TIP3   OH239054   3.320   4.625   6.102  0.3370 -0.1328 -0.3775
 5832TIP3    H139055   3.282   4.574   6.031  1.8897  0.6929 -1.8977
 5832TIP3    H239056   3.369   4.694   6.058  0.1923  1.2905  1.5579
 5833TIP3   OH239057   3.651   1.776   1.647 -0.0602 -0.3836 -0.7321
 5833TIP3    H139058   3.603   1.779   1.729  0.0309  2.4775 -0.6778
 5833TIP3    H239059   3.584   1.766   1.580 -0.1368 -2.6995 -0.4069
 5834TIP3   OH239060   5.946   6.104   7.886 -0.0085  0.0418 -0.2591
 5834TIP3    H139061   5.959   6.017   7.848  1.9389 -0.0579  0.5449
 5834TIP3    H239062   5.909   6.086   7.973 -0.5145  0.0840 -0.4596
 5835TIP3   OH239063   1.419   3.385   6.544 -0.8936  0.2074  1.1672
 5835TIP3    H139064   1.390   3.295   6.527 -0.7880  0.1056  1.5269
 5835TIP3    H239065   1.510   3.388   6.515 -1.0372  0.3238  0.7270
 5836TIP3   OH239066   3.098   4.991   0.855 -0.0805  0.3154 -0.6187
 5836TIP3    H139067   3.135   4.909   0.888  0.1300  0.6795  0.0699
 5836TIP3    H239068   3.128   4.997   0.765 -0.1407 -0.3934 -0.6881
 5837TIP3   OH239069   3.707   6.343   8.169 -0.1068 -0.8946  0.7020
 5837TIP3    H139070   3.731   6.427   8.130 -0.1431 -0.2889  1.9286
 5837TIP3    H239071   3.788   6.311   8.208 -0.6997  0.1258  2.9794
 5838TIP3   OH239072   4.494   3.320   0.724 -0.4241 -0.4002  0.6401
 5838TIP3    H139073   4.490   3.413   0.748  0.4490  0.4449 -2.0198
 5838TIP3    H239074   4.441   3.275   0.789 -1.5988  2.0935  1.5088
 5839TIP3   OH239075   1.899   3.816   6.847  0.8219  0.1172  0.0014
 5839TIP3    H139076   1.899   3.877   6.773 -0.1090  0.1524  0.0153
 5839TIP3    H239077   1.854   3.738   6.812  0.6812  0.0072  0.4264
 5840TIP3   OH239078   1.321   5.778   0.275  0.3343 -0.1548  0.4326
 5840TIP3    H139079   1.331   5.796   0.181 -0.1779  1.0706  0.5949
 5840TIP3    H239080   1.401   5.729   0.298  0.7699  0.0805 -0.5030
 5841TIP3   OH239081   3.466   0.399   7.286 -0.4966 -0.1752  0.1241
 5841TIP3    H139082   3.432   0.343   7.216 -0.3144 -0.2591  0.1026
 5841TIP3    H239083   3.557   0.372   7.296 -0.8224 -0.9369  1.1534
 5842TIP3   OH239084   1.604   3.333   7.547 -0.1161 -0.4434 -0.2958
 5842TIP3    H139085   1.596   3.249   7.503  0.0972 -0.3893 -0.4433
 5842TIP3    H239086   1.643   3.313   7.632  1.5802 -0.3166 -1.0089
 5843TIP3   OH239087   1.841   5.240   7.503  0.4456 -0.1559 -0.3550
 5843TIP3    H139088   1.902   5.303   7.467  1.2549 -0.0059  1.2056
 5843TIP3    H239089   1.888   5.156   7.499 -0.3993 -0.6092 -1.8668
 5844TIP3   OH239090   5.254   4.898   1.420 -0.2742  0.3271 -0.2723
 5844TIP3    H139091   5.265   4.957   1.345  0.3145  0.0200 -0.4372
 5844TIP3    H239092   5.229   4.814   1.381 -0.0369  0.1859 -0.1259
 5845TIP3   OH239093   3.516   2.301   7.819  0.2745  0.5778  0.3032
 5845TIP3    H139094   3.608   2.280   7.803  0.5783 -0.8320  3.2015
 5845TIP3    H239095   3.519   2.376   7.880 -0.4491  0.0747  0.9798
 5846TIP3   OH239096   1.161   1.942   7.414 -0.0446 -0.3848 -0.1057
 5846TIP3    H139097   1.078   1.985   7.393 -1.4015 -3.3018 -1.1457
 5846TIP3    H239098   1.221   2.015   7.429 -2.1860  1.8778 -1.5767
 5847TIP3   OH239099   1.361   1.362   1.011  0.2095  0.9905 -0.1904
 5847TIP3    H139100   1.272   1.374   0.978 -0.3795 -2.1749 -0.1093
 5847TIP3    H239101   1.416   1.410   0.950 -1.3899  1.0273 -1.6950
 5848TIP3   OH239102   2.704   2.233   2.525  0.6121 -0.4362 -0.1734
 5848TIP3    H139103   2.705   2.181   2.606  0.9164 -0.2300 -0.0416
 5848TIP3    H239104   2.791   2.218   2.486  2.1511  2.7172  1.6494
 5849TIP3   OH239105   5.451   4.285   1.696  0.0616  0.0088  0.6356
 5849TIP3    H139106   5.493   4.216   1.748  0.3255 -0.6802 -0.4507
 5849TIP3    H239107   5.430   4.242   1.613  0.5458  1.3168 -0.1930
 5850TIP3   OH239108   5.630   2.231   6.773 -0.3267  0.3784  0.2122
 5850TIP3    H139109   5.576   2.156   6.749 -0.8287 -0.0841  2.5280
 5850TIP3    H239110   5.574   2.307   6.757 -0.6451  0.0923 -0.0354
 5851TIP3   OH239111   4.854   6.803   7.430  0.3273 -0.0511  0.5721
 5851TIP3    H139112   4.791   6.873   7.446  1.4037  1.2028 -0.4301
 5851TIP3    H239113   4.806   6.723   7.448 -1.5668  0.8432 -0.2237
 5852TIP3   OH239114   1.231   1.490   8.255 -0.5455  0.1923 -0.3395
 5852TIP3    H139115   1.166   1.441   8.305  0.7445 -1.1708  0.0814
 5852TIP3    H239116   1.206   1.476   8.163 -1.0726  0.0218 -0.1685
 5853TIP3   OH239117   2.255   0.666   2.573  0.3696 -0.0700  0.2768
 5853TIP3    H139118   2.171   0.622   2.578  0.9168 -1.3765 -1.4047
 5853TIP3    H239119   2.233   0.759   2.568 -0.8665 -0.2412  1.7607
 5854TIP3   OH239120   4.508   0.883   0.124 -0.1135  0.5204  0.6596
 5854TIP3    H139121   4.576   0.873   0.191  0.9655  0.3954 -0.4172
 5854TIP3    H239122   4.477   0.973   0.135  0.7660  0.8312  0.6988
 5855TIP3   OH239123   2.909   3.685   7.966 -0.2166 -0.1204  0.4347
 5855TIP3    H139124   2.860   3.648   8.039 -1.6253  0.0690 -0.3831
 5855TIP3    H239125   2.924   3.610   7.908 -0.6076  0.0594  0.1030
 5856TIP3   OH239126   4.254   5.390   7.911 -0.1064  0.0140 -0.2066
 5856TIP3    H139127   4.325   5.405   7.849 -0.0211  0.0055 -0.1122
 5856TIP3    H239128   4.296   5.343   7.984  0.1329  1.3842  0.5741
 5857TIP3   OH239129   4.545   2.819   0.013 -0.4097  0.6620  0.3720
 5857TIP3    H139130   4.630   2.806  -0.029  0.3937  1.5169  1.6533
 5857TIP3    H239131   4.567   2.851   0.101 -2.0449  0.1625  0.9899
 5858TIP3   OH239132   3.641   5.550   8.084 -0.0228 -0.9984 -0.0973
 5858TIP3    H139133   3.711   5.514   8.138 -1.7463 -2.8360  1.0386
 5858TIP3    H239134   3.683   5.565   7.999  1.3095 -4.2508 -0.2029
 5859TIP3   OH239135   0.048   5.995   1.798 -0.0474 -0.0533  0.3885
 5859TIP3    H139136   0.020   5.908   1.769 -1.3465  0.5038 -0.1044
 5859TIP3    H239137   0.091   5.979   1.883 -0.0666 -1.1907  0.2062
 5860TIP3   OH239138   4.806   0.618   8.009  0.7203  0.2797 -0.2388
 5860TIP3    H139139   4.795   0.527   7.981 -2.4556  0.0404  1.4046
 5860TIP3    H239140   4.789   0.669   7.930 -0.1174 -0.5104 -0.5838
 5861TIP3   OH239141   0.650   1.720   0.758 -0.0509  0.2809 -0.2127
 5861TIP3    H139142   0.597   1.759   0.688 -2.4168  0.6720  1.6698
 5861TIP3    H239143   0.669   1.792   0.817  0.1895 -0.4040  0.5583
 5862TIP3   OH239144   1.565   4.472   8.667  0.0521 -0.4132  0.4449
 5862TIP3    H139145   1.595   4.505   8.582 -1.8254 -0.4265 -0.2626
 5862TIP3    H239146   1.513   4.543   8.703  0.8137 -0.4204  1.6056
 5863TIP3   OH239147   1.975   5.365   0.556  0.4493 -0.3180  0.5995
 5863TIP3    H139148   1.949   5.431   0.491 -0.0781 -1.1651 -0.0754
 5863TIP3    H239149   1.893   5.321   0.579  0.6698 -0.1592  1.7029
 5864TIP3   OH239150   2.844   0.409   6.639 -0.1555  0.0356 -0.5885
 5864TIP3    H139151   2.863   0.495   6.677  0.5448 -0.2185 -0.3456
 5864TIP3    H239152   2.766   0.379   6.685 -0.4627  0.5808 -0.7431
 5865TIP3   OH239153   2.064   6.781   8.364 -0.4567  0.1000  0.5014
 5865TIP3    H139154   2.140   6.725   8.357  0.3902  1.1278  1.1922
 5865TIP3    H239155   2.016   6.748   8.440 -0.5366 -0.3486  0.2563
 5866TIP3   OH239156   0.567   6.117   7.153  0.9094 -0.6597 -0.2617
 5866TIP3    H139157   0.524   6.132   7.069  0.4672  0.5010  0.1553
 5866TIP3    H239158   0.643   6.176   7.152  0.9330 -0.6826  0.1250
 5867TIP3   OH239159   0.223   1.246   0.574  0.8249  0.5621  0.2890
 5867TIP3    H139160   0.170   1.239   0.495 -0.7005 -0.0182  1.3203
 5867TIP3    H239161   0.180   1.313   0.627  1.7987  0.9138  0.6702
 5868TIP3   OH239162   5.498   4.286   2.060  0.3083  0.4287  0.5425
 5868TIP3    H139163   5.485   4.335   2.141  2.1177 -1.3657  1.9975
 5868TIP3    H239164   5.586   4.250   2.067 -0.3841 -1.7998 -1.1110
 5869TIP3   OH239165   6.722   4.851   1.786 -0.1415  0.1406  0.1389
 5869TIP3    H139166   6.688   4.891   1.865 -0.0733 -0.2597  0.3723
 5869TIP3    H239167   6.817   4.857   1.794 -0.1204  2.1278 -0.9523
 5870TIP3   OH239168   0.135   2.642   0.252 -0.2611 -0.5487 -0.0541
 5870TIP3    H139169   0.137   2.723   0.202  1.2795 -0.0152  0.8208
 5870TIP3    H239170   0.163   2.575   0.189 -0.1464 -0.1797 -0.4054
 5871TIP3   OH239171   4.979   1.621   1.735  0.2354 -0.2351 -0.3402
 5871TIP3    H139172   5.025   1.544   1.703  0.3469 -0.7955  1.0965
 5871TIP3    H239173   5.036   1.656   1.804  0.0094  0.9239 -0.7203
 5872TIP3   OH239174   1.414   0.065   8.076  0.0043  0.5256 -0.0397
 5872TIP3    H139175   1.485   0.006   8.051 -1.6259 -1.0990 -1.1399
 5872TIP3    H239176   1.353   0.009   8.124 -1.5106  1.3257 -0.9593
 5873TIP3   OH239177   0.775   5.039   7.436 -0.3485  0.0312  0.5290
 5873TIP3    H139178   0.829   4.973   7.391  0.6434 -0.4209  2.3101
 5873TIP3    H239179   0.833   5.079   7.499 -1.3481  1.6400  0.4833
 5874TIP3   OH239180   3.220   1.158   1.812 -0.6859  0.0080 -0.5359
 5874TIP3    H139181   3.294   1.135   1.869 -1.4747 -1.9251 -0.2242
 5874TIP3    H239182   3.223   1.253   1.806  1.4764  0.0254 -0.0522
 5875TIP3   OH239183   6.810   4.678   0.615 -0.4758 -0.2932 -0.1024
 5875TIP3    H139184   6.823   4.692   0.709 -1.1876  3.1460 -0.4130
 5875TIP3    H239185   6.760   4.596   0.610 -1.2345 -0.0894  2.5655
 5876TIP3   OH239186   2.087   0.959   2.465  0.4541 -0.5027 -0.4096
 5876TIP3    H139187   2.017   0.977   2.528  0.3661 -0.3014 -0.5635
 5876TIP3    H239188   2.159   0.926   2.519  0.6658  0.4417 -0.1046
 5877TIP3   OH239189   3.282   3.900   6.915 -0.4925  0.5492  0.0758
 5877TIP3    H139190   3.214   3.837   6.940  0.9788 -0.5190  1.6089
 5877TIP3    H239191   3.341   3.902   6.990  0.1371  2.9324 -0.4105
 5878TIP3   OH239192   3.243   3.061   1.147  0.1447 -0.3339  0.0561
 5878TIP3    H139193   3.325   3.083   1.191  0.5582  0.7136 -1.1976
 5878TIP3    H239194   3.188   3.024   1.216  2.0028 -2.0038  0.7388
 5879TIP3   OH239195   3.617   0.434   1.054  0.3725 -0.4723 -0.4771
 5879TIP3    H139196   3.689   0.464   1.110  1.0155 -1.5405 -0.6836
 5879TIP3    H239197   3.584   0.356   1.099 -0.4714 -0.1573 -0.5428
 5880TIP3   OH239198   4.949   0.072   8.288 -0.1354 -0.9374  0.1831
 5880TIP3    H139199   4.875   0.012   8.287 -0.3654 -0.6535 -0.6586
 5880TIP3    H239200   4.948   0.110   8.375 -0.1239 -1.9806  0.6516
 5881TIP3   OH239201   6.337   5.213   0.692  0.0860 -0.0199 -0.1265
 5881TIP3    H139202   6.373   5.258   0.615  0.1696  0.5167  0.2201
 5881TIP3    H239203   6.245   5.199   0.670 -0.1089  0.9471  0.0307
 5882TIP3   OH239204   4.375   1.993   1.421  0.1376 -0.1693  0.1599
 5882TIP3    H139205   4.378   1.992   1.325  2.1575  1.9371  0.1060
 5882TIP3    H239206   4.290   2.032   1.442 -0.4474 -0.9158 -0.7475
 5883TIP3   OH239207   4.855   1.174   0.042 -0.2638 -0.0084 -0.5923
 5883TIP3    H139208   4.825   1.113  -0.025 -0.8643 -0.8109  0.3797
 5883TIP3    H239209   4.812   1.145   0.123 -0.2804  1.4908 -0.0326
 5884TIP3   OH239210   6.514   1.531   6.814  0.3393 -0.1232  0.4120
 5884TIP3    H139211   6.554   1.606   6.770 -0.7340  0.1282 -0.1622
 5884TIP3    H239212   6.541   1.456   6.762  0.4416 -0.0092  0.3000
 5885TIP3   OH239213   5.160   5.907   1.130 -0.2268 -0.4701  0.0564
 5885TIP3    H139214   5.066   5.888   1.136 -0.2795 -0.2290 -0.0231
 5885TIP3    H239215   5.165   5.991   1.085  0.0329 -0.5436 -0.0547
 5886TIP3   OH239216   2.381   4.060   0.094  0.5697  0.2697  0.1968
 5886TIP3    H139217   2.476   4.072   0.094  0.9549 -2.3250 -0.2021
 5886TIP3    H239218   2.367   3.976   0.051 -2.0439  1.3115 -1.2001
 5887TIP3   OH239219   0.586   4.276   8.686 -0.0594 -0.4012 -0.1303
 5887TIP3    H139220   0.551   4.271   8.775 -0.6047  0.2338 -0.3088
 5887TIP3    H239221   0.537   4.346   8.644  2.7032  1.9011  0.1984
 5888TIP3   OH239222   3.951   2.563   0.876  0.5386 -0.6899  0.4123
 5888TIP3    H139223   4.014   2.562   0.948  0.5382 -0.5756  0.4143
 5888TIP3    H239224   4.004   2.580   0.798  0.4436 -0.0450  0.4818
 5889TIP3   OH239225   3.089   5.028   6.574 -0.0352  0.1260  0.3844
 5889TIP3    H139226   3.111   5.070   6.658  0.5656 -3.1736  2.0475
 5889TIP3    H239227   3.172   5.016   6.530 -0.0603 -0.2030  0.4188
 5890TIP3   OH239228   0.970   3.062   0.927 -0.4367  0.7479  0.0433
 5890TIP3    H139229   0.999   2.992   0.868 -1.0119 -1.6413  2.4109
 5890TIP3    H239230   1.034   3.132   0.913 -0.7272  0.4625 -3.5484
 5891TIP3   OH239231   0.615   2.712   6.978  0.6526  0.2489  0.3657
 5891TIP3    H139232   0.561   2.633   6.972 -2.3195  2.0871  0.8423
 5891TIP3    H239233   0.691   2.686   7.031 -1.1288 -1.8448  2.0733
 5892TIP3   OH239234   3.407   5.578   8.467  0.2503  0.2900 -0.2453
 5892TIP3    H139235   3.342   5.569   8.398  0.6998  0.5317 -0.7046
 5892TIP3    H239236   3.481   5.622   8.425  0.0320  1.6108  0.7060
 5893TIP3   OH239237   2.997   1.314   1.122 -0.9483 -0.0864 -0.1431
 5893TIP3    H139238   2.925   1.376   1.127  0.2859  1.8023 -3.2123
 5893TIP3    H239239   3.010   1.284   1.212 -3.8010  1.4876  0.8909
 5894TIP3   OH239240   4.781   4.109   2.488  0.3679  0.4209  0.7478
 5894TIP3    H139241   4.838   4.179   2.456  0.0228  1.2471  1.8563
 5894TIP3    H239242   4.771   4.129   2.581 -0.0471 -0.9060  0.9960
 5895TIP3   OH239243   2.474   2.274   7.783  0.3378 -1.0486  0.5392
 5895TIP3    H139244   2.442   2.304   7.868 -1.3372 -2.8670  0.6208
 5895TIP3    H239245   2.557   2.230   7.803 -0.0279 -1.4350  1.2414
 5896TIP3   OH239246   5.534   3.772   7.917 -0.3047 -0.2164 -0.5647
 5896TIP3    H139247   5.614   3.792   7.868 -0.1173 -0.3546 -0.3221
 5896TIP3    H239248   5.547   3.682   7.948 -0.3899 -0.1089 -0.2109
 5897TIP3   OH239249   4.968   0.035   1.733  0.5685 -0.1619 -0.4849
 5897TIP3    H139250   4.885   0.001   1.769  1.3007 -1.2609  0.2282
 5897TIP3    H239251   4.949   0.053   1.641 -0.7384  0.5658 -0.0985
 5898TIP3   OH239252   4.070   6.435   7.448 -0.3219 -0.1040 -0.1390
 5898TIP3    H139253   4.136   6.426   7.518 -0.2348  0.7610 -0.0986
 5898TIP3    H239254   4.087   6.361   7.390 -0.2635 -0.7260  0.6454
 5899TIP3   OH239255   2.418   3.885   0.643 -0.1172 -0.1443  0.7654
 5899TIP3    H139256   2.426   3.801   0.687 -0.7395  0.2837  1.7188
 5899TIP3    H239257   2.421   3.950   0.713  1.0652  0.6883 -0.0050
 5900TIP3   OH239258   4.685   6.791   1.768  0.3057 -0.4013 -0.5060
 5900TIP3    H139259   4.632   6.868   1.749 -0.1294 -0.7517 -0.7254
 5900TIP3    H239260   4.660   6.727   1.701  0.7239 -0.7061 -0.3800
 5901TIP3   OH239261   1.551   1.432   0.684 -0.0256 -0.4485  0.5377
 5901TIP3    H139262   1.457   1.423   0.672  0.0060 -0.4570  0.2995
 5901TIP3    H239263   1.586   1.447   0.596  0.1550 -0.0999  0.6666
 5902TIP3   OH239264   6.568   5.789   6.851 -0.5069 -0.7458 -0.0511
 5902TIP3    H139265   6.646   5.768   6.799 -0.4778 -0.0908 -0.2956
 5902TIP3    H239266   6.514   5.841   6.791  0.1879  1.2951  1.0088
 5903TIP3   OH239267   6.204   6.080   1.726 -0.3054  0.7056 -0.5563
 5903TIP3    H139268   6.139   6.096   1.658  0.2010  1.7689 -0.8174
 5903TIP3    H239269   6.219   6.166   1.765  0.4097  0.3414 -0.0101
 5904TIP3   OH239270   3.798   5.118   6.464  0.0931  0.0526  0.1059
 5904TIP3    H139271   3.707   5.146   6.456 -0.1527 -0.9211 -0.8341
 5904TIP3    H239272   3.849   5.189   6.424 -0.1317  1.1553  1.7093
 5905TIP3   OH239273   2.507   5.041   1.262  0.2169  0.0831 -0.3545
 5905TIP3    H139274   2.443   4.979   1.298  0.3973 -0.4583 -0.9508
 5905TIP3    H239275   2.453   5.108   1.220  0.0153 -1.0077 -1.9276
 5906TIP3   OH239276   1.034   5.669   0.846  0.2342 -0.5245  0.1595
 5906TIP3    H139277   1.104   5.612   0.878  0.2222  0.0177  1.1984
 5906TIP3    H239278   0.965   5.661   0.912 -0.1907 -0.1139 -0.2281
 5907TIP3   OH239279   6.433   0.297   1.772 -0.1330  0.3031 -0.1337
 5907TIP3    H139280   6.505   0.241   1.802  0.1898  0.8849  0.1957
 5907TIP3    H239281   6.442   0.299   1.677 -0.3243 -0.4430 -0.1688
 5908TIP3   OH239282   6.283   2.622   7.944  0.3474  0.1616  0.1534
 5908TIP3    H139283   6.282   2.582   8.032 -0.3875 -0.1465  0.0125
 5908TIP3    H239284   6.237   2.705   7.955  0.5186  0.2634  0.1151
 5909TIP3   OH239285   5.099   5.045   1.602  0.0792 -0.2450  0.0188
 5909TIP3    H139286   5.163   5.005   1.543 -0.4203  0.1130 -0.7893
 5909TIP3    H239287   5.021   5.056   1.548 -0.2379  0.5330  0.6114
 5910TIP3   OH239288   4.261   5.953   8.282 -0.1794 -0.3693 -0.4195
 5910TIP3    H139289   4.212   5.964   8.200 -1.4401 -0.4355  0.2959
 5910TIP3    H239290   4.203   5.991   8.349  1.1467  0.3530  0.3506
 5911TIP3   OH239291   0.476   1.040   7.152  0.1991 -0.5269 -0.5306
 5911TIP3    H139292   0.564   1.032   7.114 -0.0319  1.1135 -1.4884
 5911TIP3    H239293   0.420   1.063   7.079 -0.6656  0.4515  0.4084
 5912TIP3   OH239294   6.582   4.592   6.819 -0.1364  0.5062  0.1591
 5912TIP3    H139295   6.662   4.567   6.773  0.4376 -1.6951  2.1237
 5912TIP3    H239296   6.597   4.682   6.848  1.3093  0.3796 -0.1464
 5913TIP3   OH239297   4.033   2.048   8.010  0.2789 -0.5035 -0.3847
 5913TIP3    H139298   3.990   2.097   8.080  1.8470 -0.3790  0.5372
 5913TIP3    H239299   3.963   1.995   7.972 -1.1816  1.4029 -0.5314
 5914TIP3   OH239300   1.308   1.016   2.407 -0.0360  0.2600 -0.0330
 5914TIP3    H139301   1.276   1.027   2.317  1.1958 -0.9295 -0.6415
 5914TIP3    H239302   1.368   0.942   2.402  0.5589  0.5993  1.6528
 5915TIP3   OH239303   5.463   6.666   2.851  0.2012 -0.6212 -0.0003
 5915TIP3    H139304   5.420   6.611   2.786 -0.6918 -0.1909  0.2008
 5915TIP3    H239305   5.555   6.664   2.828 -0.2433  0.7158 -2.2258
 5916TIP3   OH239306   6.092   5.018   0.333 -0.2782  0.4922 -0.8175
 5916TIP3    H139307   6.038   5.095   0.314 -1.6358 -0.4807 -1.0647
 5916TIP3    H239308   6.038   4.965   0.393  1.4737  0.6688  1.0158
 5917TIP3   OH239309   6.030   0.315   6.727  0.2282 -0.6111 -0.2106
 5917TIP3    H139310   5.982   0.253   6.782  0.1762 -3.0719 -2.7972
 5917TIP3    H239311   6.122   0.290   6.737  0.5770  1.0207  1.1037
 5918TIP3   OH239312   5.893   5.002   6.551  0.3049  0.4909 -0.1615
 5918TIP3    H139313   5.968   4.977   6.605 -1.1377 -2.7429  0.5537
 5918TIP3    H239314   5.924   4.992   6.461  0.5733 -1.6953  0.1171
 5919TIP3   OH239315   1.258   3.472   8.501  0.4996  0.0803  0.0733
 5919TIP3    H139316   1.255   3.377   8.487  0.1108 -0.1672  1.6127
 5919TIP3    H239317   1.173   3.493   8.540 -0.4820  1.5197 -2.5860
 5920TIP3   OH239318   5.213   2.074   1.806 -0.5297 -0.1472 -0.0841
 5920TIP3    H139319   5.257   2.104   1.726 -1.5281 -0.1913 -0.6643
 5920TIP3    H239320   5.181   2.153   1.848  2.4990  0.1956  1.8578
 5921TIP3   OH239321   3.433   4.986   0.383  0.5943 -0.4824  0.3148
 5921TIP3    H139322   3.516   4.947   0.410  0.9358 -0.1784 -0.2735
 5921TIP3    H239323   3.376   4.912   0.366  0.7424 -0.6945  0.7240
 5922TIP3   OH239324   4.457   4.669   7.426 -0.1994 -0.4468  0.1292
 5922TIP3    H139325   4.546   4.635   7.417 -0.2010 -0.0440 -1.7543
 5922TIP3    H239326   4.431   4.645   7.515  1.2063 -1.9642  0.1697
 5923TIP3   OH239327   3.335   5.760   7.491 -0.2639 -0.3743 -0.0793
 5923TIP3    H139328   3.323   5.692   7.558  0.0034 -0.0791  0.2706
 5923TIP3    H239329   3.428   5.780   7.493 -0.3043 -0.1448 -0.3315
 5924TIP3   OH239330   6.830   2.926   8.285 -0.1061 -0.4154  0.5828
 5924TIP3    H139331   6.759   2.913   8.222  1.0369  0.9523 -1.0700
 5924TIP3    H239332   6.793   2.896   8.368 -1.4846 -2.8573 -0.7822
 5925TIP3   OH239333   5.033   4.789   0.539  0.3888  0.1453  0.2413
 5925TIP3    H139334   4.976   4.769   0.613 -1.4890 -2.6484 -1.7409
 5925TIP3    H239335   5.104   4.725   0.546 -0.3516 -0.8327 -0.8584
 5926TIP3   OH239336   1.235   6.265   0.716  0.5367  0.3866  0.0857
 5926TIP3    H139337   1.305   6.315   0.759 -1.3126  2.6700  0.6103
 5926TIP3    H239338   1.226   6.305   0.630  1.2653 -1.3172 -0.8273
 5927TIP3   OH239339   4.920   4.977   7.706  0.7305 -0.2121  0.1476
 5927TIP3    H139340   4.891   4.891   7.676  1.6024 -0.9312  1.2624
 5927TIP3    H239341   4.921   5.031   7.628 -1.7808 -0.6231 -0.2663
 5928TIP3   OH239342   3.154   6.436   0.190 -0.0587  0.0895 -0.4079
 5928TIP3    H139343   3.194   6.487   0.120  0.5370 -1.6369 -1.3562
 5928TIP3    H239344   3.160   6.345   0.162 -0.8611 -0.5678  1.3576
 5929TIP3   OH239345   5.309   3.359   1.121  0.0191  0.2491 -0.1043
 5929TIP3    H139346   5.215   3.356   1.138  0.4059 -3.1566  2.5160
 5929TIP3    H239347   5.320   3.315   1.037 -0.6599 -1.3994  0.6184
 5930TIP3   OH239348   3.838   1.910   0.975  0.5869  0.4624  0.1090
 5930TIP3    H139349   3.813   2.001   0.961 -1.8409  0.1120  1.5840
 5930TIP3    H239350   3.875   1.908   1.063  2.8511  0.3632 -0.7879
 5931TIP3   OH239351   6.308   0.843   7.832  0.0267  0.4899  0.0341
 5931TIP3    H139352   6.388   0.825   7.783  0.1780  0.2811  0.3552
 5931TIP3    H239353   6.252   0.767   7.815 -0.1733  0.7099 -0.3217
 5932TIP3   OH239354   3.522   1.776   1.926  0.2845  0.3719  0.2927
 5932TIP3    H139355   3.481   1.779   2.013  0.7500 -3.1619  0.8149
 5932TIP3    H239356   3.491   1.693   1.889  2.1849  0.5198 -1.8215
 5933TIP3   OH239357   4.749   6.306   1.101  0.3269  0.0977  0.0589
 5933TIP3    H139358   4.794   6.343   1.024 -1.0180 -0.5366 -1.0778
 5933TIP3    H239359   4.761   6.212   1.093  1.3452  0.0839  1.4167
 5934TIP3   OH239360   5.382   4.492   7.850  0.5865  0.7667 -0.0773
 5934TIP3    H139361   5.414   4.503   7.939  1.7657 -1.3327 -0.1808
 5934TIP3    H239362   5.375   4.397   7.838  1.1975  0.9426 -2.4519
 5935TIP3   OH239363   2.528   3.282   7.826  0.1107 -0.6892 -0.9076
 5935TIP3    H139364   2.482   3.366   7.827 -0.2476 -0.8811 -0.0767
 5935TIP3    H239365   2.620   3.305   7.843  0.1797 -0.3891 -1.6445
 5936TIP3   OH239366   2.236   3.072   8.038  0.0735  0.7899  0.0689
 5936TIP3    H139367   2.173   3.064   8.109 -0.2963  0.1596 -0.3194
 5936TIP3    H239368   2.312   3.021   8.068  0.1223  0.9628  0.2369
 5937TIP3   OH239369   1.292   6.146   2.301 -0.5635  0.5230  0.1138
 5937TIP3    H139370   1.217   6.173   2.354 -2.8963 -2.5899 -1.2318
 5937TIP3    H239371   1.286   6.199   2.222  0.4348  2.2678  1.1624
 5938TIP3   OH239372   5.012   6.077   0.001  0.1657  0.4577  0.0730
 5938TIP3    H139373   5.103   6.078   0.031 -0.0217 -1.4895  0.8612
 5938TIP3    H239374   5.006   5.998  -0.053 -0.6566  1.4794 -1.3790
 5939TIP3   OH239375   3.562   6.191   1.275  0.7999 -0.4526  0.2048
 5939TIP3    H139376   3.532   6.271   1.318  1.9047  0.0320  0.1071
 5939TIP3    H239377   3.502   6.179   1.201  0.1667 -0.1439  0.6571
 5940TIP3   OH239378   6.198   3.183   2.085  0.1608  0.1395 -0.7879
 5940TIP3    H139379   6.260   3.256   2.090  0.7726 -0.4395  1.9813
 5940TIP3    H239380   6.140   3.197   2.160  0.3608 -2.2154 -0.1238
 5941TIP3   OH239381   6.660   1.977   7.287  0.5086 -0.2721  0.0992
 5941TIP3    H139382   6.660   1.911   7.218  1.3930 -1.4386  1.1635
 5941TIP3    H239383   6.698   2.055   7.246  0.0621 -0.6214 -1.0037
 5942TIP3   OH239384   2.134   1.689   1.858 -0.3122 -0.1448 -0.5743
 5942TIP3    H139385   2.077   1.754   1.899 -0.8351 -0.4300 -0.8512
 5942TIP3    H239386   2.213   1.689   1.913 -1.1418 -0.7795  0.6448
 5943TIP3   OH239387   1.415   1.527   7.496 -0.0910  0.2501 -0.6718
 5943TIP3    H139388   1.359   1.564   7.564  4.2847  1.8353  2.5120
 5943TIP3    H239389   1.437   1.439   7.527 -0.4594 -0.2228 -1.7022
 5944TIP3   OH239390   5.963   4.891   7.673  0.0212  0.0619 -0.1607
 5944TIP3    H139391   5.889   4.879   7.613  0.5871  2.8885 -1.5708
 5944TIP3    H239392   5.964   4.985   7.693  0.9999 -0.4648  2.8751
 5945TIP3   OH239393   5.395   0.615   8.497 -0.7095  0.0623 -0.3143
 5945TIP3    H139394   5.366   0.594   8.408  0.3520 -0.6475 -0.5029
 5945TIP3    H239395   5.314   0.628   8.546 -1.3094  0.3849 -1.3634
 5946TIP3   OH239396   0.597   6.100   0.920  0.0158  0.3697 -0.3435
 5946TIP3    H139397   0.629   6.017   0.883 -2.3762 -0.8305  0.1222
 5946TIP3    H239398   0.626   6.099   1.011  2.5767  1.5393 -1.0389
 5947TIP3   OH239399   6.135   5.981   8.164 -0.1583 -0.4140 -0.1818
 5947TIP3    H139400   6.078   5.940   8.100 -0.9861  1.0245 -0.3945
 5947TIP3    H239401   6.208   5.919   8.174 -0.6096 -1.2140 -1.5958
 5948TIP3   OH239402   0.936   3.371   8.421 -0.2795  0.3134 -0.3661
 5948TIP3    H139403   0.972   3.406   8.339  1.5261  2.6738  1.3026
 5948TIP3    H239404   0.972   3.427   8.489 -3.0627 -0.4981  1.9635
 5949TIP3   OH239405   1.484   5.384   7.842 -0.1370  0.9543  1.0664
 5949TIP3    H139406   1.561   5.414   7.891  1.0247  1.6063 -1.0386
 5949TIP3    H239407   1.501   5.291   7.824  0.8776  1.4309 -0.5919
 5950TIP3   OH239408   1.752   0.238   8.068 -0.0238  0.1870  0.4927
 5950TIP3    H139409   1.786   0.200   8.150  0.5113  0.8843  0.6063
 5950TIP3    H239410   1.709   0.319   8.096 -1.7705 -0.6491  0.3375
 5951TIP3   OH239411   5.658   5.709   1.882 -0.1139 -0.3275  0.4289
 5951TIP3    H139412   5.707   5.731   1.803 -0.6159  0.1331  0.2372
 5951TIP3    H239413   5.646   5.615   1.878 -1.9309 -0.0902 -1.1212
 5952TIP3   OH239414   4.239   3.395   7.179  0.1531  0.5393 -0.2679
 5952TIP3    H139415   4.318   3.450   7.186  0.8877 -0.5262  0.1122
 5952TIP3    H239416   4.166   3.456   7.189  0.9566  1.3537  0.7905
 5953TIP3   OH239417   1.448   2.213   0.456 -0.0202  0.1062 -0.1426
 5953TIP3    H139418   1.508   2.274   0.415 -0.3278 -0.2259 -1.1123
 5953TIP3    H239419   1.483   2.126   0.433 -1.7880 -0.1391 -2.2396
 5954TIP3   OH239420   4.493   4.643   0.191  0.0197  0.0275 -0.0925
 5954TIP3    H139421   4.439   4.718   0.166 -0.8863 -0.6375 -0.1853
 5954TIP3    H239422   4.577   4.682   0.217 -0.1548  1.0036 -0.9113
 5955TIP3   OH239423   2.846   3.554   8.492  0.5350  0.4728  0.1317
 5955TIP3    H139424   2.845   3.459   8.482  0.6330  0.6499 -2.0004
 5955TIP3    H239425   2.755   3.577   8.510  0.1982  0.0772 -0.9597
 5956TIP3   OH239426   1.115   0.628   1.396  0.4397 -0.7446  0.7300
 5956TIP3    H139427   1.203   0.666   1.393  0.3587 -0.4294  2.0201
 5956TIP3    H239428   1.125   0.542   1.355  1.3383 -0.6912  0.8186
 5957TIP3   OH239429   3.409   5.172   7.104 -0.2927  0.2992 -0.0290
 5957TIP3    H139430   3.340   5.193   7.166 -0.6529 -1.6196  0.2860
 5957TIP3    H239431   3.487   5.214   7.139 -0.8477  0.6835  0.7760
 5958TIP3   OH239432   5.655   3.912   0.504  0.1668  0.6845 -0.2125
 5958TIP3    H139433   5.719   3.978   0.532  2.6324  0.5748 -4.7232
 5958TIP3    H239434   5.602   3.957   0.438 -3.9669  0.4158  2.5513
 5959TIP3   OH239435   5.556   3.831   8.584  0.1068 -0.1761 -0.0008
 5959TIP3    H139436   5.505   3.899   8.628 -0.4950 -1.6630  1.7174
 5959TIP3    H239437   5.491   3.775   8.542  0.4196 -0.9778  0.5487
 5960TIP3   OH239438   3.167   2.950   0.067 -0.2494  0.6755  0.0458
 5960TIP3    H139439   3.144   3.040   0.088 -0.9679  0.3883  0.5373
 5960TIP3    H239440   3.133   2.899   0.141  1.7691  0.1869  0.6778
 5961TIP3   OH239441   4.521   5.329   8.684 -0.2294 -0.2915  0.4105
 5961TIP3    H139442   4.504   5.324   8.590 -0.6009  0.4891  0.4323
 5961TIP3    H239443   4.453   5.275   8.724  0.1637 -0.9398  0.2113
 5962TIP3   OH239444   1.342   2.759   8.406  0.1786 -0.3106  0.0569
 5962TIP3    H139445   1.297   2.768   8.322  0.2959 -0.6614 -0.0410
 5962TIP3    H239446   1.289   2.812   8.466 -0.0597 -0.2831 -0.1753
 5963TIP3   OH239447   1.452   4.298   7.453  0.3722 -0.0455 -0.3151
 5963TIP3    H139448   1.444   4.366   7.520  0.3882  1.2341 -1.5692
 5963TIP3    H239449   1.383   4.235   7.475 -0.3268  0.9019  0.2985
 5964TIP3   OH239450   4.573   2.094   8.429  0.2306 -0.7551  0.7129
 5964TIP3    H139451   4.591   2.140   8.511  0.6836  1.5488 -0.5978
 5964TIP3    H239452   4.478   2.089   8.425  0.2141 -1.6845  1.7557
 5965TIP3   OH239453   5.070   5.030   0.397  0.2249 -0.0980  0.0148
 5965TIP3    H139454   5.073   4.937   0.421 -2.4254 -0.3100 -0.1946
 5965TIP3    H239455   5.126   5.073   0.462  2.1247 -1.8883 -0.3404
 5966TIP3   OH239456   4.490   2.745   8.215  0.1025  0.0914 -0.4106
 5966TIP3    H139457   4.514   2.765   8.124 -0.6958  0.1681 -0.6136
 5966TIP3    H239458   4.468   2.830   8.253 -0.7992 -0.0792 -0.5253
 5967TIP3   OH239459   0.580   1.598   1.370 -0.3448  0.0963 -0.2321
 5967TIP3    H139460   0.528   1.519   1.356 -0.3398 -0.0747  0.6582
 5967TIP3    H239461   0.670   1.565   1.382 -0.1494  0.3305 -1.0252
 5968TIP3   OH239462   0.760   0.546   8.319  0.3101  0.4568  0.0195
 5968TIP3    H139463   0.741   0.468   8.267  0.7062 -0.9575  1.8841
 5968TIP3    H239464   0.685   0.555   8.377  0.2521  1.5193 -0.2012
 5969TIP3   OH239465   6.117   4.340   6.794  0.2460 -0.4104  0.0857
 5969TIP3    H139466   6.194   4.394   6.778 -0.6983  0.7510 -0.6731
 5969TIP3    H239467   6.116   4.278   6.721  0.4515 -0.4089  0.0819
 5970TIP3   OH239468   5.545   6.807   2.604  0.4845 -0.1313  0.5488
 5970TIP3    H139469   5.454   6.781   2.618  0.5193 -1.2956 -1.0268
 5970TIP3    H239470   5.546   6.845   2.516  1.5173 -0.1481  0.5377
 5971TIP3   OH239471   2.727   6.483   7.863 -0.6476  0.5104 -0.2767
 5971TIP3    H139472   2.638   6.468   7.896 -1.3400  0.3908 -2.0866
 5971TIP3    H239473   2.754   6.565   7.904 -1.9229  0.9780 -0.3383
 5972TIP3   OH239474   5.809   3.308   0.290  0.3298  0.0116  0.4042
 5972TIP3    H139475   5.777   3.378   0.234 -0.3481 -0.2591  0.4436
 5972TIP3    H239476   5.739   3.242   0.290 -0.7164  0.9517  3.3150
 5973TIP3   OH239477   5.756   4.778   8.615  0.6935  0.6796 -0.3867
 5973TIP3    H139478   5.674   4.825   8.634  0.3158  0.2862 -1.0064
 5973TIP3    H239479   5.822   4.847   8.611  0.1386  1.1802 -1.3004
 5974TIP3   OH239480   6.309   5.201   1.571  0.2382  0.3044 -0.1461
 5974TIP3    H139481   6.335   5.250   1.649  0.3151 -0.3170  0.2333
 5974TIP3    H239482   6.224   5.237   1.547  0.2025  0.4869  0.2453
 5975TIP3   OH239483   3.538   5.058   8.428  0.4126 -0.2031 -0.1666
 5975TIP3    H139484   3.557   4.970   8.393  2.4918  0.6855 -1.4592
 5975TIP3    H239485   3.559   5.051   8.521  2.0527 -0.7270 -0.5342
 5976TIP3   OH239486   1.144   3.942   0.736 -0.2345 -0.2512  0.1858
 5976TIP3    H139487   1.162   3.860   0.689  0.8251 -0.7858  1.4831
 5976TIP3    H239488   1.222   3.995   0.722  0.6084 -0.8714  2.2609
 5977TIP3   OH239489   4.125   6.827   0.962 -0.1016 -0.0924  0.1502
 5977TIP3    H139490   4.057   6.762   0.978 -0.5428  0.5325  0.9169
 5977TIP3    H239491   4.192   6.810   1.028 -1.1330  1.4213  1.6921
 5978TIP3   OH239492   1.604   0.328   7.268  0.4129  0.2774  0.1151
 5978TIP3    H139493   1.669   0.319   7.199  0.6200  0.1302  0.3299
 5978TIP3    H239494   1.551   0.403   7.241  0.4997  0.2266 -0.1973
 5979TIP3   OH239495   4.413   3.576   7.305 -0.3080 -0.8058 -0.6287
 5979TIP3    H139496   4.401   3.661   7.261 -1.2379 -0.3402  0.4682
 5979TIP3    H239497   4.507   3.572   7.324 -0.3005  0.1116 -0.4282
 5980TIP3   OH239498   0.256   1.828   0.630 -0.1157 -0.0652  0.2844
 5980TIP3    H139499   0.180   1.886   0.630  1.3641  1.9879 -1.7097
 5980TIP3    H239500   0.272   1.810   0.723 -2.4079  0.2309  0.7951
 5981TIP3   OH239501   0.633   1.232   1.464  0.5070  0.1506 -0.3650
 5981TIP3    H139502   0.671   1.264   1.546  1.1871 -0.2785 -0.5065
 5981TIP3    H239503   0.544   1.269   1.463  0.9538  1.2849 -0.0946
 5982TIP3   OH239504   1.841   6.305   7.618 -0.2874  0.6865  0.7550
 5982TIP3    H139505   1.933   6.281   7.609 -0.1832  1.1521  0.5664
 5982TIP3    H239506   1.822   6.357   7.540 -0.3665  1.6798  1.4276
 5983TIP3   OH239507   5.468   0.801   6.841 -0.5510 -0.3149 -0.1989
 5983TIP3    H139508   5.449   0.834   6.929 -2.8598  0.7400 -1.0056
 5983TIP3    H239509   5.450   0.875   6.784  1.3957 -0.8311 -1.5585
 5984TIP3   OH239510   6.788   2.713   7.234  0.6430 -0.2922 -0.1759
 5984TIP3    H139511   6.763   2.690   7.144  0.6384 -1.1654  0.0378
 5984TIP3    H239512   6.880   2.689   7.240  0.6429 -0.2323  0.0560
 5985TIP3   OH239513   5.062   5.216   1.221 -0.1259 -0.4028  0.4979
 5985TIP3    H139514   5.132   5.157   1.193 -1.3915 -1.5928 -0.2547
 5985TIP3    H239515   4.981   5.166   1.208 -1.2801  1.5850 -0.4132
 5986TIP3   OH239516   0.860   1.462   8.294  0.0926  0.5459  0.5589
 5986TIP3    H139517   0.870   1.430   8.205  1.4115  3.2175 -0.3569
 5986TIP3    H239518   0.785   1.521   8.291  0.6113  1.2563  0.9838
 5987TIP3   OH239519   5.710   6.435   1.664 -0.2457 -0.1186 -0.0954
 5987TIP3    H139520   5.639   6.489   1.629 -0.1342  0.5300  0.6640
 5987TIP3    H239521   5.666   6.376   1.726 -0.5432 -1.6981 -1.7135
 5988TIP3   OH239522   1.479   0.416   8.335 -1.0588 -0.7749 -0.0772
 5988TIP3    H139523   1.560   0.365   8.342 -0.1123  0.6533 -0.1764
 5988TIP3    H239524   1.438   0.385   8.255  1.0377  0.6526 -1.8356
 5989TIP3   OH239525   6.163   0.618   7.817 -0.3639  0.6491  0.4934
 5989TIP3    H139526   6.167   0.580   7.904  2.7095  2.6943  1.4303
 5989TIP3    H239527   6.230   0.571   7.767  1.8080  3.0175  0.9855
 5990TIP3   OH239528   1.340   4.983   7.942 -0.1032 -0.0225 -0.0380
 5990TIP3    H139529   1.284   4.910   7.967  0.9337 -0.0242  2.5786
 5990TIP3    H239530   1.304   5.058   7.989  0.8946  0.3852  0.1020
 5991TIP3   OH239531   6.033   5.731   0.346  0.9008  0.7523 -0.5357
 5991TIP3    H139532   6.052   5.825   0.343  2.6836  0.4042 -1.6503
 5991TIP3    H239533   6.114   5.692   0.379 -0.4483 -0.3021  1.8359
 5992TIP3   OH239534   5.555   0.414   0.977 -0.2269 -1.3404 -0.2418
 5992TIP3    H139535   5.525   0.325   0.989  0.5753 -1.8495 -1.6808
 5992TIP3    H239536   5.476   0.466   0.964 -0.7055 -1.7923  0.8383
 5993TIP3   OH239537   6.648   3.251   8.669 -0.0230  0.0330  0.1776
 5993TIP3    H139538   6.587   3.229   8.598 -0.4281 -0.1565  0.5822
 5993TIP3    H239539   6.733   3.261   8.625 -0.2953  0.0631 -0.3554
 5994TIP3   OH239540   4.109   6.220   0.706 -0.2175  0.2164 -0.0944
 5994TIP3    H139541   4.090   6.233   0.613  0.5481  1.3627 -0.1154
 5994TIP3    H239542   4.034   6.260   0.750  0.0969  0.9540 -0.2142
 5995TIP3   OH239543   4.712   4.140   1.877 -0.6299 -0.2042  0.1632
 5995TIP3    H139544   4.620   4.133   1.851 -0.4606  0.7688 -0.7655
 5995TIP3    H239545   4.750   4.055   1.853 -0.6846  0.3387 -2.0246
 5996TIP3   OH239546   2.216   0.564   0.891  0.1775 -0.3594  0.5403
 5996TIP3    H139547   2.183   0.556   0.801 -3.2077 -3.7148  1.8495
 5996TIP3    H239548   2.301   0.520   0.889 -0.6763 -2.0640 -0.6966
 5997TIP3   OH239549   5.145   5.622   8.663  0.3597  0.7181  0.6854
 5997TIP3    H139550   5.222   5.658   8.707  1.6060 -0.0549 -0.7812
 5997TIP3    H239551   5.154   5.527   8.674  1.5796  0.3616 -2.4883
 5998TIP3   OH239552   3.670   2.161   8.111  0.1625  0.2422 -0.0569
 5998TIP3    H139553   3.629   2.087   8.157 -2.4080  2.1889  1.0726
 5998TIP3    H239554   3.741   2.188   8.169 -0.5688  0.2540  0.8699
 5999TIP3   OH239555   6.421   4.396   7.445 -0.1062  0.0566 -0.6688
 5999TIP3    H139556   6.364   4.411   7.520  2.8504  2.2483  1.3722
 5999TIP3    H239557   6.425   4.300   7.437  0.2158 -0.3262  2.6983
 6000TIP3   OH239558   4.852   5.067   2.279  0.4501 -0.4391  0.0701
 6000TIP3    H139559   4.926   5.093   2.333 -0.4446  0.3380  0.9845
 6000TIP3    H239560   4.827   5.147   2.233  0.4363 -0.7998 -0.5624
 6001TIP3   OH239561   3.692   3.082   6.542  0.1228  0.3051 -0.2948
 6001TIP3    H139562   3.636   3.065   6.466 -0.4496  1.6385 -0.2130
 6001TIP3    H239563   3.723   2.996   6.569 -0.6213 -0.3114 -1.3121
 6002TIP3   OH239564   2.567   6.101   1.478 -0.2216 -0.3646 -0.4343
 6002TIP3    H139565   2.521   6.184   1.469 -1.8203 -1.0298  1.0527
 6002TIP3    H239566   2.658   6.121   1.454  0.2135  2.5996  2.9372
 6003TIP3   OH239567   6.268   4.134   7.893 -0.1425  0.0815  0.5555
 6003TIP3    H139568   6.304   4.085   7.820  0.7941  1.1633  0.2549
 6003TIP3    H239569   6.196   4.080   7.925 -0.9004 -0.2054 -1.4701
 6004TIP3   OH239570   6.737   0.135   7.773  0.1592 -0.0820 -0.1943
 6004TIP3    H139571   6.814   0.185   7.800  0.4845  0.2953 -1.7161
 6004TIP3    H239572   6.693   0.192   7.711 -1.0836 -0.5142  0.2740
 6005TIP3   OH239573   3.333   6.227   1.818  0.0144 -0.1065 -0.0999
 6005TIP3    H139574   3.283   6.181   1.751  0.5948 -0.2706 -0.4281
 6005TIP3    H239575   3.377   6.157   1.867  0.6352  0.0772 -0.3878
 6006TIP3   OH239576   3.489   5.728   6.871 -0.0534 -0.0554 -0.0657
 6006TIP3    H139577   3.523   5.732   6.781 -1.4010 -0.8048 -0.6326
 6006TIP3    H239578   3.405   5.773   6.867  0.6079  1.3982  1.2199
 6007TIP3   OH239579   0.342   1.647   8.545 -0.6384  0.6842  0.6628
 6007TIP3    H139580   0.285   1.570   8.549 -0.5284  0.5427 -0.3082
 6007TIP3    H239581   0.328   1.690   8.629 -3.1159  1.3151  0.0160
 6008TIP3   OH239582   5.852   5.595   7.255 -0.1902 -0.0094 -0.2961
 6008TIP3    H139583   5.885   5.604   7.344  0.1589  1.1739 -0.5219
 6008TIP3    H239584   5.872   5.505   7.230  0.0608 -0.2339  0.6789
 6009TIP3   OH239585   0.516   3.084   7.050  0.8604 -0.4281  0.4678
 6009TIP3    H139586   0.436   3.116   7.093  1.8148  2.9217 -0.0152
 6009TIP3    H239587   0.485   3.045   6.968 -0.2939  2.3244 -0.5365
 6010TIP3   OH239588   1.915   2.173   8.345 -0.1422  0.2314  0.4395
 6010TIP3    H139589   1.847   2.176   8.412 -0.7675  0.3535 -0.1977
 6010TIP3    H239590   1.897   2.247   8.288  1.0957  0.8385  0.7910
 6011TIP3   OH239591   3.419   5.491   0.889 -0.3269  0.3280  0.0876
 6011TIP3    H139592   3.360   5.443   0.831 -2.4229  3.2757 -0.4529
 6011TIP3    H239593   3.483   5.531   0.830  0.2758 -0.2204  0.3467
 6012TIP3   OH239594   1.846   4.160   0.376 -0.2978  0.6057  0.2814
 6012TIP3    H139595   1.796   4.079   0.380  0.7865 -0.0955  0.1241
 6012TIP3    H239596   1.789   4.226   0.414 -0.1921 -0.7305  2.9412
 6013TIP3   OH239597   0.204   1.062   1.874  0.4418  0.3189 -0.0809
 6013TIP3    H139598   0.156   0.990   1.916  0.2059  1.4064  1.6076
 6013TIP3    H239599   0.267   1.090   1.939  0.6541  1.5374 -0.7791
 6014TIP3   OH239600   0.356   4.546   7.522  0.0019 -0.1803  1.0095
 6014TIP3    H139601   0.305   4.581   7.449 -0.5055 -1.1032  0.9091
 6014TIP3    H239602   0.304   4.567   7.599  0.2592  0.2880  1.0600
 6015TIP3   OH239603   4.985   2.642   1.592  0.3497  0.6242  0.2710
 6015TIP3    H139604   4.946   2.716   1.545  1.6405 -0.1869 -2.2654
 6015TIP3    H239605   5.079   2.658   1.587  0.6579 -1.2098 -0.4670
 6016TIP3   OH239606   2.408   5.927   0.950 -0.0470  0.0813 -0.4028
 6016TIP3    H139607   2.441   5.839   0.933  1.1391  0.8492 -2.4264
 6016TIP3    H239608   2.478   5.969   1.001  0.3133  0.4680 -1.2053
 6017TIP3   OH239609   6.395   5.499   1.037  0.2029  0.2248 -0.3299
 6017TIP3    H139610   6.478   5.463   1.068 -0.1623  0.5117  1.0793
 6017TIP3    H239611   6.402   5.500   0.942  1.7529  0.1014 -0.2322
 6018TIP3   OH239612   3.515   0.606   1.684  0.2677 -0.6792 -0.1615
 6018TIP3    H139613   3.553   0.537   1.738 -0.5520 -1.8309 -1.0212
 6018TIP3    H239614   3.518   0.572   1.595 -1.3476 -0.1713 -0.4419
 6019TIP3   OH239615   2.553   3.443   6.636  0.1305 -0.2982  0.0167
 6019TIP3    H139616   2.537   3.533   6.663 -0.0651 -0.1841 -0.4650
 6019TIP3    H239617   2.599   3.451   6.552 -0.2064 -0.6486 -0.2019
 6020TIP3   OH239618   3.889   1.300   7.598 -0.6199 -0.1079 -0.5902
 6020TIP3    H139619   3.933   1.268   7.676  1.0220  0.6107 -1.1710
 6020TIP3    H239620   3.805   1.334   7.629 -0.0562  0.0292  0.8352
 6021TIP3   OH239621   5.206   1.572   0.342 -0.1619  0.2557  0.1486
 6021TIP3    H139622   5.134   1.595   0.402  0.3664  0.5157  0.6959
 6021TIP3    H239623   5.206   1.642   0.277  0.5461  1.0825  1.0112
 6022TIP3   OH239624   4.610   3.757   6.193  0.1128 -1.0006  0.5222
 6022TIP3    H139625   4.690   3.763   6.141 -0.8375  1.6162 -0.7868
 6022TIP3    H239626   4.640   3.743   6.282  2.1954  1.5664  0.3337
 6023TIP3   OH239627   4.589   5.994   8.678  0.2641  0.5391 -0.1376
 6023TIP3    H139628   4.661   5.932   8.688 -0.4339 -0.2514  0.0849
 6023TIP3    H239629   4.615   6.070   8.730  0.0907 -0.5020  1.5202
 6024TIP3   OH239630   3.140   0.322   1.930 -0.1675  0.2344 -0.4371
 6024TIP3    H139631   3.147   0.393   1.993  1.1840  0.1539 -0.4614
 6024TIP3    H239632   3.079   0.259   1.970  2.6694 -1.1179  2.1276
 6025TIP3   OH239633   2.487   6.599   1.716 -0.1987 -0.5371 -0.1439
 6025TIP3    H139634   2.567   6.573   1.671  0.4662  0.1234  0.6382
 6025TIP3    H239635   2.446   6.517   1.742  0.1935 -0.8816 -0.6005
 6026TIP3   OH239636   2.903   3.986   8.626 -0.4444 -0.1420 -0.6633
 6026TIP3    H139637   2.860   3.949   8.703 -0.4830  0.8849 -0.1777
 6026TIP3    H239638   2.937   4.071   8.655  1.2281 -0.5690 -1.2454
 6027TIP3   OH239639   1.307   5.801   0.013  0.3884  0.0077 -0.4462
 6027TIP3    H139640   1.269   5.887  -0.002  2.1264  0.7016 -1.1736
 6027TIP3    H239641   1.232   5.743   0.026 -0.8001  1.8416  1.4294
 6028TIP3   OH239642   6.831   3.591   7.194  1.1905  0.0642 -0.3389
 6028TIP3    H139643   6.785   3.552   7.120  2.0686  0.7785 -1.2869
 6028TIP3    H239644   6.762   3.615   7.256  0.4517 -0.5866 -0.8946
 6029TIP3   OH239645   5.665   4.768   7.949 -0.6915 -0.7832 -0.4776
 6029TIP3    H139646   5.627   4.826   8.014 -1.5676 -1.1755 -0.6299
 6029TIP3    H239647   5.637   4.681   7.975  2.7226 -1.5239  1.2577
 6030TIP3   OH239648   3.976   0.209   1.829  1.0082  0.0540  0.2141
 6030TIP3    H139649   3.931   0.257   1.760 -4.5006 -2.1197  1.6845
 6030TIP3    H239650   4.019   0.136   1.784 -2.4745 -1.3530 -1.2236
 6031TIP3   OH239651   5.282   2.788   1.169  0.0796 -0.5021  0.0019
 6031TIP3    H139652   5.333   2.730   1.113 -0.4005 -0.9347 -0.0018
 6031TIP3    H239653   5.213   2.732   1.204  1.9472 -0.9513  3.2666
 6032TIP3   OH239654   5.905   2.715   0.884 -0.6149  0.2351 -0.4621
 6032TIP3    H139655   5.920   2.669   0.802 -0.0502  1.1738 -0.9090
 6032TIP3    H239656   5.975   2.685   0.942  0.7114  1.6435 -1.2572
 6033TIP3   OH239657   0.245   4.948   6.623 -0.0167 -0.0897 -0.2545
 6033TIP3    H139658   0.267   4.986   6.537  0.8212 -0.7664 -0.3584
 6033TIP3    H239659   0.231   4.855   6.604  2.9916 -0.8619  0.7115
 6034TIP3   OH239660   0.739   2.341   8.495 -0.3343  0.2652 -0.3066
 6034TIP3    H139661   0.750   2.356   8.401  0.2867  0.5503 -0.1924
 6034TIP3    H239662   0.816   2.290   8.520  0.2015  1.3321  0.2968
 6035TIP3   OH239663   3.756   5.599   7.328 -0.5006  0.3229  0.2632
 6035TIP3    H139664   3.827   5.597   7.263 -1.1674  0.3853 -0.4729
 6035TIP3    H239665   3.777   5.675   7.383 -1.2106  1.7505 -1.3521
 6036TIP3   OH239666   6.421   6.306   1.060  0.1306  0.7932  0.0240
 6036TIP3    H139667   6.383   6.299   1.148  1.9696 -0.9731  0.7668
 6036TIP3    H239668   6.348   6.333   1.004 -1.7003 -0.4534  1.6744
 6037TIP3   OH239669   5.158   6.675   8.621 -0.4724  0.4774  0.1251
 6037TIP3    H139670   5.181   6.583   8.607  1.8608  0.1256  4.3609
 6037TIP3    H239671   5.062   6.676   8.618 -0.6225 -2.3335  0.6849
 6038TIP3   OH239672   6.340   5.222   8.716 -0.1617  0.0084 -0.4314
 6038TIP3    H139673   6.294   5.192   8.638  0.7252 -0.2661 -0.8653
 6038TIP3    H239674   6.277   5.277   8.762 -0.1359  1.6421 -2.2403
 6039TIP3   OH239675   3.232   5.953   7.031 -0.0781  0.1555 -0.2214
 6039TIP3    H139676   3.313   5.929   7.077 -1.3372 -1.2922  1.3679
 6039TIP3    H239677   3.206   5.873   6.985 -1.7901 -0.1315  1.1617
 6040TIP3   OH239678   1.400   4.212   1.269 -0.0094  0.1780  0.2574
 6040TIP3    H139679   1.450   4.269   1.328 -1.2568 -0.0643  1.6216
 6040TIP3    H239680   1.353   4.272   1.211  0.1340  0.4839  0.4542
 6041TIP3   OH239681   3.477   6.710   0.921 -0.4269  0.2502  0.0181
 6041TIP3    H139682   3.499   6.799   0.895 -1.1044  0.0851 -1.1828
 6041TIP3    H239683   3.554   6.658   0.899 -0.4407  0.3590 -0.2855
 6042TIP3   OH239684   2.980   6.579   0.346 -0.4800 -0.5145 -0.5636
 6042TIP3    H139685   2.984   6.646   0.277  0.3347  1.1376  0.9867
 6042TIP3    H239686   3.027   6.504   0.310  4.0047  1.8237 -0.3154
 6043TIP3   OH239687   4.852   5.057   1.158  0.6372  0.4784  0.2928
 6043TIP3    H139688   4.802   5.120   1.106  1.6927  1.0428 -0.0644
 6043TIP3    H239689   4.786   4.995   1.190 -0.1319  0.4789 -1.1844
 6044TIP3   OH239690   4.323   1.983   1.166  0.1218  0.3948  0.2536
 6044TIP3    H139691   4.247   2.015   1.117 -0.3937  0.6621  1.2097
 6044TIP3    H239692   4.332   1.891   1.139 -0.6038  0.3315  0.2103
 6045TIP3   OH239693   6.454   1.237   6.842 -0.0145  0.1186 -0.1038
 6045TIP3    H139694   6.490   1.263   6.758  0.6884 -0.5752 -0.0316
 6045TIP3    H239695   6.453   1.141   6.839  0.2157  0.0799  0.7473
 6046TIP3   OH239696   0.319   0.456   0.663 -0.6811 -0.0499  0.0497
 6046TIP3    H139697   0.383   0.437   0.593  1.3074  0.4484  1.6286
 6046TIP3    H239698   0.248   0.394   0.649  1.6956 -3.0111  0.1566
 6047TIP3   OH239699   6.667   2.316   8.562  0.4146  0.1376 -0.0886
 6047TIP3    H139700   6.677   2.398   8.609  0.2512  0.3645 -0.4417
 6047TIP3    H239701   6.753   2.275   8.565  0.1120 -0.4790  1.5359
 6048TIP3   OH239702   0.709   4.076   7.505 -0.0034 -0.4156  0.6196
 6048TIP3    H139703   0.615   4.067   7.491  0.0562 -1.0100  0.5771
 6048TIP3    H239704   0.717   4.144   7.572 -0.4560 -0.2952  0.5565
 6049TIP3   OH239705   4.350   4.713   7.001  0.5050 -0.2245  0.8753
 6049TIP3    H139706   4.441   4.723   7.028  1.2160 -0.6655 -1.1822
 6049TIP3    H239707   4.299   4.738   7.078  2.3523 -0.5092  2.2493
 6050TIP3   OH239708   2.818   0.204   7.898  0.3356  0.3860 -0.3999
 6050TIP3    H139709   2.776   0.283   7.931  0.2630  0.6088 -1.0070
 6050TIP3    H239710   2.748   0.138   7.899  0.4922  0.2292  0.4515
 6051TIP3   OH239711   1.239   0.830   0.321  0.1903 -0.0102  0.7115
 6051TIP3    H139712   1.263   0.844   0.413  0.4664 -1.2899  0.8556
 6051TIP3    H239713   1.296   0.760   0.292  1.7069  1.8888 -1.1573
 6052TIP3   OH239714   6.748   6.164   7.745 -0.2111  0.6359 -0.3841
 6052TIP3    H139715   6.686   6.236   7.756  1.2505  2.0013 -0.7836
 6052TIP3    H239716   6.825   6.204   7.704  0.5640 -1.2005 -0.8179
 6053TIP3   OH239717   6.314   3.694   0.814  0.0587 -0.0777 -0.0453
 6053TIP3    H139718   6.381   3.665   0.876 -0.0255 -1.3343 -0.4942
 6053TIP3    H239719   6.236   3.705   0.867  0.1797 -0.3859  0.2020
 6054TIP3   OH239720   5.845   6.295   0.407  0.2937  0.0474  0.3732
 6054TIP3    H139721   5.843   6.274   0.314  0.7369  1.9142 -0.1069
 6054TIP3    H239722   5.937   6.294   0.431  0.0669 -2.8892  1.4719
 6055TIP3   OH239723   0.343   4.590   7.815 -0.3679 -0.3629 -0.4333
 6055TIP3    H139724   0.281   4.663   7.813 -0.9373 -0.8539 -0.9309
 6055TIP3    H239725   0.301   4.521   7.764  0.5369 -0.7462 -0.6758
 6056TIP3   OH239726   3.390   1.044   0.115 -0.2727 -0.1000 -0.0535
 6056TIP3    H139727   3.300   1.075   0.118 -0.6078 -1.0107 -0.2582
 6056TIP3    H239728   3.385   0.958   0.072  0.3643 -1.1916  1.9051
 6057TIP3   OH239729   3.897   4.470   6.721 -0.0306 -0.1656  0.0286
 6057TIP3    H139730   3.895   4.413   6.644 -0.6846  1.1789 -0.9953
 6057TIP3    H239731   3.890   4.410   6.796  0.0803 -1.4648 -0.9779
 6058TIP3   OH239732   2.841   3.788   0.429  0.2183 -0.3409  0.0619
 6058TIP3    H139733   2.889   3.866   0.456  0.2472 -0.6055  0.7960
 6058TIP3    H239734   2.755   3.820   0.402  0.1530 -0.0737  0.5713
 6059TIP3   OH239735   5.008   0.792   0.885  0.3856 -0.1841 -0.1081
 6059TIP3    H139736   4.925   0.751   0.860  0.7170  0.1260 -1.8219
 6059TIP3    H239737   5.002   0.800   0.980 -1.1756 -0.9641 -0.0965
 6060TIP3   OH239738   0.218   0.767   8.141 -0.0917  0.5613  0.0860
 6060TIP3    H139739   0.127   0.753   8.115 -0.7313 -0.0231  2.3374
 6060TIP3    H239740   0.266   0.696   8.098 -1.0760 -0.3705  0.4559
 6061TIP3   OH239741   2.532   2.568   2.304 -0.2353  0.4042 -0.0898
 6061TIP3    H139742   2.488   2.506   2.362 -0.4167  0.3437 -0.2941
 6061TIP3    H239743   2.492   2.653   2.325  2.4432  1.1714  2.8046
 6062TIP3   OH239744   4.826   5.975   1.140  0.1186  0.1432 -0.6793
 6062TIP3    H139745   4.826   5.880   1.139 -1.1896  0.1049  0.3900
 6062TIP3    H239746   4.871   5.998   1.222 -1.7129  0.3548  0.3212
 6063TIP3   OH239747   0.249   5.119   1.944  0.5038  0.8204 -0.4979
 6063TIP3    H139748   0.219   5.103   2.033  1.2399 -2.4584 -0.7378
 6063TIP3    H239749   0.169   5.133   1.894 -0.1927 -0.9499  0.0735
 6064TIP3   OH239750   5.377   5.427   8.535  0.0729 -0.0978  0.1952
 6064TIP3    H139751   5.301   5.401   8.587 -0.9058  0.4419 -0.9290
 6064TIP3    H239752   5.398   5.350   8.483 -1.1435  0.4585 -1.1584
 6065TIP3   OH239753   3.440   0.332   0.408 -0.5230  0.4705 -0.8698
 6065TIP3    H139754   3.372   0.282   0.363  0.6238 -0.2985 -1.7904
 6065TIP3    H239755   3.445   0.292   0.495  0.8308 -1.5357 -1.7928
 6066TIP3   OH239756   5.132   5.329   7.989  0.5313 -0.5663  0.0334
 6066TIP3    H139757   5.114   5.250   8.040 -0.3803 -0.3600  0.0480
 6066TIP3    H239758   5.070   5.326   7.916  2.3928 -1.3065 -1.6072
 6067TIP3   OH239759   2.676   5.850   7.529  0.2849  0.2122  0.1260
 6067TIP3    H139760   2.769   5.839   7.509  0.4275  1.6901 -0.1713
 6067TIP3    H239761   2.671   5.843   7.624  0.5923 -0.5574  0.0891
 6068TIP3   OH239762   2.293   5.670   7.371  0.8177  0.0373 -0.0837
 6068TIP3    H139763   2.246   5.655   7.453 -0.0154 -0.1981 -0.5900
 6068TIP3    H239764   2.234   5.726   7.320  1.3850  0.2827 -0.4774
 6069TIP3   OH239765   2.474   4.587   1.268  0.8287 -0.1236 -0.5588
 6069TIP3    H139766   2.407   4.524   1.240 -0.5683  1.6713 -1.4154
 6069TIP3    H239767   2.500   4.556   1.355  0.2691 -1.9314 -0.9849
 6070TIP3   OH239768   4.278   2.567   1.451  0.3656 -0.6572 -0.2806
 6070TIP3    H139769   4.323   2.592   1.370  0.2767  0.3089 -0.0373
 6070TIP3    H239770   4.294   2.639   1.511  0.4933 -1.3980  0.6036
 6071TIP3   OH239771   2.090   0.446   8.238  0.0695  0.4276 -0.0091
 6071TIP3    H139772   2.065   0.453   8.146  0.0863 -1.7192 -0.2201
 6071TIP3    H239773   2.016   0.484   8.286 -0.4692  0.5036 -0.8794
 6072TIP3   OH239774   6.607   5.114   7.951 -0.2143 -0.3967  0.1175
 6072TIP3    H139775   6.594   5.124   7.857  0.5131  0.7693  0.1142
 6072TIP3    H239776   6.678   5.175   7.972 -1.0887  0.1908  1.5897
 6073TIP3   OH239777   4.162   5.913   1.568  0.7007  0.1392 -0.1253
 6073TIP3    H139778   4.134   5.877   1.484  0.5760 -0.8416  0.3170
 6073TIP3    H239779   4.255   5.933   1.555  0.0559  2.6893 -1.3527
 6074TIP3   OH239780   2.706   2.348   2.266  0.2685  0.5407 -0.3975
 6074TIP3    H139781   2.724   2.311   2.352  1.1654 -0.7214 -1.1079
 6074TIP3    H239782   2.663   2.432   2.285  0.2945  0.2110  1.2614
 6075TIP3   OH239783   3.988   1.489   8.358 -0.2640  0.3667 -0.5294
 6075TIP3    H139784   4.008   1.426   8.289 -2.2605 -1.0562  0.0971
 6075TIP3    H239785   3.898   1.517   8.340 -0.7311  0.1649  1.3238
 6076TIP3   OH239786   6.772   2.746   0.451  0.8223 -0.4739 -0.4850
 6076TIP3    H139787   6.801   2.735   0.361 -0.3133 -1.9133 -0.6996
 6076TIP3    H239788   6.851   2.732   0.503  1.3826 -0.1249 -1.2221
 6077TIP3   OH239789   4.252   3.295   7.641  0.4824  0.6438 -0.4022
 6077TIP3    H139790   4.162   3.305   7.610  0.1638 -0.1611  0.2245
 6077TIP3    H239791   4.295   3.378   7.620 -0.7076  1.4539  0.3090
 6078TIP3   OH239792   2.425   5.432   1.430 -0.4049  0.2340  0.1504
 6078TIP3    H139793   2.489   5.456   1.498  1.1677 -1.0667 -0.8071
 6078TIP3    H239794   2.473   5.441   1.348 -2.2958  1.8171 -0.8538
 6079TIP3   OH239795   3.989   1.607   0.649  0.0755  0.1430 -0.1939
 6079TIP3    H139796   3.962   1.697   0.631 -1.5879 -0.3200 -0.1783
 6079TIP3    H239797   3.969   1.594   0.742  1.8610  0.2549  0.2342
 6080TIP3   OH239798   5.206   2.394   2.297 -0.0851  0.3664  0.1852
 6080TIP3    H139799   5.253   2.466   2.255  0.8719 -0.6292 -0.5224
 6080TIP3    H239800   5.273   2.327   2.311 -1.3703 -1.3318 -1.3686
 6081TIP3   OH239801   6.484   4.119   8.587 -0.0738 -0.5950 -0.0588
 6081TIP3    H139802   6.454   4.028   8.579 -2.0375  0.0567 -0.7722
 6081TIP3    H239803   6.420   4.170   8.535  0.7735  1.2228  0.6035
 6082TIP3   OH239804   1.671   2.410   8.074 -0.0247  0.2863 -0.1840
 6082TIP3    H139805   1.634   2.343   8.016 -1.2083  0.6489  0.1198
 6082TIP3    H239806   1.765   2.390   8.076 -0.2707 -1.0599 -0.4845
 6083TIP3   OH239807   1.797   6.709   7.474 -0.3561  0.0440  0.0795
 6083TIP3    H139808   1.845   6.724   7.393 -0.3049  0.0907  0.1183
 6083TIP3    H239809   1.865   6.704   7.542 -0.3384 -0.8429  0.0027
 6084TIP3   OH239810   3.803   1.840   1.300 -0.6437 -0.5048  0.4400
 6084TIP3    H139811   3.774   1.929   1.280  1.7796 -0.0036 -1.2508
 6084TIP3    H239812   3.849   1.848   1.383 -1.6402 -0.4706  0.9959
 6085TIP3   OH239813   1.790   5.926   1.052 -0.2439  0.0326 -0.5992
 6085TIP3    H139814   1.719   5.905   1.112 -0.6186  1.2740 -0.5787
 6085TIP3    H239815   1.854   5.856   1.064  0.2163  0.8225  2.1021
 6086TIP3   OH239816   4.979   5.990   6.973 -0.1602  0.0314 -0.2174
 6086TIP3    H139817   4.963   5.943   6.891 -0.7389  2.7606 -1.7929
 6086TIP3    H239818   4.943   6.077   6.958 -0.1971  0.6783  2.9532
 6087TIP3   OH239819   3.721   2.549   1.477  0.4074 -0.1601 -0.3548
 6087TIP3    H139820   3.668   2.626   1.499 -0.1801 -0.6791  0.0827
 6087TIP3    H239821   3.660   2.489   1.435  0.4315 -1.0967  0.8835
 6088TIP3   OH239822   2.100   2.763   0.564 -0.3926  0.1815 -0.2875
 6088TIP3    H139823   2.192   2.787   0.548 -0.5372 -0.4723 -2.4149
 6088TIP3    H239824   2.104   2.670   0.587 -0.5696 -0.0529 -1.1752
 6089TIP3   OH239825   2.952   2.463   2.222 -0.1793  0.7752 -0.3347
 6089TIP3    H139826   2.888   2.403   2.260  0.1768 -0.0766 -1.0446
 6089TIP3    H239827   2.995   2.503   2.298 -0.8819  0.6431  0.1477
 6090TIP3   OH239828   1.455   4.009   8.302 -0.0873  0.4227 -0.4639
 6090TIP3    H139829   1.429   3.918   8.288 -0.9547  0.3631  1.1886
 6090TIP3    H239830   1.485   4.039   8.217  0.6741 -1.5455 -0.9552
 6091TIP3   OH239831   2.610   4.114   6.797 -0.0772 -0.2003 -0.4269
 6091TIP3    H139832   2.522   4.115   6.758 -0.1562 -1.4510 -0.3170
 6091TIP3    H239833   2.624   4.023   6.821  1.1047  0.0627 -0.0805
 6092TIP3   OH239834   6.550   5.844   7.965 -0.0981 -0.0091  0.0549
 6092TIP3    H139835   6.518   5.807   7.883 -0.7160  0.4019  0.1077
 6092TIP3    H239836   6.519   5.934   7.965  1.3049  0.4984 -0.0294
 6093TIP3   OH239837   2.302   6.799   0.562 -0.3158  0.6640  0.8406
 6093TIP3    H139838   2.238   6.870   0.572 -2.5465 -0.7066 -2.2041
 6093TIP3    H239839   2.252   6.719   0.577  1.3947 -0.4118  1.0940
 6094TIP3   OH239840   2.723   1.727   1.511 -0.7115  0.2175 -0.2651
 6094TIP3    H139841   2.731   1.755   1.420  0.0629 -1.0276 -0.5998
 6094TIP3    H239842   2.787   1.781   1.558 -0.1870 -0.0281 -0.6823
 6095TIP3   OH239843   1.604   6.118   2.604 -0.1932  0.4278 -0.5529
 6095TIP3    H139844   1.659   6.106   2.526 -0.7585 -1.6547 -0.6869
 6095TIP3    H239845   1.582   6.029   2.632 -0.3627  1.1461  1.7575
 6096TIP3   OH239846   5.714   6.231   1.339 -0.1157  0.2012 -0.2739
 6096TIP3    H139847   5.641   6.175   1.314  0.9692 -1.2745 -0.2598
 6096TIP3    H239848   5.673   6.313   1.367 -1.8936 -1.0796  1.1426
 6097TIP3   OH239849   0.395   4.990   1.657  0.0319  0.7785  0.5209
 6097TIP3    H139850   0.487   4.983   1.681 -0.1243 -0.2216  0.8596
 6097TIP3    H239851   0.374   5.083   1.668  1.2529  1.1986 -0.5453
 6098TIP3   OH239852   2.808   6.770   7.376  0.4732  0.2202 -0.0407
 6098TIP3    H139853   2.886   6.730   7.338  0.9290  2.9719 -2.4215
 6098TIP3    H239854   2.736   6.736   7.323  0.5048  0.2620 -0.1116
 6099TIP3   OH239855   5.949   3.973   1.814 -0.2241 -0.0521 -0.0044
 6099TIP3    H139856   5.853   3.971   1.815 -0.3056  2.0046 -0.5209
 6099TIP3    H239857   5.972   4.046   1.871  0.9863  0.2267 -0.8155
 6100TIP3   OH239858   1.520   4.357   1.473 -0.1961 -0.1221  0.2269
 6100TIP3    H139859   1.494   4.447   1.495  0.2124 -0.0875  0.5940
 6100TIP3    H239860   1.585   4.335   1.539  0.2278 -0.4326 -0.2878
 6101TIP3   OH239861   3.050   3.926   7.938 -0.4812  0.1580 -0.5566
 6101TIP3    H139862   3.025   3.836   7.954 -0.0202  0.2404  0.7427
 6101TIP3    H239863   3.045   3.936   7.843  0.4850 -1.5296 -0.8198
 6102TIP3   OH239864   3.248   5.966   7.748  0.0332  0.4390  0.0174
 6102TIP3    H139865   3.192   5.890   7.732  0.1810  0.5769 -1.2769
 6102TIP3    H239866   3.333   5.928   7.772  0.0700  0.1950 -0.4869
 6103TIP3   OH239867   1.558   6.113   8.371 -0.3600  0.3131  0.1195
 6103TIP3    H139868   1.556   6.056   8.294  0.1230 -0.0124  0.3473
 6103TIP3    H239869   1.467   6.142   8.381 -1.6350 -3.6528  2.4128
 6104TIP3   OH239870   4.046   0.670   6.327  0.6640  0.2874  0.7870
 6104TIP3    H139871   4.054   0.590   6.275  1.5506  0.0902  1.2064
 6104TIP3    H239872   4.132   0.712   6.320 -0.2525  2.0549 -0.7563
 6105TIP3   OH239873   5.403   3.121   7.314 -0.2665  0.0696 -0.0612
 6105TIP3    H139874   5.374   3.202   7.354 -0.9129 -0.6600  0.9963
 6105TIP3    H239875   5.323   3.074   7.292 -0.0211 -1.7722  2.4933
 6106TIP3   OH239876   5.014   2.719   8.582 -0.4214 -0.9806 -0.1999
 6106TIP3    H139877   5.051   2.633   8.561 -2.5016 -2.1571  0.6681
 6106TIP3    H239878   4.920   2.710   8.564 -0.5658  1.4801 -1.1096
 6107TIP3   OH239879   2.660   1.384   7.786 -0.4141 -0.0197 -0.1636
 6107TIP3    H139880   2.755   1.379   7.772 -0.1632 -0.0788  1.4027
 6107TIP3    H239881   2.645   1.474   7.816 -1.0804  0.4319 -1.7352
 6108TIP3   OH239882   1.550   3.326   7.125 -0.3933 -0.1098  0.6271
 6108TIP3    H139883   1.540   3.300   7.033  1.3275  0.4267  0.2340
 6108TIP3    H239884   1.636   3.290   7.150 -0.1353  1.0793  1.5264
 6109TIP3   OH239885   2.379   6.554   7.325 -0.6839 -0.7065 -0.0970
 6109TIP3    H139886   2.383   6.544   7.420 -2.8244  1.9769  0.4144
 6109TIP3    H239887   2.457   6.605   7.303 -0.7388 -0.4017  0.3933
 6110TIP3   OH239888   5.796   2.983   7.737  0.3763  0.7766 -0.3812
 6110TIP3    H139889   5.756   2.902   7.769 -1.8747  2.1166  0.4696
 6110TIP3    H239890   5.737   3.012   7.667  0.3261  2.3910  0.2953
 6111TIP3   OH239891   3.094   3.497   1.584  0.7053 -0.5494 -0.1360
 6111TIP3    H139892   3.185   3.511   1.609 -0.0745  1.3735  1.8975
 6111TIP3    H239893   3.087   3.402   1.574  3.2677 -0.6476 -1.9880
 6112TIP3   OH239894   0.804   2.671   7.193  0.6555  0.2105  0.9195
 6112TIP3    H139895   0.756   2.611   7.250 -0.0680  0.4426  0.5587
 6112TIP3    H239896   0.809   2.753   7.243 -1.1549  0.8393  0.1368
 6113TIP3   OH239897   3.951   4.008   7.816  0.0325 -0.0277  0.5525
 6113TIP3    H139898   3.987   4.086   7.857  0.2016 -0.3406  1.0002
 6113TIP3    H239899   3.856   4.020   7.821  0.0367  0.9404 -0.8998
 6114TIP3   OH239900   4.586   0.472   1.684 -0.0456  0.4833 -0.1790
 6114TIP3    H139901   4.522   0.493   1.616 -1.6589  1.6283  1.5786
 6114TIP3    H239902   4.537   0.479   1.766  1.8920 -0.5003  1.1491
 6115TIP3   OH239903   5.034   0.110   0.914  0.3724 -0.0986  0.4095
 6115TIP3    H139904   5.032   0.127   0.819  2.5560 -1.6485  0.0184
 6115TIP3    H239905   4.975   0.175   0.951  2.2137  2.9940 -1.6623
 6116TIP3   OH239906   2.494   5.379   6.937  0.2130  0.3256 -0.0142
 6116TIP3    H139907   2.461   5.431   7.010  0.3234  0.2845  0.0652
 6116TIP3    H239908   2.523   5.444   6.873  0.1035  0.3617 -0.0273
 6117TIP3   OH239909   0.695   3.199   8.096 -0.4478 -0.5119 -0.5638
 6117TIP3    H139910   0.685   3.277   8.150  0.3520 -1.4398  1.0373
 6117TIP3    H239911   0.713   3.231   8.008  1.2588  1.1315  0.3324
 6118TIP3   OH239912   6.254   1.967   0.839  0.8283  0.5376 -0.3040
 6118TIP3    H139913   6.179   2.000   0.887  0.5139  0.5028 -0.7672
 6118TIP3    H239914   6.323   1.959   0.905  0.4833  0.7442  0.0859
 6119TIP3   OH239915   5.412   2.694   0.925 -0.3569  0.2650 -0.1265
 6119TIP3    H139916   5.505   2.687   0.947 -0.3263 -0.0355 -0.3569
 6119TIP3    H239917   5.401   2.642   0.846 -1.1446 -1.5580  1.1045
 6120TIP3   OH239918   0.185   2.541   1.120 -0.3826  0.3343  0.2459
 6120TIP3    H139919   0.130   2.606   1.165  0.7641  0.9248  0.8496
 6120TIP3    H239920   0.155   2.457   1.153  0.1211  0.7309  1.8134
 6121TIP3   OH239921   0.816   1.889   7.686  0.0959  0.4839 -0.1818
 6121TIP3    H139922   0.848   1.878   7.596  0.5471  0.0751  0.0237
 6121TIP3    H239923   0.848   1.811   7.732 -0.5490  0.4452  0.2194
 6122TIP3   OH239924   5.967   2.328   6.329  0.3336 -0.2214 -0.1595
 6122TIP3    H139925   5.989   2.420   6.339 -0.3916 -0.1386  0.8414
 6122TIP3    H239926   5.872   2.328   6.312  0.5951 -0.7003 -1.8096
 6123TIP3   OH239927   1.080   0.336   8.646  0.2489  0.3999 -0.6328
 6123TIP3    H139928   1.166   0.302   8.624 -0.5879 -1.6053 -0.9928
 6123TIP3    H239929   1.026   0.317   8.570 -0.7110  0.8886 -0.0960
 6124TIP3   OH239930   5.108   4.225   0.197  0.2082 -0.4994 -0.2753
 6124TIP3    H139931   5.107   4.278   0.118  1.5997  0.6836  0.4519
 6124TIP3    H239932   5.016   4.215   0.221 -0.1058  1.4147 -0.5634
 6125TIP3   OH239933   3.114   4.249   1.233  0.1186  0.2400 -0.0910
 6125TIP3    H139934   3.018   4.247   1.232  0.0438 -2.6493  1.7765
 6125TIP3    H239935   3.136   4.302   1.310  0.0826  1.1834 -0.7079
 6126TIP3   OH239936   3.575   6.675   0.059  0.5677 -0.4927 -0.3524
 6126TIP3    H139937   3.553   6.734  -0.014 -0.6423 -2.0649 -1.3284
 6126TIP3    H239938   3.502   6.685   0.120  1.5056  0.7067  0.6237
 6127TIP3   OH239939   6.476   4.457   2.216 -0.6498  0.2246 -0.1287
 6127TIP3    H139940   6.525   4.483   2.138  0.2337 -0.3239  0.2318
 6127TIP3    H239941   6.400   4.515   2.216 -0.7686  0.1124 -1.4923
 6128TIP3   OH239942   3.126   6.410   1.199  0.4178 -0.5085  0.2164
 6128TIP3    H139943   3.194   6.401   1.132  0.7191 -0.9235  0.5718
 6128TIP3    H239944   3.161   6.365   1.276  0.7570  1.3126  1.1822
 6129TIP3   OH239945   4.509   6.393   1.193  0.1178  0.7261  1.1269
 6129TIP3    H139946   4.598   6.364   1.173  0.3512  1.0272  1.7147
 6129TIP3    H239947   4.469   6.407   1.107  0.0302 -1.1777  0.8062
 6130TIP3   OH239948   2.441   1.723   2.186 -0.0948  0.0259 -0.1978
 6130TIP3    H139949   2.453   1.766   2.101 -2.1918  0.0021 -0.5690
 6130TIP3    H239950   2.528   1.723   2.226  0.7242  1.0236 -1.8767
 6131TIP3   OH239951   6.776   6.506   0.272 -0.2028 -0.1070 -0.3349
 6131TIP3    H139952   6.689   6.505   0.232 -0.7329 -0.0048  0.7735
 6131TIP3    H239953   6.760   6.532   0.363  0.9495 -0.4397 -0.0223
 6132TIP3   OH239954   0.290   5.368   8.301 -0.2289  0.4538  0.4404
 6132TIP3    H139955   0.338   5.435   8.349 -1.8222  1.7703  0.3052
 6132TIP3    H239956   0.312   5.286   8.344  3.1886  0.7633 -0.4855
 6133TIP3   OH239957   3.145   6.194   8.549 -0.1559  0.3766 -0.4296
 6133TIP3    H139958   3.236   6.165   8.542 -0.6054 -1.4053  0.4634
 6133TIP3    H239959   3.117   6.211   8.459  0.3507 -1.4372 -0.9681
 6134TIP3   OH239960   3.892   0.725   7.545  0.3592 -0.0122  0.3861
 6134TIP3    H139961   3.950   0.689   7.612  0.0422  0.1566  0.7598
 6134TIP3    H239962   3.948   0.783   7.494  0.9829 -1.3659 -0.5124
 6135TIP3   OH239963   6.650   3.464   0.384 -0.0772 -0.6940  0.5590
 6135TIP3    H139964   6.614   3.444   0.471  0.8950  1.0631  1.4262
 6135TIP3    H239965   6.604   3.544   0.358 -0.4495 -1.2782 -0.6325
 6136TIP3   OH239966   5.558   1.643   7.327 -0.0178  0.0987  0.2209
 6136TIP3    H139967   5.568   1.569   7.268  1.0199  0.2030  0.2352
 6136TIP3    H239968   5.632   1.700   7.306  0.5291  0.0142  1.7860
 6137TIP3   OH239969   0.455   0.163   0.020 -0.4043  0.0793 -0.4869
 6137TIP3    H139970   0.405   0.244   0.015  1.3395  1.2048 -0.4995
 6137TIP3    H239971   0.535   0.187   0.068  0.2207 -1.5975 -0.6200
 6138TIP3   OH239972   3.447   5.660   0.249  0.3068  0.3010  0.3105
 6138TIP3    H139973   3.513   5.615   0.301 -0.1301 -0.1543  0.4768
 6138TIP3    H239974   3.392   5.590   0.214 -0.2316  0.6893  0.3625
 6139TIP3   OH239975   5.435   0.847   1.918 -0.3453  0.0139  0.3680
 6139TIP3    H139976   5.438   0.903   1.995 -0.0489 -0.3656  0.6375
 6139TIP3    H239977   5.526   0.825   1.900 -0.2767  1.1758 -0.9008
 6140TIP3   OH239978   6.042   2.666   7.492 -0.0540 -0.2869  0.3615
 6140TIP3    H139979   5.957   2.621   7.491 -0.4752  0.4977 -0.2196
 6140TIP3    H239980   6.030   2.738   7.554  0.3889 -0.5273  0.7379
 6141TIP3   OH239981   3.492   6.450   8.339 -0.3113 -0.6257 -0.5570
 6141TIP3    H139982   3.539   6.470   8.257 -1.5264 -0.4153 -1.2272
 6141TIP3    H239983   3.508   6.357   8.353  3.0858  0.0188  1.0929
 6142TIP3   OH239984   5.488   6.157   7.052  0.1165  0.6049 -0.9687
 6142TIP3    H139985   5.499   6.183   6.960  2.2434  2.9368 -0.1777
 6142TIP3    H239986   5.571   6.115   7.075 -0.4535 -0.0899 -0.1232
 6143TIP3   OH239987   1.837   0.141   0.967  0.6148 -0.3219 -0.2971
 6143TIP3    H139988   1.881   0.196   1.032  0.9127 -1.7039  0.7130
 6143TIP3    H239989   1.908   0.099   0.919  0.4365 -1.6480  0.5499
 6144TIP3   OH239990   2.198   4.408   1.669  0.4638 -0.5324  0.0372
 6144TIP3    H139991   2.215   4.390   1.577 -0.4900  0.8657 -0.4340
 6144TIP3    H239992   2.112   4.449   1.671  1.2487  1.1822  1.3311
 6145TIP3   OH239993   4.712   3.923   0.387 -0.0649 -0.3120 -0.1748
 6145TIP3    H139994   4.741   3.882   0.306 -0.8191 -1.1265 -0.0557
 6145TIP3    H239995   4.696   3.849   0.446 -0.5216  0.2134  0.3684
 6146TIP3   OH239996   3.063   0.537   8.405  0.0453  0.3783 -0.5393
 6146TIP3    H139997   3.086   0.630   8.404  1.1402  0.1584  0.8897
 6146TIP3    H239998   3.123   0.498   8.469 -1.6940 -0.9651  0.3592
 6147TIP3   OH239999   3.545   2.995   0.623  0.0159 -0.3307  0.2406
 6147TIP3    H140000   3.612   2.962   0.564 -0.6744 -1.8947  0.2701
 6147TIP3    H240001   3.583   2.984   0.711  0.6656  1.0972  0.1553
 6148TIP3   OH240002   5.287   1.836   7.861 -0.1039  0.3499  0.3878
 6148TIP3    H140003   5.258   1.823   7.951  0.1602  1.3402  0.6334
 6148TIP3    H240004   5.215   1.883   7.819 -1.3640 -2.3401 -0.6853
 6149TIP3   OH240005   1.569   2.692   7.576 -0.4055  0.1392  0.0463
 6149TIP3    H140006   1.587   2.636   7.652 -0.4965  0.4424  0.2895
 6149TIP3    H240007   1.652   2.738   7.561 -0.6333  0.6865  0.4643
 6150TIP3   OH240008   1.646   0.455   1.676  0.2043  0.4123  0.1511
 6150TIP3    H140009   1.691   0.530   1.638  0.4929  0.3635  0.3954
 6150TIP3    H240010   1.603   0.413   1.601  2.3821 -0.8183 -0.4905
 6151TIP3   OH240011   2.818   2.114   2.167  0.2260 -0.3839 -0.0215
 6151TIP3    H140012   2.901   2.094   2.211 -1.6449 -1.9378  3.1677
 6151TIP3    H240013   2.782   2.187   2.216 -1.0130 -0.7934 -0.2786
 6152TIP3   OH240014   6.753   3.922   8.531  0.6447 -0.0101 -0.2364
 6152TIP3    H140015   6.772   3.871   8.452  1.0456 -1.2184  0.6161
 6152TIP3    H240016   6.785   4.009   8.511  3.2655 -0.9477 -0.4410
 6153TIP3   OH240017   2.349   1.571   7.797  0.3199 -0.0212  0.4268
 6153TIP3    H140018   2.342   1.593   7.704  1.0038  2.4280  0.8758
 6153TIP3    H240019   2.443   1.567   7.815  0.2487 -3.0492  0.5471
 6154TIP3   OH240020   5.741   4.227   1.796  0.3040  0.1179  0.6889
 6154TIP3    H140021   5.748   4.269   1.711 -0.7196 -1.6353 -0.3160
 6154TIP3    H240022   5.708   4.296   1.854  0.0818  1.0826 -0.5341
 6155TIP3   OH240023   0.114   3.155   8.325  0.1773  0.3788 -0.0352
 6155TIP3    H140024   0.115   3.199   8.240  0.7480  0.3430 -0.0523
 6155TIP3    H240025   0.061   3.077   8.312  1.5214 -0.4430 -0.7815
 6156TIP3   OH240026   2.700   2.237   8.275  0.1128 -0.3145 -0.0674
 6156TIP3    H140027   2.609   2.234   8.304 -0.0221  0.2724 -0.4104
 6156TIP3    H240028   2.740   2.158   8.312 -0.4251 -0.3516  0.4409
 6157TIP3   OH240029   5.728   6.632   0.724  0.0951 -0.5537 -0.1653
 6157TIP3    H140030   5.685   6.612   0.641  0.3325 -1.3849 -0.0926
 6157TIP3    H240031   5.657   6.665   0.780  0.1577  1.2692 -1.0842
 6158TIP3   OH240032   6.171   3.683   7.740  0.1241 -0.4120  0.2249
 6158TIP3    H140033   6.134   3.710   7.656 -1.3357  0.9969  1.2436
 6158TIP3    H240034   6.171   3.587   7.737  0.3467 -0.3874 -1.4488
 6159TIP3   OH240035   1.631   1.801   0.838  0.0231 -0.2298  0.1873
 6159TIP3    H140036   1.616   1.839   0.924 -1.7049 -0.7089  0.1451
 6159TIP3    H240037   1.638   1.876   0.780  0.0200  0.0855  0.5924
 6160TIP3   OH240038   6.750   6.606   1.422 -0.0355  0.4370  0.0092
 6160TIP3    H140039   6.683   6.538   1.412  1.5045 -1.3585  1.2277
 6160TIP3    H240040   6.817   6.583   1.358 -0.3136  1.9428 -0.8684
 6161TIP3   OH240041   4.002   5.426   1.700 -1.1516 -0.8728  0.1848
 6161TIP3    H140042   3.935   5.360   1.682 -1.6835 -0.8461  1.8563
 6161TIP3    H240043   3.955   5.497   1.745 -0.1870 -0.4003  0.4875
 6162TIP3   OH240044   1.110   4.045   1.169  0.2523  0.3911 -0.4717
 6162TIP3    H140045   1.201   4.030   1.145 -0.3280 -0.7135 -2.1621
 6162TIP3    H240046   1.114   4.107   1.242  2.4194 -1.3383  1.0000
 6163TIP3   OH240047   3.520   6.682   7.601 -0.0988  0.1321 -0.4410
 6163TIP3    H140048   3.539   6.775   7.618 -3.1498  0.7246  0.2782
 6163TIP3    H240049   3.581   6.635   7.657  3.1061  1.5112 -2.4644
 6164TIP3   OH240050   0.202   5.833   0.863  0.3768 -0.3668 -0.2979
 6164TIP3    H140051   0.109   5.849   0.848  0.0245 -2.6282 -0.9509
 6164TIP3    H240052   0.206   5.802   0.954  0.3980 -0.7191 -0.4150
 6165TIP3   OH240053   6.367   6.062   8.634 -0.3393  0.3986 -0.2263
 6165TIP3    H140054   6.372   6.147   8.678 -0.3529 -0.7114  2.0349
 6165TIP3    H240055   6.422   6.073   8.556  1.2739  1.9006  1.0213
 6166TIP3   OH240056   6.510   2.231   0.631 -0.1188 -0.0112 -0.0215
 6166TIP3    H140057   6.474   2.315   0.662 -0.9087 -0.7080  0.9841
 6166TIP3    H240058   6.466   2.217   0.547 -1.1111 -0.1231  0.5037
 6167TIP3   OH240059   1.716   5.680   7.054  0.4214  0.2071  0.1391
 6167TIP3    H140060   1.736   5.604   6.999 -1.5823 -0.3461  0.0884
 6167TIP3    H240061   1.729   5.756   6.996 -1.0563 -0.3359 -0.9546
 6168TIP3   OH240062   6.248   5.535   0.388  0.3692 -0.9001  0.3571
 6168TIP3    H140063   6.316   5.598   0.365 -0.6411  0.1022  0.0456
 6168TIP3    H240064   6.281   5.492   0.467  1.0133  0.1363  0.6666
 6169TIP3   OH240065   2.003   4.747   6.839  0.2982 -0.1789  0.5563
 6169TIP3    H140066   2.043   4.663   6.817  0.2144 -0.6490  2.0818
 6169TIP3    H240067   1.933   4.758   6.774 -0.1154 -1.6151  0.7180
 6170TIP3   OH240068   3.017   6.389   2.303  0.4250 -0.2679  0.0591
 6170TIP3    H140069   3.020   6.328   2.376  0.5636 -0.4634 -0.1088
 6170TIP3    H240070   3.081   6.457   2.326  1.6297 -1.1324 -0.5835
 6171TIP3   OH240071   1.725   3.550   6.291 -0.0028 -0.1369 -0.0271
 6171TIP3    H140072   1.699   3.507   6.372  0.9142  0.2770  0.4978
 6171TIP3    H240073   1.727   3.480   6.226 -0.4430 -0.5215  0.3694
 6172TIP3   OH240074   6.447   4.176   6.860 -0.0758  0.3193 -0.3536
 6172TIP3    H140075   6.527   4.123   6.849 -1.5520 -2.5947  1.7422
 6172TIP3    H240076   6.376   4.117   6.836 -1.7565  2.1470 -0.1114
 6173TIP3   OH240077   4.926   5.103   8.431 -0.1641 -0.0829 -0.5598
 6173TIP3    H140078   4.881   5.145   8.358 -0.3864  1.3945  0.3769
 6173TIP3    H240079   4.863   5.106   8.503  0.6297 -0.0287  0.1503
 6174TIP3   OH240080   0.202   3.893   1.523  0.1543  0.2303  0.1583
 6174TIP3    H140081   0.243   3.970   1.563  0.1373  0.8314 -0.9439
 6174TIP3    H240082   0.162   3.926   1.442 -1.2469 -0.6240  0.4686
 6175TIP3   OH240083   0.594   1.573   7.676 -1.0001 -0.8451 -0.1312
 6175TIP3    H140084   0.647   1.538   7.749  0.4348  0.3845 -0.5182
 6175TIP3    H240085   0.649   1.560   7.599 -0.4330  1.9825 -0.3233
 6176TIP3   OH240086   1.203   4.837   0.954 -0.2757 -0.2857 -0.4033
 6176TIP3    H140087   1.130   4.897   0.969  0.0339 -0.1110  0.4783
 6176TIP3    H240088   1.196   4.813   0.862 -0.4024  1.1309 -0.7940
 6177TIP3   OH240089   0.220   1.195   7.473 -0.5659  0.0717 -0.2338
 6177TIP3    H140090   0.259   1.125   7.420  4.1716  1.1085  1.4039
 6177TIP3    H240091   0.255   1.276   7.436 -2.8219  1.3810  0.2923
 6178TIP3   OH240092   1.926   4.418   7.890  0.0784 -0.2579  0.1955
 6178TIP3    H140093   1.914   4.505   7.928 -1.6537  0.4204 -1.6871
 6178TIP3    H240094   1.847   4.370   7.916 -2.2306  0.8661 -3.8425
 6179TIP3   OH240095   6.174   0.769   2.517 -0.3242  0.4805  0.8604
 6179TIP3    H140096   6.232   0.692   2.518 -1.9527 -0.7943  0.5309
 6179TIP3    H240097   6.200   0.818   2.595 -0.4640 -1.3583  2.1342
 6180TIP3   OH240098   3.180   4.108   1.536  0.0084  0.2064  0.2227
 6180TIP3    H140099   3.194   4.109   1.441 -0.2435 -0.6804  0.1644
 6180TIP3    H240100   3.098   4.059   1.547 -0.9546  1.8536  0.7906
 6181TIP3   OH240101   5.896   2.130   8.539 -0.2790 -0.0625 -0.6632
 6181TIP3    H140102   5.958   2.197   8.509  0.1241  0.6965  1.6678
 6181TIP3    H240103   5.885   2.073   8.463  0.2119  1.9979 -2.4028
 6182TIP3   OH240104   2.433   0.889   1.832  0.1462 -0.6711 -0.1332
 6182TIP3    H140105   2.395   0.830   1.898  1.7179 -2.2626 -0.5603
 6182TIP3    H240106   2.514   0.845   1.805  1.0853  1.4309 -0.9315
 6183TIP3   OH240107   5.152   0.918   1.947  0.2269  0.2173 -0.4276
 6183TIP3    H140108   5.232   0.870   1.928 -0.2646 -1.3211  1.1070
 6183TIP3    H240109   5.161   1.000   1.900  2.4980 -0.0983 -0.6326
 6184TIP3   OH240110   6.719   6.276   1.170  0.1392  0.7267 -0.1287
 6184TIP3    H140111   6.771   6.355   1.187 -1.0194  1.0933  2.2522
 6184TIP3    H240112   6.658   6.302   1.101  0.2658  1.7047  0.1055
 6185TIP3   OH240113   0.901   4.077   0.712 -0.1411 -0.0489 -0.1063
 6185TIP3    H140114   0.970   4.050   0.773 -1.1703  3.0000  2.7033
 6185TIP3    H240115   0.875   3.996   0.667  1.6747 -2.2305  2.4849
 6186TIP3   OH240116   3.357   5.771   1.696 -0.4603  0.0495  0.0320
 6186TIP3    H140117   3.430   5.829   1.719  0.1363 -0.4594 -0.5375
 6186TIP3    H240118   3.398   5.687   1.675 -1.1424 -0.0361 -1.0188
 6187TIP3   OH240119   3.474   3.722   0.282  0.1516  0.3217 -0.3227
 6187TIP3    H140120   3.560   3.760   0.301  0.9981 -1.3588 -0.6044
 6187TIP3    H240121   3.493   3.640   0.236 -1.6691  1.2027 -2.9012
 6188TIP3   OH240122   4.527   3.610   0.873 -0.0587  0.1645 -0.9904
 6188TIP3    H140123   4.446   3.561   0.885 -0.2418  0.5750 -0.5186
 6188TIP3    H240124   4.595   3.555   0.912  0.0592 -0.6492 -2.2805
 6189TIP3   OH240125   5.996   1.244   0.304 -0.0038  0.1991  0.4732
 6189TIP3    H140126   6.057   1.267   0.233  1.8458 -0.0724  1.9077
 6189TIP3    H240127   6.027   1.293   0.380 -1.3008 -0.3394  1.3942
 6190TIP3   OH240128   3.679   6.674   1.442 -0.1894 -0.1471 -0.7966
 6190TIP3    H140129   3.623   6.720   1.379  0.1740  0.7628 -0.4812
 6190TIP3    H240130   3.746   6.739   1.465 -0.2189 -0.5223  0.3915
 6191TIP3   OH240131   3.551   5.055   8.693  0.2397 -0.3034  0.0294
 6191TIP3    H140132   3.462   5.031   8.717  0.1517  1.1082  1.2018
 6191TIP3    H240133   3.603   5.042   8.772  1.1361 -1.2136 -0.6639
 6192TIP3   OH240134   3.190   6.180   2.428  0.5681  0.2463 -0.4183
 6192TIP3    H140135   3.209   6.127   2.351  0.6173 -0.0529 -0.2009
 6192TIP3    H240136   3.213   6.124   2.503  2.7820  1.3664 -0.1905
 6193TIP3   OH240137   3.596   6.178   8.350  0.0861  0.2869  0.6712
 6193TIP3    H140138   3.655   6.117   8.395 -1.3435 -1.6000  0.1460
 6193TIP3    H240139   3.643   6.204   8.271  0.5577 -0.5471  0.6686
 6194TIP3   OH240140   5.203   5.508   7.264 -0.1537 -0.1995 -0.3328
 6194TIP3    H140141   5.132   5.537   7.206 -0.0750 -1.9747 -1.3925
 6194TIP3    H240142   5.282   5.545   7.225 -0.4463  1.8701  0.9077
 6195TIP3   OH240143   2.040   5.721   1.560  0.0346 -0.1057  0.1406
 6195TIP3    H140144   1.970   5.663   1.528  0.0372 -0.1959  0.2989
 6195TIP3    H240145   2.110   5.661   1.585  0.1038 -0.0231  0.1418
 6196TIP3   OH240146   4.130   0.839   6.804  0.2629 -0.1541  0.0992
 6196TIP3    H140147   4.128   0.899   6.879 -1.0675 -1.1670  0.9230
 6196TIP3    H240148   4.120   0.752   6.842 -0.1487 -0.7228 -1.2379
 6197TIP3   OH240149   0.640   3.062   6.773  0.0787  0.6462  0.1127
 6197TIP3    H140150   0.679   3.118   6.839  0.1614  1.7898 -0.8760
 6197TIP3    H240151   0.595   3.122   6.714 -3.3451 -0.5976  1.2432
 6198TIP3   OH240152   6.724   0.957   1.160 -0.5817  0.2607 -0.3419
 6198TIP3    H140153   6.715   0.931   1.069  0.0598  2.2359 -1.0152
 6198TIP3    H240154   6.817   0.941   1.180 -0.4397  0.9673 -0.4234
 6199TIP3   OH240155   0.829   3.814   8.653  0.3804  0.3720  0.1294
 6199TIP3    H140156   0.867   3.734   8.617  1.8076  1.0751 -0.0035
 6199TIP3    H240157   0.749   3.785   8.697  0.3223 -0.9685 -0.7881
 6200TIP3   OH240158   3.929   3.553   6.410  0.7804  0.9626 -0.2750
 6200TIP3    H140159   3.845   3.508   6.404  0.4395  1.3551  1.2010
 6200TIP3    H240160   3.911   3.643   6.384  0.7074  1.0936  0.2340
 6201TIP3   OH240161   3.333   2.914   6.891  0.3109  0.3337 -0.0650
 6201TIP3    H140162   3.315   2.974   6.818 -1.6170 -0.3533 -0.2073
 6201TIP3    H240163   3.302   2.829   6.860  0.8201 -0.2732  1.0274
 6202TIP3   OH240164   0.735   1.035   1.217  0.1398 -0.1183  0.1958
 6202TIP3    H140165   0.715   0.969   1.283  0.6750  0.0446  0.5244
 6202TIP3    H240166   0.817   1.075   1.247 -0.4021  0.9967  0.2416
 6203TIP3   OH240167   0.331   5.642   7.805 -0.2948  0.2174 -0.1843
 6203TIP3    H140168   0.323   5.549   7.825 -1.0340  0.2355 -0.3954
 6203TIP3    H240169   0.413   5.668   7.848  1.1404 -1.0113 -1.9904
 6204TIP3   OH240170   4.950   2.891   7.932 -0.3794 -0.7468  0.2381
 6204TIP3    H140171   4.866   2.915   7.892 -0.0310 -0.7558 -0.5170
 6204TIP3    H240172   4.979   2.816   7.881  0.6563 -0.0106 -0.2861
 6205TIP3   OH240173   6.416   6.326   8.706  0.6825 -0.3448 -0.5254
 6205TIP3    H140174   6.358   6.395   8.739 -1.1615 -3.1628  2.8078
 6205TIP3    H240175   6.502   6.349   8.741 -0.0878 -0.1692  1.3807
 6206TIP3   OH240176   6.760   1.458   0.948 -0.5040 -0.5825 -0.6806
 6206TIP3    H140177   6.767   1.537   1.001  0.1056 -0.8077 -0.4113
 6206TIP3    H240178   6.690   1.476   0.886 -1.5793 -0.4884  0.5165
 6207TIP3   OH240179   4.040   5.717   8.473  0.6640  0.0031  0.0203
 6207TIP3    H140180   4.035   5.678   8.560 -0.4039  0.0159 -0.0234
 6207TIP3    H240181   4.046   5.811   8.489  2.6870 -0.1130  0.1130
 6208TIP3   OH240182   0.890   4.870   7.044  0.1463  0.0510 -0.3461
 6208TIP3    H140183   0.968   4.823   7.015 -0.0881 -0.9131  0.4952
 6208TIP3    H240184   0.838   4.882   6.965  1.3392  1.1384 -1.0132
 6209TIP3   OH240185   4.034   2.618   0.448  0.6752 -0.3244  0.3604
 6209TIP3    H140186   4.022   2.624   0.353 -3.1754  1.2036  0.7592
 6209TIP3    H240187   4.024   2.524   0.467  0.2490 -0.5090 -0.6684
 6210TIP3   OH240188   5.109   1.186   1.860 -0.0115  0.2244 -0.1263
 6210TIP3    H140189   5.191   1.196   1.908  0.3241 -0.4265 -0.5458
 6210TIP3    H240190   5.044   1.231   1.914  0.6996  1.1555 -0.0165
 6211TIP3   OH240191   1.534   5.789   1.091 -0.7032 -0.0046  0.0454
 6211TIP3    H140192   1.484   5.754   1.166 -0.6104  1.7024  0.9470
 6211TIP3    H240193   1.474   5.783   1.017 -0.1958 -3.4600 -0.2660
 6212TIP3   OH240194   2.334   5.728   7.801  1.0071  0.0727  0.0128
 6212TIP3    H140195   2.364   5.816   7.777  0.0104  0.5871  0.5637
 6212TIP3    H240196   2.256   5.714   7.747  0.7292 -0.1607  0.4745
 6213TIP3   OH240197   2.998   2.873   7.532  0.4824 -0.4436 -0.0557
 6213TIP3    H140198   3.004   2.785   7.494  1.1362 -0.0391 -0.9533
 6213TIP3    H240199   2.913   2.876   7.574  0.8777 -1.8592  0.9144
 6214TIP3   OH240200   1.102   4.987   6.288 -0.4843 -0.5309  0.0108
 6214TIP3    H140201   1.020   4.995   6.337 -0.0645  1.7033  0.4570
 6214TIP3    H240202   1.140   4.904   6.318 -0.9305  0.0578  2.4513
 6215TIP3   OH240203   4.784   4.327   0.005  0.2702  0.3827 -0.0156
 6215TIP3    H140204   4.709   4.305  -0.050  0.9073  0.3804 -0.9041
 6215TIP3    H240205   4.797   4.251   0.060  0.3843 -0.1268 -0.7342
 6216TIP3   OH240206   4.877   6.032   2.474  0.3342 -0.6307 -0.3543
 6216TIP3    H140207   4.961   6.058   2.513  0.5193 -0.5723 -0.7803
 6216TIP3    H240208   4.811   6.063   2.536  0.6640 -1.8320  0.6360
 6217TIP3   OH240209   5.001   6.139   6.643 -0.5242 -0.4431  0.2263
 6217TIP3    H140210   5.091   6.153   6.612  0.3559 -0.2942  2.5910
 6217TIP3    H240211   4.971   6.227   6.667 -0.4068 -0.7638  1.6109
 6218TIP3   OH240212   2.897   2.497   0.916  0.0687 -0.1685  0.1469
 6218TIP3    H140213   2.878   2.471   0.825  1.1611 -1.2689  0.2048
 6218TIP3    H240214   2.992   2.511   0.917  0.0274  0.0622  1.0771
 6219TIP3   OH240215   0.769   3.583   1.242  0.1844  0.3245 -0.3554
 6219TIP3    H140216   0.743   3.604   1.153  1.4162  1.7319 -0.4372
 6219TIP3    H240217   0.789   3.490   1.241  2.4029  0.7246 -2.1926
 6220TIP3   OH240218   6.150   2.133   6.378 -0.3428  0.0755  0.1991
 6220TIP3    H140219   6.100   2.213   6.363 -0.2604 -0.1820 -1.7934
 6220TIP3    H240220   6.085   2.067   6.401 -0.6066  0.3455  0.2327
 6221TIP3   OH240221   3.650   3.217   7.927 -0.1865  0.2011  0.0116
 6221TIP3    H140222   3.662   3.312   7.939 -1.5657  0.2312  1.3867
 6221TIP3    H240223   3.660   3.204   7.832 -0.6724  1.8254 -0.3039
 6222TIP3   OH240224   1.956   5.436   1.388  0.1965 -0.0858 -0.5677
 6222TIP3    H140225   2.045   5.464   1.367  0.5383 -0.2435  0.6175
 6222TIP3    H240226   1.967   5.368   1.455 -0.8182 -0.0794 -0.3747
 6223TIP3   OH240227   2.701   1.767   1.252  0.0817 -0.0988  0.1377
 6223TIP3    H140228   2.683   1.718   1.172 -1.8379  1.8830 -0.7479
 6223TIP3    H240229   2.615   1.800   1.280  1.2382  3.1269  0.3590
 6224TIP3   OH240230   3.228   0.021   1.838  0.7328 -0.1514  0.0644
 6224TIP3    H140231   3.244   0.039   1.930  0.3681 -0.3961  0.1796
 6224TIP3    H240232   3.301  -0.034   1.811  1.3576  0.7221 -0.0515
 6225TIP3   OH240233   3.978   2.439   7.320 -0.6795 -0.1688  0.1162
 6225TIP3    H140234   3.913   2.380   7.283  0.7640 -0.6962 -1.7493
 6225TIP3    H240235   4.030   2.385   7.380  0.7489 -0.9439 -1.7162
 6226TIP3   OH240236   1.488   5.992   2.147  0.1852  0.2759  0.7110
 6226TIP3    H140237   1.438   6.033   2.218 -2.3028  1.6588 -1.6609
 6226TIP3    H240238   1.446   5.907   2.134 -0.4631  0.7191 -0.1577
 6227TIP3   OH240239   2.477   5.362   7.906  0.1776  0.0473  0.0894
 6227TIP3    H140240   2.413   5.364   7.835 -1.4344  0.7181  1.4766
 6227TIP3    H240241   2.445   5.293   7.964  0.1409  1.0448  1.2932
 6228TIP3   OH240242   3.244   5.500   7.164  0.7085 -0.2651  0.0136
 6228TIP3    H140243   3.336   5.525   7.157  1.5488 -2.5831  1.3914
 6228TIP3    H240244   3.230   5.485   7.258 -1.3136  0.6972 -0.0675
 6229TIP3   OH240245   6.284   5.051   7.102  0.1617  0.1304 -0.4598
 6229TIP3    H140246   6.318   4.976   7.152 -0.3941  0.2835  0.1410
 6229TIP3    H240247   6.309   5.031   7.011 -0.1368 -0.8756 -0.3309
 6230TIP3   OH240248   2.628   2.810   0.137 -0.5339  0.4024  0.5536
 6230TIP3    H140249   2.627   2.741   0.203  1.1377 -0.3568 -0.1584
 6230TIP3    H240250   2.708   2.860   0.155 -0.8955  1.1772  0.0859
 6231TIP3   OH240251   2.154   6.559   0.592 -0.1628 -0.1305 -0.4334
 6231TIP3    H140252   2.092   6.487   0.595 -0.2021 -0.1349 -1.2750
 6231TIP3    H240253   2.234   6.524   0.631 -0.7301 -0.0594  0.8620
 6232TIP3   OH240254   6.763   3.100   0.142 -0.0912  0.5834 -0.3256
 6232TIP3    H140255   6.713   3.156   0.083  0.0857  2.2381  1.0126
 6232TIP3    H240256   6.771   3.151   0.223  3.6957  0.4393 -0.4123
 6233TIP3   OH240257   6.498   6.236   2.261  0.3907  0.5314 -0.1154
 6233TIP3    H140258   6.578   6.187   2.281 -1.3153 -1.9070  1.2817
 6233TIP3    H240259   6.517   6.326   2.289  1.0859 -0.9375  5.2203
 6234TIP3   OH240260   4.300   4.280   6.206 -0.1938 -0.9752  0.5306
 6234TIP3    H140261   4.342   4.195   6.217  0.6143 -0.7317 -0.5474
 6234TIP3    H240262   4.208   4.260   6.188 -0.0745 -1.5976  0.6180
 6235TIP3   OH240263   5.798   0.625   0.773 -0.3544  0.6202 -0.2983
 6235TIP3    H140264   5.820   0.617   0.866 -1.4975  1.0587  0.0184
 6235TIP3    H240265   5.703   0.612   0.769 -0.4742  1.6162 -1.2722
 6236TIP3   OH240266   3.859   0.324   6.507  0.5476  0.1515 -0.0684
 6236TIP3    H140267   3.810   0.328   6.589 -0.5111  1.7894 -0.7319
 6236TIP3    H240268   3.944   0.363   6.529 -0.1898  1.8149 -0.0096
 6237TIP3   OH240269   4.909   3.609   1.868  0.1287 -0.0527 -0.1216
 6237TIP3    H140270   4.988   3.566   1.901 -0.5590 -0.1022  1.5700
 6237TIP3    H240271   4.843   3.540   1.865 -0.2620  0.3109 -0.0216
 6238TIP3   OH240272   1.195   3.179   8.146  0.6335 -0.2760 -0.2650
 6238TIP3    H140273   1.154   3.128   8.215  0.9919 -1.2461 -0.7476
 6238TIP3    H240274   1.131   3.246   8.123  0.0957 -0.5980  0.2889
 6239TIP3   OH240275   2.052   5.381   0.218 -0.4123  0.0543  0.5189
 6239TIP3    H140276   2.068   5.293   0.251 -0.2147  0.1028  0.5560
 6239TIP3    H240277   2.086   5.439   0.286 -0.5011  0.1585  0.4748
 6240TIP3   OH240278   6.749   2.801   8.537  0.7386  0.4519  0.1051
 6240TIP3    H140279   6.826   2.829   8.587  1.9084  0.0218 -1.3708
 6240TIP3    H240280   6.743   2.707   8.553  0.7386  0.4248 -0.0471
 6241TIP3   OH240281   6.398   0.408   8.556  0.1525  0.2682  0.3389
 6241TIP3    H140282   6.477   0.384   8.604 -0.1174 -0.0957  0.6072
 6241TIP3    H240283   6.328   0.360   8.599 -0.2862  0.9207  0.3743
 6242TIP3   OH240284   3.826   5.273   8.009  0.2921 -0.0566  0.5739
 6242TIP3    H140285   3.849   5.318   8.090  0.4759  0.1186  0.4242
 6242TIP3    H240286   3.746   5.224   8.030  1.3372 -1.4844  1.3885
 6243TIP3   OH240287   1.927   0.478   8.713 -0.0901  0.2946  0.4043
 6243TIP3    H140288   1.967   0.489   8.799  0.8890  0.8949 -0.1081
 6243TIP3    H240289   2.000   0.450   8.657 -0.5881  0.5018 -0.3523
 6244TIP3   OH240290   1.034   3.048   7.018  0.3205  0.0840 -0.3440
 6244TIP3    H140291   0.961   3.069   7.076  1.4875  0.8182  0.9417
 6244TIP3    H240292   1.027   2.954   7.002 -1.2493  0.2551 -0.7631
 6245TIP3   OH240293   0.425   2.447   7.426 -1.5205  0.1786  0.0069
 6245TIP3    H140294   0.392   2.357   7.416 -0.1239 -0.2609 -0.9997
 6245TIP3    H240295   0.381   2.496   7.357 -0.8721 -0.1794 -0.6771
 6246TIP3   OH240296   4.246   6.288   8.463 -0.2606  0.1229  0.3718
 6246TIP3    H140297   4.190   6.309   8.388 -0.5900 -0.1487  0.5365
 6246TIP3    H240298   4.221   6.198   8.486  0.3408 -0.0479  0.3629
 6247TIP3   OH240299   5.449   1.783   0.198 -0.1507 -0.0777  0.1444
 6247TIP3    H140300   5.371   1.751   0.153  0.5694 -1.4123 -0.2354
 6247TIP3    H240301   5.433   1.876   0.211 -2.0788 -0.4265  0.6637
 6248TIP3   OH240302   0.729   2.150   1.143 -0.0466 -0.4248 -0.0563
 6248TIP3    H140303   0.780   2.193   1.075  0.8254  1.6696  1.7907
 6248TIP3    H240304   0.656   2.110   1.096  0.9974  0.1241 -2.3051
 6249TIP3   OH240305   2.423   2.689   7.529 -0.2092 -0.1657  0.2196
 6249TIP3    H140306   2.408   2.601   7.494  1.4817 -0.7764  0.9634
 6249TIP3    H240307   2.390   2.685   7.619  1.7981 -0.7393  0.9871
 6250TIP3   OH240308   6.016   0.096   6.333 -0.2070  0.2408  0.6794
 6250TIP3    H140309   6.003   0.007   6.364  0.0736 -0.0626 -0.0455
 6250TIP3    H240310   5.934   0.141   6.354 -0.0568  0.0313  1.7475
 6251TIP3   OH240311   4.735   0.111   0.745  0.0129 -0.3084  0.4662
 6251TIP3    H140312   4.713   0.096   0.837  0.0898 -0.5977  0.4365
 6251TIP3    H240313   4.827   0.086   0.738 -0.1588 -0.8760  0.1720
 6252TIP3   OH240314   6.065   3.339   7.843 -0.0035  0.7147 -0.6613
 6252TIP3    H140315   6.071   3.278   7.769  0.7191  0.0048 -0.0332
 6252TIP3    H240316   5.980   3.381   7.832 -0.4092 -0.2318 -1.2487
 6253TIP3   OH240317   4.941   6.243   3.017 -0.1164  0.2356 -0.2204
 6253TIP3    H140318   4.866   6.203   2.973 -1.5345  0.6480  1.6662
 6253TIP3    H240319   5.014   6.184   2.998 -1.1318 -0.7402 -1.2916
 6254TIP3   OH240320   5.427   6.705   8.165  0.3039 -0.5158  0.2304
 6254TIP3    H140321   5.338   6.688   8.196 -0.0460  1.6142  0.5521
 6254TIP3    H240322   5.478   6.718   8.245  0.4341  0.3480  0.0107
 6255TIP3   OH240323   5.050   4.859   7.931  0.0283 -0.1918  0.2495
 6255TIP3    H140324   5.112   4.793   7.901 -1.0598 -1.3226  0.3999
 6255TIP3    H240325   5.006   4.888   7.850 -1.5078 -1.7882  0.4628
 6256TIP3   OH240326   1.294   0.899   8.405  0.5215 -0.2881 -0.3545
 6256TIP3    H140327   1.220   0.949   8.441  1.9942  1.6168  0.2006
 6256TIP3    H240328   1.321   0.950   8.328  0.9993 -1.1882 -0.7968
 6257TIP3   OH240329   0.132   0.391   1.542  0.6172  0.3829  0.2554
 6257TIP3    H140330   0.209   0.439   1.511  0.5318  2.1027  2.3923
 6257TIP3    H240331   0.081   0.457   1.590 -2.0848 -0.7671 -0.8349
 6258TIP3   OH240332   1.893   3.581   1.489 -0.3044  0.3183 -0.4447
 6258TIP3    H140333   1.812   3.585   1.439 -1.1830  1.0138  0.9730
 6258TIP3    H240334   1.872   3.528   1.566  0.3362  1.2071  0.3674
 6259TIP3   OH240335   4.372   3.807   7.157  0.2533  0.3445 -0.3332
 6259TIP3    H140336   4.393   3.866   7.085 -1.2143 -0.2499 -1.2935
 6259TIP3    H240337   4.331   3.863   7.223  0.8377  0.7491 -0.3052
 6260TIP3   OH240338   3.724   2.703   7.875 -0.0381  0.1633 -0.1416
 6260TIP3    H140339   3.630   2.720   7.884 -0.0820 -0.7513  1.4762
 6260TIP3    H240340   3.729   2.628   7.815 -0.4197 -0.4590  0.5859
 6261TIP3   OH240341   5.229   0.004   1.115  0.2567 -0.1178 -0.5400
 6261TIP3    H140342   5.214   0.043   1.029 -0.4995  2.8002  0.7731
 6261TIP3    H240343   5.300   0.055   1.153 -0.3734 -0.3663  1.0883
 6262TIP3   OH240344   3.146   6.113   7.967 -0.2391  0.0557  0.1480
 6262TIP3    H140345   3.209   6.103   8.038  1.6031  3.2446 -0.8390
 6262TIP3    H240346   3.188   6.069   7.892 -0.2193  0.2988  0.0170
 6263TIP3   OH240347   0.052   1.103   8.050  0.1204 -0.2657  0.0006
 6263TIP3    H140348   0.059   1.159   8.128 -0.1122  1.5449 -1.2117
 6263TIP3    H240349  -0.039   1.112   8.022  0.0464 -1.3834 -0.1511
 6264TIP3   OH240350   4.347   3.343   8.581  0.5396 -0.4106 -0.1333
 6264TIP3    H140351   4.416   3.277   8.583 -1.2685 -2.4128  0.7545
 6264TIP3    H240352   4.312   3.339   8.492  1.2897  0.3291 -0.4695
 6265TIP3   OH240353   1.729   4.599   1.790 -0.6498 -0.6593  0.0772
 6265TIP3    H140354   1.708   4.540   1.718 -2.1393 -1.0244  0.7748
 6265TIP3    H240355   1.733   4.543   1.867  1.0708 -0.2944  0.2931
 6266TIP3   OH240356   2.068   3.184   7.304  0.1573 -0.1823 -0.5378
 6266TIP3    H140357   2.059   3.276   7.277 -0.9229  0.2834  1.2730
 6266TIP3    H240358   2.162   3.170   7.307  0.3388  0.6076 -1.6347
 6267TIP3   OH240359   0.685   1.651   7.942 -0.2653  0.3050  0.5176
 6267TIP3    H140360   0.734   1.686   7.867 -1.1903  1.9967  0.6646
 6267TIP3    H240361   0.744   1.585   7.980  0.8788  0.5575 -0.7440
 6268TIP3   OH240362   0.498   2.379   8.083  0.6303  0.0500 -0.1960
 6268TIP3    H140363   0.505   2.354   8.175  0.0362  1.1205  0.1539
 6268TIP3    H240364   0.575   2.340   8.042  0.2503 -1.5319  0.4818
 6269TIP3   OH240365   5.689   0.142   0.611  0.1970 -0.2937 -0.0274
 6269TIP3    H140366   5.774   0.171   0.645 -1.0027  0.1576  2.8358
 6269TIP3    H240367   5.693   0.047   0.614  1.1504 -0.3542 -1.5844
 6270TIP3   OH240368   0.905   3.716   0.223 -0.2682 -0.0787 -0.7228
 6270TIP3    H140369   0.867   3.636   0.188  1.9281 -0.8152 -1.6197
 6270TIP3    H240370   0.982   3.732   0.168  0.1555  1.8501  0.3427
 6271TIP3   OH240371   6.669   2.121   2.056 -0.0157 -0.4559  0.3694
 6271TIP3    H140372   6.717   2.157   2.131  2.2293 -1.5262 -0.4543
 6271TIP3    H240373   6.624   2.197   2.019  0.7995  0.5789  1.3946
 6272TIP3   OH240374   2.046   2.958   1.596 -0.1770 -0.0858 -0.0090
 6272TIP3    H140375   2.137   2.987   1.593 -0.0310 -0.1696  1.9845
 6272TIP3    H240376   2.049   2.874   1.641 -1.1763 -0.4185 -0.5287
 6273TIP3   OH240377   5.972   0.561   2.357  0.5583 -0.3668 -0.3118
 6273TIP3    H140378   5.987   0.513   2.438 -1.4760 -1.4769 -0.5080
 6273TIP3    H240379   6.028   0.638   2.363 -1.1530  0.8054  3.1899
 6274TIP3   OH240380   1.907   6.566   8.650  0.1887  0.1531  0.0140
 6274TIP3    H140381   1.883   6.622   8.723  0.4542  0.5734 -0.2192
 6274TIP3    H240382   1.933   6.483   8.691  2.0339  0.9506  0.5301
 6275TIP3   OH240383   1.388   3.052   0.246 -0.0401 -0.2472 -0.0414
 6275TIP3    H140384   1.448   2.981   0.270  0.4697  0.2925  0.2873
 6275TIP3    H240385   1.345   3.076   0.328  0.1001  0.1128 -0.0738
 6276TIP3   OH240386   2.853   2.999   8.515 -0.0568 -0.3927 -0.9307
 6276TIP3    H140387   2.834   2.906   8.502  1.5096 -0.5722 -2.1516
 6276TIP3    H240388   2.919   3.000   8.584  0.0709 -0.1885 -1.0570
 6277TIP3   OH240389   2.903   4.103   6.304 -0.3278 -0.6239  0.3541
 6277TIP3    H140390   2.976   4.051   6.269 -0.9377 -0.7565 -0.7783
 6277TIP3    H240391   2.831   4.041   6.312 -0.7086 -0.2118  0.1600
 6278TIP3   OH240392   4.850   4.708   1.727 -0.0034 -0.1397 -0.2458
 6278TIP3    H140393   4.923   4.664   1.683 -0.6920  0.1335 -1.6928
 6278TIP3    H240394   4.812   4.765   1.661 -0.0462  1.5694  1.1776
 6279TIP3   OH240395   2.351   4.731   0.075  0.8403  0.1652 -0.2707
 6279TIP3    H140396   2.385   4.775   0.153  1.4041 -0.2559 -0.2718
 6279TIP3    H240397   2.291   4.665   0.109  2.1489 -0.9730 -0.0887
 6280TIP3   OH240398   4.920   6.220   7.795  0.0007 -0.5781  0.0374
 6280TIP3    H140399   4.931   6.131   7.763  2.2084 -0.3931  0.1310
 6280TIP3    H240400   4.970   6.223   7.877  0.7758  0.9709 -0.4432
 6281TIP3   OH240401   2.217   2.355   1.785  0.0752 -0.5406 -0.0880
 6281TIP3    H140402   2.276   2.411   1.735 -1.0944  0.1133 -0.8112
 6281TIP3    H240403   2.215   2.392   1.873 -0.2037  0.1914 -0.3975
 6282TIP3   OH240404   0.691   6.791   1.128 -0.5366 -0.6193  0.3841
 6282TIP3    H140405   0.688   6.713   1.183 -1.0054 -0.5609  0.4486
 6282TIP3    H240406   0.742   6.765   1.052 -0.6575 -0.9757  0.4237
 6283TIP3   OH240407   5.175   6.313   0.825  0.6214 -0.0007  0.1661
 6283TIP3    H140408   5.126   6.395   0.828 -0.6144 -0.6958 -0.3943
 6283TIP3    H240409   5.206   6.307   0.734  0.9660 -0.0097  0.2831
 6284TIP3   OH240410   1.776   2.869   7.524 -0.4035  0.5870  0.2913
 6284TIP3    H140411   1.844   2.845   7.461 -1.5483 -0.6823 -0.5140
 6284TIP3    H240412   1.818   2.858   7.610  0.1796 -0.9410 -0.1644
 6285TIP3   OH240413   4.103   1.285   6.876 -0.3412 -0.0520  0.0172
 6285TIP3    H140414   4.121   1.346   6.805 -1.9391 -0.0660 -0.4472
 6285TIP3    H240415   4.049   1.217   6.836  0.1440 -0.9650  0.8703
 6286TIP3   OH240416   2.162   4.145   2.181 -0.6070 -0.2861 -0.0480
 6286TIP3    H140417   2.201   4.154   2.268  0.1637  0.7335 -0.4784
 6286TIP3    H240418   2.143   4.235   2.153 -1.0620 -0.6117 -0.8446
 6287TIP3   OH240419   3.945   0.929   1.515  0.3668 -0.1117  0.6592
 6287TIP3    H140420   3.871   0.877   1.545 -0.5091  1.1618  0.7872
 6287TIP3    H240421   3.946   0.916   1.420 -1.0357  1.0473  0.4316
 6288TIP3   OH240422   6.495   2.645   8.604 -0.3310 -0.1069  0.2136
 6288TIP3    H140423   6.570   2.625   8.660 -0.3367  1.2173  0.7248
 6288TIP3    H240424   6.420   2.607   8.651 -0.1191 -0.5465  0.2037
 6289TIP3   OH240425   6.693   0.183   0.887  0.1658 -0.0034  0.6037
 6289TIP3    H140426   6.729   0.106   0.931  1.1231 -0.3358 -0.7081
 6289TIP3    H240427   6.705   0.254   0.951  3.9893  0.0853  0.0334
 6290TIP3   OH240428   1.465   2.080   0.703  0.2213  0.5592 -0.0747
 6290TIP3    H140429   1.561   2.080   0.700  0.2390 -0.0446  0.3613
 6290TIP3    H240430   1.439   2.107   0.615  0.7847 -1.0105 -0.7680
 6291TIP3   OH240431   4.122   3.641   7.160  0.4456 -0.0494 -0.4423
 6291TIP3    H140432   4.190   3.707   7.172  0.6944 -0.5777  1.3239
 6291TIP3    H240433   4.040   3.692   7.156  0.7498  0.4446 -0.4442
 6292TIP3   OH240434   2.844   5.914   1.301 -0.1881 -0.7926 -0.0297
 6292TIP3    H140435   2.844   5.904   1.206 -0.9161 -2.9245  0.1517
 6292TIP3    H240436   2.932   5.887   1.328  0.0461 -0.1064 -0.0917
 6293TIP3   OH240437   0.116   2.339   6.924  0.1433 -0.2915 -0.3794
 6293TIP3    H140438   0.084   2.278   6.857  0.6051 -1.1827  0.1957
 6293TIP3    H240439   0.053   2.411   6.923 -1.0415 -1.3103 -0.2874
 6294TIP3   OH240440   2.643   2.136   0.577  0.7058  0.4237  1.1598
 6294TIP3    H140441   2.612   2.217   0.617  0.0692  1.0052 -0.4018
 6294TIP3    H240442   2.568   2.077   0.579  0.2219  0.9325 -0.3127
 6295TIP3   OH240443   0.363   1.834   8.099 -0.4508  0.5346 -0.0226
 6295TIP3    H140444   0.389   1.860   8.011  0.7479 -1.4288 -0.2982
 6295TIP3    H240445   0.268   1.824   8.093 -0.8326  3.4356 -0.2020
 6296TIP3   OH240446   1.490   3.529   6.749 -0.2330  0.5790 -0.1990
 6296TIP3    H140447   1.415   3.583   6.776 -0.7357  0.3185 -1.0165
 6296TIP3    H240448   1.470   3.506   6.658  0.2076 -0.5977 -0.0070
 6297TIP3   OH240449   2.812   4.022   7.604 -0.3403  0.1486  0.1440
 6297TIP3    H140450   2.771   3.973   7.675 -0.5837  0.4406  0.2085
 6297TIP3    H240451   2.905   4.015   7.621 -0.4204  1.1627  1.1455
 6298TIP3   OH240452   2.466   2.885   8.359  0.1894 -0.1734  0.1515
 6298TIP3    H140453   2.464   2.801   8.313 -0.8129  0.5211 -1.1605
 6298TIP3    H240454   2.508   2.866   8.443  1.8215 -1.5521 -0.9219
 6299TIP3   OH240455   2.636   0.789   0.966 -0.4129  0.7144 -0.2628
 6299TIP3    H140456   2.604   0.810   1.054  0.1787  0.3355  0.0571
 6299TIP3    H240457   2.652   0.874   0.925  1.4989  0.9631  0.8343
 6300TIP3   OH240458   2.361   1.296   1.079  0.2330  0.0332 -0.2005
 6300TIP3    H140459   2.324   1.274   1.164 -0.5060  1.5387 -0.1063
 6300TIP3    H240460   2.416   1.372   1.095  0.9327 -0.3160 -0.8930
 6301TIP3   OH240461   1.998   3.647   2.343  0.0055  0.9103 -0.2886
 6301TIP3    H140462   2.005   3.572   2.283  0.6763 -0.2194  1.1609
 6301TIP3    H240463   1.919   3.630   2.393 -0.3968  1.7111 -0.6330
 6302TIP3   OH240464   6.238   3.758   1.113 -0.1502  0.4161  0.5587
 6302TIP3    H140465   6.161   3.755   1.170  0.6742  0.8930  1.7275
 6302TIP3    H240466   6.308   3.793   1.168  0.4870  1.6736 -0.9649
 6303TIP3   OH240467   5.579   5.623   0.688  1.1125 -0.2484 -0.4615
 6303TIP3    H140468   5.604   5.547   0.634 -1.6884 -1.0010 -0.8398
 6303TIP3    H240469   5.539   5.585   0.766  0.7623  0.8597 -0.0893
 6304TIP3   OH240470   4.777   5.426   8.597  0.0798  0.7212 -0.3304
 6304TIP3    H140471   4.689   5.401   8.625 -1.3773  2.0457 -3.3272
 6304TIP3    H240472   4.814   5.471   8.673 -2.2876  1.1737  0.6440
 6305TIP3   OH240473   6.773   1.696   6.921  0.1932  0.0537 -0.2179
 6305TIP3    H140474   6.817   1.710   6.837  2.5394 -0.8015  0.7939
 6305TIP3    H240475   6.770   1.601   6.931  0.0333  0.1527  0.7283
 6306TIP3   OH240476   1.382   5.529   2.303  0.4272  0.0491 -0.2359
 6306TIP3    H140477   1.313   5.464   2.286  0.3521  0.0709 -0.0207
 6306TIP3    H240478   1.462   5.478   2.309  0.1306 -0.2555  1.7134
 6307TIP3   OH240479   3.974   6.737   2.334  0.1517  0.4292  0.1553
 6307TIP3    H140480   3.989   6.814   2.279  0.7574 -0.9131 -1.6511
 6307TIP3    H240481   3.879   6.734   2.345 -0.0026  0.6404 -0.9909
 6308TIP3   OH240482   4.888   1.713   7.358  0.3512 -0.0709  0.3010
 6308TIP3    H140483   4.955   1.780   7.339  0.3031  0.2135  1.0955
 6308TIP3    H240484   4.900   1.647   7.290  0.3484  0.7859 -0.5474
 6309TIP3   OH240485   2.303   4.981   7.206  0.1099 -0.3729  0.6248
 6309TIP3    H140486   2.244   4.912   7.176 -0.1162 -0.1773  0.6142
 6309TIP3    H240487   2.307   5.043   7.133 -0.6283  0.2249  1.0708
 6310TIP3   OH240488   5.954   1.067   0.727 -0.0619 -0.2466  0.6377
 6310TIP3    H140489   5.875   1.028   0.689 -1.7966  2.1451  1.5575
 6310TIP3    H240490   5.980   1.006   0.796 -2.4866 -0.0289  1.8509
 6311TIP3   OH240491   0.455   6.379   0.058 -0.0781 -0.9633 -0.1089
 6311TIP3    H140492   0.398   6.330  -0.001 -0.6283 -3.1681  2.0605
 6311TIP3    H240493   0.530   6.321   0.073 -0.1859 -0.7195  1.6595
 6312TIP3   OH240494   6.463   4.112   7.416 -0.2567 -0.4112 -0.0550
 6312TIP3    H140495   6.414   4.042   7.374  0.4631 -0.6336 -0.5608
 6312TIP3    H240496   6.555   4.088   7.403 -0.0093  0.1001  0.6742
 6313TIP3   OH240497   2.954   0.124   2.424 -0.1939  0.4410 -0.5883
 6313TIP3    H140498   3.043   0.095   2.401  0.9694  3.1747 -0.0217
 6313TIP3    H240499   2.899   0.091   2.353  1.4482 -0.4318 -1.5265
 6314TIP3   OH240500   0.570   4.997   7.621 -0.5008  0.2740  0.7605
 6314TIP3    H140501   0.641   4.985   7.558 -1.1345  0.1529  0.0565
 6314TIP3    H240502   0.496   4.949   7.584 -1.4976  1.8703  0.5620
 6315TIP3   OH240503   4.570   1.074   1.468 -0.2256  0.8258 -0.6676
 6315TIP3    H140504   4.524   1.072   1.552  2.1336  0.3200  0.7100
 6315TIP3    H240505   4.544   1.157   1.428 -1.7518  0.8634  0.3206
 6316TIP3   OH240506   1.724   3.677   8.563 -0.2309  0.3195 -0.3538
 6316TIP3    H140507   1.778   3.754   8.578  1.2592 -0.7159 -0.1839
 6316TIP3    H240508   1.742   3.619   8.637 -1.3987 -0.1717 -0.4254
 6317TIP3   OH240509   5.629   3.201   0.955  0.2064 -0.1567 -0.2421
 6317TIP3    H140510   5.575   3.187   0.877 -2.0746  1.9948  0.8130
 6317TIP3    H240511   5.634   3.114   0.996 -2.5342 -0.4954 -0.4244
 6318TIP3   OH240512   6.632   2.702   1.111 -0.5923 -0.3937  0.4392
 6318TIP3    H140513   6.631   2.735   1.201  0.7524 -0.5495  0.5369
 6318TIP3    H240514   6.725   2.698   1.088 -0.8737 -1.1423 -0.6693
 6319TIP3   OH240515   4.756   1.196   1.126  0.0784  0.2120 -0.2127
 6319TIP3    H140516   4.809   1.261   1.172 -0.7354  2.0850 -1.7830
 6319TIP3    H240517   4.666   1.220   1.148 -0.2409 -0.2628 -0.9858
 6320TIP3   OH240518   1.295   3.024   7.298 -0.5023  0.3531  1.0703
 6320TIP3    H140519   1.232   2.955   7.320 -1.7482  1.2754  0.5186
 6320TIP3    H240520   1.308   3.015   7.204 -3.4843  3.0228  0.2361
 6321TIP3   OH240521   0.340   2.289   2.089 -0.1747 -0.4457 -0.1099
 6321TIP3    H140522   0.370   2.379   2.080  0.2026 -0.6402 -0.8585
 6321TIP3    H240523   0.337   2.274   2.184  0.1561  0.2218  0.0103
 6322TIP3   OH240524   4.276   2.584   8.552  0.2298 -0.1325 -0.5245
 6322TIP3    H140525   4.187   2.550   8.563  0.0625  0.6226  0.7253
 6322TIP3    H240526   4.330   2.506   8.542 -0.3010 -0.7380  1.0321
 6323TIP3   OH240527   0.768   5.626   7.600 -0.0753  0.4106  0.3221
 6323TIP3    H140528   0.720   5.699   7.638  1.7603  2.0851 -0.3988
 6323TIP3    H240529   0.824   5.594   7.671  0.1789  0.6762  0.2439
 6324TIP3   OH240530   4.460   2.103   6.775 -0.5111 -0.0845  0.1211
 6324TIP3    H140531   4.368   2.081   6.790 -0.9470  0.9039 -0.9683
 6324TIP3    H240532   4.457   2.179   6.717  1.0045 -1.8067 -2.3938
 6325TIP3   OH240533   4.032   2.917   0.125  0.1470 -0.2507  0.5194
 6325TIP3    H140534   3.997   2.876   0.046  1.4989 -0.5172  0.0402
 6325TIP3    H240535   3.955   2.930   0.181 -0.6727 -1.0619 -0.3796
 6326TIP3   OH240536   1.767   1.248   7.981  0.3366  0.2697 -0.4345
 6326TIP3    H140537   1.812   1.322   8.022 -0.6513  0.1913  0.8844
 6326TIP3    H240538   1.679   1.250   8.019  0.1641 -1.3474 -0.6705
 6327TIP3   OH240539   1.290   1.383   0.653  0.2922 -0.2948  0.1842
 6327TIP3    H140540   1.228   1.407   0.584  2.1512  1.8401 -0.8877
 6327TIP3    H240541   1.250   1.414   0.734 -0.9869 -0.9487 -0.1692
 6328TIP3   OH240542   1.394   5.733   0.813  0.2133  0.5380  0.8213
 6328TIP3    H140543   1.322   5.743   0.875 -2.3274 -0.4478 -1.7417
 6328TIP3    H240544   1.421   5.642   0.822  0.6675  0.7179  1.2953
 6329TIP3   OH240545   6.550   0.845   8.041  0.3079 -0.1687 -0.1483
 6329TIP3    H140546   6.489   0.779   8.073  1.3746 -0.4401  1.4185
 6329TIP3    H240547   6.547   0.914   8.107  1.3251  0.0318 -0.2978
 6330TIP3   OH240548   2.073   2.183   0.732  0.0431 -0.1597 -0.1192
 6330TIP3    H140549   2.122   2.264   0.746  0.1784  0.2786 -2.6119
 6330TIP3    H240550   2.050   2.185   0.639 -2.2774 -1.7194  0.3374
 6331TIP3   OH240551   4.405   6.697   2.153  0.9656  0.7900 -0.1680
 6331TIP3    H140552   4.324   6.654   2.183  0.6305  0.3378 -1.6455
 6331TIP3    H240553   4.393   6.789   2.177  1.0181  0.3662  1.6426
 6332TIP3   OH240554   0.325   0.721   0.859  0.2411 -0.0733  0.3276
 6332TIP3    H140555   0.345   0.676   0.942  2.8522 -1.3852 -0.8980
 6332TIP3    H240556   0.361   0.809   0.870 -0.7385  0.2489  1.0794
 6333TIP3   OH240557   3.353   6.239   7.048  0.1514  0.3401 -0.2562
 6333TIP3    H140558   3.316   6.245   7.136  0.2493 -0.0173 -0.1880
 6333TIP3    H240559   3.290   6.185   6.999  1.3217 -1.6177  0.2851
 6334TIP3   OH240560   2.514   0.579   7.490  0.1010  0.1698 -0.0602
 6334TIP3    H140561   2.480   0.633   7.561 -0.2282  1.4355 -1.1357
 6334TIP3    H240562   2.472   0.494   7.503 -1.0117  0.7762  0.5001
 6335TIP3   OH240563   3.265   1.377   0.161 -0.0063  0.2133 -0.7232
 6335TIP3    H140564   3.263   1.463   0.118 -0.9778  0.4796 -0.1710
 6335TIP3    H240565   3.327   1.387   0.233 -0.4629  0.5936 -0.3796
 6336TIP3   OH240566   0.193   4.124   7.830 -0.5451  0.5163  0.4146
 6336TIP3    H140567   0.208   4.047   7.776 -1.5301  0.2909  0.4449
 6336TIP3    H240568   0.266   4.124   7.892  0.5952  0.7764 -0.8718
 6337TIP3   OH240569   0.070   6.713   0.701  0.3491 -0.0132  0.2145
 6337TIP3    H140570   0.075   6.733   0.794  2.7265 -4.1561  1.2466
 6337TIP3    H240571   0.160   6.697   0.674 -0.1606  1.7144 -3.1194
 6338TIP3   OH240572   3.347   4.234   2.147 -0.4509  0.0254  0.0835
 6338TIP3    H140573   3.301   4.314   2.122 -0.8202  1.0986  3.6656
 6338TIP3    H240574   3.280   4.165   2.140 -0.4797  0.1894 -1.7769
 6339TIP3   OH240575   6.123   6.148   0.791 -0.2972 -0.3524  0.3976
 6339TIP3    H140576   6.211   6.110   0.797  1.3975  2.5067 -2.7766
 6339TIP3    H240577   6.116   6.205   0.867  0.5901 -0.6358  0.7052
 6340TIP3   OH240578   2.806   0.134   6.843 -0.2038  0.3013  0.9457
 6340TIP3    H140579   2.823   0.046   6.877  0.6588 -0.0638 -0.3258
 6340TIP3    H240580   2.792   0.188   6.920  0.6674 -0.6745  1.8146
 6341TIP3   OH240581   5.029   2.668   7.796 -0.0716  0.0482  0.0554
 6341TIP3    H140582   5.072   2.662   7.711  1.8816 -0.1865  1.0177
 6341TIP3    H240583   5.018   2.577   7.825  0.4057  0.1588  0.5969
 6342TIP3   OH240584   4.618   3.038   1.217  0.7027 -1.0225  0.0219
 6342TIP3    H140585   4.702   3.021   1.259 -0.2892 -0.5842  2.3574
 6342TIP3    H240586   4.591   3.124   1.250 -1.2062 -1.6832  0.3252
 6343TIP3   OH240587   1.080   5.433   0.271 -1.2040 -0.2629 -0.1237
 6343TIP3    H140588   1.173   5.431   0.250 -1.0973 -2.3603  0.2822
 6343TIP3    H240589   1.074   5.387   0.355 -2.6011 -0.1106 -0.1176
 6344TIP3   OH240590   0.349   2.831   0.689  0.2155 -0.3399  0.5459
 6344TIP3    H140591   0.285   2.901   0.703  1.4527  0.8796  0.3029
 6344TIP3    H240592   0.434   2.872   0.708  0.9751 -1.7617  0.3388
 6345TIP3   OH240593   0.538   1.493   2.556  0.0196  0.2581 -0.2170
 6345TIP3    H140594   0.625   1.458   2.538 -0.7054 -0.1831 -3.5311
 6345TIP3    H240595   0.504   1.439   2.627  1.0274 -2.1961 -1.5012
 6346TIP3   OH240596   3.474   5.110   6.845  0.4513  0.0555  0.5493
 6346TIP3    H140597   3.414   5.165   6.795  1.5638  2.5931  1.8144
 6346TIP3    H240598   3.454   5.131   6.937  0.9692 -1.6657  1.0875
 6347TIP3   OH240599   5.317   4.147   7.107 -0.1263 -0.5735 -0.3619
 6347TIP3    H140600   5.361   4.230   7.127  1.4095 -0.9762 -1.8303
 6347TIP3    H240601   5.231   4.155   7.148  0.5110  1.1469  0.7627
 6348TIP3   OH240602   5.815   3.984   8.141  0.9353  1.0300  0.0469
 6348TIP3    H140603   5.850   3.899   8.116 -0.3348 -0.1409  1.9587
 6348TIP3    H240604   5.890   4.033   8.173  1.1990 -0.7345  2.3365
 6349TIP3   OH240605   3.562   6.208   6.578 -0.2077  0.1556  0.2291
 6349TIP3    H140606   3.628   6.262   6.622 -0.6232 -0.3816  1.5536
 6349TIP3    H240607   3.488   6.267   6.565 -0.0533  0.3414  0.1859
 6350TIP3   OH240608   4.001   0.237   7.197 -0.1254 -0.0174 -0.2147
 6350TIP3    H140609   3.964   0.216   7.112 -1.6939 -0.1699  0.4636
 6350TIP3    H240610   4.095   0.240   7.183 -0.3316 -0.4976 -1.8401
 6351TIP3   OH240611   3.456   6.378   0.362 -0.5020  0.6405 -0.1872
 6351TIP3    H140612   3.478   6.468   0.387 -0.4653  0.5946 -0.0521
 6351TIP3    H240613   3.506   6.362   0.282  2.4480 -0.5100  1.7053
 6352TIP3   OH240614   3.284   5.176   1.365 -0.3018  0.2340 -0.2703
 6352TIP3    H140615   3.361   5.195   1.418 -1.8559 -0.0949  2.2516
 6352TIP3    H240616   3.297   5.227   1.284  2.6217 -0.0265 -0.0585
 6353TIP3   OH240617   3.546   5.959   1.811 -0.1576 -0.1774  0.3114
 6353TIP3    H140618   3.637   5.941   1.836 -0.1634 -0.8293 -0.1016
 6353TIP3    H240619   3.501   5.976   1.894  0.3127  0.0281  0.5275
 6354TIP3   OH240620   4.460   0.224   2.345 -0.1858  0.2320 -0.2973
 6354TIP3    H140621   4.516   0.257   2.415 -0.2887  1.9189 -0.9531
 6354TIP3    H240622   4.491   0.269   2.267 -0.5993 -1.0035 -1.2106
 6355TIP3   OH240623   1.849   6.739   6.656 -0.4346  0.6557 -0.2864
 6355TIP3    H140624   1.921   6.797   6.631  0.3904 -0.4024 -0.4271
 6355TIP3    H240625   1.771   6.783   6.623  0.2554  1.2502 -1.1927
 6356TIP3   OH240626   5.676   5.182   1.704  0.1824  0.1181  0.2267
 6356TIP3    H140627   5.701   5.259   1.653  1.5955  1.0271  2.1531
 6356TIP3    H240628   5.588   5.161   1.674  0.4181  1.4259 -1.5583
 6357TIP3   OH240629   0.142   1.364   1.883  0.2399  0.7893 -0.6606
 6357TIP3    H140630   0.190   1.317   1.951  0.0519 -0.6463 -1.4741
 6357TIP3    H240631   0.210   1.392   1.821  0.2193  0.4199 -0.8505
 6358TIP3   OH240632   2.601   4.659   7.816  0.4427 -0.3311 -0.0865
 6358TIP3    H140633   2.638   4.638   7.730  1.4052  0.5731  0.0766
 6358TIP3    H240634   2.613   4.579   7.867  0.3667 -0.6957 -0.6311
 6359TIP3   OH240635   4.041   4.334   0.906 -0.0433 -0.0242 -0.3898
 6359TIP3    H140636   4.068   4.381   0.985  1.6912 -0.7779 -0.4877
 6359TIP3    H240637   4.107   4.358   0.841 -0.2838 -1.0233 -1.0159
 6360TIP3   OH240638   5.517   4.818   1.812 -0.6024  0.3302 -0.2311
 6360TIP3    H140639   5.452   4.851   1.750 -0.6583  0.1927 -0.2452
 6360TIP3    H240640   5.541   4.732   1.779  1.8441  1.5379 -1.9643
 6361TIP3   OH240641   5.736   0.570   8.054 -0.1424 -0.4251 -0.4425
 6361TIP3    H140642   5.699   0.518   8.126 -1.0177  0.1452 -0.4618
 6361TIP3    H240643   5.772   0.647   8.096  1.2611 -1.0726 -0.4027
 6362TIP3   OH240644   1.859   2.474   8.611  0.1948  0.2095  0.3852
 6362TIP3    H140645   1.873   2.443   8.521  0.5532  0.2300  0.4322
 6362TIP3    H240646   1.865   2.570   8.604  0.6327  0.1909  0.4996
 6363TIP3   OH240647   0.715   6.472   1.081 -0.1098  0.1219  0.1348
 6363TIP3    H140648   0.765   6.399   1.117  0.0707  0.9663  1.6889
 6363TIP3    H240649   0.624   6.453   1.106 -0.2414 -0.1738 -0.5421
 6364TIP3   OH240650   2.433   6.218   7.302  0.0944 -0.1464  0.1106
 6364TIP3    H140651   2.450   6.215   7.208  1.0453 -0.1558  0.2730
 6364TIP3    H240652   2.481   6.295   7.332  0.2750 -0.4705  0.6737
 6365TIP3   OH240653   2.129   5.340   7.175 -0.7343  0.1319 -0.8706
 6365TIP3    H140654   2.098   5.369   7.261  0.4837 -0.4840 -0.2049
 6365TIP3    H240655   2.072   5.386   7.113 -1.2424  1.0594  0.2409
 6366TIP3   OH240656   2.663   3.200   0.079 -0.4592  0.3530  0.0444
 6366TIP3    H140657   2.651   3.277   0.023 -1.5997  0.4405  0.3768
 6366TIP3    H240658   2.620   3.129   0.031 -0.3012  0.1472  0.2078
 6367TIP3   OH240659   3.093   0.201   7.187  0.3486  0.2396  0.8382
 6367TIP3    H140660   3.008   0.168   7.215  0.8290 -0.4621  1.5209
 6367TIP3    H240661   3.141   0.215   7.268  0.2161  2.5730  0.5832
 6368TIP3   OH240662   3.069   4.325   6.246  0.2061 -0.1710  0.1089
 6368TIP3    H140663   3.010   4.265   6.292  0.7397  0.0670  1.1151
 6368TIP3    H240664   3.057   4.303   6.153 -1.6776  0.0790  0.2619
 6369TIP3   OH240665   5.972   4.582   1.847 -0.6478 -0.1253 -0.0129
 6369TIP3    H140666   6.005   4.621   1.928 -0.1741  0.9652 -0.7175
 6369TIP3    H240667   6.050   4.553   1.800 -0.8936 -0.3760 -0.2712
 6370TIP3   OH240668   0.332   1.800   0.904  0.4203 -0.0077 -0.7799
 6370TIP3    H140669   0.319   1.750   0.985  0.0330  1.1223 -0.1063
 6370TIP3    H240670   0.346   1.890   0.934  1.6059  0.2108 -1.9234
 6371TIP3   OH240671   3.953   5.703   1.436 -0.2346  0.2436  0.0444
 6371TIP3    H140672   3.934   5.750   1.355  1.1873  1.1151  0.1816
 6371TIP3    H240673   4.049   5.694   1.437 -0.2114  0.3393  1.6611
 6372TIP3   OH240674   1.550   0.529   1.023  0.2454 -0.0340  0.4568
 6372TIP3    H140675   1.531   0.497   0.935  0.0976 -0.0022  0.4773
 6372TIP3    H240676   1.524   0.456   1.080  0.6787 -0.1979  0.4538
 6373TIP3   OH240677   4.927   2.809   1.365 -0.1180  0.1733  0.5848
 6373TIP3    H140678   4.857   2.784   1.304  0.3982 -0.5674  0.2755
 6373TIP3    H240679   4.998   2.839   1.308  0.6208 -1.1668  0.7640
 6374TIP3   OH240680   0.349   3.699   7.983 -0.2879 -0.0041 -0.2395
 6374TIP3    H140681   0.374   3.792   7.987 -3.3331  0.9219  0.2591
 6374TIP3    H240682   0.341   3.673   8.074  1.6196 -1.1693 -0.3534
 6375TIP3   OH240683   2.716   2.755   0.533 -0.5145 -0.0160 -0.1145
 6375TIP3    H140684   2.690   2.705   0.455  1.3458 -1.5704  0.1792
 6375TIP3    H240685   2.775   2.696   0.580 -0.0315  1.6468  1.4686
 6376TIP3   OH240686   3.430   2.385   1.596 -0.3895 -0.0533 -0.4485
 6376TIP3    H140687   3.403   2.411   1.508 -0.1784  0.4309 -0.3775
 6376TIP3    H240688   3.429   2.467   1.646  0.1576 -0.2077 -0.1741
 6377TIP3   OH240689   6.298   1.538   1.988  0.0637 -0.2429 -0.0785
 6377TIP3    H140690   6.217   1.564   2.031 -0.0146 -0.2874 -0.1978
 6377TIP3    H240691   6.366   1.557   2.052 -0.1012 -0.8393  0.2896
 6378TIP3   OH240692   6.485   0.843   1.239  0.1402 -0.3067 -0.4578
 6378TIP3    H140693   6.443   0.862   1.323 -0.1313  1.7763 -1.0051
 6378TIP3    H240694   6.560   0.902   1.235  0.3392 -0.6050 -1.5351
 6379TIP3   OH240695   1.798   6.040   2.076  0.3741 -0.5601  0.2009
 6379TIP3    H140696   1.848   6.079   2.148 -0.2983 -0.7928  0.8132
 6379TIP3    H240697   1.728   5.990   2.120 -1.3230  0.9605 -0.6136
 6380TIP3   OH240698   4.858   4.384   6.576  0.4607 -0.2426 -0.5705
 6380TIP3    H140699   4.803   4.330   6.632 -0.3343  1.0670 -0.0440
 6380TIP3    H240700   4.797   4.435   6.523  1.1894 -0.0816 -1.2782
 6381TIP3   OH240701   4.069   6.219   1.800  0.3438 -0.3710 -0.4478
 6381TIP3    H140702   4.057   6.228   1.705 -0.9092 -4.2693 -0.8470
 6381TIP3    H240703   3.981   6.198   1.833  1.1088 -1.0412  1.2591
 6382TIP3   OH240704   6.478   0.555   1.279 -0.4356 -0.8052 -0.2324
 6382TIP3    H140705   6.553   0.515   1.237 -1.6076 -2.0425 -1.2277
 6382TIP3    H240706   6.479   0.646   1.249 -1.7473 -1.8116 -3.8482
 6383TIP3   OH240707   5.222   5.266   7.535  0.3763  0.2213  0.2910
 6383TIP3    H140708   5.306   5.220   7.538  0.9423  0.8750 -2.5858
 6383TIP3    H240709   5.244   5.358   7.546  0.0586  0.3995 -0.4866
 6384TIP3   OH240710   5.469   3.482   1.474 -0.1380 -0.4830  0.6052
 6384TIP3    H140711   5.466   3.526   1.559 -0.7800 -0.6397  0.6672
 6384TIP3    H240712   5.378   3.465   1.452 -0.0971  1.0520 -0.9122
 6385TIP3   OH240713   4.145   3.918   8.296 -0.0988 -0.0943 -0.0233
 6385TIP3    H140714   4.135   3.921   8.391 -3.8428  2.0582 -0.2829
 6385TIP3    H240715   4.158   3.825   8.276 -4.7864 -1.6126  2.3856
 6386TIP3   OH240716   3.610   2.373   8.449  0.0211 -0.2614  0.4966
 6386TIP3    H140717   3.574   2.285   8.443 -1.8749  0.5670 -2.8318
 6386TIP3    H240718   3.572   2.410   8.528 -2.4363 -1.1864 -0.1690
 6387TIP3   OH240719   4.541   1.686   1.815  0.1649  0.4094  0.6539
 6387TIP3    H140720   4.479   1.720   1.879 -1.4705  0.1721 -0.7310
 6387TIP3    H240721   4.503   1.709   1.730 -0.6011 -3.9333 -0.3980
 6388TIP3   OH240722   0.810   6.410   6.443  0.4948  0.2128 -0.4859
 6388TIP3    H140723   0.872   6.339   6.423 -0.9339 -1.3526  0.3512
 6388TIP3    H240724   0.739   6.399   6.379 -0.3351  0.0779  0.4269
 6389TIP3   OH240725   1.874   6.439   7.040 -0.2340 -0.0131 -0.3768
 6389TIP3    H140726   1.894   6.503   7.108 -1.8851 -0.0511  0.2019
 6389TIP3    H240727   1.816   6.486   6.980 -0.0097 -0.4342 -0.9304
 6390TIP3   OH240728   3.237   0.816   8.121  0.1187 -0.2892 -0.0723
 6390TIP3    H140729   3.254   0.910   8.123 -0.1778 -0.1811 -1.5049
 6390TIP3    H240730   3.316   0.777   8.085  0.7215 -0.7554  1.6386
 6391TIP3   OH240731   1.907   4.339   1.979  0.1053  0.1570 -0.2392
 6391TIP3    H140732   1.812   4.346   1.978 -0.1403 -1.3824  2.1912
 6391TIP3    H240733   1.929   4.300   1.895 -1.2673  1.5913 -1.3103
 6392TIP3   OH240734   0.747   5.140   0.590 -0.0839  0.3879  0.2212
 6392TIP3    H140735   0.722   5.150   0.682 -0.7161  1.0068 -0.0032
 6392TIP3    H240736   0.718   5.222   0.549  0.3431  0.1861 -0.4931
 6393TIP3   OH240737   5.370   3.431   0.429 -0.2740 -0.1272 -0.0313
 6393TIP3    H140738   5.462   3.408   0.444 -0.2806 -1.0510 -1.1953
 6393TIP3    H240739   5.322   3.349   0.445 -0.9291  0.4052  0.7994
 6394TIP3   OH240740   4.718   1.654   0.792  0.2428 -1.3138 -0.2343
 6394TIP3    H140741   4.813   1.667   0.784  0.2351 -1.0819  0.0865
 6394TIP3    H240742   4.680   1.722   0.736  0.2159 -0.2053  1.1005
 6395TIP3   OH240743   0.359   1.442   1.741  0.0021 -0.4140 -0.7432
 6395TIP3    H140744   0.389   1.527   1.710 -0.4823 -0.6786 -1.9840
 6395TIP3    H240745   0.427   1.413   1.801  2.0854 -0.7844 -3.1044
 6396TIP3   OH240746   5.927   2.524   8.530 -0.2043  0.1085 -0.0165
 6396TIP3    H140747   5.856   2.564   8.479  0.4169  0.2473 -0.7827
 6396TIP3    H240748   5.908   2.550   8.620 -0.1842  1.5794 -0.4054
 6397TIP3   OH240749   4.917   5.672   2.127 -0.8596  0.3358  0.5052
 6397TIP3    H140750   4.854   5.738   2.156 -0.4624  1.4236 -1.0169
 6397TIP3    H240751   4.882   5.641   2.044  0.7401  1.1516 -0.4980
 6398TIP3   OH240752   5.395   6.426   2.637 -0.0163 -0.0813  0.6376
 6398TIP3    H140753   5.329   6.456   2.575 -0.0112  1.2888  1.2472
 6398TIP3    H240754   5.396   6.331   2.628  0.6242  0.1188 -2.0738
 6399TIP3   OH240755   0.541   0.185   0.536  0.3953 -0.0072  0.1408
 6399TIP3    H140756   0.554   0.192   0.442  0.7524 -2.1488 -0.0163
 6399TIP3    H240757   0.611   0.126   0.566 -1.3037 -1.5853  1.2774
 6400TIP3   OH240758   2.622   5.012   8.397 -0.3853  0.1224 -0.0571
 6400TIP3    H140759   2.612   4.952   8.471 -0.7285 -0.7660 -0.7982
 6400TIP3    H240760   2.577   4.969   8.325  2.3689 -0.4727 -1.5900
 6401TIP3   OH240761   2.121   5.313   2.324  0.1706 -0.6304 -0.1217
 6401TIP3    H140762   2.137   5.352   2.238 -1.8922 -1.6309 -1.0309
 6401TIP3    H240763   2.095   5.223   2.306 -1.9619 -0.4136  1.3708
 6402TIP3   OH240764   1.674   0.932   1.468  0.5547  0.1682 -0.4829
 6402TIP3    H140765   1.677   1.019   1.506 -0.5319 -0.0036  0.0421
 6402TIP3    H240766   1.674   0.947   1.373 -0.9217  0.8287 -0.4145
 6403TIP3   OH240767   2.211   0.751   8.427  0.5624  0.6182 -0.4320
 6403TIP3    H140768   2.268   0.800   8.368 -0.7063  3.4635  0.4651
 6403TIP3    H240769   2.124   0.756   8.386  0.1753  0.2151  0.3117
 6404TIP3   OH240770   1.154   0.763   2.814 -0.8198  0.0495 -0.2479
 6404TIP3    H140771   1.154   0.855   2.789 -0.0613  1.0179  2.9035
 6404TIP3    H240772   1.067   0.732   2.791 -1.6696  2.0232  0.1093
 6405TIP3   OH240773   5.256   0.884   8.513 -0.6990  0.1067 -0.1822
 6405TIP3    H140774   5.299   0.947   8.456 -0.5934 -0.5651 -0.8562
 6405TIP3    H240775   5.221   0.817   8.454  0.1772 -1.0790  0.5812
 6406TIP3   OH240776   6.366   5.306   7.174  0.7988 -0.3784  0.3558
 6406TIP3    H140777   6.439   5.308   7.112 -0.3491 -0.8027 -1.0639
 6406TIP3    H240778   6.329   5.218   7.163 -0.6532  0.2388  0.1656
 6407TIP3   OH240779   3.053   5.387   8.183  0.1333  0.3793  0.0387
 6407TIP3    H140780   2.962   5.388   8.211  0.0910  1.3755 -0.0799
 6407TIP3    H240781   3.081   5.296   8.192 -1.1434 -0.1147 -0.7921
 6408TIP3   OH240782   1.699   6.268   7.156  0.3804 -0.1052  0.3924
 6408TIP3    H140783   1.778   6.311   7.122 -0.3099  1.1764  0.3371
 6408TIP3    H240784   1.632   6.287   7.091  0.0768 -1.4213  0.3091
 6409TIP3   OH240785   4.962   1.586   0.132 -0.8065 -0.6312 -0.4577
 6409TIP3    H140786   4.947   1.574   0.038 -0.6302  0.7712 -0.6828
 6409TIP3    H240787   4.933   1.503   0.171 -2.5271 -0.6082 -1.5698
 6410TIP3   OH240788   0.819   5.464   1.972 -0.1445 -0.5054  0.3676
 6410TIP3    H140789   0.910   5.457   1.943  0.1954 -0.5143  1.3942
 6410TIP3    H240790   0.823   5.521   2.049 -0.9328 -0.9902  0.7769
 6411TIP3   OH240791   3.903   0.677   8.055 -0.9172  0.2428  0.1806
 6411TIP3    H140792   3.840   0.674   7.984 -0.8790  0.5759  0.1309
 6411TIP3    H240793   3.866   0.620   8.122  0.2769 -2.1448 -1.0931
 6412TIP3   OH240794   0.556   3.599   8.583 -0.2573 -0.4282  0.2645
 6412TIP3    H140795   0.573   3.600   8.489  1.8525 -0.7660  0.6046
 6412TIP3    H240796   0.480   3.542   8.593  0.9728 -2.3934 -1.0304
 6413TIP3   OH240797   1.078   1.856   7.056 -0.4228  0.2940 -0.0196
 6413TIP3    H140798   1.133   1.785   7.089  0.5948  1.8318  1.8628
 6413TIP3    H240799   0.993   1.842   7.098 -0.1621  0.3012  0.5185
 6414TIP3   OH240800   0.265   5.701   0.093  0.0781 -0.8361  0.3098
 6414TIP3    H140801   0.263   5.762   0.167 -0.6096  0.4505 -0.7291
 6414TIP3    H240802   0.186   5.649   0.103  0.3941 -1.2055  0.9131
 6415TIP3   OH240803   2.883   0.965   8.601  0.1218 -0.3782 -0.0563
 6415TIP3    H140804   2.810   0.905   8.620  2.3855 -2.7585  2.0767
 6415TIP3    H240805   2.914   0.939   8.515 -1.1613  0.2615 -0.7253
 6416TIP3   OH240806   4.803   3.194   6.627 -0.5711  0.1537 -0.0728
 6416TIP3    H140807   4.791   3.171   6.719  0.4782 -0.1452 -0.0056
 6416TIP3    H240808   4.890   3.233   6.622 -1.4414  2.1744 -0.5635
 6417TIP3   OH240809   3.377   4.218   1.162 -0.3760  0.3992 -0.2398
 6417TIP3    H140810   3.284   4.218   1.137  0.0358  1.1224 -1.8892
 6417TIP3    H240811   3.406   4.307   1.146  0.3433  0.4874  1.4024
 6418TIP3   OH240812   6.487   3.902   8.265  0.1757 -0.5890 -0.2439
 6418TIP3    H140813   6.454   3.904   8.355 -0.4070 -2.1207 -0.4021
 6418TIP3    H240814   6.575   3.867   8.272  0.3975 -0.0382 -0.2106
 6419TIP3   OH240815   6.375   3.043   7.308  0.3438  0.3335  0.0370
 6419TIP3    H140816   6.297   3.090   7.278  0.2002  1.4046  1.9319
 6419TIP3    H240817   6.344   2.955   7.329 -0.6421  1.0595  1.8143
 6420TIP3   OH240818   6.828   4.468   7.133  0.8540 -0.4019 -0.7427
 6420TIP3    H140819   6.907   4.460   7.186 -0.9918 -3.4848  1.9163
 6420TIP3    H240820   6.818   4.382   7.092 -1.9733 -0.7468  0.4626
 6421TIP3   OH240821   5.993   6.208   1.414  0.7326  0.0931  0.1149
 6421TIP3    H140822   5.912   6.236   1.371  0.8699  0.9419  0.4032
 6421TIP3    H240823   5.964   6.144   1.480  0.4796 -0.8896 -0.9105
 6422TIP3   OH240824   5.255   5.096   0.635  0.5651 -0.6652 -0.0423
 6422TIP3    H140825   5.254   5.041   0.713  0.5309 -0.4425  0.1172
 6422TIP3    H240826   5.185   5.160   0.650 -0.9442 -1.9726 -1.2576
 6423TIP3   OH240827   6.022   3.658   1.281  0.2439  0.7181 -0.5767
 6423TIP3    H140828   6.089   3.638   1.347 -0.8394  0.6011  0.5301
 6423TIP3    H240829   5.966   3.723   1.323 -0.9769  0.0023 -1.0538
 6424TIP3   OH240830   6.738   0.766   7.433 -0.3485  0.0575  0.2005
 6424TIP3    H140831   6.823   0.729   7.458  0.0077  1.6468  1.5639
 6424TIP3    H240832   6.714   0.720   7.352  2.0512 -0.0723 -0.5099
 6425TIP3   OH240833   0.409   2.232   1.185  0.6702 -0.5488 -0.3371
 6425TIP3    H140834   0.457   2.289   1.126  0.7845 -0.9773 -0.6605
 6425TIP3    H240835   0.461   2.232   1.265  0.3299  0.3138 -0.0985
 6426TIP3   OH240836   1.041   2.142   8.228  0.0704 -0.3220  0.1855
 6426TIP3    H140837   0.974   2.209   8.239  0.2225  0.2398 -1.8477
 6426TIP3    H240838   1.124   2.190   8.232  0.1600 -0.2027 -1.9783
 6427TIP3   OH240839   5.922   4.463   7.934 -0.1129  0.3239  0.3577
 6427TIP3    H140840   5.860   4.464   7.861  0.1027  0.1392  0.1719
 6427TIP3    H240841   5.966   4.547   7.929 -0.6519  0.6333  0.7504
 6428TIP3   OH240842   5.235   1.730   1.615  0.1200 -0.6945  0.0058
 6428TIP3    H140843   5.230   1.734   1.711  1.5610  0.2845  0.0825
 6428TIP3    H240844   5.203   1.816   1.586 -0.3689 -1.0129 -0.3970
 6429TIP3   OH240845   5.834   4.395   8.436  0.4771 -0.3776 -0.5652
 6429TIP3    H140846   5.847   4.431   8.524 -0.6772 -0.0762 -0.5051
 6429TIP3    H240847   5.745   4.421   8.412  0.2187 -1.7549 -1.2160
 6430TIP3   OH240848   5.403   5.649   7.119  0.4417  0.9554  0.0825
 6430TIP3    H140849   5.363   5.681   7.039  0.9472 -0.2953 -0.7040
 6430TIP3    H240850   5.496   5.672   7.112  0.6519  0.0851 -0.1111
 6431TIP3   OH240851   1.849   0.930   8.705  0.4359  0.1998 -0.2120
 6431TIP3    H140852   1.944   0.921   8.694  0.4839 -0.0696  0.4071
 6431TIP3    H240853   1.812   0.898   8.623  0.7196 -3.0498  0.8004
 6432TIP3   OH240854   6.847   5.101   2.206  0.2020  0.3578 -0.8189
 6432TIP3    H140855   6.796   5.138   2.278  0.8293 -0.7907  0.2730
 6432TIP3    H240856   6.782   5.060   2.150 -0.2880  1.1383 -0.8350
 6433TIP3   OH240857   6.497   2.965   1.212  0.0665  0.3695 -0.1415
 6433TIP3    H140858   6.486   2.905   1.138 -0.9181  0.0765  0.2340
 6433TIP3    H240859   6.444   3.042   1.189  0.2240  0.5215 -0.0009
 6434TIP3   OH240860   4.287   0.784   8.667  0.4454 -0.2594 -0.6352
 6434TIP3    H140861   4.341   0.835   8.726  0.5964 -0.5456 -0.5236
 6434TIP3    H240862   4.336   0.703   8.654  2.2107  1.1495 -3.9548
 6435TIP3   OH240863   1.389   2.392   6.621 -0.2207  0.2789 -0.3216
 6435TIP3    H140864   1.444   2.354   6.689  0.6427  0.7979 -0.7140
 6435TIP3    H240865   1.413   2.484   6.618  0.2417  0.1485 -1.7517
 6436TIP3   OH240866   4.456   0.266   1.034  0.7782 -0.2317 -0.2691
 6436TIP3    H140867   4.390   0.238   0.970  0.8331 -1.2275  0.0934
 6436TIP3    H240868   4.411   0.261   1.119  0.9046  0.4585 -0.1506
 6437TIP3   OH240869   1.832   0.197   7.395 -0.2910 -1.0247  0.2559
 6437TIP3    H140870   1.755   0.212   7.340  1.2305  2.6312 -1.1840
 6437TIP3    H240871   1.867   0.113   7.365 -1.5983 -0.9328 -1.7222
 6438TIP3   OH240872   5.873   1.943   8.316 -0.1510 -0.4230 -0.0656
 6438TIP3    H140873   5.861   1.866   8.372  0.5578 -1.4919 -1.3143
 6438TIP3    H240874   5.964   1.936   8.286  1.1912  2.8739  2.5726
 6439TIP3   OH240875   1.530   5.079   1.271 -0.1500 -0.2412  0.1498
 6439TIP3    H140876   1.565   5.157   1.227 -0.2002  1.1378  2.3707
 6439TIP3    H240877   1.573   5.006   1.228 -0.6619  0.9256 -2.5363
 6440TIP3   OH240878   6.658   1.995   7.701 -0.1767  0.1092  0.3648
 6440TIP3    H140879   6.571   2.018   7.735  0.4747  0.5686  1.7923
 6440TIP3    H240880   6.687   1.922   7.757  0.5723  0.3180  0.2548
 6441TIP3   OH240881   3.715   1.443   0.641 -0.2315  0.5293  0.3016
 6441TIP3    H140882   3.784   1.462   0.578 -0.9127 -1.7459 -1.2652
 6441TIP3    H240883   3.657   1.519   0.638  0.3210  0.9286 -1.0313
 6442TIP3   OH240884   1.866   5.546   8.071 -0.3065 -0.3478  0.7067
 6442TIP3    H140885   1.880   5.638   8.094 -1.5068 -0.2891  1.2654
 6442TIP3    H240886   1.847   5.503   8.154  0.5876 -1.1847  0.4956
 6443TIP3   OH240887   4.033   3.654   0.551 -0.1450  0.3720  0.3130
 6443TIP3    H140888   3.982   3.573   0.555  0.2294  0.1255  0.1953
 6443TIP3    H240889   4.124   3.625   0.538  0.0216  0.8036  0.4798
 6444TIP3   OH240890   3.957   3.164   8.605 -0.2895  0.2154 -0.1189
 6444TIP3    H140891   3.956   3.077   8.645  1.0431  1.2707  2.4406
 6444TIP3    H240892   4.034   3.163   8.547 -1.1517 -0.7320 -1.3002
 6445TIP3   OH240893   0.231   2.461   0.072  0.0191 -0.1018 -0.2225
 6445TIP3    H140894   0.314   2.491   0.034  0.2004 -0.8799 -0.4519
 6445TIP3    H240895   0.167   2.471   0.001  0.0475 -0.1209 -0.2506
 6446TIP3   OH240896   4.398   0.258   1.298  0.3615 -0.3399 -0.4176
 6446TIP3    H140897   4.470   0.208   1.335  0.5697 -0.9310 -1.5748
 6446TIP3    H240898   4.389   0.334   1.356  1.8388 -0.3091 -0.1898
 6447TIP3   OH240899   0.693   5.830   8.503  0.2515  0.3012  0.0056
 6447TIP3    H140900   0.669   5.921   8.485  1.3755  0.2262 -2.2034
 6447TIP3    H240901   0.738   5.801   8.423  2.0395 -1.4646  1.5572
 6448TIP3   OH240902   2.035   1.768   2.270  0.6170 -0.1723  0.4604
 6448TIP3    H140903   2.022   1.790   2.177 -0.2077  0.5076  0.7236
 6448TIP3    H240904   2.060   1.851   2.311  0.7013 -0.4114  0.8982
 6449TIP3   OH240905   6.352   1.871   7.501  0.7816  0.7666 -0.1726
 6449TIP3    H140906   6.382   1.835   7.417  1.0731 -0.7063  0.5362
 6449TIP3    H240907   6.415   1.940   7.521  1.5827  0.1468 -0.4786
 6450TIP3   OH240908   2.896   3.553   0.821  0.1001  0.3780  0.2214
 6450TIP3    H140909   2.953   3.506   0.882  0.4893 -0.1967 -0.5599
 6450TIP3    H240910   2.876   3.635   0.865  2.3119  1.0352  0.1600
 6451TIP3   OH240911   6.527   6.554   0.169  0.1829 -0.0617  0.3826
 6451TIP3    H140912   6.453   6.556   0.229  1.6789 -1.1245  2.3598
 6451TIP3    H240913   6.521   6.637   0.121 -2.2272 -0.1125  0.4824
 6452TIP3   OH240914   3.094   4.672   8.048 -0.9257  0.5499  0.1768
 6452TIP3    H140915   3.071   4.580   8.061 -2.2044  0.6031 -1.3082
 6452TIP3    H240916   3.048   4.719   8.117 -0.4373  0.0959  0.8149
 6453TIP3   OH240917   3.969   4.670   7.860 -0.6425 -0.2215 -0.4648
 6453TIP3    H140918   3.919   4.633   7.787  0.5027  0.8069 -1.8200
 6453TIP3    H240919   4.025   4.598   7.889 -0.5273 -0.4054 -1.1385
 6454TIP3   OH240920   3.697   3.895   0.179 -0.6205  0.0695  0.3375
 6454TIP3    H140921   3.637   3.896   0.105 -1.4364  0.3247  0.9771
 6454TIP3    H240922   3.778   3.857   0.145 -1.5336 -1.4404 -0.2616
 6455TIP3   OH240923   2.472   3.186   8.408 -0.2653 -0.0524  0.0104
 6455TIP3    H140924   2.517   3.180   8.492 -1.5105  0.8097  0.7839
 6455TIP3    H240925   2.455   3.096   8.383 -0.8352 -0.3173  1.2525
 6456TIP3   OH240926   4.562   0.467   7.679 -0.4236  0.3234  0.0656
 6456TIP3    H140927   4.548   0.411   7.603  1.6843  0.2716 -0.3392
 6456TIP3    H240928   4.561   0.408   7.754  1.0129 -0.1891 -0.2879
 6457TIP3   OH240929   1.576   1.476   7.913  0.6453 -0.3724 -0.1554
 6457TIP3    H140930   1.596   1.568   7.934 -0.5072 -0.0746 -0.2871
 6457TIP3    H240931   1.569   1.434   7.999  1.5355 -0.4370 -0.0991
 6458TIP3   OH240932   2.376   1.981   7.945  0.1389  0.1141  0.2892
 6458TIP3    H140933   2.417   1.912   7.893  0.7241 -0.8606  1.9597
 6458TIP3    H240934   2.414   2.063   7.913  3.5616 -0.7336  1.7722
 6459TIP3   OH240935   5.270   3.878   7.476  0.6585  0.2721 -0.7447
 6459TIP3    H140936   5.268   3.848   7.567 -2.0747 -0.2272 -0.8814
 6459TIP3    H240937   5.330   3.818   7.432  0.9427 -0.3539  0.4536
 6460TIP3   OH240938   1.353   3.391   0.768 -0.1515 -0.0354  0.2450
 6460TIP3    H140939   1.427   3.451   0.777 -0.0942 -0.2116  0.9297
 6460TIP3    H240940   1.276   3.448   0.773 -0.0733  0.1484 -0.4746
 6461TIP3   OH240941   0.688   1.045   6.976  0.1247  0.4444 -0.2842
 6461TIP3    H140942   0.777   1.040   7.011  0.0225  1.8109  0.2494
 6461TIP3    H240943   0.671   1.139   6.966 -2.2708  0.4498  2.3506
 6462TIP3   OH240944   5.759   1.808   0.207 -0.2704 -0.0769 -0.3847
 6462TIP3    H140945   5.798   1.887   0.169 -0.5213  0.0850 -0.3059
 6462TIP3    H240946   5.718   1.838   0.288 -0.6348 -0.2255 -0.5105
 6463TIP3   OH240947   4.830   5.526   7.567 -0.1971  0.0757  0.0973
 6463TIP3    H140948   4.765   5.474   7.613  0.3834 -2.2526 -1.5181
 6463TIP3    H240949   4.798   5.531   7.477 -0.4089  2.9240  0.2592
 6464TIP3   OH240950   3.843   5.839   7.414  0.0934  0.0831  0.1193
 6464TIP3    H140951   3.939   5.839   7.418  0.0481  0.4903  1.8323
 6464TIP3    H240952   3.823   5.877   7.328  1.4873  2.9667  0.9391
 6465TIP3   OH240953   2.536   5.835   1.441  0.0758 -0.5900 -0.6183
 6465TIP3    H140954   2.557   5.928   1.445  1.8334 -0.9650 -0.3972
 6465TIP3    H240955   2.440   5.832   1.434 -0.2898  1.1786  2.0725
 6466TIP3   OH240956   6.087   4.279   0.503  0.3322  0.6667  0.3545
 6466TIP3    H140957   6.113   4.343   0.569 -0.9056  1.0190  0.5250
 6466TIP3    H240958   6.135   4.304   0.424  1.7989  0.2599  1.0908
 6467TIP3   OH240959   2.172   6.150   0.082  0.2479 -0.1956 -0.6894
 6467TIP3    H140960   2.103   6.170   0.145  0.2491 -0.0171 -0.7452
 6467TIP3    H240961   2.148   6.065   0.045 -0.1873  0.0787 -1.0461
 6468TIP3   OH240962   5.462   1.532   8.108 -0.4172 -0.0322 -0.5862
 6468TIP3    H140963   5.472   1.585   8.029  0.6514  1.0415  0.2410
 6468TIP3    H240964   5.393   1.576   8.158  1.6348  1.6956  0.9069
 6469TIP3   OH240965   4.326   0.230   0.212  0.1709  0.2211 -0.1920
 6469TIP3    H140966   4.408   0.251   0.257 -0.5411  0.0655  1.2193
 6469TIP3    H240967   4.260   0.232   0.281 -1.1657  1.1550 -1.4399
 6470TIP3   OH240968   0.053   2.535   8.538  0.7712  0.2062  0.0468
 6470TIP3    H140969   0.065   2.451   8.494  0.0007  0.3039 -0.3581
 6470TIP3    H240970   0.075   2.600   8.471 -2.7840  0.4433 -1.0912
 6471TIP3   OH240971   3.885   1.033   0.836  0.5159 -0.1422  0.0077
 6471TIP3    H140972   3.942   1.083   0.894 -0.4012  0.5567  0.3232
 6471TIP3    H240973   3.799   1.035   0.878 -0.1988  0.4767 -1.4183
 6472TIP3   OH240974   4.984   2.034   8.161 -0.1305 -0.3092 -0.0931
 6472TIP3    H140975   4.921   2.096   8.198  1.7001  2.5550 -1.3797
 6472TIP3    H240976   5.036   2.006   8.236 -1.2298 -0.6463  0.5754
 6473TIP3   OH240977   0.937   5.456   8.252  0.0320  0.0928 -0.0435
 6473TIP3    H140978   1.026   5.469   8.284 -0.3722  1.2169  0.6584
 6473TIP3    H240979   0.947   5.451   8.157  1.2879 -3.5851  0.1100
 6474TIP3   OH240980   5.305   6.690   7.699  0.1843  0.7505 -0.4044
 6474TIP3    H140981   5.230   6.666   7.645 -0.9661  2.2233  0.4414
 6474TIP3    H240982   5.377   6.637   7.666 -1.6387 -2.2359  0.0550
 6475TIP3   OH240983   5.458   0.866   1.056  0.0219  0.0161  0.5207
 6475TIP3    H140984   5.395   0.936   1.047  1.5513  1.2865 -0.8484
 6475TIP3    H240985   5.420   0.808   1.122 -3.3211 -0.1827 -1.3715
 6476TIP3   OH240986   2.452   6.437   8.281 -0.5960  0.1224  0.7150
 6476TIP3    H140987   2.509   6.376   8.236 -1.3810  0.3776 -0.6773
 6476TIP3    H240988   2.441   6.400   8.369 -0.6331 -1.4505  0.0766
 6477TIP3   OH240989   0.660   0.873   6.760 -0.1746 -0.2856 -0.1567
 6477TIP3    H140990   0.646   0.926   6.839 -0.1682 -0.8853  0.2518
 6477TIP3    H240991   0.727   0.921   6.711 -0.3507  0.2142  0.0864
 6478TIP3   OH240992   4.495   1.305   1.346 -0.0648  0.1679 -0.3409
 6478TIP3    H140993   4.510   1.363   1.271 -0.6090 -0.0921 -0.6591
 6478TIP3    H240994   4.404   1.277   1.336  0.0269 -0.2985  0.1227
 6479TIP3   OH240995   4.519   6.499   7.974 -0.4439  0.0064 -0.2661
 6479TIP3    H140996   4.439   6.479   7.926 -1.3807  0.4013  1.0659
 6479TIP3    H240997   4.586   6.509   7.907 -1.2733 -1.3674 -1.3576
 6480TIP3   OH240998   2.990   4.257   0.868  0.4911 -0.1802  0.2467
 6480TIP3    H140999   2.946   4.292   0.791  0.1110 -1.6317 -0.2136
 6480TIP3    H241000   2.925   4.201   0.910  0.7068  0.5436  1.6179
 6481TIP3   OH241001   3.189   1.177   7.897  0.2220 -0.4982  0.2128
 6481TIP3    H141002   3.158   1.268   7.904 -0.6328 -0.8541  1.4357
 6481TIP3    H241003   3.284   1.184   7.906  0.1060  0.2225  1.0601
 6482TIP3   OH241004   4.198   1.351   0.885 -0.2189 -0.3444  0.1488
 6482TIP3    H141005   4.199   1.324   0.793 -1.2806  1.4275 -0.4290
 6482TIP3    H241006   4.260   1.424   0.890  0.2410 -0.7754  0.9777
 6483TIP3   OH241007   5.127   0.406   8.208 -0.5244  0.2846 -0.0984
 6483TIP3    H141008   5.104   0.487   8.164 -2.0564 -1.0637 -1.9312
 6483TIP3    H241009   5.066   0.341   8.174 -0.3671 -1.3532  2.4465
 6484TIP3   OH241010   6.421   2.310   1.294  0.0294 -0.1024  0.1864
 6484TIP3    H141011   6.396   2.217   1.289  0.9185 -0.2828 -1.6579
 6484TIP3    H241012   6.491   2.319   1.230 -1.9116  2.4355 -1.7824
 6485TIP3   OH241013   5.906   1.711   7.661 -0.1703 -0.5993 -0.1582
 6485TIP3    H141014   5.983   1.698   7.607  0.3456 -0.8801  0.6374
 6485TIP3    H241015   5.930   1.782   7.721 -0.7108 -0.3342 -0.2461
 6486TIP3   OH241016   3.387   4.062   0.081  0.4932 -0.5415 -0.5016
 6486TIP3    H141017   3.435   4.007   0.018  0.3567 -0.4991 -0.6429
 6486TIP3    H241018   3.453   4.089   0.145  0.6931 -0.3383 -0.7944
 6487TIP3   OH241019   2.664   2.310   7.170  0.6631 -0.2833 -0.0661
 6487TIP3    H141020   2.713   2.379   7.125  2.0832 -1.4473 -0.3667
 6487TIP3    H241021   2.696   2.228   7.132  0.0846 -1.1882  1.3132
 6488TIP3   OH241022   3.286   5.611   7.764  0.6080  0.0828 -0.2679
 6488TIP3    H141023   3.314   5.582   7.851  1.5256  2.4160  0.3102
 6488TIP3    H241024   3.357   5.584   7.705  0.7935 -0.0423  0.0132
 6489TIP3   OH241025   2.757   3.910   1.373  0.0382  0.2120  0.4160
 6489TIP3    H141026   2.830   3.928   1.432  1.2517 -0.5949 -0.7847
 6489TIP3    H241027   2.718   3.829   1.406  0.0156  0.3643  0.7611
 6490TIP3   OH241028   4.698   5.217   0.953 -0.1984  0.2081 -0.6115
 6490TIP3    H141029   4.607   5.246   0.946  0.1618  1.3010 -1.0757
 6490TIP3    H241030   4.733   5.226   0.865  1.3563  3.3859  0.1837
 6491TIP3   OH241031   5.666   4.047   1.470  0.3537 -0.6761  0.5312
 6491TIP3    H141032   5.591   3.996   1.502 -1.1573  0.8396 -0.4497
 6491TIP3    H241033   5.710   4.077   1.550  0.0985 -1.7943  1.1232
 6492TIP3   OH241034   3.220   0.639   1.437  0.1434 -0.2378  0.0698
 6492TIP3    H141035   3.197   0.591   1.357  0.5443 -0.0972 -0.1334
 6492TIP3    H241036   3.136   0.655   1.480 -0.1922  0.6159 -0.8539
 6493TIP3   OH241037   2.617   5.254   0.856  0.0665  0.1285 -0.4189
 6493TIP3    H141038   2.688   5.195   0.884 -0.2597 -0.4928 -0.8704
 6493TIP3    H241039   2.660   5.321   0.804  0.3066 -0.3353 -0.8258
 6494TIP3   OH241040   4.890   6.757   6.771 -0.3879  0.1674  0.2883
 6494TIP3    H141041   4.966   6.766   6.713  0.6471  2.6377  1.8512
 6494TIP3    H241042   4.823   6.715   6.717  1.8563 -1.5451 -1.3467
 6495TIP3   OH241043   3.776   5.835   0.939 -0.2319  0.8973 -0.7247
 6495TIP3    H141044   3.766   5.929   0.952  0.7512  1.0673 -1.1073
 6495TIP3    H241045   3.859   5.826   0.892 -0.2264 -0.1709 -0.5372
 6496TIP3   OH241046   5.177   6.476   1.420 -0.1856  0.6170  0.8269
 6496TIP3    H141047   5.255   6.505   1.372 -1.6960  3.8655  0.0616
 6496TIP3    H241048   5.112   6.458   1.352 -0.2240 -1.9143  1.4594
 6497TIP3   OH241049   0.454   2.677   1.559 -0.2804  0.1636 -0.8450
 6497TIP3    H141050   0.398   2.754   1.564  0.8144  1.1077 -2.1429
 6497TIP3    H241051   0.446   2.647   1.468  2.2733  1.1589 -1.4902
 6498TIP3   OH241052   2.343   3.321   6.432 -0.4117 -0.2171  0.0104
 6498TIP3    H141053   2.414   3.380   6.406 -1.0607  0.8207  0.5213
 6498TIP3    H241054   2.266   3.353   6.384 -1.1956  0.5411  1.7016
 6499TIP3   OH241055   5.552   4.618   0.045  0.4394  0.0396  0.4833
 6499TIP3    H141056   5.475   4.563   0.032  0.9273 -0.8453  1.1933
 6499TIP3    H241057   5.599   4.576   0.117  1.5434  0.6079  0.1127
 6500TIP3   OH241058   6.699   2.974   1.386  0.3188  0.3096 -0.4320
 6500TIP3    H141059   6.634   2.930   1.331  1.1887 -0.4933 -0.8376
 6500TIP3    H241060   6.663   3.062   1.400 -1.6803 -0.6298  0.7598
 6501TIP3   OH241061   3.671   3.913   8.196  0.9238  0.2436  0.0698
 6501TIP3    H141062   3.669   3.849   8.268  1.9843 -0.5436 -0.5833
 6501TIP3    H241063   3.682   3.997   8.240 -1.9050  0.2100  1.0493
 6502TIP3   OH241064   0.229   5.514   8.585  0.0780  0.4271 -0.1337
 6502TIP3    H141065   0.237   5.577   8.656 -1.7659 -0.1105  0.6110
 6502TIP3    H241066   0.299   5.538   8.524  0.3537  2.2496  0.8163
 6503TIP3   OH241067   2.825   3.235   0.554 -0.1483 -0.6017 -0.1073
 6503TIP3    H141068   2.904   3.277   0.588 -1.5664  0.0959  2.6045
 6503TIP3    H241069   2.816   3.155   0.605 -1.0241 -0.8115 -0.5728
 6504TIP3   OH241070   4.270   6.035   1.847  0.2699  0.1525  0.4002
 6504TIP3    H141071   4.275   6.045   1.942  0.1750 -1.1743  0.5565
 6504TIP3    H241072   4.194   6.089   1.822 -1.7668 -2.0036  1.5075
 6505TIP3   OH241073   0.329   1.824   1.836  0.0117 -0.6212  0.5364
 6505TIP3    H141074   0.412   1.786   1.805  0.6247  0.2402  1.0583
 6505TIP3    H241075   0.350   1.917   1.850 -1.3413 -0.1595 -0.3573
 6506TIP3   OH241076   3.622   5.853   7.582  0.9688  0.1980 -0.0160
 6506TIP3    H141077   3.704   5.818   7.546  0.2366 -1.7634  0.1191
 6506TIP3    H241078   3.615   5.941   7.545  2.5175 -0.0618 -1.0029
 6507TIP3   OH241079   6.047   1.174   2.610 -0.2283  0.7850  0.1017
 6507TIP3    H141080   5.966   1.137   2.574 -0.3697  0.9490  0.2503
 6507TIP3    H241081   6.022   1.204   2.697 -0.2682  1.7926 -0.2481
 6508TIP3   OH241082   0.614   3.281   0.181  0.0241 -0.3715  0.0393
 6508TIP3    H141083   0.686   3.235   0.225  0.5236  2.0642  1.9979
 6508TIP3    H241084   0.535   3.234   0.210  0.5922 -0.8527  0.8697
 6509TIP3   OH241085   2.193   0.858   0.893 -0.1808 -0.4872  0.2607
 6509TIP3    H141086   2.234   0.874   0.808 -0.5986 -2.1215 -0.3042
 6509TIP3    H241087   2.206   0.764   0.908  0.7593 -0.0688  2.5016
 6510TIP3   OH241088   2.024   4.342   7.279  0.6009 -0.3525  0.2051
 6510TIP3    H141089   1.952   4.287   7.246 -0.3782  0.4859  0.9188
 6510TIP3    H241090   2.041   4.309   7.367  3.4254 -2.7943 -1.0766
 6511TIP3   OH241091   6.526   3.088   6.958 -0.3132  0.2247  0.2717
 6511TIP3    H141092   6.476   3.163   6.927 -0.2906  0.5370  0.9768
 6511TIP3    H241093   6.579   3.122   7.030  0.5873 -0.2014 -0.1657
 6512TIP3   OH241094   2.459   6.799   1.140 -0.1332  0.0465  0.3359
 6512TIP3    H141095   2.476   6.822   1.048 -0.2078  1.2624  0.6040
 6512TIP3    H241096   2.502   6.715   1.152 -0.7252 -0.4785 -1.0107
 6513TIP3   OH241097   3.793   2.622   7.084 -0.6738  0.8668  0.3151
 6513TIP3    H141098   3.759   2.559   7.148 -0.5573  0.8986  0.4079
 6513TIP3    H241099   3.748   2.600   7.002 -0.1996  0.2865  0.2039
 6514TIP3   OH241100   5.923   5.107   1.757 -0.2175 -0.2165  0.7655
 6514TIP3    H141101   5.835   5.075   1.778 -0.6286  0.3326 -0.0477
 6514TIP3    H241102   5.910   5.199   1.737  0.4044 -0.3183 -0.1733
 6515TIP3   OH241103   3.662   0.691   0.617 -0.3713 -0.1216 -0.1290
 6515TIP3    H141104   3.589   0.640   0.582 -1.3308  0.2925  1.1656
 6515TIP3    H241105   3.683   0.755   0.549 -0.2510 -1.1621 -1.0904
 6516TIP3   OH241106   0.792   5.559   0.274  0.2611  0.4341 -0.0953
 6516TIP3    H141107   0.777   5.473   0.314 -0.6344  0.5302 -0.1957
 6516TIP3    H241108   0.761   5.622   0.340 -1.4837  0.5866 -0.9910
 6517TIP3   OH241109   4.500   1.276   7.731 -0.0559 -0.2416  0.0342
 6517TIP3    H141110   4.457   1.207   7.781 -0.7952 -1.2325 -1.8591
 6517TIP3    H241111   4.429   1.337   7.708  0.1673 -0.0795 -0.2292
 6518TIP3   OH241112   5.855   5.167   2.085 -0.2747  0.3126  0.4485
 6518TIP3    H141113   5.910   5.090   2.070 -0.4754  0.0506  1.0209
 6518TIP3    H241114   5.911   5.241   2.062 -0.1838 -0.0073 -0.4084
 6519TIP3   OH241115   2.086   2.168   7.120 -0.4861 -0.4953 -0.1074
 6519TIP3    H141116   2.067   2.147   7.028 -1.4158 -1.2046  0.2344
 6519TIP3    H241117   2.003   2.153   7.166 -0.0428 -0.1054  0.8497
 6520TIP3   OH241118   1.517   4.632   0.269 -0.0981  0.2229 -0.5396
 6520TIP3    H141119   1.566   4.684   0.333 -0.7481  1.3708 -0.9249
 6520TIP3    H241120   1.582   4.576   0.228  0.5454  0.3643  0.2543
 6521TIP3   OH241121   3.633   3.866   6.777 -0.1574  0.2735 -0.5522
 6521TIP3    H141122   3.590   3.881   6.692 -2.9675  0.6105  0.8235
 6521TIP3    H241123   3.628   3.772   6.790  1.5321  0.0393 -1.3069
 6522TIP3   OH241124   5.543   3.882   6.448  0.2621  0.6106 -0.1222
 6522TIP3    H141125   5.587   3.863   6.531 -1.3034 -1.2752  0.3280
 6522TIP3    H241126   5.470   3.939   6.472 -1.4909 -1.6741  0.1831
 6523TIP3   OH241127   2.044   5.927   1.729  0.4703  0.1049  0.0662
 6523TIP3    H141128   2.047   5.857   1.664 -0.1310  0.4228 -0.3088
 6523TIP3    H241129   2.005   5.887   1.806  0.9575 -0.2063  0.1566
 6524TIP3   OH241130   2.083   0.530   0.225  0.3278 -0.0512 -0.1591
 6524TIP3    H141131   2.059   0.620   0.205 -0.3262  0.0986  1.2373
 6524TIP3    H241132   2.094   0.527   0.320  1.2289 -1.2346 -0.2709
 6525TIP3   OH241133   5.703   1.027   1.962 -0.1949 -0.4996 -0.8237
 6525TIP3    H141134   5.777   1.088   1.955  0.6534 -1.6497 -2.5773
 6525TIP3    H241135   5.666   1.044   2.049  1.0765  1.2730 -0.5678
 6526TIP3   OH241136   4.878   0.594   8.290  0.0184  0.1593  0.0713
 6526TIP3    H141137   4.924   0.677   8.278  0.4317 -0.2849 -1.8896
 6526TIP3    H241138   4.830   0.581   8.208 -1.5773 -0.6438  1.0695
 6527TIP3   OH241139   5.191   3.004   6.846  0.2311  0.5991  0.9767
 6527TIP3    H141140   5.211   2.989   6.754 -0.2991 -1.0763  1.1047
 6527TIP3    H241141   5.269   2.972   6.893  0.0002  0.2995  1.1598
 6528TIP3   OH241142   4.809   0.944   1.362 -0.2664 -0.1669 -0.4442
 6528TIP3    H141143   4.797   0.906   1.275  0.0137 -0.6451 -0.2784
 6528TIP3    H241144   4.742   1.012   1.368  0.5831  0.8355 -1.5681
 6529TIP3   OH241145   4.065   0.743   0.989 -0.2857 -0.5808 -0.3495
 6529TIP3    H141146   3.978   0.781   0.976  0.6808  1.3877 -1.3751
 6529TIP3    H241147   4.104   0.741   0.902  0.8950 -0.9374  0.1709
 6530TIP3   OH241148   0.040   3.272   6.628  0.2203  0.6800  0.2437
 6530TIP3    H141149  -0.028   3.215   6.590 -0.8466  1.4147  0.9677
 6530TIP3    H241150   0.057   3.234   6.714  2.5860 -0.9462 -0.8506
 6531TIP3   OH241151   4.283   6.340   1.941 -0.0139  0.2329 -0.1511
 6531TIP3    H141152   4.292   6.280   2.014 -0.3760 -0.4828 -0.6840
 6531TIP3    H241153   4.211   6.305   1.888 -2.3531  2.7754  1.0757
 6532TIP3   OH241154   2.691   1.570   2.053 -0.1277  0.4238  0.1046
 6532TIP3    H141155   2.614   1.519   2.079 -0.5957  1.0865  0.0391
 6532TIP3    H241156   2.750   1.565   2.129 -0.3854  0.2144  0.2926
 6533TIP3   OH241157   0.713   4.781   1.903 -0.0523 -0.5114  0.2535
 6533TIP3    H141158   0.701   4.779   1.808  1.2097 -1.1790  0.0860
 6533TIP3    H241159   0.651   4.847   1.933 -1.3568 -1.1440 -0.8937
 6534TIP3   OH241160   0.781   5.567   0.702 -0.1690  0.3789 -0.4424
 6534TIP3    H141161   0.862   5.557   0.651  0.5373  1.8014  0.3421
 6534TIP3    H241162   0.806   5.543   0.791 -0.0563  2.6509  0.2008
 6535TIP3   OH241163   4.253   2.903   7.779 -0.0746 -0.2291  0.2868
 6535TIP3    H141164   4.257   2.829   7.718  2.3473 -0.8646  1.0812
 6535TIP3    H241165   4.160   2.915   7.797 -0.5800 -3.8624  0.9557
 6536TIP3   OH241166   2.628   1.469   8.185  0.2636 -0.4601  0.3556
 6536TIP3    H141167   2.653   1.517   8.106 -0.8024 -2.9065 -1.5829
 6536TIP3    H241168   2.555   1.519   8.221  1.0499  0.9298  0.1020
 6537TIP3   OH241169   0.243   1.349   0.156 -0.1982 -0.3217  0.3773
 6537TIP3    H141170   0.182   1.366   0.228 -0.7017  0.5294 -0.2287
 6537TIP3    H241171   0.199   1.386   0.079  0.6143 -0.6544 -0.2526
 6538TIP3   OH241172   6.734   1.759   7.824  0.4197  0.3304  0.1538
 6538TIP3    H141173   6.653   1.729   7.866  0.6534  1.5195  1.4976
 6538TIP3    H241174   6.777   1.678   7.796 -1.4771 -0.3074 -1.1278
 6539TIP3   OH241175   0.429   0.567   6.883 -0.0912  0.2441 -0.0255
 6539TIP3    H141176   0.510   0.615   6.902 -0.1899 -0.3020  2.0519
 6539TIP3    H241177   0.454   0.475   6.888 -0.6814  0.0766 -0.1352
 6540TIP3   OH241178   4.914   4.221   8.177 -0.3024  0.1094 -0.3756
 6540TIP3    H141179   4.937   4.187   8.091 -0.2797 -0.9270  0.0246
 6540TIP3    H241180   4.853   4.293   8.159  0.2635  0.3754 -1.2782
 6541TIP3   OH241181   0.722   2.703   1.599  0.4555  0.1301 -0.1623
 6541TIP3    H141182   0.630   2.686   1.580  0.2697 -0.4795  1.1693
 6541TIP3    H241183   0.723   2.731   1.690  1.5707  0.3174 -0.2167
 6542TIP3   OH241184   5.543   2.659   1.227  0.2516  0.2647  0.7726
 6542TIP3    H141185   5.586   2.697   1.304  1.0754 -0.6479  0.7738
 6542TIP3    H241186   5.577   2.570   1.221  1.2376  0.7352 -1.4429
 6543TIP3   OH241187   5.988   3.169   1.104 -0.3000  0.2162  0.0769
 6543TIP3    H141188   6.039   3.217   1.169  1.0710  0.5996 -1.2406
 6543TIP3    H241189   5.933   3.110   1.156  1.0000  0.2523  1.5681
 6544TIP3   OH241190   6.418   5.859   0.613  0.2453 -0.0257  0.5792
 6544TIP3    H141191   6.433   5.953   0.600 -1.6120  0.1403 -0.8693
 6544TIP3    H241192   6.464   5.818   0.539 -0.9553 -0.0254 -0.1922
 6545TIP3   OH241193   0.916   5.103   2.301  0.1863 -0.3958  0.0691
 6545TIP3    H141194   0.882   5.083   2.388  0.6999 -1.3090  0.0653
 6545TIP3    H241195   0.912   5.199   2.296  1.3674 -0.2139  1.6097
 6546TIP3   OH241196   3.529   4.175   6.577 -0.1177 -0.5855  0.2749
 6546TIP3    H141197   3.480   4.144   6.653  0.6962 -0.1837  0.9753
 6546TIP3    H241198   3.537   4.269   6.589 -2.0025 -0.1364 -1.5108
 6547TIP3   OH241199   2.210   2.885   8.651 -0.0386 -0.1382 -0.4522
 6547TIP3    H141200   2.212   2.922   8.739 -0.8950 -1.4513  0.1393
 6547TIP3    H241201   2.182   2.958   8.595 -1.0213  0.3085  0.5871
 6548TIP3   OH241202   4.067   0.865   7.389  0.4993 -0.6728  0.0575
 6548TIP3    H141203   4.142   0.895   7.440 -0.8249  1.7089  0.7405
 6548TIP3    H241204   3.998   0.929   7.408 -1.4848 -2.3498 -1.1169
 6549TIP3   OH241205   1.867   1.776   1.115  0.8237  0.1173 -0.0423
 6549TIP3    H141206   1.774   1.797   1.128  0.6468  0.3476 -1.4635
 6549TIP3    H241207   1.893   1.831   1.042  1.5492 -1.3694 -0.9463
 6550TIP3   OH241208   0.642   0.474   0.893 -0.2100 -0.5082  0.0795
 6550TIP3    H141209   0.574   0.507   0.952  0.0575  0.3262 -0.0658
 6550TIP3    H241210   0.709   0.438   0.952  0.1470  0.4998  0.3056
 6551TIP3   OH241211   4.506   2.631   7.304 -0.1068 -0.0671  0.0231
 6551TIP3    H141212   4.569   2.572   7.264  0.2693  0.2084  0.2042
 6551TIP3    H241213   4.534   2.719   7.276  0.4573  0.1724  1.2764
 6552TIP3   OH241214   1.229   4.526   0.209  0.6646 -0.6598  0.1012
 6552TIP3    H141215   1.268   4.571   0.135 -1.7515 -1.4182 -1.7770
 6552TIP3    H241216   1.293   4.458   0.233  1.9435  0.2863 -0.5535
 6553TIP3   OH241217   0.891   3.813   0.925  0.2331 -0.1432  0.5053
 6553TIP3    H141218   0.960   3.781   0.983  1.4504  2.4128  0.6124
 6553TIP3    H241219   0.894   3.755   0.849  2.4304 -0.1818  0.5664
 6554TIP3   OH241220   1.473   5.723   7.181  0.6504 -0.0302  0.7366
 6554TIP3    H141221   1.542   5.728   7.114 -1.3192 -0.7217 -1.4688
 6554TIP3    H241222   1.457   5.629   7.192 -1.5919  0.1323 -0.6659
 6555TIP3   OH241223   0.980   1.546   2.551 -0.7723  0.4660 -0.0812
 6555TIP3    H141224   1.056   1.489   2.540 -0.3190  1.3760 -2.0984
 6555TIP3    H241225   0.919   1.494   2.604  0.4098 -1.0838 -0.1562
 6556TIP3   OH241226   3.873   0.330   7.710 -0.2954 -0.2210  0.3695
 6556TIP3    H141227   3.955   0.291   7.681 -0.0231  0.2181  0.5305
 6556TIP3    H241228   3.828   0.353   7.629 -0.4789 -0.9019  0.2749
 6557TIP3   OH241229   5.251   5.911   7.029 -0.3275  0.1240 -0.7132
 6557TIP3    H141230   5.161   5.943   7.031  0.0450  1.2765 -1.3360
 6557TIP3    H241231   5.304   5.989   7.012  0.9256 -0.2825  1.0497
 6558TIP3   OH241232   3.816   3.520   8.516  0.3943 -0.1183 -0.2461
 6558TIP3    H141233   3.904   3.534   8.481  0.4345  0.6456  0.1534
 6558TIP3    H241234   3.788   3.436   8.477  0.8291  0.2161 -1.3183
 6559TIP3   OH241235   2.079   4.925   7.028  0.1717 -0.3992 -0.7983
 6559TIP3    H141236   2.123   4.959   6.950  0.6192 -2.0178 -1.2754
 6559TIP3    H241237   2.014   4.864   6.994 -0.8333  0.1689  0.0300
 6560TIP3   OH241238   4.021   2.364   0.012  0.8016  0.7121 -0.2701
 6560TIP3    H141239   4.092   2.336   0.070  0.2280 -0.6962 -0.1830
 6560TIP3    H241240   4.022   2.300  -0.059 -0.6131  0.4116 -0.0535
 6561TIP3   OH241241   4.587   3.252   7.556 -0.3347  0.4523  0.1581
 6561TIP3    H141242   4.537   3.203   7.621  1.5733  1.5745  2.6376
 6561TIP3    H241243   4.584   3.342   7.586  3.9407  0.4721  1.1763
 6562TIP3   OH241244   6.519   3.428   1.730  0.0889  0.2344  0.6213
 6562TIP3    H141245   6.541   3.457   1.818  1.3206  0.6872  0.1955
 6562TIP3    H241246   6.565   3.489   1.672 -2.1292  1.0586 -0.3773
 6563TIP3   OH241247   4.740   3.012   7.838 -0.1571 -0.0660  0.2450
 6563TIP3    H141248   4.771   3.093   7.877  0.4715  0.7984 -1.9031
 6563TIP3    H241249   4.717   3.036   7.748 -0.3874 -2.1656 -0.3111
 6564TIP3   OH241250   3.967   3.034   1.537 -0.2268  0.6804 -0.1846
 6564TIP3    H141251   4.027   3.041   1.611 -1.9263  1.1517  1.1915
 6564TIP3    H241252   3.888   3.081   1.564 -2.0723 -1.7089 -1.0311
 6565TIP3   OH241253   6.048   3.311   7.033 -0.0555 -0.3946  0.2538
 6565TIP3    H141254   5.994   3.233   7.045 -0.3833 -0.1606  0.3164
 6565TIP3    H241255   6.023   3.345   6.947 -0.9469  0.4262  0.8044
 6566TIP3   OH241256   1.070   5.939   1.838 -0.1483  0.5849 -0.2147
 6566TIP3    H141257   0.993   5.890   1.865 -0.2201  0.5602 -0.4651
 6566TIP3    H241258   1.131   5.930   1.912 -1.2481  2.5555  1.0458
 6567TIP3   OH241259   3.116   1.943   6.996  0.4388 -0.4973 -0.5784
 6567TIP3    H141260   3.187   1.888   6.963  0.0981 -0.6747 -1.0261
 6567TIP3    H241261   3.077   1.982   6.917  0.5292  0.2004 -0.2828
 6568TIP3   OH241262   6.059   5.357   7.251 -0.4826  0.7004 -0.0845
 6568TIP3    H141263   6.019   5.305   7.181 -1.7655  1.6627 -0.1084
 6568TIP3    H241264   6.151   5.333   7.250 -0.9335 -1.2070 -0.4139
 6569TIP3   OH241265   4.010   2.904   7.870  0.7710 -0.4291  0.5717
 6569TIP3    H141266   3.954   2.903   7.792  0.6943 -0.3997  0.6255
 6569TIP3    H241267   3.950   2.880   7.942  0.9567 -1.0004  0.5423
 6570TIP3   OH241268   3.988   2.341   0.599  0.1239  0.0000 -0.5117
 6570TIP3    H141269   4.001   2.346   0.694  0.0697  3.3100 -0.5702
 6570TIP3    H241270   4.051   2.276   0.570  1.1193 -0.0978  1.6387
 6571TIP3   OH241271   5.426   0.936   7.060 -0.4391 -0.2375  0.1198
 6571TIP3    H141272   5.491   1.005   7.050 -0.6544  0.0300  0.5369
 6571TIP3    H241273   5.345   0.982   7.083 -0.8214 -0.5534 -0.5818
 6572TIP3   OH241274   0.663   1.782   1.799  0.6085 -0.2068  0.0907
 6572TIP3    H141275   0.735   1.732   1.760  0.0888 -0.6498 -0.3152
 6572TIP3    H241276   0.706   1.838   1.864  1.5403  0.8646 -1.3900
 6573TIP3   OH241277   6.427   4.397   2.533 -0.1437 -0.3152 -0.3512
 6573TIP3    H141278   6.380   4.369   2.611 -3.1014  0.8802 -1.5684
 6573TIP3    H241279   6.407   4.491   2.525  0.6500 -0.2583 -2.1453
 6574TIP3   OH241280   5.324   6.082   7.455 -0.0085 -0.2634  0.0692
 6574TIP3    H141281   5.297   6.008   7.401 -0.8405  1.0183 -1.3291
 6574TIP3    H241282   5.356   6.041   7.536  0.5332 -2.1966 -1.0437
 6575TIP3   OH241283   6.651   3.024   0.403  0.5255 -0.3320  0.0818
 6575TIP3    H141284   6.658   2.933   0.432 -0.2760 -0.2106  0.7048
 6575TIP3    H241285   6.557   3.041   0.402  0.6887  0.6325  0.4321
 6576TIP3   OH241286   3.233   6.517   0.533 -0.1905  0.0066 -0.3243
 6576TIP3    H141287   3.274   6.497   0.449 -1.1993  1.2807 -1.1646
 6576TIP3    H241288   3.304   6.549   0.588  0.4430 -0.6088 -0.7776
 6577TIP3   OH241289   0.410   2.628   1.308  0.0220  0.3836  0.2827
 6577TIP3    H141290   0.460   2.592   1.235 -0.2854  0.1465  0.1888
 6577TIP3    H241291   0.319   2.625   1.279 -0.3475 -1.6801  1.4820
 6578TIP3   OH241292   3.233   5.572   8.238  0.6400  0.2334 -0.9295
 6578TIP3    H141293   3.289   5.532   8.171  0.3221 -1.4488 -0.2435
 6578TIP3    H241294   3.166   5.507   8.255 -1.1468  1.9081 -1.1849
 6579TIP3   OH241295   5.143   1.383   1.706 -0.1535 -0.0575  0.7000
 6579TIP3    H141296   5.141   1.301   1.755 -0.1724 -0.4960 -0.0170
 6579TIP3    H241297   5.119   1.358   1.617 -2.1834  1.0330  0.8888
 6580TIP3   OH241298   4.885   2.815   0.694 -0.1211 -1.0345  0.1067
 6580TIP3    H141299   4.947   2.887   0.690  1.2227 -2.1906 -1.2282
 6580TIP3    H241300   4.812   2.849   0.746  0.5069  1.2198 -0.3715
 6581TIP3   OH241301   1.442   1.971   6.960 -0.3250 -0.2641 -0.6296
 6581TIP3    H141302   1.419   2.022   7.038  0.9539  2.4797 -1.9040
 6581TIP3    H241303   1.370   1.988   6.899 -0.3333 -0.7243 -0.7455
 6582TIP3   OH241304   2.993   2.093   0.945  0.2925 -0.2337  0.1188
 6582TIP3    H141305   3.041   2.079   0.863  0.1766 -0.2116  0.0472
 6582TIP3    H241306   3.042   2.162   0.989  0.4283 -0.3333  0.1269
 6583TIP3   OH241307   1.468   0.286   1.145 -0.0731 -0.1437 -0.6321
 6583TIP3    H141308   1.457   0.252   1.056 -0.6133  0.3141 -0.7427
 6583TIP3    H241309   1.508   0.213   1.193 -0.6031 -0.7031 -1.0228
 6584TIP3   OH241310   3.938   2.288   1.514  0.1964 -0.3448 -0.6693
 6584TIP3    H141311   3.855   2.265   1.555 -0.9832  0.8400 -2.2943
 6584TIP3    H241312   3.917   2.305   1.422  2.4414 -1.1741 -1.4274
 6585TIP3   OH241313   4.870   5.331   7.845 -0.4938 -0.7258  0.2782
 6585TIP3    H141314   4.896   5.259   7.787  1.1729 -1.5904  1.9796
 6585TIP3    H241315   4.795   5.296   7.893 -0.5777 -0.7915  0.1002
 6586TIP3   OH241316   3.848   3.447   0.315  0.0239 -0.1400 -0.2676
 6586TIP3    H141317   3.904   3.417   0.243  1.5240  0.0180  0.7870
 6586TIP3    H241318   3.868   3.389   0.388  0.6724  1.4125  0.8665
 6587TIP3   OH241319   5.101   5.320   0.614  0.1134  0.1040 -0.0325
 6587TIP3    H141320   5.130   5.407   0.641 -1.0950  0.8577 -1.0426
 6587TIP3    H241321   5.103   5.323   0.518  1.0674 -1.3564 -0.0876
 6588TIP3   OH241322   6.333   3.693   0.533  0.3731  0.4683 -0.1579
 6588TIP3    H141323   6.299   3.681   0.621 -2.2917  3.4708 -0.6123
 6588TIP3    H241324   6.263   3.660   0.476 -0.8070  4.1392 -1.0965
 6589TIP3   OH241325   2.582   3.961   7.481  0.0217  0.3923 -0.1653
 6589TIP3    H141326   2.662   3.994   7.522 -0.1895 -0.4895  1.0127
 6589TIP3    H241327   2.537   4.039   7.450  2.2652  0.8059 -2.7266
 6590TIP3   OH241328   1.134   3.205   1.305  0.7872  0.2231  0.2121
 6590TIP3    H141329   1.143   3.185   1.211 -0.5327  0.8151 -0.0659
 6590TIP3    H241330   1.190   3.141   1.348  0.1818 -1.1247 -0.9011
 6591TIP3   OH241331   3.534   1.474   1.164  0.0230 -0.2039  0.3028
 6591TIP3    H141332   3.468   1.522   1.213 -0.9573 -0.3336 -0.8470
 6591TIP3    H241333   3.518   1.382   1.187  0.1542 -0.1996  0.4185
 6592TIP3   OH241334   2.027   1.891   2.027 -0.5682 -0.3757  0.1022
 6592TIP3    H141335   1.933   1.891   2.012 -0.5776 -2.7380 -0.3302
 6592TIP3    H241336   2.065   1.933   1.950 -1.2063 -1.0089 -0.5723
 6593TIP3   OH241337   2.282   3.685   1.004  0.7645 -0.1660  0.1458
 6593TIP3    H141338   2.215   3.617   1.008 -0.7006  1.2362  0.1604
 6593TIP3    H241339   2.289   3.717   1.094  0.9363  0.1970  0.0012
 6594TIP3   OH241340   3.779   3.173   6.819  0.1268 -0.0285 -0.1673
 6594TIP3    H141341   3.808   3.263   6.831  0.1004 -0.1108  0.5603
 6594TIP3    H241342   3.760   3.166   6.726 -1.2284  1.1193 -0.0051
 6595TIP3   OH241343   4.420   3.439   8.278  0.2853  0.5499  0.2304
 6595TIP3    H141344   4.338   3.393   8.296 -0.8342  1.9281 -1.2284
 6595TIP3    H241345   4.456   3.457   8.365 -2.1765  2.0597  1.0356
 6596TIP3   OH241346   3.921   6.340   0.521  0.0428 -0.2206  0.2697
 6596TIP3    H141347   3.958   6.374   0.440 -0.6346 -0.0166  0.0440
 6596TIP3    H241348   3.847   6.286   0.493 -1.2873  1.2504  0.8295
 6597TIP3   OH241349   5.364   3.655   8.356 -1.1681  0.2407 -0.5238
 6597TIP3    H141350   5.290   3.605   8.390 -0.8386  0.8900  1.2747
 6597TIP3    H241351   5.439   3.595   8.363 -0.8689  0.7412  1.1623
 6598TIP3   OH241352   6.752   4.204   7.061  0.0798  0.3332 -0.1314
 6598TIP3    H141353   6.659   4.191   7.044 -0.2483  3.0005 -0.8312
 6598TIP3    H241354   6.789   4.116   7.060 -2.1450 -0.6818 -1.5523
 6599TIP3   OH241355   4.416   1.702   7.149 -0.5088 -0.3556  0.1102
 6599TIP3    H141356   4.440   1.676   7.239 -0.8804  1.9802  0.9506
 6599TIP3    H241357   4.492   1.751   7.117 -0.7510 -0.3766 -0.5037
 6600TIP3   OH241358   6.412   3.425   7.149  0.1206  0.0758  0.3216
 6600TIP3    H141359   6.487   3.423   7.090  0.8337  0.1580  1.1892
 6600TIP3    H241360   6.451   3.418   7.237 -0.8162  1.0456  0.8363
 6601TIP3   OH241361   0.371   1.572   7.895 -0.5642  0.5584  0.0089
 6601TIP3    H141362   0.303   1.591   7.831 -0.5323 -0.7978 -0.4547
 6601TIP3    H241363   0.436   1.642   7.883 -0.8393  0.6426 -1.0317
 6602TIP3   OH241364   2.245   5.832   1.377  0.2413  0.3210  0.1793
 6602TIP3    H141365   2.246   5.889   1.454 -0.1466 -1.7479  1.8162
 6602TIP3    H241366   2.173   5.770   1.395  0.4710 -0.5189 -1.6245
 6603TIP3   OH241367   4.057   6.785   0.621  0.0911 -0.0691 -0.1914
 6603TIP3    H141368   4.106   6.745   0.550  0.2761  0.6398 -0.4764
 6603TIP3    H241369   4.119   6.787   0.694  0.1704 -0.0538 -0.2579
 6604TIP3   OH241370   2.439   0.083   8.578  0.2452 -0.1586  0.0184
 6604TIP3    H141371   2.477  -0.004   8.586  2.2390  0.7141  0.8356
 6604TIP3    H241372   2.508   0.142   8.609  0.0829  1.9575 -3.2079
 6605TIP3   OH241373   3.569   0.662   0.862  0.4056 -0.5295  0.0384
 6605TIP3    H141374   3.532   0.577   0.836 -1.4995  0.1892  0.2117
 6605TIP3    H241375   3.609   0.696   0.782 -0.9277 -0.5781 -0.6878
 6606TIP3   OH241376   6.706   3.976   0.091 -0.2535  0.1391 -0.0787
 6606TIP3    H141377   6.791   3.941   0.066  0.1115 -0.0254  1.2777
 6606TIP3    H241378   6.650   3.964   0.014  1.3067  1.5580 -1.4912
 6607TIP3   OH241379   4.287   3.018   7.258  0.4005  0.1953  0.2720
 6607TIP3    H141380   4.342   3.089   7.291 -1.0870  0.9168  1.3136
 6607TIP3    H241381   4.335   2.938   7.279  0.3244  0.7089  2.7788
 6608TIP3   OH241382   0.610   6.001   8.133 -0.5548  0.2087 -0.5417
 6608TIP3    H141383   0.682   5.961   8.182  0.5055  1.9190 -0.6283
 6608TIP3    H241384   0.556   6.042   8.200  0.2881  1.5898 -0.6658
 6609TIP3   OH241385   0.924   0.160   1.261 -0.4408 -0.4496  0.4432
 6609TIP3    H141386   0.888   0.105   1.330  0.3785 -2.5317 -0.7172
 6609TIP3    H241387   0.876   0.135   1.182  1.1831 -0.8617 -0.4604
 6610TIP3   OH241388   3.128   6.135   1.060 -0.2463 -0.0654  0.3646
 6610TIP3    H141389   3.090   6.203   1.115  1.8829 -1.3624  3.7496
 6610TIP3    H241390   3.053   6.081   1.034 -1.4002  0.7723  1.7847
 6611TIP3   OH241391   4.244   0.414   8.719  0.0822  0.2316 -0.2043
 6611TIP3    H141392   4.282   0.331   8.688 -0.9176  0.0705 -1.0630
 6611TIP3    H241393   4.284   0.428   8.805  1.0664 -0.5987 -0.5002
 6612TIP3   OH241394   6.706   2.531   0.017 -0.1139 -0.0208 -0.2741
 6612TIP3    H141395   6.739   2.517   0.106 -1.3081  0.5478  0.2745
 6612TIP3    H241396   6.784   2.557  -0.033  0.7230 -1.1347  0.3982
 6613TIP3   OH241397   6.115   6.355   6.838 -0.1919  0.2257  0.9144
 6613TIP3    H141398   6.058   6.362   6.761 -0.1447  1.2324  0.9507
 6613TIP3    H241399   6.138   6.446   6.858  2.1526 -0.1665  0.3473
 6614TIP3   OH241400   3.746   5.738   0.107 -0.4319 -0.1460 -0.3788
 6614TIP3    H141401   3.782   5.734   0.018 -1.8368  0.6816 -1.0247
 6614TIP3    H241402   3.751   5.647   0.138  3.2835  0.0946  0.1110
 6615TIP3   OH241403   5.715   5.780   6.818  0.4205 -0.2700  0.3535
 6615TIP3    H141404   5.710   5.686   6.801  2.9257 -0.2447 -0.9151
 6615TIP3    H241405   5.631   5.814   6.786  0.6204 -1.7153 -1.9760
 6616TIP3   OH241406   1.096   3.910   7.693  0.3111  0.2121  0.1480
 6616TIP3    H141407   1.079   3.997   7.658  1.2115 -0.1519 -1.2825
 6616TIP3    H241408   1.013   3.863   7.683  0.6019  0.0213 -1.8937
 6617TIP3   OH241409   2.614   6.136   0.030 -0.1581 -0.7412 -0.3604
 6617TIP3    H141410   2.697   6.169   0.064 -0.5261 -1.6021  1.5097
 6617TIP3    H241411   2.627   6.132  -0.065  0.9559  1.7383 -0.4055
 6618TIP3   OH241412   3.755   3.183   8.262  0.3233  0.4288  0.8753
 6618TIP3    H141413   3.846   3.188   8.233 -0.6965  0.4855 -2.8193
 6618TIP3    H241414   3.720   3.270   8.244 -0.9484 -0.1933  0.2722
 6619TIP3   OH241415   5.119   6.522   2.893 -0.5151 -0.2114  0.5047
 6619TIP3    H141416   5.171   6.601   2.908 -1.7364  0.5534  0.8492
 6619TIP3    H241417   5.069   6.510   2.973 -1.3862 -0.5151 -0.0636
 6620TIP3   OH241418   6.730   2.518   6.889  0.3833  0.2469  0.3110
 6620TIP3    H141419   6.676   2.582   6.935  2.0004  1.1573  1.0390
 6620TIP3    H241420   6.730   2.548   6.798 -2.1345 -1.0805 -0.2191
 6621TIP3   OH241421   2.944   3.485   7.776  0.0854  0.7989  0.0692
 6621TIP3    H141422   2.979   3.546   7.711 -1.5558  0.2446 -1.4072
 6621TIP3    H241423   2.850   3.483   7.759 -0.2572 -0.1632  1.8215
 6622TIP3   OH241424   5.371   4.212   7.841 -0.3238 -0.0810  0.4092
 6622TIP3    H141425   5.462   4.239   7.828 -0.4190  0.6986  1.2423
 6622TIP3    H241426   5.342   4.184   7.755  0.9591 -1.1509  0.2941
 6623TIP3   OH241427   6.302   2.134   8.577  0.4588 -0.8560  0.4340
 6623TIP3    H141428   6.387   2.175   8.593 -0.6545  1.5485  0.5502
 6623TIP3    H241429   6.268   2.115   8.665  0.9212 -1.9950  0.3829
 6624TIP3   OH241430   5.394   4.285   6.802  0.2012 -0.4774  0.2610
 6624TIP3    H141431   5.461   4.290   6.870  1.3968 -1.0535 -0.8331
 6624TIP3    H241432   5.335   4.215   6.831 -0.1142  0.2202  1.3675
 6625TIP3   OH241433   3.460   1.998   6.871 -0.1416 -0.5232  0.3750
 6625TIP3    H141434   3.450   2.027   6.962  2.9324  0.4246  0.4991
 6625TIP3    H241435   3.384   1.941   6.857 -1.9785  1.0940  2.7503
 6626TIP3   OH241436   5.700   1.892   8.083 -0.7358 -0.3740 -0.1571
 6626TIP3    H141437   5.709   1.898   8.178 -2.4282  1.2678 -0.0435
 6626TIP3    H241438   5.612   1.925   8.065 -0.3013 -0.2536 -2.3274
 6627TIP3   OH241439   4.446   4.672   0.585  0.3179  0.0819  0.5205
 6627TIP3    H141440   4.381   4.604   0.567  1.4242 -0.5358 -1.4121
 6627TIP3    H241441   4.488   4.643   0.666 -2.6994  1.2751  2.7221
 6628TIP3   OH241442   6.290   2.960   0.322 -0.2212 -0.4114 -0.2159
 6628TIP3    H141443   6.199   2.989   0.310  0.0810 -0.1158 -1.9616
 6628TIP3    H241444   6.282   2.866   0.340 -0.9089 -0.2069  0.6609
 6629TIP3   OH241445   3.433   0.174   0.095 -0.1021 -0.0745 -0.0064
 6629TIP3    H141446   3.463   0.256   0.056  1.0229 -0.3362  0.2501
 6629TIP3    H241447   3.508   0.144   0.148 -0.5085 -1.2320 -0.0496
 6630TIP3   OH241448   6.015   4.470   0.266  0.2784  0.1063  1.0042
 6630TIP3    H141449   6.046   4.532   0.201  0.6513  0.1251  1.1989
 6630TIP3    H241450   6.082   4.401   0.268  0.8897  0.6873  2.2072
 6631TIP3   OH241451   4.949   6.472   1.782  0.0555 -0.4804  0.4059
 6631TIP3    H141452   4.986   6.551   1.743 -0.3848  0.8693  2.5030
 6631TIP3    H241453   4.859   6.495   1.803 -0.1063 -1.5581  1.0090
 6632TIP3   OH241454   0.926   6.281   7.371 -0.7572  0.8175 -0.1569
 6632TIP3    H141455   0.857   6.270   7.306 -0.9482  0.8288  0.0426
 6632TIP3    H241456   0.929   6.375   7.388 -2.9002  0.5779  2.1890
 6633TIP3   OH241457   4.632   2.055   1.558  0.4226  0.5231 -0.2705
 6633TIP3    H141458   4.553   2.023   1.516  0.4988  1.2707 -1.0125
 6633TIP3    H241459   4.605   2.136   1.603  0.8999  1.1874 -1.1476
 6634TIP3   OH241460   3.876   0.762   0.126  0.6782  0.3253 -0.3855
 6634TIP3    H141461   3.899   0.669   0.129 -1.2366 -0.2789 -2.0250
 6634TIP3    H241462   3.791   0.764   0.081  0.8374  2.9050 -0.7156
 6635TIP3   OH241463   2.110   6.082   7.953 -0.3429  0.2261  0.8584
 6635TIP3    H141464   2.057   6.103   8.031  0.7089  2.2540  1.1019
 6635TIP3    H241465   2.157   6.163   7.934  3.1613 -1.5898  1.0075
 6636TIP3   OH241466   2.006   1.327   0.298  0.4796  0.5041 -0.1987
 6636TIP3    H141467   2.060   1.252   0.324  0.8372  1.0500  0.6407
 6636TIP3    H241468   1.918   1.289   0.286  0.6644 -0.0592  0.1697
 6637TIP3   OH241469   3.700   4.894   0.418  0.2964 -0.1582  0.0260
 6637TIP3    H141470   3.744   4.921   0.498  1.9806  0.7099 -1.1285
 6637TIP3    H241471   3.723   4.802   0.407  0.6298 -0.0976  0.2003
 6638TIP3   OH241472   1.564   6.128   0.845  0.2933 -0.0075  0.0046
 6638TIP3    H141473   1.596   6.155   0.931  0.8243 -1.2082  0.1998
 6638TIP3    H241474   1.597   6.195   0.785  0.9204  0.1926  0.5657
 6639TIP3   OH241475   3.029   0.620   2.046  0.0787 -0.2915  0.4248
 6639TIP3    H141476   3.023   0.705   2.088 -1.3836 -0.5129  0.7203
 6639TIP3    H241477   3.095   0.573   2.097  0.1208  0.3035  0.9342
 6640TIP3   OH241478   3.185   1.497   1.821  0.1354  0.3115 -0.3698
 6640TIP3    H141479   3.106   1.518   1.871 -0.6059  2.2124 -2.1403
 6640TIP3    H241480   3.257   1.507   1.883 -0.9421 -0.5582  1.0655
 6641TIP3   OH241481   4.848   6.399   0.863 -0.2861  0.5637 -0.5840
 6641TIP3    H141482   4.883   6.350   0.788  0.7831  0.5809 -0.1168
 6641TIP3    H241483   4.905   6.475   0.870 -0.6923  0.8211 -0.0604
 6642TIP3   OH241484   2.712   3.178   6.256  0.4196 -0.5705 -0.0641
 6642TIP3    H141485   2.794   3.138   6.228 -0.1096 -2.3072  0.7138
 6642TIP3    H241486   2.671   3.208   6.174  1.5419 -0.2006 -0.5135
 6643TIP3   OH241487   5.035   1.439   6.870  0.1358  0.7328 -0.1198
 6643TIP3    H141488   5.016   1.468   6.781 -2.2092  1.1400  0.4481
 6643TIP3    H241489   4.997   1.351   6.875  3.1151 -0.6989 -0.4209
 6644TIP3   OH241490   4.748   2.520   8.207  0.2150 -0.4623  0.0087
 6644TIP3    H141491   4.695   2.534   8.129  0.8257  0.3738 -0.2713
 6644TIP3    H241492   4.742   2.603   8.255 -1.0097 -1.3050  1.4072
 6645TIP3   OH241493   4.580   0.309   0.666  0.2345 -0.0463  0.0636
 6645TIP3    H141494   4.564   0.372   0.737 -1.5124 -1.3997  0.9563
 6645TIP3    H241495   4.639   0.244   0.704  2.0136  0.9808 -0.8493
 6646TIP3   OH241496   5.184   3.040   8.290  0.4746  0.0109 -0.5112
 6646TIP3    H141497   5.158   3.048   8.382  0.7041 -1.6795 -0.2637
 6646TIP3    H241498   5.102   3.044   8.241  0.0133 -2.0166  0.0176
 6647TIP3   OH241499   1.247   1.672   7.123 -0.1334 -0.6073  0.5999
 6647TIP3    H141500   1.224   1.594   7.073 -1.7255  0.0491  0.2528
 6647TIP3    H241501   1.336   1.655   7.154 -0.3971 -2.4922  0.4371
 6648TIP3   OH241502   4.819   5.426   6.809 -0.0351 -0.2376  0.1685
 6648TIP3    H141503   4.879   5.368   6.764  1.7127  2.1794 -0.7947
 6648TIP3    H241504   4.733   5.406   6.770  0.9043 -0.4437 -1.9290
 6649TIP3   OH241505   4.204   0.938   2.485 -1.0573 -0.2586 -0.0020
 6649TIP3    H141506   4.299   0.940   2.487 -1.0524 -0.4494  0.0105
 6649TIP3    H241507   4.178   1.030   2.477 -0.8235 -0.3346 -2.1398
 6650TIP3   OH241508   5.636   1.097   1.423  0.8914 -0.1937 -0.1270
 6650TIP3    H141509   5.659   1.165   1.486 -0.1131  0.0600 -0.0330
 6650TIP3    H241510   5.712   1.093   1.364  0.4867  1.8239 -0.8381
 6651TIP3   OH241511   0.419   6.240   0.388  0.2156 -0.1110  0.1405
 6651TIP3    H141512   0.414   6.309   0.454  1.0864 -0.5597  0.6911
 6651TIP3    H241513   0.487   6.181   0.420  0.1202 -0.7400 -0.7824
 6652TIP3   OH241514   1.656   1.975   6.747 -1.0960  0.1720  0.3817
 6652TIP3    H141515   1.582   1.949   6.692 -0.4119  1.2862 -1.1309
 6652TIP3    H241516   1.625   1.959   6.836 -1.7687 -2.9791 -0.2692
 6653TIP3   OH241517   4.608   5.415   1.899 -0.0838  0.1999  0.0272
 6653TIP3    H141518   4.519   5.388   1.919 -0.1656  0.3770 -0.0961
 6653TIP3    H241519   4.661   5.336   1.913 -0.1580  0.2788  0.8005
 6654TIP3   OH241520   0.616   6.028   1.233 -0.1348 -0.6675  0.0239
 6654TIP3    H141521   0.614   5.966   1.306 -0.1835 -0.7176 -0.0195
 6654TIP3    H241522   0.685   6.091   1.256 -0.7340 -0.1783  0.5363
 6655TIP3   OH241523   2.817   1.843   6.882 -0.4072  0.7513 -0.7536
 6655TIP3    H141524   2.792   1.840   6.974  1.5816  2.3295 -0.1022
 6655TIP3    H241525   2.773   1.920   6.847 -1.6095 -0.1481 -1.3434
 6656TIP3   OH241526   2.820   5.080   7.238  0.5218 -0.5094  0.0157
 6656TIP3    H141527   2.750   5.130   7.281 -1.3010  0.6853 -3.9116
 6656TIP3    H241528   2.878   5.147   7.201  2.7639 -1.4971  1.5269
 6657TIP3   OH241529   0.186   1.577   1.124 -0.2839  0.7438  0.1259
 6657TIP3    H141530   0.118   1.623   1.075 -1.1886  0.1609  0.7976
 6657TIP3    H241531   0.233   1.646   1.171  1.0471  1.4027 -2.0222
 6658TIP3   OH241532   0.899   2.566   6.471 -0.8645 -0.4427  0.0094
 6658TIP3    H141533   0.828   2.629   6.459 -0.3150 -0.2566 -3.1208
 6658TIP3    H241534   0.858   2.492   6.516 -2.2452  0.8877  1.0403
 6659TIP3   OH241535   5.486   1.337   7.576  0.0808 -0.0017 -0.3527
 6659TIP3    H141536   5.504   1.416   7.628 -0.3728  1.0029 -1.6578
 6659TIP3    H241537   5.572   1.312   7.541  0.1622  0.1812 -0.2886
 6660TIP3   OH241538   5.082   0.960   7.799 -0.4774  0.2040  0.1791
 6660TIP3    H141539   5.004   0.907   7.782  0.9220 -2.0772  0.4389
 6660TIP3    H241540   5.094   1.012   7.719 -1.8305  0.0665 -0.1305
 6661TIP3   OH241541   3.048   3.647   0.584 -0.6161  0.0308 -0.4330
 6661TIP3    H141542   2.997   3.604   0.653  3.2525 -0.1733  2.6337
 6661TIP3    H241543   3.076   3.730   0.623 -0.9372  1.5375 -3.1243
 6662TIP3   OH241544   4.192   2.230   0.212 -0.6847 -0.0075 -0.5199
 6662TIP3    H141545   4.129   2.159   0.226 -1.3325 -0.2018 -3.6970
 6662TIP3    H241546   4.270   2.186   0.179  0.1549  0.5154  0.6971
 6663TIP3   OH241547   1.893   1.026   7.881  0.0030  0.2848 -0.5192
 6663TIP3    H141548   1.845   0.977   7.814 -0.1924 -0.9590  0.4937
 6663TIP3    H241549   1.831   1.091   7.912 -0.1662  0.3555 -0.9917
 6664TIP3   OH241550   1.076   1.716   8.117 -0.0294 -0.0514  0.3812
 6664TIP3    H141551   1.129   1.723   8.196 -0.0694  0.5271  0.3611
 6664TIP3    H241552   1.091   1.627   8.085  0.3349 -0.1377  0.7913
 6665TIP3   OH241553   6.480   6.033   1.149  0.6130 -0.3971 -0.2444
 6665TIP3    H141554   6.508   6.121   1.123  0.8586  0.0083  1.2787
 6665TIP3    H241555   6.557   5.994   1.189 -0.3501 -0.0308  2.1351
 6666TIP3   OH241556   4.559   1.530   7.958 -0.3657  0.1827  0.2954
 6666TIP3    H141557   4.486   1.480   7.994 -0.0658  0.2695  1.0554
 6666TIP3    H241558   4.579   1.596   8.025  0.2721  0.2941  0.0117
 6667TIP3   OH241559   0.288   1.051   6.940  0.1189 -0.4516  0.1308
 6667TIP3    H141560   0.204   1.089   6.916 -0.2198 -0.7748  0.7926
 6667TIP3    H241561   0.296   0.973   6.886  0.4597  0.1042 -0.6579
 6668TIP3   OH241562   3.889   2.656   7.446  0.2296 -0.0474  0.0674
 6668TIP3    H141563   3.936   2.595   7.388  0.7858  1.2588 -0.9003
 6668TIP3    H241564   3.854   2.723   7.387  0.2604  0.9800  1.1814
 6669TIP3   OH241565   1.947   1.454   8.119  0.2499  0.3528  0.0968
 6669TIP3    H141566   1.971   1.382   8.176  1.2506  2.6495  2.7961
 6669TIP3    H241567   2.021   1.463   8.059 -0.6754 -1.8781 -1.5413
 6670TIP3   OH241568   3.215   1.468   7.891  0.1150  0.3363  0.3357
 6670TIP3    H141569   3.304   1.479   7.924 -0.1110 -0.1700  1.1214
 6670TIP3    H241570   3.209   1.532   7.819  0.9136  0.7927  0.6559
 6671TIP3   OH241571   1.776   4.579   6.409 -0.4643  0.0590 -0.2329
 6671TIP3    H141572   1.740   4.660   6.372  1.6457  0.0788 -2.4941
 6671TIP3    H241573   1.832   4.608   6.481 -1.0378  0.4537  0.0584
 6672TIP3   OH241574   5.743   4.948   1.900 -0.2778  0.3203  0.2661
 6672TIP3    H141575   5.707   4.974   1.984  0.4312 -2.5044  1.5463
 6672TIP3    H241576   5.672   4.900   1.857 -0.2583  0.7445 -0.2489
 6673TIP3   OH241577   2.533   2.405   7.536  0.3060  0.0691 -0.8776
 6673TIP3    H141578   2.571   2.332   7.488  0.3490  1.2113 -2.6897
 6673TIP3    H241579   2.515   2.370   7.623  1.0547 -1.8498 -1.4411
 6674TIP3   OH241580   0.649   5.955   0.176 -0.3630 -0.3427 -0.9121
 6674TIP3    H141581   0.585   5.949   0.106 -2.2627  1.9205  0.4935
 6674TIP3    H241582   0.672   6.047   0.180  0.3782 -0.5638  0.8536
 6675TIP3   OH241583   6.313   2.703   0.420 -0.1972 -0.3700 -0.3197
 6675TIP3    H141584   6.290   2.618   0.458  2.0397  0.0594  2.4097
 6675TIP3    H241585   6.375   2.682   0.350  1.9764 -1.0553  1.6744
 6676TIP3   OH241586   3.580   1.855   8.114 -0.1674  0.2735  0.5967
 6676TIP3    H141587   3.545   1.767   8.098  0.7524 -0.1345  0.7553
 6676TIP3    H241588   3.531   1.911   8.054  0.4295 -0.6193 -0.8115
 6677TIP3   OH241589   1.802   5.668   1.398  0.1257  0.6312 -0.4978
 6677TIP3    H141590   1.836   5.581   1.378 -0.2575  0.6453 -1.2267
 6677TIP3    H241591   1.707   5.655   1.409  0.4145  0.3682  2.7079
 6678TIP3   OH241592   6.495   2.090   1.026 -0.1477 -0.4422  0.0732
 6678TIP3    H141593   6.439   2.161   0.997  0.8918  0.2189 -0.3900
 6678TIP3    H241594   6.582   2.130   1.036  0.5581 -1.7235 -0.6243
 6679TIP3   OH241595   3.694   1.346   0.921 -0.0190 -0.0759 -0.2687
 6679TIP3    H141596   3.618   1.376   0.970  0.1063 -0.6943  0.3106
 6679TIP3    H241597   3.699   1.405   0.845 -1.3255 -0.3083 -0.5495
 6680TIP3   OH241598   3.889   1.385   1.925  0.0373 -0.3357 -0.1936
 6680TIP3    H141599   3.809   1.414   1.967 -1.1520  1.3446 -3.2652
 6680TIP3    H241600   3.940   1.466   1.912  1.0943 -1.0235 -0.4840
 6681TIP3   OH241601   5.292   5.441   6.261  0.0383 -0.1766 -0.0893
 6681TIP3    H141602   5.290   5.393   6.344 -1.5960  0.8141  0.4953
 6681TIP3    H241603   5.238   5.389   6.202 -0.7775  0.3215  0.2015
 6682TIP3   OH241604   4.656   4.765   8.386  0.0323  0.0010 -0.5556
 6682TIP3    H141605   4.684   4.851   8.354 -0.7320 -0.4137 -2.5012
 6682TIP3    H241606   4.561   4.767   8.377 -0.2297 -0.2660  1.5718
 6683TIP3   OH241607   4.343   4.451   0.429 -0.2280 -0.6507  0.2154
 6683TIP3    H141608   4.384   4.496   0.356 -0.0181 -1.7539 -0.3729
 6683TIP3    H241609   4.378   4.362   0.425 -3.4004 -1.9755 -0.9260
 6684TIP3   OH241610   4.921   6.271   1.594  0.3081  0.8273  0.3515
 6684TIP3    H141611   4.835   6.262   1.552 -1.2407 -1.2481  3.5481
 6684TIP3    H241612   4.914   6.351   1.646 -0.3512 -0.0466  1.7004
 6685TIP3   OH241613   5.657   4.204   7.827 -0.3073 -0.0305 -0.4270
 6685TIP3    H141614   5.674   4.170   7.915  0.9426  1.0173 -0.2281
 6685TIP3    H241615   5.696   4.140   7.768 -1.2083 -0.7720 -0.2352
 6686TIP3   OH241616   5.654   5.845   7.384  0.2763 -0.3819 -0.0664
 6686TIP3    H141617   5.648   5.798   7.301 -1.3164  0.0664 -0.2422
 6686TIP3    H241618   5.587   5.805   7.440 -0.1383  0.7128  0.2527
 6687TIP3   OH241619   5.921   4.583   1.433  0.2841 -1.0656 -0.1179
 6687TIP3    H141620   5.909   4.545   1.346  0.5406  3.0435 -2.2248
 6687TIP3    H241621   6.012   4.613   1.434  0.3464 -1.2043  1.6933
 6688TIP3   OH241622   0.876   4.625   0.886 -0.0034  0.0664  0.1060
 6688TIP3    H141623   0.800   4.679   0.863  1.0847  2.2619  1.3206
 6688TIP3    H241624   0.839   4.545   0.921 -1.8532  1.5023  1.6511
 6689TIP3   OH241625   5.235   6.283   1.611  0.3983  0.1051  0.3648
 6689TIP3    H141626   5.239   6.368   1.567 -1.7670 -1.0558 -2.4812
 6689TIP3    H241627   5.144   6.255   1.600  0.1817 -1.2115  4.1408
 6690TIP3   OH241628   5.458   5.169   6.946  0.3316 -0.1678 -0.0324
 6690TIP3    H141629   5.483   5.235   6.881  1.0161  2.5213  2.7003
 6690TIP3    H241630   5.365   5.186   6.963  0.1494 -0.8718 -0.2807
 6691TIP3   OH241631   2.984   6.639   0.878 -0.1881  0.1272  0.3096
 6691TIP3    H141632   3.013   6.716   0.830  0.7203  0.4090  1.2651
 6691TIP3    H241633   3.024   6.565   0.831 -0.5865  0.2785 -0.2693
 6692TIP3   OH241634   2.785   4.881   7.037 -0.0623 -0.3804 -0.3464
 6692TIP3    H141635   2.874   4.847   7.026  0.0144 -0.3567  0.1945
 6692TIP3    H241636   2.796   4.960   7.090 -0.4120 -0.4133 -0.2269
 6693TIP3   OH241637   1.403   6.703   7.821  0.4438 -0.2680 -0.1311
 6693TIP3    H141638   1.405   6.789   7.863  0.7928  0.1789 -1.0352
 6693TIP3    H241639   1.490   6.694   7.782  0.6969 -1.3914  0.6448
 6694TIP3   OH241640   4.523   4.541   7.917  0.5204  0.2854  0.0348
 6694TIP3    H141641   4.476   4.563   7.998 -0.8238  0.2516 -0.7068
 6694TIP3    H241642   4.495   4.607   7.854  1.0890 -0.0381 -0.5688
 6695TIP3   OH241643   2.647   6.718   8.490  0.2022 -0.7744 -0.1120
 6695TIP3    H141644   2.655   6.622   8.490 -0.5386 -0.8394  0.4566
 6695TIP3    H241645   2.641   6.740   8.397 -1.2306 -1.4392 -0.2084
 6696TIP3   OH241646   3.536   4.868   6.948  0.5035 -0.1462  0.4570
 6696TIP3    H141647   3.594   4.823   6.886 -1.6773  0.7701 -2.5076
 6696TIP3    H241648   3.522   4.954   6.909 -2.6130 -0.2526  1.0813
 6697TIP3   OH241649   1.783   4.536   6.823  0.0978 -0.2635 -0.1149
 6697TIP3    H141650   1.867   4.518   6.781  0.7461  2.6911 -0.3031
 6697TIP3    H241651   1.804   4.545   6.916  0.2834  1.6667 -0.3039
 6698TIP3   OH241652   3.914   1.426   0.079 -0.2592 -0.2387 -0.3848
 6698TIP3    H141653   3.982   1.404   0.143 -1.9252 -1.7150  0.9917
 6698TIP3    H241654   3.831   1.413   0.127 -1.5397  0.4141 -2.3159
 6699TIP3   OH241655   0.533   0.076   1.531  0.0176  0.1904 -0.0151
 6699TIP3    H141656   0.547   0.155   1.584  2.2797  0.2558 -0.5980
 6699TIP3    H241657   0.513   0.008   1.595  0.2629  0.7819  0.7113
 6700TIP3   OH241658   5.129   2.133   1.353  0.5848 -0.3079  0.0182
 6700TIP3    H141659   5.070   2.207   1.367  0.0373 -1.0818  2.1494
 6700TIP3    H241660   5.107   2.103   1.265 -0.4386  0.9534 -0.2066
 6701TIP3   OH241661   3.210   0.951   2.539  0.7600 -0.5981  0.3124
 6701TIP3    H141662   3.218   0.993   2.453  0.2838 -0.1979  0.4564
 6701TIP3    H241663   3.118   0.966   2.564  1.3691  1.0125  1.7706
 6702TIP3   OH241664   2.201   5.837   0.472  0.4286 -0.4488  0.1846
 6702TIP3    H141665   2.216   5.852   0.565  0.7476 -1.5345  0.3180
 6702TIP3    H241666   2.115   5.874   0.455  1.5096  2.3612  0.2793
 6703TIP3   OH241667   5.471   2.306   0.547  0.1578  0.0795 -0.2364
 6703TIP3    H141668   5.409   2.280   0.479 -1.6904  0.2465  1.3127
 6703TIP3    H241669   5.480   2.228   0.602  0.8747  0.2474 -0.1034
 6704TIP3   OH241670   6.739   6.158   0.717 -0.1657  0.2578  0.2524
 6704TIP3    H141671   6.664   6.208   0.748 -0.0343  1.1620 -0.8360
 6704TIP3    H241672   6.811   6.186   0.773  0.2349  2.4274 -1.2049
 6705TIP3   OH241673   4.200   3.533   2.386  0.5686  0.5187  0.0080
 6705TIP3    H141674   4.279   3.578   2.357  1.8105 -0.4138  1.8372
 6705TIP3    H241675   4.216   3.441   2.366  0.0992  0.2773  0.7372
 6706TIP3   OH241676   4.515   0.932   1.009  0.2722  0.0991 -0.4141
 6706TIP3    H141677   4.463   1.006   1.040  2.4841  0.8607  1.7654
 6706TIP3    H241678   4.531   0.951   0.916 -1.3364  1.0035 -0.5329
 6707TIP3   OH241679   4.095   4.924   0.064  0.1774  0.0568 -0.4055
 6707TIP3    H141680   4.110   5.015   0.039 -2.2251  0.1170 -1.8639
 6707TIP3    H241681   4.030   4.891   0.002 -0.3465 -2.1408  1.1544
 6708TIP3   OH241682   5.413   4.198   1.432  0.0644  0.5508  0.7791
 6708TIP3    H141683   5.340   4.164   1.379  0.0220  2.4181 -0.4530
 6708TIP3    H241684   5.491   4.182   1.378  0.2454  0.9241  0.9280
 6709TIP3   OH241685   5.397   1.183   1.355  0.5279  0.1760 -0.0796
 6709TIP3    H141686   5.476   1.138   1.323 -0.0667 -1.1358  0.2316
 6709TIP3    H241687   5.431   1.260   1.400  1.7815 -1.1302  1.3543
 6710TIP3   OH241688   5.819   1.335   6.845  0.1342  0.0357  0.2017
 6710TIP3    H141689   5.849   1.343   6.755 -1.0908  0.2366 -0.2177
 6710TIP3    H241690   5.727   1.364   6.842  0.5453  1.7563  1.8231
 6711TIP3   OH241691   3.927   3.891   6.909 -0.3076  0.0098  1.0898
 6711TIP3    H141692   3.835   3.898   6.883 -0.1939  0.0605  0.6974
 6711TIP3    H241693   3.935   3.948   6.985 -1.0725 -1.5037  2.3941
 6712TIP3   OH241694   0.843   1.405   8.023 -0.6989 -0.5538 -0.0372
 6712TIP3    H141695   0.825   1.318   7.989  0.3811 -0.1058 -1.8578
 6712TIP3    H241696   0.933   1.423   7.997 -1.3638  1.6720 -1.0205
 6713TIP3   OH241697   1.844   3.792   0.871  0.1277 -0.8120 -0.2865
 6713TIP3    H141698   1.849   3.718   0.811  0.2600  0.7697 -2.3157
 6713TIP3    H241699   1.933   3.827   0.873 -0.2396  0.1631 -0.5167
 6714TIP3   OH241700   6.480   2.645   0.220 -0.4837  0.3704  0.5755
 6714TIP3    H141701   6.545   2.603   0.276 -0.0079 -1.1069 -0.9933
 6714TIP3    H241702   6.531   2.705   0.165 -0.8306  1.1937  1.1396
 6715TIP3   OH241703   4.805   0.383   8.466 -0.3874  0.0416  0.6816
 6715TIP3    H141704   4.718   0.407   8.433 -0.6397 -1.7320 -0.0312
 6715TIP3    H241705   4.865   0.411   8.396 -0.8410 -2.8500 -1.0302
 6716TIP3   OH241706   4.746   2.621   0.340 -0.0577 -0.2157 -0.1114
 6716TIP3    H141707   4.668   2.567   0.329  0.7103 -0.9790 -2.1856
 6716TIP3    H241708   4.814   2.560   0.369  0.3063  0.0129 -0.4677
 6717TIP3   OH241709   3.072   0.201   7.741 -0.0212  0.4927  0.1315
 6717TIP3    H141710   3.123   0.128   7.774 -1.7568 -1.1311 -0.5782
 6717TIP3    H241711   2.988   0.195   7.787 -1.2935  0.1546 -2.1034
 6718TIP3   OH241712   4.399   1.701   8.393 -0.2104 -0.5289  0.2739
 6718TIP3    H141713   4.443   1.739   8.317 -1.3200  0.5950  0.1600
 6718TIP3    H241714   4.409   1.607   8.382  1.6819 -0.3322 -0.0172
 6719TIP3   OH241715   0.107   0.853   6.721  0.0378  0.4052  0.5849
 6719TIP3    H141716   0.201   0.859   6.736  0.5036 -1.6320 -1.0315
 6719TIP3    H241717   0.090   0.909   6.646  0.4771 -1.1277 -0.7220
 6720TIP3   OH241718   1.643   1.376   6.966  0.3611  0.7236 -0.0142
 6720TIP3    H141719   1.707   1.314   6.931  0.0914 -0.0396  0.8135
 6720TIP3    H241720   1.657   1.374   7.061 -0.5080  0.9670  0.1241
 6721TIP3   OH241721   1.920   6.452   2.484 -0.1173 -0.3393 -0.3899
 6721TIP3    H141722   2.002   6.483   2.523 -1.0234 -0.8429  2.1008
 6721TIP3    H241723   1.933   6.358   2.471  0.4807 -0.0322 -2.1868
 6722TIP3   OH241724   4.561   0.180   1.707 -0.3471 -0.4285  0.3533
 6722TIP3    H141725   4.479   0.228   1.713  0.6633  1.9083 -2.3438
 6722TIP3    H241726   4.624   0.233   1.755  0.4616  0.2649 -1.3829
 6723TIP3   OH241727   1.973   6.778   2.582  0.4650  0.5767 -0.1391
 6723TIP3    H141728   1.892   6.815   2.617  1.7662  0.6921  3.0590
 6723TIP3    H241729   1.997   6.709   2.644  1.4830 -1.3046 -2.4653
 6724TIP3   OH241730   2.602   2.699   8.560 -0.2611 -0.5401 -0.1335
 6724TIP3    H141731   2.560   2.719   8.644  0.2028  0.4961 -0.1366
 6724TIP3    H241732   2.602   2.603   8.555 -1.4532 -0.5854  0.4559
 6725TIP3   OH241733   6.387   3.375   2.342 -0.1480 -0.1926 -0.2886
 6725TIP3    H141734   6.326   3.348   2.410 -1.1677  1.1742 -0.6302
 6725TIP3    H241735   6.366   3.466   2.325  1.7648  0.2203 -0.6830
 6726TIP3   OH241736   3.744   4.348   1.240 -0.0044  0.0390 -0.5693
 6726TIP3    H141737   3.671   4.378   1.296  0.3457 -0.5179  0.2116
 6726TIP3    H241738   3.822   4.383   1.282  0.3350 -1.1158 -0.1847
 6727TIP3   OH241739   4.397   3.001   8.277  0.1237  0.0082 -0.4796
 6727TIP3    H141740   4.336   3.013   8.350  1.4384  1.4277  0.4480
 6727TIP3    H241741   4.342   3.006   8.199 -0.8102  3.1828  0.2123
 6728TIP3   OH241742   1.543   5.394   1.661  0.3162 -0.4080 -0.4411
 6728TIP3    H141743   1.484   5.335   1.707  0.6563  1.5119  2.7278
 6728TIP3    H241744   1.631   5.367   1.690  0.5351  0.8486  0.1080
 6729TIP3   OH241745   6.070   1.370   1.248  0.1398  0.9055  0.7849
 6729TIP3    H141746   6.098   1.352   1.159  1.4116 -2.5278  1.7151
 6729TIP3    H241747   6.149   1.360   1.301 -0.9034  1.1261  2.4856
 6730TIP3   OH241748   3.795   0.463   8.250 -0.0976  0.0783  0.1070
 6730TIP3    H141749   3.772   0.417   8.330  0.5945  0.0902  0.3179
 6730TIP3    H241750   3.857   0.404   8.205 -0.3691  0.1329 -0.3482
 6731TIP3   OH241751   4.706   1.756   7.132 -0.2072  0.3922  0.1540
 6731TIP3    H141752   4.713   1.729   7.223 -1.6260  1.3621  0.5901
 6731TIP3    H241753   4.738   1.681   7.082  1.2030  0.0802  1.4375
 6732TIP3   OH241754   3.892   5.453   0.394 -0.1319  0.2805  0.5489
 6732TIP3    H141755   3.921   5.366   0.422 -0.3627  0.3390  0.9877
 6732TIP3    H241756   3.969   5.509   0.405  0.0022  0.1455  0.3152
 6733TIP3   OH241757   2.965   6.264   7.812 -0.4994  0.0733 -0.2385
 6733TIP3    H141758   3.016   6.216   7.877 -0.6093 -0.4854 -0.5556
 6733TIP3    H241759   3.000   6.235   7.728 -1.9863 -1.0914 -0.4991
 6734TIP3   OH241760   2.811   0.052   0.731 -0.3811  0.5712 -0.1000
 6734TIP3    H141761   2.800  -0.002   0.653 -0.1776  0.6180 -0.1635
 6734TIP3    H241762   2.904   0.076   0.730  0.2672 -1.6252  1.6165
 6735TIP3   OH241763   3.040   4.526   0.350 -0.2269  0.6172 -0.0660
 6735TIP3    H141764   3.135   4.539   0.356 -0.1850  0.9988 -1.3478
 6735TIP3    H241765   3.028   4.432   0.358  0.5063  0.2769 -2.3353
 6736TIP3   OH241766   3.407   0.719   8.482  0.3850  0.1210 -0.0720
 6736TIP3    H141767   3.499   0.719   8.454  0.0810 -0.4900 -1.1085
 6736TIP3    H241768   3.389   0.811   8.504  0.6776  0.6089 -1.7813
 6737TIP3   OH241769   0.494   2.831   0.446 -0.1780  0.1235 -0.5817
 6737TIP3    H141770   0.414   2.842   0.498 -0.1052 -0.4974 -0.3320
 6737TIP3    H241771   0.464   2.838   0.356 -0.6022 -0.5558 -0.5088
 6738TIP3   OH241772   2.186   6.382   7.936  0.2777 -0.5478 -0.4426
 6738TIP3    H141773   2.188   6.392   8.032  0.1715 -0.0411 -0.4894
 6738TIP3    H241774   2.213   6.468   7.903  2.6613 -1.3982 -0.8653
 6739TIP3   OH241775   3.899   1.636   0.901  0.1354  0.0546 -0.6278
 6739TIP3    H141776   3.894   1.580   0.978 -0.6154 -1.4055 -1.6866
 6739TIP3    H241777   3.873   1.723   0.932  1.1046 -0.1997  1.0006
 6740TIP3   OH241778   6.599   5.037   0.596  0.2661 -0.4000 -0.2950
 6740TIP3    H141779   6.626   4.972   0.531 -0.8006 -1.4205  0.2412
 6740TIP3    H241780   6.503   5.038   0.590  0.1359 -0.6468  1.3583
 6741TIP3   OH241781   2.968   2.245   7.230  0.4224  0.4228  0.0125
 6741TIP3    H141782   2.904   2.311   7.253 -0.9010 -0.8476  0.1204
 6741TIP3    H241783   2.918   2.177   7.185  1.7550 -0.4476 -0.2298
 6742TIP3   OH241784   4.773   2.005   7.096  0.5915  0.4605  0.8219
 6742TIP3    H141785   4.757   1.911   7.092  1.4990  0.3234 -0.1784
 6742TIP3    H241786   4.867   2.013   7.080  0.1319  1.6822 -1.7233
 6743TIP3   OH241787   2.041   0.069   0.810 -0.2252 -0.0849 -0.3033
 6743TIP3    H141788   2.112   0.026   0.858  0.3012  2.8585  1.8687
 6743TIP3    H241789   2.085   0.123   0.745 -0.5008  0.8267  0.2476
 6744TIP3   OH241790   3.604   0.470   1.466 -0.5226 -0.0442  0.4045
 6744TIP3    H141791   3.563   0.386   1.445 -1.1161  0.0433  1.1394
 6744TIP3    H241792   3.682   0.474   1.411 -0.4329 -1.1216  0.4424
 6745TIP3   OH241793   4.245   5.029   8.153  0.4725 -0.0958  0.4953
 6745TIP3    H141794   4.218   4.961   8.091 -0.1107  0.0918  0.5457
 6745TIP3    H241795   4.328   4.997   8.188  1.1762  0.1135 -0.9023
 6746TIP3   OH241796   3.927   2.246   7.722  0.3510  0.0005  0.0403
 6746TIP3    H141797   3.862   2.201   7.776  1.8772 -2.4388 -0.0178
 6746TIP3    H241798   4.011   2.217   7.756  1.5062 -3.1242 -4.4781
 6747TIP3   OH241799   6.112   6.319   0.546  0.3365  0.0087 -0.1217
 6747TIP3    H141800   6.197   6.361   0.531  1.0183 -1.5176 -0.7004
 6747TIP3    H241801   6.121   6.274   0.630  0.5943 -1.3077 -0.8389
 6748TIP3   OH241802   2.072   4.427   8.611  0.0250  0.4054 -0.0428
 6748TIP3    H141803   2.065   4.366   8.538  0.9566  0.2283  0.0085
 6748TIP3    H241804   2.027   4.384   8.684 -1.3670  0.8024 -0.6283
 6749TIP3   OH241805   6.220   3.960   7.620 -0.6040  0.0758  0.1775
 6749TIP3    H141806   6.291   3.923   7.672 -2.2554 -2.6493  0.7147
 6749TIP3    H241807   6.226   3.916   7.536 -1.3372  0.2039  0.0495
 6750TIP3   OH241808   3.228   3.135   7.048  0.3485  0.1687 -0.2457
 6750TIP3    H141809   3.150   3.174   7.088  0.9813  0.7213  0.4661
 6750TIP3    H241810   3.271   3.208   7.003  1.7780  0.4341  1.4610
 6751TIP3   OH241811   6.660   5.192   7.687 -0.4974  0.6663  0.4979
 6751TIP3    H141812   6.636   5.267   7.633  2.6695  1.7953  0.4607
 6751TIP3    H241813   6.721   5.227   7.752  1.3984 -1.8689  0.2619
 6752TIP3   OH241814   1.501   2.752   6.883 -1.1921  0.2009  0.0459
 6752TIP3    H141815   1.465   2.670   6.918 -0.2140  0.2504  1.2808
 6752TIP3    H241816   1.522   2.732   6.792 -2.4917 -0.4082 -0.1397
 6753TIP3   OH241817   0.630   0.645   8.614  0.5556  0.1463 -0.1756
 6753TIP3    H141818   0.715   0.689   8.605 -0.0003  1.0642 -1.3124
 6753TIP3    H241819   0.595   0.678   8.697  1.5237 -0.6637  0.5821
 6754TIP3   OH241820   5.673   3.884   1.822  0.3845 -0.4131  0.0665
 6754TIP3    H141821   5.671   3.829   1.901 -1.8496  0.6766  0.8351
 6754TIP3    H241822   5.600   3.944   1.833  0.1648 -0.0563 -2.7523
 6755TIP3   OH241823   2.894   5.803   7.041 -0.3685 -0.0854 -0.4353
 6755TIP3    H141824   2.846   5.732   7.084 -0.8723 -0.3845 -1.4472
 6755TIP3    H241825   2.986   5.782   7.056 -0.4225 -2.0693 -2.3308
 6756TIP3   OH241826   5.201   2.975   6.577 -0.6130  0.0648 -0.2545
 6756TIP3    H141827   5.159   2.917   6.513  0.8342 -0.5452 -0.6710
 6756TIP3    H241828   5.156   3.059   6.565 -1.1580 -0.3517 -1.2651
 6757TIP3   OH241829   4.086   5.339   0.159 -0.1714 -0.5102 -0.4601
 6757TIP3    H141830   4.047   5.289   0.230  0.0670 -0.9524 -0.6364
 6757TIP3    H241831   4.063   5.290   0.079  0.3322 -0.5167 -0.6056
 6758TIP3   OH241832   0.995   5.279   6.360 -0.1259  0.1078  0.3068
 6758TIP3    H141833   1.058   5.352   6.353 -0.0425  0.3592  2.7522
 6758TIP3    H241834   1.045   5.202   6.333  0.8302  0.4986  0.9052
 6759TIP3   OH241835   1.432   5.965   0.656  0.0005  0.7373  0.2777
 6759TIP3    H141836   1.486   6.026   0.706 -0.0926  2.4918 -1.6235
 6759TIP3    H241837   1.418   5.891   0.715  0.8452  2.1615  2.3839
 6760TIP3   OH241838   6.774   3.646   6.025 -0.4328 -0.1036 -0.3940
 6760TIP3    H141839   6.795   3.601   6.107 -0.2938  0.8195  0.1019
 6760TIP3    H241840   6.728   3.581   5.972 -0.6372 -0.6820  0.4758
 6761TIP3   OH241841   3.313   6.830   1.364 -0.1007  0.3343  0.2382
 6761TIP3    H141842   3.220   6.822   1.342  0.2721 -1.9217 -0.8429
 6761TIP3    H241843   3.316   6.820   1.459 -0.9578  0.2169  0.2605
 6762TIP3   OH241844   5.404   4.782   8.277 -0.7672 -0.0132  0.2575
 6762TIP3    H141845   5.436   4.823   8.357 -0.9077 -1.1680  0.9308
 6762TIP3    H241846   5.417   4.848   8.209 -1.7172  1.4155  1.4192
 6763TIP3   OH241847   4.002   1.319   0.529  0.5321  0.0877 -0.3443
 6763TIP3    H141848   3.996   1.400   0.579 -0.7530  0.0662 -0.4292
 6763TIP3    H241849   3.936   1.328   0.460 -0.2703 -1.3761  0.1747
 6764TIP3   OH241850   1.206   4.352   6.671 -0.4657  0.1025  0.1538
 6764TIP3    H141851   1.126   4.390   6.708 -0.3704 -0.1472  0.6297
 6764TIP3    H241852   1.235   4.415   6.605  0.0342  1.1574  1.3477
 6765TIP3   OH241853   4.793   5.812   8.709  0.3381  0.4576 -0.6221
 6765TIP3    H141854   4.801   5.828   8.803 -0.6852 -1.1957 -0.2109
 6765TIP3    H241855   4.877   5.840   8.673  0.0098  3.1292  0.4325
 6766TIP3   OH241856   1.473   0.230   0.509 -0.0589 -0.0459 -0.1697
 6766TIP3    H141857   1.482   0.135   0.505  2.0031  0.1269 -2.0437
 6766TIP3    H241858   1.542   0.258   0.570 -0.2706  0.2791 -0.0753
 6767TIP3   OH241859   5.370   0.304   0.097  0.1434 -0.2646 -0.0710
 6767TIP3    H141860   5.464   0.307   0.075  0.3986 -0.9609  0.8693
 6767TIP3    H241861   5.335   0.236   0.040  0.1733  0.0805 -0.5131
 6768TIP3   OH241862   6.020   0.647   8.684  0.2259 -0.3248 -0.0816
 6768TIP3    H141863   5.951   0.582   8.692 -0.2983  0.2022 -0.2670
 6768TIP3    H241864   5.983   0.727   8.723 -0.3568  0.7647 -2.6453
 6769TIP3   OH241865   3.215   5.335   0.790  0.3995 -0.3140 -0.3183
 6769TIP3    H141866   3.139   5.277   0.795  1.5127 -1.8591 -0.5218
 6769TIP3    H241867   3.195   5.394   0.718 -1.3508  0.4971  0.7531
 6770TIP3   OH241868   1.670   6.605   2.495 -0.3977 -0.0762 -0.0099
 6770TIP3    H141869   1.733   6.534   2.484  0.6335  0.7756  0.2451
 6770TIP3    H241870   1.590   6.562   2.523  0.5620 -1.0421  1.3593
 6771TIP3   OH241871   1.690   4.450   2.401 -0.1811 -0.3085 -0.1645
 6771TIP3    H141872   1.710   4.386   2.333 -2.0939 -0.8121 -0.3243
 6771TIP3    H241873   1.636   4.401   2.464 -0.6317  0.8254  0.3542
 6772TIP3   OH241874   6.175   2.228   1.939 -0.3526 -0.2555 -0.4609
 6772TIP3    H141875   6.179   2.156   2.001 -0.6514 -0.3890 -0.5951
 6772TIP3    H241876   6.244   2.287   1.967  0.3108 -0.8923 -0.7242
 6773TIP3   OH241877   0.760   2.244   0.483  0.4049  0.8351 -0.1706
 6773TIP3    H141878   0.832   2.181   0.474 -0.5654 -0.2649 -0.4609
 6773TIP3    H241879   0.802   2.330   0.476  1.6746  0.2166 -0.3899
 6774TIP3   OH241880   2.477   5.627   8.004  0.4451  0.9063 -0.0818
 6774TIP3    H141881   2.422   5.662   7.933 -2.0094  0.3513  1.4058
 6774TIP3    H241882   2.448   5.536   8.012 -0.3935  1.3277  2.4895
 6775TIP3   OH241883   1.643   4.270   0.121 -0.6285  0.2393  0.0495
 6775TIP3    H141884   1.643   4.339   0.055 -0.2774  1.4616  1.2555
 6775TIP3    H241885   1.730   4.276   0.162 -1.2777  0.4217  1.4814
 6776TIP3   OH241886   4.743   6.622   1.225  0.2217 -0.2337  0.1415
 6776TIP3    H141887   4.836   6.633   1.207  0.4460  0.7873  1.7104
 6776TIP3    H241888   4.703   6.616   1.138  1.5961  0.6562 -0.6068
 6777TIP3   OH241889   0.877   2.469   1.519  0.2745 -0.0068 -1.0960
 6777TIP3    H141890   0.826   2.544   1.549 -0.9302 -0.6800 -1.3699
 6777TIP3    H241891   0.839   2.448   1.433  1.1361 -0.4304 -1.3842
 6778TIP3   OH241892   3.023   2.426   0.047  0.2485 -0.7548  0.3430
 6778TIP3    H141893   3.064   2.509   0.023 -0.8280 -0.4191 -0.4528
 6778TIP3    H241894   3.061   2.403   0.131  0.6776  0.4739  0.5033
 6779TIP3   OH241895   2.308   4.042   7.699  0.3132 -0.0462  0.1995
 6779TIP3    H141896   2.240   4.064   7.763  1.1150 -0.3535  1.1840
 6779TIP3    H241897   2.388   4.035   7.751  0.8936 -0.8086 -0.7685
 6780TIP3   OH241898   2.035   5.427   7.418  0.1370 -0.1864 -0.2819
 6780TIP3    H141899   1.990   5.498   7.373  0.4401  0.5158  0.4945
 6780TIP3    H241900   2.070   5.467   7.498  1.0480 -1.0052 -0.2482
 6781TIP3   OH241901   1.804   1.104   2.431 -0.2579  0.3748 -0.5594
 6781TIP3    H141902   1.858   1.078   2.356 -1.6979  2.0661 -2.3038
 6781TIP3    H241903   1.797   1.025   2.484  0.4012 -1.0500 -2.4791
 6782TIP3   OH241904   0.886   1.905   8.058  0.0338  0.7330 -0.4436
 6782TIP3    H141905   0.965   1.938   8.015  1.0469 -0.3842  0.4865
 6782TIP3    H241906   0.910   1.817   8.088 -1.2631  0.7385  0.6961
 6783TIP3   OH241907   6.220   4.629   6.477  0.3171 -0.2428  0.0872
 6783TIP3    H141908   6.290   4.573   6.511  0.5548 -0.5138 -0.8390
 6783TIP3    H241909   6.151   4.567   6.452 -0.5441  0.0553  1.6061
 6784TIP3   OH241910   3.510   4.157   7.214  0.4618  0.0587  0.2472
 6784TIP3    H141911   3.555   4.163   7.130  0.5337  1.3298  0.3703
 6784TIP3    H241912   3.514   4.064   7.236 -0.7844 -0.5624 -1.8297
 6785TIP3   OH241913   1.498   6.358   1.157  0.0407  0.5344  0.1801
 6785TIP3    H141914   1.586   6.346   1.124 -0.2125  3.4845 -1.9321
 6785TIP3    H241915   1.508   6.361   1.252  1.7050 -1.9476  0.1843
 6786TIP3   OH241916   3.133   0.795   8.383  0.8381 -0.0276 -0.1647
 6786TIP3    H141917   3.164   0.791   8.293 -0.0700 -1.3269 -0.4415
 6786TIP3    H241918   3.206   0.833   8.432  1.9539 -0.8355 -1.1642
 6787TIP3   OH241919   1.960   0.771   8.317 -0.2947 -0.2419 -0.6440
 6787TIP3    H141920   1.909   0.695   8.346 -0.1217  0.4125  1.5470
 6787TIP3    H241921   1.934   0.784   8.226 -1.2549 -2.1657 -0.6877
 6788TIP3   OH241922   6.494   6.768   2.340 -0.0931 -0.7149  0.1083
 6788TIP3    H141923   6.517   6.858   2.314 -0.1857 -0.7765 -0.1910
 6788TIP3    H241924   6.473   6.775   2.433 -2.0385 -0.0479 -0.3423
 6789TIP3   OH241925   6.728   4.127   7.336 -0.0510 -0.1381 -0.0412
 6789TIP3    H141926   6.716   4.206   7.283  2.2592 -0.4462 -1.1680
 6789TIP3    H241927   6.742   4.057   7.272  1.7494 -0.7195  0.8915
 6790TIP3   OH241928   5.508   2.616   8.595  0.6983 -0.0552 -0.6431
 6790TIP3    H141929   5.424   2.662   8.583 -0.4087 -1.8484 -0.2247
 6790TIP3    H241930   5.525   2.623   8.689  0.5471 -0.4344 -0.5848
 6791TIP3   OH241931   1.856   2.326   1.385  0.5379 -0.4796 -0.4090
 6791TIP3    H141932   1.928   2.308   1.324  0.5478 -0.1840 -0.4849
 6791TIP3    H241933   1.899   2.344   1.468  0.6485  1.1209 -0.7723
 6792TIP3   OH241934   2.516   1.617   1.642  0.2321  0.1697  0.1823
 6792TIP3    H141935   2.587   1.650   1.588 -0.3598 -0.3460 -0.9585
 6792TIP3    H241936   2.442   1.674   1.622 -0.6324 -1.3916 -1.3589
 6793TIP3   OH241937   6.152   6.550   1.874 -0.1105  0.7955  0.2811
 6793TIP3    H141938   6.071   6.575   1.829 -0.5439  0.3545  0.8123
 6793TIP3    H241939   6.129   6.549   1.967  1.0048  2.5756  0.6184
 6794TIP3   OH241940   4.421   4.639   8.148  0.0421  0.2540 -0.1747
 6794TIP3    H141941   4.402   4.662   8.239 -0.9977  1.4031 -0.6449
 6794TIP3    H241942   4.487   4.570   8.154 -1.7617 -1.4961  1.5223
 6795TIP3   OH241943   2.440   1.852   7.478  0.1569 -0.0238  0.0369
 6795TIP3    H141944   2.454   1.759   7.497 -1.2127 -0.3108 -0.2428
 6795TIP3    H241945   2.508   1.874   7.414  1.7694 -0.2845  1.5853
 6796TIP3   OH241946   2.027   5.315   8.245  0.3630  0.6017 -0.2453
 6796TIP3    H141947   1.936   5.316   8.215  0.6122  1.9158 -1.0311
 6796TIP3    H241948   2.043   5.405   8.274  1.9858  0.9207 -1.9599
 6797TIP3   OH241949   6.793   2.419   8.176  0.0498  0.4702  0.1587
 6797TIP3    H141950   6.712   2.457   8.212 -1.2366 -1.2005 -0.8537
 6797TIP3    H241951   6.824   2.485   8.114 -0.0691  1.4805  1.1290
 6798TIP3   OH241952   1.663   5.258   1.053  0.1441  0.1574  0.8269
 6798TIP3    H141953   1.648   5.266   0.959 -1.4010 -0.6649  0.9733
 6798TIP3    H241954   1.719   5.333   1.075  0.7575  0.2117 -0.7772
 6799TIP3   OH241955   2.952   1.554   1.938  0.1571 -0.1383 -0.5625
 6799TIP3    H141956   2.918   1.518   2.020 -2.3114 -0.2839 -1.5823
 6799TIP3    H241957   2.875   1.584   1.891  1.5730  0.4895 -2.5997
 6800TIP3   OH241958   1.918   1.027   2.173 -0.4261  0.3489  0.3708
 6800TIP3    H141959   1.983   1.093   2.196  1.4467 -1.6530  1.2027
 6800TIP3    H241960   1.965   0.966   2.116 -1.1749 -1.7521  1.8845
 6801TIP3   OH241961   0.259   3.607   7.230 -0.3769  0.1093 -0.0889
 6801TIP3    H141962   0.166   3.626   7.216 -0.9677 -1.2447  1.6688
 6801TIP3    H241963   0.275   3.529   7.177 -0.6795 -0.5874  0.8177
 6802TIP3   OH241964   0.871   6.197   1.009  0.1553 -0.1574 -0.5439
 6802TIP3    H141965   0.806   6.155   0.952 -0.9605  0.6472  0.0909
 6802TIP3    H241966   0.917   6.259   0.952 -2.2271  2.0442 -0.2783
 6803TIP3   OH241967   1.690   5.834   0.820 -0.0435 -0.0449  0.1513
 6803TIP3    H141968   1.617   5.773   0.833  0.3002 -0.5259 -0.1293
 6803TIP3    H241969   1.699   5.880   0.903 -0.9113  0.2872  0.0708
 6804TIP3   OH241970   3.626   3.398   7.578 -0.0525 -0.8321 -0.0460
 6804TIP3    H141971   3.644   3.304   7.585 -0.5683 -1.1236 -2.0337
 6804TIP3    H241972   3.572   3.418   7.654  1.2133 -1.8251  1.1677
 6805TIP3   OH241973   5.166   2.995   7.261 -0.0764 -0.3187 -0.1462
 6805TIP3    H141974   5.109   2.930   7.302 -1.6564  0.8240 -0.4447
 6805TIP3    H241975   5.108   3.068   7.239  1.3146  0.4656 -1.4401
 6806TIP3   OH241976   2.412   2.142   6.518 -0.1971 -0.2733 -0.2507
 6806TIP3    H141977   2.483   2.119   6.457  0.6125  2.5963 -0.5349
 6806TIP3    H241978   2.450   2.209   6.574 -2.6694  1.3846 -0.4054
 6807TIP3   OH241979   4.365   5.016   1.339  0.6991 -0.1602  0.1825
 6807TIP3    H141980   4.283   5.041   1.382  0.4022  0.0805 -0.5056
 6807TIP3    H241981   4.416   4.974   1.407 -0.2586 -0.9018  0.4630
 6808TIP3   OH241982   3.275   3.944   8.411  0.2404  0.3047  0.4470
 6808TIP3    H141983   3.341   4.012   8.428  0.6529  0.3647 -1.2277
 6808TIP3    H241984   3.309   3.867   8.457  0.7437  0.7249  0.7970
 6809TIP3   OH241985   1.200   3.371   7.843  0.0608  0.3485  0.1499
 6809TIP3    H141986   1.255   3.399   7.916 -0.7400  1.2330  0.4251
 6809TIP3    H241987   1.149   3.448   7.820 -2.5730 -0.9563  1.2549
 6810TIP3   OH241988   6.353   2.534   8.201  0.5567 -0.2158 -0.3501
 6810TIP3    H141989   6.278   2.584   8.234 -0.8110 -2.5980  0.3430
 6810TIP3    H241990   6.392   2.495   8.279  1.4459 -0.4296 -0.8913
 6811TIP3   OH241991   5.206   2.716   8.035 -0.4149  0.5832  0.4192
 6811TIP3    H141992   5.148   2.731   8.109 -0.1230  0.9994  0.5624
 6811TIP3    H241993   5.154   2.739   7.958  0.2268  3.0082  0.6564
 6812TIP3   OH241994   5.077   0.711   8.000 -0.1100 -0.5195  0.0444
 6812TIP3    H141995   5.090   0.761   7.919 -0.0250 -1.0389 -0.2741
 6812TIP3    H241996   5.000   0.656   7.981  0.5986 -1.4891 -0.1177
 6813TIP3   OH241997   3.697   6.521   0.878 -0.2420 -0.2963  0.0971
 6813TIP3    H141998   3.726   6.545   0.966  1.1918 -0.3962 -0.3324
 6813TIP3    H241999   3.774   6.534   0.822 -0.1624 -3.2505 -0.6240
 6814TIP3   OH242000   4.243   3.824   1.738 -0.3303 -0.3994 -0.0138
 6814TIP3    H142001   4.298   3.813   1.816 -0.7677 -1.7487  0.1192
 6814TIP3    H242002   4.160   3.783   1.761 -0.0299 -2.0456 -1.6565
 6815TIP3   OH242003   5.783   4.501   7.154  0.2020  0.2154  0.0483
 6815TIP3    H142004   5.764   4.595   7.159  0.1705  0.2274 -0.2984
 6815TIP3    H242005   5.852   4.495   7.087 -0.5947 -0.1273 -0.7543
 6816TIP3   OH242006   4.739   1.514   1.759  0.2121 -0.1986 -0.2378
 6816TIP3    H142007   4.674   1.575   1.796  0.1223  0.7061 -1.7827
 6816TIP3    H242008   4.816   1.569   1.742 -0.1429 -0.2576 -2.4076
 6817TIP3   OH242009   1.600   4.986   8.570  0.7883  0.2618 -0.5271
 6817TIP3    H142010   1.525   4.940   8.531 -0.8717  1.9907  0.4517
 6817TIP3    H242011   1.646   5.024   8.496  0.1128 -0.0060 -1.0960
 6818TIP3   OH242012   6.642   6.451   8.012 -0.4589 -0.0618  0.2239
 6818TIP3    H142013   6.602   6.537   8.026 -1.7194 -0.0602 -2.7382
 6818TIP3    H242014   6.735   6.469   8.001 -0.7093  0.9539 -0.3974
 6819TIP3   OH242015   1.974   2.404   1.989  0.1996  0.1325 -0.1556
 6819TIP3    H142016   1.907   2.468   1.966  1.0487  1.5063  1.0271
 6819TIP3    H242017   1.939   2.321   1.958 -3.3891  0.2672  2.8965
 6820TIP3   OH242018   2.494   5.863   0.478 -0.7234  0.0435  0.2234
 6820TIP3    H142019   2.401   5.853   0.460 -0.1083 -1.4185 -3.1268
 6820TIP3    H242020   2.521   5.938   0.424  0.0972  0.1743  0.7988
 6821TIP3   OH242021   3.302   0.321   1.029 -0.0120 -0.0811 -0.5761
 6821TIP3    H142022   3.229   0.307   1.090 -0.1892 -1.8382 -1.1158
 6821TIP3    H242023   3.333   0.232   1.010  1.0408  0.5397 -1.8371
 6822TIP3   OH242024   1.487   2.859   1.108  0.8064  0.3435  0.1642
 6822TIP3    H142025   1.454   2.903   1.029 -0.4666 -0.7500  0.0459
 6822TIP3    H242026   1.578   2.886   1.114  0.7195  1.0589 -1.2585
 6823TIP3   OH242027   6.139   4.272   7.093  0.0994  0.7582  0.1400
 6823TIP3    H142028   6.162   4.321   7.014  0.6235  0.1734 -0.0794
 6823TIP3    H242029   6.211   4.210   7.105  0.0385  0.8589  1.0999
 6824TIP3   OH242030   3.532   2.372   0.409 -0.8009 -0.2948 -0.9736
 6824TIP3    H142031   3.625   2.380   0.388 -0.8130  0.2259 -0.8598
 6824TIP3    H242032   3.516   2.444   0.470 -0.7977 -1.6260  0.6912
 6825TIP3   OH242033   4.061   6.430   0.942  0.2014  0.1054 -0.3170
 6825TIP3    H142034   4.019   6.477   0.869  0.1544 -0.1694 -0.4686
 6825TIP3    H242035   4.047   6.486   1.018 -0.1086  0.1963 -0.4413
 6826TIP3   OH242036   3.210   4.313   0.660 -0.3549  0.3895  0.3708
 6826TIP3    H142037   3.305   4.322   0.647 -0.5293  1.4419 -0.3203
 6826TIP3    H242038   3.182   4.253   0.591 -0.1456 -0.2124  0.8038
 6827TIP3   OH242039   0.643   2.098   0.700 -0.2272 -0.3529  0.2338
 6827TIP3    H142040   0.684   2.154   0.634  1.2101 -0.2311  1.1887
 6827TIP3    H242041   0.620   2.158   0.771  2.6137 -1.0455  1.8897
 6828TIP3   OH242042   4.547   4.274   8.557  0.2916 -0.6377 -0.1625
 6828TIP3    H142043   4.557   4.229   8.473  0.2651  0.8010 -0.9709
 6828TIP3    H242044   4.492   4.216   8.609  0.8319 -1.8508 -0.9092
 6829TIP3   OH242045   2.710   3.785   6.648 -0.0463  0.3051 -0.4841
 6829TIP3    H142046   2.622   3.748   6.646  0.3590 -0.6620 -1.0581
 6829TIP3    H242047   2.705   3.864   6.596 -0.7756  0.7270  0.2123
 6830TIP3   OH242048   0.572   1.309   6.931  0.7053  0.3395 -0.7340
 6830TIP3    H142049   0.526   1.343   6.855  0.1768 -2.4094 -1.7774
 6830TIP3    H242050   0.512   1.323   7.004  0.3668  1.2246 -1.1696
 6831TIP3   OH242051   0.836   5.393   1.429 -0.3187  0.1105  0.0607
 6831TIP3    H142052   0.925   5.424   1.446 -0.2678  0.8968 -1.4364
 6831TIP3    H242053   0.811   5.436   1.347 -1.4942 -1.3260 -0.3812
 6832TIP3   OH242054   0.614   4.619   7.746 -0.0134 -0.5249 -0.1960
 6832TIP3    H142055   0.557   4.600   7.820  0.0167  0.8611  0.2122
 6832TIP3    H242056   0.554   4.644   7.675 -0.0933 -2.6214 -0.9336
 6833TIP3   OH242057   6.578   1.862   6.237 -0.6257 -0.1434  0.3393
 6833TIP3    H142058   6.551   1.841   6.327  0.1004 -1.5852  0.2559
 6833TIP3    H242059   6.509   1.918   6.203 -0.4354  1.2582  2.1194
 6834TIP3   OH242060   1.043   0.937   1.044  0.3615 -0.2646  0.0521
 6834TIP3    H142061   1.134   0.910   1.040  0.5633  0.1831  1.1859
 6834TIP3    H242062   0.994   0.856   1.060  0.5508 -0.4958 -0.5072
 6835TIP3   OH242063   2.311   0.883   1.142  0.2400 -0.4743  0.2550
 6835TIP3    H142064   2.266   0.905   1.060  1.6455 -1.9217 -0.9726
 6835TIP3    H242065   2.291   0.791   1.157 -0.0437 -0.2191  1.6117
 6836TIP3   OH242066   1.672   0.208   1.356  0.1107  0.4255 -0.2947
 6836TIP3    H142067   1.621   0.175   1.430  1.8026 -1.6239  0.0720
 6836TIP3    H242068   1.748   0.250   1.395  0.5365  0.1929 -0.8510
 6837TIP3   OH242069   0.916   3.455   0.928 -0.5949 -0.3377  0.0705
 6837TIP3    H142070   1.004   3.488   0.913 -0.2419 -1.8069 -1.4092
 6837TIP3    H242071   0.859   3.512   0.877 -0.3849 -0.0772  0.1238
 6838TIP3   OH242072   1.370   0.330   0.041  0.8722 -0.5356 -0.0780
 6838TIP3    H142073   1.362   0.303   0.133  4.0651  1.4501  0.9654
 6838TIP3    H242074   1.429   0.265   0.002 -0.8869 -1.6723 -0.9415
 6839TIP3   OH242075   4.929   1.075   0.360  0.3244 -0.2054 -0.4169
 6839TIP3    H142076   4.972   1.159   0.347  0.6027 -0.3534 -0.4624
 6839TIP3    H242077   4.987   1.012   0.317 -0.4222 -0.2857 -1.3477
 6840TIP3   OH242078   5.255   6.793   2.647 -0.3068 -0.3460 -0.3102
 6840TIP3    H142079   5.257   6.777   2.742 -1.7094  0.2414 -0.1522
 6840TIP3    H242080   5.223   6.711   2.609 -0.5339 -0.3126 -0.1925
 6841TIP3   OH242081   4.167   4.545   8.027  0.2221 -0.2337 -0.1341
 6841TIP3    H142082   4.232   4.609   8.055  1.0898 -1.8135  1.6184
 6841TIP3    H242083   4.114   4.528   8.105 -2.1423  0.7218 -1.4077
 6842TIP3   OH242084   4.158   2.312   8.306 -0.1941 -0.3133 -0.0723
 6842TIP3    H142085   4.223   2.368   8.263  0.0188  0.5399  1.3098
 6842TIP3    H242086   4.118   2.367   8.373 -2.2185 -0.8846 -0.7248
 6843TIP3   OH242087   1.778   3.672   7.803  0.0076  0.2487  0.4196
 6843TIP3    H142088   1.797   3.619   7.880  1.4042 -0.4895 -0.3847
 6843TIP3    H242089   1.706   3.730   7.830  0.6216  0.1821  2.3316
 6844TIP3   OH242090   0.483   6.116   2.748  0.7424 -0.2332 -0.2926
 6844TIP3    H142091   0.388   6.110   2.746  0.4067  3.0686 -2.5851
 6844TIP3    H242092   0.512   6.067   2.672  0.8620 -0.9270  0.1947
 6845TIP3   OH242093   6.082   1.597   1.651  0.2916  0.1065 -0.1774
 6845TIP3    H142094   6.040   1.544   1.719  0.5106  1.3962  1.0008
 6845TIP3    H242095   6.168   1.557   1.639 -1.4397 -3.2034 -3.3404
 6846TIP3   OH242096   2.679   3.870   6.899  0.0338 -0.0848  0.1114
 6846TIP3    H142097   2.633   3.790   6.922  0.7937 -0.3493  0.7249
 6846TIP3    H242098   2.722   3.850   6.815 -0.4639 -0.0333 -0.1596
 6847TIP3   OH242099   2.177   4.852   1.462 -0.3046 -0.6690  0.5288
 6847TIP3    H142100   2.180   4.947   1.468 -0.9503 -0.7201  1.9456
 6847TIP3    H242101   2.269   4.825   1.466  0.3112  0.0121 -3.8362
 6848TIP3   OH242102   6.661   2.235   7.909  0.1315 -0.4114 -0.4371
 6848TIP3    H142103   6.608   2.190   7.976  1.3900 -1.8342 -0.3297
 6848TIP3    H242104   6.609   2.230   7.829 -1.0448  0.6003  0.2349
 6849TIP3   OH242105   5.992   1.394   1.852  0.3667  0.1377 -0.1278
 6849TIP3    H142106   5.991   1.298   1.844  0.8182  0.1808 -0.7760
 6849TIP3    H242107   6.001   1.410   1.946  0.3536 -0.4583 -0.0187
 6850TIP3   OH242108   3.594   3.075   0.086  0.0833  0.7328  0.1604
 6850TIP3    H142109   3.547   3.076   0.169 -0.0790 -1.2523  0.1411
 6850TIP3    H242110   3.529   3.048   0.021  1.0086 -1.5093  0.0445
 6851TIP3   OH242111   1.435   6.593   8.281  0.4460 -0.3562 -0.1287
 6851TIP3    H142112   1.441   6.517   8.224 -1.3582  0.3629 -1.3726
 6851TIP3    H242113   1.501   6.654   8.248 -0.3398 -0.0903 -1.2675
 6852TIP3   OH242114   5.492   1.153   8.035  0.3215  0.0783 -0.0002
 6852TIP3    H142115   5.451   1.066   8.029  0.9615 -0.2529  0.2907
 6852TIP3    H242116   5.577   1.142   7.993  0.6661  0.3931  0.6016
 6853TIP3   OH242117   5.604   2.788   1.452 -0.7696  0.0389 -0.8292
 6853TIP3    H142118   5.612   2.820   1.542 -0.5333  0.3110 -0.9480
 6853TIP3    H242119   5.520   2.824   1.422  1.9397  5.6851 -2.9926
 6854TIP3   OH242120   6.760   2.802   7.495 -0.3661  0.3216  0.2044
 6854TIP3    H142121   6.785   2.802   7.402 -0.2422  1.5381  0.2273
 6854TIP3    H242122   6.667   2.778   7.495 -0.1864 -0.4267 -0.1607
 6855TIP3   OH242123   0.281   6.066   1.185 -0.5158  0.4002 -1.0045
 6855TIP3    H142124   0.336   5.991   1.164 -0.0802  0.8323 -1.4165
 6855TIP3    H242125   0.287   6.073   1.280  0.7326  0.8831 -1.1002
 6856TIP3   OH242126   6.062   4.779   0.821 -0.2963 -0.2021 -0.1663
 6856TIP3    H142127   6.030   4.828   0.897  0.6990 -0.4883  0.4575
 6856TIP3    H242128   6.002   4.705   0.813 -2.0762  1.2694 -1.3728
 6857TIP3   OH242129   5.930   3.329   1.746 -0.2478  0.0728  0.3105
 6857TIP3    H142130   5.867   3.402   1.741 -0.0489  0.1797 -2.4466
 6857TIP3    H242131   5.897   3.266   1.682  1.0934 -1.0402  0.6837
 6858TIP3   OH242132   5.611   1.305   1.608 -0.5173  0.4089  0.1901
 6858TIP3    H142133   5.530   1.355   1.600 -1.2888 -0.8463 -0.1540
 6858TIP3    H242134   5.585   1.225   1.654  0.5835  0.1030  0.2990
 6859TIP3   OH242135   5.993   6.554   0.506 -1.2334  0.4350  0.7365
 6859TIP3    H142136   5.902   6.544   0.478 -1.0255  0.6229 -0.0200
 6859TIP3    H242137   6.025   6.464   0.515 -1.1089  0.3747 -0.2816
 6860TIP3   OH242138   0.741   6.577   8.087  0.6592  0.5922 -0.5619
 6860TIP3    H142139   0.836   6.587   8.079  0.7600  0.1640  0.0016
 6860TIP3    H242140   0.707   6.590   7.999  1.1448  1.7976 -0.5889
 6861TIP3   OH242141   4.525   2.906   7.132 -0.1288 -1.0306 -0.8807
 6861TIP3    H142142   4.548   2.965   7.203 -0.6551 -1.9027  0.0510
 6861TIP3    H242143   4.605   2.898   7.080 -0.1176  0.6416 -1.1494
 6862TIP3   OH242144   3.663   4.800   7.399 -0.2098 -0.3817  0.4777
 6862TIP3    H142145   3.589   4.824   7.455  0.1164  0.1123  0.7097
 6862TIP3    H242146   3.627   4.739   7.336 -1.1428  0.8745 -0.2571
 6863TIP3   OH242147   0.173   2.563   6.245  0.0460  0.1154  0.2175
 6863TIP3    H142148   0.110   2.618   6.291 -0.0891 -0.5857  0.8977
 6863TIP3    H242149   0.224   2.624   6.192  0.3438  0.9816  1.4482
 6864TIP3   OH242150   5.169   6.782   7.936 -0.3574  0.5459  0.3443
 6864TIP3    H142151   5.104   6.712   7.927 -0.4787  0.7159 -0.1307
 6864TIP3    H242152   5.248   6.747   7.893  0.4418 -0.3566  2.4012
 6865TIP3   OH242153   2.275   3.712   8.462  0.5194  0.4469 -0.6215
 6865TIP3    H142154   2.255   3.619   8.474 -1.9410  1.0289  0.5120
 6865TIP3    H242155   2.203   3.744   8.407  0.6938  1.8886 -0.0391
 6866TIP3   OH242156   4.519   3.153   8.475 -0.3725  0.9588  0.1829
 6866TIP3    H142157   4.500   3.092   8.404 -0.0151  0.4551  0.5050
 6866TIP3    H242158   4.606   3.188   8.453 -0.0377  0.4291  0.6045
 6867TIP3   OH242159   0.510   0.362   1.638  0.0534  0.1639  0.3287
 6867TIP3    H142160   0.475   0.392   1.554  1.0887 -0.0710 -0.2045
 6867TIP3    H242161   0.469   0.419   1.703 -0.7000  0.4003 -0.3437
 6868TIP3   OH242162   2.621   3.438   8.689  0.0260 -0.1079  0.1808
 6868TIP3    H142163   2.587   3.498   8.755 -0.6393  0.0287 -0.2648
 6868TIP3    H242164   2.567   3.455   8.611 -0.1329 -1.2188  0.0223
 6869TIP3   OH242165   3.912   5.105   7.072 -0.0883  0.0339 -0.0701
 6869TIP3    H142166   3.876   5.021   7.098  0.0700  0.5147  1.8292
 6869TIP3    H242167   3.988   5.082   7.017 -1.1117 -1.0038 -1.1087
 6870TIP3   OH242168   2.684   2.837   1.440 -0.0281 -0.6795  0.6313
 6870TIP3    H142169   2.617   2.901   1.414 -1.2936 -2.1629  0.1068
 6870TIP3    H242170   2.656   2.806   1.526  0.6145 -0.5156  0.9103
 6871TIP3   OH242171   1.271   4.329   8.057 -0.1305  0.0778 -0.1159
 6871TIP3    H142172   1.254   4.373   7.974  0.3871 -0.0375 -0.2860
 6871TIP3    H242173   1.254   4.236   8.039  1.5419 -0.1790 -0.5575
 6872TIP3   OH242174   2.890   0.965   1.643  0.2090  0.2172 -0.6236
 6872TIP3    H142175   2.827   1.015   1.592 -0.6003 -0.1547 -0.0210
 6872TIP3    H242176   2.975   0.992   1.610 -0.2643  0.7563 -1.4343
 6873TIP3   OH242177   1.640   4.397   1.012  0.9244  0.3402  0.7245
 6873TIP3    H142178   1.728   4.433   1.001  1.1012  0.7634  2.9458
 6873TIP3    H242179   1.588   4.470   1.046 -0.3032  0.0690 -0.4695
 6874TIP3   OH242180   5.057   6.610   0.209  0.1045  0.2694  0.0093
 6874TIP3    H142181   4.995   6.579   0.144  0.2911  1.1861 -0.6107
 6874TIP3    H242182   5.143   6.586   0.174  0.2109  0.8550 -0.1378
 6875TIP3   OH242183   1.303   4.729   0.454 -0.3857 -0.3483 -0.3828
 6875TIP3    H142184   1.354   4.742   0.374 -0.5064  0.3159 -0.3548
 6875TIP3    H242185   1.233   4.794   0.449  0.7022  1.0311  1.1670
 6876TIP3   OH242186   0.758   0.932   0.251 -0.0716 -0.5286  0.9773
 6876TIP3    H142187   0.702   1.009   0.243 -1.3641 -1.4890  0.3100
 6876TIP3    H242188   0.822   0.941   0.181  0.3977  0.3935  1.5077
 6877TIP3   OH242189   3.805   2.422   6.297  0.0239  0.0925  0.1553
 6877TIP3    H142190   3.875   2.361   6.320 -1.0084 -1.3508 -0.3985
 6877TIP3    H242191   3.847   2.483   6.236  0.6883 -1.0923 -0.6218
 6878TIP3   OH242192   2.946   3.903   2.211 -0.1261 -0.3002  0.0557
 6878TIP3    H142193   2.924   3.832   2.272  1.6709 -0.1701  0.9205
 6878TIP3    H242194   2.861   3.943   2.190 -0.9192 -0.9983  1.6754
 6879TIP3   OH242195   3.035   2.255   7.930  0.1589 -0.4712  0.0575
 6879TIP3    H142196   3.125   2.237   7.905  0.5285 -0.0358  0.9941
 6879TIP3    H242197   3.037   2.345   7.964 -0.5023 -0.6486  0.6088
 6880TIP3   OH242198   6.708   4.077   0.513 -0.7458 -0.2325 -0.7633
 6880TIP3    H142199   6.661   4.046   0.435 -0.4066  0.6195 -1.3194
 6880TIP3    H242200   6.780   4.015   0.524 -1.7330 -1.3039 -0.1525
 6881TIP3   OH242201   2.899   1.280   7.491  0.2362 -0.4253 -0.0676
 6881TIP3    H142202   2.919   1.373   7.501  1.8598 -0.8399  0.9378
 6881TIP3    H242203   2.984   1.239   7.471 -0.1029 -1.9269  1.3691
 6882TIP3   OH242204   2.616   0.436   7.748 -0.4419 -0.4138  0.4168
 6882TIP3    H142205   2.710   0.454   7.759 -0.3377 -1.3779  1.2138
 6882TIP3    H242206   2.578   0.522   7.728  0.3541  0.3303  1.9317
 6883TIP3   OH242207   0.722   5.201   8.066 -0.1960  0.1345 -0.3021
 6883TIP3    H142208   0.740   5.142   8.139 -0.4741  0.2503 -0.1387
 6883TIP3    H242209   0.781   5.171   7.996  1.8105  1.5108  0.7056
 6884TIP3   OH242210   5.432   1.362   2.219  0.3195  0.1953  0.4636
 6884TIP3    H142211   5.362   1.304   2.249 -0.0930  1.3402  1.8086
 6884TIP3    H242212   5.417   1.444   2.265  0.2929  1.7627 -2.1407
 6885TIP3   OH242213   5.578   5.417   1.164 -0.3079 -0.1993 -0.0396
 6885TIP3    H142214   5.521   5.491   1.144  1.4028  0.5140 -2.6847
 6885TIP3    H242215   5.558   5.352   1.096  0.4599 -0.8534  0.3452
 6886TIP3   OH242216   0.110   1.223   8.416 -0.1768  0.1762 -0.3126
 6886TIP3    H142217   0.184   1.185   8.370 -1.7843 -1.8147 -1.4376
 6886TIP3    H242218   0.092   1.163   8.488  0.3704  1.6142  1.0937
 6887TIP3   OH242219   5.720   6.674   0.303 -0.2117 -0.1104  0.3418
 6887TIP3    H142220   5.670   6.723   0.238 -0.0776  0.6898  0.8279
 6887TIP3    H242221   5.655   6.622   0.349 -0.6135  0.9378  0.9817
 6888TIP3   OH242222   1.558   3.246   0.629 -0.5520 -0.0376 -0.3267
 6888TIP3    H142223   1.496   3.298   0.679  0.2358  0.3827  0.2225
 6888TIP3    H242224   1.532   3.155   0.646 -1.2147  0.1318 -0.3817
 6889TIP3   OH242225   3.367   2.182   1.303 -0.5852 -0.2922  0.0069
 6889TIP3    H142226   3.421   2.102   1.302 -1.2609 -0.8146 -2.7550
 6889TIP3    H242227   3.308   2.170   1.378  1.2847 -0.9301  1.4764
 6890TIP3   OH242228   3.938   6.355   0.195  0.3658  0.1521  0.3209
 6890TIP3    H142229   3.851   6.376   0.229  0.0001  0.2896 -0.6686
 6890TIP3    H242230   3.921   6.312   0.111  1.2718  0.6321 -0.1167
 6891TIP3   OH242231   5.192   4.996   7.324  0.1111 -0.3466 -0.2865
 6891TIP3    H142232   5.243   5.018   7.402 -1.2621  0.0447  0.5509
 6891TIP3    H242233   5.171   4.903   7.334 -0.3904 -0.2066  0.0351
 6892TIP3   OH242234   5.429   4.451   2.264  0.1787 -0.2085 -0.1439
 6892TIP3    H142235   5.426   4.404   2.348 -1.0383  0.0619 -0.0224
 6892TIP3    H242236   5.402   4.540   2.286  1.1243  0.2153 -0.6195
 6893TIP3   OH242237   2.629   3.244   0.343  0.1918 -0.1046  0.0885
 6893TIP3    H142238   2.707   3.224   0.394  0.2315 -0.2699 -0.0360
 6893TIP3    H242239   2.659   3.240   0.252 -0.3923 -2.0341 -0.0456
 6894TIP3   OH242240   5.700   0.551   7.370  0.0235 -0.4598  0.0482
 6894TIP3    H142241   5.608   0.551   7.342  0.0635 -3.5903 -0.4005
 6894TIP3    H242242   5.746   0.505   7.300  1.7834  0.1452  0.7590
 6895TIP3   OH242243   1.721   6.192   1.111 -0.0425  0.1814  0.7001
 6895TIP3    H142244   1.765   6.111   1.084  2.3070  1.6764 -0.2642
 6895TIP3    H242245   1.723   6.190   1.206 -0.1462 -0.9606  0.6907
 6896TIP3   OH242246   0.308   4.033   0.102  0.2271  0.3449 -0.6686
 6896TIP3    H142247   0.367   4.057   0.031  0.6411  0.1304 -0.3994
 6896TIP3    H242248   0.284   4.116   0.143 -1.0767  0.6072 -1.8801
 6897TIP3   OH242249   3.648   5.017   7.713 -0.3974 -0.4941  0.2822
 6897TIP3    H142250   3.727   5.019   7.659 -1.8012 -2.0711 -2.0264
 6897TIP3    H242251   3.673   4.968   7.791  1.4768  1.1194  0.7741
 6898TIP3   OH242252   2.228   0.154   8.415  0.3061 -0.1264 -0.3223
 6898TIP3    H142253   2.161   0.085   8.417 -0.2898  0.4325 -0.7883
 6898TIP3    H242254   2.288   0.130   8.486 -0.7244 -0.3027  0.5160
 6899TIP3   OH242255   0.380   0.174   0.803 -0.5153 -0.4282  0.3684
 6899TIP3    H142256   0.444   0.105   0.815 -0.6739 -0.5920  0.2742
 6899TIP3    H242257   0.408   0.219   0.723 -1.2963 -1.3676 -0.4651
 6900TIP3   OH242258   5.487   4.299   7.517 -0.2059  0.0129  0.0518
 6900TIP3    H142259   5.495   4.298   7.421 -0.7408 -0.2118  0.0079
 6900TIP3    H242260   5.428   4.226   7.537 -1.5790  1.1697  0.4079
 6901TIP3   OH242261   5.570   4.029   8.040  0.0187  0.0317  0.2312
 6901TIP3    H142262   5.572   3.974   7.961  0.1428  0.6746 -0.2149
 6901TIP3    H242263   5.643   3.996   8.093 -1.6454 -2.1920  1.3258
 6902TIP3   OH242264   4.630   0.957   0.747  0.2943  0.8298  0.3509
 6902TIP3    H142265   4.698   1.001   0.696  1.8085 -1.3839  0.3265
 6902TIP3    H242266   4.553   0.958   0.691  1.6117 -0.5956 -1.6249
 6903TIP3   OH242267   4.676   1.502   6.981  0.4483  0.4852  0.7599
 6903TIP3    H142268   4.633   1.576   6.939 -0.1468  0.1216  0.7164
 6903TIP3    H242269   4.628   1.425   6.950  1.1884  0.0552  0.6349
 6904TIP3   OH242270   2.401   6.329   0.111 -0.5337 -0.0596  0.2275
 6904TIP3    H142271   2.320   6.283   0.134 -1.4739  1.8981  1.0759
 6904TIP3    H242272   2.454   6.263   0.066 -3.1053 -1.0927 -1.5578
 6905TIP3   OH242273   1.908   0.154   8.283 -0.0461  0.1380  0.3402
 6905TIP3    H142274   1.969   0.222   8.254 -1.0289  1.8021  1.9029
 6905TIP3    H242275   1.964   0.081   8.310  1.0288  0.1479 -1.6994
 6906TIP3   OH242276   4.773   0.717   0.761  0.5933  0.1011 -0.0805
 6906TIP3    H142277   4.718   0.638   0.759  0.5573  0.1467 -1.1660
 6906TIP3    H242278   4.711   0.789   0.769  0.5443  0.1092 -0.5548
 6907TIP3   OH242279   5.418   2.881   0.681  0.7444  0.3864  0.1381
 6907TIP3    H142280   5.509   2.891   0.653  0.5974  0.7512 -0.2238
 6907TIP3    H242281   5.369   2.876   0.599  0.3304  1.2430  0.3212
 6908TIP3   OH242282   4.409   5.666   0.978  0.8561 -0.0180  0.6636
 6908TIP3    H142283   4.382   5.636   0.891 -1.1464 -1.6129  1.7467
 6908TIP3    H242284   4.373   5.754   0.986  1.9337  0.5468 -0.4769
 6909TIP3   OH242285   5.421   2.248   1.237  0.7250  0.4296  0.1264
 6909TIP3    H142286   5.496   2.212   1.284  0.6044  0.9105  0.6950
 6909TIP3    H242287   5.377   2.305   1.300 -0.8410 -0.8042  0.2245
 6910TIP3   OH242288   2.201   3.852   7.911 -1.0813 -0.4458  0.0846
 6910TIP3    H142289   2.295   3.868   7.905 -1.3211  0.9575 -0.4070
 6910TIP3    H242290   2.193   3.775   7.968  0.3166  0.0352  0.9836
 6911TIP3   OH242291   1.725   6.327   0.239  0.2383  0.4988  0.1128
 6911TIP3    H142292   1.740   6.245   0.286 -0.2464  0.7854  0.7726
 6911TIP3    H242293   1.794   6.329   0.172  0.4270 -0.3043  0.2762
 6912TIP3   OH242294   0.043   5.565   7.741 -0.7116  0.4926 -0.2395
 6912TIP3    H142295   0.116   5.594   7.685  0.7280  1.2024  1.8926
 6912TIP3    H242296   0.001   5.646   7.769 -0.2067  0.2864  1.2044
 6913TIP3   OH242297   1.071   6.681   0.323  0.2911  0.4627 -0.0298
 6913TIP3    H142298   1.054   6.613   0.259 -0.4007  0.3452  0.2678
 6913TIP3    H242299   1.114   6.751   0.274  0.0649  0.2399 -0.5486
 6914TIP3   OH242300   2.875   4.909   0.105  0.4365 -0.0863  0.0818
 6914TIP3    H142301   2.853   5.002   0.093  0.8237  0.2560  1.6908
 6914TIP3    H242302   2.792   4.866   0.123  0.1910 -0.1529 -1.1647
 6915TIP3   OH242303   0.495   5.481   8.453  0.2119  0.1988  0.0959
 6915TIP3    H142304   0.551   5.425   8.399 -0.4457 -0.6014  0.2133
 6915TIP3    H242305   0.532   5.476   8.541 -0.5965 -1.1600  0.3958
 6916TIP3   OH242306   4.823   4.146   0.215  0.3731  0.2923 -0.8499
 6916TIP3    H142307   4.750   4.086   0.229  1.8001 -1.0926  1.0534
 6916TIP3    H242308   4.811   4.214   0.281 -0.4669  1.4370 -2.1087
 6917TIP3   OH242309   6.762   1.885   1.962  0.4172 -0.0786 -0.1256
 6917TIP3    H142310   6.844   1.882   2.012  0.1881  0.1328  0.2594
 6917TIP3    H242311   6.725   1.971   1.981 -0.1573 -0.3790  0.1162
 6918TIP3   OH242312   0.847   4.424   1.355 -0.2508 -0.3079  0.0816
 6918TIP3    H142313   0.803   4.470   1.284 -0.1448 -2.7202 -1.6507
 6918TIP3    H242314   0.920   4.481   1.379 -1.2563  1.3252 -0.5393
 6919TIP3   OH242315   4.527   2.689   7.650  0.0850 -0.1251  0.6173
 6919TIP3    H142316   4.513   2.620   7.715 -1.0828 -0.3800  0.1346
 6919TIP3    H242317   4.617   2.677   7.621 -0.8633 -3.3819 -1.5533
 6920TIP3   OH242318   0.508   2.355   0.438  0.2232 -0.8797 -0.0468
 6920TIP3    H142319   0.590   2.316   0.469  1.1957  0.8265 -0.3668
 6920TIP3    H242320   0.467   2.392   0.516  0.5187 -0.3967 -0.1186
 6921TIP3   OH242321   0.881   4.908   0.570 -0.3512 -0.2083  0.1935
 6921TIP3    H142322   0.802   4.958   0.594 -0.1783  0.3449 -0.3575
 6921TIP3    H242323   0.848   4.837   0.515 -0.5222 -0.2807  0.3874
 6922TIP3   OH242324   6.125   4.261   6.533 -0.2250  0.1921 -0.0279
 6922TIP3    H142325   6.056   4.293   6.474 -0.3059 -0.7087 -0.4388
 6922TIP3    H242326   6.128   4.167   6.517  0.9293  0.1818  0.1728
 6923TIP3   OH242327   3.149   4.078   0.483  0.7626 -0.4708 -0.1968
 6923TIP3    H142328   3.184   3.996   0.450  0.7382 -0.6054  0.1069
 6923TIP3    H242329   3.129   4.060   0.575  2.2456  0.3365  0.3105
 6924TIP3   OH242330   2.040   3.668   7.716  0.4202 -0.2133  0.1866
 6924TIP3    H142331   2.071   3.742   7.769  0.4153 -0.5870  0.7183
 6924TIP3    H242332   1.947   3.662   7.737 -0.2209  1.3206 -1.8989
 6925TIP3   OH242333   4.407   0.884   1.262  0.2430 -0.2526  0.6786
 6925TIP3    H142334   4.464   0.879   1.185  0.1964 -0.1390  0.6355
 6925TIP3    H242335   4.435   0.964   1.307 -1.0319  0.7726 -0.2710
 6926TIP3   OH242336   6.506   5.273   6.953  0.0128 -0.1553  0.2924
 6926TIP3    H142337   6.518   5.342   6.887  0.2544 -1.1867 -0.7595
 6926TIP3    H242338   6.446   5.211   6.913  1.7025 -1.8225  0.2140
 6927TIP3   OH242339   5.465   1.324   0.405 -0.3076 -0.0614 -0.1620
 6927TIP3    H142340   5.371   1.337   0.411 -0.0649  1.4731  0.7640
 6927TIP3    H242341   5.494   1.310   0.495  0.5088  0.8291 -0.2624
 6928TIP3   OH242342   2.543   0.796   7.237 -0.1530  0.0849 -0.1050
 6928TIP3    H142343   2.561   0.870   7.179  1.7085 -0.4537 -0.2868
 6928TIP3    H242344   2.498   0.834   7.312 -2.6315  0.8205 -1.8255
 6929TIP3   OH242345   3.736   5.993   6.546  0.4542 -0.3029  0.3895
 6929TIP3    H142346   3.746   5.973   6.453  0.7600  0.1730  0.3187
 6929TIP3    H242347   3.683   6.072   6.548 -0.0756 -0.6570  0.6437
 6930TIP3   OH242348   3.527   5.623   7.193  0.0063 -0.0065 -0.0955
 6930TIP3    H142349   3.489   5.707   7.217  3.3293  1.1790  1.7670
 6930TIP3    H242350   3.596   5.609   7.258 -0.0564 -3.9590 -0.6510
 6931TIP3   OH242351   0.157   1.412   8.615  0.3006  0.0479  0.2264
 6931TIP3    H142352   0.068   1.418   8.649  0.4225 -1.3978  0.8805
 6931TIP3    H242353   0.151   1.351   8.542 -0.0604  3.5167 -2.9531
 6932TIP3   OH242354   1.960   5.120   7.210 -0.1031 -0.0750 -0.1528
 6932TIP3    H142355   2.022   5.191   7.194 -1.2471  0.7108 -1.3027
 6932TIP3    H242356   1.987   5.050   7.151 -0.8174  0.6057 -1.3155
 6933TIP3   OH242357   0.318   1.589   7.041  0.2866 -0.3332  0.2141
 6933TIP3    H142358   0.309   1.495   7.057 -3.1299 -0.4296 -1.4412
 6933TIP3    H242359   0.260   1.629   7.105 -0.9173  0.3638 -1.2682
 6934TIP3   OH242360   5.578   5.562   8.649  0.2176  0.5975 -0.2199
 6934TIP3    H142361   5.638   5.515   8.592 -0.0170  1.0828 -0.8801
 6934TIP3    H242362   5.491   5.544   8.613 -0.0682 -0.2832  0.8621
 6935TIP3   OH242363   1.022   6.252   0.249  0.1933  0.3009  0.1750
 6935TIP3    H142364   0.948   6.301   0.285  0.2068 -1.0605  2.2265
 6935TIP3    H242365   0.988   6.163   0.237  1.9302 -0.8686  3.0372
 6936TIP3   OH242366   2.314   5.060   0.504 -0.2278  0.1645 -0.3311
 6936TIP3    H142367   2.349   5.147   0.482  0.3743 -0.2315 -0.9820
 6936TIP3    H242368   2.352   5.040   0.589 -0.6216  0.6745 -0.0323
 6937TIP3   OH242369   1.091   3.988   8.643 -0.0893  0.0207 -0.1612
 6937TIP3    H142370   1.166   3.929   8.644 -1.1694 -1.4053  1.2351
 6937TIP3    H242371   1.103   4.045   8.718 -0.0902  0.2174 -0.3086
 6938TIP3   OH242372   4.829   2.727   2.167 -0.2713 -0.0085  0.0062
 6938TIP3    H142373   4.754   2.784   2.150 -0.6451 -0.5150 -0.0445
 6938TIP3    H242374   4.793   2.653   2.214  0.6925  1.2386  2.9144
 6939TIP3   OH242375   5.377   5.778   0.554 -0.4982 -0.4149 -0.0188
 6939TIP3    H142376   5.391   5.836   0.628 -0.3107 -1.9484  1.1999
 6939TIP3    H242377   5.410   5.693   0.583 -0.1504 -1.0033 -1.9697
 6940TIP3   OH242378   0.276   2.082   0.421 -0.1002  0.4149 -0.0819
 6940TIP3    H142379   0.191   2.071   0.463  0.0495  0.5741  0.2712
 6940TIP3    H242380   0.279   2.174   0.396 -0.1874  0.3199 -0.4388
 6941TIP3   OH242381   2.210   6.118   8.232 -0.0266  0.3373 -0.0839
 6941TIP3    H142382   2.132   6.140   8.282 -1.7239 -1.9028 -1.5166
 6941TIP3    H242383   2.217   6.023   8.240  2.0185  0.3788 -0.7998
 6942TIP3   OH242384   0.396   1.814   7.376  0.0724 -0.0761  0.2472
 6942TIP3    H142385   0.469   1.853   7.425 -0.0682 -0.8559  1.0998
 6942TIP3    H242386   0.427   1.810   7.286  1.7322 -1.8499  0.8305
 6943TIP3   OH242387   6.041   3.340   0.431 -0.0133  0.8016  0.5802
 6943TIP3    H142388   6.050   3.425   0.472 -2.2975  1.7483 -0.6850
 6943TIP3    H242389   5.954   3.342   0.390 -0.0763 -2.0684  0.3522
 6944TIP3   OH242390   0.276   4.155   2.336 -0.3243  0.2414  0.2449
 6944TIP3    H142391   0.256   4.081   2.394 -0.1621  0.5772  0.7376
 6944TIP3    H242392   0.247   4.232   2.385  0.6769  0.6043  0.2873
 6945TIP3   OH242393   3.655   0.302   8.430  0.2117 -0.7067  0.1458
 6945TIP3    H142394   3.695   0.338   8.509  1.6291 -3.6305  0.8946
 6945TIP3    H242395   3.570   0.269   8.459 -0.4798  0.6493 -0.2366
 6946TIP3   OH242396   1.882   0.382   1.806  0.5161  0.6960 -0.1523
 6946TIP3    H142397   1.833   0.382   1.887 -0.8226  1.8867 -0.9338
 6946TIP3    H242398   1.816   0.385   1.737  1.6468  2.6589 -1.2433
 6947TIP3   OH242399   4.669   3.185   0.961 -0.4525  0.5780 -0.1716
 6947TIP3    H142400   4.681   3.253   1.027  3.8172  0.4530 -0.5174
 6947TIP3    H242401   4.649   3.106   1.011 -2.9010  1.4916  0.4178
 6948TIP3   OH242402   6.684   6.222   8.216 -0.1457 -0.2065 -0.0494
 6948TIP3    H142403   6.712   6.162   8.147 -1.0897 -0.5634 -0.1370
 6948TIP3    H242404   6.696   6.309   8.178  0.4239 -0.3670 -0.2405
 6949TIP3   OH242405   6.102   4.463   8.381  0.5416 -0.4604  0.7757
 6949TIP3    H142406   6.011   4.433   8.372  0.2194  0.6628 -0.0275
 6949TIP3    H242407   6.115   4.472   8.475  0.3191 -2.0599  0.9794
 6950TIP3   OH242408   2.544   3.119   7.139  0.5316  0.4539 -0.3333
 6950TIP3    H142409   2.575   3.155   7.223  0.0790  0.5354 -0.1970
 6950TIP3    H242410   2.457   3.086   7.159  0.0018  1.3939 -1.0072
 6951TIP3   OH242411   1.635   4.744   1.223  0.4951  0.1282  0.2148
 6951TIP3    H142412   1.676   4.683   1.162  1.6562  0.8660  0.2312
 6951TIP3    H242413   1.553   4.769   1.179  1.0639  0.2469 -0.8326
 6952TIP3   OH242414   0.553   1.545   7.150  0.3639 -0.3810  0.4703
 6952TIP3    H142415   0.516   1.497   7.224  1.6545 -0.5230  1.0535
 6952TIP3    H242416   0.478   1.585   7.107 -0.4533 -0.6589  1.5986
 6953TIP3   OH242417   1.417   0.858   1.663  0.1669  0.1570  0.3769
 6953TIP3    H142418   1.506   0.825   1.651 -0.7171 -2.1993 -0.4163
 6953TIP3    H242419   1.407   0.925   1.596  0.7783 -0.8959 -0.8212
 6954TIP3   OH242420   3.706   0.162   6.998 -0.3681 -0.8454 -0.0774
 6954TIP3    H142421   3.794   0.177   6.963 -0.9260  1.8180 -0.5454
 6954TIP3    H242422   3.650   0.154   6.920 -1.4019  3.7501 -0.0721
 6955TIP3   OH242423   3.321   0.975   8.502  0.2304  0.2017  0.6654
 6955TIP3    H142424   3.248   1.016   8.550 -0.3033  0.6876 -0.5283
 6955TIP3    H242425   3.371   1.049   8.467  0.4911 -0.1476  0.2980
 6956TIP3   OH242426   0.022   1.572   7.585  0.1103 -0.5047 -0.2575
 6956TIP3    H142427   0.106   1.615   7.597  0.1920 -0.3191 -1.3680
 6956TIP3    H242428   0.036   1.482   7.614  0.5497 -0.3433  0.0342
 6957TIP3   OH242429   1.819   2.371   0.574 -0.4219  0.4791  0.3410
 6957TIP3    H142430   1.868   2.311   0.518 -0.2601  0.5185  0.4396
 6957TIP3    H242431   1.753   2.410   0.516 -2.0913 -1.5227  0.7651
 6958TIP3   OH242432   5.757   0.967   6.971 -0.5250 -0.2719 -0.2769
 6958TIP3    H142433   5.705   1.046   6.985  0.2436  0.2769 -0.4275
 6958TIP3    H242434   5.825   0.994   6.909  0.3387 -0.7872  0.4138
 6959TIP3   OH242435   1.599   1.288   0.262  0.4022 -0.1855  0.5763
 6959TIP3    H142436   1.534   1.224   0.234 -1.8682  0.8062  3.1577
 6959TIP3    H242437   1.678   1.265   0.213 -1.4866 -2.2399 -1.7737
 6960TIP3   OH242438   6.496   6.489   2.360 -0.4476 -0.2574 -0.3767
 6960TIP3    H142439   6.522   6.581   2.361  1.5981 -0.7761 -0.8375
 6960TIP3    H242440   6.443   6.478   2.439 -4.4299  2.2093 -2.3782
 6961TIP3   OH242441   6.472   4.090   1.605 -0.4106 -0.3905 -0.0540
 6961TIP3    H142442   6.400   4.052   1.554  0.5268  0.8028 -2.4013
 6961TIP3    H242443   6.507   4.160   1.549  1.0851  0.6057  2.0135
 6962TIP3   OH242444   1.908   5.005   1.267  0.6804  0.1134 -0.1646
 6962TIP3    H142445   1.902   5.024   1.173  0.5732  1.9395  0.1652
 6962TIP3    H242446   1.904   4.910   1.273 -1.2135  0.0178 -1.8806
 6963TIP3   OH242447   3.041   1.880   8.297 -0.0982  0.1188 -0.2372
 6963TIP3    H142448   3.040   1.926   8.213  1.2620  0.5856 -0.0175
 6963TIP3    H242449   3.132   1.851   8.309 -0.7132 -1.8374  0.0792
 6964TIP3   OH242450   4.409   1.358   0.414 -0.7674  0.6303 -0.4339
 6964TIP3    H142451   4.394   1.369   0.320 -0.2107  0.9033 -0.4940
 6964TIP3    H242452   4.478   1.420   0.435 -1.9881  1.7401  0.4863
 6965TIP3   OH242453   2.779   6.437   0.498 -0.1472  0.6375  0.1491
 6965TIP3    H142454   2.845   6.476   0.442  0.9135 -3.0580 -1.5245
 6965TIP3    H242455   2.697   6.449   0.450  0.1645  0.7572 -0.3596
 6966TIP3   OH242456   2.122   6.447   8.280 -0.3417 -0.1359 -0.4535
 6966TIP3    H142457   2.107   6.406   8.365 -1.5794 -0.6671 -0.8941
 6966TIP3    H242458   2.216   6.461   8.275 -0.0949 -1.3793  0.4238
 6967TIP3   OH242459   4.597   5.191   7.949  0.5189 -0.3229  0.1857
 6967TIP3    H142460   4.581   5.100   7.972 -0.6881 -0.4039 -0.8276
 6967TIP3    H242461   4.557   5.241   8.021  0.8622 -0.5825  0.5608
 6968TIP3   OH242462   1.764   5.337   1.780 -0.0326 -0.5136 -0.3006
 6968TIP3    H142463   1.756   5.297   1.866  1.2933 -0.2799 -0.0515
 6968TIP3    H242464   1.855   5.323   1.755  0.3741  1.8649 -0.4105
 6969TIP3   OH242465   6.559   0.321   8.163  0.3832 -0.5807  0.0376
 6969TIP3    H142466   6.523   0.283   8.083 -0.3398 -0.9158  0.5137
 6969TIP3    H242467   6.600   0.248   8.209 -0.1027 -0.5945  0.4593
 6970TIP3   OH242468   2.586   4.900   7.352  0.0163  0.2526 -0.8506
 6970TIP3    H142469   2.603   4.989   7.383  1.4452  0.5135 -2.2842
 6970TIP3    H242470   2.528   4.911   7.277 -0.1709 -0.0715 -0.7590
 6971TIP3   OH242471   3.523   0.374   8.094  0.1088 -0.4649  0.0569
 6971TIP3    H142472   3.599   0.407   8.142 -0.6193  0.5683  0.5518
 6971TIP3    H242473   3.560   0.320   8.024  1.2041 -1.9878  1.7307
 6972TIP3   OH242474   3.113   6.218   0.409  0.5120  0.5198  0.5311
 6972TIP3    H142475   3.157   6.166   0.342  0.3241  0.0809  0.7438
 6972TIP3    H242476   3.161   6.301   0.411 -0.6996  1.3697 -1.5875
 6973TIP3   OH242477   1.199   5.957   0.499  0.6421  0.3894 -0.3442
 6973TIP3    H142478   1.259   6.002   0.559  1.1703 -2.5578  1.5295
 6973TIP3    H242479   1.256   5.911   0.438  0.1418  1.0517 -1.3424
 6974TIP3   OH242480   2.062   1.173   1.686  0.6474 -0.0520 -0.0724
 6974TIP3    H142481   2.126   1.237   1.655 -0.5510  1.2965  0.1432
 6974TIP3    H242482   2.016   1.217   1.758 -1.4316 -0.4355 -1.0847
 6975TIP3   OH242483   0.549   5.532   0.950 -0.1419  0.8953 -0.1412
 6975TIP3    H142484   0.501   5.541   0.868 -0.4402  2.2164  0.1540
 6975TIP3    H242485   0.573   5.622   0.974 -0.3982  0.5844  1.3941
 6976TIP3   OH242486   0.298   6.526   1.385 -0.0997 -0.0722 -0.5949
 6976TIP3    H142487   0.345   6.609   1.392 -0.8782  0.3152  0.2643
 6976TIP3    H242488   0.366   6.459   1.391  0.5518  0.4914 -1.4074
 6977TIP3   OH242489   4.915   0.104   6.978 -0.1106 -0.0290 -0.2191
 6977TIP3    H142490   4.898   0.051   6.900 -1.2032  1.6987 -1.2203
 6977TIP3    H242491   4.983   0.166   6.950 -0.2255  0.3439  0.3267
 6978TIP3   OH242492   2.509   2.994   8.670  0.2252  0.3359 -0.1508
 6978TIP3    H142493   2.415   2.991   8.687  0.5252  0.4716  1.8317
 6978TIP3    H242494   2.549   2.955   8.749  1.7930 -1.0602 -1.5479
 6979TIP3   OH242495   5.906   5.909   7.451  0.2609 -0.7165 -0.0560
 6979TIP3    H142496   5.890   5.903   7.545  0.7353 -0.0490  0.0759
 6979TIP3    H242497   5.819   5.911   7.412 -0.0315  1.4108  0.5473
 6980TIP3   OH242498   4.669   2.440   7.466 -0.8637 -0.1920  0.0753
 6980TIP3    H142499   4.663   2.434   7.371  0.1016 -0.2731  0.0109
 6980TIP3    H242500   4.601   2.502   7.491  0.6453  1.9989 -0.9340
 6981TIP3   OH242501   3.717   2.410   0.835  0.0042  0.9722  0.1136
 6981TIP3    H142502   3.648   2.443   0.778  0.9563  0.0407 -1.6687
 6981TIP3    H242503   3.771   2.487   0.855  1.4905  0.8716 -2.9765
 6982TIP3   OH242504   2.111   6.139   1.363 -0.0470 -0.2042 -0.1624
 6982TIP3    H142505   2.182   6.101   1.416 -1.4456 -3.5548 -0.4280
 6982TIP3    H242506   2.035   6.083   1.382 -1.7281  1.1228 -2.5009
 6983TIP3   OH242507   6.613   5.507   7.967 -0.7324  0.0482  0.1792
 6983TIP3    H142508   6.686   5.491   8.027 -1.6208 -0.5354  1.1414
 6983TIP3    H242509   6.541   5.455   8.003 -2.1439  1.9352  0.2416
 6984TIP3   OH242510   0.588   6.508   7.052 -0.0026 -0.0970 -0.5157
 6984TIP3    H142511   0.543   6.425   7.036  0.6977 -0.2578 -1.7574
 6984TIP3    H242512   0.542   6.572   6.997 -0.0744  0.1960 -0.1230
 6985TIP3   OH242513   3.650   2.904   0.861  0.0347  0.8388 -0.1915
 6985TIP3    H142514   3.730   2.949   0.888  1.0681 -0.2073 -1.3619
 6985TIP3    H242515   3.641   2.832   0.924 -0.7271  1.6907  0.7090
 6986TIP3   OH242516   1.324   5.260   7.255  0.0288 -0.2528  0.3050
 6986TIP3    H142517   1.238   5.220   7.271 -0.0492 -0.6681 -1.0664
 6986TIP3    H242518   1.384   5.206   7.306 -0.1776 -1.7115 -0.9301
 6987TIP3   OH242519   4.449   0.290   6.936  0.5732 -0.3380  0.2326
 6987TIP3    H142520   4.438   0.351   6.863 -0.6568  0.9059  1.4100
 6987TIP3    H242521   4.533   0.314   6.976  1.0279 -0.7245 -0.4673
 6988TIP3   OH242522   0.701   6.089   1.889  0.8666  0.1800  0.6618
 6988TIP3    H142523   0.740   6.116   1.806 -0.4435 -0.6095 -0.2681
 6988TIP3    H242524   0.727   5.997   1.898 -0.3135 -0.2148  0.2643
 6989TIP3   OH242525   1.865   5.927   8.567  0.1004 -0.0697 -0.4347
 6989TIP3    H142526   1.781   5.948   8.608  0.6448 -0.4209  0.8968
 6989TIP3    H242527   1.845   5.852   8.510 -0.4816 -0.1403 -0.1478
 6990TIP3   OH242528   5.513   4.277   8.190  0.4446 -0.0149  0.1284
 6990TIP3    H142529   5.529   4.204   8.130 -0.2604  1.2549 -1.6907
 6990TIP3    H242530   5.417   4.280   8.199  0.4905  0.4254  0.5444
 6991TIP3   OH242531   5.590   4.860   0.560  0.5294  0.1171  0.6548
 6991TIP3    H142532   5.614   4.768   0.546 -1.7797 -0.4674  0.1509
 6991TIP3    H242533   5.521   4.857   0.626  0.0620  1.4417  0.2634
 6992TIP3   OH242534   0.689   4.305   7.977 -0.2866 -0.6474 -0.5941
 6992TIP3    H142535   0.628   4.235   7.952  1.2700 -1.9887 -0.7577
 6992TIP3    H242536   0.758   4.260   8.027  1.0369  0.6748 -1.1730
 6993TIP3   OH242537   6.442   5.469   1.678  0.0265  0.0341  0.0825
 6993TIP3    H142538   6.358   5.474   1.724 -0.6068  0.0435 -1.0559
 6993TIP3    H242539   6.463   5.560   1.657 -0.2699 -0.0614 -0.6609
 6994TIP3   OH242540   0.437   2.635   8.211 -0.1576  0.8006 -0.0631
 6994TIP3    H142541   0.414   2.699   8.144  0.1926  0.5172 -0.4603
 6994TIP3    H242542   0.446   2.552   8.163  0.7563  0.7269  0.2280
 6995TIP3   OH242543   5.828   4.693   6.671 -0.6413 -0.3922  0.1787
 6995TIP3    H142544   5.910   4.737   6.694 -0.5112 -1.3113  1.5254
 6995TIP3    H242545   5.770   4.765   6.645  0.6827  0.2429 -1.2391
 6996TIP3   OH242546   0.796   4.790   8.122  0.4342  0.2623 -0.3674
 6996TIP3    H142547   0.755   4.708   8.094  0.2705 -0.0288  0.6584
 6996TIP3    H242548   0.754   4.809   8.206  2.1517  0.1384  0.5576
 6997TIP3   OH242549   0.306   1.791   1.230 -0.8950 -0.8057 -0.0552
 6997TIP3    H142550   0.393   1.806   1.268 -1.6887 -0.3156  1.6957
 6997TIP3    H242551   0.254   1.866   1.259 -1.8903 -1.0339 -1.1642
 6998TIP3   OH242552   3.432   2.176   8.447 -0.0275  0.2621  0.0766
 6998TIP3    H142553   3.388   2.122   8.381 -2.4400  0.0164  1.7257
 6998TIP3    H242554   3.392   2.262   8.439  0.0207  0.3693  0.8604
 6999TIP3   OH242555   6.338   4.219   1.811  0.3616  0.0695 -0.5037
 6999TIP3    H142556   6.396   4.154   1.770  0.7832 -0.8580  1.4118
 6999TIP3    H242557   6.305   4.174   1.889 -0.5307  1.6662  0.0672
 7000TIP3   OH242558   1.785   4.310   6.531 -0.0201 -0.4121  0.0725
 7000TIP3    H142559   1.787   4.392   6.483 -1.2005  0.8553  2.0450
 7000TIP3    H242560   1.701   4.270   6.507 -1.0604  0.6783  1.6459
 7001TIP3   OH242561   5.518   0.468   6.952  0.1443  0.2931  0.5251
 7001TIP3    H142562   5.566   0.447   7.032 -0.5590 -0.4358  0.7637
 7001TIP3    H242563   5.546   0.402   6.889 -0.3446  0.0154  0.5914
 7002TIP3   OH242564   1.607   1.085   8.223  0.5544  0.1653  0.1347
 7002TIP3    H142565   1.545   1.128   8.282  0.3877 -0.8938  0.7449
 7002TIP3    H242566   1.561   1.080   8.139 -0.3776 -1.0118  0.6950
 7003TIP3   OH242567   5.652   0.595   7.793  0.1248 -0.3709  0.0759
 7003TIP3    H142568   5.737   0.555   7.811  0.6991 -0.0004 -1.6240
 7003TIP3    H242569   5.670   0.662   7.727 -0.8773  2.4134  2.4130
 7004TIP3   OH242570   2.690   4.688   0.127  0.4984 -0.0553 -0.2241
 7004TIP3    H142571   2.768   4.641   0.157  1.0765  1.9153  1.6005
 7004TIP3    H242572   2.622   4.664   0.190  0.5133  0.6277  0.0711
 7005TIP3   OH242573   3.438   0.568   0.502  1.0002 -0.2485 -0.5831
 7005TIP3    H142574   3.475   0.487   0.468  1.4022  0.0077 -0.7692
 7005TIP3    H242575   3.353   0.576   0.459  0.5005 -1.0870  0.2076
 7006TIP3   OH242576   4.788   2.886   6.969 -0.2918  0.0995 -0.4611
 7006TIP3    H142577   4.765   2.884   6.876  0.4163  0.8854 -0.6645
 7006TIP3    H242578   4.836   2.968   6.980 -1.0622  0.3982  0.7729
 7007TIP3   OH242579   5.771   0.735   0.414  0.0695 -0.1488 -0.2595
 7007TIP3    H142580   5.706   0.751   0.482  0.6117 -0.6188  0.3815
 7007TIP3    H242581   5.850   0.708   0.461  0.2742 -1.0844 -1.0942
 7008TIP3   OH242582   3.966   1.106   1.830 -0.3979 -0.3025  0.1329
 7008TIP3    H142583   3.992   1.140   1.916 -1.8497 -0.4368  0.6568
 7008TIP3    H242584   3.985   1.012   1.835 -1.9410 -0.6009  0.9249
 7009TIP3   OH242585   0.413   3.459   1.480  0.1030  0.1399  0.4201
 7009TIP3    H142586   0.503   3.424   1.485  0.1109 -0.5239 -2.4922
 7009TIP3    H242587   0.425   3.553   1.468  0.3703  0.1706  0.9003
 7010TIP3   OH242588   3.185   4.836   1.508  0.2197 -0.7380  0.5562
 7010TIP3    H142589   3.207   4.745   1.485  1.7452 -0.3010  0.1873
 7010TIP3    H242590   3.147   4.830   1.595  2.9854 -1.4837  1.8270
 7011TIP3   OH242591   0.317   6.264   0.870  0.2133  0.1894 -0.3011
 7011TIP3    H142592   0.239   6.223   0.906  0.3188 -0.1576 -0.4640
 7011TIP3    H242593   0.388   6.204   0.892  0.2838 -0.0101 -1.0599
 7012TIP3   OH242594   2.543   5.942   6.402 -0.2828 -1.1343 -0.4529
 7012TIP3    H142595   2.498   5.871   6.357  0.6222 -2.2417  0.3208
 7012TIP3    H242596   2.571   5.903   6.485  0.4498  0.0646 -0.1165
 7013TIP3   OH242597   4.342   5.567   2.333 -0.6273  0.3579 -0.4441
 7013TIP3    H142598   4.342   5.602   2.244  1.4156  1.5231 -0.0355
 7013TIP3    H242599   4.433   5.541   2.349 -1.3311 -1.6803  0.6436
 7014TIP3   OH242600   6.390   3.837   8.528 -0.5897 -0.2475 -0.0121
 7014TIP3    H142601   6.332   3.763   8.514 -1.3334  0.4031 -0.4839
 7014TIP3    H242602   6.461   3.803   8.583 -0.1466 -1.6676 -1.4050
 7015TIP3   OH242603   3.421   3.009   0.285 -0.2819 -0.1049 -0.4529
 7015TIP3    H142604   3.463   2.980   0.366  1.9497 -0.0260 -1.5180
 7015TIP3    H242605   3.327   3.005   0.304  0.1491  1.2204  2.5798
 7016TIP3   OH242606   0.976   1.299   8.649 -0.4304  0.3288  0.4370
 7016TIP3    H142607   0.884   1.297   8.623 -0.2816 -1.5640 -0.0925
 7016TIP3    H242608   1.007   1.385   8.619 -1.2872 -0.1681 -2.1012
 7017TIP3   OH242609   0.829   6.564   6.899 -0.1156  0.2785 -0.1147
 7017TIP3    H142610   0.751   6.525   6.939 -0.3539  0.6537 -0.2075
 7017TIP3    H242611   0.830   6.654   6.930 -0.3109  0.5840 -0.9547
 7018TIP3   OH242612   1.658   4.691   7.085  0.0828  0.3535 -0.1478
 7018TIP3    H142613   1.608   4.609   7.084 -0.5244  0.6930  0.7871
 7018TIP3    H242614   1.749   4.663   7.089 -0.1478 -0.2798  1.0296
 7019TIP3   OH242615   5.785   0.932   7.251  0.7985 -0.2129  0.5413
 7019TIP3    H142616   5.764   0.944   7.159 -0.9730  1.1914  1.0543
 7019TIP3    H242617   5.880   0.925   7.254  1.1730  2.6736 -1.1539
 7020TIP3   OH242618   3.866   0.959   1.245  0.1117  0.1926 -0.3182
 7020TIP3    H142619   3.890   0.893   1.181 -0.9634 -0.9489  0.4272
 7020TIP3    H242620   3.779   0.988   1.219 -1.0287 -1.4236  1.4533
 7021TIP3   OH242621   3.355   1.552   1.352  0.7985 -0.0631  0.0719
 7021TIP3    H142622   3.271   1.597   1.358  1.5092  1.3602 -0.2294
 7021TIP3    H242623   3.360   1.500   1.431 -0.4753 -0.3649 -0.0249
 7022TIP3   OH242624   3.617   4.586   7.716  0.2332  0.3348 -0.6146
 7022TIP3    H142625   3.687   4.641   7.682 -0.2975  2.5239  1.5714
 7022TIP3    H242626   3.546   4.646   7.738  0.0269 -0.9453  2.9610
 7023TIP3   OH242627   0.417   1.403   1.361 -0.5704  0.2266  0.2129
 7023TIP3    H142628   0.336   1.436   1.399 -0.5547  1.2474 -0.5964
 7023TIP3    H242629   0.394   1.381   1.271  0.1690  1.0670 -0.1973
 7024TIP3   OH242630   1.774   2.977   0.253  0.2823 -0.4498  0.4396
 7024TIP3    H142631   1.689   3.002   0.289  0.3381  0.5126 -0.0672
 7024TIP3    H242632   1.785   3.033   0.177  0.3773 -2.1387 -0.8359
 7025TIP3   OH242633   4.599   3.229   7.037  0.2174 -0.0792 -0.2126
 7025TIP3    H142634   4.548   3.197   6.962 -0.6188 -0.4366  0.4854
 7025TIP3    H242635   4.681   3.259   6.999 -0.2885 -0.0138 -1.3113
 7026TIP3   OH242636   0.787   0.746   7.678 -0.0340 -0.1516  0.7168
 7026TIP3    H142637   0.788   0.695   7.759  0.4765 -0.8648  0.2744
 7026TIP3    H242638   0.830   0.689   7.613 -0.3998  0.4208 -0.0436
 7027TIP3   OH242639   5.263   3.355   7.410 -0.0116  0.2662 -0.3272
 7027TIP3    H142640   5.209   3.369   7.488  1.5494 -0.6704  0.9953
 7027TIP3    H242641   5.212   3.392   7.338 -1.8742  0.4309  1.0109
 7028TIP3   OH242642   5.073   0.786   8.265 -0.5978  0.3910  0.1532
 7028TIP3    H142643   5.116   0.728   8.202 -0.8021  1.6527 -1.2199
 7028TIP3    H242644   5.072   0.872   8.222 -0.7718  1.3165  1.8827
 7029TIP3   OH242645   0.170   4.826   1.747  0.2395  0.2148  0.3508
 7029TIP3    H142646   0.252   4.860   1.711  1.9295 -2.0356  1.8102
 7029TIP3    H242647   0.150   4.749   1.694 -1.2755  0.9955 -0.2976
 7030TIP3   OH242648   4.316   0.576   7.302  0.0241  0.1756 -0.5371
 7030TIP3    H142649   4.313   0.659   7.255 -0.1238  2.3730  3.0402
 7030TIP3    H242650   4.224   0.557   7.322  0.2105  0.2858  0.4590
 7031TIP3   OH242651   1.189   4.243   1.443  0.7021 -0.7713 -0.4570
 7031TIP3    H142652   1.218   4.325   1.482  1.6933 -1.3608  0.0905
 7031TIP3    H242653   1.268   4.204   1.406  0.2233 -1.4087 -0.8287
 7032TIP3   OH242654   6.317   2.945   7.633 -0.0036  0.0990  0.0607
 7032TIP3    H142655   6.386   2.908   7.579  0.9244 -1.2131  2.0248
 7032TIP3    H242656   6.270   2.869   7.668 -0.5949  0.8863  1.0477
 7033TIP3   OH242657   4.740   2.940   1.813 -0.4449 -0.7021  0.6884
 7033TIP3    H142658   4.669   3.004   1.819 -0.0077 -0.2130  0.6760
 7033TIP3    H242659   4.789   2.965   1.735 -0.6689 -1.4672  0.2949
 7034TIP3   OH242660   5.127   5.458   6.655  0.1601  0.4416  0.0795
 7034TIP3    H142661   5.091   5.413   6.732  0.0610  2.1978  1.1117
 7034TIP3    H242662   5.136   5.389   6.590 -4.9889 -0.2737 -0.3075
 7035TIP3   OH242663   5.491   2.400   7.161  0.2568  1.0583  0.2748
 7035TIP3    H142664   5.548   2.462   7.114  3.5088  0.1281  2.6236
 7035TIP3    H242665   5.480   2.328   7.099 -0.0143  2.0876 -0.9367
 7036TIP3   OH242666   4.414   5.537   1.247  0.3142  0.0361 -0.0773
 7036TIP3    H142667   4.450   5.560   1.162 -0.2860 -0.9413 -0.6170
 7036TIP3    H242668   4.419   5.441   1.250 -1.3783 -0.0847  0.1913
 7037TIP3   OH242669   0.275   1.448   8.133  0.5004  0.1785  0.3255
 7037TIP3    H142670   0.318   1.477   8.053  1.3691  1.2260  1.1354
 7037TIP3    H242671   0.347   1.418   8.190 -0.2150 -1.8907  0.2241
 7038TIP3   OH242672   2.048   5.496   6.699 -0.3135 -0.3899  0.3958
 7038TIP3    H142673   1.969   5.521   6.650 -1.5566 -2.0555  1.4629
 7038TIP3    H242674   2.099   5.444   6.637  0.9864  2.2725 -0.9440
 7039TIP3   OH242675   3.205   0.879   1.857 -0.0460  0.5632 -0.3444
 7039TIP3    H142676   3.185   0.879   1.950 -1.9609 -0.9650 -0.6763
 7039TIP3    H242677   3.179   0.966   1.826 -0.1748  0.7901  0.3909
 7040TIP3   OH242678   2.796   4.273   1.249 -0.6929  0.0422  0.4524
 7040TIP3    H142679   2.791   4.368   1.263 -1.1301  0.0742  0.1064
 7040TIP3    H242680   2.728   4.237   1.306 -1.1156  0.0139 -0.0539
 7041TIP3   OH242681   2.556   1.979   2.118 -0.3297  0.6772 -0.1708
 7041TIP3    H142682   2.639   2.023   2.136  0.3837 -1.2029  1.4797
 7041TIP3    H242683   2.490   2.034   2.160  0.1734  1.6585 -0.6294
 7042TIP3   OH242684   3.859   1.480   2.299 -0.4708 -0.8854  0.7373
 7042TIP3    H142685   3.893   1.570   2.292 -0.1331 -1.0896 -0.4359
 7042TIP3    H242686   3.935   1.425   2.280 -0.8450 -1.4118  0.7791
 7043TIP3   OH242687   3.217   3.079   6.718  0.7624  0.7822 -0.0247
 7043TIP3    H142688   3.191   2.998   6.674  1.0132  1.7718 -2.1189
 7043TIP3    H242689   3.135   3.125   6.734  0.7731  1.2802 -1.2868
 7044TIP3   OH242690   0.177   6.521   6.583  0.0527 -0.3750  0.2097
 7044TIP3    H142691   0.128   6.439   6.572 -1.1272  0.4120 -0.6541
 7044TIP3    H242692   0.116   6.589   6.554 -0.0297  1.1176  3.5001
 7045TIP3   OH242693   4.188   3.328   7.919 -0.6507  0.0584 -0.0115
 7045TIP3    H142694   4.095   3.348   7.932 -0.7507 -0.9438  0.9853
 7045TIP3    H242695   4.198   3.325   7.824 -1.4258  1.0723 -0.1517
 7046TIP3   OH242696   3.146   3.724   1.280 -0.2754  0.1431 -0.4363
 7046TIP3    H142697   3.073   3.715   1.342  0.1956 -1.5950 -0.0751
 7046TIP3    H242698   3.159   3.818   1.271 -1.4637  0.4521  0.7928
 7047TIP3   OH242699   0.659   2.185   1.891 -1.0159 -0.1930  0.0195
 7047TIP3    H142700   0.631   2.200   1.981  2.2796  0.2296  1.1008
 7047TIP3    H242701   0.722   2.114   1.896  2.4550  2.5064 -1.1397
 7048TIP3   OH242702   0.962   0.280   8.368 -0.7188  0.1078 -0.2102
 7048TIP3    H142703   0.887   0.286   8.308 -0.6376 -0.1715 -0.3406
 7048TIP3    H242704   0.936   0.213   8.431 -0.6000  0.0480 -0.2247
 7049TIP3   OH242705   4.923   6.461   0.505  0.2243 -0.0463  0.2182
 7049TIP3    H142706   4.904   6.543   0.460 -2.2143 -0.2377  0.7843
 7049TIP3    H242707   4.993   6.421   0.453  0.3255  1.6124 -1.0034
 7050TIP3   OH242708   4.244   4.777   1.203 -0.3450 -0.4767 -0.6811
 7050TIP3    H142709   4.280   4.847   1.256  1.4870 -1.0529 -1.0971
 7050TIP3    H242710   4.316   4.714   1.193 -0.6603 -0.5493 -3.5525
 7051TIP3   OH242711   5.504   2.316   8.580  0.6323  0.1548 -0.0410
 7051TIP3    H142712   5.419   2.349   8.549 -0.4645 -3.1950 -1.0270
 7051TIP3    H242713   5.560   2.321   8.502  0.3257 -0.6632 -0.3244
 7052TIP3   OH242714   4.361   2.383   0.367  0.2503  0.6254  0.3094
 7052TIP3    H142715   4.292   2.357   0.306 -2.2036  0.1272  3.0788
 7052TIP3    H242716   4.425   2.312   0.362 -1.2690 -0.8116  0.2695
 7053TIP3   OH242717   5.565   6.094   1.046 -0.0875  0.0626  0.0462
 7053TIP3    H142718   5.530   6.183   1.044 -0.7027 -0.0054  3.2183
 7053TIP3    H242719   5.659   6.105   1.059 -0.3695  0.3449  2.2305
 7054TIP3   OH242720   0.704   4.592   7.213  0.8248  0.1448  0.4201
 7054TIP3    H142721   0.708   4.499   7.234  1.8035  0.4663  1.7623
 7054TIP3    H242722   0.719   4.596   7.118 -1.3465 -1.1878 -0.0465
 7055TIP3   OH242723   1.747   5.208   8.686 -0.7436 -0.0743 -0.7221
 7055TIP3    H142724   1.693   5.145   8.638 -1.4913  0.0578 -0.0693
 7055TIP3    H242725   1.837   5.179   8.670 -1.0899 -2.8397  1.5620
 7056TIP3   OH242726   1.223   1.854   7.674 -0.3332 -0.2619  0.1262
 7056TIP3    H142727   1.232   1.883   7.765 -0.9354  1.1173 -0.2220
 7056TIP3    H242728   1.206   1.934   7.625 -1.0932 -1.1149 -1.0583
 7057TIP3   OH242729   4.448   2.512   7.869  0.6145  0.2326  0.2267
 7057TIP3    H142730   4.353   2.517   7.881  0.5731 -0.2539  0.1182
 7057TIP3    H242731   4.476   2.441   7.927  1.0091  0.8379  0.7897
 7058TIP3   OH242732   1.932   5.884   0.389  0.2408 -0.1627 -0.6374
 7058TIP3    H142733   1.967   5.864   0.302  0.6876  1.3290 -0.8303
 7058TIP3    H242734   1.840   5.907   0.373  0.7713  1.9199 -1.0319
 7059TIP3   OH242735   1.431   2.298   1.190 -0.0525 -0.5765  0.4752
 7059TIP3    H142736   1.403   2.377   1.235 -1.4687 -0.0864 -1.1340
 7059TIP3    H242737   1.381   2.298   1.108  1.0932 -2.3143 -0.2965
 7060TIP3   OH242738   5.518   5.956   6.754 -0.2736  0.1897 -0.1688
 7060TIP3    H142739   5.445   5.968   6.693 -1.2182  1.0063  1.0703
 7060TIP3    H242740   5.556   6.044   6.763 -0.9052  0.3328  1.3061
 7061TIP3   OH242741   4.343   1.025   2.163  0.2880  0.5846  0.3731
 7061TIP3    H142742   4.346   1.121   2.164 -0.0150  0.6097 -0.3432
 7061TIP3    H242743   4.251   1.004   2.176  0.2984  0.4048  0.1627
 7062TIP3   OH242744   5.646   4.280   0.352 -0.2218 -0.3445 -0.0457
 7062TIP3    H142745   5.656   4.355   0.293 -1.1668 -0.0661  0.1190
 7062TIP3    H242746   5.567   4.301   0.403 -1.1467 -1.9388 -0.7367
 7063TIP3   OH242747   4.225   6.559   7.869  0.2702 -0.1636 -0.5793
 7063TIP3    H142748   4.213   6.653   7.855 -0.3727 -0.0754  0.4441
 7063TIP3    H242749   4.137   6.522   7.863  0.4093 -0.5775 -0.1665
 7064TIP3   OH242750   0.007   4.422   0.006 -0.1090 -0.4589  0.5630
 7064TIP3    H142751   0.020   4.335   0.045 -1.2593 -0.4274  1.0593
 7064TIP3    H242752  -0.076   4.452   0.042 -0.0421  0.5848 -0.1122
 7065TIP3   OH242753   6.089   5.293   1.465  0.2706  0.2913 -0.4829
 7065TIP3    H142754   6.008   5.337   1.492  0.1152 -0.0684 -0.3579
 7065TIP3    H242755   6.063   5.241   1.389 -0.1603 -1.6026  0.8793
 7066TIP3   OH242756   0.264   6.841   7.046  0.4099 -0.2721 -0.1400
 7066TIP3    H142757   0.186   6.849   7.100  1.0456 -2.1364  1.1259
 7066TIP3    H242758   0.332   6.888   7.095  0.9103 -1.7050  0.6153
 7067TIP3   OH242759   6.249   3.572   1.442  0.5910 -0.0128  0.5011
 7067TIP3    H142760   6.255   3.623   1.523 -1.8489 -0.7900  1.2384
 7067TIP3    H242761   6.318   3.609   1.386  1.1442  1.7751  2.2410
 7068TIP3   OH242762   6.361   1.572   1.709  0.7013 -0.2747  0.1278
 7068TIP3    H142763   6.389   1.663   1.696 -1.5000  0.5188  0.4343
 7068TIP3    H242764   6.336   1.568   1.802 -3.2575  0.1371 -0.7495
 7069TIP3   OH242765   3.462   6.060   1.525 -0.2607  0.3699 -0.2404
 7069TIP3    H142766   3.493   6.050   1.615 -0.4220 -0.0456 -0.2283
 7069TIP3    H242767   3.495   5.983   1.479  0.7135  1.1048 -0.7952
 7070TIP3   OH242768   5.283   0.740   7.644  1.1403 -0.2545 -0.6817
 7070TIP3    H142769   5.307   0.816   7.696  0.7930 -0.4688 -0.2100
 7070TIP3    H242770   5.338   0.669   7.678 -0.4751 -0.8832  0.7653
 7071TIP3   OH242771   4.828   3.853   7.013 -0.1611  0.0193 -0.3343
 7071TIP3    H142772   4.812   3.925   6.952 -0.5276  0.4030  0.2050
 7071TIP3    H242773   4.923   3.847   7.019 -0.0696 -1.2018 -2.3151
 7072TIP3   OH242774   6.515   4.909   6.217 -0.4137 -0.6485  0.3064
 7072TIP3    H142775   6.596   4.933   6.264 -1.0408  0.4682  0.8578
 7072TIP3    H242776   6.516   4.813   6.216  1.0757 -0.6588  0.0153
 7073LIG     C142777   0.279   3.471   5.892  0.4818 -0.1840  0.0697
 7073LIG     C242778   0.389   3.381   5.942  0.6234  0.3452 -0.3116
 7073LIG     C342779   0.336   3.243   5.966 -0.1932  0.1573  0.2734
 7073LIG      O42780   0.452   3.438   6.051 -0.2178  0.4974  0.0878
 7073LIG     H142781   0.209   3.500   5.974 -2.5719  0.1497 -2.4690
 7073LIG     H242782   0.209   3.426   5.820  1.1452  0.8995 -1.3005
 7073LIG     H342783   0.323   3.569   5.863 -1.8340  1.8114  2.6766
 7073LIG     H442784   0.460   3.375   5.857 -0.1039  0.9620 -0.9749
 7073LIG     H542785   0.287   3.196   5.878  0.1172  1.2765 -0.5175
 7073LIG     H642786   0.259   3.249   6.046 -0.5866 -1.0778  0.0062
 7073LIG     H742787   0.424   3.184   6.003  1.3186  2.4260  0.4938
 7073LIG     H842788   0.505   3.369   6.093 -0.5347  0.6209  0.7130
   6.84837   6.84837   8.71941
