Title
42788
    1SAPS     N    1   1.004   1.272   6.785  0.0562 -0.3961  0.4783
    1SAPS   HN1    2   0.986   1.292   6.684  0.9482 -0.7465  0.2313
    1SAPS   HN2    3   0.924   1.308   6.841  0.2021 -0.4189  0.7018
    1SAPS   HN3    4   1.088   1.328   6.812 -0.4718  0.4784  0.3330
    1SAPS   C12    5   1.025   1.128   6.813 -0.7899  0.4738 -0.1988
    1SAPS  H12A    6   1.122   1.102   6.773 -0.0530  0.8348  1.2762
    1SAPS   C13    7   1.042   1.079   6.960  0.0481  0.2722 -1.5991
    1SAPS  O13A    8   1.046   1.161   7.058  0.4582  0.7388 -0.3459
    1SAPS  O13B    9   1.062   0.955   6.985  0.7707 -0.2560 -0.1026
    1SAPS   C11   10   0.918   1.053   6.736  0.2664  0.1511  0.3138
    1SAPS  H11A   11   0.819   1.085   6.775 -0.4655 -1.2373 -0.3481
    1SAPS  H11B   12   0.909   0.943   6.753 -0.3315  0.0940 -0.3179
    1SAPS     P   13   0.802   1.070   6.496  0.4529  0.0798 -0.2171
    1SAPS   O13   14   0.707   0.971   6.555 -0.2905 -0.2565 -0.1970
    1SAPS   O14   15   0.742   1.203   6.463 -0.0065  0.5239 -0.1259
    1SAPS   O12   16   0.927   1.080   6.594 -0.0498  0.2555 -0.1279
    1SAPS   O11   17   0.882   1.003   6.374 -0.2572  0.2663 -0.1639
    1SAPS    C1   18   0.984   1.088   6.314 -0.0238 -0.8101  0.2715
    1SAPS    HA   19   1.033   1.163   6.379 -0.9864  0.1104 -0.0405
    1SAPS    HB   20   1.065   1.032   6.262  0.4366 -0.0692  0.1747
    1SAPS    C2   21   0.927   1.169   6.191 -0.6957  0.0198 -0.4560
    1SAPS    HS   22   0.831   1.220   6.214 -0.0407 -0.1733  3.3173
    1SAPS   O21   23   0.913   1.085   6.075  0.2142  0.1084  0.4782
    1SAPS   C21   24   0.797   1.028   6.073  0.2440 -0.0893  1.0638
    1SAPS   O22   25   0.717   1.018   6.159  0.7539  0.5814 -0.1708
    1SAPS   C22   26   0.779   0.976   5.932 -0.2931  0.4747  0.9891
    1SAPS   H2R   27   0.811   1.049   5.854 -3.1713 -0.6910 -1.4935
    1SAPS   H2S   28   0.830   0.881   5.908 -0.1880  1.2374 -2.2043
    1SAPS    C3   29   1.034   1.282   6.156  0.1248 -0.4172 -0.3828
    1SAPS    HX   30   1.037   1.353   6.242 -0.1625 -0.6180 -0.2073
    1SAPS    HY   31   0.989   1.336   6.069 -0.7776 -1.5373 -0.6360
    1SAPS   O31   32   1.165   1.225   6.129 -0.4944  0.2293 -0.4258
    1SAPS   C31   33   1.255   1.324   6.110  0.3857 -0.0778  0.6116
    1SAPS   O32   34   1.229   1.441   6.120  0.0708  0.1788  0.5408
    1SAPS   C32   35   1.396   1.267   6.083  0.2755 -0.9974 -0.7347
    1SAPS   H2X   36   1.390   1.156   6.088  0.3868 -0.9730  0.0125
    1SAPS   H2Y   37   1.467   1.299   6.162 -1.0873  0.8596 -0.1743
    1SAPS   C23   38   0.626   0.956   5.906 -0.3392  0.4296  0.1373
    1SAPS   H3R   39   0.575   1.054   5.924 -1.9862 -0.6756  1.8374
    1SAPS   H3S   40   0.585   0.898   5.991  1.7248  1.6133  2.0298
    1SAPS   C24   41   0.588   0.903   5.768  0.3772 -0.4523  0.2701
    1SAPS   H4R   42   0.479   0.919   5.751  0.8002  1.0323 -1.3738
    1SAPS   H4S   43   0.604   0.793   5.768 -0.8423 -0.6538  0.8068
    1SAPS   C25   44   0.647   0.978   5.653 -0.2257 -0.4820  0.7991
    1SAPS   H5R   45   0.645   1.086   5.674  0.2154 -0.3934  0.4042
    1SAPS   C26   46   0.688   0.936   5.532  0.4204  0.5122  0.5971
    1SAPS   H6R   47   0.754   1.000   5.470  0.8922  0.9067  1.4886
    1SAPS   C27   48   0.692   0.793   5.491  0.5554  0.1309  0.2600
    1SAPS   H7R   49   0.690   0.716   5.570 -2.2672  1.1582  1.2958
    1SAPS   H7S   50   0.792   0.778   5.445  0.2594  1.3142 -0.8585
    1SAPS   C28   51   0.596   0.757   5.380  0.2988  0.0288 -0.1629
    1SAPS   H8R   52   0.536   0.841   5.342  1.8388  1.6873  0.8998
    1SAPS   C29   53   0.582   0.640   5.313 -0.4379 -0.4178 -0.6177
    1SAPS   H9R   54   0.494   0.625   5.248 -2.2334 -0.9855  1.7543
    1SAPS  C210   55   0.670   0.520   5.328  0.1505  0.0819 -0.2664
    1SAPS  H10R   56   0.613   0.429   5.357 -2.7739  1.7097 -0.4852
    1SAPS  H10S   57   0.760   0.522   5.392 -0.5747  0.2549  0.7690
    1SAPS  C211   58   0.729   0.489   5.199 -0.3430  0.1953  0.5188
    1SAPS  H11R   59   0.832   0.525   5.186 -0.7782  1.3353  0.1584
    1SAPS  C212   60   0.676   0.402   5.104  0.2570 -0.1445  0.1874
    1SAPS  H12R   61   0.732   0.367   5.015 -1.9205 -0.2812 -1.2227
    1SAPS  C213   62   0.543   0.329   5.120  1.1194 -0.6099 -0.4210
    1SAPS  H13R   63   0.462   0.391   5.163  1.6583  0.7735 -1.3208
    1SAPS  H13S   64   0.555   0.259   5.205  1.6869  1.3655  1.2123
    1SAPS  C214   65   0.498   0.248   4.995  0.2775 -0.4585 -0.0994
    1SAPS  H14R   66   0.499   0.139   5.010 -0.3139 -0.9862 -3.2346
    1SAPS  C215   67   0.427   0.288   4.889  0.3510  0.1638 -0.0022
    1SAPS  H15R   68   0.409   0.219   4.805 -1.8125  1.6502 -0.8427
    1SAPS  C216   69   0.391   0.431   4.861  0.1966 -0.0716 -0.2570
    1SAPS  H16R   70   0.431   0.499   4.938  0.2058 -0.0624 -0.2699
    1SAPS  H16S   71   0.282   0.451   4.875  0.2768  0.8798 -0.8321
    1SAPS  C217   72   0.424   0.500   4.722 -0.0666 -1.4530 -0.4065
    1SAPS  H17R   73   0.535   0.503   4.719  0.0051 -2.0301  0.9824
    1SAPS  H17S   74   0.386   0.605   4.726  0.7400 -1.1364 -0.7776
    1SAPS  C218   75   0.357   0.419   4.607  0.4248 -0.1532  0.2733
    1SAPS  H18R   76   0.248   0.408   4.625  0.3410 -1.4951 -0.8367
    1SAPS  H18S   77   0.393   0.317   4.632 -2.9371 -1.3012  0.9411
    1SAPS  C219   78   0.388   0.451   4.463 -0.6172 -0.0307  0.7215
    1SAPS  H19R   79   0.348   0.368   4.400 -1.9804  0.5205  0.8231
    1SAPS  H19S   80   0.499   0.450   4.457 -0.3536  1.6909  3.6042
    1SAPS  C220   81   0.345   0.596   4.416 -0.5101 -0.2221 -0.4918
    1SAPS  H20R   82   0.379   0.613   4.311 -2.2768 -0.0294 -1.0750
    1SAPS  H20S   83   0.384   0.674   4.484 -0.9200 -1.9004  1.7741
    1SAPS  H20T   84   0.235   0.610   4.414 -0.9630 -3.2735 -0.9374
    1SAPS   C33   85   1.450   1.294   5.940 -0.3051 -0.6438  0.1675
    1SAPS   H3X   86   1.557   1.263   5.936 -0.3181 -0.5695 -0.8802
    1SAPS   H3Y   87   1.462   1.404   5.928 -0.8143 -0.6467 -0.3905
    1SAPS   C34   88   1.377   1.209   5.833  0.6803 -0.0352 -0.0396
    1SAPS   H4X   89   1.270   1.236   5.818  1.0577  1.0140 -1.0110
    1SAPS   H4Y   90   1.378   1.104   5.868  1.9432 -0.6340 -1.7981
    1SAPS   C35   91   1.441   1.211   5.692 -0.2868  0.8243  0.4744
    1SAPS   H5X   92   1.410   1.129   5.624  0.1935  0.6578  0.4514
    1SAPS   H5Y   93   1.550   1.188   5.701 -0.2611  0.8206  0.1777
    1SAPS   C36   94   1.413   1.343   5.620  0.0412  0.2655  0.4797
    1SAPS   H6X   95   1.457   1.431   5.672 -0.0323  0.4698  0.2058
    1SAPS   H6Y   96   1.304   1.359   5.605  0.0940  0.0782 -0.1148
    1SAPS   C37   97   1.468   1.345   5.474 -0.2940  0.4961 -0.1820
    1SAPS   H7X   98   1.559   1.281   5.467  0.9535  1.8019  2.6151
    1SAPS   H7Y   99   1.507   1.446   5.451  0.5565  0.2011 -0.0895
    1SAPS   C38  100   1.368   1.308   5.373 -0.2140  0.2068 -0.3043
    1SAPS   H8X  101   1.300   1.396   5.367  0.1045  0.4514 -0.2922
    1SAPS   H8Y  102   1.298   1.229   5.409  0.2556  0.0865  0.3594
    1SAPS   C39  103   1.413   1.275   5.237  0.6308  1.0224  0.4502
    1SAPS   H9X  104   1.457   1.173   5.244 -0.0139  0.7723  0.9770
    1SAPS   H9Y  105   1.479   1.356   5.199  0.6452  2.8166  3.8821
    1SAPS  C310  106   1.299   1.260   5.135  0.3663 -0.6131 -0.4655
    1SAPS  H10X  107   1.226   1.339   5.164 -1.2827 -1.7393 -1.3475
    1SAPS  H10Y  108   1.261   1.156   5.144 -0.6903 -0.3135 -1.2860
    1SAPS  C311  109   1.338   1.282   4.988  0.4725 -0.2624 -0.1396
    1SAPS  H11X  110   1.391   1.379   4.976 -0.6075  0.2955 -0.4715
    1SAPS  H11Y  111   1.245   1.282   4.927  0.6684 -1.7177 -0.4873
    1SAPS  C312  112   1.431   1.185   4.925  0.1349  0.7473 -0.0971
    1SAPS  H12X  113   1.385   1.084   4.927  1.6359  0.0257  1.6595
    1SAPS  H12Y  114   1.526   1.176   4.982 -1.1695 -0.2499  2.0376
    1SAPS  C313  115   1.454   1.220   4.775 -0.0681  0.6039  0.1504
    1SAPS  H13X  116   1.508   1.317   4.779 -0.4125  0.8557 -0.9089
    1SAPS  H13Y  117   1.360   1.228   4.717  0.4327 -2.8017 -1.3805
    1SAPS  C314  118   1.538   1.114   4.702  0.6438 -0.2810  0.8319
    1SAPS  H14X  119   1.483   1.018   4.713  2.4548 -1.3550  0.8640
    1SAPS  H14Y  120   1.641   1.100   4.740  0.3531 -0.3214  1.6120
    1SAPS  C315  121   1.561   1.151   4.558 -0.2981  0.0603 -0.5868
    1SAPS  H15X  122   1.624   1.242   4.547 -0.4657  0.2437 -0.0267
    1SAPS  H15Y  123   1.462   1.164   4.508  0.3543 -0.3913 -2.0687
    1SAPS  C316  124   1.622   1.022   4.495 -0.4426 -0.1855  0.1943
    1SAPS  H16X  125   1.568   0.935   4.537  1.1002 -1.0431  0.4957
    1SAPS  H16Y  126   1.729   1.013   4.525 -1.3290 -0.1776  3.8040
    1SAPS  C317  127   1.600   1.011   4.344 -0.0560  0.1692  1.0406
    1SAPS  H17X  128   1.492   1.017   4.318  0.1802  0.2904  0.0843
    1SAPS  H17Y  129   1.627   0.916   4.294 -1.7792 -1.0268  2.2582
    1SAPS  C318  130   1.682   1.121   4.272 -0.7043  0.2847 -0.1412
    1SAPS  H18X  131   1.656   1.216   4.324  0.3210  0.5203 -0.0349
    1SAPS  H18Y  132   1.665   1.119   4.163 -1.4122 -3.6388 -0.1097
    1SAPS  H18Z  133   1.788   1.108   4.305 -1.1606  1.1169  1.7776
    2SAPS     N  134   0.735   2.906   6.584  0.5215 -0.0611 -0.8051
    2SAPS   HN1  135   0.756   2.929   6.485 -1.4930  1.2544 -0.9824
    2SAPS   HN2  136   0.696   2.991   6.630  1.3656  0.0098 -0.1944
    2SAPS   HN3  137   0.822   2.882   6.634 -0.2003 -0.7243  0.1645
    2SAPS   C12  138   0.634   2.804   6.603  0.0034  0.5492  0.2186
    2SAPS  H12A  139   0.679   2.707   6.586  0.6855  1.0920 -1.2856
    2SAPS   C13  140   0.563   2.801   6.742  0.2508 -0.4907 -0.7351
    2SAPS  O13A  141   0.567   2.900   6.821 -0.0290  0.4770 -0.4355
    2SAPS  O13B  142   0.488   2.705   6.766 -0.0114 -0.0297 -0.3066
    2SAPS   C11  143   0.517   2.825   6.500  0.6694  0.0323  0.1872
    2SAPS  H11A  144   0.456   2.913   6.531 -0.5666 -1.0184  0.8490
    2SAPS  H11B  145   0.445   2.742   6.515 -0.4119  1.2296  2.0111
    2SAPS     P  146   0.489   2.937   6.266  0.2465 -0.0620 -0.1302
    2SAPS   O13  147   0.456   3.068   6.328  0.3511  0.1246  0.0885
    2SAPS   O14  148   0.556   2.941   6.134 -0.1197  0.0598  0.4588
    2SAPS   O12  149   0.565   2.850   6.372 -0.0187  0.2066  0.4335
    2SAPS   O11  150   0.343   2.871   6.261  0.2544 -0.0340 -0.2475
    2SAPS    C1  151   0.327   2.725   6.251 -0.0763  0.0782 -0.7597
    2SAPS    HA  152   0.407   2.665   6.300 -0.1795  2.5168  2.7990
    2SAPS    HB  153   0.231   2.695   6.298  0.5200  1.3936  1.4883
    2SAPS    C2  154   0.320   2.669   6.106 -1.0552 -0.6688  0.4533
    2SAPS    HS  155   0.272   2.569   6.105 -1.8217 -0.3638 -2.8415
    2SAPS   O21  156   0.446   2.670   6.044  0.0849  0.0515 -0.3282
    2SAPS   C21  157   0.536   2.596   6.088 -0.1254 -0.0362 -0.4450
    2SAPS   O22  158   0.528   2.513   6.173  0.6382  0.2994  0.6996
    2SAPS   C22  159   0.663   2.630   6.018 -0.0632  0.0390  0.4471
    2SAPS   H2R  160   0.657   2.603   5.911 -0.3722 -0.6715  0.6386
    2SAPS   H2S  161   0.681   2.740   6.026 -2.6272  0.5690 -0.2422
    2SAPS    C3  162   0.230   2.755   6.010 -0.1881 -0.8656  0.2448
    2SAPS    HX  163   0.270   2.853   6.043  1.4001 -1.8236  1.3292
    2SAPS    HY  164   0.122   2.750   6.038 -1.0040  0.0319 -2.4784
    2SAPS   O31  165   0.255   2.738   5.870  0.3092 -0.3612  0.3680
    2SAPS   C31  166   0.182   2.645   5.819 -0.4755  0.1343 -0.4767
    2SAPS   O32  167   0.105   2.575   5.878  0.2947 -0.0227 -0.2087
    2SAPS   C32  168   0.190   2.648   5.667 -0.0234 -0.5996 -1.0566
    2SAPS   H2X  169   0.167   2.549   5.622  0.8078  0.2582 -3.5564
    2SAPS   H2Y  170   0.294   2.669   5.635 -0.1047 -0.2882 -1.1173
    2SAPS   C23  171   0.792   2.561   6.078 -0.3688 -0.2732  0.4304
    2SAPS   H3R  172   0.780   2.451   6.088  0.5972 -0.4424 -0.1308
    2SAPS   H3S  173   0.827   2.573   6.183 -1.8220 -1.5358  1.0886
    2SAPS   C24  174   0.925   2.596   6.000  0.3699  0.2316 -0.6857
    2SAPS   H4R  175   0.905   2.575   5.893 -2.4697  0.1384 -0.2096
    2SAPS   H4S  176   0.992   2.515   6.037  0.4993  0.2442 -0.8898
    2SAPS   C25  177   0.981   2.734   6.015 -0.1782 -0.6657  0.1177
    2SAPS   H5R  178   1.019   2.759   6.115 -2.5303 -0.5450  1.0534
    2SAPS   C26  179   0.998   2.818   5.908  0.1131 -0.4594  0.5447
    2SAPS   H6R  180   1.051   2.914   5.916 -0.5196  0.2574 -2.7398
    2SAPS   C27  181   0.954   2.799   5.767 -0.3050  0.5625 -0.4531
    2SAPS   H7R  182   0.987   2.700   5.729 -0.9017  0.0544  0.3147
    2SAPS   H7S  183   1.007   2.860   5.692  0.4503 -0.3104 -0.6497
    2SAPS   C28  184   0.807   2.826   5.750 -0.3323  0.5566 -0.8588
    2SAPS   H8R  185   0.769   2.883   5.835  0.2031 -0.8123  0.3523
    2SAPS   C29  186   0.725   2.771   5.655 -0.8582 -0.8279 -0.0135
    2SAPS   H9R  187   0.624   2.813   5.647 -0.7457 -0.7573 -1.1878
    2SAPS  C210  188   0.781   2.720   5.518  0.3828  0.2818 -0.4021
    2SAPS  H10R  189   0.845   2.634   5.547 -1.4345 -0.8497  0.4004
    2SAPS  H10S  190   0.848   2.800   5.481  1.7092  1.6417  4.1736
    2SAPS  C211  191   0.680   2.658   5.420  0.0348  0.0199  0.2218
    2SAPS  H11R  192   0.584   2.712   5.431  0.2186  0.2402  0.8033
    2SAPS  C212  193   0.704   2.576   5.312 -0.5558 -0.0590 -0.6445
    2SAPS  H12R  194   0.633   2.552   5.232  1.6068  3.0396 -3.8155
    2SAPS  C213  195   0.839   2.516   5.286 -0.5345 -0.1970  0.7298
    2SAPS  H13R  196   0.824   2.417   5.238 -0.1407 -1.3074  2.7778
    2SAPS  H13S  197   0.890   2.489   5.381  0.4382 -1.3457 -0.0897
    2SAPS  C214  198   0.935   2.611   5.215 -0.0488 -0.3508  0.2681
    2SAPS  H14R  199   0.996   2.671   5.284  0.8924  0.6502 -1.4016
    2SAPS  C215  200   0.954   2.632   5.089 -0.1413  0.7533  0.0090
    2SAPS  H15R  201   1.031   2.692   5.039  0.9232 -1.9284 -1.8159
    2SAPS  C216  202   0.871   2.552   4.986 -0.0358 -0.4113  0.2368
    2SAPS  H16R  203   0.762   2.539   5.005 -0.1584 -0.2561 -0.3418
    2SAPS  H16S  204   0.912   2.450   4.972 -0.9787 -0.6841 -0.6836
    2SAPS  C217  205   0.877   2.615   4.844  0.0373 -0.5243  0.0373
    2SAPS  H17R  206   0.969   2.676   4.829  0.6685 -1.1372  1.2891
    2SAPS  H17S  207   0.785   2.674   4.828  0.3138  0.0584  0.5328
    2SAPS  C218  208   0.872   2.503   4.739  0.6333  0.8452  0.2314
    2SAPS  H18R  209   0.769   2.461   4.731 -0.2845  2.8507  0.9354
    2SAPS  H18S  210   0.947   2.428   4.772  2.6718  1.9836 -1.5503
    2SAPS  C219  211   0.914   2.546   4.598  0.6579 -0.3775  0.0486
    2SAPS  H19R  212   0.999   2.616   4.616  0.9883 -0.4446 -1.1179
    2SAPS  H19S  213   0.833   2.603   4.547 -0.4937  0.5910  2.8056
    2SAPS  C220  214   0.968   2.432   4.511  0.1631  0.1918 -0.4460
    2SAPS  H20R  215   0.905   2.341   4.513 -0.8807  0.7832  3.7632
    2SAPS  H20S  216   1.076   2.416   4.530  0.1778 -1.7231 -1.8496
    2SAPS  H20T  217   0.966   2.459   4.403  0.9804  1.4392 -0.1798
    2SAPS   C33  218   0.092   2.757   5.608 -0.3661  0.0390  0.5402
    2SAPS   H3X  219  -0.007   2.731   5.654 -1.2548  1.0299 -0.7440
    2SAPS   H3Y  220   0.087   2.743   5.498  0.0407  1.6456  0.2975
    2SAPS   C34  221   0.133   2.895   5.644  0.0320  0.3854  0.0063
    2SAPS   H4X  222   0.151   2.902   5.754  0.1754 -1.9235  0.1754
    2SAPS   H4Y  223   0.050   2.968   5.640 -1.0196 -0.5862  2.2347
    2SAPS   C35  224   0.251   2.952   5.563 -0.0415 -0.2308 -0.2861
    2SAPS   H5X  225   0.342   2.890   5.572  0.3216  0.4270  0.8086
    2SAPS   H5Y  226   0.293   3.047   5.601  0.1003  0.1032 -1.2627
    2SAPS   C36  227   0.213   2.969   5.412 -0.4639 -0.0614 -0.1824
    2SAPS   H6X  228   0.115   3.023   5.410 -0.5198 -0.1227  0.6712
    2SAPS   H6Y  229   0.189   2.866   5.379 -2.4861  0.2981  0.0491
    2SAPS   C37  230   0.316   3.039   5.318 -0.0586 -0.0807 -0.1713
    2SAPS   H7X  231   0.410   2.978   5.315 -0.3539 -0.5891  0.5931
    2SAPS   H7Y  232   0.338   3.136   5.368 -0.1617 -0.9572  1.6879
    2SAPS   C38  233   0.261   3.065   5.173  0.0415 -0.0431  0.2279
    2SAPS   H8X  234   0.162   3.112   5.189 -0.4099 -0.5011 -1.1507
    2SAPS   H8Y  235   0.241   2.962   5.137 -0.2102  0.8189 -2.2603
    2SAPS   C39  236   0.377   3.143   5.086  0.6174 -0.0659 -0.2303
    2SAPS   H9X  237   0.464   3.076   5.070 -0.9285 -2.1644 -0.2089
    2SAPS   H9Y  238   0.408   3.225   5.154 -1.2335 -1.0495  1.9064
    2SAPS  C310  239   0.325   3.213   4.963  0.6968  0.0894  0.2072
    2SAPS  H10X  240   0.405   3.264   4.905 -0.0552  2.4402  1.1111
    2SAPS  H10Y  241   0.253   3.292   4.995 -1.2384 -2.3796  2.4578
    2SAPS  C311  242   0.249   3.117   4.870  0.1392  0.2285  0.6069
    2SAPS  H11X  243   0.208   3.181   4.789  1.8892 -0.2944 -0.7359
    2SAPS  H11Y  244   0.159   3.070   4.914 -1.9876  2.3734 -1.1533
    2SAPS  C312  245   0.346   3.021   4.802 -0.0883 -0.4718 -0.9510
    2SAPS  H12X  246   0.401   2.956   4.874 -1.1713 -3.2161 -2.4510
    2SAPS  H12Y  247   0.416   3.084   4.743 -0.1981 -0.4541 -1.0611
    2SAPS  C313  248   0.287   2.923   4.714 -0.1721  0.6104  0.7052
    2SAPS  H13X  249   0.214   2.969   4.645 -1.0445 -0.9040  0.5806
    2SAPS  H13Y  250   0.224   2.849   4.768  0.1572 -1.2647 -1.3550
    2SAPS  C314  251   0.382   2.844   4.622  0.1115 -0.2798 -0.5181
    2SAPS  H14X  252   0.455   2.909   4.569 -0.5481  0.9962  0.1080
    2SAPS  H14Y  253   0.326   2.785   4.546 -0.2794  0.3274 -0.7100
    2SAPS  C315  254   0.473   2.750   4.706  0.1152  0.8504 -0.0638
    2SAPS  H15X  255   0.514   2.798   4.798 -1.7626 -0.7159  1.6834
    2SAPS  H15Y  256   0.565   2.721   4.651 -1.1361 -1.7417 -0.9249
    2SAPS  C316  257   0.403   2.622   4.769 -0.1185 -0.3304  1.0926
    2SAPS  H16X  258   0.350   2.563   4.692  0.2128 -1.3698  1.6425
    2SAPS  H16Y  259   0.325   2.666   4.835 -1.7077 -3.3712  1.3876
    2SAPS  C317  260   0.490   2.529   4.845  0.1599 -0.1312  0.8158
    2SAPS  H17X  261   0.594   2.567   4.847 -0.0959  0.5658  1.9826
    2SAPS  H17Y  262   0.492   2.431   4.792  0.2897 -0.1293  0.8169
    2SAPS  C318  263   0.449   2.493   4.989 -0.3348  0.2025 -0.0377
    2SAPS  H18X  264   0.422   2.590   5.037 -1.9476 -0.1947 -0.0907
    2SAPS  H18Y  265   0.537   2.447   5.040 -2.5934 -3.7764  0.7508
    2SAPS  H18Z  266   0.368   2.416   4.994  0.9330 -1.5525 -3.4041
    3SAPS     N  267   0.634   1.996   6.476 -0.5199  0.1175 -0.0650
    3SAPS   HN1  268   0.565   2.038   6.410 -0.0116  0.0026 -0.6689
    3SAPS   HN2  269   0.691   2.073   6.515 -0.3051  0.1874 -0.5124
    3SAPS   HN3  270   0.695   1.934   6.419 -2.6272 -2.7920  0.5375
    3SAPS   C12  271   0.568   1.928   6.590 -0.2252 -0.0472  0.3304
    3SAPS  H12A  272   0.482   1.873   6.556  2.3567 -3.2001 -1.7647
    3SAPS   C13  273   0.668   1.833   6.673 -0.2062  0.3125  1.0573
    3SAPS  O13A  274   0.791   1.836   6.646 -0.9203  0.1757  0.1348
    3SAPS  O13B  275   0.616   1.762   6.758 -0.0775  0.2456  0.4314
    3SAPS   C11  276   0.513   2.043   6.683 -0.0038 -0.0830  0.5353
    3SAPS  H11A  277   0.593   2.107   6.724  0.0603 -0.6601  1.3350
    3SAPS  H11B  278   0.476   1.987   6.771 -0.9737 -0.3018  0.0083
    3SAPS     P  279   0.271   2.155   6.692 -0.5461  0.2168  0.0222
    3SAPS   O13  280   0.219   2.042   6.766 -0.2229  0.1204  0.4202
    3SAPS   O14  281   0.293   2.285   6.757  0.0720  0.1571  0.3802
    3SAPS   O12  282   0.406   2.119   6.621 -0.0589 -0.3781  0.4735
    3SAPS   O11  283   0.180   2.179   6.564 -0.0347  0.1798 -0.0001
    3SAPS    C1  284   0.131   2.066   6.481  0.1010 -0.2043  1.0344
    3SAPS    HA  285   0.092   1.980   6.539 -0.6356 -0.3723  0.2990
    3SAPS    HB  286   0.054   2.108   6.413  3.2279  0.3726 -2.4860
    3SAPS    C2  287   0.234   2.000   6.388  0.1276  0.6212  0.2976
    3SAPS    HS  288   0.331   1.994   6.442 -1.6779  1.8011  3.9935
    3SAPS   O21  289   0.250   2.071   6.266  0.4811  0.0161 -0.1267
    3SAPS   C21  290   0.360   2.132   6.240 -0.7253  0.3853 -0.3121
    3SAPS   O22  291   0.463   2.112   6.304  0.0775  0.1882  0.4838
    3SAPS   C22  292   0.351   2.223   6.132  0.4715  0.0492  0.8187
    3SAPS   H2R  293   0.284   2.305   6.165  0.7468  0.7278 -0.2496
    3SAPS   H2S  294   0.454   2.253   6.102  0.0484  0.7446  0.0403
    3SAPS    C3  295   0.192   1.850   6.348 -0.6274  0.0103  0.7744
    3SAPS    HX  296   0.082   1.858   6.359 -0.8974 -1.2656 -0.6357
    3SAPS    HY  297   0.210   1.776   6.428 -3.0687 -1.1471  0.3324
    3SAPS   O31  298   0.228   1.811   6.215 -0.6842 -0.2563 -0.1245
    3SAPS   C31  299   0.352   1.757   6.204 -0.1883  0.2427  0.4404
    3SAPS   O32  300   0.431   1.739   6.296  0.3634  0.1175  0.3762
    3SAPS   C32  301   0.378   1.715   6.056 -0.4459 -0.3750 -0.1035
    3SAPS   H2X  302   0.316   1.782   5.993  0.2818  0.3717 -0.0411
    3SAPS   H2Y  303   0.344   1.609   6.051  0.4810 -0.6691 -0.4762
    3SAPS   C23  304   0.284   2.159   6.006 -0.4339 -0.4977 -1.1408
    3SAPS   H3R  305   0.188   2.109   6.033 -2.7557  2.9709 -2.3252
    3SAPS   H3S  306   0.351   2.080   5.965  2.0023  0.3871  0.8628
    3SAPS   C24  307   0.240   2.253   5.892  0.0822  0.6802 -0.0399
    3SAPS   H4R  308   0.146   2.300   5.929  0.2530  0.2861  0.9275
    3SAPS   H4S  309   0.219   2.194   5.800  0.7689  0.7300 -0.2300
    3SAPS   C25  310   0.349   2.354   5.861 -0.2810 -0.6688 -0.0299
    3SAPS   H5R  311   0.396   2.411   5.943 -2.2068 -0.6561  1.1338
    3SAPS   C26  312   0.416   2.374   5.743  0.1425  0.2337  0.6896
    3SAPS   H6R  313   0.501   2.442   5.735 -0.3162  0.8975  1.3475
    3SAPS   C27  314   0.375   2.304   5.612 -0.0691  0.4546 -0.0716
    3SAPS   H7R  315   0.272   2.330   5.580 -0.6067 -0.1432  1.0884
    3SAPS   H7S  316   0.359   2.195   5.630 -1.1342  0.1119 -2.5877
    3SAPS   C28  317   0.464   2.338   5.494  0.1374 -0.4525  0.2902
    3SAPS   H8R  318   0.554   2.399   5.508  0.6399 -0.8988 -0.8666
    3SAPS   C29  319   0.432   2.313   5.361  0.8231 -0.4806  0.3303
    3SAPS   H9R  320   0.499   2.350   5.282 -0.5040  0.6045 -0.3358
    3SAPS  C210  321   0.302   2.248   5.315  0.2458  0.4342 -0.1122
    3SAPS  H10R  322   0.266   2.283   5.216  0.3094 -0.3137 -0.4027
    3SAPS  H10S  323   0.214   2.286   5.370  0.8614  1.1453  0.4115
    3SAPS  C211  324   0.300   2.097   5.319  0.0610  0.0116  0.4959
    3SAPS  H11R  325   0.239   2.061   5.403 -0.0222 -2.5543 -0.5815
    3SAPS  C212  326   0.379   2.009   5.249 -0.2686 -0.2835 -0.0660
    3SAPS  H12R  327   0.354   1.903   5.259  0.6549 -0.3469  1.9509
    3SAPS  C213  328   0.459   2.051   5.126 -0.3059  0.7532  0.0649
    3SAPS  H13R  329   0.427   2.151   5.088 -0.3007  0.7966  0.1736
    3SAPS  H13S  330   0.435   1.985   5.041 -1.8385  2.3725 -0.8344
    3SAPS  C214  331   0.599   2.059   5.147  0.3175  0.6461  0.5652
    3SAPS  H14R  332   0.644   2.013   5.236  0.0324 -0.4728  0.1457
    3SAPS  C215  333   0.691   2.091   5.056 -0.0239  0.2478  0.0670
    3SAPS  H15R  334   0.796   2.083   5.089 -0.6107 -2.1745  1.5982
    3SAPS  C216  335   0.667   2.145   4.916 -0.2182  0.7955 -0.4055
    3SAPS  H16R  336   0.696   2.251   4.908 -0.0044  0.8850  1.2830
    3SAPS  H16S  337   0.560   2.139   4.886  0.2410  1.2319 -2.2337
    3SAPS  C217  338   0.742   2.065   4.810 -0.2555  0.0783 -0.0592
    3SAPS  H17R  339   0.736   1.956   4.832 -1.0564  0.5082  2.0726
    3SAPS  H17S  340   0.848   2.097   4.814 -0.6656  1.3601  2.5139
    3SAPS  C218  341   0.692   2.072   4.662  0.0429  0.1843  0.4345
    3SAPS  H18R  342   0.681   2.180   4.640  0.5763  0.2695  0.5680
    3SAPS  H18S  343   0.593   2.022   4.662  0.3864 -0.5844  2.1038
    3SAPS  C219  344   0.810   2.014   4.576 -0.3168  0.2267  0.3575
    3SAPS  H19R  345   0.833   2.076   4.487  2.0505 -1.3744 -0.2299
    3SAPS  H19S  346   0.912   2.022   4.621 -0.7789 -4.2718  2.8260
    3SAPS  C220  347   0.779   1.865   4.533 -0.5899  0.5141  0.2595
    3SAPS  H20R  348   0.865   1.821   4.478 -1.4270 -2.1677  0.9429
    3SAPS  H20S  349   0.694   1.873   4.461 -1.2825 -0.0986  0.9940
    3SAPS  H20T  350   0.746   1.804   4.620  0.3503  1.8829  1.6177
    3SAPS   C33  351   0.527   1.717   6.020 -1.1197 -0.1923  0.9989
    3SAPS   H3X  352   0.586   1.665   6.098 -0.2517  0.3387  0.7180
    3SAPS   H3Y  353   0.562   1.822   6.012  0.0774 -0.7016 -1.2570
    3SAPS   C34  354   0.564   1.653   5.883  0.2366 -0.0164 -0.0148
    3SAPS   H4X  355   0.667   1.686   5.859 -0.2403  0.6206 -1.2765
    3SAPS   H4Y  356   0.489   1.703   5.817 -2.3048 -0.5838  2.2674
    3SAPS   C35  357   0.549   1.502   5.869 -0.6732 -0.3800 -0.1453
    3SAPS   H5X  358   0.610   1.457   5.951 -1.9552  0.2667  1.2134
    3SAPS   H5Y  359   0.444   1.476   5.892 -1.0481  2.0071  1.1469
    3SAPS   C36  360   0.572   1.445   5.731 -0.3654  0.3661 -0.3143
    3SAPS   H6X  361   0.506   1.502   5.662 -1.9141 -0.7967  0.1499
    3SAPS   H6Y  362   0.534   1.341   5.739  0.8786 -0.0036  1.0414
    3SAPS   C37  363   0.717   1.459   5.686 -0.1626  0.2040  0.2398
    3SAPS   H7X  364   0.793   1.450   5.767  0.1623 -0.6905 -0.1534
    3SAPS   H7Y  365   0.731   1.561   5.645  0.2628  0.4659  1.0234
    3SAPS   C38  366   0.742   1.353   5.578  0.1935  0.0798  0.5036
    3SAPS   H8X  367   0.658   1.362   5.506 -0.4923 -0.4685  1.2067
    3SAPS   H8Y  368   0.728   1.255   5.628 -0.0530  0.1704  0.6176
    3SAPS   C39  369   0.880   1.372   5.509  0.0520 -0.1126  0.3606
    3SAPS   H9X  370   0.960   1.403   5.580  1.0056  0.3694 -0.8880
    3SAPS   H9Y  371   0.875   1.455   5.435 -0.0290 -1.2816 -0.9824
    3SAPS  C310  372   0.922   1.243   5.434 -0.1336  0.2284  0.3029
    3SAPS  H10X  373   0.922   1.169   5.517  0.3380 -0.5715 -0.3957
    3SAPS  H10Y  374   1.025   1.253   5.395 -0.5013  1.4453 -0.3843
    3SAPS  C311  375   0.831   1.204   5.322 -0.0745  0.1792 -0.2655
    3SAPS  H11X  376   0.726   1.232   5.344  0.7442  4.8171 -1.1470
    3SAPS  H11Y  377   0.834   1.093   5.323 -0.9651  0.1273 -1.3503
    3SAPS  C312  378   0.878   1.269   5.185 -0.6065  0.5543 -0.3395
    3SAPS  H12X  379   0.988   1.258   5.184 -0.5405 -0.2198  3.0497
    3SAPS  H12Y  380   0.874   1.380   5.192  1.5370  0.5896  1.4872
    3SAPS  C313  381   0.811   1.230   5.054  0.0374  0.5106 -1.3813
    3SAPS  H13X  382   0.712   1.276   5.037  0.5146  1.0085 -3.0813
    3SAPS  H13Y  383   0.812   1.120   5.063  1.5831  0.5254 -0.8914
    3SAPS  C314  384   0.906   1.272   4.939 -0.4900  0.2275 -0.6251
    3SAPS  H14X  385   1.010   1.235   4.957 -0.7677 -0.2848 -0.0071
    3SAPS  H14Y  386   0.905   1.382   4.930  0.0400  0.2523 -0.4281
    3SAPS  C315  387   0.866   1.217   4.801  0.6881  0.4948  0.2512
    3SAPS  H15X  388   0.760   1.243   4.779 -0.1404 -1.5463  1.4843
    3SAPS  H15Y  389   0.884   1.108   4.791 -0.7525  0.3574 -1.1612
    3SAPS  C316  390   0.948   1.285   4.690  0.7074  0.3086 -0.2528
    3SAPS  H16X  391   1.053   1.260   4.714  0.9616  0.8922 -0.7249
    3SAPS  H16Y  392   0.939   1.396   4.697 -0.2501  0.1275  1.9947
    3SAPS  C317  393   0.912   1.245   4.545 -0.0766  0.4069 -0.8611
    3SAPS  H17X  394   0.867   1.143   4.544  0.4416  0.1701 -0.3400
    3SAPS  H17Y  395   1.014   1.243   4.501  0.5529 -1.1570  0.5628
    3SAPS  C318  396   0.821   1.342   4.469  0.1983 -0.1618 -0.1202
    3SAPS  H18X  397   0.871   1.437   4.442  0.7973 -1.3170 -3.5738
    3SAPS  H18Y  398   0.728   1.361   4.526  0.1514 -0.3526 -0.1325
    3SAPS  H18Z  399   0.792   1.292   4.374 -0.3104 -0.4916  0.2015
    4SAPS     N  400   6.040   6.670   6.895  0.0939  0.4210  0.2217
    4SAPS   HN1  401   6.009   6.666   6.994  0.2312  4.2623  0.5947
    4SAPS   HN2  402   6.003   6.759   6.854 -0.6521  0.1598  0.3224
    4SAPS   HN3  403   5.989   6.600   6.838  0.6522 -0.0962  0.3533
    4SAPS   C12  404   6.185   6.658   6.878 -0.3350  0.3185 -0.1123
    4SAPS  H12A  405   6.206   6.651   6.772 -0.0214  1.3981 -0.1375
    4SAPS   C13  406   6.268   6.776   6.933  0.5013  0.8481 -0.2219
    4SAPS  O13A  407   6.211   6.881   6.970  0.1713 -0.1687  0.6776
    4SAPS  O13B  408   6.388   6.780   6.895 -0.1989  0.8374  0.3849
    4SAPS   C11  409   6.238   6.528   6.930  0.1341  0.1146 -0.7793
    4SAPS  H11A  410   6.228   6.531   7.040 -2.1335  0.0197 -0.9200
    4SAPS  H11B  411   6.345   6.516   6.905  0.2800  0.9696 -0.5624
    4SAPS     P  412   6.244   6.280   6.833 -0.1417  0.0216 -0.0853
    4SAPS   O13  413   6.381   6.315   6.782 -0.0983  1.0320  0.1656
    4SAPS   O14  414   6.243   6.190   6.956 -0.4602  0.3613  0.0554
    4SAPS   O12  415   6.176   6.414   6.864 -0.0546  0.0696  0.4047
    4SAPS   O11  416   6.156   6.207   6.727 -0.5998 -0.3412  0.2144
    4SAPS    C1  417   6.037   6.267   6.679  0.2269 -0.4456  0.3798
    4SAPS    HA  418   5.966   6.185   6.654  0.6140  0.0764 -2.9345
    4SAPS    HB  419   5.997   6.343   6.750  2.0977 -1.3441  2.5326
    4SAPS    C2  420   6.054   6.331   6.531 -0.1376 -0.1374  0.1851
    4SAPS    HS  421   5.954   6.357   6.491 -0.5813  0.2103  1.4661
    4SAPS   O21  422   6.122   6.236   6.439  0.4260  0.3032  0.1782
    4SAPS   C21  423   6.044   6.148   6.376 -0.1991 -0.4984  0.1084
    4SAPS   O22  424   5.936   6.107   6.403  0.5893 -0.0152 -0.4012
    4SAPS   C22  425   6.125   6.072   6.273  0.1451  0.4559  0.0626
    4SAPS   H2R  426   6.211   6.021   6.321  1.5141  2.4260 -0.2047
    4SAPS   H2S  427   6.071   5.990   6.220 -0.1750  1.4385 -1.1660
    4SAPS    C3  428   6.128   6.467   6.523 -0.5291  0.1483  0.3369
    4SAPS    HX  429   6.232   6.457   6.558 -0.9219  1.5671  1.9891
    4SAPS    HY  430   6.088   6.550   6.584 -2.3743 -1.9619  2.1998
    4SAPS   O31  431   6.121   6.497   6.381  0.4434 -0.4521  0.0612
    4SAPS   C31  432   6.223   6.488   6.294 -0.3690 -0.3347  0.3896
    4SAPS   O32  433   6.336   6.444   6.321  0.1357 -0.3699 -0.3349
    4SAPS   C32  434   6.162   6.529   6.163  0.4073 -0.4228 -0.9894
    4SAPS   H2X  435   6.083   6.605   6.176  1.0618  0.4023 -1.6919
    4SAPS   H2Y  436   6.119   6.442   6.108  0.3622 -1.8985  1.2461
    4SAPS   C23  437   6.185   6.166   6.157  0.9036 -0.5631 -0.0037
    4SAPS   H3R  438   6.247   6.248   6.200 -0.3109  0.6131 -0.3960
    4SAPS   H3S  439   6.100   6.221   6.110  0.7800 -0.4084  0.3900
    4SAPS   C24  440   6.263   6.080   6.047 -0.1399 -0.7258 -0.8527
    4SAPS   H4R  441   6.287   6.156   5.969  0.7387  0.9420  0.9710
    4SAPS   H4S  442   6.192   6.006   6.002  0.5208 -1.1970 -1.1401
    4SAPS   C25  443   6.389   6.018   6.092  0.5723  0.5364 -0.1975
    4SAPS   H5R  444   6.470   6.091   6.107 -0.0222  1.1167  0.2090
    4SAPS   C26  445   6.421   5.889   6.089 -0.0058 -0.5624  0.1183
    4SAPS   H6R  446   6.521   5.865   6.126  0.7211  0.4558 -1.1118
    4SAPS   C27  447   6.335   5.765   6.060  0.4400 -0.2188  0.0799
    4SAPS   H7R  448   6.349   5.730   5.956  0.7034  1.7354 -0.5726
    4SAPS   H7S  449   6.231   5.795   6.083  1.5625  1.5841  3.5033
    4SAPS   C28  450   6.361   5.647   6.145 -0.1713 -0.1108 -0.3309
    4SAPS   H8R  451   6.405   5.663   6.244  0.1252 -0.6832 -0.3648
    4SAPS   C29  452   6.340   5.512   6.116  0.0179  0.0892 -0.1671
    4SAPS   H9R  453   6.360   5.433   6.189 -1.1025 -0.2860 -0.2504
    4SAPS  C210  454   6.287   5.459   5.985 -0.2428 -0.1136 -0.6410
    4SAPS  H10R  455   6.294   5.543   5.913 -1.9612 -0.2404 -1.0006
    4SAPS  H10S  456   6.177   5.448   5.984 -0.6151  2.7593 -0.6610
    4SAPS  C211  457   6.366   5.336   5.934  0.3001 -0.1139  0.1022
    4SAPS  H11R  458   6.356   5.251   6.003  0.9895 -0.1361  0.1796
    4SAPS  C212  459   6.451   5.324   5.833  1.1330  0.6113 -0.1739
    4SAPS  H12R  460   6.493   5.223   5.823 -2.2593 -1.1353  1.4206
    4SAPS  C213  461   6.507   5.424   5.730  0.9683 -0.0250  0.0345
    4SAPS  H13R  462   6.477   5.523   5.770  0.8330 -0.5744  1.3269
    4SAPS  H13S  463   6.445   5.411   5.639 -2.6704  4.5428  1.4413
    4SAPS  C214  464   6.651   5.409   5.700  0.0836 -0.0314  0.2622
    4SAPS  H14R  465   6.717   5.483   5.749  1.2489 -2.3263  2.3847
    4SAPS  C215  466   6.711   5.324   5.614  0.0339  0.2147  0.0182
    4SAPS  H15R  467   6.820   5.331   5.599  0.0619 -1.0182 -0.4401
    4SAPS  C216  468   6.644   5.204   5.546  0.5808  0.0860  0.3281
    4SAPS  H16R  469   6.542   5.203   5.590  0.1751 -0.4528 -0.5989
    4SAPS  H16S  470   6.707   5.118   5.579  0.7471  0.7908  1.9084
    4SAPS  C217  471   6.635   5.227   5.393 -0.3383  0.4666 -0.0832
    4SAPS  H17R  472   6.584   5.324   5.377 -0.9829  0.0365 -0.7241
    4SAPS  H17S  473   6.562   5.153   5.353 -0.1921  0.4449 -0.3120
    4SAPS  C218  474   6.774   5.227   5.315 -0.0707 -0.3702 -0.5964
    4SAPS  H18R  475   6.814   5.124   5.302 -2.0324 -1.1301 -0.8993
    4SAPS  H18S  476   6.851   5.280   5.376 -1.4782  0.0634  0.9023
    4SAPS  C219  477   6.766   5.295   5.177  0.3376 -0.1726 -0.1781
    4SAPS  H19R  478   6.871   5.320   5.153  0.4476  0.0164  0.4881
    4SAPS  H19S  479   6.720   5.396   5.183  0.7471  0.3879 -3.9120
    4SAPS  C220  480   6.699   5.219   5.070 -0.0405  0.5576  0.4903
    4SAPS  H20R  481   6.754   5.129   5.034  1.1315  1.9238 -1.3130
    4SAPS  H20S  482   6.679   5.278   4.978 -2.4641 -1.3342 -0.3260
    4SAPS  H20T  483   6.597   5.194   5.108 -0.1116  0.6611  0.3687
    4SAPS   C33  484   6.271   6.593   6.072  0.5817 -0.2869 -0.4405
    4SAPS   H3X  485   6.345   6.660   6.121  0.5603 -2.5422  2.9791
    4SAPS   H3Y  486   6.228   6.644   5.983  1.5934 -0.5632 -1.1018
    4SAPS   C34  487   6.361   6.491   6.004  0.3613  0.7774 -0.7953
    4SAPS   H4X  488   6.307   6.412   5.947  0.1044 -1.3717  2.1855
    4SAPS   H4Y  489   6.418   6.441   6.085  1.7121  0.4789 -1.8926
    4SAPS   C35  490   6.469   6.550   5.918  0.0810 -0.6606  0.2414
    4SAPS   H5X  491   6.522   6.620   5.987 -1.1736  0.4383  0.1209
    4SAPS   H5Y  492   6.409   6.608   5.845  0.3534 -0.3585  0.2553
    4SAPS   C36  493   6.544   6.441   5.838  0.0974 -0.2923  0.0229
    4SAPS   H6X  494   6.577   6.359   5.905 -0.5385 -1.2763 -0.8396
    4SAPS   H6Y  495   6.628   6.490   5.784 -2.1978  2.1878 -1.5028
    4SAPS   C37  496   6.466   6.374   5.725 -0.2503 -0.2370 -0.3893
    4SAPS   H7X  497   6.375   6.325   5.764  0.7680 -1.2031  0.8715
    4SAPS   H7Y  498   6.523   6.283   5.695 -2.2860 -1.1238 -1.7621
    4SAPS   C38  499   6.439   6.448   5.601  0.4257 -0.6399 -0.3053
    4SAPS   H8X  500   6.534   6.505   5.584 -0.8363  1.5352 -0.4144
    4SAPS   H8Y  501   6.357   6.521   5.614 -0.4382 -1.6388 -0.0519
    4SAPS   C39  502   6.404   6.356   5.486 -0.0913  0.1648 -0.4804
    4SAPS   H9X  503   6.298   6.374   5.459 -0.1072  0.9238  0.0653
    4SAPS   H9Y  504   6.399   6.248   5.512 -0.2087  0.3535  0.3234
    4SAPS  C310  505   6.494   6.374   5.363  0.0517 -0.4028  0.3176
    4SAPS  H10X  506   6.596   6.352   5.402  0.2089  0.9278  0.6896
    4SAPS  H10Y  507   6.482   6.482   5.340  0.1661 -0.1448  1.3857
    4SAPS  C311  508   6.450   6.299   5.236 -0.5804  0.1615 -0.5843
    4SAPS  H11X  509   6.481   6.355   5.146  0.2777 -0.0488 -0.4267
    4SAPS  H11Y  510   6.339   6.298   5.242 -0.8841  2.4132 -3.4796
    4SAPS  C312  511   6.506   6.159   5.229  0.1319 -0.1941 -0.0767
    4SAPS  H12X  512   6.482   6.095   5.316 -0.7260 -0.5566 -0.5688
    4SAPS  H12Y  513   6.616   6.157   5.214  0.3810  0.8251  1.3522
    4SAPS  C313  514   6.452   6.086   5.108 -0.5620  0.0634  0.7476
    4SAPS  H13X  515   6.480   6.144   5.017  0.2015  1.4088  1.8153
    4SAPS  H13Y  516   6.341   6.084   5.107 -0.5852  1.0919  0.1272
    4SAPS  C314  517   6.488   5.931   5.084 -1.1322 -0.0495 -0.3245
    4SAPS  H14X  518   6.453   5.912   4.980  1.3897  2.2952 -1.7576
    4SAPS  H14Y  519   6.443   5.871   5.165 -0.5390  0.9818  0.7980
    4SAPS  C315  520   6.641   5.904   5.112 -0.0615 -1.1778  0.0689
    4SAPS  H15X  521   6.675   5.924   5.216  0.1599 -2.4656  0.2566
    4SAPS  H15Y  522   6.699   5.966   5.040 -0.7593  0.0508  0.5445
    4SAPS  C316  523   6.686   5.760   5.073  0.4135 -0.2929  0.0774
    4SAPS  H16X  524   6.627   5.684   5.129  0.3918 -0.2035  0.1764
    4SAPS  H16Y  525   6.788   5.740   5.114  0.9799  0.3197 -0.9970
    4SAPS  C317  526   6.680   5.739   4.918  0.2754 -0.4699  0.3538
    4SAPS  H17X  527   6.700   5.835   4.867 -0.6776 -0.8750 -0.8118
    4SAPS  H17Y  528   6.573   5.725   4.891  0.5065 -2.3884  0.3263
    4SAPS  C318  529   6.759   5.612   4.880 -0.0564 -0.0176 -0.7133
    4SAPS  H18X  530   6.870   5.623   4.882  0.2103 -2.1045 -1.6873
    4SAPS  H18Y  531   6.726   5.575   4.780 -1.5604  1.2477 -0.7176
    4SAPS  H18Z  532   6.734   5.534   4.954  0.9992 -0.1916 -0.5239
    5SAPS     N  533   1.847   1.106   6.621  1.0293  0.0152 -0.8940
    5SAPS   HN1  534   1.795   1.024   6.656  1.6026  0.4910  1.2203
    5SAPS   HN2  535   1.911   1.075   6.546  0.1648  0.6693 -1.9381
    5SAPS   HN3  536   1.894   1.152   6.702  1.5766 -1.2857 -0.4452
    5SAPS   C12  537   1.752   1.209   6.556 -0.5153  0.4959  0.0849
    5SAPS  H12A  538   1.673   1.234   6.625 -2.6031 -2.2457 -1.0984
    5SAPS   C13  539   1.817   1.344   6.510 -0.9178 -0.3493  0.5029
    5SAPS  O13A  540   1.934   1.373   6.549  0.2016 -0.2713  0.1436
    5SAPS  O13B  541   1.738   1.441   6.488  0.1406  0.5480  0.0208
    5SAPS   C11  542   1.692   1.140   6.421 -0.6504  0.2826 -0.1385
    5SAPS  H11A  543   1.620   1.217   6.387  0.7052  2.0802  0.8716
    5SAPS  H11B  544   1.644   1.045   6.451 -0.4647  0.3313  0.3169
    5SAPS     P  545   1.795   1.001   6.212 -0.1771 -0.2118 -0.3806
    5SAPS   O13  546   1.913   1.027   6.133  0.2395 -0.2529 -0.3076
    5SAPS   O14  547   1.791   0.878   6.290 -0.1656 -0.1719 -0.4163
    5SAPS   O12  548   1.796   1.117   6.326 -1.0650 -0.2505  0.2727
    5SAPS   O11  549   1.658   1.033   6.131  0.2366 -0.0526 -0.1057
    5SAPS    C1  550   1.645   0.971   6.004  0.0846  0.1306  0.0119
    5SAPS    HA  551   1.545   0.992   5.961 -1.2718 -3.0108  1.3610
    5SAPS    HB  552   1.724   1.003   5.932  0.0581  1.1555  0.4149
    5SAPS    C2  553   1.639   0.813   6.013  0.0493 -0.1414  0.4916
    5SAPS    HS  554   1.715   0.771   6.083 -0.7771 -2.8689 -0.1280
    5SAPS   O21  555   1.645   0.763   5.880  0.1591  0.1603  0.4668
    5SAPS   C21  556   1.761   0.772   5.815  0.0683 -0.0310  0.0433
    5SAPS   O22  557   1.868   0.799   5.870 -0.3908  0.2510  0.0812
    5SAPS   C22  558   1.743   0.748   5.662 -0.1484 -0.0852  0.3176
    5SAPS   H2R  559   1.843   0.767   5.619 -0.6908 -0.2402 -1.0553
    5SAPS   H2S  560   1.710   0.642   5.654  2.9392 -1.7309  5.0296
    5SAPS    C3  561   1.499   0.778   6.069 -0.2475  0.1961  0.1499
    5SAPS    HX  562   1.492   0.812   6.175 -4.2863  1.0780 -0.2213
    5SAPS    HY  563   1.478   0.669   6.078 -1.8507  0.6220  2.7284
    5SAPS   O31  564   1.396   0.833   5.987  0.5681  0.6241  0.0873
    5SAPS   C31  565   1.285   0.876   6.043 -0.2581 -0.1465  0.3719
    5SAPS   O32  566   1.262   0.876   6.162 -0.0674 -0.2149 -0.2422
    5SAPS   C32  567   1.186   0.928   5.948 -0.0608  0.0960  0.5651
    5SAPS   H2X  568   1.190   1.039   5.939 -0.2245  0.1363  0.9974
    5SAPS   H2Y  569   1.086   0.916   5.994 -0.8002  0.6171 -0.8256
    5SAPS   C23  570   1.640   0.853   5.595  0.1746  0.1955 -0.4381
    5SAPS   H3R  571   1.672   0.957   5.619  2.0825 -0.0172 -1.8697
    5SAPS   H3S  572   1.539   0.839   5.638 -0.0270 -2.0987 -1.5446
    5SAPS   C24  573   1.649   0.833   5.444 -0.7742 -0.5841  0.1023
    5SAPS   H4R  574   1.635   0.726   5.418 -0.5592 -0.2463 -1.4957
    5SAPS   H4S  575   1.756   0.852   5.423 -0.2804 -1.5055  1.5780
    5SAPS   C25  576   1.552   0.926   5.369 -0.4930  0.1211  0.1710
    5SAPS   H5R  577   1.512   1.016   5.417  0.3666  0.9026 -0.5501
    5SAPS   C26  578   1.506   0.905   5.244  0.4702  0.0906 -0.6639
    5SAPS   H6R  579   1.433   0.977   5.203  0.7818  0.4015 -0.6759
    5SAPS   C27  580   1.548   0.792   5.156  0.3455 -0.2424 -0.3757
    5SAPS   H7R  581   1.465   0.752   5.094 -0.0177  0.8944 -0.6409
    5SAPS   H7S  582   1.582   0.703   5.212 -0.2731 -0.3167 -0.1097
    5SAPS   C28  583   1.658   0.847   5.062 -0.2201 -0.5623 -0.0616
    5SAPS   H8R  584   1.715   0.936   5.091  1.2661 -1.7149  0.6933
    5SAPS   C29  585   1.679   0.799   4.940  0.0669 -0.4511 -0.5021
    5SAPS   H9R  586   1.760   0.845   4.881  0.3589  1.0653  1.0172
    5SAPS  C210  587   1.625   0.667   4.885  0.6001 -0.0944  0.2958
    5SAPS  H10R  588   1.600   0.595   4.965  0.9254 -0.9030 -0.3139
    5SAPS  H10S  589   1.708   0.620   4.828  0.3857  1.1514 -1.1081
    5SAPS  C211  590   1.502   0.691   4.804 -0.6760  0.3182 -0.9081
    5SAPS  H11R  591   1.419   0.735   4.861 -0.3298  2.4427 -1.9456
    5SAPS  C212  592   1.495   0.672   4.668 -0.5196 -0.0141 -0.4979
    5SAPS  H12R  593   1.392   0.674   4.628 -0.2604 -4.7079 -1.9902
    5SAPS  C213  594   1.598   0.605   4.581 -0.7529  0.1013  0.3015
    5SAPS  H13R  595   1.601   0.497   4.610 -2.3620  0.2828  1.3269
    5SAPS  H13S  596   1.697   0.650   4.601 -2.0364  2.2998  2.2009
    5SAPS  C214  597   1.582   0.620   4.434  0.4219  0.1460 -0.4752
    5SAPS  H14R  598   1.623   0.710   4.385  0.3459 -0.9495 -2.6752
    5SAPS  C215  599   1.530   0.525   4.348 -0.0141 -0.1954 -0.2744
    5SAPS  H15R  600   1.521   0.555   4.243  0.1466  1.5736  0.1878
    5SAPS  C216  601   1.472   0.397   4.390  0.7889  0.8243  0.5747
    5SAPS  H16R  602   1.401   0.363   4.312 -1.1060  1.4074  1.9611
    5SAPS  H16S  603   1.404   0.418   4.476 -0.5564  1.8627 -0.6862
    5SAPS  C217  604   1.572   0.287   4.428 -0.6074 -0.0405  0.1999
    5SAPS  H17R  605   1.634   0.329   4.510 -0.6492 -0.4646  0.4541
    5SAPS  H17S  606   1.625   0.251   4.337  0.2542 -0.2222  0.7573
    5SAPS  C218  607   1.508   0.154   4.474  0.2680 -0.6779  0.3783
    5SAPS  H18R  608   1.581   0.071   4.487  0.7291 -0.7848 -2.3440
    5SAPS  H18S  609   1.439   0.118   4.395 -1.6507  1.6503  0.8845
    5SAPS  C219  610   1.413   0.167   4.596 -0.8788 -0.4825  0.5959
    5SAPS  H19R  611   1.372   0.270   4.605 -2.2434 -0.5886 -2.8355
    5SAPS  H19S  612   1.485   0.158   4.680 -1.5202 -0.1793  1.1888
    5SAPS  C220  613   1.297   0.064   4.611  0.2556 -0.4619  0.4210
    5SAPS  H20R  614   1.221   0.080   4.531  1.3172 -1.6650 -0.8867
    5SAPS  H20S  615   1.240   0.077   4.705  1.5562 -0.9943  1.3027
    5SAPS  H20T  616   1.329  -0.042   4.606  0.5268 -0.4355  1.4947
    5SAPS   C33  617   1.201   0.860   5.807  0.1864 -0.0589  0.3787
    5SAPS   H3X  618   1.156   0.759   5.817 -0.6894  0.1480 -1.1455
    5SAPS   H3Y  619   1.306   0.847   5.775 -0.1584  0.6079 -1.1512
    5SAPS   C34  620   1.118   0.928   5.693 -0.8708 -0.3930 -0.5715
    5SAPS   H4X  621   1.136   1.037   5.694 -0.8774 -0.3789  0.9442
    5SAPS   H4Y  622   1.012   0.908   5.717 -1.0521  0.3685 -0.7473
    5SAPS   C35  623   1.158   0.862   5.560 -0.4021  1.0591  0.5678
    5SAPS   H5X  624   1.158   0.752   5.576 -1.8644  1.2344  2.0512
    5SAPS   H5Y  625   1.265   0.893   5.551 -0.7120  1.8488 -0.6531
    5SAPS   C36  626   1.071   0.912   5.442  0.5830  0.3175  0.6056
    5SAPS   H6X  627   1.103   1.014   5.410  0.7788  0.2169  0.4782
    5SAPS   H6Y  628   0.963   0.925   5.465  0.3652 -0.6449  0.1630
    5SAPS   C37  629   1.091   0.827   5.308  0.1041 -0.0835 -0.1054
    5SAPS   H7X  630   1.036   0.732   5.324 -0.2652  0.0820 -0.3648
    5SAPS   H7Y  631   1.198   0.819   5.282  1.0192  1.4234  2.8040
    5SAPS   C38  632   1.038   0.910   5.187 -0.1936  0.4767  0.2815
    5SAPS   H8X  633   1.057   1.019   5.188  1.0479  0.2878  0.2021
    5SAPS   H8Y  634   0.928   0.895   5.183 -0.1312  0.1720 -0.4371
    5SAPS   C39  635   1.105   0.851   5.055  0.0188  0.0015  0.6841
    5SAPS   H9X  636   1.060   0.752   5.033  2.0667 -0.7946 -0.1423
    5SAPS   H9Y  637   1.215   0.839   5.059  0.3001  1.3825 -1.3729
    5SAPS  C310  638   1.071   0.940   4.930 -0.2521 -0.6329  0.1809
    5SAPS  H10X  639   1.127   1.034   4.948  1.0035 -1.1566 -0.7758
    5SAPS  H10Y  640   0.961   0.952   4.929 -0.4860 -2.4311 -0.3224
    5SAPS  C311  641   1.116   0.872   4.801 -0.1937 -0.6938 -0.8771
    5SAPS  H11X  642   1.050   0.791   4.764 -0.0690 -1.1619 -0.0883
    5SAPS  H11Y  643   1.217   0.830   4.820 -0.9779 -2.8046 -1.1273
    5SAPS  C312  644   1.136   0.963   4.684  0.5735 -0.4665  0.3050
    5SAPS  H12X  645   1.194   1.048   4.726 -0.8275 -0.3320  2.1132
    5SAPS  H12Y  646   1.038   1.005   4.652  0.9524  0.6575  0.5742
    5SAPS  C313  647   1.200   0.895   4.559  0.3045 -0.0432 -0.3823
    5SAPS  H13X  648   1.293   0.842   4.589 -0.6660 -1.6621 -0.1431
    5SAPS  H13Y  649   1.239   0.977   4.495  1.6692 -0.2091  0.1828
    5SAPS  C314  650   1.109   0.821   4.457 -0.0365 -0.7920 -0.3180
    5SAPS  H14X  651   1.045   0.903   4.418  0.6419 -0.5750 -1.0078
    5SAPS  H14Y  652   1.051   0.742   4.509  0.9497 -0.6756  1.0338
    5SAPS  C315  653   1.178   0.770   4.326  0.4787  0.6602 -0.0319
    5SAPS  H15X  654   1.259   0.703   4.364 -1.3126 -1.5763  0.0483
    5SAPS  H15Y  655   1.222   0.843   4.255 -0.6673  1.2645 -0.1463
    5SAPS  C316  656   1.077   0.686   4.239  0.1889 -0.2747 -0.5179
    5SAPS  H16X  657   1.005   0.760   4.197  0.1886  1.8971  2.9056
    5SAPS  H16Y  658   1.024   0.609   4.300 -1.2586  0.7294 -0.4476
    5SAPS  C317  659   1.150   0.603   4.124 -0.2460  0.6712  0.1790
    5SAPS  H17X  660   1.079   0.546   4.061  0.9575 -0.3650 -0.2781
    5SAPS  H17Y  661   1.215   0.530   4.176 -1.8749 -1.2872 -0.4381
    5SAPS  C318  662   1.240   0.673   4.017  0.0246  0.3911 -0.2911
    5SAPS  H18X  663   1.270   0.612   3.929 -2.5836  1.1245 -1.7955
    5SAPS  H18Y  664   1.338   0.709   4.058  0.0418 -0.7872  0.7732
    5SAPS  H18Z  665   1.195   0.763   3.969 -0.3801 -0.7986 -2.2471
    6SAPS     N  666   5.793   1.579   6.595 -0.6608 -0.7064 -0.4249
    6SAPS   HN1  667   5.896   1.586   6.608 -0.8556 -0.5005  1.2563
    6SAPS   HN2  668   5.756   1.676   6.583 -2.5945 -1.3692 -0.1688
    6SAPS   HN3  669   5.754   1.550   6.687 -2.1509 -0.9655 -1.1072
    6SAPS   C12  670   5.731   1.501   6.487  0.8449 -0.1191  0.7323
    6SAPS  H12A  671   5.773   1.539   6.396  0.2445 -0.4021  0.3293
    6SAPS   C13  672   5.753   1.352   6.497 -0.2174  0.0992  0.0174
    6SAPS  O13A  673   5.796   1.300   6.602  0.2206 -0.2206 -0.1605
    6SAPS  O13B  674   5.706   1.292   6.398  0.0212  0.3144 -0.3637
    6SAPS   C11  675   5.581   1.544   6.491 -0.0156  0.6814 -0.3253
    6SAPS  H11A  676   5.525   1.473   6.555 -0.5285  1.1854 -0.2096
    6SAPS  H11B  677   5.539   1.527   6.389  0.2527 -0.8391 -0.2128
    6SAPS     P  678   5.416   1.750   6.548 -0.0131  0.2332  0.3047
    6SAPS   O13  679   5.304   1.650   6.552 -0.2397 -0.2404  0.3596
    6SAPS   O14  680   5.413   1.850   6.656  0.3144  0.1637  0.3108
    6SAPS   O12  681   5.552   1.670   6.552 -0.4695  0.1172 -0.1855
    6SAPS   O11  682   5.423   1.820   6.406  0.6432  0.4731 -0.9638
    6SAPS    C1  683   5.539   1.903   6.384  0.2109 -0.0812  0.1879
    6SAPS    HA  684   5.633   1.868   6.432  1.3638  0.4744 -1.5979
    6SAPS    HB  685   5.555   1.904   6.274  1.5872 -0.8109  0.3624
    6SAPS    C2  686   5.527   2.051   6.433  0.3509  0.2602  0.2619
    6SAPS    HS  687   5.512   2.044   6.543  1.9853  0.3282  0.5105
    6SAPS   O21  688   5.416   2.115   6.374 -0.8013  0.0447  0.1148
    6SAPS   C21  689   5.354   2.219   6.437 -0.2184  0.2333 -0.4299
    6SAPS   O22  690   5.381   2.244   6.551 -0.0035 -0.0449 -0.3239
    6SAPS   C22  691   5.269   2.307   6.341 -0.1839 -0.0549  0.5277
    6SAPS   H2R  692   5.340   2.366   6.280 -0.9334  0.6125  0.2741
    6SAPS   H2S  693   5.218   2.241   6.267  1.4444  0.3883 -1.0554
    6SAPS    C3  694   5.659   2.132   6.400  0.3700 -0.4467 -0.7454
    6SAPS    HX  695   5.743   2.094   6.462 -0.3167  0.6007  0.9199
    6SAPS    HY  696   5.658   2.239   6.429 -1.4952 -0.3562 -0.9684
    6SAPS   O31  697   5.689   2.123   6.259 -0.1967 -0.3770 -0.7758
    6SAPS   C31  698   5.657   2.225   6.184 -0.2447 -0.9142  0.6579
    6SAPS   O32  699   5.629   2.337   6.222  0.6397 -0.0634 -0.4289
    6SAPS   C32  700   5.678   2.185   6.044  0.3733  0.3390  0.1329
    6SAPS   H2X  701   5.607   2.100   6.026  1.8440 -0.9928  0.4248
    6SAPS   H2Y  702   5.779   2.142   6.026 -0.5985 -1.8554 -0.5006
    6SAPS   C23  703   5.177   2.398   6.419  0.5952 -0.2956  0.0731
    6SAPS   H3R  704   5.238   2.453   6.493  1.0723 -0.2649 -0.3340
    6SAPS   H3S  705   5.103   2.338   6.476  1.1568 -0.6297  0.4621
    6SAPS   C24  706   5.101   2.492   6.327 -0.1487 -0.1961  0.1079
    6SAPS   H4R  707   5.180   2.544   6.268 -1.3876  1.4546 -0.1576
    6SAPS   H4S  708   5.045   2.565   6.390 -1.3767 -2.3420  1.6132
    6SAPS   C25  709   4.995   2.413   6.246  0.2083 -0.1255  0.2807
    6SAPS   H5R  710   4.935   2.338   6.301  1.2353  0.5879  2.5131
    6SAPS   C26  711   4.984   2.421   6.113 -0.2121  0.5472 -0.5951
    6SAPS   H6R  712   4.906   2.361   6.065 -2.4669  0.8688  2.4005
    6SAPS   C27  713   5.054   2.515   6.020  0.1733  0.1981  0.6304
    6SAPS   H7R  714   5.099   2.594   6.085  2.4044 -0.9771  0.6291
    6SAPS   H7S  715   4.975   2.550   5.951 -0.1533 -1.8237 -0.0555
    6SAPS   C28  716   5.171   2.442   5.949  0.1791  0.1236 -0.2235
    6SAPS   H8R  717   5.244   2.396   6.017  0.1417  0.1560 -0.1622
    6SAPS   C29  718   5.194   2.435   5.818 -0.1793 -0.2717 -0.3075
    6SAPS   H9R  719   5.275   2.368   5.786 -0.7421 -1.4860  0.7495
    6SAPS  C210  720   5.117   2.478   5.702  0.5128  0.2873  0.2279
    6SAPS  H10R  721   5.010   2.454   5.722  0.0227  2.8156  0.9403
    6SAPS  H10S  722   5.145   2.421   5.611 -2.3641  0.5496 -0.9207
    6SAPS  C211  723   5.131   2.627   5.684  0.4125  0.4385 -0.4425
    6SAPS  H11R  724   5.080   2.691   5.758  0.7714  1.0025 -0.6802
    6SAPS  C212  725   5.199   2.686   5.586  0.0975 -0.3952 -0.1131
    6SAPS  H12R  726   5.192   2.794   5.567  0.0543 -0.1102  1.3617
    6SAPS  C213  727   5.266   2.614   5.467 -0.3195  0.2395 -0.6708
    6SAPS  H13R  728   5.249   2.505   5.473  0.4448  0.1622  0.3774
    6SAPS  H13S  729   5.376   2.617   5.484 -0.4009 -0.1818 -0.0308
    6SAPS  C214  730   5.223   2.659   5.330 -0.0981  0.4328  0.4783
    6SAPS  H14R  731   5.180   2.760   5.317  0.0555  0.2096 -2.1477
    6SAPS  C215  732   5.242   2.595   5.211  0.4801  0.2705 -0.4174
    6SAPS  H15R  733   5.219   2.645   5.116 -0.6342  2.2376  0.8318
    6SAPS  C216  734   5.305   2.458   5.194 -0.2751 -0.6036 -0.0504
    6SAPS  H16R  735   5.240   2.383   5.244 -0.8317  0.2105  0.4583
    6SAPS  H16S  736   5.402   2.454   5.249  0.5176  0.2435 -1.3425
    6SAPS  C217  737   5.327   2.414   5.047  0.2315  0.1796  0.6258
    6SAPS  H17R  738   5.368   2.313   5.062  0.9157  0.1528 -1.1391
    6SAPS  H17S  739   5.392   2.489   4.997 -0.4666  1.0068  0.9273
    6SAPS  C218  740   5.194   2.390   4.973 -0.0238 -0.9684  0.4447
    6SAPS  H18R  741   5.142   2.488   4.972  0.5299 -0.6796 -0.1280
    6SAPS  H18S  742   5.124   2.322   5.026  2.4741 -3.8132  0.3631
    6SAPS  C219  743   5.209   2.350   4.827 -0.4464 -0.0790  0.0089
    6SAPS  H19R  744   5.278   2.264   4.838  2.0425  2.1569  4.9894
    6SAPS  H19S  745   5.272   2.422   4.771  0.9400 -1.0631  0.2632
    6SAPS  C220  746   5.071   2.323   4.762  0.6769  0.5149 -0.0475
    6SAPS  H20R  747   5.083   2.274   4.663  2.1757 -2.9200  1.6639
    6SAPS  H20S  748   5.012   2.416   4.746  0.2038  0.3580  0.7336
    6SAPS  H20T  749   5.023   2.237   4.812  3.1742 -1.6131 -1.0347
    6SAPS   C33  750   5.644   2.293   5.942  0.0450  0.0109  0.0680
    6SAPS   H3X  751   5.706   2.384   5.951 -0.9477  0.8029 -0.8548
    6SAPS   H3Y  752   5.538   2.322   5.954 -0.3569 -1.2483 -0.2769
    6SAPS   C34  753   5.666   2.238   5.798  0.6368 -0.1785  0.4584
    6SAPS   H4X  754   5.593   2.160   5.768 -0.2531 -0.0759  2.2198
    6SAPS   H4Y  755   5.768   2.197   5.782 -0.0248 -2.2979  1.4128
    6SAPS   C35  756   5.619   2.346   5.699  0.0524  0.0479 -0.0392
    6SAPS   H5X  757   5.699   2.424   5.702 -0.1840  0.2897  0.0508
    6SAPS   H5Y  758   5.522   2.391   5.728 -0.1298  0.7533 -1.6353
    6SAPS   C36  759   5.616   2.292   5.557 -0.2765  0.4882 -0.0111
    6SAPS   H6X  760   5.520   2.244   5.532 -0.1035  0.6059 -0.9548
    6SAPS   H6Y  761   5.685   2.207   5.539 -2.3230 -1.0402 -0.9861
    6SAPS   C37  762   5.651   2.387   5.441 -0.2892  0.0273 -0.2563
    6SAPS   H7X  763   5.748   2.425   5.479  0.6190  0.0006 -2.4267
    6SAPS   H7Y  764   5.568   2.460   5.438  0.8778  1.3810 -0.2149
    6SAPS   C38  765   5.677   2.312   5.309 -0.0782  0.0234  0.4788
    6SAPS   H8X  766   5.588   2.254   5.276 -0.2394  0.4780  0.1103
    6SAPS   H8Y  767   5.761   2.243   5.332 -0.1174  0.1909  1.1285
    6SAPS   C39  768   5.706   2.412   5.194  0.4157 -0.7353 -0.1012
    6SAPS   H9X  769   5.807   2.458   5.197 -1.2600  3.5274 -1.2241
    6SAPS   H9Y  770   5.629   2.492   5.193  0.7150 -0.4427 -1.9529
    6SAPS  C310  771   5.691   2.357   5.050 -0.2515 -0.5591  0.2528
    6SAPS  H10X  772   5.585   2.329   5.037 -0.6512  1.2243 -0.5740
    6SAPS  H10Y  773   5.755   2.267   5.036 -0.1251 -0.2806 -1.1031
    6SAPS  C311  774   5.738   2.461   4.942 -0.1528  0.2951 -0.2127
    6SAPS  H11X  775   5.835   2.500   4.979  0.2706 -1.2244  0.3434
    6SAPS  H11Y  776   5.664   2.544   4.936 -0.5913 -0.1398 -1.0075
    6SAPS  C312  777   5.745   2.391   4.806 -0.0826 -0.5728 -0.3458
    6SAPS  H12X  778   5.648   2.372   4.757 -0.4119 -3.3187  1.1402
    6SAPS  H12Y  779   5.800   2.294   4.816  0.1321 -0.2809  1.8863
    6SAPS  C313  780   5.823   2.472   4.705  0.0042  0.6957  0.4222
    6SAPS  H13X  781   5.902   2.523   4.763  0.4960  1.6246 -0.9941
    6SAPS  H13Y  782   5.762   2.559   4.670 -0.9532 -0.6514 -1.4442
    6SAPS  C314  783   5.882   2.396   4.585  0.1146  0.5118 -0.0645
    6SAPS  H14X  784   5.804   2.339   4.529  0.5510 -1.5737  1.3464
    6SAPS  H14Y  785   5.949   2.312   4.614 -0.7132 -0.2151 -0.2143
    6SAPS  C315  786   5.958   2.495   4.495  0.3827  0.1078 -0.1160
    6SAPS  H15X  787   6.049   2.534   4.544  0.1193 -0.8275  1.1624
    6SAPS  H15Y  788   5.895   2.584   4.470 -0.5700 -1.1920 -2.7823
    6SAPS  C316  789   6.017   2.427   4.374  0.4202  0.1796 -0.1001
    6SAPS  H16X  790   5.930   2.410   4.308 -1.7696  2.8784  1.8418
    6SAPS  H16Y  791   6.071   2.332   4.392  0.1256 -0.2016 -1.1350
    6SAPS  C317  792   6.114   2.517   4.290  0.2196 -0.0939  0.2870
    6SAPS  H17X  793   6.067   2.618   4.292  3.6485  1.6456 -0.2165
    6SAPS  H17Y  794   6.126   2.485   4.185  0.3813 -1.2219  0.6320
    6SAPS  C318  795   6.261   2.521   4.343  0.3863 -0.3327  0.0360
    6SAPS  H18X  796   6.331   2.436   4.327  1.5313  0.1790  2.0713
    6SAPS  H18Y  797   6.262   2.529   4.453  0.1746 -2.8534  0.2654
    6SAPS  H18Z  798   6.320   2.605   4.300  0.7901 -0.1910  0.8615
    7SAPS     N  799   6.442   3.029   6.801 -0.1370  0.5467 -0.1604
    7SAPS   HN1  800   6.381   3.080   6.734 -1.1099 -1.2165 -0.7012
    7SAPS   HN2  801   6.523   3.002   6.741  0.7089  1.8217  0.3785
    7SAPS   HN3  802   6.386   2.944   6.825  0.0568 -0.3656 -2.6034
    7SAPS   C12  803   6.471   3.098   6.936 -0.7963  0.5519 -0.8327
    7SAPS  H12A  804   6.375   3.110   6.983 -0.4103 -2.6180  1.0838
    7SAPS   C13  805   6.572   3.012   7.028 -0.2807  0.3293 -0.2632
    7SAPS  O13A  806   6.631   2.913   6.968 -0.8976 -0.1293 -0.2255
    7SAPS  O13B  807   6.622   3.069   7.129  0.1159 -0.0285 -0.1869
    7SAPS   C11  808   6.543   3.235   6.908  0.5333 -0.3250  0.5345
    7SAPS  H11A  809   6.640   3.214   6.859  0.6285 -1.7718  1.2971
    7SAPS  H11B  810   6.562   3.285   7.005 -0.6416  0.0159  0.6131
    7SAPS     P  811   6.507   3.450   6.773 -0.0810 -0.2406 -0.3384
    7SAPS   O13  812   6.400   3.555   6.783 -0.1224  0.2850 -0.1557
    7SAPS   O14  813   6.635   3.477   6.843 -0.3018 -0.5671  0.7062
    7SAPS   O12  814   6.453   3.313   6.826 -0.5308  0.0712 -0.1018
    7SAPS   O11  815   6.546   3.422   6.622 -0.0258 -0.1161 -0.0098
    7SAPS    C1  816   6.552   3.291   6.572 -0.2949 -0.0868  0.1055
    7SAPS    HA  817   6.649   3.246   6.602  0.8950  0.8262 -2.0921
    7SAPS    HB  818   6.462   3.229   6.590  0.3740 -1.2146 -0.3379
    7SAPS    C2  819   6.572   3.295   6.415 -0.1811 -0.4575  0.3578
    7SAPS    HS  820   6.610   3.393   6.381  1.2089 -0.9183  0.5273
    7SAPS   O21  821   6.444   3.273   6.350 -0.5036  0.9206  0.0688
    7SAPS   C21  822   6.358   3.370   6.358  0.5823 -0.3529 -0.4692
    7SAPS   O22  823   6.367   3.476   6.412 -0.0024  0.2059 -0.2234
    7SAPS   C22  824   6.228   3.315   6.290  0.3866 -0.6605  0.0318
    7SAPS   H2R  825   6.252   3.241   6.211 -1.3218  1.0297 -2.2004
    7SAPS   H2S  826   6.175   3.264   6.373 -1.0323 -0.4787 -0.7314
    7SAPS    C3  827   6.669   3.187   6.366 -0.9896 -0.7436 -0.1434
    7SAPS    HX  828   6.619   3.090   6.384  0.3616 -1.3510  0.4619
    7SAPS    HY  829   6.761   3.202   6.427 -1.5344 -1.6563  0.9469
    7SAPS   O31  830   6.693   3.207   6.221 -0.0601  0.5625 -0.2459
    7SAPS   C31  831   6.787   3.123   6.174 -0.4920  0.5431 -0.2093
    7SAPS   O32  832   6.848   3.042   6.244  0.6103  0.2424  0.1389
    7SAPS   C32  833   6.822   3.152   6.026 -0.1712 -0.6065 -0.2884
    7SAPS   H2X  834   6.834   3.262   6.025 -0.7998 -0.5296  0.0180
    7SAPS   H2Y  835   6.739   3.119   5.960 -0.8560 -0.7991  0.6486
    7SAPS   C23  836   6.145   3.433   6.223 -0.2059 -0.2770 -0.1584
    7SAPS   H3R  837   6.135   3.520   6.291  0.9960  1.4551 -2.0551
    7SAPS   H3S  838   6.049   3.381   6.206 -0.6958  0.4126  0.4260
    7SAPS   C24  839   6.194   3.481   6.086  0.0387 -0.4559  0.5023
    7SAPS   H4R  840   6.135   3.571   6.056  0.9071 -0.4995 -1.5105
    7SAPS   H4S  841   6.176   3.396   6.017  0.8119 -0.9781  0.9385
    7SAPS   C25  842   6.336   3.506   6.088  0.4378 -0.2516  0.5385
    7SAPS   H5R  843   6.368   3.594   6.145 -2.0365  0.4342  0.9682
    7SAPS   C26  844   6.427   3.428   6.031 -0.2214  0.0779 -1.1912
    7SAPS   H6R  845   6.532   3.458   6.042 -0.2855  0.3024 -1.2038
    7SAPS   C27  846   6.409   3.295   5.964 -0.6569 -0.4996  0.3807
    7SAPS   H7R  847   6.328   3.247   6.024 -1.1428  1.4680  1.3984
    7SAPS   H7S  848   6.508   3.246   5.974  0.1576  1.1936  1.2262
    7SAPS   C28  849   6.367   3.307   5.815  0.0558 -1.1112  0.2566
    7SAPS   H8R  850   6.275   3.258   5.780  0.4730 -2.5151  1.0347
    7SAPS   C29  851   6.453   3.363   5.716  0.2709  0.5941  0.1503
    7SAPS   H9R  852   6.420   3.350   5.611  2.4195 -3.9892 -0.1823
    7SAPS  C210  853   6.589   3.432   5.727  1.0123  0.1287  0.0344
    7SAPS  H10R  854   6.591   3.476   5.829  0.2816  2.7899 -1.0132
    7SAPS  H10S  855   6.603   3.514   5.653  1.1440  1.8808  1.9320
    7SAPS  C211  856   6.708   3.343   5.713 -0.1234 -0.3859  0.7866
    7SAPS  H11R  857   6.780   3.340   5.796  0.9856  0.0570 -0.1282
    7SAPS  C212  858   6.751   3.292   5.592  0.1624 -0.9547 -0.8060
    7SAPS  H12R  859   6.832   3.216   5.590  0.7403 -0.3401 -1.7457
    7SAPS  C213  860   6.681   3.302   5.458  0.4335  0.3772  0.0031
    7SAPS  H13R  861   6.573   3.299   5.485  0.5495 -0.4174  0.4126
    7SAPS  H13S  862   6.689   3.222   5.382  1.6173  1.5740 -1.1802
    7SAPS  C214  863   6.708   3.438   5.391 -0.1839  1.0861  0.2860
    7SAPS  H14R  864   6.694   3.525   5.457  0.9311  0.3958  1.4791
    7SAPS  C215  865   6.742   3.455   5.259  0.1043  0.1378  0.0220
    7SAPS  H15R  866   6.766   3.555   5.218 -1.5415  1.3491  1.8360
    7SAPS  C216  867   6.761   3.351   5.155 -1.4256 -0.5656  0.1019
    7SAPS  H16R  868   6.668   3.292   5.141 -0.5687 -1.8852 -0.2238
    7SAPS  H16S  869   6.842   3.286   5.195 -0.5764  1.9369  2.7794
    7SAPS  C217  870   6.808   3.417   5.024  0.4672  0.2647 -0.5372
    7SAPS  H17R  871   6.837   3.333   4.958  2.3246  0.8897 -0.5666
    7SAPS  H17S  872   6.902   3.470   5.046 -0.1954  0.4077  2.3191
    7SAPS  C218  873   6.703   3.486   4.943  0.2271 -0.4021  0.3346
    7SAPS  H18R  874   6.631   3.542   5.006 -0.7178 -0.9084 -0.2599
    7SAPS  H18S  875   6.646   3.409   4.886  0.0509  0.0487 -0.1099
    7SAPS  C219  876   6.741   3.576   4.820 -0.0602 -0.1926  0.1420
    7SAPS  H19R  877   6.792   3.512   4.745  0.5993 -1.4093  1.5862
    7SAPS  H19S  878   6.826   3.637   4.856 -1.3741  1.1470  1.0906
    7SAPS  C220  879   6.622   3.651   4.764  0.6596  0.2795  0.1961
    7SAPS  H20R  880   6.572   3.725   4.829 -2.7188 -2.1489  0.6071
    7SAPS  H20S  881   6.542   3.580   4.732  0.4633  0.3319  0.5641
    7SAPS  H20T  882   6.656   3.710   4.676  1.8244  1.0741  1.1618
    7SAPS   C33  883   6.956   3.091   5.981  0.2257  0.8953 -0.0644
    7SAPS   H3X  884   6.944   2.988   5.942 -0.4439  0.8183  0.3306
    7SAPS   H3Y  885   7.022   3.087   6.071  0.0286  0.6028  0.0674
    7SAPS   C34  886   7.030   3.173   5.876  0.4101  0.2446 -0.4298
    7SAPS   H4X  887   6.969   3.179   5.784 -0.1019 -1.7187 -0.2605
    7SAPS   H4Y  888   7.124   3.127   5.837  0.5364  0.6493 -0.6008
    7SAPS   C35  889   7.063   3.322   5.913  0.2016 -0.4200 -0.6172
    7SAPS   H5X  890   7.119   3.312   6.008 -3.8356 -2.6279  1.8054
    7SAPS   H5Y  891   6.970   3.378   5.934 -1.3489 -2.2677 -2.1524
    7SAPS   C36  892   7.154   3.399   5.813 -0.1614  0.0410 -0.5618
    7SAPS   H6X  893   7.246   3.341   5.792  2.1783  2.7815  1.2736
    7SAPS   H6Y  894   7.192   3.491   5.862  1.6552 -0.3544 -1.1206
    7SAPS   C37  895   7.081   3.437   5.690  0.0971 -0.0175  0.3158
    7SAPS   H7X  896   6.982   3.481   5.715  0.6771  1.4676  0.0970
    7SAPS   H7Y  897   7.060   3.341   5.637 -0.0940  0.8566 -1.2429
    7SAPS   C38  898   7.158   3.538   5.602  0.3078  0.1745  0.7471
    7SAPS   H8X  899   7.262   3.500   5.594  1.1553  2.6131 -1.2750
    7SAPS   H8Y  900   7.158   3.638   5.651 -2.9084  0.4251  0.4906
    7SAPS   C39  901   7.103   3.545   5.458  0.5481 -0.4671 -0.8294
    7SAPS   H9X  902   7.001   3.587   5.456 -0.0284 -1.7754 -0.1472
    7SAPS   H9Y  903   7.097   3.443   5.414 -2.0529 -0.1309 -1.3961
    7SAPS  C310  904   7.197   3.624   5.357  0.6062 -0.0230 -0.4293
    7SAPS  H10X  905   7.303   3.599   5.375  0.9378  1.8432  0.4511
    7SAPS  H10Y  906   7.194   3.733   5.375 -0.5660 -0.0902 -0.1342
    7SAPS  C311  907   7.160   3.605   5.209 -0.2373  0.3863 -0.0867
    7SAPS  H11X  908   7.057   3.646   5.197 -0.1600  1.3828  2.1265
    7SAPS  H11Y  909   7.155   3.495   5.192  1.4251  0.4252 -1.0631
    7SAPS  C312  910   7.258   3.670   5.103  0.2422  0.2343 -0.0173
    7SAPS  H12X  911   7.354   3.645   5.152 -0.0662 -2.0669 -0.4497
    7SAPS  H12Y  912   7.238   3.776   5.077  0.2053  0.3489  0.4852
    7SAPS  C313  913   7.262   3.599   4.972 -0.3032 -0.3962  0.2423
    7SAPS  H13X  914   7.253   3.492   4.998 -3.2560 -1.1716 -3.2184
    7SAPS  H13Y  915   7.356   3.616   4.916  0.3141 -0.9876  1.0734
    7SAPS  C314  916   7.150   3.634   4.875  0.7675 -0.7527 -0.0531
    7SAPS  H14X  917   7.162   3.742   4.852  1.5716 -0.8884 -0.2955
    7SAPS  H14Y  918   7.055   3.631   4.932  0.9852  0.9029  0.4457
    7SAPS  C315  919   7.143   3.548   4.746  0.2277  0.1360  0.3563
    7SAPS  H15X  920   7.056   3.588   4.690 -0.3808 -0.2421  1.0231
    7SAPS  H15Y  921   7.125   3.439   4.757  2.4442 -0.6991 -2.8747
    7SAPS  C316  922   7.271   3.552   4.663 -0.7148  0.4782 -0.5899
    7SAPS  H16X  923   7.363   3.526   4.719 -0.6877  0.1438 -0.7852
    7SAPS  H16Y  924   7.284   3.661   4.641 -2.6437  0.8272 -0.1783
    7SAPS  C317  925   7.261   3.471   4.532 -1.1328  0.7921 -0.8453
    7SAPS  H17X  926   7.275   3.365   4.562 -1.8508  1.3386  1.6019
    7SAPS  H17Y  927   7.354   3.505   4.480  0.2263 -0.7011  0.4700
    7SAPS  C318  928   7.135   3.471   4.452  0.4822  0.1898 -0.0627
    7SAPS  H18X  929   7.047   3.452   4.518 -0.7938  1.2060 -1.4065
    7SAPS  H18Y  930   7.138   3.384   4.384 -0.6776 -0.2289  0.4138
    7SAPS  H18Z  931   7.122   3.566   4.396  0.9374  0.5881  0.4847
    8SAPS     N  932   3.755   4.251   6.406  0.1018 -0.1267  0.3578
    8SAPS   HN1  933   3.716   4.229   6.313 -0.6926  1.4262  0.2861
    8SAPS   HN2  934   3.748   4.353   6.424 -1.6487  0.0118 -0.8590
    8SAPS   HN3  935   3.856   4.229   6.414  0.2257  0.6824  1.2166
    8SAPS   C12  936   3.686   4.185   6.522 -0.0076 -0.1053 -0.9256
    8SAPS  H12A  937   3.681   4.078   6.506  0.7171 -0.2107 -0.5065
    8SAPS   C13  938   3.758   4.199   6.661  0.2260  1.2173  0.5505
    8SAPS  O13A  939   3.873   4.245   6.672  0.5098 -0.4885 -0.4841
    8SAPS  O13B  940   3.699   4.134   6.757 -0.3109 -0.2444 -0.0144
    8SAPS   C11  941   3.539   4.226   6.532  1.2663  0.0637  0.2976
    8SAPS  H11A  942   3.490   4.168   6.613  0.8334 -1.1546 -0.7979
    8SAPS  H11B  943   3.492   4.194   6.436  0.2320  2.2271  0.0398
    8SAPS     P  944   3.372   4.420   6.566  0.1498 -0.4333  0.3920
    8SAPS   O13  945   3.305   4.344   6.671  0.1412 -0.1042 -0.0959
    8SAPS   O14  946   3.377   4.565   6.578 -0.0221 -0.2377 -0.2020
    8SAPS   O12  947   3.525   4.368   6.554 -0.4279 -0.2566  0.1562
    8SAPS   O11  948   3.295   4.375   6.434 -0.2427 -0.2760  0.2803
    8SAPS    C1  949   3.359   4.365   6.307  0.2418 -0.7252 -0.3187
    8SAPS    HA  950   3.461   4.409   6.308 -0.4207  0.8964  0.7224
    8SAPS    HB  951   3.360   4.261   6.270 -0.3698 -0.7142 -0.3786
    8SAPS    C2  952   3.281   4.454   6.199 -0.0933  0.0866  0.2001
    8SAPS    HS  953   3.173   4.428   6.202 -0.5371  1.7929 -0.0043
    8SAPS   O21  954   3.333   4.434   6.070 -1.0057  0.5072  0.1154
    8SAPS   C21  955   3.263   4.357   5.981  1.0014  0.3997  0.0114
    8SAPS   O22  956   3.152   4.309   5.994  0.3767 -0.5739  0.3424
    8SAPS   C22  957   3.369   4.339   5.865  0.0311 -0.1950 -0.2644
    8SAPS   H2R  958   3.394   4.446   5.846 -1.4497  0.4774  1.4052
    8SAPS   H2S  959   3.463   4.296   5.907  0.7620  0.2625 -1.3615
    8SAPS    C3  960   3.279   4.610   6.232  0.5121  0.7129 -0.2453
    8SAPS    HX  961   3.389   4.622   6.234  0.3938  2.0551 -0.7086
    8SAPS    HY  962   3.235   4.637   6.330  2.1942 -1.3560  1.1615
    8SAPS   O31  963   3.236   4.681   6.122  0.1736 -0.2662  0.6321
    8SAPS   C31  964   3.112   4.718   6.123  1.0391  0.3431 -0.2733
    8SAPS   O32  965   3.040   4.708   6.222 -0.0710 -0.0707 -0.0324
    8SAPS   C32  966   3.067   4.760   5.983  0.3519  0.3984 -0.0829
    8SAPS   H2X  967   3.128   4.840   5.936 -1.0835  1.3774 -0.3577
    8SAPS   H2Y  968   2.959   4.783   5.996  0.4259 -0.4422  2.6619
    8SAPS   C23  969   3.317   4.268   5.738 -0.8888 -0.1389 -0.1105
    8SAPS   H3R  970   3.206   4.271   5.724 -0.7380  1.9105 -1.3265
    8SAPS   H3S  971   3.326   4.165   5.779 -1.6708  0.9270  2.9713
    8SAPS   C24  972   3.393   4.291   5.605 -0.1837  0.0841  0.2298
    8SAPS   H4R  973   3.365   4.207   5.538 -0.3699  0.9360 -0.7724
    8SAPS   H4S  974   3.499   4.292   5.639 -0.3419 -0.7101  0.7980
    8SAPS   C25  975   3.350   4.425   5.543  0.6968 -0.2739 -0.0394
    8SAPS   H5R  976   3.348   4.506   5.617 -0.3479  0.0120 -0.3622
    8SAPS   C26  977   3.306   4.457   5.418  0.6216  0.0536  0.5806
    8SAPS   H6R  978   3.274   4.561   5.399 -0.1688  0.3557  3.1278
    8SAPS   C27  979   3.293   4.364   5.295 -0.1869  0.4975 -0.5140
    8SAPS   H7R  980   3.187   4.364   5.259 -0.4702  0.8691  0.2899
    8SAPS   H7S  981   3.308   4.256   5.318 -0.2685  0.6502  0.2901
    8SAPS   C28  982   3.388   4.387   5.184  0.4173  0.1397  0.2320
    8SAPS   H8R  983   3.494   4.392   5.213  0.3882 -1.5893  0.8002
    8SAPS   C29  984   3.344   4.416   5.059 -0.5583  0.3764 -0.8440
    8SAPS   H9R  985   3.417   4.424   4.977 -0.0838 -0.7712 -0.5442
    8SAPS  C210  986   3.207   4.425   5.002  0.1693  0.4976 -0.9956
    8SAPS  H10R  987   3.204   4.527   4.957 -2.9388  0.6737 -0.6092
    8SAPS  H10S  988   3.133   4.431   5.085 -0.1490  1.8032 -1.3389
    8SAPS  C211  989   3.181   4.311   4.911  0.1483  0.0016 -0.5816
    8SAPS  H11R  990   3.150   4.214   4.953 -1.0376  1.0620  1.0914
    8SAPS  C212  991   3.188   4.316   4.777 -1.3683  0.2154 -1.1828
    8SAPS  H12R  992   3.185   4.221   4.721  3.7046 -2.0015  1.5814
    8SAPS  C213  993   3.224   4.436   4.695 -0.6543  0.4194 -0.0165
    8SAPS  H13R  994   3.241   4.519   4.767 -0.8476  0.6763 -0.2673
    8SAPS  H13S  995   3.139   4.464   4.629  1.1278  0.3088 -2.5155
    8SAPS  C214  996   3.351   4.415   4.615  0.9572  0.5487 -0.3684
    8SAPS  H14R  997   3.443   4.410   4.674  0.3344 -0.9030  0.5392
    8SAPS  C215  998   3.362   4.412   4.479  0.1960  0.1969 -0.0742
    8SAPS  H15R  999   3.463   4.409   4.435 -0.8179 -1.6564 -2.5181
    8SAPS  C216 1000   3.249   4.443   4.383 -0.2747  0.2836 -0.4758
    8SAPS  H16R 1001   3.148   4.434   4.430 -1.0068  0.3553 -1.9684
    8SAPS  H16S 1002   3.246   4.363   4.306 -0.2040  1.1576 -1.3901
    8SAPS  C217 1003   3.247   4.575   4.303 -0.6170 -1.0684 -0.2769
    8SAPS  H17R 1004   3.347   4.585   4.255 -0.3552 -1.2284  0.2268
    8SAPS  H17S 1005   3.245   4.657   4.377  0.9366 -2.5270  1.5015
    8SAPS  C218 1006   3.132   4.596   4.202  0.3386  0.0471  0.0342
    8SAPS  H18R 1007   3.036   4.603   4.258  0.9263 -0.9394  1.2221
    8SAPS  H18S 1008   3.126   4.517   4.124  0.6878  1.2098 -1.2047
    8SAPS  C219 1009   3.146   4.723   4.119 -0.8799  0.3175  0.5644
    8SAPS  H19R 1010   3.223   4.700   4.042 -3.0199 -3.6626 -0.6539
    8SAPS  H19S 1011   3.184   4.807   4.182 -0.3696 -0.5753  1.4913
    8SAPS  C220 1012   3.013   4.776   4.052  0.5257 -0.4500  0.3003
    8SAPS  H20R 1013   2.951   4.693   4.012  0.5715 -1.0487  1.4476
    8SAPS  H20S 1014   3.019   4.850   3.968 -1.1825  0.4486  0.9275
    8SAPS  H20T 1015   2.958   4.821   4.137 -1.2440 -0.6230 -0.7017
    8SAPS   C33 1016   3.083   4.648   5.877 -0.2370  0.2086  0.3818
    8SAPS   H3X 1017   3.059   4.557   5.935 -1.9941  0.9369  0.8639
    8SAPS   H3Y 1018   3.185   4.640   5.835 -0.2064 -0.7686  0.6244
    8SAPS   C34 1019   2.991   4.656   5.757  0.7090 -0.0236  0.0907
    8SAPS   H4X 1020   3.001   4.734   5.678 -3.3248 -0.4470 -1.0348
    8SAPS   H4Y 1021   2.894   4.680   5.804  0.6410 -3.4800  1.9796
    8SAPS   C35 1022   2.987   4.520   5.677  0.8656  0.0062  0.8983
    8SAPS   H5X 1023   2.950   4.441   5.745  2.8057  0.5661  2.7037
    8SAPS   H5Y 1024   3.084   4.490   5.633 -0.9958 -2.9940 -1.5947
    8SAPS   C36 1025   2.889   4.544   5.559  0.1963  0.4027 -0.0656
    8SAPS   H6X 1026   2.925   4.624   5.491 -1.4730  1.6398  0.4472
    8SAPS   H6Y 1027   2.789   4.572   5.597  0.6255  2.9347 -0.6546
    8SAPS   C37 1028   2.881   4.409   5.478 -0.8398 -0.6751  0.1404
    8SAPS   H7X 1029   2.845   4.326   5.543  1.8014 -1.7425  0.3424
    8SAPS   H7Y 1030   2.988   4.385   5.463 -0.6271 -0.5381  1.3343
    8SAPS   C38 1031   2.782   4.423   5.357  0.4459  0.0670 -1.0530
    8SAPS   H8X 1032   2.720   4.515   5.357 -1.3117 -1.0506 -0.5537
    8SAPS   H8Y 1033   2.720   4.331   5.358  1.5028 -0.6625 -0.3705
    8SAPS   C39 1034   2.848   4.425   5.217  0.4021  0.1510  0.1274
    8SAPS   H9X 1035   2.913   4.335   5.224 -1.3186 -1.0658  1.4255
    8SAPS   H9Y 1036   2.902   4.519   5.193 -0.5359  0.4331 -0.9226
    8SAPS  C310 1037   2.742   4.400   5.109 -0.1100  0.6452 -0.3750
    8SAPS  H10X 1038   2.668   4.482   5.099 -1.4691 -0.5494 -0.4026
    8SAPS  H10Y 1039   2.678   4.309   5.119  0.4005  0.3074 -0.1049
    8SAPS  C311 1040   2.814   4.389   4.972  0.0631 -0.3241  0.1502
    8SAPS  H11X 1041   2.884   4.302   4.968 -0.6623 -0.8839 -1.1025
    8SAPS  H11Y 1042   2.879   4.477   4.958  0.3908 -0.2186  2.0157
    8SAPS  C312 1043   2.713   4.369   4.859 -1.0193  0.0303  0.2649
    8SAPS  H12X 1044   2.618   4.425   4.875 -0.9743 -0.3050  1.9684
    8SAPS  H12Y 1045   2.688   4.261   4.855 -0.6232 -0.1661  2.0097
    8SAPS  C313 1046   2.767   4.398   4.717  0.0253 -0.4377 -1.0021
    8SAPS  H13X 1047   2.855   4.333   4.693  1.3109  0.1024  1.8818
    8SAPS  H13Y 1048   2.795   4.504   4.703 -0.2231 -0.3317 -0.6900
    8SAPS  C314 1049   2.663   4.372   4.600 -0.5776  0.8526 -0.5452
    8SAPS  H14X 1050   2.567   4.425   4.622  0.2952  2.4563 -0.4573
    8SAPS  H14Y 1051   2.633   4.265   4.593  0.1489  0.6491 -0.6313
    8SAPS  C315 1052   2.725   4.404   4.464  0.2557  0.4418  0.2769
    8SAPS  H15X 1053   2.830   4.366   4.458 -0.0750 -0.4687  0.0871
    8SAPS  H15Y 1054   2.726   4.515   4.462 -2.0556  0.5060  0.4290
    8SAPS  C316 1055   2.645   4.354   4.343 -0.7543 -0.9446 -0.7693
    8SAPS  H16X 1056   2.540   4.392   4.351 -0.3758 -0.0181 -0.0476
    8SAPS  H16Y 1057   2.641   4.243   4.339  0.3987 -0.9684 -1.8364
    8SAPS  C317 1058   2.702   4.410   4.206  0.3171  0.1847 -0.5778
    8SAPS  H17X 1059   2.806   4.370   4.202 -0.2372 -1.2773 -1.2225
    8SAPS  H17Y 1060   2.702   4.521   4.206  1.3095  0.2053  0.2398
    8SAPS  C318 1061   2.624   4.352   4.088  0.2640 -0.1775  0.5521
    8SAPS  H18X 1062   2.517   4.355   4.116  0.7211 -0.6311  2.5245
    8SAPS  H18Y 1063   2.647   4.246   4.064 -1.4476 -0.7433  1.2876
    8SAPS  H18Z 1064   2.635   4.414   3.997 -0.6688 -1.8424 -0.7608
    9SAPS     N 1065   3.695   1.604   6.366  0.4237  0.3688 -0.3863
    9SAPS   HN1 1066   3.665   1.506   6.351 -0.6000  0.5056  0.6511
    9SAPS   HN2 1067   3.640   1.663   6.431  1.1744  0.6455  0.0120
    9SAPS   HN3 1068   3.711   1.652   6.275  2.8927  1.5249  0.5534
    9SAPS   C12 1069   3.829   1.591   6.444 -0.5631 -0.4229 -0.5141
    9SAPS  H12A 1070   3.912   1.616   6.379  1.3312 -0.8917  1.6046
    9SAPS   C13 1071   3.846   1.678   6.568 -0.0679  0.4286 -0.3943
    9SAPS  O13A 1072   3.752   1.754   6.608 -0.3494 -0.4564  0.0208
    9SAPS  O13B 1073   3.962   1.702   6.611  0.2728 -0.1229 -0.5963
    9SAPS   C11 1074   3.858   1.441   6.472 -0.1714  0.5561  0.4646
    9SAPS  H11A 1075   3.780   1.412   6.546 -0.8609 -0.3914 -0.6139
    9SAPS  H11B 1076   3.959   1.447   6.518  0.3872 -0.0363 -0.6570
    9SAPS     P 1077   3.986   1.338   6.270  0.2322  0.3356 -0.3079
    9SAPS   O13 1078   4.097   1.296   6.357 -0.2013  0.0212 -0.4328
    9SAPS   O14 1079   3.946   1.246   6.162  0.0430  0.4087  0.0634
    9SAPS   O12 1080   3.860   1.350   6.355  0.0265  0.6013  0.4690
    9SAPS   O11 1081   4.005   1.490   6.221 -0.1936 -0.6538 -0.2164
    9SAPS    C1 1082   3.953   1.524   6.091  0.3334  0.2674  1.0246
    9SAPS    HA 1083   3.856   1.474   6.070  0.7862  0.3851 -1.7019
    9SAPS    HB 1084   3.919   1.629   6.080  0.4793  0.1682 -0.5971
    9SAPS    C2 1085   4.053   1.491   5.974 -0.6634  0.0247  0.1589
    9SAPS    HS 1086   4.067   1.383   5.955  0.1586 -0.0359  1.0174
    9SAPS   O21 1087   4.180   1.555   5.997  0.4677  0.1976 -0.2900
    9SAPS   C21 1088   4.292   1.492   5.957 -0.5932  0.0846 -0.0976
    9SAPS   O22 1089   4.295   1.386   5.898  0.0943 -0.1407  0.6187
    9SAPS   C22 1090   4.407   1.576   6.010  0.7946  0.0026  0.6031
    9SAPS   H2R 1091   4.377   1.680   5.983 -1.0745 -0.7133 -0.2741
    9SAPS   H2S 1092   4.425   1.558   6.118 -0.2815 -1.5415  0.5506
    9SAPS    C3 1093   3.991   1.562   5.853 -0.6841  0.0745  0.0610
    9SAPS    HX 1094   3.996   1.667   5.889 -1.7269 -0.1200  0.8167
    9SAPS    HY 1095   3.882   1.548   5.843 -0.9872  0.2781  2.4766
    9SAPS   O31 1096   4.077   1.544   5.734 -0.1322 -0.2822  0.3808
    9SAPS   C31 1097   4.056   1.422   5.690 -0.1472 -0.1551  0.7316
    9SAPS   O32 1098   3.978   1.340   5.724  0.6162  0.1096 -0.0962
    9SAPS   C32 1099   4.164   1.394   5.596 -1.4382 -0.3630  0.3122
    9SAPS   H2X 1100   4.219   1.303   5.626  1.3899  0.2129 -2.5168
    9SAPS   H2Y 1101   4.233   1.481   5.604  0.2862 -1.6228 -0.1986
    9SAPS   C23 1102   4.546   1.549   5.941  0.2128 -0.1816  0.5635
    9SAPS   H3R 1103   4.552   1.576   5.833  2.0008 -0.1553  0.6531
    9SAPS   H3S 1104   4.562   1.439   5.945 -2.9812 -0.7400  0.5813
    9SAPS   C24 1105   4.673   1.620   6.002 -0.2626 -0.4521 -0.0572
    9SAPS   H4R 1106   4.771   1.596   5.957 -0.0796  2.6023 -1.5598
    9SAPS   H4S 1107   4.686   1.577   6.104  3.4174  1.1985  0.2998
    9SAPS   C25 1108   4.656   1.770   6.016 -0.3243  0.0877 -0.1719
    9SAPS   H5R 1109   4.650   1.816   6.115 -0.0537 -0.4968  0.1209
    9SAPS   C26 1110   4.678   1.852   5.907 -0.3231 -0.3333  0.0391
    9SAPS   H6R 1111   4.684   1.960   5.924  1.4740 -0.5670  1.1874
    9SAPS   C27 1112   4.718   1.798   5.772  0.6948 -0.1426  0.0507
    9SAPS   H7R 1113   4.760   1.696   5.786  1.5618 -0.0736 -1.7029
    9SAPS   H7S 1114   4.805   1.853   5.730  0.6200 -0.6257 -0.7732
    9SAPS   C28 1115   4.601   1.789   5.678  0.3233 -0.8903 -0.9678
    9SAPS   H8R 1116   4.527   1.870   5.691  1.2796 -0.3021  1.5604
    9SAPS   C29 1117   4.577   1.705   5.585 -0.3850 -0.2318 -0.1688
    9SAPS   H9R 1118   4.481   1.701   5.532 -1.1163  0.5891  1.0599
    9SAPS  C210 1119   4.677   1.595   5.544  1.1400  0.2684 -0.1502
    9SAPS  H10R 1120   4.704   1.541   5.637 -0.8781  0.5713  0.6595
    9SAPS  H10S 1121   4.773   1.636   5.505  0.6373  0.3451 -1.3664
    9SAPS  C211 1122   4.626   1.497   5.443  0.5019  0.0576 -0.4438
    9SAPS  H11R 1123   4.579   1.415   5.499 -0.8301  1.4997  0.6307
    9SAPS  C212 1124   4.626   1.499   5.306  0.4691  0.3753  0.1174
    9SAPS  H12R 1125   4.580   1.416   5.251 -0.0625  0.5174  0.3400
    9SAPS  C213 1126   4.705   1.596   5.225  1.1651 -0.3859 -0.5716
    9SAPS  H13R 1127   4.810   1.561   5.212  1.2766 -0.9995  1.5857
    9SAPS  H13S 1128   4.708   1.691   5.283  2.7650 -0.3435 -0.6716
    9SAPS  C214 1129   4.629   1.615   5.100  0.7481  0.2206  0.0715
    9SAPS  H14R 1130   4.519   1.615   5.105  0.5726  0.5615 -2.5302
    9SAPS  C215 1131   4.685   1.628   4.977  0.0982 -0.4088  0.2953
    9SAPS  H15R 1132   4.617   1.651   4.894 -1.1208  3.2088  2.1262
    9SAPS  C216 1133   4.830   1.640   4.946 -1.1431  0.4552 -0.3000
    9SAPS  H16R 1134   4.891   1.597   5.028 -2.0443 -2.8257 -1.1967
    9SAPS  H16S 1135   4.862   1.745   4.929  0.3927 -0.4102 -3.5241
    9SAPS  C217 1136   4.890   1.574   4.816 -0.7785 -0.4296  0.9439
    9SAPS  H17R 1137   4.885   1.463   4.818  0.0155 -0.5342 -0.9891
    9SAPS  H17S 1138   4.996   1.602   4.830 -0.5886  0.3138 -1.4987
    9SAPS  C218 1139   4.847   1.646   4.685 -0.2542  0.6540  0.4584
    9SAPS  H18R 1140   4.883   1.751   4.681  0.9013  0.2474 -0.4836
    9SAPS  H18S 1141   4.737   1.645   4.668 -0.5851 -1.0607  2.3893
    9SAPS  C219 1142   4.936   1.569   4.581  0.2783 -0.3044 -0.5486
    9SAPS  H19R 1143   4.908   1.464   4.559 -0.2009 -0.2605 -0.1699
    9SAPS  H19S 1144   5.034   1.561   4.633 -1.0704 -1.5580  2.0237
    9SAPS  C220 1145   4.946   1.641   4.450  0.2611 -0.4728 -0.5713
    9SAPS  H20R 1146   4.846   1.656   4.404 -0.3841  0.3474  1.0065
    9SAPS  H20S 1147   5.007   1.581   4.380  1.8297  1.0632 -0.5805
    9SAPS  H20T 1148   4.990   1.742   4.464  0.4339 -0.7348  0.9441
    9SAPS   C33 1149   4.114   1.395   5.452 -0.1265  0.0746  0.1599
    9SAPS   H3X 1150   4.077   1.499   5.436 -0.9175 -0.5482 -2.4660
    9SAPS   H3Y 1151   4.023   1.332   5.446 -0.9393  1.2680 -0.3848
    9SAPS   C34 1152   4.229   1.376   5.355 -0.0339  0.1214 -0.0692
    9SAPS   H4X 1153   4.283   1.285   5.388 -1.5934 -0.4337  1.0194
    9SAPS   H4Y 1154   4.294   1.466   5.365  3.1312 -1.2418 -4.6133
    9SAPS   C35 1155   4.179   1.367   5.207  0.3340  0.0436 -0.7233
    9SAPS   H5X 1156   4.111   1.452   5.186 -1.7806 -1.6061 -1.0042
    9SAPS   H5Y 1157   4.133   1.267   5.191  0.6428  0.0801 -1.9609
    9SAPS   C36 1158   4.292   1.388   5.113  0.2630 -0.5560 -0.4745
    9SAPS   H6X 1159   4.377   1.328   5.152  0.1836 -0.9795 -0.9422
    9SAPS   H6Y 1160   4.326   1.493   5.112  0.8653 -0.6804  1.5692
    9SAPS   C37 1161   4.275   1.341   4.968  0.2426 -0.0521 -0.0676
    9SAPS   H7X 1162   4.228   1.426   4.913  0.8456  1.6300  1.8940
    9SAPS   H7Y 1163   4.207   1.254   4.973  0.0183 -0.0586 -2.1735
    9SAPS   C38 1164   4.403   1.289   4.901 -0.6164  0.1096  0.3604
    9SAPS   H8X 1165   4.443   1.217   4.976  0.0474  0.9142  0.7940
    9SAPS   H8Y 1166   4.480   1.369   4.905 -1.1491  0.6579 -0.2658
    9SAPS   C39 1167   4.388   1.234   4.762  0.1036  0.0550 -0.5219
    9SAPS   H9X 1168   4.368   1.313   4.686  2.3301  1.1006 -0.0943
    9SAPS   H9Y 1169   4.294   1.175   4.769 -0.3664  0.7310 -1.0086
    9SAPS  C310 1170   4.497   1.135   4.715 -0.0425 -0.0639  0.5208
    9SAPS  H10X 1171   4.592   1.147   4.772  0.2806  0.4825 -0.1254
    9SAPS  H10Y 1172   4.516   1.151   4.607 -0.9079  0.2878  0.4168
    9SAPS  C311 1173   4.454   0.993   4.714 -0.7836 -0.2715  0.3808
    9SAPS  H11X 1174   4.368   0.971   4.647 -0.9663  3.0761 -0.6529
    9SAPS  H11Y 1175   4.417   0.965   4.815  1.9092 -2.2610  0.9532
    9SAPS  C312 1176   4.566   0.903   4.680  0.2351 -0.0809  0.4732
    9SAPS  H12X 1177   4.615   0.859   4.770 -1.9809 -1.4685  1.0709
    9SAPS  H12Y 1178   4.642   0.955   4.618  0.2386 -0.5731  0.0500
    9SAPS  C313 1179   4.532   0.772   4.596  0.2293 -0.2919 -0.5972
    9SAPS  H13X 1180   4.631   0.730   4.570  0.0455 -1.5150  0.5790
    9SAPS  H13Y 1181   4.476   0.801   4.505  1.8553  1.0493 -1.2208
    9SAPS  C314 1182   4.459   0.674   4.682  1.4734  0.3436 -0.4457
    9SAPS  H14X 1183   4.357   0.714   4.704  1.2218 -0.8722  0.7098
    9SAPS  H14Y 1184   4.509   0.667   4.780 -0.6525  2.2158  0.8802
    9SAPS  C315 1185   4.449   0.535   4.622  0.2107 -0.2270 -0.5001
    9SAPS  H15X 1186   4.548   0.487   4.609 -0.1792 -1.4995  0.9686
    9SAPS  H15Y 1187   4.410   0.552   4.519 -2.8979  0.8568  0.7351
    9SAPS  C316 1188   4.356   0.435   4.693  0.3943  0.0870 -0.2088
    9SAPS  H16X 1189   4.252   0.473   4.692  0.4828  0.6421  2.5102
    9SAPS  H16Y 1190   4.380   0.433   4.802 -3.7875  1.3656  0.9179
    9SAPS  C317 1191   4.349   0.289   4.636 -0.5332  0.1007  0.7599
    9SAPS  H17X 1192   4.302   0.210   4.699  0.5656 -0.6363  0.6806
    9SAPS  H17Y 1193   4.454   0.257   4.620 -0.5412  1.3716 -2.6644
    9SAPS  C318 1194   4.278   0.277   4.503  1.1226 -0.5220 -0.5394
    9SAPS  H18X 1195   4.321   0.351   4.432  1.1330 -0.4119 -0.4194
    9SAPS  H18Y 1196   4.168   0.290   4.506  1.2911  0.8215  1.2194
    9SAPS  H18Z 1197   4.302   0.174   4.468  0.9674 -1.6513  2.3801
   10SAPS     N 1198   4.434   1.310   7.023  0.0346  0.6138  0.0609
   10SAPS   HN1 1199   4.486   1.399   7.029  2.3959 -0.4812 -2.1874
   10SAPS   HN2 1200   4.372   1.285   7.103  1.0394 -4.2174 -0.3271
   10SAPS   HN3 1201   4.509   1.238   7.022 -0.6609 -0.1419  0.3531
   10SAPS   C12 1202   4.375   1.293   6.891 -0.5793  0.9751  0.2507
   10SAPS  H12A 1203   4.327   1.197   6.895 -1.7190  1.5350  0.4281
   10SAPS   C13 1204   4.262   1.397   6.871  0.8888 -0.2233 -0.0396
   10SAPS  O13A 1205   4.217   1.475   6.962 -0.5087  0.1422 -0.0405
   10SAPS  O13B 1206   4.193   1.387   6.766 -0.1990 -0.1474 -0.7762
   10SAPS   C11 1207   4.490   1.290   6.782 -0.0806  0.9030 -0.3954
   10SAPS  H11A 1208   4.523   1.391   6.753 -0.0643  0.9072 -0.3630
   10SAPS  H11B 1209   4.444   1.242   6.693 -0.2565 -1.3071  0.8055
   10SAPS     P 1210   4.726   1.196   6.729 -0.1358  0.3569 -0.2874
   10SAPS   O13 1211   4.788   1.330   6.697  0.0993 -0.6373 -0.3353
   10SAPS   O14 1212   4.821   1.101   6.787  0.5217 -0.4059 -0.7080
   10SAPS   O12 1213   4.597   1.208   6.826 -0.0813  0.1032  0.0628
   10SAPS   O11 1214   4.667   1.135   6.593 -0.0346 -0.4919 -0.5562
   10SAPS    C1 1215   4.638   0.999   6.575  0.0145  0.3420  0.0686
   10SAPS    HA 1216   4.731   0.941   6.555 -0.1274  0.6619 -1.6595
   10SAPS    HB 1217   4.584   0.954   6.661  3.0058 -1.1804  1.3065
   10SAPS    C2 1218   4.560   0.981   6.443  0.1332  0.2510 -0.1172
   10SAPS    HS 1219   4.532   0.874   6.429  2.3621 -0.1324 -2.4760
   10SAPS   O21 1220   4.635   1.025   6.331 -0.3107 -0.4619 -0.3398
   10SAPS   C21 1221   4.693   0.937   6.255  0.0333  0.3995  0.7768
   10SAPS   O22 1222   4.684   0.816   6.270  0.1539  0.2271 -0.1183
   10SAPS   C22 1223   4.772   1.013   6.142 -0.0917 -0.3561 -0.1545
   10SAPS   H2R 1224   4.747   1.121   6.146 -2.0868 -0.8123  0.7451
   10SAPS   H2S 1225   4.880   0.994   6.164  0.1510  0.5604 -0.5099
   10SAPS    C3 1226   4.416   1.049   6.442 -0.1737  0.1948  0.2679
   10SAPS    HX 1227   4.434   1.157   6.465  0.8275 -0.5149  3.2587
   10SAPS    HY 1228   4.360   1.007   6.528  3.2756 -1.2607  2.0098
   10SAPS   O31 1229   4.349   1.027   6.320 -0.0712  0.2625  0.1644
   10SAPS   C31 1230   4.354   1.125   6.231  1.3282 -0.2451 -0.4638
   10SAPS   O32 1231   4.406   1.230   6.243 -0.8721 -0.2000  0.0813
   10SAPS   C32 1232   4.276   1.082   6.100  0.2693  0.5871  0.6507
   10SAPS   H2X 1233   4.246   1.181   6.060 -1.0595 -0.5898 -1.4272
   10SAPS   H2Y 1234   4.193   1.018   6.138  2.6666 -2.7763  0.7599
   10SAPS   C23 1235   4.758   0.958   5.994 -0.0353 -0.6035  0.0855
   10SAPS   H3R 1236   4.653   0.978   5.961 -0.4904 -2.6355  0.1970
   10SAPS   H3S 1237   4.768   0.848   6.003  0.2608 -0.5199  0.7971
   10SAPS   C24 1238   4.859   1.004   5.886 -0.7716 -0.7312 -0.5841
   10SAPS   H4R 1239   4.962   0.986   5.923  0.1680  0.5366 -2.4349
   10SAPS   H4S 1240   4.864   1.114   5.877  0.9695 -0.7580 -0.2700
   10SAPS   C25 1241   4.832   0.961   5.747  0.4697  0.1196 -0.6063
   10SAPS   H5R 1242   4.753   1.003   5.683 -0.0579 -1.6017 -1.1522
   10SAPS   C26 1243   4.903   0.868   5.685  0.5819  0.1821  0.3102
   10SAPS   H6R 1244   4.881   0.840   5.581 -2.5156 -1.8518  1.3671
   10SAPS   C27 1245   5.022   0.794   5.755 -1.0750  0.3663 -0.1880
   10SAPS   H7R 1246   5.015   0.791   5.866 -1.1685 -1.6153 -0.2078
   10SAPS   H7S 1247   5.111   0.854   5.726 -1.0503 -0.2533 -1.4710
   10SAPS   C28 1248   5.028   0.650   5.705 -0.4647 -0.5255  1.0625
   10SAPS   H8R 1249   4.989   0.576   5.776  2.2552  0.0338  3.3138
   10SAPS   C29 1250   5.087   0.601   5.590  0.4247  0.8618 -0.1892
   10SAPS   H9R 1251   5.075   0.494   5.564  0.2699  1.0042 -0.7048
   10SAPS  C210 1252   5.163   0.670   5.477  0.1882  0.2626  0.2366
   10SAPS  H10R 1253   5.266   0.630   5.470  0.8067  1.7248  0.6408
   10SAPS  H10S 1254   5.166   0.780   5.492  0.6095  0.2613  0.1626
   10SAPS  C211 1255   5.097   0.658   5.343  0.0932  0.6487  0.6653
   10SAPS  H11R 1256   4.999   0.608   5.346  0.4111 -0.0358  0.2022
   10SAPS  C212 1257   5.145   0.706   5.222  0.3806  0.0720 -0.4013
   10SAPS  H12R 1258   5.090   0.694   5.128  1.0559  2.4814 -1.1838
   10SAPS  C213 1259   5.282   0.767   5.199  0.1380  0.1809 -0.0565
   10SAPS  H13R 1260   5.332   0.737   5.293 -2.6685 -2.1534  0.8484
   10SAPS  H13S 1261   5.268   0.877   5.196  0.3261  0.3867  3.4014
   10SAPS  C214 1262   5.369   0.719   5.088  0.9081  0.5210  0.2282
   10SAPS  H14R 1263   5.423   0.627   5.114 -1.5724 -0.4239  2.6285
   10SAPS  C215 1264   5.369   0.753   4.963 -0.1752  0.4544  0.0503
   10SAPS  H15R 1265   5.438   0.711   4.888  1.2933  1.7552  0.5959
   10SAPS  C216 1266   5.290   0.858   4.899  0.4053 -0.3627 -0.1912
   10SAPS  H16R 1267   5.216   0.905   4.968 -0.2196 -0.3485 -0.8549
   10SAPS  H16S 1268   5.227   0.810   4.821  0.6579 -0.8591 -0.0963
   10SAPS  C217 1269   5.379   0.967   4.818  0.2610  0.6654 -0.7165
   10SAPS  H17R 1270   5.454   1.011   4.887 -0.8022  2.6439 -0.7689
   10SAPS  H17S 1271   5.306   1.046   4.792  0.8525  1.0034 -1.4190
   10SAPS  C218 1272   5.436   0.911   4.681 -0.3766  0.3408  0.3161
   10SAPS  H18R 1273   5.360   0.875   4.608 -0.2564  1.0289 -0.1580
   10SAPS  H18S 1274   5.511   0.829   4.684 -0.3616  0.3349 -0.1351
   10SAPS  C219 1275   5.503   1.021   4.598  0.5579 -0.3195  0.2298
   10SAPS  H19R 1276   5.575   0.970   4.530 -0.9452 -4.3036  1.3298
   10SAPS  H19S 1277   5.557   1.087   4.668  1.0750  0.7907 -1.1691
   10SAPS  C220 1278   5.400   1.098   4.515  0.3088  0.2216 -0.0057
   10SAPS  H20R 1279   5.438   1.187   4.459  1.8974 -2.0769 -2.8641
   10SAPS  H20S 1280   5.316   1.139   4.576 -1.6460 -0.1386 -2.2988
   10SAPS  H20T 1281   5.353   1.034   4.437  0.3613  0.6164 -0.3654
   10SAPS   C33 1282   4.352   1.004   5.983  0.4039  0.4177  0.0925
   10SAPS   H3X 1283   4.280   0.932   5.936  1.5103 -1.7075  1.5099
   10SAPS   H3Y 1284   4.432   0.938   6.022  0.5773  0.4413 -0.2144
   10SAPS   C34 1285   4.402   1.086   5.863 -0.4876  0.4382  0.0316
   10SAPS   H4X 1286   4.488   1.144   5.902  0.1595 -0.2067 -0.3998
   10SAPS   H4Y 1287   4.322   1.155   5.828 -0.7801 -0.8152 -1.9419
   10SAPS   C35 1288   4.447   1.005   5.736 -0.3592 -0.4306  0.1153
   10SAPS   H5X 1289   4.375   0.920   5.728 -0.8656 -0.5198  3.7047
   10SAPS   H5Y 1290   4.542   0.953   5.762 -0.9712 -1.4121  0.4487
   10SAPS   C36 1291   4.452   1.100   5.615  0.4088 -0.2889  0.1148
   10SAPS   H6X 1292   4.514   1.185   5.650 -0.2744 -0.0562  0.7750
   10SAPS   H6Y 1293   4.354   1.141   5.584 -1.2851 -2.7893  1.7894
   10SAPS   C37 1294   4.515   1.026   5.500 -0.2904  0.1201 -0.2701
   10SAPS   H7X 1295   4.474   0.924   5.484 -0.4427  0.4014 -1.9184
   10SAPS   H7Y 1296   4.625   1.011   5.513 -0.4734 -0.6816  0.3668
   10SAPS   C38 1297   4.503   1.094   5.360 -0.2410 -0.5417 -0.9725
   10SAPS   H8X 1298   4.531   1.200   5.375  0.4829 -0.2877 -3.5704
   10SAPS   H8Y 1299   4.396   1.090   5.328 -0.9987  1.4079  1.0299
   10SAPS   C39 1300   4.575   1.030   5.245  0.4233 -0.5227 -0.2595
   10SAPS   H9X 1301   4.570   1.090   5.151  1.3952  0.0632  0.0514
   10SAPS   H9Y 1302   4.534   0.928   5.233 -2.4775  0.6116 -0.9276
   10SAPS  C310 1303   4.729   1.007   5.269 -0.5289  0.1432  0.0780
   10SAPS  H10X 1304   4.751   0.898   5.275 -0.3739  0.2052  0.6710
   10SAPS  H10Y 1305   4.749   1.055   5.367 -0.6018 -1.1240  0.7257
   10SAPS  C311 1306   4.813   1.079   5.160  0.0006  0.4697  0.1255
   10SAPS  H11X 1307   4.913   1.038   5.186  1.0876  3.5521  1.2456
   10SAPS  H11Y 1308   4.828   1.188   5.178 -1.4117  0.5574  0.9016
   10SAPS  C312 1309   4.802   1.037   5.013  0.0660 -0.2155 -0.0726
   10SAPS  H12X 1310   4.706   1.070   4.968 -0.6776 -1.7967  0.3195
   10SAPS  H12Y 1311   4.807   0.926   5.013 -0.3213 -0.2390 -0.7904
   10SAPS  C313 1312   4.923   1.082   4.930 -0.5620  0.1934  0.1766
   10SAPS  H13X 1313   5.007   1.024   4.974 -1.4541 -0.6260  0.8734
   10SAPS  H13Y 1314   4.932   1.191   4.947 -1.7418  0.0764  1.7467
   10SAPS  C314 1315   4.890   1.055   4.788 -0.3491  0.5230 -0.3163
   10SAPS  H14X 1316   4.789   1.095   4.768 -1.1759 -2.4001 -2.5784
   10SAPS  H14Y 1317   4.895   0.947   4.766 -1.5439  0.3974 -0.0431
   10SAPS  C315 1318   4.980   1.125   4.683  0.1857  0.3061 -0.0215
   10SAPS  H15X 1319   5.077   1.071   4.688  0.3646  0.6924  1.0656
   10SAPS  H15Y 1320   4.998   1.230   4.717  0.7941 -0.8505  3.7286
   10SAPS  C316 1321   4.912   1.133   4.539  0.9581  0.3856 -0.0251
   10SAPS  H16X 1322   4.806   1.161   4.557  1.4013  0.0974  3.9308
   10SAPS  H16Y 1323   4.911   1.031   4.495  1.7036  0.5971 -0.5473
   10SAPS  C317 1324   4.996   1.213   4.442 -0.2453 -1.1842  0.8814
   10SAPS  H17X 1325   5.080   1.147   4.412  0.6805 -0.4706  1.8157
   10SAPS  H17Y 1326   5.048   1.298   4.491 -3.3146  0.9091  0.8005
   10SAPS  C318 1327   4.921   1.266   4.319 -0.0393  0.1641  0.0351
   10SAPS  H18X 1328   4.845   1.336   4.358  1.1110  0.6741  1.4735
   10SAPS  H18Y 1329   4.870   1.185   4.263  1.5008  0.7454 -2.3858
   10SAPS  H18Z 1330   4.984   1.316   4.242 -1.6108 -0.5622 -1.8059
   11SAPS     N 1331   5.384   0.669   1.991  0.0517 -0.7542  0.0033
   11SAPS   HN1 1332   5.469   0.628   1.948 -0.1796 -0.7786 -0.4364
   11SAPS   HN2 1333   5.405   0.685   2.092  2.1576 -1.0441 -0.3434
   11SAPS   HN3 1334   5.313   0.594   1.982 -0.9182  0.3145 -1.8618
   11SAPS   C12 1335   5.333   0.785   1.914  0.6374  0.3364  0.7549
   11SAPS  H12A 1336   5.397   0.872   1.915  0.3717  0.5337  0.8370
   11SAPS   C13 1337   5.299   0.761   1.761  0.0945 -0.4269 -1.7928
   11SAPS  O13A 1338   5.341   0.659   1.697 -0.8047 -0.5060  0.1219
   11SAPS  O13B 1339   5.263   0.860   1.700  0.3405 -0.3170  0.3427
   11SAPS   C11 1340   5.197   0.827   1.986 -0.3742 -0.0976  0.5734
   11SAPS  H11A 1341   5.107   0.761   1.988  0.8860 -1.8885  0.1487
   11SAPS  H11B 1342   5.164   0.917   1.929  1.1716  1.2527  1.7058
   11SAPS     P 1343   5.270   0.990   2.186 -0.1940 -0.2575 -0.0884
   11SAPS   O13 1344   5.416   1.007   2.180  0.0284  0.3419  0.0627
   11SAPS   O14 1345   5.185   1.109   2.140  0.4698  0.2310 -0.3123
   11SAPS   O12 1346   5.227   0.854   2.120 -0.2392 -0.1353 -0.2238
   11SAPS   O11 1347   5.233   0.958   2.336  0.3127 -0.0469  0.1648
   11SAPS    C1 1348   5.103   0.904   2.366  0.6427  0.2600  0.4652
   11SAPS    HA 1349   5.078   0.815   2.303 -2.1801  0.9539  0.4766
   11SAPS    HB 1350   5.104   0.850   2.463 -1.4965 -2.2634 -0.7683
   11SAPS    C2 1351   4.980   0.994   2.367  0.2766 -0.6118  0.1192
   11SAPS    HS 1352   4.986   1.034   2.264  0.6775  0.2211  0.4610
   11SAPS   O21 1353   4.995   1.108   2.464  0.3917  0.2165  0.5358
   11SAPS   C21 1354   4.913   1.209   2.457 -0.3423  0.2812 -0.1726
   11SAPS   O22 1355   4.822   1.216   2.380 -0.6466  0.2006 -0.2781
   11SAPS   C22 1356   4.953   1.312   2.556 -0.4834 -0.1270 -0.3355
   11SAPS   H2R 1357   5.026   1.266   2.625 -1.1208 -1.3189 -0.4334
   11SAPS   H2S 1358   5.008   1.394   2.504 -1.8094  2.2690  1.8467
   11SAPS    C3 1359   4.847   0.912   2.380 -0.7776 -0.2762  0.5324
   11SAPS    HX 1360   4.831   0.847   2.291 -1.8564  0.2416  0.3300
   11SAPS    HY 1361   4.767   0.989   2.368 -0.1580 -0.0708 -3.9026
   11SAPS   O31 1362   4.843   0.822   2.491 -0.4649  0.1679 -0.0058
   11SAPS   C31 1363   4.779   0.854   2.602 -0.1870  0.8110 -0.2638
   11SAPS   O32 1364   4.696   0.937   2.616 -0.0160 -0.4870  0.0855
   11SAPS   C32 1365   4.844   0.774   2.713 -0.8453 -0.0211  0.3566
   11SAPS   H2X 1366   4.955   0.772   2.708 -0.8085 -0.6686  1.2464
   11SAPS   H2Y 1367   4.802   0.672   2.704 -1.3603 -0.0428  2.4956
   11SAPS   C23 1368   4.831   1.369   2.626  0.1172 -0.7257 -0.1261
   11SAPS   H3R 1369   4.775   1.292   2.684  0.0492  0.9554  2.1987
   11SAPS   H3S 1370   4.752   1.403   2.555  1.1855 -1.2735 -1.6250
   11SAPS   C24 1371   4.886   1.476   2.731  0.3735 -0.4611  0.2579
   11SAPS   H4R 1372   4.909   1.567   2.672 -1.5334 -0.4999 -0.6124
   11SAPS   H4S 1373   4.983   1.439   2.770  1.2481 -0.4848 -1.8044
   11SAPS   C25 1374   4.785   1.498   2.843 -0.0284  0.5977  0.4049
   11SAPS   H5R 1375   4.711   1.578   2.828 -1.1931 -0.9142 -3.0709
   11SAPS   C26 1376   4.775   1.418   2.952  0.7079  0.2453  0.3916
   11SAPS   H6R 1377   4.694   1.439   3.024  0.7024  2.0260 -0.0932
   11SAPS   C27 1378   4.854   1.298   2.987 -0.7376  0.3382 -0.0501
   11SAPS   H7R 1379   4.926   1.319   3.069 -0.8565 -1.3836  0.5298
   11SAPS   H7S 1380   4.922   1.257   2.909 -1.2313 -0.1215 -0.2489
   11SAPS   C28 1381   4.776   1.175   3.022 -0.0206  0.2985  0.1444
   11SAPS   H8R 1382   4.743   1.108   2.941 -1.2990  1.4791 -0.3395
   11SAPS   C29 1383   4.719   1.162   3.144  0.1299  0.4982  0.6720
   11SAPS   H9R 1384   4.677   1.061   3.158  0.1262 -0.1923 -3.2794
   11SAPS  C210 1385   4.729   1.262   3.258  0.2646 -0.0155 -0.1877
   11SAPS  H10R 1386   4.675   1.357   3.235  1.0080  0.0353 -1.8240
   11SAPS  H10S 1387   4.836   1.287   3.269  0.3608 -0.6153  0.3133
   11SAPS  C211 1388   4.680   1.207   3.391 -0.5530 -0.4746  0.2192
   11SAPS  H11R 1389   4.586   1.149   3.391 -0.2549 -0.9869  1.7040
   11SAPS  C212 1390   4.735   1.208   3.513 -0.4676  0.2052 -0.5962
   11SAPS  H12R 1391   4.698   1.141   3.591  1.9058 -0.2022  0.2647
   11SAPS  C213 1392   4.860   1.286   3.552 -0.2022  0.3332 -0.1095
   11SAPS  H13R 1393   4.828   1.389   3.527 -2.5218  0.0278  1.2678
   11SAPS  H13S 1394   4.941   1.275   3.476 -2.2714  1.4654 -2.6269
   11SAPS  C214 1395   4.911   1.270   3.692  0.1782 -0.2180  0.1228
   11SAPS  H14R 1396   4.914   1.167   3.731  1.7255 -0.7418 -1.2742
   11SAPS  C215 1397   4.973   1.368   3.762  0.0809  0.8720  0.5326
   11SAPS  H15R 1398   5.013   1.352   3.863  0.3157  1.6334  0.5693
   11SAPS  C216 1399   4.966   1.523   3.728 -0.2942  0.0742  0.2584
   11SAPS  H16R 1400   4.888   1.548   3.653 -0.0321 -0.4045 -0.1737
   11SAPS  H16S 1401   5.059   1.546   3.673 -1.9396  0.5258 -2.5370
   11SAPS  C217 1402   4.946   1.594   3.868  0.0130 -0.4386  0.2486
   11SAPS  H17R 1403   4.947   1.704   3.853  0.3731 -0.4238  0.3618
   11SAPS  H17S 1404   5.031   1.571   3.936 -1.5941 -1.2046  2.0678
   11SAPS  C218 1405   4.812   1.569   3.941 -0.1411  0.1936  0.5946
   11SAPS  H18R 1406   4.797   1.462   3.970 -0.3568  0.6060  2.0847
   11SAPS  H18S 1407   4.721   1.596   3.883  0.7300  2.8346  0.3049
   11SAPS  C219 1408   4.800   1.669   4.060  1.3584 -0.3521 -0.1554
   11SAPS  H19R 1409   4.796   1.775   4.029 -3.3099 -0.0757  0.5743
   11SAPS  H19S 1410   4.876   1.651   4.139  1.1771  0.3154  0.1821
   11SAPS  C220 1411   4.666   1.646   4.134 -0.5394 -0.0758  0.0445
   11SAPS  H20R 1412   4.592   1.606   4.060  1.7019  0.6049 -2.7481
   11SAPS  H20S 1413   4.636   1.733   4.196 -0.1223 -0.8043  1.3135
   11SAPS  H20T 1414   4.672   1.568   4.213  0.2361 -0.4465 -0.3677
   11SAPS   C33 1415   4.791   0.813   2.851  0.4795  0.9255  0.8563
   11SAPS   H3X 1416   4.681   0.822   2.861 -0.2751 -3.2160 -1.3838
   11SAPS   H3Y 1417   4.847   0.907   2.873  0.8822  0.5042  1.7034
   11SAPS   C34 1418   4.820   0.714   2.967 -0.1898 -0.2967  0.0102
   11SAPS   H4X 1419   4.929   0.691   2.976 -0.3871 -0.5094  2.8080
   11SAPS   H4Y 1420   4.763   0.620   2.951  0.7593 -0.8099 -0.4907
   11SAPS   C35 1421   4.780   0.776   3.100  0.7914  0.1071 -0.4406
   11SAPS   H5X 1422   4.671   0.790   3.086  0.3597 -2.8912 -0.8820
   11SAPS   H5Y 1423   4.830   0.875   3.103  2.0111 -0.4954  2.4679
   11SAPS   C36 1424   4.798   0.693   3.227 -0.4493 -0.1990  0.2872
   11SAPS   H6X 1425   4.905   0.667   3.244 -0.2789  1.3843  1.8795
   11SAPS   H6Y 1426   4.746   0.597   3.208 -1.7840  0.0945  2.1557
   11SAPS   C37 1427   4.729   0.747   3.350  0.4332 -0.7233 -0.5249
   11SAPS   H7X 1428   4.618   0.752   3.343  0.5055  1.0315 -0.9089
   11SAPS   H7Y 1429   4.762   0.853   3.362 -0.9032 -0.5116  1.8981
   11SAPS   C38 1430   4.759   0.669   3.476  0.1577 -0.1106  0.8727
   11SAPS   H8X 1431   4.753   0.561   3.454 -2.4345 -0.0241  0.8322
   11SAPS   H8Y 1432   4.686   0.693   3.557 -1.6032 -1.5507 -0.2130
   11SAPS   C39 1433   4.902   0.709   3.524  0.4455  0.3722 -0.1495
   11SAPS   H9X 1434   4.914   0.819   3.531 -1.7173  0.7350 -1.2302
   11SAPS   H9Y 1435   4.971   0.681   3.443  0.9098  0.7751  0.0996
   11SAPS  C310 1436   4.947   0.642   3.654 -0.9163 -0.4868  0.9213
   11SAPS  H10X 1437   5.058   0.634   3.648 -0.8410  1.0019 -0.1831
   11SAPS  H10Y 1438   4.904   0.540   3.650 -3.0678  0.4012 -1.1289
   11SAPS  C311 1439   4.893   0.710   3.780 -0.3820  0.5294 -0.0948
   11SAPS  H11X 1440   4.908   0.641   3.866 -3.7195 -0.4102 -0.1362
   11SAPS  H11Y 1441   4.784   0.722   3.764 -0.5252 -1.4069 -0.8372
   11SAPS  C312 1442   4.959   0.849   3.814  1.0037  0.0960  0.3552
   11SAPS  H12X 1443   4.944   0.920   3.729  1.0433 -1.1567 -0.7206
   11SAPS  H12Y 1444   5.066   0.833   3.836  0.9064  1.7567  2.4726
   11SAPS  C313 1445   4.913   0.922   3.942  0.5224 -0.0105 -0.1081
   11SAPS  H13X 1446   4.984   1.003   3.969  1.6030 -0.9638  0.0090
   11SAPS  H13Y 1447   4.939   0.862   4.032 -0.5415  1.5536  1.3061
   11SAPS  C314 1448   4.763   0.953   3.941  0.0434 -0.6057  0.0261
   11SAPS  H14X 1449   4.701   0.875   3.893 -0.1652 -0.1645 -0.4320
   11SAPS  H14Y 1450   4.745   1.037   3.870  1.8381 -1.1402 -1.1207
   11SAPS  C315 1451   4.707   0.993   4.076 -0.0531  0.2205  0.1434
   11SAPS  H15X 1452   4.757   1.077   4.130 -1.5853  0.4587  1.2659
   11SAPS  H15Y 1453   4.728   0.910   4.146  1.9805  0.9684  0.4892
   11SAPS  C316 1454   4.561   1.024   4.071  0.2779 -0.3809  0.2285
   11SAPS  H16X 1455   4.527   1.016   4.177  0.5176 -1.0122  0.2633
   11SAPS  H16Y 1456   4.498   0.963   4.004  0.1380  1.2781 -1.2119
   11SAPS  C317 1457   4.539   1.173   4.037  0.7243 -0.9588  0.2870
   11SAPS  H17X 1458   4.616   1.231   4.092  1.0383 -0.2342 -0.8807
   11SAPS  H17Y 1459   4.438   1.202   4.073  1.3922  0.6706  0.9349
   11SAPS  C318 1460   4.544   1.215   3.887  0.2594 -0.8436 -0.2789
   11SAPS  H18X 1461   4.628   1.285   3.869 -0.9566  1.8313  3.3438
   11SAPS  H18Y 1462   4.453   1.277   3.870  0.8091  0.3899  1.1183
   11SAPS  H18Z 1463   4.547   1.127   3.819 -1.5686 -0.5237 -0.8178
   12SAPS     N 1464   5.907   0.339   1.541  0.1108  0.8057  0.2057
   12SAPS   HN1 1465   5.949   0.338   1.445 -0.6277 -3.0114 -0.2657
   12SAPS   HN2 1466   5.871   0.428   1.578 -1.8548 -0.7544  2.2848
   12SAPS   HN3 1467   5.979   0.302   1.607  1.3019  1.5289 -0.6435
   12SAPS   C12 1468   5.788   0.246   1.535  0.3431 -0.3218 -0.3478
   12SAPS  H12A 1469   5.712   0.296   1.476  0.9244 -0.0917 -0.9213
   12SAPS   C13 1470   5.809   0.111   1.470 -0.6481 -0.4568  0.1601
   12SAPS  O13A 1471   5.922   0.073   1.429 -0.2157 -0.0667  0.0791
   12SAPS  O13B 1472   5.709   0.040   1.464  0.3946 -0.4975  0.2731
   12SAPS   C11 1473   5.729   0.229   1.683 -0.7311  0.1223 -0.2062
   12SAPS  H11A 1474   5.817   0.185   1.733  0.2478  1.3004 -0.8243
   12SAPS  H11B 1475   5.635   0.170   1.684  0.8555 -2.5927 -1.2833
   12SAPS     P 1476   5.605   0.388   1.858  0.0232  0.3311 -0.3504
   12SAPS   O13 1477   5.596   0.529   1.898  0.0621 -0.3258  0.1713
   12SAPS   O14 1478   5.476   0.321   1.825 -0.3602 -0.7062 -0.3612
   12SAPS   O12 1479   5.708   0.359   1.737 -0.0111  0.2651 -0.1255
   12SAPS   O11 1480   5.676   0.307   1.972 -0.4360 -0.0901  0.4376
   12SAPS    C1 1481   5.819   0.330   1.991 -0.4825 -0.2432  0.0452
   12SAPS    HA 1482   5.873   0.247   1.940 -0.8017  0.4267 -1.4424
   12SAPS    HB 1483   5.852   0.427   1.948 -1.0348  0.0454  0.2607
   12SAPS    C2 1484   5.860   0.339   2.140 -0.7344 -0.7070 -0.1212
   12SAPS    HS 1485   5.964   0.376   2.154 -1.4257  0.9544  0.9389
   12SAPS   O21 1486   5.844   0.216   2.211 -0.4319  0.3293 -0.1739
   12SAPS   C21 1487   5.930   0.115   2.182 -0.8576  0.1437  0.2420
   12SAPS   O22 1488   6.027   0.121   2.109  0.1431  0.2370  0.4996
   12SAPS   C22 1489   5.894  -0.006   2.255  0.5175  0.6499  0.2115
   12SAPS   H2R 1490   5.784  -0.017   2.243  0.6802  0.0453 -0.8718
   12SAPS   H2S 1491   5.931  -0.092   2.196  0.0022  0.1266  0.6297
   12SAPS    C3 1492   5.782   0.461   2.200 -0.6795 -0.2142  0.3805
   12SAPS    HX 1493   5.677   0.442   2.170 -1.3668 -0.4153  2.7202
   12SAPS    HY 1494   5.814   0.556   2.152 -1.4123 -0.4747 -0.6481
   12SAPS   O31 1495   5.804   0.465   2.344  0.6483  0.4717  0.0189
   12SAPS   C31 1496   5.695   0.467   2.414  0.1359  0.1316  0.0368
   12SAPS   O32 1497   5.581   0.464   2.369  0.0101  0.2331  0.3344
   12SAPS   C32 1498   5.735   0.471   2.563 -0.9405 -0.1110 -0.4992
   12SAPS   H2X 1499   5.773   0.573   2.579 -1.9366  0.3016 -0.6678
   12SAPS   H2Y 1500   5.815   0.395   2.577 -2.2093 -1.6971 -1.3712
   12SAPS   C23 1501   5.946  -0.009   2.394  0.4471 -0.2328  1.0179
   12SAPS   H3R 1502   6.046   0.037   2.403  0.7855 -0.7122 -0.1519
   12SAPS   H3S 1503   5.959  -0.114   2.429  4.0813 -0.8515 -1.6001
   12SAPS   C24 1504   5.874   0.084   2.498 -0.0557  0.4429 -0.2828
   12SAPS   H4R 1505   5.874   0.189   2.462 -0.7959  1.4288  2.3622
   12SAPS   H4S 1506   5.936   0.071   2.589  1.7983  1.7738 -1.2760
   12SAPS   C25 1507   5.730   0.038   2.517 -0.3488  0.2229 -0.4537
   12SAPS   H5R 1508   5.670   0.017   2.427 -0.5148  0.8363 -0.4959
   12SAPS   C26 1509   5.661   0.032   2.636 -0.1078 -0.0210  0.0385
   12SAPS   H6R 1510   5.560  -0.013   2.637 -0.0880 -0.1764 -1.7790
   12SAPS   C27 1511   5.726   0.050   2.771 -0.5561 -0.2049  0.4525
   12SAPS   H7R 1512   5.744   0.158   2.787 -0.2297 -0.0450 -0.8774
   12SAPS   H7S 1513   5.831   0.016   2.758  0.6557  3.2445  0.0434
   12SAPS   C28 1514   5.672  -0.014   2.890  0.2471  0.4668 -0.0452
   12SAPS   H8R 1515   5.645  -0.120   2.878 -0.9932  0.6470  0.9232
   12SAPS   C29 1516   5.675   0.021   3.018  0.1376  0.5246  0.0777
   12SAPS   H9R 1517   5.619  -0.033   3.096  0.7204 -1.2007 -0.6509
   12SAPS  C210 1518   5.726   0.152   3.081 -0.1850  0.1799  0.2974
   12SAPS  H10R 1519   5.793   0.203   3.008 -0.5587 -0.9018 -0.8386
   12SAPS  H10S 1520   5.785   0.120   3.170  0.6190 -0.3389 -0.4009
   12SAPS  C211 1521   5.611   0.251   3.101  0.0391 -0.1011  0.3810
   12SAPS  H11R 1522   5.563   0.281   3.007  3.0569  1.7250 -0.6945
   12SAPS  C212 1523   5.572   0.299   3.218 -0.7551 -0.2820 -0.6172
   12SAPS  H12R 1524   5.485   0.364   3.235 -0.7289 -0.5005  0.4201
   12SAPS  C213 1525   5.630   0.275   3.354  0.3585  0.3536 -0.2717
   12SAPS  H13R 1526   5.685   0.179   3.351  0.1471  0.1740  1.0118
   12SAPS  H13S 1527   5.544   0.253   3.421 -1.7498  0.7938 -2.6470
   12SAPS  C214 1528   5.724   0.379   3.401 -0.6511 -0.1535  0.0619
   12SAPS  H14R 1529   5.825   0.379   3.357 -0.6224  0.7085  0.1112
   12SAPS  C215 1530   5.708   0.477   3.485 -0.2151 -0.2727  0.5032
   12SAPS  H15R 1531   5.788   0.544   3.519 -0.1335 -0.0994 -0.0215
   12SAPS  C216 1532   5.586   0.489   3.568  0.0705 -0.9591  0.4296
   12SAPS  H16R 1533   5.557   0.391   3.610  0.0817 -1.5153 -0.8083
   12SAPS  H16S 1534   5.501   0.527   3.507 -0.0820  0.6871  1.6184
   12SAPS  C217 1535   5.604   0.590   3.678 -0.0280 -0.2128 -0.3320
   12SAPS  H17R 1536   5.636   0.686   3.633  1.0928 -1.0486 -1.4156
   12SAPS  H17S 1537   5.677   0.579   3.761  0.3937  0.7616 -0.5609
   12SAPS  C218 1538   5.474   0.605   3.756 -0.5110  0.3121  0.0773
   12SAPS  H18R 1539   5.441   0.503   3.786 -0.3333  0.1502 -0.2790
   12SAPS  H18S 1540   5.392   0.640   3.690 -0.4143  1.2456  0.4408
   12SAPS  C219 1541   5.478   0.706   3.879 -0.0815  0.1353  0.4052
   12SAPS  H19R 1542   5.512   0.803   3.837  1.5056 -0.9332 -0.9295
   12SAPS  H19S 1543   5.548   0.667   3.955 -1.7732  0.3843  2.1547
   12SAPS  C220 1544   5.342   0.713   3.951 -0.4872 -0.0603 -0.0093
   12SAPS  H20R 1545   5.264   0.734   3.874  1.9363 -1.9963 -3.2281
   12SAPS  H20S 1546   5.356   0.796   4.024 -1.3060 -0.9652  1.2353
   12SAPS  H20T 1547   5.311   0.620   4.003  0.0299 -0.2316 -0.0082
   12SAPS   C33 1548   5.609   0.451   2.658 -0.5613  0.4344  0.6251
   12SAPS   H3X 1549   5.561   0.351   2.649 -2.6395  1.5084 -1.4437
   12SAPS   H3Y 1550   5.539   0.530   2.623  0.5656  0.8447 -0.8625
   12SAPS   C34 1551   5.636   0.462   2.801  0.2410 -0.2686 -0.2397
   12SAPS   H4X 1552   5.701   0.385   2.847  0.3260 -0.0681 -0.0184
   12SAPS   H4Y 1553   5.539   0.444   2.851  0.9219 -2.8382  0.3126
   12SAPS   C35 1554   5.697   0.599   2.854  0.4379  0.0264 -0.4105
   12SAPS   H5X 1555   5.634   0.678   2.808  1.4785  3.0720  2.9896
   12SAPS   H5Y 1556   5.797   0.627   2.816 -0.9780  2.5689 -2.6223
   12SAPS   C36 1557   5.687   0.617   3.001 -0.1414  0.5023 -1.3272
   12SAPS   H6X 1558   5.758   0.551   3.056  1.6890  4.0916  0.9980
   12SAPS   H6Y 1559   5.590   0.586   3.045  0.5485  0.1558  0.0108
   12SAPS   C37 1560   5.713   0.761   3.056 -0.1503 -0.2203 -0.1459
   12SAPS   H7X 1561   5.637   0.834   3.023  1.4316  1.8332  0.5757
   12SAPS   H7Y 1562   5.812   0.789   3.015  0.2965  0.4680  1.3475
   12SAPS   C38 1563   5.726   0.752   3.212 -0.4290 -0.4237  0.1477
   12SAPS   H8X 1564   5.801   0.680   3.251  0.1014 -0.5455 -1.0498
   12SAPS   H8Y 1565   5.623   0.717   3.234 -0.6535 -1.7286 -2.6044
   12SAPS   C39 1566   5.740   0.891   3.274 -0.4964 -0.5460  0.1447
   12SAPS   H9X 1567   5.662   0.961   3.237 -0.8884 -0.6566  0.7682
   12SAPS   H9Y 1568   5.842   0.930   3.250 -2.0468  2.6334 -1.9837
   12SAPS  C310 1569   5.730   0.874   3.422  0.4169  0.2874  0.0034
   12SAPS  H10X 1570   5.816   0.809   3.450 -1.0508 -1.7506  0.0383
   12SAPS  H10Y 1571   5.633   0.822   3.440  1.3795 -2.0895 -1.1625
   12SAPS  C311 1572   5.736   1.007   3.490  0.3648 -0.5625 -0.5560
   12SAPS  H11X 1573   5.659   1.082   3.461  2.4196  1.2521 -1.5715
   12SAPS  H11Y 1574   5.825   1.061   3.452 -0.1886 -0.1190 -1.2482
   12SAPS  C312 1575   5.746   1.006   3.647 -0.7294 -0.1348 -0.2771
   12SAPS  H12X 1576   5.824   0.938   3.689 -1.5276 -0.7508  0.2548
   12SAPS  H12Y 1577   5.657   0.963   3.697 -1.8738  1.0673 -1.2304
   12SAPS  C313 1578   5.770   1.148   3.696 -0.0929 -0.6157  0.2528
   12SAPS  H13X 1579   5.676   1.205   3.687  1.0415  1.0378 -2.5332
   12SAPS  H13Y 1580   5.849   1.199   3.637 -0.2599 -1.0623 -0.3622
   12SAPS  C314 1581   5.806   1.145   3.852 -0.7567 -0.4189  0.2811
   12SAPS  H14X 1582   5.897   1.083   3.865 -1.6089 -1.7356  0.0820
   12SAPS  H14Y 1583   5.719   1.102   3.906 -0.0912  0.3289  2.0185
   12SAPS  C315 1584   5.841   1.285   3.915  0.3525  0.0369  1.1579
   12SAPS  H15X 1585   5.931   1.313   3.856 -0.9999 -0.7462 -1.4586
   12SAPS  H15Y 1586   5.868   1.262   4.020  1.2881 -0.3727  0.8433
   12SAPS  C316 1587   5.727   1.388   3.925 -0.2454 -0.6055 -0.0844
   12SAPS  H16X 1588   5.661   1.375   4.013  0.0450  1.1107  0.4247
   12SAPS  H16Y 1589   5.664   1.385   3.833 -0.3492  0.8547 -0.0776
   12SAPS  C317 1590   5.776   1.535   3.941 -0.2029  0.5157  0.2613
   12SAPS  H17X 1591   5.724   1.601   3.868 -0.3962 -0.8912 -0.9340
   12SAPS  H17Y 1592   5.881   1.520   3.907 -0.0763 -1.1246  1.3139
   12SAPS  C318 1593   5.782   1.586   4.090  0.4388 -0.1696  0.2487
   12SAPS  H18X 1594   5.848   1.675   4.100 -0.9895  0.8146  1.2558
   12SAPS  H18Y 1595   5.837   1.508   4.147  2.3152  0.4348 -0.6243
   12SAPS  H18Z 1596   5.684   1.620   4.129  0.8210  2.4733 -0.8535
   13SAPS     N 1597   6.695   2.248   2.051  0.4647 -0.1024 -0.6305
   13SAPS   HN1 1598   6.621   2.306   2.097  1.6654 -1.2493  3.1829
   13SAPS   HN2 1599   6.772   2.227   2.118  0.2001 -0.0225 -0.2957
   13SAPS   HN3 1600   6.742   2.308   1.981 -0.3247  0.4436 -0.7140
   13SAPS   C12 1601   6.637   2.120   1.996 -0.1500  0.4655 -0.3454
   13SAPS  H12A 1602   6.542   2.143   1.949 -0.3361 -1.0129 -0.7385
   13SAPS   C13 1603   6.736   2.052   1.884  0.4957 -0.0783 -0.7399
   13SAPS  O13A 1604   6.681   1.955   1.815  0.0442 -0.5178 -0.7920
   13SAPS  O13B 1605   6.839   2.114   1.847 -0.1578  0.4082  0.0518
   13SAPS   C11 1606   6.611   2.017   2.113 -0.3562  0.2606 -0.3315
   13SAPS  H11A 1607   6.556   1.930   2.071 -1.3115  0.6043  0.1743
   13SAPS  H11B 1608   6.543   2.068   2.184 -0.8317  0.1211 -0.6861
   13SAPS     P 1609   6.748   1.871   2.275 -0.0372  0.0310 -0.0562
   13SAPS   O13 1610   6.735   1.756   2.192  0.0754  0.4116  0.4557
   13SAPS   O14 1611   6.868   1.870   2.361 -0.5270  0.8724  0.1345
   13SAPS   O12 1612   6.736   1.995   2.187  0.2315  0.3441  0.3734
   13SAPS   O11 1613   6.619   1.874   2.368  0.6799  0.4815  0.1013
   13SAPS    C1 1614   6.589   1.984   2.449  0.7691 -0.3932  0.7158
   13SAPS    HA 1615   6.668   2.062   2.446  0.4257 -0.0687 -0.1156
   13SAPS    HB 1616   6.492   2.022   2.411  0.1450 -2.1307  0.4602
   13SAPS    C2 1617   6.588   1.927   2.593 -0.5326  0.4096  0.1331
   13SAPS    HS 1618   6.537   1.997   2.663  0.2990  1.9753 -0.7770
   13SAPS   O21 1619   6.716   1.899   2.635 -0.2756 -0.0010 -0.0326
   13SAPS   C21 1620   6.779   2.005   2.685  0.4762  0.7614 -0.4671
   13SAPS   O22 1621   6.735   2.109   2.716 -0.4534 -0.5167  0.6899
   13SAPS   C22 1622   6.924   1.956   2.717 -0.0745 -0.1511 -0.0817
   13SAPS   H2R 1623   6.914   1.860   2.772 -0.0557 -0.4763 -0.6335
   13SAPS   H2S 1624   6.985   1.933   2.627  0.5081 -2.2447  0.7871
   13SAPS    C3 1625   6.513   1.781   2.601 -0.6983  0.2618  0.0661
   13SAPS    HX 1626   6.570   1.699   2.553 -1.6846 -0.3719 -0.0487
   13SAPS    HY 1627   6.425   1.784   2.534 -0.4850 -2.6853 -0.5040
   13SAPS   O31 1628   6.463   1.758   2.732  0.6412 -0.2909 -0.4294
   13SAPS   C31 1629   6.551   1.694   2.813  0.9589  0.6222  0.0413
   13SAPS   O32 1630   6.666   1.677   2.781  0.2191  0.3357  0.0873
   13SAPS   C32 1631   6.506   1.666   2.949 -0.1579  0.4732  0.6743
   13SAPS   H2X 1632   6.573   1.596   3.002 -0.2834  1.1934  1.8089
   13SAPS   H2Y 1633   6.414   1.606   2.935  0.6989 -0.4039 -1.8446
   13SAPS   C23 1634   6.995   2.054   2.818 -0.6331 -0.2900 -1.1362
   13SAPS   H3R 1635   6.924   2.075   2.901 -0.7655 -0.1313 -1.2882
   13SAPS   H3S 1636   7.024   2.146   2.763  0.5452 -0.5430 -0.9656
   13SAPS   C24 1637   7.118   1.984   2.883 -0.3132 -0.1301 -0.1811
   13SAPS   H4R 1638   7.069   1.898   2.934  1.8990 -0.5755  1.3635
   13SAPS   H4S 1639   7.157   2.050   2.964  1.0413 -1.6335  0.4506
   13SAPS   C25 1640   7.224   1.952   2.778 -0.3258  0.7882 -0.2782
   13SAPS   H5R 1641   7.188   1.888   2.696  1.2552 -1.3934  0.6441
   13SAPS   C26 1642   7.350   2.002   2.767 -0.6224 -0.5446 -0.1883
   13SAPS   H6R 1643   7.411   1.991   2.676 -0.6279 -1.2717 -0.1085
   13SAPS   C27 1644   7.412   2.101   2.872  0.3235 -0.0554 -0.1312
   13SAPS   H7R 1645   7.520   2.078   2.872  0.1868 -0.7379  0.3678
   13SAPS   H7S 1646   7.390   2.069   2.976 -0.4193 -1.7227 -0.7716
   13SAPS   C28 1647   7.390   2.245   2.847 -0.3590 -0.5074  1.1856
   13SAPS   H8R 1648   7.350   2.266   2.746 -1.5494  2.1079  2.0950
   13SAPS   C29 1649   7.409   2.351   2.930 -0.4193 -0.0266 -0.2648
   13SAPS   H9R 1650   7.401   2.454   2.895  0.9841 -0.1752 -1.0967
   13SAPS  C210 1651   7.461   2.326   3.072  0.3454 -0.0398  0.3625
   13SAPS  H10R 1652   7.572   2.331   3.064  0.2705  0.7141 -0.3512
   13SAPS  H10S 1653   7.443   2.223   3.108  0.2923 -0.4369 -0.7532
   13SAPS  C211 1654   7.412   2.426   3.180  0.1216  0.3022 -0.1686
   13SAPS  H11R 1655   7.307   2.456   3.166 -0.1003 -0.8689 -1.1727
   13SAPS  C212 1656   7.489   2.492   3.270 -0.4657 -0.2378 -0.1019
   13SAPS  H12R 1657   7.434   2.552   3.343 -0.4648 -0.1871 -0.1423
   13SAPS  C213 1658   7.644   2.487   3.287  0.3542  0.5846 -0.2094
   13SAPS  H13R 1659   7.664   2.575   3.350  1.1771 -0.1582  0.5833
   13SAPS  H13S 1660   7.702   2.505   3.194  0.0041  1.0977 -0.3339
   13SAPS  C214 1661   7.692   2.361   3.354  0.8588  0.5712 -1.4326
   13SAPS  H14R 1662   7.667   2.261   3.315 -1.6395 -0.1668  1.7200
   13SAPS  C215 1663   7.749   2.346   3.475 -0.1967 -0.3611  0.3875
   13SAPS  H15R 1664   7.802   2.253   3.500  0.5794  0.0474  0.2684
   13SAPS  C216 1665   7.785   2.455   3.568  0.1183 -0.5739  0.2860
   13SAPS  H16R 1666   7.742   2.554   3.541 -0.4505 -0.5451  1.2703
   13SAPS  H16S 1667   7.895   2.468   3.570 -0.0222  0.7424  2.5537
   13SAPS  C217 1668   7.736   2.418   3.710 -0.3491 -0.4209 -0.8150
   13SAPS  H17R 1669   7.749   2.310   3.735 -1.3233  0.0093  1.8544
   13SAPS  H17S 1670   7.627   2.425   3.731 -0.0584  1.6803  0.2242
   13SAPS  C218 1671   7.802   2.495   3.824 -0.3039  0.3208 -1.0727
   13SAPS  H18R 1672   7.824   2.603   3.814  0.6107  0.3041  0.4614
   13SAPS  H18S 1673   7.896   2.443   3.851  0.9377  1.4867 -2.9620
   13SAPS  C219 1674   7.721   2.475   3.959 -0.5956  0.6312  0.6730
   13SAPS  H19R 1675   7.711   2.366   3.976 -0.5798  0.1563 -1.9035
   13SAPS  H19S 1676   7.623   2.524   3.946 -1.3021 -0.5760  1.3133
   13SAPS  C220 1677   7.771   2.548   4.085 -0.1380  0.0203 -0.7444
   13SAPS  H20R 1678   7.733   2.508   4.181  0.5525 -1.6792 -1.1496
   13SAPS  H20S 1679   7.736   2.654   4.088 -1.4252 -0.3201 -2.5510
   13SAPS  H20T 1680   7.881   2.558   4.093 -0.2871  0.2896  1.9516
   13SAPS   C33 1681   6.480   1.789   3.035  0.1536  0.6990  0.2639
   13SAPS   H3X 1682   6.384   1.840   3.014  0.1354  1.4001  1.9112
   13SAPS   H3Y 1683   6.562   1.861   3.013  1.4478 -0.9802 -0.7074
   13SAPS   C34 1684   6.489   1.739   3.179 -0.7494 -0.3169  0.4495
   13SAPS   H4X 1685   6.589   1.695   3.201 -0.1847  1.8089  2.7042
   13SAPS   H4Y 1686   6.408   1.666   3.195 -1.9705  0.5721 -1.3358
   13SAPS   C35 1687   6.489   1.862   3.279  0.7661  0.8339 -0.1336
   13SAPS   H5X 1688   6.385   1.899   3.286  0.4317  0.4637 -2.2642
   13SAPS   H5Y 1689   6.548   1.946   3.236  0.2502  1.2183 -0.1034
   13SAPS   C36 1690   6.545   1.830   3.428  0.3013  1.0833  0.1892
   13SAPS   H6X 1691   6.640   1.775   3.409 -1.0830 -1.6676  0.6098
   13SAPS   H6Y 1692   6.473   1.752   3.462 -1.6461  1.3092 -2.9593
   13SAPS   C37 1693   6.554   1.953   3.519  0.3818 -0.5515  0.0025
   13SAPS   H7X 1694   6.461   2.012   3.535  1.2955  0.6143  1.1756
   13SAPS   H7Y 1695   6.629   2.023   3.476  0.6730  0.3951  1.9470
   13SAPS   C38 1696   6.584   1.919   3.662 -0.6978  0.6638 -0.0901
   13SAPS   H8X 1697   6.686   1.876   3.667 -0.9771  0.0173  0.1414
   13SAPS   H8Y 1698   6.508   1.847   3.699 -1.6074  1.6805  0.0729
   13SAPS   C39 1699   6.584   2.038   3.759  0.1716 -0.3475 -0.0345
   13SAPS   H9X 1700   6.491   2.099   3.755  0.3646 -0.1186 -1.8938
   13SAPS   H9Y 1701   6.661   2.108   3.721 -0.0663  1.1081  1.9954
   13SAPS  C310 1702   6.635   2.008   3.898 -0.5132 -0.1420  0.3998
   13SAPS  H10X 1703   6.690   2.094   3.942 -3.3831  1.9630  0.1256
   13SAPS  H10Y 1704   6.699   1.917   3.892 -0.4061  0.0037 -0.8604
   13SAPS  C311 1705   6.528   1.958   3.996 -0.3125 -0.3947  0.7909
   13SAPS  H11X 1706   6.460   1.883   3.950  1.0247 -0.7275 -0.7559
   13SAPS  H11Y 1707   6.461   2.042   4.023  0.3309 -0.3504  2.3149
   13SAPS  C312 1708   6.586   1.909   4.137  0.6121 -0.5703  0.0705
   13SAPS  H12X 1709   6.651   1.820   4.123  0.3808 -0.9566  1.3388
   13SAPS  H12Y 1710   6.498   1.871   4.194  0.3158 -1.1184 -0.7207
   13SAPS  C313 1711   6.659   2.019   4.210  0.2079  0.0353 -0.0565
   13SAPS  H13X 1712   6.588   2.102   4.231  0.0611  0.7362 -2.8767
   13SAPS  H13Y 1713   6.744   2.045   4.143  0.6356  1.3011  0.9417
   13SAPS  C314 1714   6.721   1.974   4.343  0.3313 -0.1056  0.6841
   13SAPS  H14X 1715   6.777   1.881   4.321 -1.7582 -1.1126 -0.7144
   13SAPS  H14Y 1716   6.635   1.955   4.411 -0.7428 -1.1424 -0.9148
   13SAPS  C315 1717   6.814   2.066   4.421 -0.0588 -0.3366 -0.3309
   13SAPS  H15X 1718   6.760   2.146   4.476  1.2628  0.9660 -0.8477
   13SAPS  H15Y 1719   6.886   2.104   4.346 -0.1757 -1.2050 -0.9009
   13SAPS  C316 1720   6.890   1.987   4.522 -0.0608  0.8252 -0.0377
   13SAPS  H16X 1721   6.937   1.898   4.475  0.3940  0.0193  1.8535
   13SAPS  H16Y 1722   6.821   1.963   4.605 -1.4804  1.7701 -0.9101
   13SAPS  C317 1723   6.997   2.075   4.595 -0.1659 -0.4594 -0.0743
   13SAPS  H17X 1724   6.938   2.162   4.631  1.0520  0.7947 -0.9750
   13SAPS  H17Y 1725   7.066   2.105   4.513 -0.4493 -1.5147 -0.7090
   13SAPS  C318 1726   7.057   2.003   4.708 -0.0095 -0.7190  0.3726
   13SAPS  H18X 1727   7.131   1.924   4.683  0.9972  0.2614  0.1977
   13SAPS  H18Y 1728   6.975   1.972   4.776 -2.0712  2.2802 -0.5184
   13SAPS  H18Z 1729   7.119   2.071   4.770  1.2708 -0.8045 -0.7734
   14SAPS     N 1730   0.486   3.050   1.801  0.1804  0.0515  0.0384
   14SAPS   HN1 1731   0.427   2.971   1.834 -0.0218 -0.2897 -1.0801
   14SAPS   HN2 1732   0.465   3.134   1.858  0.9364 -0.4373  1.0611
   14SAPS   HN3 1733   0.466   3.072   1.701  2.5248 -0.4739 -0.5998
   14SAPS   C12 1734   0.636   3.037   1.827  0.2241 -0.5730  0.4247
   14SAPS  H12A 1735   0.647   2.959   1.901 -0.4297 -0.7543  0.3323
   14SAPS   C13 1736   0.718   2.991   1.710 -0.4235  0.6618 -0.0277
   14SAPS  O13A 1737   0.663   2.956   1.609  0.1867  0.3326  0.1647
   14SAPS  O13B 1738   0.845   2.988   1.720  0.3597  0.0803 -0.1511
   14SAPS   C11 1739   0.689   3.182   1.854 -0.0978  0.1700 -0.1045
   14SAPS  H11A 1740   0.675   3.241   1.761 -0.9325 -0.4861 -0.4141
   14SAPS  H11B 1741   0.798   3.178   1.871 -0.1608  0.3348  0.3542
   14SAPS     P 1742   0.696   3.324   2.073 -0.4424  0.0074  0.7314
   14SAPS   O13 1743   0.786   3.419   2.004 -0.0708 -0.1675  0.3791
   14SAPS   O14 1744   0.607   3.381   2.173  0.3058 -0.4134  0.4869
   14SAPS   O12 1745   0.617   3.252   1.956 -0.2364  0.2557 -0.1950
   14SAPS   O11 1746   0.782   3.205   2.123 -0.2320 -0.1743  0.4436
   14SAPS    C1 1747   0.728   3.096   2.195  0.0185 -0.4152  0.0346
   14SAPS    HA 1748   0.618   3.108   2.208  0.2944  2.5518  0.3035
   14SAPS    HB 1749   0.762   2.998   2.155 -0.4562 -0.0568 -1.3015
   14SAPS    C2 1750   0.781   3.088   2.346 -0.3287 -0.0512 -0.4535
   14SAPS    HS 1751   0.705   3.030   2.402  0.5879 -0.5162  0.3546
   14SAPS   O21 1752   0.798   3.223   2.410 -0.1260  0.5481 -0.0266
   14SAPS   C21 1753   0.678   3.267   2.432 -0.3063 -0.3312 -0.2010
   14SAPS   O22 1754   0.572   3.209   2.416  0.1905 -0.3262 -0.0792
   14SAPS   C22 1755   0.695   3.408   2.496 -0.3573  0.4554  0.3321
   14SAPS   H2R 1756   0.804   3.423   2.510 -0.7216  4.0534  0.1355
   14SAPS   H2S 1757   0.655   3.484   2.426 -2.2572 -0.0474  0.8182
   14SAPS    C3 1758   0.912   2.999   2.350  0.6219  1.0829  0.3804
   14SAPS    HX 1759   0.983   3.007   2.265  1.6395  0.9536  1.1948
   14SAPS    HY 1760   0.872   2.895   2.347  1.3380  0.8246 -0.8265
   14SAPS   O31 1761   0.973   3.022   2.475  0.0844 -0.7546 -0.1523
   14SAPS   C31 1762   1.056   3.126   2.473  0.3667 -0.0762 -0.6402
   14SAPS   O32 1763   1.097   3.181   2.375  0.0163 -0.0492 -0.1142
   14SAPS   C32 1764   1.111   3.148   2.613  0.0432 -0.6604 -0.9867
   14SAPS   H2X 1765   1.166   3.064   2.660  2.0740  0.9896 -0.2313
   14SAPS   H2Y 1766   1.022   3.153   2.680  0.3086 -1.8462 -0.5164
   14SAPS   C23 1767   0.612   3.424   2.623 -0.0655 -0.3608 -0.3846
   14SAPS   H3R 1768   0.507   3.436   2.591  0.1732  0.1215 -0.9979
   14SAPS   H3S 1769   0.636   3.521   2.670  0.9101  0.2118 -2.0014
   14SAPS   C24 1770   0.617   3.313   2.729 -0.4722 -0.6077  0.0859
   14SAPS   H4R 1771   0.569   3.221   2.687  0.8204 -1.7396  0.9951
   14SAPS   H4S 1772   0.546   3.348   2.808  0.3916  0.5607  0.3510
   14SAPS   C25 1773   0.752   3.280   2.791  0.4435  0.4419  0.5097
   14SAPS   H5R 1774   0.800   3.192   2.746 -0.2370  0.0107  0.6069
   14SAPS   C26 1775   0.795   3.331   2.910  0.3397 -0.7478 -0.0983
   14SAPS   H6R 1776   0.889   3.293   2.952 -1.1026 -1.8565  2.3664
   14SAPS   C27 1777   0.721   3.435   2.991 -0.1330  0.1092 -1.0682
   14SAPS   H7R 1778   0.660   3.508   2.934 -0.9910  1.4713  1.4219
   14SAPS   H7S 1779   0.807   3.481   3.044  0.4042 -1.4341 -0.5450
   14SAPS   C28 1780   0.629   3.374   3.098 -0.7448 -0.2850 -0.3532
   14SAPS   H8R 1781   0.534   3.348   3.047 -0.4320 -1.2698 -0.4548
   14SAPS   C29 1782   0.642   3.363   3.230 -0.5200  0.0534  0.5923
   14SAPS   H9R 1783   0.571   3.307   3.291  1.3641 -0.6386  2.2716
   14SAPS  C210 1784   0.777   3.400   3.296 -0.3317 -0.4676 -0.4307
   14SAPS  H10R 1785   0.869   3.362   3.246  0.3317  0.3187  0.1569
   14SAPS  H10S 1786   0.784   3.328   3.381 -0.9646 -0.6633 -0.5457
   14SAPS  C211 1787   0.797   3.542   3.345  0.6263 -0.1982  0.4251
   14SAPS  H11R 1788   0.812   3.619   3.268 -1.5175 -0.5940 -0.4574
   14SAPS  C212 1789   0.791   3.597   3.469 -0.2125  0.5447 -0.8026
   14SAPS  H12R 1790   0.816   3.704   3.467 -0.2437  0.5559 -2.9283
   14SAPS  C213 1791   0.770   3.516   3.597 -0.1354 -0.4166  0.6516
   14SAPS  H13R 1792   0.804   3.413   3.576 -1.2867 -0.8411  0.7742
   14SAPS  H13S 1793   0.661   3.493   3.604 -0.5442  1.5173  1.4739
   14SAPS  C214 1794   0.818   3.577   3.728  0.4079 -0.3335  0.2130
   14SAPS  H14R 1795   0.831   3.686   3.738  0.9051 -0.2621 -1.0968
   14SAPS  C215 1796   0.831   3.506   3.838 -0.5076  0.3584  0.1084
   14SAPS  H15R 1797   0.877   3.547   3.929  1.8165 -0.1370 -0.7802
   14SAPS  C216 1798   0.809   3.357   3.852  0.2415  0.5662 -0.4936
   14SAPS  H16R 1799   0.853   3.306   3.764  0.4339  1.2586 -0.8056
   14SAPS  H16S 1800   0.704   3.322   3.867  0.7401 -2.2621 -2.8028
   14SAPS  C217 1801   0.880   3.300   3.975 -0.2586  0.3565 -0.3984
   14SAPS  H17R 1802   0.819   3.309   4.068 -0.6078 -1.8768 -0.3613
   14SAPS  H17S 1803   0.976   3.344   4.009 -0.2958 -0.9869  1.5814
   14SAPS  C218 1804   0.919   3.156   3.948 -0.0810  0.1581  0.0503
   14SAPS  H18R 1805   0.998   3.162   3.870 -1.1371 -0.9572 -1.1638
   14SAPS  H18S 1806   0.832   3.106   3.899 -1.5750  0.5312  2.1869
   14SAPS  C219 1807   0.969   3.085   4.071 -0.2080  0.0765 -0.2529
   14SAPS  H19R 1808   0.881   3.086   4.138 -1.8280  4.0734 -2.1156
   14SAPS  H19S 1809   1.037   3.149   4.131 -1.9631  0.7037  1.1604
   14SAPS  C220 1810   1.024   2.944   4.052  0.0404  0.0913  0.1341
   14SAPS  H20R 1811   0.942   2.885   4.006 -0.9747  1.3716  0.2804
   14SAPS  H20S 1812   1.061   2.884   4.139  0.8889 -0.4567 -0.5827
   14SAPS  H20T 1813   1.098   2.949   3.969 -2.0215  1.3771 -1.7228
   14SAPS   C33 1814   1.200   3.273   2.617 -0.0445 -0.0337  0.1493
   14SAPS   H3X 1815   1.135   3.361   2.600 -0.1160  0.0347  0.7291
   14SAPS   H3Y 1816   1.277   3.258   2.539 -2.4900 -2.8006 -1.9414
   14SAPS   C34 1817   1.270   3.308   2.751  0.0606  0.3793 -0.2335
   14SAPS   H4X 1818   1.291   3.416   2.741 -2.0777  0.9744  0.9946
   14SAPS   H4Y 1819   1.367   3.254   2.758 -0.1160  0.1006  0.1105
   14SAPS   C35 1820   1.187   3.290   2.876  0.3846  0.3815 -0.4112
   14SAPS   H5X 1821   1.167   3.181   2.884  0.1143  0.3536 -1.3536
   14SAPS   H5Y 1822   1.098   3.356   2.863  0.6277  1.1291  1.3813
   14SAPS   C36 1823   1.257   3.331   3.007 -0.2284 -0.4570 -0.2916
   14SAPS   H6X 1824   1.309   3.429   3.008 -1.1603  0.1620 -2.9186
   14SAPS   H6Y 1825   1.338   3.255   3.020  2.5375  2.4558  0.6542
   14SAPS   C37 1826   1.159   3.334   3.125 -0.3155 -0.2001 -0.5291
   14SAPS   H7X 1827   1.086   3.251   3.124  0.9839 -1.4674  1.7318
   14SAPS   H7Y 1828   1.101   3.429   3.121  0.1508  0.3586  2.6529
   14SAPS   C38 1829   1.227   3.327   3.265  0.6246  0.0071 -0.4602
   14SAPS   H8X 1830   1.300   3.411   3.261  0.9469 -0.3045 -1.1811
   14SAPS   H8Y 1831   1.283   3.233   3.289 -1.4447 -0.8554  1.3344
   14SAPS   C39 1832   1.132   3.357   3.383  0.2844 -0.0036 -0.3760
   14SAPS   H9X 1833   1.068   3.267   3.398  0.7783 -0.4112 -0.6780
   14SAPS   H9Y 1834   1.070   3.447   3.365 -0.6372 -1.0106 -2.6496
   14SAPS  C310 1835   1.219   3.370   3.509  0.4100  0.2765 -0.2954
   14SAPS  H10X 1836   1.290   3.454   3.491 -0.5801  1.4895  1.2265
   14SAPS  H10Y 1837   1.273   3.273   3.507  0.5713  0.3654 -0.1752
   14SAPS  C311 1838   1.150   3.403   3.638 -0.2925  0.7839 -0.2063
   14SAPS  H11X 1839   1.070   3.329   3.661 -1.7541  2.7687  1.5162
   14SAPS  H11Y 1840   1.114   3.507   3.619 -1.2551  0.4631 -0.1918
   14SAPS  C312 1841   1.237   3.417   3.765 -0.6792 -0.0525 -0.6163
   14SAPS  H12X 1842   1.166   3.456   3.841  2.3790  0.3268  2.2530
   14SAPS  H12Y 1843   1.309   3.502   3.761  0.0854 -0.7031 -0.8823
   14SAPS  C313 1844   1.301   3.285   3.809  0.2201  0.3216  0.0568
   14SAPS  H13X 1845   1.380   3.260   3.735  2.5140 -0.0950  2.4734
   14SAPS  H13Y 1846   1.226   3.204   3.798 -0.1299  0.3872  1.7438
   14SAPS  C314 1847   1.344   3.281   3.955  0.4232  0.7325 -0.3292
   14SAPS  H14X 1848   1.259   3.318   4.017 -0.9749  0.3360 -1.9269
   14SAPS  H14Y 1849   1.426   3.353   3.972  0.1835  0.9225  0.0584
   14SAPS  C315 1850   1.393   3.142   4.007  0.5715  0.4970 -0.5587
   14SAPS  H15X 1851   1.485   3.112   3.953 -0.4683 -0.8680 -1.6644
   14SAPS  H15Y 1852   1.316   3.063   3.995  0.5239  0.5180 -0.4047
   14SAPS  C316 1853   1.424   3.154   4.159 -0.4328 -0.5026  0.6870
   14SAPS  H16X 1854   1.333   3.194   4.209 -0.9617 -1.2904  0.3743
   14SAPS  H16Y 1855   1.498   3.236   4.168 -1.1535  0.0592  1.7420
   14SAPS  C317 1856   1.474   3.034   4.227  0.4975  0.8680  0.2224
   14SAPS  H17X 1857   1.498   2.960   4.147 -1.1184 -0.0284  0.5332
   14SAPS  H17Y 1858   1.393   2.985   4.285 -1.0196  1.0086 -1.6910
   14SAPS  C318 1859   1.598   3.044   4.321  0.1736 -0.4975  0.2885
   14SAPS  H18X 1860   1.574   3.109   4.407 -0.1679  0.6904 -0.6753
   14SAPS  H18Y 1861   1.689   3.078   4.266 -1.9857 -0.0144 -3.2672
   14SAPS  H18Z 1862   1.631   2.941   4.348  4.6292  0.6580  0.1393
   15SAPS     N 1863   5.090   1.631   2.134 -0.3891  0.2434 -0.5420
   15SAPS   HN1 1864   4.987   1.639   2.144 -0.3004  0.8898 -0.1129
   15SAPS   HN2 1865   5.112   1.530   2.135 -1.7767 -0.0819  0.9985
   15SAPS   HN3 1866   5.144   1.670   2.213  0.9785  0.1088 -1.3748
   15SAPS   C12 1867   5.130   1.678   2.004  0.1041 -0.0134  0.0047
   15SAPS  H12A 1868   5.079   1.635   1.919  1.3895  0.9458 -1.2904
   15SAPS   C13 1869   5.119   1.831   1.972  0.8146  0.3997  0.3536
   15SAPS  O13A 1870   5.044   1.899   2.044 -0.3001  0.3042 -0.0942
   15SAPS  O13B 1871   5.141   1.860   1.853 -0.0822  0.6329  0.0285
   15SAPS   C11 1872   5.282   1.638   2.000  0.1495 -0.3396 -0.2216
   15SAPS  H11A 1873   5.328   1.669   2.096 -0.6104 -0.6451  0.2513
   15SAPS  H11B 1874   5.332   1.698   1.921  0.0136 -0.1008 -0.1278
   15SAPS     P 1875   5.406   1.450   1.862  0.0342  0.4992 -0.5714
   15SAPS   O13 1876   5.356   1.322   1.801  0.1823  0.0369  0.4353
   15SAPS   O14 1877   5.441   1.557   1.771 -0.2790  0.0025  0.0203
   15SAPS   O12 1878   5.298   1.498   1.968 -0.4518 -0.3312  0.4572
   15SAPS   O11 1879   5.531   1.413   1.957  0.3728 -0.0280  0.1548
   15SAPS    C1 1880   5.531   1.315   2.061 -0.1002 -0.2282 -0.1564
   15SAPS    HA 1881   5.460   1.233   2.039 -0.7555  0.2704  0.0772
   15SAPS    HB 1882   5.634   1.272   2.059 -0.6838 -1.7402  0.7912
   15SAPS    C2 1883   5.512   1.380   2.198 -0.7324  0.4902 -0.4085
   15SAPS    HS 1884   5.416   1.435   2.203 -0.0972  1.5103  1.8742
   15SAPS   O21 1885   5.631   1.463   2.207 -0.0333 -0.3585  0.2209
   15SAPS   C21 1886   5.608   1.588   2.254  0.2562  0.5592 -1.0721
   15SAPS   O22 1887   5.502   1.625   2.295 -0.4352 -0.1739  0.0873
   15SAPS   C22 1888   5.733   1.662   2.258  0.8854  0.1959 -0.2816
   15SAPS   H2R 1889   5.820   1.593   2.254 -0.1350 -1.2017  0.5558
   15SAPS   H2S 1890   5.735   1.710   2.158  2.3881 -0.7989 -0.7599
   15SAPS    C3 1891   5.513   1.278   2.319 -0.0139  0.2598  0.0271
   15SAPS    HX 1892   5.603   1.215   2.300  0.8507  1.0073  1.4498
   15SAPS    HY 1893   5.419   1.219   2.312  0.1499 -0.3040  1.9527
   15SAPS   O31 1894   5.519   1.337   2.451  0.6240 -0.3521  0.2901
   15SAPS   C31 1895   5.402   1.360   2.517 -0.3799 -0.1724 -0.2953
   15SAPS   O32 1896   5.293   1.319   2.486 -0.9737 -0.2911 -0.4360
   15SAPS   C32 1897   5.435   1.435   2.647 -0.4517  0.1315 -0.2066
   15SAPS   H2X 1898   5.539   1.472   2.635 -0.2543 -0.7599 -1.4888
   15SAPS   H2Y 1899   5.440   1.352   2.721 -0.9871  0.1484 -0.1416
   15SAPS   C23 1900   5.740   1.758   2.375 -0.2343 -1.0517  0.1728
   15SAPS   H3R 1901   5.669   1.844   2.370  1.1716  0.2166  1.1940
   15SAPS   H3S 1902   5.841   1.805   2.372 -1.3574  1.5625 -2.2751
   15SAPS   C24 1903   5.725   1.698   2.515  1.0022  0.3019  0.7220
   15SAPS   H4R 1904   5.794   1.611   2.514  1.6745  0.7700 -1.6042
   15SAPS   H4S 1905   5.624   1.652   2.522  0.5454  1.1595  0.0935
   15SAPS   C25 1906   5.749   1.790   2.631 -0.2357  0.1006 -0.4388
   15SAPS   H5R 1907   5.709   1.893   2.625 -1.2333 -0.0934  1.9113
   15SAPS   C26 1908   5.821   1.753   2.744  0.1853 -0.2516  0.1682
   15SAPS   H6R 1909   5.838   1.825   2.826  0.3309 -0.6930  0.5321
   15SAPS   C27 1910   5.883   1.620   2.773  0.6768 -0.2568  0.3238
   15SAPS   H7R 1911   5.834   1.541   2.712  0.9007 -0.5256  0.4908
   15SAPS   H7S 1912   5.864   1.596   2.880 -0.1254  0.7062  0.4061
   15SAPS   C28 1913   6.031   1.616   2.748 -0.2356  0.2689  0.3570
   15SAPS   H8R 1914   6.058   1.625   2.642 -1.5836  2.4275  0.1297
   15SAPS   C29 1915   6.123   1.595   2.841 -0.1331 -0.4607 -0.2231
   15SAPS   H9R 1916   6.225   1.604   2.802 -1.0368 -0.3457 -2.7864
   15SAPS  C210 1917   6.112   1.567   2.988  0.2947 -0.8184 -0.3211
   15SAPS  H10R 1918   6.211   1.543   3.030  1.0975 -1.8509 -2.6408
   15SAPS  H10S 1919   6.039   1.485   3.005  0.5760 -0.7860  1.2001
   15SAPS  C211 1920   6.051   1.682   3.068 -0.2355 -0.7042  0.0917
   15SAPS  H11R 1921   5.981   1.748   3.014 -0.3236 -1.7841 -1.1487
   15SAPS  C212 1922   6.061   1.684   3.202 -0.3036  0.2436  0.2648
   15SAPS  H12R 1923   6.019   1.770   3.256 -0.2945  0.9073 -0.7626
   15SAPS  C213 1924   6.135   1.585   3.288  0.6063  0.2673 -0.4378
   15SAPS  H13R 1925   6.221   1.648   3.319  2.5161 -2.3503 -0.0220
   15SAPS  H13S 1926   6.181   1.499   3.235  0.0778  1.0617 -2.2301
   15SAPS  C214 1927   6.065   1.537   3.419  0.5581  0.1779 -0.4521
   15SAPS  H14R 1928   5.979   1.471   3.399  1.8441 -2.1530  1.1775
   15SAPS  C215 1929   6.090   1.551   3.551  0.2744 -0.5139 -0.3822
   15SAPS  H15R 1930   6.018   1.516   3.627  0.0665  0.6159 -0.0425
   15SAPS  C216 1931   6.209   1.621   3.611 -1.0503  0.3642  0.6212
   15SAPS  H16R 1932   6.259   1.681   3.532 -0.6554 -1.1100 -0.2892
   15SAPS  H16S 1933   6.278   1.549   3.659 -3.0473 -1.7456  0.5050
   15SAPS  C217 1934   6.158   1.721   3.719  0.7296 -0.4777 -0.2876
   15SAPS  H17R 1935   6.056   1.757   3.696  0.3657 -1.5053 -0.3494
   15SAPS  H17S 1936   6.220   1.811   3.736 -0.3751  0.0245  1.2523
   15SAPS  C218 1937   6.165   1.654   3.858  0.5186  0.2139 -0.5497
   15SAPS  H18R 1938   6.270   1.623   3.876  0.3835  1.3504  3.0465
   15SAPS  H18S 1939   6.092   1.571   3.870  0.2602  0.5375  0.1313
   15SAPS  C219 1940   6.147   1.761   3.973 -0.5209  0.4298  0.3687
   15SAPS  H19R 1941   6.040   1.789   3.970  0.1146  2.9715 -1.4779
   15SAPS  H19S 1942   6.212   1.848   3.952 -1.3689  1.1749  0.7560
   15SAPS  C220 1943   6.174   1.686   4.106 -0.0900 -0.1277 -0.1906
   15SAPS  H20R 1944   6.273   1.635   4.107 -0.3420 -0.6820  1.9540
   15SAPS  H20S 1945   6.105   1.599   4.101  0.2217 -0.3751 -0.2267
   15SAPS  H20T 1946   6.147   1.747   4.194 -3.3837 -0.2112 -1.0166
   15SAPS   C33 1947   5.338   1.543   2.687 -0.2705  0.3726 -0.7318
   15SAPS   H3X 1948   5.238   1.495   2.687 -0.5253  0.8755 -1.8182
   15SAPS   H3Y 1949   5.344   1.632   2.621  1.7628  0.3678 -0.6092
   15SAPS   C34 1950   5.348   1.578   2.838  0.4291  0.4139 -0.6587
   15SAPS   H4X 1951   5.379   1.488   2.895  1.7907  0.3889 -1.3891
   15SAPS   H4Y 1952   5.246   1.609   2.870  0.2860 -0.3481 -0.3513
   15SAPS   C35 1953   5.444   1.698   2.867 -0.0991  0.0469  0.2339
   15SAPS   H5X 1954   5.407   1.792   2.821 -2.0738 -0.5241  0.5476
   15SAPS   H5Y 1955   5.536   1.682   2.807 -0.7644 -1.2412 -0.4894
   15SAPS   C36 1956   5.473   1.711   3.022 -0.2057  0.0069  1.1197
   15SAPS   H6X 1957   5.514   1.615   3.059 -0.5415 -0.3771  0.5063
   15SAPS   H6Y 1958   5.375   1.726   3.073 -0.5275  2.2169 -0.0268
   15SAPS   C37 1959   5.580   1.821   3.038  0.3507  0.0303  1.1793
   15SAPS   H7X 1960   5.557   1.921   2.996  1.2957 -0.0602  0.4130
   15SAPS   H7Y 1961   5.672   1.793   2.982 -0.8197  1.2832 -1.5326
   15SAPS   C38 1962   5.616   1.833   3.181  0.1599 -0.5368 -0.8420
   15SAPS   H8X 1963   5.640   1.733   3.223  0.4339  0.2642  1.0133
   15SAPS   H8Y 1964   5.532   1.872   3.242  0.3893  1.2755 -1.6420
   15SAPS   C39 1965   5.733   1.917   3.213 -0.7516 -0.6171  0.9742
   15SAPS   H9X 1966   5.723   2.017   3.164 -0.4450 -0.8106  0.5109
   15SAPS   H9Y 1967   5.821   1.873   3.162 -0.2855  1.2944  0.0214
   15SAPS  C310 1968   5.753   1.939   3.362  0.1620 -0.4204  0.5702
   15SAPS  H10X 1969   5.672   2.005   3.399 -0.5717 -1.7186  1.3481
   15SAPS  H10Y 1970   5.852   1.983   3.387 -0.3178  1.0145 -0.0007
   15SAPS  C311 1971   5.732   1.824   3.455 -0.0367  0.6656 -0.0727
   15SAPS  H11X 1972   5.787   1.735   3.418 -1.2506 -0.3812  0.5431
   15SAPS  H11Y 1973   5.623   1.804   3.448  0.4395 -1.8012 -1.3573
   15SAPS  C312 1974   5.759   1.849   3.603 -0.1743  0.2115  0.8043
   15SAPS  H12X 1975   5.861   1.891   3.605 -0.5166  1.4576 -2.6327
   15SAPS  H12Y 1976   5.751   1.757   3.665  1.7393 -0.5456 -0.0024
   15SAPS  C313 1977   5.672   1.951   3.677  0.0821  0.1435 -0.5047
   15SAPS  H13X 1978   5.569   1.916   3.701  1.0575 -0.5811  3.3172
   15SAPS  H13Y 1979   5.672   2.036   3.606 -1.7069  1.1770  0.6411
   15SAPS  C314 1980   5.728   1.991   3.811  0.2035  0.0824 -0.3675
   15SAPS  H14X 1981   5.771   2.093   3.813  2.4059 -0.7877  1.2157
   15SAPS  H14Y 1982   5.817   1.928   3.833 -0.8528 -1.5318 -0.4686
   15SAPS  C315 1983   5.630   1.960   3.929  0.0556  1.2209 -0.1951
   15SAPS  H15X 1984   5.619   1.850   3.940 -1.0798  1.3285 -0.1579
   15SAPS  H15Y 1985   5.534   2.012   3.912 -0.4208 -0.1995 -2.1463
   15SAPS  C316 1986   5.683   2.012   4.067  0.3010  0.1839  0.1699
   15SAPS  H16X 1987   5.785   1.970   4.084 -0.4949 -1.8203  0.2824
   15SAPS  H16Y 1988   5.613   1.980   4.147  1.8768 -0.9992  1.1400
   15SAPS  C317 1989   5.700   2.161   4.073  0.3239  0.6423  0.5517
   15SAPS  H17X 1990   5.601   2.206   4.053  0.1352 -0.3637 -0.9367
   15SAPS  H17Y 1991   5.779   2.187   3.999  0.1820 -1.0281 -0.2178
   15SAPS  C318 1992   5.755   2.215   4.209 -0.2482 -0.6373 -0.0310
   15SAPS  H18X 1993   5.758   2.326   4.205  0.8963 -0.6904 -2.4120
   15SAPS  H18Y 1994   5.862   2.186   4.212 -0.1320 -0.2975 -0.7342
   15SAPS  H18Z 1995   5.704   2.180   4.301 -2.4536  0.5200 -0.7495
   16SAPS     N 1996   6.346   5.215   1.732  0.5856  0.4677  0.3469
   16SAPS   HN1 1997   6.253   5.260   1.751  0.6038  0.1884  1.1637
   16SAPS   HN2 1998   6.430   5.274   1.752  1.1767 -0.2340 -0.0359
   16SAPS   HN3 1999   6.338   5.182   1.634 -0.0989 -1.3176  0.9591
   16SAPS   C12 2000   6.350   5.092   1.810 -0.5105  0.0640 -0.6926
   16SAPS  H12A 2001   6.255   5.044   1.792 -1.1850  0.8559  0.6028
   16SAPS   C13 2002   6.457   4.990   1.775 -0.7897 -0.6980 -0.3276
   16SAPS  O13A 2003   6.523   5.019   1.671 -0.0979 -0.1922  0.3010
   16SAPS  O13B 2004   6.447   4.875   1.815 -0.1682  0.1999 -0.9459
   16SAPS   C11 2005   6.371   5.120   1.965  0.0889  0.2407  0.2932
   16SAPS  H11A 2006   6.470   5.170   1.977 -0.7143  1.8207  0.5384
   16SAPS  H11B 2007   6.369   5.020   2.014 -2.9446 -0.0410 -0.2180
   16SAPS     P 2008   6.288   5.322   2.104 -0.1785  0.6417  0.8078
   16SAPS   O13 2009   6.380   5.418   2.042 -0.0987 -1.0063  0.0462
   16SAPS   O14 2010   6.159   5.366   2.157  0.2665  0.1143  0.7780
   16SAPS   O12 2011   6.262   5.201   2.003 -0.1172  0.1480  0.0429
   16SAPS   O11 2012   6.364   5.234   2.214 -0.5897  0.0332  0.2806
   16SAPS    C1 2013   6.452   5.312   2.305  0.3603  0.1841 -0.1129
   16SAPS    HA 2014   6.471   5.418   2.280  0.9321  0.0387 -0.2950
   16SAPS    HB 2015   6.412   5.311   2.409 -0.3628 -0.5534 -0.3884
   16SAPS    C2 2016   6.597   5.258   2.317 -0.2146  0.3616 -0.2314
   16SAPS    HS 2017   6.649   5.280   2.221  1.8290 -2.1552  0.1962
   16SAPS   O21 2018   6.600   5.118   2.353 -0.1263  0.3633  0.2759
   16SAPS   C21 2019   6.632   5.034   2.254 -0.1901  0.1381 -0.2476
   16SAPS   O22 2020   6.655   5.068   2.140 -0.7725  1.0158 -0.2344
   16SAPS   C22 2021   6.616   4.896   2.309  0.5035  0.3661  0.2297
   16SAPS   H2R 2022   6.634   4.894   2.418 -4.1344  1.5546  1.2283
   16SAPS   H2S 2023   6.510   4.864   2.306  0.7993 -0.7580  1.2767
   16SAPS    C3 2024   6.663   5.347   2.421  0.1597 -0.2628 -0.0526
   16SAPS    HX 2025   6.667   5.454   2.391 -1.6564  0.5308  2.2205
   16SAPS    HY 2026   6.765   5.304   2.432  1.4794  2.5670 -0.3620
   16SAPS   O31 2027   6.589   5.333   2.549 -0.4389  0.1258  0.5769
   16SAPS   C31 2028   6.542   5.443   2.606  0.4234  0.0811  0.2363
   16SAPS   O32 2029   6.526   5.552   2.561 -0.4004 -0.3906  0.0363
   16SAPS   C32 2030   6.499   5.400   2.741 -0.2172  0.0081  0.5041
   16SAPS   H2X 2031   6.592   5.370   2.795 -0.1864  0.9879  1.0209
   16SAPS   H2Y 2032   6.430   5.315   2.725 -1.6592  0.7176  2.6249
   16SAPS   C23 2033   6.689   4.792   2.218 -0.1496 -0.4026 -0.0026
   16SAPS   H3R 2034   6.784   4.836   2.183 -0.1794  0.2889  0.7384
   16SAPS   H3S 2035   6.627   4.765   2.130 -1.4382  1.6338  0.1950
   16SAPS   C24 2036   6.721   4.669   2.300 -0.2731  0.4344  0.0167
   16SAPS   H4R 2037   6.774   4.702   2.392 -0.5206 -1.1997  0.7738
   16SAPS   H4S 2038   6.793   4.608   2.242 -1.3919 -1.1826  0.2674
   16SAPS   C25 2039   6.610   4.576   2.337  0.2238  0.1512  0.7061
   16SAPS   H5R 2040   6.558   4.519   2.258  0.5561 -0.3528  0.8448
   16SAPS   C26 2041   6.558   4.547   2.455  0.1104  0.2546 -0.5405
   16SAPS   H6R 2042   6.479   4.470   2.456 -1.1158  1.3554 -3.2796
   16SAPS   C27 2043   6.615   4.586   2.589  0.1938  0.3055 -0.7610
   16SAPS   H7R 2044   6.562   4.679   2.618 -1.2446 -0.4450 -0.8595
   16SAPS   H7S 2045   6.722   4.613   2.579 -0.2262  2.6359  0.2813
   16SAPS   C28 2046   6.599   4.490   2.702  0.4891  0.2538 -0.3226
   16SAPS   H8R 2047   6.535   4.404   2.677  0.0551 -0.2465  2.2004
   16SAPS   C29 2048   6.658   4.511   2.824 -0.4923 -0.3472  0.6448
   16SAPS   H9R 2049   6.642   4.429   2.895 -5.0778 -2.1605 -2.0430
   16SAPS  C210 2050   6.744   4.631   2.858  0.1512  1.0470 -0.1108
   16SAPS  H10R 2051   6.674   4.716   2.873 -0.2289  1.0473 -1.7379
   16SAPS  H10S 2052   6.820   4.652   2.780  0.9421 -0.4712  0.2055
   16SAPS  C211 2053   6.815   4.597   2.984  0.4773  0.0072  0.2101
   16SAPS  H11R 2054   6.918   4.566   2.962  1.2854  1.9285  1.0038
   16SAPS  C212 2055   6.782   4.592   3.112  0.7503 -0.5171 -0.0935
   16SAPS  H12R 2056   6.852   4.549   3.185 -0.6787  1.4323  2.5990
   16SAPS  C213 2057   6.642   4.617   3.178 -0.7321  0.2123  0.2415
   16SAPS  H13R 2058   6.565   4.587   3.104  0.1816 -3.0780  0.4724
   16SAPS  H13S 2059   6.631   4.726   3.197  0.9849  0.4777 -0.1140
   16SAPS  C214 2060   6.633   4.539   3.301  0.3943 -0.5799 -0.0631
   16SAPS  H14R 2061   6.607   4.435   3.279 -1.9267  0.5730 -3.6405
   16SAPS  C215 2062   6.658   4.581   3.428 -0.0624 -0.8334  0.1669
   16SAPS  H15R 2063   6.634   4.510   3.508  1.0767 -1.9078 -0.4164
   16SAPS  C216 2064   6.705   4.722   3.465 -0.0172  0.4684  0.4294
   16SAPS  H16R 2065   6.630   4.777   3.525 -1.6885 -1.3114  0.0744
   16SAPS  H16S 2066   6.729   4.785   3.377 -2.1086 -1.1146 -1.3941
   16SAPS  C217 2067   6.837   4.737   3.538  0.1715 -0.6090  0.8475
   16SAPS  H17R 2068   6.860   4.845   3.550 -0.4013 -0.2334 -0.9565
   16SAPS  H17S 2069   6.906   4.684   3.469 -1.9920  0.7191 -2.6176
   16SAPS  C218 2070   6.827   4.669   3.675 -0.2210  0.0573 -0.4155
   16SAPS  H18R 2071   6.799   4.563   3.659 -1.9547  0.5110 -0.5424
   16SAPS  H18S 2072   6.741   4.727   3.713 -1.4461 -2.0204  0.1102
   16SAPS  C219 2073   6.950   4.680   3.780  0.3805 -0.2319  0.4864
   16SAPS  H19R 2074   6.916   4.654   3.883 -0.6369  0.5496  0.3690
   16SAPS  H19S 2075   6.981   4.787   3.784  1.7400 -0.6410  1.4364
   16SAPS  C220 2076   7.064   4.591   3.740  0.7986 -0.6685  0.9394
   16SAPS  H20R 2077   7.037   4.485   3.720 -0.9315  0.1034 -1.3578
   16SAPS  H20S 2078   7.134   4.588   3.826 -0.1226  0.8399  1.7910
   16SAPS  H20T 2079   7.110   4.625   3.644  0.4487  0.7270  1.2388
   16SAPS   C33 2080   6.423   5.500   2.825  0.0298  0.0846 -0.0947
   16SAPS   H3X 2081   6.320   5.513   2.786 -0.7055 -1.0418  1.3708
   16SAPS   H3Y 2082   6.483   5.593   2.825 -1.1149  0.8549 -1.6104
   16SAPS   C34 2083   6.413   5.460   2.978 -0.0572  0.0278  0.3104
   16SAPS   H4X 2084   6.515   5.452   3.022  0.1603  1.3738  0.0819
   16SAPS   H4Y 2085   6.354   5.367   2.992 -1.1206  0.8498  1.5217
   16SAPS   C35 2086   6.342   5.565   3.066 -0.5863 -0.1509 -0.0763
   16SAPS   H5X 2087   6.249   5.589   3.011  0.5280 -2.4017 -3.1637
   16SAPS   H5Y 2088   6.399   5.661   3.074  0.2777 -0.6473 -0.1680
   16SAPS   C36 2089   6.298   5.512   3.204 -0.7361 -0.3839 -0.3112
   16SAPS   H6X 2090   6.242   5.416   3.198 -2.3397  0.5303 -0.5683
   16SAPS   H6Y 2091   6.235   5.585   3.260 -1.2613  0.5291 -2.0093
   16SAPS   C37 2092   6.411   5.479   3.307 -0.6198  0.4508 -0.0332
   16SAPS   H7X 2093   6.502   5.532   3.271 -1.0793  0.0755 -1.8224
   16SAPS   H7Y 2094   6.437   5.371   3.307  0.5595  0.7125 -1.3073
   16SAPS   C38 2095   6.385   5.504   3.458  0.3159  0.4287  0.1267
   16SAPS   H8X 2096   6.293   5.458   3.500  1.2508  0.3704  2.2151
   16SAPS   H8Y 2097   6.360   5.612   3.458 -1.7110  0.0093  0.3998
   16SAPS   C39 2098   6.482   5.464   3.564  0.0484  0.3098 -0.1345
   16SAPS   H9X 2099   6.586   5.495   3.543  0.0432 -0.4423 -1.3374
   16SAPS   H9Y 2100   6.480   5.353   3.575  1.8783  0.1876 -0.7673
   16SAPS  C310 2101   6.439   5.510   3.707 -0.4674  0.3632  0.7789
   16SAPS  H10X 2102   6.344   5.455   3.726 -0.5047  0.2683  0.3304
   16SAPS  H10Y 2103   6.420   5.619   3.715  0.9157  0.7215 -0.3349
   16SAPS  C311 2104   6.543   5.474   3.820  0.7753 -0.0588 -0.4914
   16SAPS  H11X 2105   6.626   5.546   3.805 -0.0326  0.9004 -0.4833
   16SAPS  H11Y 2106   6.570   5.367   3.801 -0.6069 -0.7514  1.2246
   16SAPS  C312 2107   6.497   5.489   3.963  0.0649  0.2383 -0.7236
   16SAPS  H12X 2108   6.570   5.440   4.031 -0.1801  1.1056  0.1957
   16SAPS  H12Y 2109   6.400   5.435   3.975  0.7864 -0.8692  0.3937
   16SAPS  C313 2110   6.486   5.635   3.998  0.0931 -0.4103  0.0096
   16SAPS  H13X 2111   6.394   5.675   3.949 -2.1962 -5.0074  0.0034
   16SAPS  H13Y 2112   6.582   5.679   3.963  2.1733 -1.4289  3.8658
   16SAPS  C314 2113   6.476   5.674   4.149 -0.4915 -1.0386  0.8015
   16SAPS  H14X 2114   6.396   5.623   4.207 -1.1399 -1.6755 -0.6132
   16SAPS  H14Y 2115   6.461   5.784   4.161 -0.0785 -1.1213  2.3936
   16SAPS  C315 2116   6.605   5.659   4.231 -0.2265  0.3273  0.2606
   16SAPS  H15X 2117   6.690   5.692   4.167  2.1243 -1.2895  2.3608
   16SAPS  H15Y 2118   6.633   5.553   4.245 -1.4206  0.2023  1.9717
   16SAPS  C316 2119   6.604   5.742   4.353  0.4804 -0.3072  0.1094
   16SAPS  H16X 2120   6.519   5.729   4.423 -0.3096  2.9364 -0.0471
   16SAPS  H16Y 2121   6.599   5.846   4.314 -0.2548 -0.2614  0.3095
   16SAPS  C317 2122   6.735   5.737   4.435 -0.1397  0.9970  0.5663
   16SAPS  H17X 2123   6.819   5.753   4.363  0.5993  0.1750  1.2221
   16SAPS  H17Y 2124   6.755   5.635   4.475  1.3680  1.5186  1.2181
   16SAPS  C318 2125   6.754   5.826   4.562  0.3025 -0.2606  1.1609
   16SAPS  H18X 2126   6.687   5.798   4.647 -0.3648 -2.4117  0.0213
   16SAPS  H18Y 2127   6.764   5.932   4.533 -0.3154  0.0686  2.1056
   16SAPS  H18Z 2128   6.854   5.792   4.598  1.3733 -0.5816 -1.8899
   17SAPS     N 2129   3.304   2.372   1.523 -0.0222 -0.0445  0.2855
   17SAPS   HN1 2130   3.208   2.412   1.522 -0.0063  0.1416  2.5077
   17SAPS   HN2 2131   3.306   2.289   1.461 -0.3483  0.8910 -1.0427
   17SAPS   HN3 2132   3.312   2.349   1.624  0.4208  4.0447  1.3663
   17SAPS   C12 2133   3.394   2.484   1.480 -0.1972 -0.0583 -0.4646
   17SAPS  H12A 2134   3.472   2.487   1.555 -0.4357  0.1578 -0.2258
   17SAPS   C13 2135   3.453   2.456   1.338  0.1441 -0.3383 -0.1440
   17SAPS  O13A 2136   3.408   2.356   1.270  0.1851  0.1091  0.0747
   17SAPS  O13B 2137   3.525   2.545   1.290  0.3332 -0.9888 -0.0271
   17SAPS   C11 2138   3.313   2.617   1.483 -0.4791  0.5654 -0.9367
   17SAPS  H11A 2139   3.233   2.615   1.406 -1.2252  0.0220 -0.1697
   17SAPS  H11B 2140   3.382   2.702   1.465  0.8503 -0.0976  0.7130
   17SAPS     P 2141   3.256   2.754   1.704 -0.5152  0.3112  0.0966
   17SAPS   O13 2142   3.383   2.745   1.777 -0.4432 -0.1521 -0.2234
   17SAPS   O14 2143   3.228   2.875   1.630 -0.4656  0.4386 -0.4588
   17SAPS   O12 2144   3.244   2.633   1.607  0.1456 -0.3914 -0.5300
   17SAPS   O11 2145   3.133   2.729   1.802 -0.1376  0.4189  0.3219
   17SAPS    C1 2146   3.086   2.593   1.824  0.4649 -0.3039  0.4871
   17SAPS    HA 2147   3.073   2.541   1.727  2.3837 -2.9758  1.5336
   17SAPS    HB 2148   3.166   2.538   1.879  1.7856  1.7754  0.7690
   17SAPS    C2 2149   2.952   2.606   1.905 -0.1656 -0.4143  0.4966
   17SAPS    HS 2150   2.889   2.666   1.836  0.0836 -0.8525 -0.1197
   17SAPS   O21 2151   2.982   2.667   2.026 -0.0776 -0.0327 -0.5163
   17SAPS   C21 2152   2.875   2.728   2.088  0.2978  0.1366 -0.0165
   17SAPS   O22 2153   2.764   2.738   2.038  0.4294 -0.8714  0.3881
   17SAPS   C22 2154   2.916   2.763   2.230 -0.2967  0.1132  0.1027
   17SAPS   H2R 2155   3.026   2.758   2.244 -0.2106  2.2351  0.5238
   17SAPS   H2S 2156   2.888   2.871   2.238  0.8987  0.4451 -0.0123
   17SAPS    C3 2157   2.876   2.469   1.922 -0.6737 -0.8806 -0.9315
   17SAPS    HX 2158   2.854   2.441   1.816  0.2233  2.9604 -2.3036
   17SAPS    HY 2159   2.783   2.486   1.980 -0.7578 -1.7213 -0.8126
   17SAPS   O31 2160   2.964   2.373   1.985 -0.3695  0.0131  0.1748
   17SAPS   C31 2161   2.977   2.373   2.113 -0.0843  0.2023 -0.4312
   17SAPS   O32 2162   2.886   2.413   2.190  0.3619  0.2042  0.4447
   17SAPS   C32 2163   3.106   2.310   2.153 -0.6840  0.0698 -0.2597
   17SAPS   H2X 2164   3.190   2.379   2.131 -1.2953  0.1265 -2.7215
   17SAPS   H2Y 2165   3.130   2.216   2.098 -0.5056 -1.2694  1.9863
   17SAPS   C23 2166   2.825   2.699   2.342  0.2488 -0.1142 -0.3456
   17SAPS   H3R 2167   2.863   2.596   2.358 -1.2662 -0.8619 -1.4296
   17SAPS   H3S 2168   2.717   2.686   2.319  0.2657  1.5750 -1.5746
   17SAPS   C24 2169   2.829   2.788   2.469 -0.0706 -0.1110 -0.5169
   17SAPS   H4R 2170   2.764   2.750   2.550  0.2757 -0.2482 -0.2988
   17SAPS   H4S 2171   2.789   2.889   2.447  1.7223  0.3906 -1.7387
   17SAPS   C25 2172   2.969   2.798   2.524  0.1836 -0.2582 -0.1247
   17SAPS   H5R 2173   3.038   2.869   2.478 -1.3010  2.2634  1.2754
   17SAPS   C26 2174   3.018   2.726   2.633  0.1975 -0.3455 -0.1722
   17SAPS   H6R 2175   3.121   2.742   2.667  0.2866  2.0829 -1.3542
   17SAPS   C27 2176   2.949   2.629   2.721  0.2856 -0.0171  0.0810
   17SAPS   H7R 2177   2.867   2.583   2.662  0.5186 -1.5278  0.9023
   17SAPS   H7S 2178   2.903   2.676   2.811  3.4601  1.3225  1.1435
   17SAPS   C28 2179   3.029   2.520   2.788  0.1685 -0.0197 -0.0486
   17SAPS   H8R 2180   3.039   2.423   2.737  0.0820  0.3196 -0.7340
   17SAPS   C29 2181   3.093   2.537   2.910 -0.4492 -0.3997  0.7308
   17SAPS   H9R 2182   3.148   2.451   2.952  0.1167 -0.4751 -0.1529
   17SAPS  C210 2183   3.091   2.667   2.991 -0.2721  0.8185  0.5808
   17SAPS  H10R 2184   3.025   2.654   3.079 -0.2857  1.3993  0.6588
   17SAPS  H10S 2185   3.046   2.753   2.936  1.4366  0.0393 -2.2878
   17SAPS  C211 2186   3.235   2.694   3.037 -0.3357 -0.0691  0.5864
   17SAPS  H11R 2187   3.309   2.649   2.967 -1.2826 -0.3037 -0.2898
   17SAPS  C212 2188   3.282   2.744   3.151  0.1710  0.8641  0.2269
   17SAPS  H12R 2189   3.389   2.760   3.170  0.6162  1.1121 -2.1786
   17SAPS  C213 2190   3.191   2.803   3.261 -0.1205  0.2272  0.8175
   17SAPS  H13R 2191   3.092   2.830   3.219  0.7270  1.8123 -0.2539
   17SAPS  H13S 2192   3.228   2.906   3.280  1.1675 -0.2091  0.8056
   17SAPS  C214 2193   3.190   2.724   3.384  0.1479 -0.0706  0.0994
   17SAPS  H14R 2194   3.195   2.615   3.372  2.4711  0.1085 -1.4053
   17SAPS  C215 2195   3.209   2.767   3.505 -0.0262 -0.7084  0.2993
   17SAPS  H15R 2196   3.222   2.693   3.585  2.4584 -0.0539  0.5666
   17SAPS  C216 2197   3.223   2.908   3.548  0.2380  0.1859 -0.4528
   17SAPS  H16R 2198   3.179   2.979   3.474  1.1782  0.9081 -0.3389
   17SAPS  H16S 2199   3.331   2.932   3.557 -0.0682  1.4172  0.1762
   17SAPS  C217 2200   3.164   2.935   3.684  0.0833 -0.1542 -0.3368
   17SAPS  H17R 2201   3.207   2.859   3.752  1.9151  1.7326  0.7288
   17SAPS  H17S 2202   3.053   2.926   3.683  0.1271 -0.7395 -0.6556
   17SAPS  C218 2203   3.223   3.065   3.747  0.8382  0.3484  0.3611
   17SAPS  H18R 2204   3.161   3.140   3.694  0.1575 -0.2075  0.3498
   17SAPS  H18S 2205   3.332   3.078   3.731  1.3536 -2.0481  1.3943
   17SAPS  C219 2206   3.203   3.085   3.896 -0.7531 -0.1598 -0.0997
   17SAPS  H19R 2207   3.235   3.186   3.929 -0.2070 -0.4652  0.3257
   17SAPS  H19S 2208   3.279   3.018   3.940 -0.9403 -1.5045 -1.7226
   17SAPS  C220 2209   3.060   3.059   3.945  0.5623 -1.2897 -0.2671
   17SAPS  H20R 2210   3.022   2.961   3.908  2.3953 -1.7961 -0.9354
   17SAPS  H20S 2211   2.992   3.135   3.903 -0.1867 -1.3733  0.7710
   17SAPS  H20T 2212   3.065   3.073   4.055  1.1370  1.4130 -0.5752
   17SAPS   C33 2213   3.117   2.271   2.303 -0.2142  0.4271  1.2076
   17SAPS   H3X 2214   3.061   2.326   2.382  1.1250  0.1245  2.3981
   17SAPS   H3Y 2215   3.224   2.277   2.330  0.7858 -3.0262 -1.3094
   17SAPS   C34 2216   3.077   2.122   2.330  0.0250 -0.7915 -0.3171
   17SAPS   H4X 2217   3.119   2.044   2.264  0.3174 -1.8894  1.1059
   17SAPS   H4Y 2218   2.966   2.114   2.336  0.0778 -1.2381  0.0995
   17SAPS   C35 2219   3.136   2.074   2.464 -0.2628  0.2946 -0.0338
   17SAPS   H5X 2220   3.246   2.089   2.471 -0.2814 -0.0148  1.0351
   17SAPS   H5Y 2221   3.125   1.964   2.476 -1.5968  0.3491 -0.5244
   17SAPS   C36 2222   3.074   2.151   2.583  0.0010 -0.3909 -0.0007
   17SAPS   H6X 2223   2.965   2.173   2.570  0.1829 -0.6278 -2.4750
   17SAPS   H6Y 2224   3.119   2.253   2.581 -0.1774 -0.2524  1.6051
   17SAPS   C37 2225   3.112   2.099   2.717  0.1103  0.2451 -1.0521
   17SAPS   H7X 2226   3.223   2.101   2.722  0.0641  0.8509  3.3567
   17SAPS   H7Y 2227   3.074   1.996   2.731  1.1138 -0.2978 -2.1486
   17SAPS   C38 2228   3.071   2.185   2.837  0.0014 -0.1923  0.5561
   17SAPS   H8X 2229   2.962   2.196   2.818 -0.5817 -2.8168  1.9668
   17SAPS   H8Y 2230   3.131   2.277   2.855  2.0356 -1.4446  0.3238
   17SAPS   C39 2231   3.066   2.100   2.962 -0.5176  0.1630 -0.8346
   17SAPS   H9X 2232   3.167   2.053   2.965 -0.8248 -0.4976  2.6695
   17SAPS   H9Y 2233   2.981   2.030   2.958 -0.2099 -0.3561  1.0380
   17SAPS  C310 2234   3.046   2.186   3.088 -0.8143  0.0622 -0.0455
   17SAPS  H10X 2235   2.938   2.216   3.088 -0.8940 -0.1860 -0.9564
   17SAPS  H10Y 2236   3.109   2.277   3.079  3.3648 -2.4201  1.6060
   17SAPS  C311 2237   3.094   2.119   3.221 -0.7116  0.0398 -0.6292
   17SAPS  H11X 2238   3.202   2.094   3.211 -0.6240  0.8939 -2.1047
   17SAPS  H11Y 2239   3.030   2.034   3.253 -1.9109  0.9929 -0.4474
   17SAPS  C312 2240   3.073   2.227   3.324 -0.2027  0.5422 -0.8868
   17SAPS  H12X 2241   2.965   2.254   3.321  0.4070  3.2521 -1.3874
   17SAPS  H12Y 2242   3.122   2.317   3.281 -0.3092  1.0607  0.0661
   17SAPS  C313 2243   3.119   2.210   3.465  0.1762 -0.0161 -0.5582
   17SAPS  H13X 2244   3.229   2.197   3.473  0.5720  2.6796 -0.8728
   17SAPS  H13Y 2245   3.074   2.118   3.509  0.7163  0.0148  0.0767
   17SAPS  C314 2246   3.082   2.337   3.547  0.2747  0.0992 -0.1750
   17SAPS  H14X 2247   2.972   2.354   3.543  0.1598  0.0128  1.7250
   17SAPS  H14Y 2248   3.135   2.424   3.504 -1.4041  0.9456 -0.6149
   17SAPS  C315 2249   3.123   2.316   3.699 -0.4636  0.0528  0.2405
   17SAPS  H15X 2250   3.229   2.280   3.700 -0.2381  0.7088  1.2519
   17SAPS  H15Y 2251   3.064   2.237   3.750  0.4479  1.6049  4.0013
   17SAPS  C316 2252   3.126   2.444   3.779  0.0770  0.1744 -0.0174
   17SAPS  H16X 2253   3.018   2.465   3.794 -0.3200 -1.3125 -0.6717
   17SAPS  H16Y 2254   3.167   2.526   3.715 -0.7180  0.8233  0.2892
   17SAPS  C317 2255   3.189   2.427   3.919  0.0358  0.1744  0.1943
   17SAPS  H17X 2256   3.297   2.407   3.905 -0.0091  0.2383 -0.2871
   17SAPS  H17Y 2257   3.145   2.336   3.965 -2.4892  0.8915 -0.5969
   17SAPS  C318 2258   3.174   2.550   4.006  0.3426  0.7670  0.1422
   17SAPS  H18X 2259   3.240   2.533   4.094  0.5274  0.7109 -0.0059
   17SAPS  H18Y 2260   3.070   2.571   4.038  0.2442  0.1881  0.2150
   17SAPS  H18Z 2261   3.204   2.642   3.952  0.7295  0.0765 -0.8441
   18SAPS     N 2262   1.389   1.426   1.925 -0.1679 -0.4609 -0.1173
   18SAPS   HN1 2263   1.481   1.454   1.964 -0.2026 -0.7718  0.1933
   18SAPS   HN2 2264   1.316   1.492   1.958  0.9256  0.0758  1.3425
   18SAPS   HN3 2265   1.364   1.340   1.979 -1.2837 -0.0846 -0.0131
   18SAPS   C12 2266   1.398   1.418   1.774 -0.4450 -0.3010 -0.1178
   18SAPS  H12A 2267   1.498   1.384   1.752 -1.6574 -2.9859 -1.9769
   18SAPS   C13 2268   1.312   1.305   1.705 -0.1585  0.3299  0.5627
   18SAPS  O13A 2269   1.214   1.262   1.763 -0.2989 -0.0539 -0.2670
   18SAPS  O13B 2270   1.328   1.290   1.578  0.5623 -0.1404 -0.1667
   18SAPS   C11 2271   1.378   1.555   1.710 -0.3856 -0.6332  0.1305
   18SAPS  H11A 2272   1.284   1.603   1.744  0.7651  1.9024 -0.0402
   18SAPS  H11B 2273   1.379   1.544   1.600 -1.8572 -1.6901  0.2025
   18SAPS     P 2274   1.584   1.719   1.659  0.3462  0.1594 -0.1667
   18SAPS   O13 2275   1.689   1.617   1.622  0.3509  0.2210 -0.2020
   18SAPS   O14 2276   1.493   1.756   1.550  0.0291  0.2583 -0.2906
   18SAPS   O12 2277   1.489   1.641   1.760 -0.0272  0.9285  0.7981
   18SAPS   O11 2278   1.634   1.842   1.748  0.1588 -0.3764  0.3233
   18SAPS    C1 2279   1.712   1.818   1.865 -0.0357 -0.1966 -0.2996
   18SAPS    HA 2280   1.702   1.711   1.893 -0.2715 -0.6402 -2.0085
   18SAPS    HB 2281   1.818   1.832   1.837  0.1190 -1.3079 -0.3110
   18SAPS    C2 2282   1.656   1.906   1.979 -0.6374 -0.1162  0.3357
   18SAPS    HS 2283   1.686   2.012   1.961 -1.9466  0.0816 -0.8723
   18SAPS   O21 2284   1.693   1.850   2.104 -0.4986  0.2226  0.3220
   18SAPS   C21 2285   1.813   1.873   2.150 -0.4541  0.4823  0.1878
   18SAPS   O22 2286   1.903   1.941   2.097  0.4185  0.0895 -0.4710
   18SAPS   C22 2287   1.824   1.801   2.282  0.3613 -0.1859  0.2042
   18SAPS   H2R 2288   1.766   1.707   2.270  0.8398 -0.5300  0.4983
   18SAPS   H2S 2289   1.927   1.767   2.308  0.8436  0.4739 -0.8170
   18SAPS    C3 2290   1.499   1.912   1.974  0.3923 -0.5907 -0.4444
   18SAPS    HX 2291   1.458   1.809   1.980  2.5714 -1.5361 -1.0972
   18SAPS    HY 2292   1.469   1.950   1.874  2.8941 -0.1963 -1.1046
   18SAPS   O31 2293   1.444   1.989   2.084 -0.5872  0.3708  0.6858
   18SAPS   C31 2294   1.450   2.118   2.080  0.1137 -0.3180 -0.0768
   18SAPS   O32 2295   1.493   2.186   1.988 -0.0093  0.5101 -0.2554
   18SAPS   C32 2296   1.438   2.169   2.222 -0.3509 -0.0773 -0.3768
   18SAPS   H2X 2297   1.472   2.083   2.283 -0.6710 -1.1867 -1.7164
   18SAPS   H2Y 2298   1.332   2.195   2.242  0.4848  2.1896  1.5462
   18SAPS   C23 2299   1.760   1.881   2.404 -0.7795  0.2250  0.6828
   18SAPS   H3R 2300   1.655   1.903   2.373 -0.6340  0.0347  0.0542
   18SAPS   H3S 2301   1.789   1.988   2.413  1.3590  0.0759 -2.7526
   18SAPS   C24 2302   1.777   1.826   2.543 -0.1469 -0.0898  0.1805
   18SAPS   H4R 2303   1.717   1.896   2.605  0.3874  2.2924 -1.8356
   18SAPS   H4S 2304   1.885   1.840   2.564  0.2605 -0.6387 -1.3734
   18SAPS   C25 2305   1.730   1.692   2.582 -0.4793  0.0862  0.3375
   18SAPS   H5R 2306   1.661   1.648   2.508  1.9207  0.1366 -2.1158
   18SAPS   C26 2307   1.747   1.628   2.695  0.1451  0.5219 -0.0999
   18SAPS   H6R 2308   1.712   1.526   2.717  0.4934  0.7277  1.5212
   18SAPS   C27 2309   1.823   1.691   2.810  0.2420  0.5531 -0.1098
   18SAPS   H7R 2310   1.921   1.723   2.769 -0.1437  0.2613 -1.3165
   18SAPS   H7S 2311   1.846   1.613   2.885  1.0718 -1.0268 -1.9101
   18SAPS   C28 2312   1.748   1.798   2.882 -0.4557 -0.8680  0.5134
   18SAPS   H8R 2313   1.670   1.846   2.820 -0.1235 -3.3468 -2.0450
   18SAPS   C29 2314   1.746   1.801   3.016 -0.1764  0.2417  0.0173
   18SAPS   H9R 2315   1.686   1.874   3.072 -2.4305 -1.3381 -0.1708
   18SAPS  C210 2316   1.832   1.716   3.107 -0.2654  1.0544 -0.1252
   18SAPS  H10R 2317   1.821   1.605   3.110  0.4985  0.9742  2.7118
   18SAPS  H10S 2318   1.798   1.741   3.209 -1.2981 -0.3488 -0.0809
   18SAPS  C211 2319   1.982   1.746   3.097  1.0353 -0.1322 -0.5242
   18SAPS  H11R 2320   2.016   1.793   3.004  0.3643 -0.6035 -1.0110
   18SAPS  C212 2321   2.070   1.733   3.201  0.4809 -0.1294  0.2033
   18SAPS  H12R 2322   2.176   1.758   3.182 -0.2422  2.8765 -0.4205
   18SAPS  C213 2323   2.018   1.699   3.336  0.0549  0.1569 -0.4812
   18SAPS  H13R 2324   1.922   1.749   3.360 -1.4179 -3.0160  0.9655
   18SAPS  H13S 2325   2.084   1.750   3.410 -1.9011 -1.3445  2.5030
   18SAPS  C214 2326   1.995   1.556   3.378  0.2110  0.7414  0.4301
   18SAPS  H14R 2327   2.028   1.483   3.302  1.2889  1.3785  0.2640
   18SAPS  C215 2328   1.981   1.496   3.498  0.0165 -0.4232  0.0065
   18SAPS  H15R 2329   1.963   1.387   3.497 -0.6446 -0.3263  0.6700
   18SAPS  C216 2330   1.961   1.562   3.633  0.6175  0.1776  0.2363
   18SAPS  H16R 2331   1.858   1.547   3.672 -0.2738 -0.5943 -2.2364
   18SAPS  H16S 2332   1.977   1.672   3.624  1.0427  0.4317  3.2315
   18SAPS  C217 2333   2.051   1.516   3.751  0.8134  0.1998 -0.5730
   18SAPS  H17R 2334   2.155   1.495   3.719  0.4627 -1.9489 -0.4973
   18SAPS  H17S 2335   2.009   1.418   3.782 -0.9896  0.4729 -1.9513
   18SAPS  C218 2336   2.042   1.622   3.864 -0.8399 -0.3105  0.4443
   18SAPS  H18R 2337   1.942   1.604   3.909 -0.1122  0.1988  2.3747
   18SAPS  H18S 2338   2.046   1.727   3.829  0.2684 -0.7613 -0.8414
   18SAPS  C219 2339   2.140   1.602   3.980  0.4166  0.1676 -0.2327
   18SAPS  H19R 2340   2.243   1.618   3.943  1.2373 -0.3395  1.6804
   18SAPS  H19S 2341   2.134   1.497   4.016 -0.4415  0.3273  0.1204
   18SAPS  C220 2342   2.109   1.688   4.100  0.3628  0.2443 -0.4377
   18SAPS  H20R 2343   2.168   1.669   4.192 -0.0247 -0.1108 -0.2600
   18SAPS  H20S 2344   2.002   1.676   4.127  0.4019  2.3292  0.7965
   18SAPS  H20T 2345   2.137   1.791   4.069  0.0657  0.1514 -1.0424
   18SAPS   C33 2346   1.541   2.289   2.260  0.6781 -0.2487 -0.1983
   18SAPS   H3X 2347   1.537   2.383   2.201  1.4303 -1.6831 -2.6471
   18SAPS   H3Y 2348   1.639   2.248   2.228 -0.6515 -2.6002 -1.5559
   18SAPS   C34 2349   1.548   2.299   2.416  0.2805 -0.0959 -0.1042
   18SAPS   H4X 2350   1.638   2.362   2.433  0.0664  0.2356 -0.2077
   18SAPS   H4Y 2351   1.556   2.195   2.455  2.2239 -0.2289 -0.7458
   18SAPS   C35 2352   1.424   2.364   2.484  0.0519 -0.7398 -0.2888
   18SAPS   H5X 2353   1.339   2.293   2.490 -0.6477  0.1461  0.5599
   18SAPS   H5Y 2354   1.392   2.445   2.416  0.2779  0.2508  0.7517
   18SAPS   C36 2355   1.461   2.424   2.621  0.8115  0.8517 -0.1737
   18SAPS   H6X 2356   1.376   2.478   2.668 -0.2517 -0.4657 -0.5249
   18SAPS   H6Y 2357   1.545   2.495   2.601  1.1294  0.4503 -0.2735
   18SAPS   C37 2358   1.517   2.315   2.716  0.1016 -0.0973 -0.0475
   18SAPS   H7X 2359   1.588   2.246   2.667  0.1118 -0.4762  0.4908
   18SAPS   H7Y 2360   1.433   2.250   2.750 -0.6218  0.1960 -1.2096
   18SAPS   C38 2361   1.575   2.366   2.853  0.5133  0.2810  0.3414
   18SAPS   H8X 2362   1.500   2.397   2.929  0.4918  2.4897 -0.5267
   18SAPS   H8Y 2363   1.626   2.463   2.837 -1.2565  1.2216  0.1878
   18SAPS   C39 2364   1.655   2.250   2.920 -0.4291  0.2469 -0.7108
   18SAPS   H9X 2365   1.751   2.229   2.869 -0.4386  1.5114 -1.3019
   18SAPS   H9Y 2366   1.585   2.164   2.919  0.4045 -0.4465 -0.3697
   18SAPS  C310 2367   1.682   2.281   3.062 -0.0635 -0.2832 -0.8057
   18SAPS  H10X 2368   1.600   2.330   3.119 -0.1670 -1.3722  0.0384
   18SAPS  H10Y 2369   1.770   2.349   3.066 -0.8064  0.6312  1.5036
   18SAPS  C311 2370   1.716   2.156   3.149  0.0251 -0.5138 -0.0761
   18SAPS  H11X 2371   1.790   2.099   3.089 -0.0436  0.3342 -0.9872
   18SAPS  H11Y 2372   1.624   2.093   3.140  1.0140 -2.4779  2.3541
   18SAPS  C312 2373   1.756   2.179   3.294  0.1391 -0.8755  0.1413
   18SAPS  H12X 2374   1.683   2.254   3.333  1.7054  0.0617  1.4451
   18SAPS  H12Y 2375   1.856   2.228   3.290  0.1254 -0.5723  2.1812
   18SAPS  C313 2376   1.743   2.056   3.378  0.6041  0.3900  0.7529
   18SAPS  H13X 2377   1.811   1.988   3.323  0.9341  2.1076 -1.0765
   18SAPS  H13Y 2378   1.639   2.017   3.368  0.3211  1.2862  0.0623
   18SAPS  C314 2379   1.777   2.065   3.530  0.6310 -0.2930 -0.0526
   18SAPS  H14X 2380   1.698   2.126   3.579  0.8593 -0.4954  0.5739
   18SAPS  H14Y 2381   1.877   2.114   3.538  1.7891 -2.7248  1.4829
   18SAPS  C315 2382   1.769   1.928   3.589 -0.2815  0.2361  0.3334
   18SAPS  H15X 2383   1.841   1.853   3.549 -0.9875  0.9726 -2.5263
   18SAPS  H15Y 2384   1.665   1.897   3.564 -0.4999 -0.4232  1.9001
   18SAPS  C316 2385   1.768   1.948   3.739 -0.2906  0.4558 -0.8481
   18SAPS  H16X 2386   1.722   2.044   3.771 -0.2407  0.6051 -1.2125
   18SAPS  H16Y 2387   1.876   1.969   3.757  0.7343 -2.8294 -2.2902
   18SAPS  C317 2388   1.725   1.825   3.819 -0.1976  0.2569 -0.2349
   18SAPS  H17X 2389   1.783   1.734   3.795 -1.6647 -0.1024 -2.6665
   18SAPS  H17Y 2390   1.623   1.785   3.802  0.2057 -0.8948 -0.0320
   18SAPS  C318 2391   1.737   1.835   3.975 -0.7779 -0.1663  0.4075
   18SAPS  H18X 2392   1.682   1.754   4.027 -0.0402  0.5843  2.4729
   18SAPS  H18Y 2393   1.681   1.924   4.011  0.6682  1.0032 -0.1303
   18SAPS  H18Z 2394   1.845   1.838   4.002 -0.7050  0.5743  0.0630
   19SAPS     N 2395   4.978   3.128   1.953 -0.0883 -0.0697 -0.1325
   19SAPS   HN1 2396   5.030   3.206   1.908  1.0585 -0.6449  0.1619
   19SAPS   HN2 2397   4.940   3.066   1.879 -1.3011 -0.7358  1.0093
   19SAPS   HN3 2398   4.895   3.154   2.010 -0.6162 -0.2466 -0.8121
   19SAPS   C12 2399   5.074   3.043   2.043 -0.2668  0.0566  0.8749
   19SAPS  H12A 2400   5.047   2.943   2.012  1.1597  0.7804 -3.3888
   19SAPS   C13 2401   5.215   3.047   1.991 -0.3131 -0.6371  0.1355
   19SAPS  O13A 2402   5.251   3.118   1.890  0.2216  0.5847 -0.0038
   19SAPS  O13B 2403   5.300   2.976   2.048 -0.4378  0.3022  0.5011
   19SAPS   C11 2404   5.056   3.071   2.195 -0.4515  0.0781  0.4308
   19SAPS  H11A 2405   5.123   2.999   2.246  0.2455 -0.1254 -0.7653
   19SAPS  H11B 2406   4.951   3.051   2.228  0.1258  0.9564  3.1086
   19SAPS     P 2407   5.186   3.273   2.308  0.0666  0.1449  0.1432
   19SAPS   O13 2408   5.300   3.285   2.221  0.1749  0.5196  0.2448
   19SAPS   O14 2409   5.152   3.400   2.373 -0.1651 -0.4881  0.2520
   19SAPS   O12 2410   5.070   3.209   2.220 -0.5191  0.0540 -0.0370
   19SAPS   O11 2411   5.209   3.165   2.422 -0.2705 -0.1744 -0.3259
   19SAPS    C1 2412   5.119   3.154   2.535 -0.1166 -0.4870 -0.0939
   19SAPS    HA 2413   5.166   3.208   2.619 -2.2702  1.4293 -0.0267
   19SAPS    HB 2414   5.015   3.187   2.514 -0.2155 -0.2517  0.7601
   19SAPS    C2 2415   5.114   3.008   2.586 -0.0040 -0.2326  0.7215
   19SAPS    HS 2416   5.212   2.962   2.561  1.1141  2.1595  0.3588
   19SAPS   O21 2417   5.008   2.948   2.516  0.1418  0.0647 -0.1980
   19SAPS   C21 2418   5.029   2.824   2.465 -0.0800 -0.4174 -0.5118
   19SAPS   O22 2419   5.134   2.768   2.473  0.4636  0.0513  0.4940
   19SAPS   C22 2420   4.908   2.788   2.379  0.2660 -0.3155  0.3290
   19SAPS   H2R 2421   4.913   2.842   2.282  0.9700 -2.4986 -0.9061
   19SAPS   H2S 2422   4.929   2.683   2.348  2.0472 -0.9271  3.2024
   19SAPS    C3 2423   5.095   3.001   2.743  0.8318 -0.3109 -0.0683
   19SAPS    HX 2424   4.990   3.037   2.753  0.6201  0.1978 -3.1320
   19SAPS    HY 2425   5.157   3.077   2.796  0.5890  1.5672 -2.3323
   19SAPS   O31 2426   5.100   2.868   2.797 -0.3333 -0.2577  0.2004
   19SAPS   C31 2427   5.216   2.811   2.839 -0.7999 -0.7811 -1.0860
   19SAPS   O32 2428   5.328   2.855   2.816 -0.3826  0.0415  0.6927
   19SAPS   C32 2429   5.190   2.695   2.932 -0.2481  0.1721 -0.7766
   19SAPS   H2X 2430   5.140   2.617   2.872 -1.2647  0.2914 -0.1038
   19SAPS   H2Y 2431   5.118   2.731   3.009  0.6183  1.0168 -0.3373
   19SAPS   C23 2432   4.773   2.810   2.442  0.2605 -0.7398 -0.2870
   19SAPS   H3R 2433   4.698   2.762   2.377 -1.6733 -1.0822  2.0518
   19SAPS   H3S 2434   4.747   2.916   2.464 -0.8062 -1.2416  0.9850
   19SAPS   C24 2435   4.755   2.737   2.572  0.3181  0.0575 -0.7933
   19SAPS   H4R 2436   4.653   2.763   2.608  0.0952 -1.2920 -0.3558
   19SAPS   H4S 2437   4.819   2.769   2.658  1.0998 -1.4306 -0.7870
   19SAPS   C25 2438   4.764   2.589   2.560  0.0788 -1.0107  0.3662
   19SAPS   H5R 2439   4.703   2.556   2.475 -1.5437  0.3927  0.9240
   19SAPS   C26 2440   4.831   2.502   2.635 -0.5964  0.1320  0.2937
   19SAPS   H6R 2441   4.832   2.404   2.586 -3.7185 -0.9696  2.1472
   19SAPS   C27 2442   4.918   2.533   2.752  1.1924  0.2677 -0.2969
   19SAPS   H7R 2443   5.004   2.595   2.719  0.6818  1.5975  0.7426
   19SAPS   H7S 2444   4.962   2.436   2.783  2.3882  1.1786  0.9858
   19SAPS   C28 2445   4.864   2.605   2.879 -0.0880  0.3781  0.0275
   19SAPS   H8R 2446   4.803   2.693   2.856  0.2981  0.2527 -1.6208
   19SAPS   C29 2447   4.861   2.552   3.004  0.2633  0.4579 -0.1314
   19SAPS   H9R 2448   4.823   2.611   3.089  3.8527  1.0472  1.2117
   19SAPS  C210 2449   4.908   2.416   3.046 -0.2677  0.4803 -0.0578
   19SAPS  H10R 2450   5.017   2.406   3.025 -0.0139 -0.2054  1.4862
   19SAPS  H10S 2451   4.874   2.336   2.976 -0.3453 -0.4734  1.0514
   19SAPS  C211 2452   4.891   2.363   3.183  0.2809  0.3178 -0.4834
   19SAPS  H11R 2453   4.823   2.276   3.186  1.2456 -0.4753 -0.8168
   19SAPS  C212 2454   4.945   2.404   3.302 -0.3978 -0.1371  0.4152
   19SAPS  H12R 2455   4.934   2.342   3.392  1.7383 -1.7451 -0.3326
   19SAPS  C213 2456   5.034   2.527   3.311 -0.1543  0.7380 -0.0736
   19SAPS  H13R 2457   4.976   2.602   3.368 -0.3006 -1.0802  2.3069
   19SAPS  H13S 2458   5.045   2.572   3.210  1.2605  1.7766  0.5033
   19SAPS  C214 2459   5.174   2.494   3.365  0.5531  1.0723  0.0112
   19SAPS  H14R 2460   5.246   2.466   3.286 -1.8422  1.4062 -2.4143
   19SAPS  C215 2461   5.220   2.503   3.493 -0.3548  0.1365  0.0600
   19SAPS  H15R 2462   5.326   2.484   3.518 -0.3697  0.6324  0.5006
   19SAPS  C216 2463   5.139   2.544   3.614  0.2543  0.4639 -0.2272
   19SAPS  H16R 2464   5.088   2.458   3.663 -1.1923  0.3237 -1.8819
   19SAPS  H16S 2465   5.054   2.611   3.592  0.3162  1.8101  2.9687
   19SAPS  C217 2466   5.229   2.606   3.719 -0.0851 -0.0626  0.7396
   19SAPS  H17R 2467   5.289   2.690   3.677  0.7229  0.3549  2.6206
   19SAPS  H17S 2468   5.306   2.542   3.767 -0.0597  1.3456  2.6883
   19SAPS  C218 2469   5.155   2.667   3.837  0.2616 -0.1841 -0.6359
   19SAPS  H18R 2470   5.102   2.588   3.894  0.4735  1.0881  1.4036
   19SAPS  H18S 2471   5.081   2.739   3.797  1.8122  2.3166  0.7197
   19SAPS  C219 2472   5.234   2.738   3.949  0.0386 -0.5742 -0.4845
   19SAPS  H19R 2473   5.293   2.815   3.895  0.2515 -0.8545 -0.6549
   19SAPS  H19S 2474   5.303   2.659   3.986  0.5214 -0.8484 -1.9138
   19SAPS  C220 2475   5.161   2.809   4.062  0.1140 -0.1489 -0.2368
   19SAPS  H20R 2476   5.219   2.837   4.152 -1.6614  0.8293  0.6684
   19SAPS  H20S 2477   5.090   2.728   4.092  1.0964 -0.3642  1.6495
   19SAPS  H20T 2478   5.099   2.894   4.027 -0.0770 -0.3376 -0.3629
   19SAPS   C33 2479   5.316   2.630   2.999  0.3795 -0.1772  0.2189
   19SAPS   H3X 2480   5.389   2.602   2.921  0.3999  0.0012  0.1739
   19SAPS   H3Y 2481   5.277   2.534   3.039 -1.1709  0.4185  0.2117
   19SAPS   C34 2482   5.380   2.709   3.113 -0.6231 -0.0505  0.0297
   19SAPS   H4X 2483   5.305   2.725   3.193  1.4550  0.7592  1.9134
   19SAPS   H4Y 2484   5.433   2.799   3.074  1.4783 -1.5480 -0.7135
   19SAPS   C35 2485   5.500   2.641   3.184  0.3687  0.0706  0.3098
   19SAPS   H5X 2486   5.580   2.605   3.116 -0.9174 -2.4912  0.0262
   19SAPS   H5Y 2487   5.465   2.548   3.234  0.2601 -0.2157 -0.2927
   19SAPS   C36 2488   5.578   2.729   3.292 -0.6917  0.5436 -0.0989
   19SAPS   H6X 2489   5.607   2.821   3.237  4.5692 -0.0644  1.1050
   19SAPS   H6Y 2490   5.669   2.672   3.321 -1.2703  0.5501  1.8607
   19SAPS   C37 2491   5.504   2.766   3.423  0.7195 -0.2496 -0.3124
   19SAPS   H7X 2492   5.479   2.676   3.484  2.8394 -1.4492 -1.1253
   19SAPS   H7Y 2493   5.405   2.812   3.401 -0.1778 -2.4368 -1.1734
   19SAPS   C38 2494   5.592   2.856   3.510  0.5690 -0.1235  0.8229
   19SAPS   H8X 2495   5.578   2.954   3.460 -0.4216 -0.4349  0.4717
   19SAPS   H8Y 2496   5.698   2.823   3.504  0.7101  0.2913  0.9631
   19SAPS   C39 2497   5.544   2.872   3.652 -0.4481 -0.1584 -0.1435
   19SAPS   H9X 2498   5.547   2.772   3.701 -2.9913  0.7541  2.1091
   19SAPS   H9Y 2499   5.440   2.910   3.649 -0.5451 -0.4269 -0.2440
   19SAPS  C310 2500   5.618   2.986   3.721 -0.0143 -0.0884  0.0204
   19SAPS  H10X 2501   5.599   3.073   3.655 -1.5020  0.4035  1.0480
   19SAPS  H10Y 2502   5.729   2.980   3.727  0.3074  1.9810 -2.3128
   19SAPS  C311 2503   5.567   3.030   3.862  0.3331  0.2011 -0.0301
   19SAPS  H11X 2504   5.608   2.966   3.943  1.5678  1.2128  0.1777
   19SAPS  H11Y 2505   5.456   3.033   3.868  0.3627  3.3191  0.7745
   19SAPS  C312 2506   5.600   3.172   3.887 -0.3160  0.3045  0.0826
   19SAPS  H12X 2507   5.528   3.204   3.966  0.8566 -1.2461  1.8703
   19SAPS  H12Y 2508   5.581   3.230   3.794  0.3610  2.3354  1.1497
   19SAPS  C313 2509   5.749   3.190   3.917  0.0072  0.2311 -0.3140
   19SAPS  H13X 2510   5.785   3.287   3.876  2.2536  1.0401  3.0775
   19SAPS  H13Y 2511   5.807   3.113   3.863 -1.6047 -0.7123 -0.7453
   19SAPS  C314 2512   5.785   3.190   4.070 -0.0575 -0.1667  0.3264
   19SAPS  H14X 2513   5.724   3.113   4.122 -1.3917  0.0965 -0.7927
   19SAPS  H14Y 2514   5.741   3.285   4.107 -0.7551 -0.1124 -0.6185
   19SAPS  C315 2515   5.936   3.195   4.099  0.2051  0.5241  0.1486
   19SAPS  H15X 2516   5.980   3.290   4.062 -1.0640  1.3558  0.7022
   19SAPS  H15Y 2517   5.978   3.106   4.046 -0.3945  0.1131  0.3490
   19SAPS  C316 2518   5.966   3.186   4.247 -0.2332  0.0024 -0.5796
   19SAPS  H16X 2519   6.068   3.144   4.260  0.0357  0.9857  0.7373
   19SAPS  H16Y 2520   5.898   3.115   4.299 -0.9085  0.6459 -0.5648
   19SAPS  C317 2521   5.962   3.322   4.320 -0.1335 -0.2806  0.3316
   19SAPS  H17X 2522   5.934   3.310   4.427  0.2624 -1.5837  0.3073
   19SAPS  H17Y 2523   5.884   3.381   4.269 -0.1145  1.1625  1.8823
   19SAPS  C318 2524   6.087   3.412   4.300  0.2878  0.2492  0.5381
   19SAPS  H18X 2525   6.080   3.439   4.193 -0.7319  1.7646  0.9663
   19SAPS  H18Y 2526   6.181   3.352   4.305  0.8785  0.7258 -2.6685
   19SAPS  H18Z 2527   6.102   3.501   4.363  4.4013 -1.0987  1.7772
   20SAPS     N 2528   0.889   6.679   2.234 -0.3212 -0.6803  0.2142
   20SAPS   HN1 2529   0.957   6.625   2.291  0.5683 -0.0085 -0.1834
   20SAPS   HN2 2530   0.844   6.753   2.291 -0.5415 -0.9539  0.3963
   20SAPS   HN3 2531   0.818   6.613   2.197 -0.8933 -0.0148  0.1146
   20SAPS   C12 2532   0.952   6.734   2.113 -0.3805  0.2198  0.0589
   20SAPS  H12A 2533   0.972   6.651   2.046 -0.8870  0.6809 -0.6768
   20SAPS   C13 2534   0.857   6.814   2.026 -0.4066  0.2362 -0.1181
   20SAPS  O13A 2535   0.733   6.818   2.047  0.5942  0.1237 -0.5527
   20SAPS  O13B 2536   0.905   6.876   1.922 -0.2237  0.8056  0.4918
   20SAPS   C11 2537   1.092   6.793   2.143 -0.0096 -0.1026 -0.5207
   20SAPS  H11A 2538   1.083   6.895   2.185 -1.6036 -0.8117  1.0309
   20SAPS  H11B 2539   1.133   6.807   2.041 -1.0628 -0.1158 -0.9598
   20SAPS     P 2540   1.309   6.642   2.178 -0.0598  0.4174  0.1947
   20SAPS   O13 2541   1.275   6.503   2.124  0.8486 -0.8387  0.1271
   20SAPS   O14 2542   1.376   6.738   2.090  0.2162  0.6580  0.0118
   20SAPS   O12 2543   1.176   6.703   2.230  0.1503  0.8857 -0.0883
   20SAPS   O11 2544   1.401   6.629   2.310 -0.4128 -0.2721  0.4005
   20SAPS    C1 2545   1.435   6.747   2.381  0.6069  0.3475  0.3678
   20SAPS    HA 2546   1.465   6.819   2.301  0.3264  0.0886  0.0271
   20SAPS    HB 2547   1.344   6.796   2.424 -0.0647 -1.1484  0.7138
   20SAPS    C2 2548   1.550   6.730   2.491  0.5783 -0.1193 -0.1321
   20SAPS    HS 2549   1.639   6.705   2.429 -0.1664 -1.3000 -0.7488
   20SAPS   O21 2550   1.522   6.632   2.589 -0.4721 -0.1923 -0.4943
   20SAPS   C21 2551   1.540   6.507   2.567  0.0472  0.2673  0.2666
   20SAPS   O22 2552   1.589   6.455   2.473  0.3374  0.8972  0.8758
   20SAPS   C22 2553   1.499   6.425   2.691 -0.6097  0.1426  0.7229
   20SAPS   H2R 2554   1.579   6.437   2.766 -2.2339  2.1803  2.2729
   20SAPS   H2S 2555   1.402   6.464   2.730 -0.4955 -0.4884  1.6717
   20SAPS    C3 2556   1.571   6.865   2.557 -0.8338 -0.3226 -0.4743
   20SAPS    HX 2557   1.492   6.873   2.634 -1.1598  1.6175 -0.9523
   20SAPS    HY 2558   1.553   6.956   2.496  0.2417  2.3844  2.8993
   20SAPS   O31 2559   1.704   6.881   2.614 -0.3428  0.1487 -1.0593
   20SAPS   C31 2560   1.797   6.898   2.524  0.4886 -0.0322 -0.0002
   20SAPS   O32 2561   1.781   6.894   2.402  0.3802 -0.2118 -0.0106
   20SAPS   C32 2562   1.925   6.942   2.582  0.0210 -0.0307 -0.0145
   20SAPS   H2X 2563   1.941   7.045   2.543 -0.2863  0.3285  0.7951
   20SAPS   H2Y 2564   2.000   6.871   2.541  2.4467  0.9609  2.4631
   20SAPS   C23 2565   1.481   6.279   2.652 -0.1974 -0.3627 -0.5664
   20SAPS   H3R 2566   1.576   6.235   2.617  1.1074  1.1364  0.9012
   20SAPS   H3S 2567   1.414   6.271   2.564  0.0749  0.0207 -0.8126
   20SAPS   C24 2568   1.422   6.189   2.764 -0.1049 -0.0609 -0.1531
   20SAPS   H4R 2569   1.496   6.184   2.846 -0.7079  1.2744  0.5056
   20SAPS   H4S 2570   1.430   6.092   2.710 -0.2705  0.7233 -1.6553
   20SAPS   C25 2571   1.282   6.220   2.818 -0.4513 -0.7845  0.0824
   20SAPS   H5R 2572   1.200   6.220   2.744 -0.6209  0.4849  0.2487
   20SAPS   C26 2573   1.262   6.256   2.945  0.0457 -0.0263 -0.0921
   20SAPS   H6R 2574   1.158   6.272   2.976  0.5137 -1.7489  2.7599
   20SAPS   C27 2575   1.363   6.267   3.058  0.0409 -0.3055 -0.4745
   20SAPS   H7R 2576   1.421   6.356   3.026 -0.3770  0.1665  0.0795
   20SAPS   H7S 2577   1.424   6.174   3.063  0.2496 -0.1368  0.1502
   20SAPS   C28 2578   1.296   6.302   3.188 -0.1682 -0.2349 -0.3809
   20SAPS   H8R 2579   1.191   6.336   3.179  0.0361  0.4411 -0.3051
   20SAPS   C29 2580   1.350   6.279   3.314 -0.7708  0.2185  0.7634
   20SAPS   H9R 2581   1.288   6.287   3.404 -0.0923 -1.6678  1.4448
   20SAPS  C210 2582   1.491   6.229   3.335  0.3910 -0.5365  0.4004
   20SAPS  H10R 2583   1.546   6.320   3.367 -0.8257  0.9663 -1.4846
   20SAPS  H10S 2584   1.550   6.212   3.242  1.2130  2.6927  0.2091
   20SAPS  C211 2585   1.492   6.116   3.432 -0.2402  0.9838 -0.0294
   20SAPS  H11R 2586   1.419   6.036   3.411  1.2092  0.0155 -1.6949
   20SAPS  C212 2587   1.564   6.118   3.552  1.0709  0.0406  0.2346
   20SAPS  H12R 2588   1.563   6.032   3.622 -1.6813 -0.1629  0.0601
   20SAPS  C213 2589   1.644   6.227   3.605 -0.5324  1.0126  0.5106
   20SAPS  H13R 2590   1.680   6.291   3.522 -0.3332  0.3255  0.0616
   20SAPS  H13S 2591   1.736   6.192   3.656  0.2594  3.0255  0.5854
   20SAPS  C214 2592   1.547   6.321   3.678 -0.4676 -0.2299 -0.2666
   20SAPS  H14R 2593   1.461   6.347   3.614  1.0318 -1.0512 -2.7549
   20SAPS  C215 2594   1.568   6.378   3.801  0.0861 -0.3138  0.2805
   20SAPS  H15R 2595   1.490   6.440   3.848  1.3604  1.1213  0.5766
   20SAPS  C216 2596   1.692   6.349   3.887 -0.2355 -0.5298 -0.3249
   20SAPS  H16R 2597   1.780   6.351   3.820  0.2026  0.4678  0.2552
   20SAPS  H16S 2598   1.684   6.264   3.957 -0.5463 -1.6849 -1.7295
   20SAPS  C217 2599   1.711   6.471   3.987 -0.2085  0.3045 -0.5198
   20SAPS  H17R 2600   1.695   6.567   3.935  1.1723  0.2137 -1.1340
   20SAPS  H17S 2601   1.817   6.468   4.017 -0.3813 -1.3303  0.0335
   20SAPS  C218 2602   1.614   6.471   4.107  0.2071 -0.3085  0.3520
   20SAPS  H18R 2603   1.612   6.376   4.163 -2.5013 -0.5251  0.0136
   20SAPS  H18S 2604   1.511   6.472   4.066  1.0791 -0.8275 -2.0078
   20SAPS  C219 2605   1.640   6.592   4.203  0.3582 -0.6797  0.3902
   20SAPS  H19R 2606   1.674   6.684   4.151  1.2705 -1.1899  0.0583
   20SAPS  H19S 2607   1.726   6.569   4.268  0.9625 -1.2113 -0.5656
   20SAPS  C220 2608   1.509   6.617   4.278 -0.5678 -0.4141 -0.0091
   20SAPS  H20R 2609   1.491   6.525   4.337 -0.6501 -0.5018 -0.1703
   20SAPS  H20S 2610   1.435   6.637   4.197 -0.1140 -1.8853 -0.8152
   20SAPS  H20T 2611   1.523   6.700   4.351 -1.5891  0.7018 -1.0312
   20SAPS   C33 2612   1.938   6.939   2.729  0.5020  0.1317 -0.1838
   20SAPS   H3X 2613   1.916   6.835   2.762  0.0903 -0.1337 -1.2699
   20SAPS   H3Y 2614   1.853   6.997   2.769 -0.2462 -2.1476  1.7934
   20SAPS   C34 2615   2.074   6.977   2.790  0.1247 -0.0819 -0.0977
   20SAPS   H4X 2616   2.073   7.089   2.790 -1.5654 -0.0504  1.0712
   20SAPS   H4Y 2617   2.154   6.934   2.726 -0.4849 -1.4692  0.0460
   20SAPS   C35 2618   2.095   6.914   2.934 -0.1492  0.6090 -0.1479
   20SAPS   H5X 2619   2.096   6.804   2.920 -0.2545  0.6092 -0.1544
   20SAPS   H5Y 2620   2.004   6.938   2.993  0.3185 -2.9525  2.3565
   20SAPS   C36 2621   2.220   6.974   3.000 -0.6748  0.4731 -0.4387
   20SAPS   H6X 2622   2.205   7.082   3.018 -0.1186  0.5651 -0.5073
   20SAPS   H6Y 2623   2.306   6.956   2.932 -2.0661 -1.4812 -1.7878
   20SAPS   C37 2624   2.264   6.912   3.140  0.1391  0.2313  0.9007
   20SAPS   H7X 2625   2.318   6.997   3.188 -1.4676  1.9256 -0.1688
   20SAPS   H7Y 2626   2.342   6.837   3.114  0.0568  0.2085  0.7180
   20SAPS   C38 2627   2.149   6.864   3.227  0.2644 -0.4255 -0.4264
   20SAPS   H8X 2628   2.109   6.765   3.196 -0.2595 -0.0324 -1.0245
   20SAPS   H8Y 2629   2.072   6.943   3.223  0.2507 -0.4550 -0.7509
   20SAPS   C39 2630   2.192   6.849   3.373  0.4379 -0.6374  0.0727
   20SAPS   H9X 2631   2.245   6.940   3.410  1.9928 -0.9174 -1.3223
   20SAPS   H9Y 2632   2.253   6.757   3.390 -0.6237 -1.1263  1.4352
   20SAPS  C310 2633   2.068   6.837   3.462  1.5580 -0.0295 -0.0140
   20SAPS  H10X 2634   2.043   6.729   3.449 -0.3187  0.0030  2.3901
   20SAPS  H10Y 2635   1.984   6.898   3.422  0.7429  0.2668  1.9965
   20SAPS  C311 2636   2.108   6.860   3.609  0.3444 -0.0493 -0.1825
   20SAPS  H11X 2637   2.176   6.948   3.610 -1.0193  1.0328 -0.0274
   20SAPS  H11Y 2638   2.161   6.767   3.640 -1.0262 -0.9645 -0.4648
   20SAPS  C312 2639   2.000   6.894   3.709  0.7587  0.1896 -0.1597
   20SAPS  H12X 2640   1.927   6.815   3.738  0.7044  1.1176  2.4773
   20SAPS  H12Y 2641   1.943   6.979   3.665 -0.2588  0.6612  1.9416
   20SAPS  C313 2642   2.061   6.926   3.851  0.0624 -0.8158 -0.2189
   20SAPS  H13X 2643   2.130   7.013   3.846 -1.5983  0.6284  0.6589
   20SAPS  H13Y 2644   2.112   6.833   3.883  0.8334 -0.2840  0.1279
   20SAPS  C314 2645   1.953   6.969   3.953 -0.1793 -0.3144 -0.2666
   20SAPS  H14X 2646   1.870   6.895   3.946  0.9720 -1.5728 -0.9263
   20SAPS  H14Y 2647   1.910   7.065   3.917 -0.3832 -0.2301  0.1866
   20SAPS  C315 2648   2.008   6.978   4.098  0.0700  0.0812  0.2495
   20SAPS  H15X 2649   2.069   7.069   4.115  0.4476  0.0141 -0.6622
   20SAPS  H15Y 2650   2.064   6.887   4.127  0.1402  0.8993  2.8673
   20SAPS  C316 2651   1.887   6.986   4.201 -0.8204  0.2653 -0.3208
   20SAPS  H16X 2652   1.798   6.926   4.173 -0.6164  0.1090 -0.6530
   20SAPS  H16Y 2653   1.858   7.092   4.194 -1.2762  0.1545 -0.0997
   20SAPS  C317 2654   1.916   6.939   4.347  0.7675 -0.2694 -0.0539
   20SAPS  H17X 2655   1.922   6.829   4.351 -1.9078 -0.4412  1.0284
   20SAPS  H17Y 2656   1.827   6.962   4.410 -0.3008 -1.4671 -1.0814
   20SAPS  C318 2657   2.041   7.005   4.406 -0.0336 -0.6517  0.4075
   20SAPS  H18X 2658   2.059   7.107   4.366 -0.0417 -0.0929  1.7837
   20SAPS  H18Y 2659   2.126   6.938   4.382 -0.1242 -0.4961 -0.3704
   20SAPS  H18Z 2660   2.029   7.013   4.516  1.0781  2.5581  0.3817
   21CHL1    C3 2661   4.484   5.731   5.844 -0.0645  0.1322 -0.7324
   21CHL1    H3 2662   4.532   5.789   5.762 -0.2045  0.7510 -0.3817
   21CHL1    O3 2663   4.494   5.797   5.972  0.4724  0.6828 -0.2312
   21CHL1   H3' 2664   4.569   5.760   6.020 -0.9461  0.0908  1.6827
   21CHL1    C4 2665   4.334   5.705   5.811  0.0934  0.0788 -0.2425
   21CHL1   H4A 2666   4.279   5.650   5.889  1.4513 -1.5424 -0.3743
   21CHL1   H4B 2667   4.288   5.806   5.821  2.4025  1.1683  0.1381
   21CHL1    C5 2668   4.312   5.635   5.677 -0.3836 -0.6510 -0.2546
   21CHL1    C6 2669   4.230   5.683   5.574 -0.8223 -0.7742 -0.1018
   21CHL1    H6 2670   4.168   5.772   5.591  0.5564  0.2735 -0.4488
   21CHL1    C7 2671   4.212   5.613   5.440  0.7530  0.3798 -0.5738
   21CHL1   H7A 2672   4.105   5.620   5.411  0.3555  1.0248  0.9511
   21CHL1   H7B 2673   4.278   5.659   5.363 -0.3365 -0.8227 -2.2946
   21CHL1    C8 2674   4.259   5.469   5.443 -0.1076 -0.0042 -0.2798
   21CHL1    H8 2675   4.188   5.409   5.504  0.6433 -0.4727  0.1512
   21CHL1   C14 2676   4.268   5.412   5.297 -0.4185 -0.4373  0.2031
   21CHL1   H14 2677   4.339   5.487   5.256 -0.3850 -0.1768  0.7151
   21CHL1   C15 2678   4.145   5.422   5.200  0.2928  0.8897  0.0273
   21CHL1  H15A 2679   4.054   5.389   5.255  0.4185  0.8593  0.2173
   21CHL1  H15B 2680   4.140   5.529   5.171 -0.0941  1.0157  0.5492
   21CHL1   C16 2681   4.181   5.328   5.081  0.2321 -0.0852  0.1375
   21CHL1  H16A 2682   4.101   5.252   5.067 -0.2621  0.2591  1.0331
   21CHL1  H16B 2683   4.195   5.385   4.986  1.8712 -0.6948 -0.0111
   21CHL1   C17 2684   4.321   5.265   5.125 -0.0774 -0.0938 -0.7422
   21CHL1   H17 2685   4.398   5.335   5.087  1.5180 -0.5325  1.4691
   21CHL1   C13 2686   4.329   5.278   5.280  0.4242 -0.1133  0.2893
   21CHL1   C18 2687   4.235   5.169   5.351 -0.0670  0.5370 -0.0205
   21CHL1  H18A 2688   4.203   5.204   5.452  0.1138 -1.2566  0.6980
   21CHL1  H18B 2689   4.141   5.164   5.291 -0.2618  1.2316  0.2235
   21CHL1  H18C 2690   4.285   5.070   5.351  0.9606  1.0030 -2.1305
   21CHL1   C12 2691   4.465   5.272   5.346  0.2308 -0.0672 -0.3230
   21CHL1  H12A 2692   4.520   5.177   5.331  1.8266  0.6502  0.7543
   21CHL1  H12B 2693   4.529   5.350   5.300  1.4911 -0.4419  0.7117
   21CHL1   C11 2694   4.463   5.320   5.494  0.6323  0.0408  0.9363
   21CHL1  H11A 2695   4.406   5.238   5.543  0.5520 -1.3017 -1.2597
   21CHL1  H11B 2696   4.569   5.327   5.526  1.5024 -1.5334 -1.3452
   21CHL1    C9 2697   4.397   5.460   5.514 -0.0199 -0.4443 -0.3767
   21CHL1    H9 2698   4.462   5.530   5.457  1.4556  0.6722  2.4501
   21CHL1   C10 2699   4.399   5.505   5.665 -0.1565  0.3771  0.4346
   21CHL1   C19 2700   4.334   5.404   5.758 -0.6377  0.1277 -0.1068
   21CHL1  H19A 2701   4.227   5.393   5.728 -0.9062  0.5675  0.6542
   21CHL1  H19B 2702   4.394   5.312   5.744  1.5372  1.2347  1.3874
   21CHL1  H19C 2703   4.347   5.421   5.867  2.4769 -0.3720 -0.3230
   21CHL1    C1 2704   4.541   5.535   5.711 -0.4339  0.1848 -1.0594
   21CHL1   H1A 2705   4.599   5.440   5.712  3.0593  2.1029  1.5265
   21CHL1   H1B 2706   4.587   5.601   5.635  1.5348  1.0575  0.7764
   21CHL1    C2 2707   4.551   5.598   5.852 -0.0721 -0.7369 -0.8278
   21CHL1   H2A 2708   4.661   5.603   5.865 -0.2413 -3.1846  3.7350
   21CHL1   H2B 2709   4.506   5.536   5.932  0.9672 -1.5705 -0.8738
   21CHL1   C20 2710   4.342   5.118   5.065 -0.2989 -0.6027  0.3710
   21CHL1   H20 2711   4.262   5.053   5.107 -0.7994  1.0055  2.0383
   21CHL1   C21 2712   4.477   5.049   5.090 -0.1901 -0.1342 -0.4979
   21CHL1  H21A 2713   4.481   5.015   5.195  1.4969  2.1395  0.2513
   21CHL1  H21B 2714   4.552   5.129   5.075 -2.8727  2.5535 -0.5168
   21CHL1  H21C 2715   4.493   4.963   5.021  1.6249 -1.0537  0.9953
   21CHL1   C22 2716   4.303   5.111   4.917 -0.2423 -1.0898 -0.5779
   21CHL1  H22A 2717   4.309   5.007   4.879 -0.2191 -1.0065 -0.8049
   21CHL1  H22B 2718   4.195   5.136   4.909 -0.1043 -0.3149 -0.1753
   21CHL1   C23 2719   4.396   5.185   4.819 -0.4890 -0.1687  0.8798
   21CHL1  H23A 2720   4.393   5.292   4.851 -0.0247 -0.5512  2.2893
   21CHL1  H23B 2721   4.500   5.150   4.833  0.7669  2.9256  0.1868
   21CHL1   C24 2722   4.358   5.165   4.674  0.7525 -0.3870  0.4109
   21CHL1  H24A 2723   4.385   5.067   4.629  1.6677 -0.0334  0.1711
   21CHL1  H24B 2724   4.247   5.158   4.669  0.7393 -1.0839  1.4476
   21CHL1   C25 2725   4.404   5.286   4.582 -0.3426  0.0735  0.2075
   21CHL1   H25 2726   4.504   5.314   4.622 -0.2337  1.2298 -0.8091
   21CHL1   C26 2727   4.422   5.248   4.436 -0.1291  0.7926  0.0433
   21CHL1  H26A 2728   4.332   5.201   4.391  1.9988 -0.7720 -2.9404
   21CHL1  H26B 2729   4.444   5.337   4.374  2.4400 -0.7875 -1.4817
   21CHL1  H26C 2730   4.500   5.171   4.423 -1.7598 -1.1131  0.9212
   21CHL1   C27 2731   4.315   5.410   4.591 -0.2340 -0.2258  0.9224
   21CHL1  H27A 2732   4.219   5.393   4.537  0.6228  0.2541 -0.8359
   21CHL1  H27B 2733   4.292   5.444   4.694 -0.6645  1.0243  0.4334
   21CHL1  H27C 2734   4.372   5.493   4.545 -3.0981  0.2437 -2.1852
   22CHL1    C3 2735   0.039   0.648   5.888  0.0391  0.2601 -0.2158
   22CHL1    H3 2736  -0.066   0.640   5.855  0.3289 -0.2047 -1.0749
   22CHL1    O3 2737   0.044   0.655   6.030 -0.3168  0.7326 -0.1121
   22CHL1   H3' 2738   0.042   0.568   6.071 -0.7373  0.4452 -0.7302
   22CHL1    C4 2739   0.118   0.527   5.833 -0.1811  0.9009 -0.1477
   22CHL1   H4A 2740   0.222   0.548   5.865 -0.5347 -1.0567  2.6381
   22CHL1   H4B 2741   0.077   0.435   5.879 -0.0221  0.2369 -1.2839
   22CHL1    C5 2742   0.111   0.519   5.679  0.2930  0.3021  0.0569
   22CHL1    C6 2743   0.049   0.414   5.619 -0.4112  0.1237  0.3701
   22CHL1    H6 2744   0.002   0.336   5.682  2.1482 -0.5692  1.5597
   22CHL1    C7 2745   0.028   0.395   5.477  0.2966  0.1580 -0.1739
   22CHL1   H7A 2746   0.066   0.296   5.443 -1.3407 -0.2796 -0.8606
   22CHL1   H7B 2747  -0.081   0.393   5.458  0.1221  2.7818  0.2200
   22CHL1    C8 2748   0.099   0.506   5.398  0.0943 -0.5688  0.8457
   22CHL1    H8 2749   0.209   0.493   5.391  0.4802  2.5359  0.0673
   22CHL1   C14 2750   0.028   0.519   5.262 -0.5074 -0.0452  0.6225
   22CHL1   H14 2751  -0.074   0.554   5.286 -1.3362 -0.6319 -1.7131
   22CHL1   C15 2752   0.018   0.390   5.175  0.0398 -0.7685  0.0337
   22CHL1  H15A 2753   0.117   0.343   5.156 -0.3201 -1.7518  0.4658
   22CHL1  H15B 2754  -0.061   0.322   5.214  0.5011 -0.4519  1.6183
   22CHL1   C16 2755  -0.029   0.433   5.039 -0.0245  0.6510 -1.3575
   22CHL1  H16A 2756   0.045   0.399   4.963 -0.6248 -3.8550 -0.1733
   22CHL1  H16B 2757  -0.134   0.408   5.013  0.0457  1.3581 -2.3920
   22CHL1   C17 2758  -0.013   0.592   5.044 -0.6719  0.2826 -0.0341
   22CHL1   H17 2759  -0.111   0.635   5.073 -1.5477 -2.0554  0.6853
   22CHL1   C13 2760   0.081   0.627   5.162 -0.1788 -1.1965 -0.4731
   22CHL1   C18 2761   0.231   0.602   5.122  0.0496 -0.1247  0.0195
   22CHL1  H18A 2762   0.300   0.604   5.209 -0.1446 -1.9661  0.2668
   22CHL1  H18B 2763   0.249   0.506   5.069 -2.3827 -1.9478  2.2176
   22CHL1  H18C 2764   0.258   0.676   5.044 -0.0308 -1.5172 -1.3659
   22CHL1   C12 2765   0.063   0.763   5.227 -0.1857  0.6237 -0.4495
   22CHL1  H12A 2766   0.106   0.848   5.169 -0.5699  1.3746  0.3393
   22CHL1  H12B 2767  -0.043   0.787   5.251 -0.3485 -0.0112 -0.5396
   22CHL1   C11 2768   0.146   0.758   5.361  0.0913  0.1946  0.1173
   22CHL1  H11A 2769   0.256   0.757   5.347  0.1364 -1.5058  0.3515
   22CHL1  H11B 2770   0.127   0.855   5.412 -1.5732 -0.2494  0.4073
   22CHL1    C9 2771   0.096   0.648   5.459  0.0263 -0.5986 -0.7134
   22CHL1    H9 2772  -0.009   0.664   5.490  0.4780  0.0716  0.5487
   22CHL1   C10 2773   0.151   0.651   5.606  0.1254 -0.8656 -0.0581
   22CHL1   C19 2774   0.304   0.644   5.597  0.9915  0.0871 -0.6778
   22CHL1  H19A 2775   0.341   0.742   5.561  0.0413  1.2514  1.3647
   22CHL1  H19B 2776   0.349   0.638   5.698  0.3238  0.9114 -0.3215
   22CHL1  H19C 2777   0.342   0.552   5.548 -3.8045 -3.7911  1.9644
   22CHL1    C1 2778   0.105   0.782   5.676  0.1242 -0.0185  0.4415
   22CHL1   H1A 2779   0.170   0.868   5.649 -1.5474  1.7736  1.7930
   22CHL1   H1B 2780   0.003   0.801   5.636  0.1506 -3.6467 -1.7255
   22CHL1    C2 2781   0.095   0.778   5.831 -0.0570 -0.0504 -0.6747
   22CHL1   H2A 2782   0.048   0.873   5.864  2.3090  0.3358  1.8979
   22CHL1   H2B 2783   0.201   0.783   5.863 -0.1383 -0.8267 -0.2593
   22CHL1   C20 2784   0.027   0.646   4.908 -0.4343 -0.3994 -0.0864
   22CHL1   H20 2785   0.121   0.591   4.881 -0.5223  0.1043 -1.5337
   22CHL1   C21 2786   0.046   0.799   4.911 -0.6957  0.2002 -0.3689
   22CHL1  H21A 2787  -0.036   0.854   4.962  0.5651  1.7516  0.0691
   22CHL1  H21B 2788   0.045   0.841   4.808 -0.7528  0.1664 -0.3822
   22CHL1  H21C 2789   0.144   0.823   4.957  0.8109 -3.2784 -1.4864
   22CHL1   C22 2790  -0.076   0.611   4.797  0.4839  0.2598  0.3257
   22CHL1  H22A 2791  -0.080   0.500   4.794 -0.2384  0.2871  0.1409
   22CHL1  H22B 2792  -0.178   0.650   4.816  0.6258 -0.0766  1.9450
   22CHL1   C23 2793  -0.027   0.654   4.655 -0.0121 -0.0075 -0.0508
   22CHL1  H23A 2794  -0.027   0.765   4.648  0.4761  0.0202  0.3395
   22CHL1  H23B 2795   0.082   0.636   4.645 -0.1110 -0.0808 -1.0656
   22CHL1   C24 2796  -0.097   0.595   4.530 -0.0213 -0.2989  0.2965
   22CHL1  H24A 2797  -0.197   0.644   4.525 -0.3556 -0.8759  1.1414
   22CHL1  H24B 2798  -0.049   0.640   4.441  1.8631 -1.9650  0.3909
   22CHL1   C25 2799  -0.123   0.447   4.536  0.9349  0.6701 -0.1009
   22CHL1   H25 2800  -0.204   0.426   4.608  2.0177  0.3977  1.0738
   22CHL1   C26 2801  -0.167   0.404   4.394  0.2480  0.7129  0.8100
   22CHL1  H26A 2802  -0.246   0.472   4.358 -0.4413  0.0181  0.9834
   22CHL1  H26B 2803  -0.076   0.408   4.331  0.2752 -3.2569  0.3471
   22CHL1  H26C 2804  -0.198   0.297   4.395  0.7190  0.5646  2.0494
   22CHL1   C27 2805  -0.010   0.352   4.568  0.3979 -0.4499  0.4103
   22CHL1  H27A 2806   0.042   0.372   4.664  1.2388 -1.9198  0.2882
   22CHL1  H27B 2807  -0.050   0.250   4.581 -2.2987  0.7264  2.2743
   22CHL1  H27C 2808   0.072   0.369   4.495  0.0444 -0.6473 -0.0366
   23CHL1    C3 2809   3.938   0.824   5.759 -0.4440  0.6487  0.2661
   23CHL1    H3 2810   3.891   0.724   5.748  0.4907  0.1374  0.7483
   23CHL1    O3 2811   3.920   0.859   5.898  0.0505 -0.8976  0.2147
   23CHL1   H3' 2812   3.925   0.954   5.906 -1.9820 -0.6970 -0.3808
   23CHL1    C4 2813   4.086   0.823   5.728 -0.0761 -0.0122 -0.4762
   23CHL1   H4A 2814   4.136   0.917   5.762  0.6139 -0.8971  1.0364
   23CHL1   H4B 2815   4.132   0.748   5.795  1.9287  0.7078 -0.9610
   23CHL1    C5 2816   4.119   0.803   5.582 -0.8897 -0.3102 -0.2196
   23CHL1    C6 2817   4.198   0.710   5.538 -1.3905 -0.7023 -0.0492
   23CHL1    H6 2818   4.255   0.649   5.610 -0.7594  0.1456  0.1925
   23CHL1    C7 2819   4.214   0.681   5.395 -0.3944 -0.6993  0.4038
   23CHL1   H7A 2820   4.321   0.667   5.366 -0.1552  1.4669  0.0195
   23CHL1   H7B 2821   4.155   0.592   5.368  0.4494 -0.4968 -2.3962
   23CHL1    C8 2822   4.157   0.797   5.291  0.0433  0.1939 -0.3092
   23CHL1    H8 2823   4.237   0.873   5.281  0.2355  0.0644  0.2114
   23CHL1   C14 2824   4.137   0.746   5.148 -0.9568 -0.2818  0.0100
   23CHL1   H14 2825   4.065   0.662   5.158 -0.8062 -0.3992  0.1133
   23CHL1   C15 2826   4.263   0.688   5.077  0.7665 -0.0242  0.3920
   23CHL1  H15A 2827   4.352   0.752   5.095  0.1229  0.4744  2.0545
   23CHL1  H15B 2828   4.262   0.585   5.119 -0.0424  0.3535  1.3512
   23CHL1   C16 2829   4.229   0.694   4.931  0.0592  1.1276  0.1089
   23CHL1  H16A 2830   4.321   0.739   4.888  1.4710 -0.0464  1.7628
   23CHL1  H16B 2831   4.209   0.591   4.896 -1.9781  0.9266  1.7257
   23CHL1   C17 2832   4.100   0.780   4.911 -0.4704  0.0577 -0.0732
   23CHL1   H17 2833   4.017   0.706   4.904 -2.0786  1.8985 -1.3172
   23CHL1   C13 2834   4.092   0.857   5.049 -0.1866  0.3013  1.0163
   23CHL1   C18 2835   4.192   0.967   5.042  0.1020  0.0760 -0.1783
   23CHL1  H18A 2836   4.176   1.044   4.964 -0.3834  1.3306  1.1103
   23CHL1  H18B 2837   4.211   1.021   5.137  2.5618  0.2367 -0.6980
   23CHL1  H18C 2838   4.295   0.929   5.023  0.2297  0.0232  0.5875
   23CHL1   C12 2839   3.960   0.918   5.086  0.8918  0.9283  0.3272
   23CHL1  H12A 2840   3.919   1.008   5.035  0.5791  1.5818  1.6838
   23CHL1  H12B 2841   3.891   0.831   5.076  0.5270  1.2682 -0.1349
   23CHL1   C11 2842   3.960   0.961   5.236  0.2021 -0.3488  0.1265
   23CHL1  H11A 2843   4.004   1.061   5.255 -0.6888  0.3347 -1.2229
   23CHL1  H11B 2844   3.853   0.965   5.266  0.1024 -1.0226 -0.1313
   23CHL1    C9 2845   4.025   0.854   5.333  0.0972  0.4082  0.1200
   23CHL1    H9 2846   3.953   0.769   5.331 -0.0994  0.5821 -1.3022
   23CHL1   C10 2847   4.025   0.893   5.483  0.1321  0.6582  0.3446
   23CHL1   C19 2848   4.078   1.040   5.494  0.0353  0.1745  0.3558
   23CHL1  H19A 2849   4.148   1.048   5.408  0.2356  1.3500  0.6189
   23CHL1  H19B 2850   4.003   1.121   5.498 -1.0670 -0.7514 -0.7276
   23CHL1  H19C 2851   4.144   1.048   5.583 -0.1008 -0.0879  0.4800
   23CHL1    C1 2852   3.879   0.897   5.532 -0.4704 -0.6437 -0.1105
   23CHL1   H1A 2853   3.821   0.975   5.479 -1.9424 -0.4419  1.6910
   23CHL1   H1B 2854   3.843   0.792   5.527 -0.5508 -0.8358  2.7619
   23CHL1    C2 2855   3.856   0.926   5.684  0.1683  0.6432  0.0703
   23CHL1   H2A 2856   3.749   0.914   5.710  0.7898 -2.8925  1.4764
   23CHL1   H2B 2857   3.885   1.030   5.710  0.3084  0.9647 -1.2973
   23CHL1   C20 2858   4.087   0.858   4.782 -0.2074 -0.3091 -0.0978
   23CHL1   H20 2859   4.184   0.910   4.768  1.4456 -1.9172  3.8085
   23CHL1   C21 2860   3.986   0.970   4.781  0.1882  0.3639  0.2005
   23CHL1  H21A 2861   3.881   0.941   4.805  0.4396 -1.9075 -1.1858
   23CHL1  H21B 2862   3.974   1.024   4.684  3.7139  0.6990 -0.1614
   23CHL1  H21C 2863   4.028   1.046   4.850 -3.1503  0.4649  2.3713
   23CHL1   C22 2864   4.056   0.765   4.660 -0.0020  0.3055 -0.3962
   23CHL1  H22A 2865   4.106   0.668   4.684 -0.7591  0.3496  1.4916
   23CHL1  H22B 2866   3.946   0.756   4.650 -0.0349  1.5121 -1.3899
   23CHL1   C23 2867   4.111   0.827   4.528  0.3326  0.1092 -0.4245
   23CHL1  H23A 2868   4.071   0.929   4.507  0.3940 -0.0436 -1.3392
   23CHL1  H23B 2869   4.222   0.827   4.542  0.6673  2.5495 -2.3233
   23CHL1   C24 2870   4.078   0.744   4.399  0.3071 -0.0231  0.3320
   23CHL1  H24A 2871   4.082   0.636   4.422 -2.4030 -1.0947 -3.3277
   23CHL1  H24B 2872   3.970   0.758   4.380  0.5447  3.3782  0.8380
   23CHL1   C25 2873   4.156   0.776   4.271 -0.2667 -0.6707  0.3083
   23CHL1   H25 2874   4.101   0.721   4.191 -5.0656  0.8419  2.1666
   23CHL1   C26 2875   4.158   0.925   4.237 -0.7178 -0.2027  0.3581
   23CHL1  H26A 2876   4.185   0.990   4.323  3.1239 -1.5980  0.3846
   23CHL1  H26B 2877   4.222   0.943   4.148 -2.2252  1.4152 -0.4942
   23CHL1  H26C 2878   4.059   0.957   4.197 -0.9859 -0.7723  0.5581
   23CHL1   C27 2879   4.299   0.717   4.275  0.2186  0.2833  0.0624
   23CHL1  H27A 2880   4.374   0.787   4.316 -1.1453  0.6904  1.9911
   23CHL1  H27B 2881   4.306   0.616   4.320  0.0588 -0.3410 -1.2767
   23CHL1  H27C 2882   4.325   0.719   4.167 -2.2784  1.5878 -0.5994
   24CHL1    C3 2883   5.805   1.059   5.923  0.0355  0.0537 -0.0939
   24CHL1    H3 2884   5.777   0.964   5.871  1.4362 -0.7857  0.6157
   24CHL1    O3 2885   5.790   1.043   6.064  0.4813 -0.2941 -0.1876
   24CHL1   H3' 2886   5.814   1.130   6.099  1.1917 -0.5006 -0.1477
   24CHL1    C4 2887   5.950   1.073   5.880 -0.7055 -0.1089  0.6415
   24CHL1   H4A 2888   5.996   1.156   5.938  0.6407  0.0067 -0.5359
   24CHL1   H4B 2889   6.000   0.976   5.902  0.2759  0.2888  0.2309
   24CHL1    C5 2890   5.966   1.088   5.730  0.0457 -0.2698 -0.0179
   24CHL1    C6 2891   6.051   1.008   5.660  0.6093 -0.4390  0.1207
   24CHL1    H6 2892   6.107   0.934   5.718  1.0604 -1.4610 -1.5524
   24CHL1    C7 2893   6.085   1.008   5.512 -0.4882 -0.6733 -1.3483
   24CHL1   H7A 2894   6.193   1.023   5.489 -0.4864 -0.2512 -1.0805
   24CHL1   H7B 2895   6.067   0.904   5.480  0.0224 -1.1713 -0.0995
   24CHL1    C8 2896   6.011   1.128   5.450 -0.0957  0.0703  0.0142
   24CHL1    H8 2897   6.084   1.211   5.459  0.3145 -0.3215  0.3637
   24CHL1   C14 2898   5.992   1.104   5.299 -0.2417 -0.3475  0.8263
   24CHL1   H14 2899   5.902   1.038   5.297 -0.9777  0.5981 -1.4400
   24CHL1   C15 2900   6.098   1.029   5.217  0.6274  0.4186  0.0817
   24CHL1  H15A 2901   6.192   1.086   5.239  1.6778 -0.6711 -1.4047
   24CHL1  H15B 2902   6.115   0.923   5.245  1.1402  0.2281 -0.8933
   24CHL1   C16 2903   6.054   1.054   5.070  0.3046 -0.0946  0.4403
   24CHL1  H16A 2904   6.147   1.092   5.022  1.0390 -1.0385  1.0706
   24CHL1  H16B 2905   6.008   0.963   5.026  1.2455 -1.7580  2.7384
   24CHL1   C17 2906   5.934   1.151   5.074 -0.5204  0.0951 -0.6324
   24CHL1   H17 2907   5.837   1.098   5.068  0.3979 -1.7923  0.3124
   24CHL1   C13 2908   5.948   1.221   5.216  0.0339 -0.0651  0.3170
   24CHL1   C18 2909   6.058   1.324   5.216 -0.6890 -0.5225 -0.2157
   24CHL1  H18A 2910   6.087   1.361   5.316  0.1197  0.3309 -0.7506
   24CHL1  H18B 2911   6.146   1.280   5.165 -1.3667 -1.4077 -0.6689
   24CHL1  H18C 2912   6.027   1.413   5.156 -1.1682 -0.0884  0.6533
   24CHL1   C12 2913   5.825   1.276   5.285  0.0306  0.1554  0.1269
   24CHL1  H12A 2914   5.805   1.371   5.231  1.4734  1.3966  1.6809
   24CHL1  H12B 2915   5.736   1.211   5.268  0.9569 -0.5248 -2.7167
   24CHL1   C11 2916   5.828   1.297   5.437 -0.6240 -0.2346  0.7502
   24CHL1  H11A 2917   5.902   1.379   5.453  0.2763 -1.0188  0.6970
   24CHL1  H11B 2918   5.725   1.320   5.472 -0.9611 -1.4575  0.6176
   24CHL1    C9 2919   5.871   1.176   5.513 -0.0382  0.3450  0.7563
   24CHL1    H9 2920   5.797   1.096   5.493 -1.8556  1.8809  1.0882
   24CHL1   C10 2921   5.886   1.194   5.666  0.5214  0.0273  0.3782
   24CHL1   C19 2922   5.935   1.330   5.710 -0.0965 -0.6078  0.3726
   24CHL1  H19A 2923   6.002   1.373   5.633 -3.0954 -0.2339 -2.2314
   24CHL1  H19B 2924   5.850   1.402   5.709  0.9064  0.8147  3.8256
   24CHL1  H19C 2925   5.975   1.336   5.813  0.8164 -0.2251  0.0105
   24CHL1    C1 2926   5.738   1.194   5.714  0.1478  0.7502 -0.7829
   24CHL1   H1A 2927   5.679   1.281   5.678  0.4512  1.2071 -0.2034
   24CHL1   H1B 2928   5.694   1.098   5.681  0.9623  0.0189  0.2118
   24CHL1    C2 2929   5.719   1.180   5.875 -0.5436  1.0383  0.3844
   24CHL1   H2A 2930   5.611   1.156   5.888 -0.3655 -0.8095 -1.0956
   24CHL1   H2B 2931   5.755   1.269   5.932  2.5045 -0.6019  1.2537
   24CHL1   C20 2932   5.944   1.248   4.954 -0.2099 -0.5105  0.0933
   24CHL1   H20 2933   6.041   1.303   4.956  0.3611 -1.4849 -0.5645
   24CHL1   C21 2934   5.824   1.344   4.959  0.6208 -0.5541  0.3573
   24CHL1  H21A 2935   5.849   1.422   5.034  1.4068 -1.0644  0.6374
   24CHL1  H21B 2936   5.731   1.287   4.977  0.5905 -0.5716  0.1453
   24CHL1  H21C 2937   5.810   1.391   4.859 -0.4725 -0.7151  0.4200
   24CHL1   C22 2938   5.939   1.177   4.817  0.2584  0.3590 -0.8480
   24CHL1  H22A 2939   5.978   1.073   4.821  0.1456  0.2642  4.6709
   24CHL1  H22B 2940   5.831   1.155   4.805 -0.4534  1.0153  3.0291
   24CHL1   C23 2941   5.993   1.267   4.705  0.2012  0.2017 -0.2581
   24CHL1  H23A 2942   5.949   1.368   4.719  1.9804  1.0575 -0.5436
   24CHL1  H23B 2943   6.100   1.290   4.723  0.1459  1.2409 -1.1593
   24CHL1   C24 2944   5.942   1.211   4.572  0.1045 -0.0768 -0.4846
   24CHL1  H24A 2945   5.989   1.113   4.551 -1.2287 -1.1715  1.3485
   24CHL1  H24B 2946   5.834   1.186   4.578 -0.1393  0.1359 -2.8888
   24CHL1   C25 2947   5.966   1.313   4.448  0.2914  0.1879 -0.1915
   24CHL1   H25 2948   5.920   1.268   4.358 -1.5427  0.8053  0.3994
   24CHL1   C26 2949   5.889   1.447   4.467 -0.2550 -0.0773 -0.0153
   24CHL1  H26A 2950   5.951   1.509   4.536  2.3662 -1.5926 -0.8644
   24CHL1  H26B 2951   5.873   1.505   4.373  0.1902 -1.2980 -0.8627
   24CHL1  H26C 2952   5.787   1.433   4.507 -1.4090 -0.5983 -2.8793
   24CHL1   C27 2953   6.117   1.343   4.427  0.7086  0.5243 -0.0921
   24CHL1  H27A 2954   6.172   1.247   4.417 -0.2234 -0.3538  2.4665
   24CHL1  H27B 2955   6.131   1.398   4.331 -1.6149 -0.2168 -0.9254
   24CHL1  H27C 2956   6.155   1.400   4.515 -1.8377  0.8625  0.8756
   25CHL1    C3 2957   1.700   5.716   5.931  0.0142  0.1606  0.5078
   25CHL1    H3 2958   1.729   5.612   5.958  0.2023  0.1160  0.1348
   25CHL1    O3 2959   1.663   5.790   6.041 -0.2494 -0.4226 -0.6584
   25CHL1   H3' 2960   1.651   5.879   6.007  1.4483  0.0907 -0.0597
   25CHL1    C4 2961   1.825   5.778   5.864  0.2432  0.3647 -0.6277
   25CHL1   H4A 2962   1.816   5.888   5.866 -2.1277  0.2270 -0.9900
   25CHL1   H4B 2963   1.900   5.771   5.946 -1.9882  1.2336  1.6103
   25CHL1    C5 2964   1.867   5.713   5.734  0.0681 -0.0777 -0.5009
   25CHL1    C6 2965   1.992   5.664   5.712  0.2570  0.5171 -0.3012
   25CHL1    H6 2966   2.062   5.676   5.796 -1.0378 -1.6355  1.1829
   25CHL1    C7 2967   2.042   5.602   5.587  0.6192  0.3712 -0.5790
   25CHL1   H7A 2968   2.141   5.652   5.582  0.4593  0.8107  0.4869
   25CHL1   H7B 2969   2.050   5.492   5.600 -0.1303  0.4184  0.4819
   25CHL1    C8 2970   1.949   5.635   5.466 -0.8287  0.2831 -0.3826
   25CHL1    H8 2971   1.964   5.743   5.445  0.7879  0.0305 -0.6457
   25CHL1   C14 2972   1.980   5.538   5.353 -0.4071 -0.1273  0.1970
   25CHL1   H14 2973   1.957   5.438   5.396  1.0041  1.1273  4.3858
   25CHL1   C15 2974   2.124   5.531   5.308 -0.3702  0.7501  0.5347
   25CHL1  H15A 2975   2.186   5.623   5.308  2.4513 -1.0152 -1.1749
   25CHL1  H15B 2976   2.179   5.451   5.361  1.0748  0.6277 -1.0606
   25CHL1   C16 2977   2.117   5.473   5.165 -1.1147  0.4522 -0.0829
   25CHL1  H16A 2978   2.161   5.544   5.092  2.5336 -1.5996 -0.0957
   25CHL1  H16B 2979   2.183   5.386   5.144 -1.0254  0.7976 -1.2882
   25CHL1   C17 2980   1.970   5.450   5.134  0.2911  0.5861  0.2458
   25CHL1   H17 2981   1.939   5.354   5.182  1.2231  1.7278  3.3905
   25CHL1   C13 2982   1.901   5.558   5.227 -0.6754  0.5593  0.6858
   25CHL1   C18 2983   1.915   5.701   5.174 -1.0153 -0.9739 -0.2063
   25CHL1  H18A 2984   1.888   5.776   5.251 -0.5262 -0.5329 -0.4574
   25CHL1  H18B 2985   2.022   5.704   5.143 -1.1902 -2.1210 -0.9799
   25CHL1  H18C 2986   1.851   5.722   5.086 -0.2662  0.5017 -0.4258
   25CHL1   C12 2987   1.754   5.531   5.262  0.2409  0.2212  0.2790
   25CHL1  H12A 2988   1.682   5.541   5.178 -0.9009 -2.1331  0.8860
   25CHL1  H12B 2989   1.744   5.426   5.296  1.2445 -0.7281 -2.1505
   25CHL1   C11 2990   1.714   5.618   5.383 -0.4256  0.0435  1.0912
   25CHL1  H11A 2991   1.709   5.721   5.343  1.5654 -0.8232 -1.6687
   25CHL1  H11B 2992   1.612   5.581   5.408 -1.9082  1.5999 -2.1607
   25CHL1    C9 2993   1.804   5.612   5.508  0.1600 -0.0330 -0.3112
   25CHL1    H9 2994   1.799   5.509   5.551  1.0983 -0.4158 -1.0779
   25CHL1   C10 2995   1.757   5.697   5.627 -0.2119  0.1354  0.0007
   25CHL1   C19 2996   1.730   5.842   5.589  0.4014 -0.8393  0.4108
   25CHL1  H19A 2997   1.646   5.841   5.517 -0.0281  0.4343  0.8634
   25CHL1  H19B 2998   1.709   5.906   5.678 -0.9266 -2.3540  1.2285
   25CHL1  H19C 2999   1.816   5.879   5.529 -0.3260 -0.5100 -0.4440
   25CHL1    C1 3000   1.632   5.643   5.702 -0.2258 -0.7765  0.3825
   25CHL1   H1A 3001   1.546   5.644   5.632  0.9385  1.8545 -1.2004
   25CHL1   H1B 3002   1.640   5.537   5.733  0.5796 -1.0955 -0.8552
   25CHL1    C2 3003   1.582   5.712   5.823 -0.5094 -0.8061 -0.5945
   25CHL1   H2A 3004   1.499   5.650   5.864  0.5533 -1.4821  0.5998
   25CHL1   H2B 3005   1.548   5.815   5.797 -2.0154 -0.2662  2.9233
   25CHL1   C20 3006   1.933   5.448   4.990 -0.3156 -0.9835  0.1656
   25CHL1   H20 3007   1.919   5.553   4.955  0.5128 -1.0756 -0.4648
   25CHL1   C21 3008   1.805   5.372   4.967 -0.3242  0.1585  0.2299
   25CHL1  H21A 3009   1.808   5.261   4.963  0.0603  0.1456  0.7298
   25CHL1  H21B 3010   1.765   5.404   4.869 -1.5481  0.7600  0.8876
   25CHL1  H21C 3011   1.729   5.418   5.035 -0.8479  0.3212 -0.4557
   25CHL1   C22 3012   2.046   5.387   4.901 -0.1512  0.1851  0.1712
   25CHL1  H22A 3013   2.124   5.463   4.881 -1.5366  1.9951  1.2824
   25CHL1  H22B 3014   2.092   5.294   4.940  0.1929  0.1074 -0.4185
   25CHL1   C23 3015   1.989   5.327   4.768  0.6094  0.0931 -0.0369
   25CHL1  H23A 3016   1.922   5.239   4.780 -0.9948  0.6726 -3.5783
   25CHL1  H23B 3017   1.930   5.403   4.714 -0.8627 -0.5166  0.6731
   25CHL1   C24 3018   2.103   5.279   4.686 -0.8084 -0.5094  0.4929
   25CHL1  H24A 3019   2.177   5.360   4.673 -1.0445 -0.1064  1.5783
   25CHL1  H24B 3020   2.169   5.211   4.745  1.4339  0.4545 -0.7691
   25CHL1   C25 3021   2.059   5.223   4.550 -0.3391 -0.0942  0.3933
   25CHL1   H25 3022   1.976   5.155   4.579  1.5914 -2.0593  1.6073
   25CHL1   C26 3023   2.000   5.334   4.462  0.5128  0.5097 -0.4974
   25CHL1  H26A 3024   2.082   5.401   4.429  3.1201 -1.1698  2.0912
   25CHL1  H26B 3025   1.955   5.297   4.367 -0.5876 -1.6114  0.7743
   25CHL1  H26C 3026   1.937   5.410   4.510  2.4644  2.0713 -0.2701
   25CHL1   C27 3027   2.173   5.146   4.485  0.1828 -0.2999  0.2314
   25CHL1  H27A 3028   2.264   5.208   4.466  0.0675 -0.7026 -1.9481
   25CHL1  H27B 3029   2.205   5.059   4.546 -0.2114 -0.8140 -0.2781
   25CHL1  H27C 3030   2.144   5.104   4.386 -0.8812 -0.5930  0.6535
   26CHL1    C3 3031   6.370   1.242   6.009  0.5581  0.3262 -0.1157
   26CHL1    H3 3032   6.339   1.138   5.987 -0.3334  0.7396 -0.9027
   26CHL1    O3 3033   6.359   1.264   6.147 -0.0325 -0.7631 -0.0997
   26CHL1   H3' 3034   6.421   1.333   6.173 -1.5511  0.7597 -0.3631
   26CHL1    C4 3035   6.517   1.250   5.959  0.2550  0.2208 -1.0634
   26CHL1   H4A 3036   6.550   1.352   5.987  0.2210 -0.1626  0.4739
   26CHL1   H4B 3037   6.584   1.191   6.026 -1.1300  1.6798  1.8062
   26CHL1    C5 3038   6.537   1.223   5.814  0.3233  0.1415  0.1094
   26CHL1    C6 3039   6.620   1.124   5.771 -0.0027 -0.7616 -0.0654
   26CHL1    H6 3040   6.677   1.064   5.844  3.5583 -1.0628 -2.8198
   26CHL1    C7 3041   6.635   1.081   5.625  0.2914  0.0937 -0.3946
   26CHL1   H7A 3042   6.739   1.054   5.595  0.3665 -0.5313  0.3864
   26CHL1   H7B 3043   6.570   0.993   5.606 -0.2809  0.3268  0.4511
   26CHL1    C8 3044   6.584   1.193   5.537  0.2879  0.1585 -0.7507
   26CHL1    H8 3045   6.669   1.263   5.550 -0.5756  0.6806  4.0420
   26CHL1   C14 3046   6.559   1.140   5.390  0.5766  0.0718 -0.4482
   26CHL1   H14 3047   6.473   1.070   5.400 -0.7558  1.9363  2.2271
   26CHL1   C15 3048   6.667   1.051   5.326 -0.3125  0.4184 -0.2659
   26CHL1  H15A 3049   6.775   1.065   5.351  0.2723 -0.4790 -2.0850
   26CHL1  H15B 3050   6.635   0.947   5.347 -1.1331  0.6352 -0.4297
   26CHL1   C16 3051   6.658   1.066   5.170 -0.4994  0.0703 -0.0277
   26CHL1  H16A 3052   6.747   1.119   5.130 -0.7193  0.5182  0.0783
   26CHL1  H16B 3053   6.640   0.963   5.132 -1.9179  0.5875 -0.8105
   26CHL1   C17 3054   6.532   1.158   5.150 -0.1318 -0.3961 -0.8742
   26CHL1   H17 3055   6.439   1.098   5.139 -0.5496  0.0912 -0.0884
   26CHL1   C13 3056   6.522   1.242   5.283  0.2634 -0.4549  1.2029
   26CHL1   C18 3057   6.635   1.345   5.279  0.0723 -0.7822  0.4325
   26CHL1  H18A 3058   6.733   1.306   5.244 -0.2201 -1.0645 -0.0828
   26CHL1  H18B 3059   6.612   1.433   5.215 -0.3317 -0.8011  0.5470
   26CHL1  H18C 3060   6.662   1.395   5.375 -1.7012  1.9241 -0.3656
   26CHL1   C12 3061   6.391   1.304   5.323  0.2443  0.2368 -0.7124
   26CHL1  H12A 3062   6.357   1.387   5.257  1.2774 -0.5844 -2.3545
   26CHL1  H12B 3063   6.316   1.221   5.316  0.2688  0.2746 -1.5915
   26CHL1   C11 3064   6.396   1.355   5.471 -0.1192 -0.6840  0.1535
   26CHL1  H11A 3065   6.464   1.443   5.468  0.7237 -1.3111  0.3586
   26CHL1  H11B 3066   6.298   1.403   5.490 -0.4390  0.2048 -3.1262
   26CHL1    C9 3067   6.451   1.253   5.580  0.3321  0.0944  0.3347
   26CHL1    H9 3068   6.382   1.167   5.574  1.9496 -1.1779 -0.8568
   26CHL1   C10 3069   6.447   1.312   5.723  0.5418  0.8142  0.2344
   26CHL1   C19 3070   6.509   1.457   5.723 -0.8251 -0.1229 -0.0634
   26CHL1  H19A 3071   6.453   1.526   5.656 -1.2555  0.4000  0.8121
   26CHL1  H19B 3072   6.519   1.502   5.824  0.9468  0.8418 -0.6273
   26CHL1  H19C 3073   6.612   1.455   5.683 -0.5924  2.8376  0.1812
   26CHL1    C1 3074   6.299   1.326   5.768 -0.0944  0.6151 -0.2169
   26CHL1   H1A 3075   6.249   1.412   5.719 -1.5952  0.2212  0.5502
   26CHL1   H1B 3076   6.236   1.237   5.745  0.2885  0.0093  0.9740
   26CHL1    C2 3077   6.281   1.344   5.929  0.2560  0.0924 -0.2175
   26CHL1   H2A 3078   6.172   1.337   5.949  0.5088  1.0111  1.6352
   26CHL1   H2B 3079   6.313   1.445   5.962  3.5584 -1.5310  2.0784
   26CHL1   C20 3080   6.542   1.244   5.016 -0.3332  1.1085  0.4851
   26CHL1   H20 3081   6.618   1.324   5.028  1.7149 -0.7680  0.6213
   26CHL1   C21 3082   6.407   1.318   4.991 -1.0790  0.4581 -0.0049
   26CHL1  H21A 3083   6.416   1.379   4.898 -1.2248 -1.4677 -1.3360
   26CHL1  H21B 3084   6.383   1.386   5.076 -0.5166  1.7592 -0.8525
   26CHL1  H21C 3085   6.336   1.237   4.967  0.3623 -0.7986 -0.1900
   26CHL1   C22 3086   6.582   1.168   4.884  0.6760 -0.8183  0.1273
   26CHL1  H22A 3087   6.572   1.236   4.796  1.6226  2.2128  2.2009
   26CHL1  H22B 3088   6.690   1.148   4.903  0.2070 -2.6476  1.0966
   26CHL1   C23 3089   6.499   1.040   4.854 -0.4386  0.1194 -0.5370
   26CHL1  H23A 3090   6.514   0.966   4.936 -1.5042 -1.6756 -1.8605
   26CHL1  H23B 3091   6.391   1.059   4.831 -0.6821 -0.2851  0.2354
   26CHL1   C24 3092   6.551   0.966   4.735 -0.2225  0.1840  0.0283
   26CHL1  H24A 3093   6.659   0.948   4.751 -0.4637  0.2939  2.1155
   26CHL1  H24B 3094   6.515   0.862   4.721  0.6642 -0.1005 -0.1372
   26CHL1   C25 3095   6.523   1.030   4.590 -0.1228  0.4918 -0.6803
   26CHL1   H25 3096   6.535   1.139   4.607 -0.5389  0.2506  1.3277
   26CHL1   C26 3097   6.622   0.994   4.485 -0.0296  0.4284  0.0044
   26CHL1  H26A 3098   6.604   0.888   4.456 -1.8726  0.7899 -0.3172
   26CHL1  H26B 3099   6.616   1.051   4.390  2.5692  1.6826  0.5025
   26CHL1  H26C 3100   6.724   1.013   4.525 -0.1677 -0.5234  0.8478
   26CHL1   C27 3101   6.385   1.000   4.539  0.2058 -0.0797  0.8012
   26CHL1  H27A 3102   6.358   1.063   4.451  1.5276 -3.4731 -2.2794
   26CHL1  H27B 3103   6.384   0.894   4.508  4.2053  0.0952 -0.4700
   26CHL1  H27C 3104   6.314   1.014   4.623  0.5548  2.7013  0.7484
   27CHL1    C3 3105   3.950   6.614   6.013  0.2299 -0.0859  0.5848
   27CHL1    H3 3106   4.009   6.522   6.032  1.2875  0.4093 -0.1669
   27CHL1    O3 3107   3.939   6.691   6.130  0.4854  0.0043 -0.7384
   27CHL1   H3' 3108   3.886   6.646   6.196  1.5853 -1.5206 -0.8394
   27CHL1    C4 3109   4.003   6.701   5.900  0.1758  0.3531 -0.0467
   27CHL1   H4A 3110   3.943   6.794   5.907  3.4942  2.5371  3.9846
   27CHL1   H4B 3111   4.109   6.723   5.928  0.5813 -1.4468 -0.0600
   27CHL1    C5 3112   4.005   6.638   5.763 -0.0194 -0.1441 -0.1105
   27CHL1    C6 3113   4.115   6.624   5.689 -0.5317  0.0294 -0.4950
   27CHL1    H6 3114   4.211   6.662   5.727 -0.9264 -0.3735  0.9553
   27CHL1    C7 3115   4.115   6.568   5.551 -0.1465  0.6858 -0.7649
   27CHL1   H7A 3116   4.172   6.643   5.493 -0.7239  0.0199 -2.2336
   27CHL1   H7B 3117   4.175   6.476   5.539 -0.3542  0.6540 -1.5976
   27CHL1    C8 3118   3.977   6.546   5.491  0.5229  0.0694 -0.3185
   27CHL1    H8 3119   3.939   6.646   5.461  2.3817  1.8691  2.7214
   27CHL1   C14 3120   3.976   6.447   5.378  0.2329 -0.1648 -0.8711
   27CHL1   H14 3121   4.008   6.363   5.444 -0.6252  1.1959  1.3806
   27CHL1   C15 3122   4.079   6.470   5.259  0.0307  0.3749 -0.0008
   27CHL1  H15A 3123   4.087   6.579   5.239  2.6836  0.6981  2.2740
   27CHL1  H15B 3124   4.178   6.439   5.298  0.2341  3.8522  2.7017
   27CHL1   C16 3125   4.027   6.387   5.150  0.0983 -0.3461  0.3762
   27CHL1  H16A 3126   4.012   6.446   5.057 -2.0007 -0.6896  0.4435
   27CHL1  H16B 3127   4.107   6.319   5.113  0.3820  1.4390 -2.5488
   27CHL1   C17 3128   3.898   6.321   5.202 -0.5563  0.1737  0.5163
   27CHL1   H17 3129   3.928   6.220   5.238  0.8544  1.1193  2.1349
   27CHL1   C13 3130   3.846   6.406   5.313 -0.4399 -0.0030 -0.7492
   27CHL1   C18 3131   3.783   6.527   5.239  0.8367  0.1337  0.2533
   27CHL1  H18A 3132   3.850   6.577   5.166 -0.2876  2.3341  0.6757
   27CHL1  H18B 3133   3.689   6.496   5.188  0.3269  2.3680 -0.2378
   27CHL1  H18C 3134   3.759   6.613   5.304  0.5658  1.5786 -1.6677
   27CHL1   C12 3135   3.754   6.345   5.419 -0.4981  0.5136 -0.3366
   27CHL1  H12A 3136   3.648   6.334   5.390 -1.3364 -0.0340  2.6042
   27CHL1  H12B 3137   3.807   6.254   5.455 -0.9001  0.3567 -0.1443
   27CHL1   C11 3138   3.741   6.450   5.530 -0.2005  0.1681  0.1189
   27CHL1  H11A 3139   3.683   6.535   5.490 -1.5464 -0.6707  0.2320
   27CHL1  H11B 3140   3.682   6.400   5.610 -0.0520  1.2622  0.9310
   27CHL1    C9 3141   3.877   6.493   5.602 -0.4566 -0.6220  1.2560
   27CHL1    H9 3142   3.909   6.398   5.650  0.3807 -0.8323  0.3165
   27CHL1   C10 3143   3.863   6.584   5.730  0.1158 -0.0278  0.7890
   27CHL1   C19 3144   3.776   6.712   5.694  0.6094  0.1121  0.4095
   27CHL1  H19A 3145   3.841   6.772   5.627  1.7942 -3.0397 -1.4864
   27CHL1  H19B 3146   3.679   6.688   5.645  1.4689  0.3090 -1.4631
   27CHL1  H19C 3147   3.749   6.764   5.788 -1.9158 -1.1322  0.4728
   27CHL1    C1 3148   3.806   6.499   5.842  0.0134 -0.6546  0.1280
   27CHL1   H1A 3149   3.705   6.459   5.819 -0.8356  1.2042  0.4252
   27CHL1   H1B 3150   3.873   6.414   5.865  0.3180 -0.5029 -0.1993
   27CHL1    C2 3151   3.802   6.567   5.976 -0.7832 -0.1346  0.4099
   27CHL1   H2A 3152   3.753   6.498   6.048 -1.9989 -0.0008 -0.2639
   27CHL1   H2B 3153   3.741   6.660   5.985  1.4732  1.3003  2.3023
   27CHL1   C20 3154   3.820   6.279   5.071  0.1896  0.1647 -0.2854
   27CHL1   H20 3155   3.810   6.373   5.013 -0.8208  0.0766 -0.2550
   27CHL1   C21 3156   3.676   6.230   5.116 -0.4772 -0.3849  0.4209
   27CHL1  H21A 3157   3.628   6.314   5.171  2.5487 -0.3439  3.3564
   27CHL1  H21B 3158   3.689   6.143   5.184 -1.5801 -0.8087  0.1168
   27CHL1  H21C 3159   3.614   6.208   5.027 -0.8486  2.0812  0.0059
   27CHL1   C22 3160   3.889   6.161   4.994 -0.2313  0.1735  0.0676
   27CHL1  H22A 3161   4.000   6.165   5.001  0.0291 -2.3044 -1.2721
   27CHL1  H22B 3162   3.866   6.072   5.057 -0.0068  0.7593  1.0006
   27CHL1   C23 3163   3.859   6.140   4.849 -0.8972  0.6875 -0.6510
   27CHL1  H23A 3164   3.906   6.044   4.818 -1.9551  0.2732 -1.0063
   27CHL1  H23B 3165   3.751   6.128   4.830 -1.4458 -0.5405  2.5841
   27CHL1   C24 3166   3.917   6.249   4.750 -0.2005 -0.6743  0.6670
   27CHL1  H24A 3167   3.897   6.350   4.790 -1.1479 -1.4920  2.3498
   27CHL1  H24B 3168   4.026   6.237   4.727 -0.1453 -0.3063  0.7356
   27CHL1   C25 3169   3.835   6.253   4.619 -0.2434  0.3283  0.0836
   27CHL1   H25 3170   3.730   6.282   4.644 -1.0834 -0.6684 -2.0191
   27CHL1   C26 3171   3.889   6.359   4.515 -0.7148  0.5701  0.0277
   27CHL1  H26A 3172   3.918   6.459   4.554  0.1815  0.2936  0.0900
   27CHL1  H26B 3173   3.976   6.313   4.463 -0.9873  2.1246 -1.9707
   27CHL1  H26C 3174   3.807   6.378   4.442 -0.4244  2.5797  0.1500
   27CHL1   C27 3175   3.838   6.114   4.553 -0.3554 -0.6238  0.1559
   27CHL1  H27A 3176   3.768   6.050   4.610 -0.8043  0.5136  0.9156
   27CHL1  H27B 3177   3.941   6.073   4.547 -0.4254 -0.9047  0.7673
   27CHL1  H27C 3178   3.789   6.122   4.454  0.3277  2.2058 -0.0440
   28CHL1    C3 3179   0.801   6.290   5.673  0.9803  0.0498 -0.3084
   28CHL1    H3 3180   0.725   6.306   5.593  0.4775 -1.9830 -0.2743
   28CHL1    O3 3181   0.738   6.257   5.795 -0.0297 -0.2303 -0.3651
   28CHL1   H3' 3182   0.804   6.206   5.843 -2.0546  0.2863  3.2772
   28CHL1    C4 3183   0.896   6.175   5.627  0.0646 -0.3490 -0.4751
   28CHL1   H4A 3184   0.965   6.147   5.709 -0.5401 -1.4522 -0.3280
   28CHL1   H4B 3185   0.835   6.086   5.602 -0.6382 -0.2780  0.8659
   28CHL1    C5 3186   0.976   6.199   5.499 -0.5812  0.0756  0.1496
   28CHL1    C6 3187   0.972   6.114   5.391 -0.5504 -0.9226 -0.4856
   28CHL1    H6 3188   0.927   6.014   5.387 -1.2120 -0.5896 -2.2767
   28CHL1    C7 3189   1.036   6.149   5.255 -0.3175 -0.5686 -0.0667
   28CHL1   H7A 3190   1.095   6.068   5.206  2.1723  0.2947  1.3072
   28CHL1   H7B 3191   0.954   6.177   5.186 -0.6518 -1.0919  0.1056
   28CHL1    C8 3192   1.140   6.263   5.270 -0.2923  0.1561  0.1134
   28CHL1    H8 3193   1.222   6.205   5.317 -0.2469 -2.3397 -2.7588
   28CHL1   C14 3194   1.183   6.318   5.131 -0.2209  0.3996 -0.4032
   28CHL1   H14 3195   1.086   6.355   5.091  1.4955  2.7403 -2.6772
   28CHL1   C15 3196   1.226   6.222   5.016  0.0426  0.3036  0.0519
   28CHL1  H15A 3197   1.299   6.150   5.059 -0.1605  0.9200  1.4909
   28CHL1  H15B 3198   1.145   6.159   4.972  0.5770 -0.4513  0.1285
   28CHL1   C16 3199   1.299   6.314   4.915  0.4460  0.3776  0.0684
   28CHL1  H16A 3200   1.404   6.286   4.893  0.4596  0.5866 -0.1344
   28CHL1  H16B 3201   1.237   6.323   4.823 -0.7980 -1.6655  0.6330
   28CHL1   C17 3202   1.286   6.457   4.980 -0.8401  1.4583  0.4867
   28CHL1   H17 3203   1.187   6.491   4.941 -1.9633 -1.2769  0.6822
   28CHL1   C13 3204   1.275   6.433   5.135 -0.6712 -1.2758 -0.7255
   28CHL1   C18 3205   1.412   6.396   5.188  0.4259 -0.4944  0.0607
   28CHL1  H18A 3206   1.472   6.337   5.115  0.7390 -1.6543  1.2156
   28CHL1  H18B 3207   1.457   6.495   5.208 -1.0635  0.4371 -1.0051
   28CHL1  H18C 3208   1.394   6.336   5.280  2.3433 -0.1747  0.6792
   28CHL1   C12 3209   1.214   6.554   5.209  0.2563  0.8838  0.4848
   28CHL1  H12A 3210   1.291   6.634   5.212  0.0129  1.1050  0.8606
   28CHL1  H12B 3211   1.121   6.579   5.154 -0.0668  0.2796  0.7389
   28CHL1   C11 3212   1.175   6.510   5.347  0.0577 -0.8293  0.3646
   28CHL1  H11A 3213   1.268   6.493   5.407 -0.1173 -0.8858  0.6225
   28CHL1  H11B 3214   1.118   6.600   5.379  0.3765 -0.0176 -1.2399
   28CHL1    C9 3215   1.090   6.383   5.355  0.2641 -0.1904  0.4477
   28CHL1    H9 3216   0.998   6.417   5.302  1.2089  3.2701  0.8233
   28CHL1   C10 3217   1.049   6.338   5.496  0.4072  0.2829 -0.0841
   28CHL1   C19 3218   1.172   6.321   5.589 -0.2925 -0.0658 -0.2516
   28CHL1  H19A 3219   1.218   6.420   5.608  0.1736  0.0957 -2.0487
   28CHL1  H19B 3220   1.147   6.274   5.686 -0.1430 -1.0488 -0.6783
   28CHL1  H19C 3221   1.250   6.254   5.547  0.7225  0.8230  0.1898
   28CHL1    C1 3222   0.956   6.448   5.559  0.1133 -0.3861  0.4323
   28CHL1   H1A 3223   1.019   6.530   5.600  1.3646 -1.6880  1.2115
   28CHL1   H1B 3224   0.884   6.489   5.485 -0.9503 -1.7519  0.6756
   28CHL1    C2 3225   0.881   6.425   5.688  0.1291  0.5730 -0.8639
   28CHL1   H2A 3226   0.824   6.513   5.725 -0.5189 -1.1765  2.7075
   28CHL1   H2B 3227   0.954   6.399   5.767 -1.4661  0.0955  0.5110
   28CHL1   C20 3228   1.385   6.558   4.923  0.6380  0.9654 -0.6073
   28CHL1   H20 3229   1.481   6.543   4.977  0.1118 -2.6390 -0.4506
   28CHL1   C21 3230   1.330   6.699   4.943 -0.4462 -0.2305  1.1001
   28CHL1  H21A 3231   1.408   6.778   4.933 -0.7625 -0.2245 -3.2212
   28CHL1  H21B 3232   1.284   6.731   5.039 -1.5021  0.5764  0.3568
   28CHL1  H21C 3233   1.260   6.719   4.858 -0.5918  0.1226  1.3008
   28CHL1   C22 3234   1.429   6.530   4.771  0.3576  0.1590  0.0887
   28CHL1  H22A 3235   1.477   6.430   4.770 -1.8721 -1.0323  2.2488
   28CHL1  H22B 3236   1.335   6.530   4.711 -1.2984  1.4616  2.5241
   28CHL1   C23 3237   1.536   6.615   4.701 -0.0424 -0.4732 -0.0731
   28CHL1  H23A 3238   1.541   6.588   4.593 -0.1736  1.2245 -0.5282
   28CHL1  H23B 3239   1.509   6.722   4.705  2.1918  0.1029  1.4414
   28CHL1   C24 3240   1.676   6.612   4.762 -0.6758 -0.3457 -0.0634
   28CHL1  H24A 3241   1.670   6.668   4.858  0.3012 -0.3603  0.0199
   28CHL1  H24B 3242   1.699   6.508   4.792  1.0584  0.8855  3.5286
   28CHL1   C25 3243   1.787   6.676   4.678 -0.4885  0.4690  0.5995
   28CHL1   H25 3244   1.757   6.772   4.632 -1.0906  0.2533  0.5197
   28CHL1   C26 3245   1.914   6.699   4.758 -0.1143  0.6177  0.1229
   28CHL1  H26A 3246   1.908   6.793   4.816 -0.0414  0.1738  0.8654
   28CHL1  H26B 3247   1.932   6.610   4.823 -0.0804  0.6679  0.1821
   28CHL1  H26C 3248   2.003   6.720   4.695 -0.6758  3.1064  0.0534
   28CHL1   C27 3249   1.829   6.581   4.563  0.5633  0.1516  0.1214
   28CHL1  H27A 3250   1.872   6.488   4.606  1.8048  0.9385  0.6253
   28CHL1  H27B 3251   1.743   6.555   4.497 -0.4531  1.1983  1.0010
   28CHL1  H27C 3252   1.900   6.618   4.487 -0.5901 -2.4103 -2.3863
   29CHL1    C3 3253   2.900   6.599   5.959  0.4794  0.0743 -0.0872
   29CHL1    H3 3254   2.992   6.659   5.977 -0.1663  0.8378  0.7505
   29CHL1    O3 3255   2.865   6.546   6.088  0.1867 -0.0156  0.3456
   29CHL1   H3' 3256   2.796   6.606   6.119  0.0127  1.3638 -2.4505
   29CHL1    C4 3257   2.795   6.695   5.901 -0.3552  0.0884  0.3443
   29CHL1   H4A 3258   2.689   6.662   5.905 -0.7974  1.5184  1.2847
   29CHL1   H4B 3259   2.789   6.782   5.970  0.9244  0.9004 -0.5163
   29CHL1    C5 3260   2.828   6.747   5.766 -0.6640  0.0068  0.3477
   29CHL1    C6 3261   2.841   6.880   5.737  0.7137  0.6403 -0.2555
   29CHL1    H6 3262   2.822   6.953   5.817 -0.0238  0.8227 -0.5973
   29CHL1    C7 3263   2.884   6.928   5.605  0.0913  0.4910 -0.1960
   29CHL1   H7A 3264   2.823   7.016   5.578  1.1427  1.3596  0.2157
   29CHL1   H7B 3265   2.992   6.951   5.598  0.2740  0.0908  1.0959
   29CHL1    C8 3266   2.854   6.825   5.494  0.2400 -0.7147  0.4287
   29CHL1    H8 3267   2.743   6.817   5.499  0.1428  0.7816  1.1868
   29CHL1   C14 3268   2.910   6.868   5.360  0.1534  0.6330 -0.2747
   29CHL1   H14 3269   3.016   6.897   5.377  0.0262  0.0354  1.7753
   29CHL1   C15 3270   2.830   6.995   5.314 -0.6543 -0.5022 -0.2785
   29CHL1  H15A 3271   2.719   6.983   5.315 -0.7940  0.7370 -0.2338
   29CHL1  H15B 3272   2.860   7.089   5.363 -1.9016 -0.1150 -0.2187
   29CHL1   C16 3273   2.872   6.989   5.162 -0.5888  0.0597  0.4763
   29CHL1  H16A 3274   2.778   7.010   5.106 -0.5648  3.1043  1.3929
   29CHL1  H16B 3275   2.949   7.065   5.135 -1.2321  0.3867 -0.5052
   29CHL1   C17 3276   2.916   6.838   5.126 -0.1526 -0.1032  0.1123
   29CHL1   H17 3277   3.026   6.845   5.112 -0.4699  0.2641 -3.0756
   29CHL1   C13 3278   2.887   6.758   5.251 -0.0946  0.2420 -0.6933
   29CHL1   C18 3279   2.735   6.709   5.251 -0.1506 -0.2841  0.1181
   29CHL1  H18A 3280   2.705   6.665   5.349  0.0145 -1.3815 -0.3139
   29CHL1  H18B 3281   2.673   6.796   5.222  0.9869  0.2474 -0.7846
   29CHL1  H18C 3282   2.727   6.627   5.177  1.6241 -0.9008  0.5495
   29CHL1   C12 3283   2.977   6.641   5.293 -0.6974  0.0677  0.1949
   29CHL1  H12A 3284   2.973   6.560   5.217 -2.1699 -0.1068  0.4203
   29CHL1  H12B 3285   3.077   6.685   5.310 -0.3392 -0.2495 -0.9722
   29CHL1   C11 3286   2.937   6.583   5.429 -0.0509 -0.1951 -0.1726
   29CHL1  H11A 3287   2.843   6.525   5.415 -2.7118  3.9813 -1.2929
   29CHL1  H11B 3288   3.025   6.518   5.451  1.0126  0.6774 -1.6937
   29CHL1    C9 3289   2.917   6.696   5.535  0.1031 -0.0212  0.2586
   29CHL1    H9 3290   3.022   6.727   5.556 -0.0097  1.4650 -1.1945
   29CHL1   C10 3291   2.856   6.637   5.664  0.0792 -0.3828  0.4303
   29CHL1   C19 3292   2.721   6.570   5.636 -0.0598 -0.4781 -0.1792
   29CHL1  H19A 3293   2.654   6.649   5.594  1.3345  1.3074  0.7810
   29CHL1  H19B 3294   2.734   6.482   5.571  0.3496  0.6096 -1.6139
   29CHL1  H19C 3295   2.671   6.532   5.728 -0.0533  0.6197  0.3064
   29CHL1    C1 3296   2.964   6.538   5.722 -0.1915 -0.3427 -0.5510
   29CHL1   H1A 3297   2.969   6.454   5.650 -4.6882 -0.9547 -0.4368
   29CHL1   H1B 3298   3.061   6.591   5.733  1.2106 -2.8560 -0.0262
   29CHL1    C2 3299   2.923   6.484   5.863  0.0295  0.0511  0.1450
   29CHL1   H2A 3300   3.009   6.419   5.890 -0.1347  0.1829  1.0249
   29CHL1   H2B 3301   2.830   6.423   5.867  0.4798 -0.6111  0.7465
   29CHL1   C20 3302   2.872   6.774   4.988  0.4396 -0.1232  0.1858
   29CHL1   H20 3303   2.767   6.739   4.989  0.3364  0.1922  0.5783
   29CHL1   C21 3304   2.966   6.663   4.957  0.9319  0.1660 -0.4811
   29CHL1  H21A 3305   2.945   6.579   5.027  0.4463  2.0663  1.7965
   29CHL1  H21B 3306   3.072   6.695   4.964  0.0271  3.1124  1.9528
   29CHL1  H21C 3307   2.923   6.619   4.865 -2.6734  0.6912  0.7599
   29CHL1   C22 3308   2.877   6.871   4.865  0.5142 -0.0807 -0.4300
   29CHL1  H22A 3309   2.867   6.801   4.779  1.6520 -0.2428 -0.4473
   29CHL1  H22B 3310   2.785   6.933   4.865  1.6529  1.7022  1.4419
   29CHL1   C23 3311   3.003   6.952   4.841  0.4227  0.0445 -0.2768
   29CHL1  H23A 3312   3.021   7.007   4.935 -1.0814  2.1024 -1.1155
   29CHL1  H23B 3313   3.087   6.883   4.818  0.0517 -0.1622 -1.0403
   29CHL1   C24 3314   2.999   7.053   4.723  0.0484 -0.0147 -0.3305
   29CHL1  H24A 3315   2.926   7.133   4.749 -1.5054 -1.8749  1.3224
   29CHL1  H24B 3316   3.094   7.110   4.719  1.2932 -2.0052 -0.2499
   29CHL1   C25 3317   2.989   6.998   4.583 -0.0337 -1.0883 -1.5311
   29CHL1   H25 3318   2.922   6.910   4.575 -0.3396 -0.9898 -0.2234
   29CHL1   C26 3319   2.937   7.109   4.483 -0.6954 -0.2298 -0.0127
   29CHL1  H26A 3320   2.941   7.057   4.385  0.3351 -0.0690 -0.0653
   29CHL1  H26B 3321   2.840   7.144   4.523 -1.1570 -1.4371 -0.0669
   29CHL1  H26C 3322   2.997   7.203   4.477  0.9317 -1.3157 -1.5545
   29CHL1   C27 3323   3.124   6.942   4.530  0.2850  0.0381 -0.0560
   29CHL1  H27A 3324   3.109   6.860   4.457  2.9866  0.7829 -1.5858
   29CHL1  H27B 3325   3.178   7.027   4.485 -1.0810  0.1732 -1.5215
   29CHL1  H27C 3326   3.184   6.902   4.615 -1.1520  0.2063  1.0942
   30CHL1    C3 3327   5.680   1.717   5.945 -0.3424  0.1623 -0.3763
   30CHL1    H3 3328   5.580   1.765   5.938 -1.5650 -2.1361  0.5216
   30CHL1    O3 3329   5.695   1.673   6.078  0.1363  0.2699 -0.0202
   30CHL1   H3' 3330   5.641   1.593   6.082  2.3875 -1.3001  0.6959
   30CHL1    C4 3331   5.679   1.589   5.854  1.0160 -0.1705  0.3056
   30CHL1   H4A 3332   5.775   1.533   5.859  0.6208 -0.8668  0.2718
   30CHL1   H4B 3333   5.593   1.526   5.888 -0.2972  1.1284 -0.5173
   30CHL1    C5 3334   5.670   1.628   5.710  0.4730  0.0106 -0.0792
   30CHL1    C6 3335   5.568   1.574   5.632 -0.6412  0.1697 -0.2299
   30CHL1    H6 3336   5.507   1.491   5.671  0.4832  0.0205  1.2943
   30CHL1    C7 3337   5.549   1.610   5.486  0.0571  0.1958  0.6853
   30CHL1   H7A 3338   5.542   1.526   5.413 -2.0679  2.5386 -2.0452
   30CHL1   H7B 3339   5.460   1.676   5.476 -0.5170 -0.3368  2.0450
   30CHL1    C8 3340   5.666   1.698   5.430  1.0395  0.4906  0.4640
   30CHL1    H8 3341   5.746   1.622   5.418 -0.1251 -0.6338 -0.4807
   30CHL1   C14 3342   5.638   1.748   5.289 -0.1481 -0.0502 -0.6793
   30CHL1   H14 3343   5.546   1.809   5.297 -0.1721 -0.1558 -0.1568
   30CHL1   C15 3344   5.590   1.650   5.178 -0.2223  0.4125  0.8404
   30CHL1  H15A 3345   5.656   1.561   5.174 -1.2199 -0.3071 -1.0119
   30CHL1  H15B 3346   5.485   1.620   5.201 -0.7653  0.1618 -1.6765
   30CHL1   C16 3347   5.613   1.727   5.047  0.4739 -0.2591 -0.1812
   30CHL1  H16A 3348   5.671   1.658   4.982  1.0151  1.9015 -2.1316
   30CHL1  H16B 3349   5.513   1.729   4.999 -1.4038 -0.8578  3.3467
   30CHL1   C17 3350   5.676   1.860   5.090 -0.1129 -0.2788 -0.2635
   30CHL1   H17 3351   5.594   1.920   5.134  0.7358 -0.5958  1.8987
   30CHL1   C13 3352   5.745   1.838   5.230  0.2587 -0.1786  0.2731
   30CHL1   C18 3353   5.877   1.759   5.210  0.4808 -0.0459  0.6757
   30CHL1  H18A 3354   5.952   1.809   5.145  1.4266 -0.6728  1.2572
   30CHL1  H18B 3355   5.927   1.736   5.306  0.7541 -0.7442  0.3724
   30CHL1  H18C 3356   5.843   1.667   5.158 -1.3028  1.1098 -0.2958
   30CHL1   C12 3357   5.761   1.961   5.316  0.0197 -0.1632 -0.2673
   30CHL1  H12A 3358   5.851   2.013   5.277  1.5392 -1.7088  1.0235
   30CHL1  H12B 3359   5.677   2.033   5.312  0.7372  0.7084 -0.0985
   30CHL1   C11 3360   5.794   1.923   5.462 -0.3069  0.3390  0.0376
   30CHL1  H11A 3361   5.902   1.896   5.463 -0.4705 -0.3727 -0.6562
   30CHL1  H11B 3362   5.799   2.013   5.528  2.3088 -1.2478  2.1812
   30CHL1    C9 3363   5.709   1.809   5.524  0.3545  0.4288  0.6182
   30CHL1    H9 3364   5.615   1.866   5.541  0.3289  0.9206 -0.9770
   30CHL1   C10 3365   5.752   1.754   5.662  0.2110 -0.1931 -0.3775
   30CHL1   C19 3366   5.895   1.685   5.644  1.1133 -0.4913  0.0067
   30CHL1  H19A 3367   5.891   1.601   5.571 -0.0393 -0.8809  0.5103
   30CHL1  H19B 3368   5.963   1.759   5.596 -1.2000 -0.5021 -3.6851
   30CHL1  H19C 3369   5.931   1.639   5.738  0.4958 -1.3476 -0.1697
   30CHL1    C1 3370   5.773   1.868   5.766  0.5521 -0.6015  0.2414
   30CHL1   H1A 3371   5.855   1.934   5.732  0.9551 -1.4625 -0.5189
   30CHL1   H1B 3372   5.683   1.933   5.770  0.0409 -1.1645 -1.2473
   30CHL1    C2 3373   5.795   1.814   5.912  0.5779  0.7039  0.4586
   30CHL1   H2A 3374   5.816   1.895   5.984  3.0007  0.2282  0.3478
   30CHL1   H2B 3375   5.883   1.747   5.921  0.7459  1.0667  1.5420
   30CHL1   C20 3376   5.731   1.949   4.981  0.0354  0.6908 -0.3789
   30CHL1   H20 3377   5.795   2.021   5.037  1.0728 -0.2087 -0.3681
   30CHL1   C21 3378   5.604   2.018   4.921  0.0819  0.2371  0.1055
   30CHL1  H21A 3379   5.628   2.069   4.826 -0.5752  0.7624  0.2105
   30CHL1  H21B 3380   5.562   2.093   4.992 -2.2482 -1.4742  0.6866
   30CHL1  H21C 3381   5.518   1.948   4.911 -2.0774  2.1550  3.2850
   30CHL1   C22 3382   5.818   1.878   4.879 -0.0136  0.2718  0.1618
   30CHL1  H22A 3383   5.887   1.804   4.926  1.0895  0.5723 -0.9304
   30CHL1  H22B 3384   5.737   1.839   4.813  1.0039  1.1730 -1.7000
   30CHL1   C23 3385   5.909   1.974   4.804  0.4161 -0.3687 -0.1357
   30CHL1  H23A 3386   5.851   2.058   4.760  1.5421 -0.1302 -1.2251
   30CHL1  H23B 3387   5.982   2.006   4.881 -0.6884 -0.8468  1.1589
   30CHL1   C24 3388   5.996   1.928   4.686  0.2053  0.1622  0.5002
   30CHL1  H24A 3389   6.062   2.017   4.671  0.7449 -0.2237  0.5665
   30CHL1  H24B 3390   6.053   1.836   4.711  0.5155  0.0530 -0.5407
   30CHL1   C25 3391   5.916   1.889   4.560  0.0244  0.8849  0.4063
   30CHL1   H25 3392   5.839   1.814   4.586 -0.7149  2.1370  2.0192
   30CHL1   C26 3393   5.838   1.999   4.495 -0.1506  0.0045 -0.2471
   30CHL1  H26A 3394   5.770   2.044   4.571  0.0404 -0.4825  0.2105
   30CHL1  H26B 3395   5.896   2.089   4.463 -1.0900  1.3599  1.6433
   30CHL1  H26C 3396   5.782   1.958   4.408  1.6871 -0.7411 -1.1303
   30CHL1   C27 3397   6.003   1.810   4.461 -0.2909  0.6362  0.4303
   30CHL1  H27A 3398   6.063   1.739   4.521 -0.9683  0.9532  1.5203
   30CHL1  H27B 3399   5.947   1.752   4.385  0.8364  0.8774 -0.6150
   30CHL1  H27C 3400   6.079   1.878   4.417  1.6527 -0.5056  1.8913
   31CHL1    C3 3401   5.136   1.464   6.127  0.1902  0.3893  1.1062
   31CHL1    H3 3402   5.117   1.566   6.088  0.4007 -0.6109 -1.8735
   31CHL1    O3 3403   5.107   1.464   6.270 -0.5033 -0.1616  0.1749
   31CHL1   H3' 3404   5.063   1.547   6.287  0.4578  0.9249 -2.2357
   31CHL1    C4 3405   5.026   1.375   6.069  0.0488  0.2288 -0.0513
   31CHL1   H4A 3406   5.041   1.284   6.132 -1.0773 -1.1802 -1.7087
   31CHL1   H4B 3407   4.920   1.396   6.095 -0.2006 -2.1369  1.1621
   31CHL1    C5 3408   5.040   1.357   5.917  0.4701 -0.4416 -0.4792
   31CHL1    C6 3409   4.936   1.375   5.835 -0.0166 -0.1593  0.5694
   31CHL1    H6 3410   4.832   1.396   5.865  0.6755  2.2497  1.5220
   31CHL1    C7 3411   4.947   1.355   5.687  0.5776  0.1302 -0.1597
   31CHL1   H7A 3412   4.863   1.292   5.651  0.0011 -1.3450  3.4088
   31CHL1   H7B 3413   4.942   1.454   5.636  0.0262  0.1793 -0.0185
   31CHL1    C8 3414   5.076   1.303   5.631  0.4552  0.9814  0.0947
   31CHL1    H8 3415   5.048   1.196   5.644 -0.3553  1.0701 -0.7932
   31CHL1   C14 3416   5.105   1.333   5.483  0.3756 -0.2474  1.0332
   31CHL1   H14 3417   5.139   1.438   5.493  1.9965 -0.8211  1.8793
   31CHL1   C15 3418   4.994   1.348   5.377  0.3262  0.4108  0.4699
   31CHL1  H15A 3419   4.928   1.258   5.376  1.4024 -0.4366 -1.9596
   31CHL1  H15B 3420   4.932   1.440   5.379 -1.4957 -0.5886 -2.5653
   31CHL1   C16 3421   5.070   1.337   5.241  0.3465  0.3605 -0.0349
   31CHL1  H16A 3422   5.041   1.244   5.189  1.1059  0.5913 -0.8959
   31CHL1  H16B 3423   5.066   1.428   5.177  1.2434  0.3358 -0.1423
   31CHL1   C17 3424   5.219   1.311   5.272  0.3519 -0.0261  1.2644
   31CHL1   H17 3425   5.272   1.409   5.276  0.8116 -0.0335 -1.8945
   31CHL1   C13 3426   5.221   1.258   5.427 -0.0548 -0.0238  0.0090
   31CHL1   C18 3427   5.188   1.108   5.428 -0.6145 -0.0102  0.2504
   31CHL1  H18A 3428   5.273   1.056   5.380 -0.0190  1.3021 -0.1765
   31CHL1  H18B 3429   5.179   1.062   5.529  0.1483 -1.2938 -0.2421
   31CHL1  H18C 3430   5.110   1.070   5.359  1.3416 -0.3210 -1.9072
   31CHL1   C12 3431   5.352   1.281   5.506 -0.2433  0.2131  0.0629
   31CHL1  H12A 3432   5.435   1.214   5.473 -1.0771 -1.9288  2.0417
   31CHL1  H12B 3433   5.384   1.386   5.489  1.2470 -0.3110 -0.6435
   31CHL1   C11 3434   5.330   1.261   5.655  0.1451  0.0318 -1.0611
   31CHL1  H11A 3435   5.321   1.152   5.673 -1.8698  0.4092  0.5598
   31CHL1  H11B 3436   5.420   1.294   5.712 -2.0598  2.3844  1.3923
   31CHL1    C9 3437   5.196   1.338   5.713 -1.1116 -0.2951  1.0868
   31CHL1    H9 3438   5.224   1.444   5.692  0.5663 -0.6190  1.5740
   31CHL1   C10 3439   5.185   1.327   5.866  0.1237 -0.0889  0.1483
   31CHL1   C19 3440   5.203   1.180   5.909 -0.0927  0.1658 -0.5049
   31CHL1  H19A 3441   5.140   1.114   5.845  0.2470  0.1627 -0.8435
   31CHL1  H19B 3442   5.310   1.149   5.906 -0.3992 -1.2910  1.5835
   31CHL1  H19C 3443   5.164   1.150   6.009 -0.4917  2.2099  0.0043
   31CHL1    C1 3444   5.289   1.420   5.940 -0.6860 -0.5341 -0.1427
   31CHL1   H1A 3445   5.391   1.390   5.907 -0.3034  2.3575 -1.9445
   31CHL1   H1B 3446   5.282   1.525   5.904  0.9602 -0.5174 -0.5189
   31CHL1    C2 3447   5.281   1.421   6.094 -0.0518  0.1245  0.7276
   31CHL1   H2A 3448   5.355   1.494   6.135  1.0651 -0.1236 -0.7554
   31CHL1   H2B 3449   5.298   1.318   6.131 -0.1101  0.2694  1.1616
   31CHL1   C20 3450   5.306   1.238   5.161  0.5002 -0.3937 -0.3610
   31CHL1   H20 3451   5.286   1.129   5.152 -0.8965 -0.0661 -1.5680
   31CHL1   C21 3452   5.454   1.274   5.205  0.4673 -0.5176 -0.7595
   31CHL1  H21A 3453   5.520   1.265   5.117  0.0142  0.9859 -1.2943
   31CHL1  H21B 3454   5.486   1.203   5.284  1.4636  1.8052  1.0689
   31CHL1  H21C 3455   5.467   1.380   5.237 -0.7362 -0.1777 -1.3349
   31CHL1   C22 3456   5.276   1.283   5.019 -0.0264 -0.4606  1.0565
   31CHL1  H22A 3457   5.344   1.222   4.956 -0.2847  1.5134 -1.2805
   31CHL1  H22B 3458   5.174   1.250   4.991  0.3670  0.5207 -1.8096
   31CHL1   C23 3459   5.304   1.431   4.984 -0.6668 -0.0929 -0.0569
   31CHL1  H23A 3460   5.229   1.491   5.039  1.2139  1.9486  0.4711
   31CHL1  H23B 3461   5.402   1.470   5.020 -0.3522 -1.6976  0.9003
   31CHL1   C24 3462   5.283   1.458   4.831 -0.3855 -0.1520  0.5180
   31CHL1  H24A 3463   5.180   1.428   4.804  0.2032 -2.3558  0.5558
   31CHL1  H24B 3464   5.301   1.564   4.800 -0.2721 -0.5022 -0.6648
   31CHL1   C25 3465   5.379   1.386   4.732  0.0060 -0.8199 -0.0279
   31CHL1   H25 3466   5.366   1.277   4.750  0.3704 -1.3588 -2.6876
   31CHL1   C26 3467   5.339   1.436   4.594  0.5073  0.6508 -0.3211
   31CHL1  H26A 3468   5.344   1.547   4.598  1.1967  0.6146 -0.0775
   31CHL1  H26B 3469   5.409   1.402   4.515  0.7350  1.3166 -0.4138
   31CHL1  H26C 3470   5.235   1.402   4.573  0.8961 -0.5612 -0.3243
   31CHL1   C27 3471   5.533   1.409   4.755  0.2840 -0.1156 -0.4424
   31CHL1  H27A 3472   5.558   1.361   4.852  0.1778  0.5860 -0.0614
   31CHL1  H27B 3473   5.584   1.347   4.678 -1.7870 -2.7389  0.1420
   31CHL1  H27C 3474   5.557   1.517   4.755  0.5418 -0.1708 -0.4220
   32CHL1    C3 3475   6.492   0.226   6.121 -0.4797 -0.2903 -0.0506
   32CHL1    H3 3476   6.494   0.122   6.162 -2.2698  0.0714  1.0462
   32CHL1    O3 3477   6.504   0.309   6.234  0.5358  0.3306  0.4690
   32CHL1   H3' 3478   6.548   0.386   6.197  0.7048  0.0582  0.0966
   32CHL1    C4 3479   6.597   0.269   6.019 -0.4900  0.1052  0.1704
   32CHL1   H4A 3480   6.597   0.379   6.011  1.8193  0.2134  0.9653
   32CHL1   H4B 3481   6.691   0.240   6.072  1.4231  1.2642 -2.3754
   32CHL1    C5 3482   6.590   0.205   5.881  0.6384 -0.0447  0.1000
   32CHL1    C6 3483   6.687   0.133   5.825  0.6587 -0.0349 -0.6202
   32CHL1    H6 3484   6.783   0.113   5.874  0.5085 -1.8876 -1.0021
   32CHL1    C7 3485   6.667   0.083   5.691 -0.6527  0.3150 -0.1138
   32CHL1   H7A 3486   6.756   0.119   5.635 -1.1575  1.5475 -0.1402
   32CHL1   H7B 3487   6.668  -0.028   5.704 -3.8383  0.1534 -0.6377
   32CHL1    C8 3488   6.541   0.127   5.607 -0.3959 -0.1483 -0.1399
   32CHL1    H8 3489   6.568   0.230   5.573  2.8343 -0.8854 -0.1197
   32CHL1   C14 3490   6.519   0.036   5.490  0.0832  1.0051  0.7480
   32CHL1   H14 3491   6.485  -0.065   5.523 -0.0983  0.6414 -0.4877
   32CHL1   C15 3492   6.637   0.013   5.396 -0.8992 -0.6218  0.5740
   32CHL1  H15A 3493   6.692   0.106   5.368 -0.4242 -0.9362  0.4473
   32CHL1  H15B 3494   6.715  -0.054   5.438  0.7974  1.9419  1.7705
   32CHL1   C16 3495   6.569  -0.048   5.268 -0.1347  0.1713 -0.1174
   32CHL1  H16A 3496   6.607   0.011   5.182  1.2455  0.8368  0.9061
   32CHL1  H16B 3497   6.597  -0.153   5.249 -0.5357  0.1437 -0.5636
   32CHL1   C17 3498   6.415  -0.024   5.283  0.0500 -0.3936 -0.6005
   32CHL1   H17 3499   6.374  -0.117   5.327  1.2654 -0.7656 -0.2011
   32CHL1   C13 3500   6.403   0.079   5.399  0.4342 -0.9906  0.3399
   32CHL1   C18 3501   6.426   0.216   5.334 -0.7014 -0.9839  0.1836
   32CHL1  H18A 3502   6.428   0.301   5.405 -0.2162  0.1604 -1.1516
   32CHL1  H18B 3503   6.522   0.217   5.277  0.8569  1.5262  2.5980
   32CHL1  H18C 3504   6.340   0.242   5.270 -0.3843 -0.2046  0.0613
   32CHL1   C12 3505   6.273   0.075   5.486  0.2704  0.3560  0.2866
   32CHL1  H12A 3506   6.195   0.108   5.414  1.0992 -0.3358 -0.9516
   32CHL1  H12B 3507   6.248  -0.030   5.513 -1.8838  0.6762 -0.2269
   32CHL1   C11 3508   6.283   0.163   5.614 -0.5817 -0.1198  0.4365
   32CHL1  H11A 3509   6.274   0.271   5.588 -0.9626 -0.1538  0.4305
   32CHL1  H11B 3510   6.192   0.152   5.676 -1.8148  1.2316 -1.0477
   32CHL1    C9 3511   6.415   0.126   5.695 -1.1765  0.0025  0.2940
   32CHL1    H9 3512   6.410   0.019   5.726 -0.5363 -0.1115  0.0215
   32CHL1   C10 3513   6.446   0.220   5.815  0.6396 -0.1856  0.0626
   32CHL1   C19 3514   6.421   0.367   5.776  0.0573 -1.1062 -0.2560
   32CHL1  H19A 3515   6.314   0.387   5.751 -0.7985 -1.4583  2.7201
   32CHL1  H19B 3516   6.432   0.442   5.857  0.2079 -0.5288 -0.8084
   32CHL1  H19C 3517   6.486   0.398   5.692 -0.1866  0.9933  0.2878
   32CHL1    C1 3518   6.340   0.177   5.920 -0.9112  0.0893  0.4421
   32CHL1   H1A 3519   6.237   0.192   5.882 -0.9035 -2.3809 -0.7966
   32CHL1   H1B 3520   6.344   0.067   5.939  1.4318  0.2361  1.1889
   32CHL1    C2 3521   6.351   0.256   6.053  0.2009  0.4576 -0.2212
   32CHL1   H2A 3522   6.281   0.229   6.135 -0.2385  1.3641 -0.2916
   32CHL1   H2B 3523   6.343   0.366   6.040 -3.8179  0.1163 -2.1649
   32CHL1   C20 3524   6.357  -0.011   5.145 -0.4789 -0.2057  0.4392
   32CHL1   H20 3525   6.407   0.064   5.081  1.6188 -0.8126  1.3042
   32CHL1   C21 3526   6.206   0.030   5.149  0.0932 -0.2188 -0.6246
   32CHL1  H21A 3527   6.197   0.138   5.174  1.5574 -0.7620  2.9934
   32CHL1  H21B 3528   6.151  -0.039   5.216 -1.3693 -0.4567 -2.0214
   32CHL1  H21C 3529   6.158   0.023   5.050 -0.1947 -0.1577 -0.4912
   32CHL1   C22 3530   6.370  -0.149   5.083 -0.5378  0.0631  0.3904
   32CHL1  H22A 3531   6.477  -0.174   5.065 -0.1821  2.7182 -1.8601
   32CHL1  H22B 3532   6.325  -0.232   5.141  0.1067  1.3225  2.8362
   32CHL1   C23 3533   6.314  -0.154   4.938  0.4796  0.5429 -0.5514
   32CHL1  H23A 3534   6.203  -0.164   4.945  0.5495  0.0681 -0.0553
   32CHL1  H23B 3535   6.319  -0.051   4.896 -1.4074  0.1599 -1.8698
   32CHL1   C24 3536   6.394  -0.245   4.845 -0.2884  0.4411 -0.0985
   32CHL1  H24A 3537   6.504  -0.230   4.855 -0.3504  1.6539 -1.1340
   32CHL1  H24B 3538   6.369  -0.351   4.870  0.0024 -0.3348 -2.8570
   32CHL1   C25 3539   6.361  -0.229   4.693 -0.5546  0.2069  0.2048
   32CHL1   H25 3540   6.384  -0.123   4.668  0.9734 -0.8457 -3.4902
   32CHL1   C26 3541   6.449  -0.324   4.615 -0.3139  0.2395  0.6168
   32CHL1  H26A 3542   6.466  -0.418   4.671  0.8820 -0.2525 -0.5444
   32CHL1  H26B 3543   6.402  -0.337   4.515  1.2659 -0.6456 -0.0509
   32CHL1  H26C 3544   6.551  -0.281   4.606 -0.8016  1.9322  2.3188
   32CHL1   C27 3545   6.207  -0.264   4.662 -0.5239  0.0686 -0.1815
   32CHL1  H27A 3546   6.166  -0.354   4.711 -0.3677 -1.7811 -3.2171
   32CHL1  H27B 3547   6.153  -0.170   4.687  1.3511  0.9257  0.8515
   32CHL1  H27C 3548   6.183  -0.269   4.554 -1.1049  2.9631 -0.2761
   33CHL1    C3 3549   1.785   0.489   6.225 -0.0525  0.4699  0.7399
   33CHL1    H3 3550   1.714   0.570   6.197  0.7189  1.0619  0.4671
   33CHL1    O3 3551   1.767   0.467   6.362 -0.3173  0.1375 -0.1217
   33CHL1   H3' 3552   1.809   0.384   6.384  0.4586  1.0733  2.3868
   33CHL1    C4 3553   1.778   0.351   6.152  0.1134  0.3828 -0.2985
   33CHL1   H4A 3554   1.823   0.268   6.210 -1.6979 -1.0906 -0.8744
   33CHL1   H4B 3555   1.669   0.327   6.155 -0.5169  2.9078  2.4944
   33CHL1    C5 3556   1.828   0.357   6.008  0.1565  0.3144  0.5078
   33CHL1    C6 3557   1.740   0.312   5.918  0.4977 -0.8104 -0.1914
   33CHL1    H6 3558   1.634   0.302   5.946  0.7444  0.5123  1.4091
   33CHL1    C7 3559   1.761   0.317   5.766 -0.0017  0.5548  0.7090
   33CHL1   H7A 3560   1.721   0.220   5.731 -0.2643  1.0206 -0.3097
   33CHL1   H7B 3561   1.711   0.409   5.728 -0.8630 -0.4609 -0.7012
   33CHL1    C8 3562   1.914   0.340   5.739 -0.3485  0.6551  1.0859
   33CHL1    H8 3563   1.963   0.240   5.743 -0.4328  0.4886 -0.8727
   33CHL1   C14 3564   1.928   0.383   5.594 -0.4379  0.5262  0.5903
   33CHL1   H14 3565   1.882   0.484   5.599 -3.1663 -0.6454  0.9074
   33CHL1   C15 3566   1.852   0.311   5.487  0.0013  0.1926  0.3849
   33CHL1  H15A 3567   1.844   0.201   5.504 -1.6443  0.2673  0.2514
   33CHL1  H15B 3568   1.747   0.347   5.486  0.2391  0.8918 -0.3850
   33CHL1   C16 3569   1.929   0.343   5.363  0.2152 -0.0742  0.3540
   33CHL1  H16A 3570   1.967   0.251   5.316  4.4883  1.0676  1.1588
   33CHL1  H16B 3571   1.861   0.395   5.292 -1.2029 -1.1512  0.8883
   33CHL1   C17 3572   2.054   0.426   5.398  0.2625 -0.1542 -0.1114
   33CHL1   H17 3573   2.026   0.534   5.396  1.2138  0.0962 -1.1079
   33CHL1   C13 3574   2.078   0.387   5.545 -0.2539 -0.4405  0.5036
   33CHL1   C18 3575   2.147   0.249   5.548  0.9280  0.2157 -0.2085
   33CHL1  H18A 3576   2.177   0.218   5.650 -2.5600 -0.1269  0.8619
   33CHL1  H18B 3577   2.066   0.175   5.527  0.3563  0.5731  0.7005
   33CHL1  H18C 3578   2.231   0.247   5.475 -0.3769  0.4539 -1.7636
   33CHL1   C12 3579   2.154   0.483   5.640  0.2121  0.7149  0.2121
   33CHL1  H12A 3580   2.262   0.491   5.613 -0.0692  0.1571 -1.1670
   33CHL1  H12B 3581   2.113   0.585   5.629  1.2984  1.3183  1.4565
   33CHL1   C11 3582   2.136   0.447   5.789 -0.1578 -0.7510 -0.0398
   33CHL1  H11A 3583   2.198   0.357   5.808  1.1577  0.4073  1.3289
   33CHL1  H11B 3584   2.181   0.529   5.849 -0.3446 -0.5507 -0.1721
   33CHL1    C9 3585   1.991   0.437   5.833 -0.4288 -0.6787 -0.6337
   33CHL1    H9 3586   1.944   0.535   5.813  0.3774 -0.1842 -0.1693
   33CHL1   C10 3587   1.971   0.409   5.984 -0.0397 -0.1278  0.5033
   33CHL1   C19 3588   2.087   0.319   6.025 -0.4397  0.0496 -0.9252
   33CHL1  H19A 3589   2.183   0.375   6.020 -0.7868  0.7740  0.1989
   33CHL1  H19B 3590   2.080   0.282   6.130 -1.2486 -1.2221 -1.4070
   33CHL1  H19C 3591   2.103   0.230   5.960  1.7347 -1.0599  0.9652
   33CHL1    C1 3592   1.968   0.548   6.054  0.1710 -0.0077 -0.2116
   33CHL1   H1A 3593   2.068   0.596   6.046 -0.0959  0.4579 -0.8986
   33CHL1   H1B 3594   1.894   0.625   6.023  1.2890  0.7536 -1.0905
   33CHL1    C2 3595   1.928   0.539   6.204  0.2653 -0.3519  0.0148
   33CHL1   H2A 3596   1.930   0.632   6.264  0.9150 -0.6138  0.4141
   33CHL1   H2B 3597   1.996   0.469   6.257  1.4780  0.8933  0.1473
   33CHL1   C20 3598   2.158   0.415   5.284 -0.0356 -0.5326 -0.5472
   33CHL1   H20 3599   2.200   0.312   5.281  0.3576 -0.3548 -2.3629
   33CHL1   C21 3600   2.270   0.515   5.307 -0.2921 -0.6940  0.2765
   33CHL1  H21A 3601   2.316   0.498   5.407  0.5045  1.5517  0.3619
   33CHL1  H21B 3602   2.239   0.622   5.304 -0.4701 -0.7627 -0.4091
   33CHL1  H21C 3603   2.357   0.513   5.238  0.9592 -1.0018  1.7976
   33CHL1   C22 3604   2.089   0.440   5.147 -0.5845 -0.2334  0.0124
   33CHL1  H22A 3605   2.020   0.357   5.120  2.3110 -2.4501 -1.0218
   33CHL1  H22B 3606   2.038   0.539   5.150  0.4745  0.3140  0.7670
   33CHL1   C23 3607   2.186   0.458   5.024  0.1525  0.2313  0.0862
   33CHL1  H23A 3608   2.262   0.538   5.037 -0.4425  0.7470  0.4502
   33CHL1  H23B 3609   2.238   0.362   5.003 -1.3157 -0.4456 -0.5875
   33CHL1   C24 3610   2.110   0.492   4.898  0.0646  0.2472  0.1969
   33CHL1  H24A 3611   2.046   0.580   4.922 -1.7971 -0.8598 -0.5467
   33CHL1  H24B 3612   2.188   0.528   4.828 -0.3045  1.7712  0.5216
   33CHL1   C25 3613   2.020   0.384   4.839  0.5428  0.0121  0.4955
   33CHL1   H25 3614   1.936   0.365   4.909 -0.1623  3.0064  0.6149
   33CHL1   C26 3615   1.942   0.439   4.720  0.0402 -0.5967  0.5677
   33CHL1  H26A 3616   2.014   0.439   4.635 -1.8983  2.0345 -1.2301
   33CHL1  H26B 3617   1.863   0.368   4.690  1.3544 -1.1743 -1.7835
   33CHL1  H26C 3618   1.902   0.541   4.739  0.3784 -0.3935  0.2067
   33CHL1   C27 3619   2.102   0.263   4.798  0.4916 -0.5409 -0.1471
   33CHL1  H27A 3620   2.198   0.277   4.744  1.0729 -0.1747  0.9316
   33CHL1  H27B 3621   2.131   0.219   4.896  1.5065 -1.0720 -0.6669
   33CHL1  H27C 3622   2.035   0.193   4.744 -3.0907  2.6035 -0.1554
   34CHL1    C3 3623   4.698   2.635   5.743  0.2005  1.0884  0.1430
   34CHL1    H3 3624   4.724   2.528   5.758 -1.2953  0.8534  1.2634
   34CHL1    O3 3625   4.721   2.697   5.872  0.5586  0.0469 -0.0473
   34CHL1   H3' 3626   4.635   2.676   5.910  0.2341 -0.1444 -0.8572
   34CHL1    C4 3627   4.780   2.700   5.637  0.1200 -0.6664 -0.2144
   34CHL1   H4A 3628   4.754   2.807   5.645  0.9790 -0.4105 -0.7846
   34CHL1   H4B 3629   4.887   2.685   5.665 -0.4982 -1.1628  2.1630
   34CHL1    C5 3630   4.758   2.645   5.499  0.1472  0.0794 -0.3859
   34CHL1    C6 3631   4.845   2.580   5.427  0.5412 -0.2371 -0.3878
   34CHL1    H6 3632   4.944   2.564   5.473  0.2629  2.9275  1.5757
   34CHL1    C7 3633   4.824   2.539   5.286 -0.5329  1.0430 -0.4341
   34CHL1   H7A 3634   4.906   2.563   5.215 -0.8374  0.6073 -0.9376
   34CHL1   H7B 3635   4.813   2.428   5.284 -1.3944  1.1284 -0.7755
   34CHL1    C8 3636   4.696   2.601   5.226  0.1240  0.4043  0.0728
   34CHL1    H8 3637   4.722   2.708   5.212  0.5295  0.1558 -1.1640
   34CHL1   C14 3638   4.660   2.534   5.091  0.2263  0.8405  0.0507
   34CHL1   H14 3639   4.624   2.434   5.123  0.6880  0.0479 -1.7863
   34CHL1   C15 3640   4.773   2.507   4.986  0.2660  0.3560 -0.6093
   34CHL1  H15A 3641   4.824   2.603   4.964 -1.7122  1.3478 -1.1420
   34CHL1  H15B 3642   4.846   2.427   5.012 -1.4749 -0.8774  0.8089
   34CHL1   C16 3643   4.698   2.467   4.854 -0.3248  0.1618 -0.7361
   34CHL1  H16A 3644   4.749   2.514   4.768  1.6487  1.6783  1.1584
   34CHL1  H16B 3645   4.701   2.356   4.841 -2.6911 -0.0095 -0.2775
   34CHL1   C17 3646   4.546   2.518   4.877 -0.1855 -0.4127 -0.3156
   34CHL1   H17 3647   4.494   2.424   4.905 -2.4059  1.2405  1.4803
   34CHL1   C13 3648   4.546   2.594   5.012  0.1358 -0.0076 -0.1941
   34CHL1   C18 3649   4.578   2.741   4.999  0.1030  0.0210  0.1295
   34CHL1  H18A 3650   4.669   2.757   4.937 -1.1884  2.8636 -1.2341
   34CHL1  H18B 3651   4.498   2.798   4.947 -0.5071  0.6718  1.7142
   34CHL1  H18C 3652   4.584   2.795   5.096  1.8483  0.7299 -0.3156
   34CHL1   C12 3653   4.423   2.577   5.100  0.4791 -0.2166 -0.1393
   34CHL1  H12A 3654   4.333   2.633   5.068  0.0101  0.4369  2.1247
   34CHL1  H12B 3655   4.400   2.468   5.095 -1.0333  0.1457 -2.4328
   34CHL1   C11 3656   4.447   2.633   5.247  0.4456  0.7568 -0.1756
   34CHL1  H11A 3657   4.437   2.743   5.258  0.9078  0.7671  0.1839
   34CHL1  H11B 3658   4.356   2.598   5.301 -0.5038  3.4583  0.1273
   34CHL1    C9 3659   4.580   2.596   5.320 -0.1910  1.0670 -0.7081
   34CHL1    H9 3660   4.568   2.488   5.341  1.2503  1.3063  1.6964
   34CHL1   C10 3661   4.613   2.669   5.457  0.1315  0.3587  0.1337
   34CHL1   C19 3662   4.595   2.823   5.444  0.4750  0.0347  0.1155
   34CHL1  H19A 3663   4.659   2.866   5.363 -0.3204 -1.5325 -1.4204
   34CHL1  H19B 3664   4.487   2.840   5.422  0.4789 -1.2165 -1.0361
   34CHL1  H19C 3665   4.622   2.876   5.538 -2.5862  2.0481  0.0016
   34CHL1    C1 3666   4.517   2.603   5.561  0.0828  0.3604  0.0503
   34CHL1   H1A 3667   4.412   2.634   5.537  0.4665  1.4266 -0.3180
   34CHL1   H1B 3668   4.514   2.492   5.562 -1.1429  0.3490  2.1173
   34CHL1    C2 3669   4.551   2.646   5.707 -0.6820 -0.5324 -0.2314
   34CHL1   H2A 3670   4.492   2.587   5.781  3.4125 -2.4079  1.8403
   34CHL1   H2B 3671   4.524   2.753   5.715  1.0149  0.0299 -1.4520
   34CHL1   C20 3672   4.477   2.574   4.756  0.8572 -0.3936  0.3830
   34CHL1   H20 3673   4.529   2.670   4.737  2.8287 -1.5639 -0.4601
   34CHL1   C21 3674   4.331   2.610   4.782  0.1924  0.4618  0.3453
   34CHL1  H21A 3675   4.274   2.634   4.690  1.7471  2.0832 -0.2525
   34CHL1  H21B 3676   4.332   2.707   4.836  1.4596  1.0830 -0.7241
   34CHL1  H21C 3677   4.276   2.530   4.836 -2.5127  1.4080 -0.8619
   34CHL1   C22 3678   4.491   2.488   4.625 -1.1146 -0.5434 -0.4826
   34CHL1  H22A 3679   4.595   2.451   4.616 -1.0170 -0.0384 -1.5182
   34CHL1  H22B 3680   4.416   2.409   4.651 -0.8683 -0.1604  1.5633
   34CHL1   C23 3681   4.451   2.554   4.492 -0.2194 -0.3974  0.0661
   34CHL1  H23A 3682   4.344   2.584   4.486 -0.1782 -0.2040  0.2901
   34CHL1  H23B 3683   4.505   2.650   4.478 -1.4362  0.3162  0.1014
   34CHL1   C24 3684   4.485   2.468   4.365  0.2234 -0.5707 -0.0049
   34CHL1  H24A 3685   4.592   2.436   4.367  0.0873 -1.0025  1.6106
   34CHL1  H24B 3686   4.430   2.372   4.368  0.2532 -0.5967 -0.2424
   34CHL1   C25 3687   4.452   2.527   4.226 -0.0503 -0.0263  1.0226
   34CHL1   H25 3688   4.363   2.593   4.229  0.7739  1.1440  0.4680
   34CHL1   C26 3689   4.562   2.615   4.160 -0.3500 -0.0995 -0.9219
   34CHL1  H26A 3690   4.647   2.549   4.134  0.7532  1.3922 -1.2037
   34CHL1  H26B 3691   4.529   2.665   4.066  1.6822 -0.9942 -2.1693
   34CHL1  H26C 3692   4.600   2.684   4.238 -0.1585  0.8122 -1.7952
   34CHL1   C27 3693   4.421   2.402   4.132  0.6481  0.0252 -0.2674
   34CHL1  H27A 3694   4.512   2.352   4.095  0.7782  1.4310 -1.9440
   34CHL1  H27B 3695   4.360   2.335   4.196  0.1021  1.7905  1.1634
   34CHL1  H27C 3696   4.371   2.433   4.038 -0.1698 -0.4032  0.0145
   35CHL1    C3 3697   0.407   4.418   5.821 -0.1506  0.7125  0.1970
   35CHL1    H3 3698   0.508   4.458   5.801  1.2036 -2.5583 -0.1725
   35CHL1    O3 3699   0.410   4.358   5.950 -0.4574  0.5508  0.1122
   35CHL1   H3' 3700   0.448   4.272   5.932 -0.2825  0.4724  0.7996
   35CHL1    C4 3701   0.305   4.533   5.808 -0.1834  0.6080 -0.1592
   35CHL1   H4A 3702   0.216   4.484   5.852 -0.2980  0.7860 -0.1921
   35CHL1   H4B 3703   0.338   4.608   5.882 -0.8789 -1.1721  2.0780
   35CHL1    C5 3704   0.290   4.591   5.665 -0.1022  0.1941 -0.8328
   35CHL1    C6 3705   0.308   4.717   5.636  0.3986  0.3247  0.1896
   35CHL1    H6 3706   0.326   4.787   5.718 -1.9106 -2.4175  3.2706
   35CHL1    C7 3707   0.288   4.773   5.495 -0.3383  0.0857 -0.8461
   35CHL1   H7A 3708   0.235   4.871   5.497  0.3019  0.4563 -1.5579
   35CHL1   H7B 3709   0.385   4.797   5.446 -0.8863  0.6777 -1.6567
   35CHL1    C8 3710   0.214   4.680   5.399 -0.1898  0.0470  0.7107
   35CHL1    H8 3711   0.111   4.664   5.437  0.0790 -0.4545  1.2380
   35CHL1   C14 3712   0.216   4.731   5.255  0.2359 -0.1740 -0.3214
   35CHL1   H14 3713   0.326   4.740   5.245  0.6717 -3.4164  0.3393
   35CHL1   C15 3714   0.158   4.871   5.231 -0.0637  0.3154 -0.1099
   35CHL1  H15A 3715   0.047   4.874   5.245 -0.1228  1.6227 -0.7017
   35CHL1  H15B 3716   0.212   4.957   5.276 -2.1985  1.4962  0.3717
   35CHL1   C16 3717   0.180   4.883   5.082 -0.4457  0.3421 -0.2456
   35CHL1  H16A 3718   0.094   4.939   5.040 -1.7317 -0.5985  1.0596
   35CHL1  H16B 3719   0.269   4.948   5.068 -0.9467  0.7761 -1.5047
   35CHL1   C17 3720   0.187   4.729   5.034  0.5221  0.9429 -0.2855
   35CHL1   H17 3721   0.294   4.705   5.014 -0.3515 -3.9370 -0.4537
   35CHL1   C13 3722   0.160   4.636   5.153  0.1856 -0.3533  0.0399
   35CHL1   C18 3723   0.007   4.619   5.160  0.9756 -0.1248 -0.2559
   35CHL1  H18A 3724  -0.033   4.591   5.260 -0.2123  2.6943  0.1625
   35CHL1  H18B 3725  -0.057   4.708   5.137  1.3437  1.0995  2.9117
   35CHL1  H18C 3726  -0.031   4.549   5.083 -0.5867  1.5098 -1.0601
   35CHL1   C12 3727   0.238   4.501   5.161  0.4345 -0.3913  0.2661
   35CHL1  H12A 3728   0.201   4.429   5.085  0.3265  2.6907 -2.8735
   35CHL1  H12B 3729   0.345   4.508   5.132 -0.1253 -0.0504 -1.9345
   35CHL1   C11 3730   0.228   4.440   5.301 -0.4791 -0.3042  0.1306
   35CHL1  H11A 3731   0.121   4.417   5.321 -0.1066 -2.5344 -0.1738
   35CHL1  H11B 3732   0.293   4.350   5.298  0.0443  0.0682  0.2476
   35CHL1    C9 3733   0.273   4.536   5.415 -0.2125  0.2784  0.2169
   35CHL1    H9 3734   0.380   4.547   5.390 -0.4224 -1.2337 -1.5562
   35CHL1   C10 3735   0.270   4.481   5.559  0.6073 -0.4193  0.0776
   35CHL1   C19 3736   0.135   4.418   5.586 -0.4347  1.0977 -0.4629
   35CHL1  H19A 3737   0.051   4.489   5.569 -0.7851  1.3092  1.8228
   35CHL1  H19B 3738   0.123   4.327   5.523  1.3591  1.3707 -1.2534
   35CHL1  H19C 3739   0.123   4.382   5.691 -0.3044  0.1224 -0.7744
   35CHL1    C1 3740   0.377   4.375   5.574  0.0499  0.0243 -0.2592
   35CHL1   H1A 3741   0.350   4.304   5.493  1.8517  1.5793 -2.3479
   35CHL1   H1B 3742   0.474   4.422   5.547 -0.5241  0.8759 -0.8981
   35CHL1    C2 3743   0.386   4.310   5.714 -0.7970  0.2411  0.6133
   35CHL1   H2A 3744   0.479   4.251   5.698 -0.3667  0.7387  1.2295
   35CHL1   H2B 3745   0.300   4.241   5.723  0.4574 -1.7549 -1.6029
   35CHL1   C20 3746   0.107   4.697   4.906  0.3956 -0.3045  0.3998
   35CHL1   H20 3747  -0.002   4.694   4.923  0.1901 -1.8595 -1.0226
   35CHL1   C21 3748   0.150   4.561   4.851  0.7587  0.6657  0.5514
   35CHL1  H21A 3749   0.260   4.549   4.856  0.5583 -3.3330 -0.7868
   35CHL1  H21B 3750   0.111   4.545   4.748  0.1968  1.2043  0.6766
   35CHL1  H21C 3751   0.110   4.476   4.911  0.9552 -0.8866 -1.4201
   35CHL1   C22 3752   0.130   4.807   4.793  0.0796  0.1372 -0.3779
   35CHL1  H22A 3753   0.089   4.759   4.702 -1.2514 -0.0730  0.3126
   35CHL1  H22B 3754   0.074   4.901   4.815 -0.0636  0.4086 -1.7806
   35CHL1   C23 3755   0.276   4.846   4.757 -0.6082  0.5560  0.5154
   35CHL1  H23A 3756   0.319   4.898   4.845 -1.0000  0.8459  0.5394
   35CHL1  H23B 3757   0.330   4.751   4.738 -2.2677  0.0314 -2.1602
   35CHL1   C24 3758   0.280   4.918   4.620  0.1420 -0.1401 -0.4197
   35CHL1  H24A 3759   0.245   4.848   4.541  0.8582 -2.1371  0.9605
   35CHL1  H24B 3760   0.218   5.010   4.622  0.7884  0.3054 -0.2767
   35CHL1   C25 3761   0.428   4.959   4.577  0.7718 -0.1506  0.1985
   35CHL1   H25 3762   0.491   4.875   4.613  1.4300  0.1662 -0.1743
   35CHL1   C26 3763   0.437   4.969   4.423  0.1305 -0.5564  0.1466
   35CHL1  H26A 3764   0.388   4.879   4.382  0.7953 -2.7208  3.6678
   35CHL1  H26B 3765   0.383   5.061   4.392  0.2369 -0.5522 -0.0292
   35CHL1  H26C 3766   0.542   4.981   4.390 -0.5438  1.7321 -1.3713
   35CHL1   C27 3767   0.476   5.094   4.637 -0.7418  1.0296  0.1893
   35CHL1  H27A 3768   0.498   5.064   4.742  0.4163 -1.1918 -0.6379
   35CHL1  H27B 3769   0.576   5.104   4.588 -0.5523 -0.1924  0.3078
   35CHL1  H27C 3770   0.418   5.189   4.642 -0.8372  1.0702 -1.2412
   36CHL1    C3 3771   3.623   1.382   5.835  0.0589  0.2363 -0.5826
   36CHL1    H3 3772   3.733   1.400   5.842 -0.1161  1.9151 -1.5506
   36CHL1    O3 3773   3.563   1.392   5.966  0.2307  0.6475  0.4193
   36CHL1   H3' 3774   3.468   1.398   5.951  0.0421 -3.3670 -1.3234
   36CHL1    C4 3775   3.566   1.495   5.749  0.3074  0.1901 -0.6873
   36CHL1   H4A 3776   3.458   1.469   5.744  0.2846  0.0512  0.4774
   36CHL1   H4B 3777   3.571   1.598   5.791  2.6751  0.3578 -1.2477
   36CHL1    C5 3778   3.629   1.494   5.612  0.1584 -0.4906  0.9434
   36CHL1    C6 3779   3.701   1.602   5.565  0.1579 -0.3622  0.1373
   36CHL1    H6 3780   3.701   1.695   5.624 -2.0805  0.8828 -1.6791
   36CHL1    C7 3781   3.757   1.614   5.428  0.0760  0.3034  0.0752
   36CHL1   H7A 3782   3.723   1.702   5.370 -0.3582  0.1798  0.1357
   36CHL1   H7B 3783   3.868   1.610   5.421  0.1794  2.7165 -0.4010
   36CHL1    C8 3784   3.706   1.495   5.342  0.3760  0.0124 -0.0152
   36CHL1    H8 3785   3.602   1.522   5.317  0.0954 -1.6155 -0.7634
   36CHL1   C14 3786   3.780   1.493   5.211  0.9831 -0.3722  0.2338
   36CHL1   H14 3787   3.888   1.475   5.231  1.7028  2.0362 -1.0973
   36CHL1   C15 3788   3.793   1.627   5.129 -0.3184  0.9070 -0.3009
   36CHL1  H15A 3789   3.688   1.662   5.125 -1.3562 -1.8657  0.2815
   36CHL1  H15B 3790   3.865   1.696   5.179  0.5194 -0.7603  0.8674
   36CHL1   C16 3791   3.843   1.576   4.994 -0.7088 -0.0402 -0.3182
   36CHL1  H16A 3792   3.784   1.614   4.908  0.4789  0.3725 -0.9675
   36CHL1  H16B 3793   3.953   1.585   4.982 -0.5408 -0.5285  0.8004
   36CHL1   C17 3794   3.828   1.421   4.992  0.0611 -0.1638 -0.7933
   36CHL1   H17 3795   3.926   1.378   5.020  0.7362  0.6821 -1.7782
   36CHL1   C13 3796   3.733   1.391   5.114  0.0733  0.4049 -0.1221
   36CHL1   C18 3797   3.584   1.411   5.084 -0.2324 -0.0251  0.1631
   36CHL1  H18A 3798   3.512   1.392   5.166 -1.4083  1.2588 -0.5358
   36CHL1  H18B 3799   3.561   1.516   5.055 -0.4798 -0.5246 -1.5805
   36CHL1  H18C 3800   3.537   1.347   5.006 -1.1244 -2.4156  2.5080
   36CHL1   C12 3801   3.756   1.252   5.176 -0.6143  0.3124 -0.2585
   36CHL1  H12A 3802   3.739   1.155   5.124 -3.5889  0.4390  0.3297
   36CHL1  H12B 3803   3.864   1.239   5.202 -0.0666 -0.2910 -2.5871
   36CHL1   C11 3804   3.682   1.242   5.316 -0.4659  0.1190 -0.2155
   36CHL1  H11A 3805   3.572   1.243   5.297 -0.4928 -0.3855 -0.0911
   36CHL1  H11B 3806   3.722   1.152   5.366  1.9287  1.3513  0.2163
   36CHL1    C9 3807   3.708   1.360   5.417 -0.0320 -0.0247 -0.7511
   36CHL1    H9 3808   3.812   1.341   5.452 -0.6137 -2.5788 -0.2208
   36CHL1   C10 3809   3.618   1.357   5.541 -0.2672  0.4266  0.2862
   36CHL1   C19 3810   3.462   1.346   5.509  0.9585  0.1270  0.8389
   36CHL1  H19A 3811   3.442   1.250   5.457 -1.9784  1.0372  0.1337
   36CHL1  H19B 3812   3.399   1.336   5.600 -1.7594  0.2845 -0.9092
   36CHL1  H19C 3813   3.427   1.429   5.444 -0.2301  0.2009  1.5629
   36CHL1    C1 3814   3.651   1.229   5.634  0.3527  0.1429  0.0795
   36CHL1   H1A 3815   3.617   1.135   5.586  0.5756 -0.9657  2.0032
   36CHL1   H1B 3816   3.761   1.223   5.636  0.5226 -0.0970 -3.3552
   36CHL1    C2 3817   3.594   1.243   5.771  0.6086 -0.0693 -0.1605
   36CHL1   H2A 3818   3.631   1.154   5.826 -1.0740 -1.0874 -0.6143
   36CHL1   H2B 3819   3.484   1.228   5.766  0.8905 -1.9337 -1.3965
   36CHL1   C20 3820   3.799   1.368   4.854 -0.0263  0.0502 -0.9979
   36CHL1   H20 3821   3.718   1.431   4.811 -1.7458 -1.0718  0.4596
   36CHL1   C21 3822   3.738   1.222   4.854  0.4351 -0.1136  0.1697
   36CHL1  H21A 3823   3.638   1.208   4.898 -1.2216  0.3365 -3.1091
   36CHL1  H21B 3824   3.802   1.142   4.896  2.0696  0.8379 -0.3960
   36CHL1  H21C 3825   3.726   1.202   4.745  2.5158 -0.9097  0.0486
   36CHL1   C22 3826   3.935   1.377   4.774  1.1166  0.8476 -0.2090
   36CHL1  H22A 3827   3.954   1.486   4.758  0.5454  0.7995 -1.3728
   36CHL1  H22B 3828   4.017   1.328   4.830 -0.7962 -1.0775  1.0077
   36CHL1   C23 3829   3.939   1.324   4.630 -0.0081 -0.2276 -0.0884
   36CHL1  H23A 3830   3.940   1.213   4.638 -1.8555 -0.2753 -0.1022
   36CHL1  H23B 3831   3.845   1.357   4.581 -0.5061 -1.9613 -0.3631
   36CHL1   C24 3832   4.063   1.362   4.555  0.4403  0.1202  0.5626
   36CHL1  H24A 3833   4.049   1.470   4.536  0.4348  0.2064  1.0566
   36CHL1  H24B 3834   4.155   1.347   4.616 -0.3041 -0.3790  1.5774
   36CHL1   C25 3835   4.073   1.290   4.416  0.2140 -0.5329  0.3780
   36CHL1   H25 3836   4.104   1.187   4.444 -0.1991 -0.8094 -0.1478
   36CHL1   C26 3837   3.945   1.288   4.329 -0.0865  0.6894  0.4339
   36CHL1  H26A 3838   3.972   1.226   4.241  0.2913 -0.9217  1.6441
   36CHL1  H26B 3839   3.860   1.244   4.386 -1.1844  1.2152 -0.7349
   36CHL1  H26C 3840   3.928   1.395   4.304 -1.5442  0.6324  1.0816
   36CHL1   C27 3841   4.187   1.353   4.339  0.6092 -0.2416 -0.5229
   36CHL1  H27A 3842   4.209   1.300   4.244  0.8059  0.1222 -0.6834
   36CHL1  H27B 3843   4.160   1.457   4.309  0.6095 -0.3357 -0.8517
   36CHL1  H27C 3844   4.280   1.347   4.399  0.8117 -1.2769 -0.9240
   37CHL1    C3 3845   3.614   5.049   5.931 -0.4589  0.2800  0.7391
   37CHL1    H3 3846   3.653   5.133   5.871  0.5416 -0.4368  0.3678
   37CHL1    O3 3847   3.664   5.069   6.067  0.6794  0.0756  0.2518
   37CHL1   H3' 3848   3.599   5.022   6.121 -0.5371 -0.0543 -1.2597
   37CHL1    C4 3849   3.465   5.057   5.930  0.4678 -0.7476 -0.5697
   37CHL1   H4A 3850   3.410   4.986   5.995  0.1943  0.0117  0.0562
   37CHL1   H4B 3851   3.441   5.155   5.978  0.9637 -0.7899 -0.2268
   37CHL1    C5 3852   3.413   5.057   5.791 -0.6536 -0.2988 -0.0877
   37CHL1    C6 3853   3.346   5.160   5.745 -0.6443  0.4496  0.1116
   37CHL1    H6 3854   3.326   5.239   5.818 -0.2534  1.1514 -0.5333
   37CHL1    C7 3855   3.308   5.187   5.607  0.6044  0.3625  0.8203
   37CHL1   H7A 3856   3.207   5.232   5.596 -0.3655 -2.1087 -1.8023
   37CHL1   H7B 3857   3.381   5.259   5.565 -0.1390  0.0365 -1.1321
   37CHL1    C8 3858   3.319   5.048   5.529  0.3044 -0.4159 -0.1941
   37CHL1    H8 3859   3.236   4.983   5.563 -0.7258  1.4342  0.9773
   37CHL1   C14 3860   3.295   5.067   5.383 -0.5985  0.1230  0.7813
   37CHL1   H14 3861   3.386   5.119   5.345 -1.1172 -0.0701 -0.8071
   37CHL1   C15 3862   3.184   5.156   5.326  0.4628  0.2526  0.4122
   37CHL1  H15A 3863   3.097   5.158   5.395  0.4246  2.6382  0.3903
   37CHL1  H15B 3864   3.208   5.263   5.306  1.4402 -0.4234 -2.5009
   37CHL1   C16 3865   3.147   5.098   5.190  0.1642 -0.6315  0.1141
   37CHL1  H16A 3866   3.044   5.057   5.198  0.0022 -0.2129  0.1472
   37CHL1  H16B 3867   3.157   5.185   5.122 -0.0788  0.7389  1.7774
   37CHL1   C17 3868   3.251   4.992   5.158  0.6016 -0.5849  0.3104
   37CHL1   H17 3869   3.341   5.040   5.114  0.6405 -0.0221  1.0043
   37CHL1   C13 3870   3.294   4.932   5.297  0.3041 -0.0071  0.6870
   37CHL1   C18 3871   3.182   4.832   5.347  0.4437 -0.1357  0.2135
   37CHL1  H18A 3872   3.216   4.804   5.450  3.1792 -0.6479 -0.7335
   37CHL1  H18B 3873   3.079   4.871   5.348 -0.2730 -1.8335  2.2746
   37CHL1  H18C 3874   3.188   4.737   5.290  0.0025 -0.9698  1.5081
   37CHL1   C12 3875   3.431   4.866   5.314 -0.7530 -0.4863 -0.1353
   37CHL1  H12A 3876   3.457   4.769   5.268  0.5243  0.1319 -0.7645
   37CHL1  H12B 3877   3.499   4.949   5.283 -0.1445 -1.2184 -0.7898
   37CHL1   C11 3878   3.466   4.845   5.463  0.0561 -0.0533 -0.5357
   37CHL1  H11A 3879   3.403   4.760   5.496  1.9355 -0.5339  2.2270
   37CHL1  H11B 3880   3.569   4.806   5.478 -0.8266 -1.3068  3.4639
   37CHL1    C9 3881   3.447   4.967   5.562 -0.7843 -0.2942  1.0109
   37CHL1    H9 3882   3.533   5.029   5.528  0.2126 -2.2292 -0.1795
   37CHL1   C10 3883   3.474   4.936   5.712 -0.4960  0.7535 -0.0129
   37CHL1   C19 3884   3.402   4.802   5.748  0.7137  0.7584  0.0985
   37CHL1  H19A 3885   3.438   4.710   5.697 -1.3226  0.7527 -1.4692
   37CHL1  H19B 3886   3.383   4.787   5.856 -2.4397  2.0101 -0.1632
   37CHL1  H19C 3887   3.302   4.806   5.699  1.5629  0.7999 -1.7057
   37CHL1    C1 3888   3.626   4.913   5.730 -0.0008  0.1673 -0.0230
   37CHL1   H1A 3889   3.659   4.813   5.692  1.2173  0.1736  0.9373
   37CHL1   H1B 3890   3.679   4.999   5.684  0.7382  1.5029  3.0982
   37CHL1    C2 3891   3.665   4.912   5.877 -0.0306 -0.3017 -0.5081
   37CHL1   H2A 3892   3.774   4.898   5.894 -0.2151  0.3191  1.4566
   37CHL1   H2B 3893   3.620   4.826   5.933  2.0165  0.2999  2.2745
   37CHL1   C20 3894   3.199   4.901   5.047 -0.4050 -0.4757 -0.1097
   37CHL1   H20 3895   3.113   4.840   5.083  0.0756 -2.0540 -1.5025
   37CHL1   C21 3896   3.321   4.811   4.999  0.2538  0.0279 -0.3227
   37CHL1  H21A 3897   3.367   4.754   5.082 -1.2793 -0.7003  0.0557
   37CHL1  H21B 3898   3.392   4.878   4.945  0.2195 -0.0416 -0.4526
   37CHL1  H21C 3899   3.282   4.737   4.926  1.6942 -0.0046 -1.1010
   37CHL1   C22 3900   3.136   4.983   4.927  1.0043 -0.2697  0.1361
   37CHL1  H22A 3901   3.040   5.021   4.969  0.7123 -1.1351  0.2769
   37CHL1  H22B 3902   3.195   5.072   4.896 -0.6552  0.6008 -0.7014
   37CHL1   C23 3903   3.094   4.905   4.808 -0.2100 -0.5631  0.0990
   37CHL1  H23A 3904   3.180   4.855   4.757  2.2436  4.0249 -0.8068
   37CHL1  H23B 3905   3.041   4.814   4.845 -1.1001 -0.8328 -1.6950
   37CHL1   C24 3906   3.013   4.961   4.691  0.1984 -0.4178  0.4056
   37CHL1  H24A 3907   2.915   4.998   4.729  0.0352 -0.0115 -0.3761
   37CHL1  H24B 3908   3.067   5.048   4.646 -1.4298 -0.5149 -1.9826
   37CHL1   C25 3909   2.993   4.862   4.573  0.4863  0.4974 -0.5667
   37CHL1   H25 3910   3.090   4.844   4.522  1.0974  0.5044  0.5523
   37CHL1   C26 3911   2.963   4.716   4.614  0.0955  0.2847  0.3789
   37CHL1  H26A 3912   2.960   4.646   4.528  2.7870 -0.4670  0.8337
   37CHL1  H26B 3913   3.041   4.670   4.678 -1.1044  0.5426  2.1112
   37CHL1  H26C 3914   2.874   4.711   4.681  1.5973  0.2020  2.4741
   37CHL1   C27 3915   2.900   4.920   4.466  0.1712  0.3154 -0.3215
   37CHL1  H27A 3916   2.894   4.857   4.375 -3.0858 -0.2555  0.1783
   37CHL1  H27B 3917   2.792   4.919   4.491  0.5330 -2.4531  1.5648
   37CHL1  H27C 3918   2.943   5.015   4.426  0.7314 -0.2576 -1.0980
   38CHL1    C3 3919   5.463   6.643   5.993 -0.3209 -0.3102 -0.1183
   38CHL1    H3 3920   5.385   6.565   5.995 -2.4570  1.7088  0.3148
   38CHL1    O3 3921   5.493   6.678   6.129 -0.3611 -0.6528 -0.4025
   38CHL1   H3' 3922   5.566   6.623   6.156  0.3583  1.1968  1.6813
   38CHL1    C4 3923   5.591   6.594   5.921 -0.7331  0.2608  0.4627
   38CHL1   H4A 3924   5.668   6.673   5.915  0.0642 -0.4919  0.5050
   38CHL1   H4B 3925   5.628   6.504   5.974 -0.7643 -0.2757 -0.4032
   38CHL1    C5 3926   5.560   6.562   5.772  0.3248 -0.1930 -0.8745
   38CHL1    C6 3927   5.584   6.445   5.716  0.9692  0.0889 -0.0661
   38CHL1    H6 3928   5.638   6.364   5.767  3.0977  0.9903 -0.7741
   38CHL1    C7 3929   5.554   6.415   5.572 -0.0099  1.2584  0.0088
   38CHL1   H7A 3930   5.639   6.370   5.515 -0.8733  2.7071 -2.5868
   38CHL1   H7B 3931   5.479   6.334   5.565 -0.1719  1.3462  0.7099
   38CHL1    C8 3932   5.517   6.537   5.478  0.2308  0.0020 -0.5614
   38CHL1    H8 3933   5.601   6.607   5.458 -1.4391  2.4728  0.5955
   38CHL1   C14 3934   5.437   6.502   5.361  0.2698  0.5376  0.6784
   38CHL1   H14 3935   5.341   6.460   5.399  0.1120 -1.0834 -1.3053
   38CHL1   C15 3936   5.501   6.388   5.276  0.3629  0.5097 -0.4041
   38CHL1  H15A 3937   5.607   6.406   5.250  1.0021 -1.8127  0.3295
   38CHL1  H15B 3938   5.494   6.287   5.321  1.1705 -0.2291 -1.8989
   38CHL1   C16 3939   5.428   6.389   5.139 -0.0787  0.1757 -1.0951
   38CHL1  H16A 3940   5.499   6.393   5.053  0.3144  1.1977 -0.7367
   38CHL1  H16B 3941   5.367   6.296   5.130 -0.7904  0.0379  3.1655
   38CHL1   C17 3942   5.331   6.510   5.150 -0.7901  0.2139 -0.2084
   38CHL1   H17 3943   5.238   6.458   5.181 -1.7520  1.1168 -1.4519
   38CHL1   C13 3944   5.391   6.604   5.261 -0.0842  0.1981  0.0609
   38CHL1   C18 3945   5.514   6.681   5.213  0.2302 -1.0726 -0.3202
   38CHL1  H18A 3946   5.485   6.779   5.169 -0.5774 -0.9816  0.4019
   38CHL1  H18B 3947   5.585   6.715   5.292  0.0137  1.9152 -1.2986
   38CHL1  H18C 3948   5.570   6.627   5.134  0.5575 -0.8428 -0.2474
   38CHL1   C12 3949   5.304   6.702   5.337  0.2684 -0.3433  0.5510
   38CHL1  H12A 3950   5.274   6.790   5.276  0.2337 -2.1140 -2.1840
   38CHL1  H12B 3951   5.215   6.639   5.357 -1.8057  1.6256 -1.7078
   38CHL1   C11 3952   5.371   6.756   5.461  0.0484  0.9051 -0.3739
   38CHL1  H11A 3953   5.461   6.815   5.435  0.8989  1.5084  3.3546
   38CHL1  H11B 3954   5.295   6.820   5.512 -0.5839  1.4207 -1.8883
   38CHL1    C9 3955   5.422   6.636   5.555  0.5941  0.3164  0.0238
   38CHL1    H9 3956   5.332   6.574   5.574  1.1666 -0.2917  0.7539
   38CHL1   C10 3957   5.479   6.677   5.699 -0.5770  0.3748  0.5262
   38CHL1   C19 3958   5.586   6.787   5.681 -0.4590  0.4620  0.3146
   38CHL1  H19A 3959   5.546   6.867   5.616  0.3933 -0.2557 -1.1367
   38CHL1  H19B 3960   5.629   6.823   5.777 -2.2185 -1.2946  1.8469
   38CHL1  H19C 3961   5.665   6.749   5.613 -0.5602  1.5879 -0.4481
   38CHL1    C1 3962   5.373   6.743   5.783 -0.3825 -0.1663 -0.1639
   38CHL1   H1A 3963   5.343   6.838   5.734  1.6218  0.3957 -0.3873
   38CHL1   H1B 3964   5.282   6.679   5.786 -2.4021  2.5767  2.4384
   38CHL1    C2 3965   5.414   6.770   5.929 -0.0163  0.4889  0.2570
   38CHL1   H2A 3966   5.320   6.798   5.981  0.1672  1.5069  0.0650
   38CHL1   H2B 3967   5.486   6.854   5.933  1.8883 -0.9112 -1.6388
   38CHL1   C20 3968   5.314   6.570   5.009 -0.4117  0.7181  1.0528
   38CHL1   H20 3969   5.415   6.609   4.981  1.4429 -2.5299  2.5991
   38CHL1   C21 3970   5.199   6.677   5.014 -0.2636 -0.0264 -0.2216
   38CHL1  H21A 3971   5.220   6.757   5.087 -3.5417 -0.8441  1.8217
   38CHL1  H21B 3972   5.102   6.634   5.048 -1.0136  0.9877 -1.0225
   38CHL1  H21C 3973   5.190   6.730   4.917 -0.8686  1.1212  0.4467
   38CHL1   C22 3974   5.278   6.464   4.904 -0.0489  0.4124 -0.1824
   38CHL1  H22A 3975   5.359   6.390   4.887  1.1068  0.8029  2.9933
   38CHL1  H22B 3976   5.191   6.412   4.948  0.5842 -1.0090 -0.5454
   38CHL1   C23 3977   5.234   6.514   4.765  0.6313  0.1639 -0.2590
   38CHL1  H23A 3978   5.136   6.566   4.772  1.0681  0.9697 -0.0106
   38CHL1  H23B 3979   5.311   6.589   4.735  0.5483 -0.4639 -2.1669
   38CHL1   C24 3980   5.221   6.412   4.650 -0.5092 -0.7567  0.1719
   38CHL1  H24A 3981   5.320   6.363   4.635  0.5307  1.1322  0.5945
   38CHL1  H24B 3982   5.153   6.329   4.679 -1.4978 -0.4172 -1.0907
   38CHL1   C25 3983   5.182   6.473   4.513  0.2317 -0.0641 -0.5305
   38CHL1   H25 3984   5.257   6.553   4.496 -0.8432  0.7295 -1.7590
   38CHL1   C26 3985   5.198   6.367   4.407 -0.4588 -0.4557 -0.3341
   38CHL1  H26A 3986   5.304   6.333   4.411 -0.2081  0.2734 -0.4989
   38CHL1  H26B 3987   5.131   6.282   4.430 -1.0213  0.4095  1.4399
   38CHL1  H26C 3988   5.171   6.408   4.308 -2.0049  0.1837  0.3201
   38CHL1   C27 3989   5.032   6.529   4.513 -0.4604  0.1704 -0.8709
   38CHL1  H27A 3990   5.013   6.607   4.590  1.4965 -0.1823  0.0353
   38CHL1  H27B 3991   5.003   6.573   4.416 -2.3489 -0.0128 -0.4358
   38CHL1  H27C 3992   4.965   6.441   4.529 -1.3253  0.7962 -0.9910
   39CHL1    C3 3993   4.464   3.905   5.734  0.1204 -0.1096 -0.0489
   39CHL1    H3 3994   4.415   4.002   5.708 -1.4543 -1.0356 -0.6897
   39CHL1    O3 3995   4.524   3.921   5.860 -0.4887 -0.2234  0.3057
   39CHL1   H3' 3996   4.568   3.840   5.887 -1.6130 -0.3375  2.0026
   39CHL1    C4 3997   4.379   3.782   5.728  0.9533  0.9719 -0.0081
   39CHL1   H4A 3998   4.431   3.685   5.743 -2.9742 -1.9593 -3.1232
   39CHL1   H4B 3999   4.302   3.789   5.808  0.0945 -0.6684 -0.6223
   39CHL1    C5 4000   4.297   3.766   5.594 -0.1937 -0.1787 -0.0862
   39CHL1    C6 4001   4.161   3.756   5.591  0.5435  0.9518  0.1198
   39CHL1    H6 4002   4.104   3.757   5.685  1.0707  0.8576  0.4432
   39CHL1    C7 4003   4.077   3.736   5.471 -0.0161 -0.5882  0.0245
   39CHL1   H7A 4004   4.008   3.652   5.490  0.0176 -0.5923  0.1278
   39CHL1   H7B 4005   4.007   3.819   5.444 -1.1228 -1.8714 -1.2054
   39CHL1    C8 4006   4.163   3.706   5.343  0.4745  0.1594 -0.7739
   39CHL1    H8 4007   4.185   3.597   5.351 -1.4349 -0.1875  0.5995
   39CHL1   C14 4008   4.079   3.730   5.218 -0.8108 -0.1333 -0.0118
   39CHL1   H14 4009   4.040   3.833   5.228 -1.9055 -0.5184 -0.1770
   39CHL1   C15 4010   3.948   3.650   5.205 -0.4209 -0.1595 -0.7203
   39CHL1  H15A 4011   3.978   3.551   5.245  0.1190  1.0549  2.1350
   39CHL1  H15B 4012   3.876   3.704   5.270  1.8098  1.5679  0.4440
   39CHL1   C16 4013   3.910   3.655   5.056 -0.9759  0.6677  0.2000
   39CHL1  H16A 4014   3.900   3.550   5.020  1.9209 -0.2590  1.7856
   39CHL1  H16B 4015   3.814   3.710   5.046 -0.9725  0.5455 -0.5241
   39CHL1   C17 4016   4.031   3.730   4.989  0.7241  0.4394  0.1267
   39CHL1   H17 4017   3.996   3.835   4.994 -1.5870 -0.3294  2.0304
   39CHL1   C13 4018   4.145   3.702   5.086 -0.7800 -0.4191  0.6069
   39CHL1   C18 4019   4.196   3.553   5.075 -0.5867  0.4296  0.1908
   39CHL1  H18A 4020   4.257   3.545   4.982  0.8322  0.1778  1.1127
   39CHL1  H18B 4021   4.267   3.527   5.156  1.2321 -0.7398 -1.7063
   39CHL1  H18C 4022   4.113   3.479   5.081 -0.4553  0.1874 -0.8094
   39CHL1   C12 4023   4.270   3.795   5.072 -0.3396  0.5810  0.0283
   39CHL1  H12A 4024   4.333   3.778   4.982 -1.9702  1.4963 -1.3404
   39CHL1  H12B 4025   4.237   3.902   5.069 -1.7792  0.1363 -1.0996
   39CHL1   C11 4026   4.363   3.785   5.202 -0.4137 -0.2178 -0.1018
   39CHL1  H11A 4027   4.418   3.689   5.190 -0.1589  0.0529 -1.1755
   39CHL1  H11B 4028   4.441   3.864   5.194  2.7513 -2.8057  2.1987
   39CHL1    C9 4029   4.287   3.794   5.339 -0.0350 -0.2607  0.3411
   39CHL1    H9 4030   4.254   3.900   5.335 -3.1175 -1.1816 -2.4627
   39CHL1   C10 4031   4.381   3.772   5.461  0.5089  0.4384 -0.7819
   39CHL1   C19 4032   4.445   3.631   5.447  0.5513  0.3956  0.0498
   39CHL1  H19A 4033   4.523   3.601   5.520  0.3548 -0.0956  0.0587
   39CHL1  H19B 4034   4.367   3.553   5.456 -1.7655  2.4576 -0.8862
   39CHL1  H19C 4035   4.490   3.612   5.348  0.3542 -3.2650  0.5387
   39CHL1    C1 4036   4.501   3.879   5.476  0.1412  0.0946 -0.5397
   39CHL1   H1A 4037   4.578   3.870   5.396  0.1483 -1.6096 -0.3720
   39CHL1   H1B 4038   4.455   3.980   5.467 -2.5724 -0.8342  1.5174
   39CHL1    C2 4039   4.568   3.885   5.623 -0.2819 -0.5764  0.4762
   39CHL1   H2A 4040   4.648   3.959   5.640  0.2103 -1.1018  0.4908
   39CHL1   H2B 4041   4.620   3.787   5.632  0.9334 -0.1329 -1.0789
   39CHL1   C20 4042   4.045   3.693   4.842 -0.2795 -0.2308  0.0158
   39CHL1   H20 4043   4.101   3.597   4.847 -1.5395 -0.9655  4.0856
   39CHL1   C21 4044   4.125   3.803   4.773  0.0487 -0.3164  0.2400
   39CHL1  H21A 4045   4.157   3.765   4.673  0.3732  0.7496 -0.0765
   39CHL1  H21B 4046   4.215   3.837   4.829  0.7889 -2.1707  0.2455
   39CHL1  H21C 4047   4.057   3.890   4.769 -0.9326 -1.0176  1.3384
   39CHL1   C22 4048   3.907   3.649   4.776  0.1163  0.1789 -0.2518
   39CHL1  H22A 4049   3.880   3.547   4.813  2.7271 -0.2259  0.6981
   39CHL1  H22B 4050   3.828   3.724   4.797  0.1663  0.1608 -0.0022
   39CHL1   C23 4051   3.913   3.638   4.619 -0.0432 -0.0270  0.2827
   39CHL1  H23A 4052   3.919   3.742   4.581 -0.7506 -0.5553 -1.4065
   39CHL1  H23B 4053   4.002   3.582   4.583 -0.1993  0.2722 -0.5980
   39CHL1   C24 4054   3.781   3.569   4.564 -0.1297  0.0477 -0.1402
   39CHL1  H24A 4055   3.789   3.463   4.594 -1.9895 -0.7092 -2.1282
   39CHL1  H24B 4056   3.683   3.611   4.595 -1.4572 -1.9385 -1.4681
   39CHL1   C25 4057   3.770   3.586   4.409  0.4091  0.4753 -0.3705
   39CHL1   H25 4058   3.872   3.566   4.369 -0.0876  0.2128 -1.5451
   39CHL1   C26 4059   3.683   3.473   4.350 -0.0736 -0.4956  0.2119
   39CHL1  H26A 4060   3.582   3.468   4.396 -0.2955 -2.7561 -0.3868
   39CHL1  H26B 4061   3.670   3.485   4.240 -1.5161  0.7929  0.4820
   39CHL1  H26C 4062   3.730   3.380   4.389 -0.3160  0.1815  2.2132
   39CHL1   C27 4063   3.724   3.725   4.358 -0.5016 -0.2147  0.0211
   39CHL1  H27A 4064   3.618   3.741   4.387 -0.8616 -0.5627 -1.0667
   39CHL1  H27B 4065   3.783   3.807   4.404 -0.1940  1.4295 -3.0153
   39CHL1  H27C 4066   3.741   3.732   4.248 -1.4608  0.0286 -0.1174
   40CHL1    C3 4067   0.855   3.222   5.522 -0.1168 -0.1255 -0.0070
   40CHL1    H3 4068   0.939   3.292   5.505 -1.9095  2.2229  0.3597
   40CHL1    O3 4069   0.818   3.216   5.659 -0.5938 -0.2255 -0.3355
   40CHL1   H3' 4070   0.737   3.164   5.664 -0.8349  0.2504  1.7375
   40CHL1    C4 4071   0.729   3.251   5.435  0.8888  0.6860 -0.0883
   40CHL1   H4A 4072   0.668   3.169   5.477  1.3756  0.3368 -0.0509
   40CHL1   H4B 4073   0.677   3.343   5.470 -0.5261  1.2224 -3.2691
   40CHL1    C5 4074   0.753   3.239   5.286  0.2447  0.0794 -0.3889
   40CHL1    C6 4075   0.714   3.336   5.207  0.0224 -0.7353  0.4794
   40CHL1    H6 4076   0.667   3.424   5.253 -2.5230 -2.7694  2.0409
   40CHL1    C7 4077   0.745   3.331   5.057 -0.0522  0.0103 -0.8227
   40CHL1   H7A 4078   0.660   3.368   4.996  1.4204  1.7068 -1.9044
   40CHL1   H7B 4079   0.839   3.382   5.029 -0.6226  0.9860 -1.0034
   40CHL1    C8 4080   0.782   3.191   5.001  0.5700 -0.0247 -0.7277
   40CHL1    H8 4081   0.687   3.134   4.991  0.2970  0.4965 -1.1635
   40CHL1   C14 4082   0.841   3.192   4.867  0.2858 -0.3139  1.2887
   40CHL1   H14 4083   0.945   3.231   4.866  0.6922 -1.3586  0.2350
   40CHL1   C15 4084   0.763   3.263   4.754 -0.2190  0.2068 -0.0419
   40CHL1  H15A 4085   0.654   3.244   4.770  0.3868 -1.4313  2.9408
   40CHL1  H15B 4086   0.791   3.370   4.748  1.9685 -0.3010  0.3868
   40CHL1   C16 4087   0.805   3.207   4.617 -0.3747  0.0537 -0.3528
   40CHL1  H16A 4088   0.715   3.158   4.575  0.5206 -2.6713  0.6890
   40CHL1  H16B 4089   0.845   3.284   4.547  0.3811  0.3071  0.3465
   40CHL1   C17 4090   0.908   3.099   4.649 -0.3387 -0.3877  0.1266
   40CHL1   H17 4091   1.010   3.139   4.665 -0.1972 -1.0690  1.0093
   40CHL1   C13 4092   0.875   3.053   4.796 -0.6178  0.0496 -0.3746
   40CHL1   C18 4093   0.738   2.971   4.799 -0.2693  0.0869 -0.5188
   40CHL1  H18A 4094   0.655   3.025   4.749  0.0240  1.0051 -0.0574
   40CHL1  H18B 4095   0.761   2.882   4.737  0.2990  0.2552 -0.5588
   40CHL1  H18C 4096   0.710   2.944   4.903  1.4969 -1.1891 -0.3325
   40CHL1   C12 4097   0.982   2.990   4.881  0.1285 -0.1146 -0.2998
   40CHL1  H12A 4098   0.998   2.885   4.846  0.8268 -0.3401  0.6282
   40CHL1  H12B 4099   1.083   3.036   4.881  1.1565 -2.2039 -1.4070
   40CHL1   C11 4100   0.930   2.984   5.031  0.5524 -0.1942 -0.0712
   40CHL1  H11A 4101   0.841   2.918   5.028 -0.9226  1.6647  0.6306
   40CHL1  H11B 4102   1.007   2.932   5.092 -0.3510 -2.5071 -0.8141
   40CHL1    C9 4103   0.877   3.116   5.090 -0.1945 -0.2966  0.0950
   40CHL1    H9 4104   0.969   3.178   5.101 -1.0751  0.7759  1.7709
   40CHL1   C10 4105   0.824   3.108   5.236 -0.3753  0.5818 -0.8023
   40CHL1   C19 4106   0.717   2.992   5.250  0.2884 -0.1754  0.0218
   40CHL1  H19A 4107   0.621   3.019   5.201  0.4527  0.7552  0.1935
   40CHL1  H19B 4108   0.747   2.892   5.210 -0.9874  0.3422 -2.4353
   40CHL1  H19C 4109   0.697   2.970   5.357 -0.2594 -1.2029 -0.2783
   40CHL1    C1 4110   0.945   3.090   5.334  0.2495 -0.1672  0.3742
   40CHL1   H1A 4111   0.997   2.996   5.305  1.2206  0.7993 -1.1715
   40CHL1   H1B 4112   1.020   3.171   5.323 -2.4977  2.3752 -0.8481
   40CHL1    C2 4113   0.906   3.086   5.480 -0.6005 -0.2000 -0.2629
   40CHL1   H2A 4114   0.998   3.064   5.538 -1.3903 -0.3854  0.9559
   40CHL1   H2B 4115   0.833   3.003   5.493 -0.5585 -0.6379 -2.3351
   40CHL1   C20 4116   0.922   2.990   4.538 -0.1080 -0.3080 -0.0181
   40CHL1   H20 4117   0.971   2.909   4.594 -0.7905  0.2821  1.4973
   40CHL1   C21 4118   1.023   3.057   4.442  0.0698  0.5419 -0.3180
   40CHL1  H21A 4119   0.989   3.155   4.402 -0.0891  1.0233  0.9779
   40CHL1  H21B 4120   1.046   2.995   4.352 -0.6125  0.5049 -0.4744
   40CHL1  H21C 4121   1.124   3.067   4.486  0.0989  0.6623 -0.4101
   40CHL1   C22 4122   0.794   2.938   4.464  0.1458 -0.2100  0.0352
   40CHL1  H22A 4123   0.729   2.887   4.539  0.9177  0.5190  1.2453
   40CHL1  H22B 4124   0.731   3.020   4.422 -0.9133 -1.1483 -0.2581
   40CHL1   C23 4125   0.824   2.854   4.337 -0.1677 -0.3360 -0.1358
   40CHL1  H23A 4126   0.845   2.923   4.253  0.8885 -0.4471  0.0218
   40CHL1  H23B 4127   0.922   2.802   4.346  0.0135 -0.1550 -0.9675
   40CHL1   C24 4128   0.713   2.761   4.303  0.0261  0.0992 -0.0005
   40CHL1  H24A 4129   0.751   2.685   4.232  1.3418  1.6997 -1.0960
   40CHL1  H24B 4130   0.677   2.715   4.397 -1.3095  2.0094  0.4975
   40CHL1   C25 4131   0.589   2.837   4.241  0.0487  0.0574  0.0322
   40CHL1   H25 4132   0.562   2.930   4.296 -2.3866  1.1744 -2.7740
   40CHL1   C26 4133   0.625   2.872   4.091  0.7504  0.5519 -0.4650
   40CHL1  H26A 4134   0.648   2.781   4.033  2.7879  0.8403 -0.1722
   40CHL1  H26B 4135   0.550   2.945   4.053 -0.4263  0.0787  0.8560
   40CHL1  H26C 4136   0.714   2.938   4.089 -0.6339  2.4826 -2.5109
   40CHL1   C27 4137   0.467   2.751   4.249 -0.4775 -0.2401  0.4082
   40CHL1  H27A 4138   0.372   2.794   4.209 -0.3736 -0.1099  0.2988
   40CHL1  H27B 4139   0.474   2.651   4.202 -1.1622  0.0245 -0.2817
   40CHL1  H27C 4140   0.442   2.742   4.356  0.0335  3.3975  0.9568
   41CHL1    C3 4141   1.213   2.267   5.784  0.0101 -0.7474  0.3539
   41CHL1    H3 4142   1.321   2.291   5.776 -0.0365 -1.0650 -1.6629
   41CHL1    O3 4143   1.187   2.281   5.927 -0.4676  0.5144 -0.1501
   41CHL1   H3' 4144   1.096   2.251   5.935 -0.5522  1.2159  1.9698
   41CHL1    C4 4145   1.122   2.358   5.702  0.2987  0.2224 -0.5018
   41CHL1   H4A 4146   1.020   2.319   5.726  0.2484  0.3381 -0.5251
   41CHL1   H4B 4147   1.137   2.459   5.744 -2.3814  0.6556 -0.4169
   41CHL1    C5 4148   1.156   2.359   5.553 -0.6980  0.6463  0.4517
   41CHL1    C6 4149   1.202   2.466   5.485 -0.7202 -0.6953 -0.4559
   41CHL1    H6 4150   1.203   2.563   5.537 -1.2169 -0.0701 -1.5638
   41CHL1    C7 4151   1.249   2.463   5.343  0.6118 -0.4039  0.9011
   41CHL1   H7A 4152   1.198   2.544   5.287 -1.2872 -1.3115  1.2317
   41CHL1   H7B 4153   1.360   2.465   5.345  0.6571 -0.7808 -0.5301
   41CHL1    C8 4154   1.205   2.329   5.259  0.2909 -0.2770 -0.7290
   41CHL1    H8 4155   1.095   2.341   5.249  0.3192  0.7629 -0.0520
   41CHL1   C14 4156   1.269   2.315   5.118  0.4784 -0.1492 -0.4544
   41CHL1   H14 4157   1.379   2.313   5.135  0.3191  0.6769  0.7982
   41CHL1   C15 4158   1.250   2.435   5.015  0.3255 -0.5064 -0.6206
   41CHL1  H15A 4159   1.145   2.471   5.023 -0.0981 -1.9973  1.2762
   41CHL1  H15B 4160   1.326   2.513   5.037 -0.4069  0.2381 -0.6556
   41CHL1   C16 4161   1.275   2.374   4.878 -0.4404 -0.3398 -0.0931
   41CHL1  H16A 4162   1.190   2.392   4.809  0.2562 -1.1071 -1.1798
   41CHL1  H16B 4163   1.362   2.429   4.836  0.7078 -2.1200 -0.1337
   41CHL1   C17 4164   1.289   2.223   4.899 -0.1602  0.6986  0.5845
   41CHL1   H17 4165   1.396   2.196   4.915 -0.3365  0.3707  1.2614
   41CHL1   C13 4166   1.222   2.195   5.037  0.6889 -0.6144 -0.0121
   41CHL1   C18 4167   1.063   2.187   5.021  1.0591  0.3130  0.1786
   41CHL1  H18A 4168   1.032   2.281   4.969 -0.7710  0.3736  1.3014
   41CHL1  H18B 4169   1.026   2.106   4.955  1.5844  0.5932 -0.4822
   41CHL1  H18C 4170   1.017   2.200   5.121  0.1726  2.6613 -0.4734
   41CHL1   C12 4171   1.277   2.073   5.116 -0.2153  0.5529  0.4671
   41CHL1  H12A 4172   1.232   1.979   5.079 -0.5576 -0.6590  3.7061
   41CHL1  H12B 4173   1.387   2.057   5.111 -0.3190 -0.1590 -3.8673
   41CHL1   C11 4174   1.229   2.071   5.267  0.1835 -0.2883  0.3422
   41CHL1  H11A 4175   1.124   2.033   5.267  0.7141 -1.8552 -0.2641
   41CHL1  H11B 4176   1.288   1.998   5.326  0.3695  1.0401  1.8596
   41CHL1    C9 4177   1.237   2.209   5.348 -0.4881  0.1864  0.3941
   41CHL1    H9 4178   1.341   2.224   5.384 -1.1166  0.6825  2.0945
   41CHL1   C10 4179   1.159   2.217   5.490  0.0510  0.1737  0.5882
   41CHL1   C19 4180   1.013   2.158   5.467 -0.2022 -0.1205  0.1923
   41CHL1  H19A 4181   0.951   2.169   5.559  0.4593  2.0293  0.4386
   41CHL1  H19B 4182   0.967   2.214   5.382  1.2800  0.8441  0.0011
   41CHL1  H19C 4183   1.023   2.053   5.431 -0.3466  0.1249 -0.5960
   41CHL1    C1 4184   1.234   2.115   5.582  0.0489  0.1943 -0.8364
   41CHL1   H1A 4185   1.206   2.016   5.538  0.0330  0.2396 -0.9288
   41CHL1   H1B 4186   1.344   2.130   5.581  0.1298 -0.3907 -1.3679
   41CHL1    C2 4187   1.191   2.126   5.732 -0.6434 -0.3318 -0.1425
   41CHL1   H2A 4188   1.258   2.058   5.788 -1.3391 -0.0055  1.1141
   41CHL1   H2B 4189   1.086   2.092   5.741 -1.1539  1.0241 -0.6640
   41CHL1   C20 4190   1.248   2.144   4.767 -1.0322  0.0000 -0.4630
   41CHL1   H20 4191   1.144   2.182   4.753 -1.0815  0.9428  2.0129
   41CHL1   C21 4192   1.243   1.998   4.801  0.4310 -0.7031 -0.3172
   41CHL1  H21A 4193   1.342   1.952   4.820  0.0057 -1.3109  0.4825
   41CHL1  H21B 4194   1.203   1.953   4.708 -3.5925 -0.0800  0.9279
   41CHL1  H21C 4195   1.168   1.972   4.879 -0.4188  1.4080 -0.3503
   41CHL1   C22 4196   1.331   2.178   4.649  0.0548 -0.7938  0.1954
   41CHL1  H22A 4197   1.340   2.288   4.640 -0.2357 -0.8849 -1.8197
   41CHL1  H22B 4198   1.437   2.143   4.651 -0.0662 -1.1883 -0.0665
   41CHL1   C23 4199   1.271   2.138   4.508 -0.2396  1.0590  0.3809
   41CHL1  H23A 4200   1.270   2.028   4.494  1.2528  1.2215 -1.3918
   41CHL1  H23B 4201   1.168   2.177   4.495 -0.4526 -0.2099 -2.6859
   41CHL1   C24 4202   1.332   2.208   4.384  0.4120  0.3248  0.1684
   41CHL1  H24A 4203   1.267   2.177   4.299  1.5752 -1.6743 -0.0554
   41CHL1  H24B 4204   1.315   2.318   4.379 -0.8134  0.2929  2.2822
   41CHL1   C25 4205   1.486   2.181   4.359 -0.5722  0.1006 -0.4875
   41CHL1   H25 4206   1.536   2.208   4.455  0.8107  0.2842 -1.2274
   41CHL1   C26 4207   1.518   2.032   4.331  0.7709 -0.7352 -0.7613
   41CHL1  H26A 4208   1.623   1.997   4.326  0.7268 -0.9103 -0.4614
   41CHL1  H26B 4209   1.451   1.969   4.394 -1.2335  2.5566  0.6955
   41CHL1  H26C 4210   1.477   2.016   4.229 -4.3259  2.1126  0.4729
   41CHL1   C27 4211   1.549   2.271   4.251  0.2125 -0.1686 -0.3979
   41CHL1  H27A 4212   1.656   2.251   4.232  1.0588 -0.2513  3.5020
   41CHL1  H27B 4213   1.491   2.242   4.161  0.9167  0.7224 -1.1573
   41CHL1  H27C 4214   1.525   2.378   4.269 -0.4477 -0.4787  0.7056
   42CHL1    C3 4215   1.749   2.209   5.804  0.9234  0.0541  0.5506
   42CHL1    H3 4216   1.798   2.116   5.769 -1.7614 -0.7532 -1.4062
   42CHL1    O3 4217   1.747   2.198   5.949  0.1178 -0.0231 -0.1517
   42CHL1   H3' 4218   1.702   2.281   5.969 -0.6146 -0.0870 -1.4393
   42CHL1    C4 4219   1.845   2.323   5.769 -0.0302 -0.1476 -0.4334
   42CHL1   H4A 4220   1.802   2.419   5.805  0.4471 -0.6033  1.4873
   42CHL1   H4B 4221   1.940   2.312   5.826  0.8267 -1.6790 -2.0457
   42CHL1    C5 4222   1.866   2.335   5.614  0.3814 -0.5208  0.3969
   42CHL1    C6 4223   1.987   2.335   5.556 -0.2069  0.0542 -0.3289
   42CHL1    H6 4224   2.065   2.323   5.633 -0.8699  0.3596  0.4062
   42CHL1    C7 4225   2.010   2.334   5.408  0.0907  0.5372  0.1219
   42CHL1   H7A 4226   2.083   2.411   5.376 -0.0887  0.2069 -1.1212
   42CHL1   H7B 4227   2.027   2.228   5.378 -2.2319  0.0798  0.1906
   42CHL1    C8 4228   1.882   2.379   5.325  0.6365 -0.4376 -0.5208
   42CHL1    H8 4229   1.879   2.488   5.346 -2.2455 -0.5992  0.3506
   42CHL1   C14 4230   1.895   2.347   5.180 -0.2614 -0.1388 -0.6198
   42CHL1   H14 4231   1.895   2.237   5.161  1.4193 -0.4444  0.8802
   42CHL1   C15 4232   2.032   2.392   5.113  0.1861  0.4512  0.2717
   42CHL1  H15A 4233   2.056   2.491   5.156 -0.5570  0.7292  0.0587
   42CHL1  H15B 4234   2.113   2.319   5.133  0.1695  0.5898  0.8472
   42CHL1   C16 4235   1.996   2.395   4.961  0.1912  0.8082 -0.8623
   42CHL1  H16A 4236   2.007   2.500   4.926 -1.7069  2.0384  1.8628
   42CHL1  H16B 4237   2.067   2.321   4.919 -1.2345  0.0655 -2.0429
   42CHL1   C17 4238   1.843   2.354   4.946  0.2932 -0.1972  0.0516
   42CHL1   H17 4239   1.835   2.243   4.937  2.6603 -0.3962 -0.4401
   42CHL1   C13 4240   1.779   2.390   5.085  0.3736  0.9254  0.0784
   42CHL1   C18 4241   1.763   2.542   5.100  0.2847 -0.0137 -0.9009
   42CHL1  H18A 4242   1.859   2.594   5.083 -0.3198  0.2832 -4.0483
   42CHL1  H18B 4243   1.697   2.582   5.021  0.5810  3.2830  0.3785
   42CHL1  H18C 4244   1.722   2.562   5.202 -0.5076  0.7934 -1.3667
   42CHL1   C12 4245   1.648   2.322   5.138 -0.0561 -0.1198 -0.7834
   42CHL1  H12A 4246   1.564   2.369   5.082 -0.9001  1.3388  1.5530
   42CHL1  H12B 4247   1.641   2.214   5.116  0.4646 -0.0945 -1.0968
   42CHL1   C11 4248   1.628   2.347   5.289 -0.5050 -0.0734  0.0710
   42CHL1  H11A 4249   1.601   2.452   5.311  0.6005  0.2797 -0.1895
   42CHL1  H11B 4250   1.544   2.284   5.324 -0.9014  0.5399  0.2450
   42CHL1    C9 4251   1.754   2.308   5.373 -0.9168 -0.4639 -0.4008
   42CHL1    H9 4252   1.764   2.199   5.357 -1.2885 -0.5182 -0.2761
   42CHL1   C10 4253   1.731   2.328   5.526  0.6259  0.6371 -0.4119
   42CHL1   C19 4254   1.661   2.470   5.552  0.0736 -0.2991  0.0585
   42CHL1  H19A 4255   1.552   2.476   5.536 -0.4185 -1.2735  2.5177
   42CHL1  H19B 4256   1.678   2.508   5.655  1.7480  0.3751 -0.4183
   42CHL1  H19C 4257   1.711   2.550   5.493  1.1583  0.1765  1.5559
   42CHL1    C1 4258   1.632   2.223   5.580  0.9734 -0.3853  0.7560
   42CHL1   H1A 4259   1.537   2.244   5.526  0.6215  0.4380  1.6730
   42CHL1   H1B 4260   1.663   2.121   5.551  2.7815  0.4958 -0.6295
   42CHL1    C2 4261   1.615   2.222   5.732  0.2868  0.0598 -0.3367
   42CHL1   H2A 4262   1.544   2.146   5.772  0.4420  0.6536  1.1345
   42CHL1   H2B 4263   1.563   2.314   5.765  0.3829  0.2470 -0.7107
   42CHL1   C20 4264   1.795   2.413   4.812  0.7228 -0.4024 -0.3436
   42CHL1   H20 4265   1.804   2.523   4.818 -1.5386 -0.2046  0.3580
   42CHL1   C21 4266   1.642   2.384   4.799 -0.5419  0.2296 -0.1503
   42CHL1  H21A 4267   1.593   2.457   4.866 -1.8886  0.5106 -1.3936
   42CHL1  H21B 4268   1.609   2.284   4.832  0.7234  0.0492  0.6526
   42CHL1  H21C 4269   1.597   2.419   4.704 -0.5075  0.4890 -0.0726
   42CHL1   C22 4270   1.873   2.371   4.690 -0.5506 -0.0639 -0.3639
   42CHL1  H22A 4271   1.964   2.435   4.696 -1.6646  1.6780 -1.0573
   42CHL1  H22B 4272   1.897   2.263   4.693 -0.9548 -0.1326  0.7965
   42CHL1   C23 4273   1.820   2.420   4.557  0.5419 -0.5243 -0.2199
   42CHL1  H23A 4274   1.892   2.370   4.489 -0.4499 -0.3491 -1.4264
   42CHL1  H23B 4275   1.720   2.377   4.536 -0.0835  0.8847 -0.2320
   42CHL1   C24 4276   1.819   2.573   4.532  0.3329 -0.3383 -0.1681
   42CHL1  H24A 4277   1.746   2.591   4.449 -1.3506  0.4824  1.4204
   42CHL1  H24B 4278   1.769   2.628   4.615 -0.5341  0.7145 -1.3327
   42CHL1   C25 4279   1.955   2.638   4.501  0.2828  0.5288 -0.1509
   42CHL1   H25 4280   2.026   2.618   4.584 -0.0260 -0.3374 -0.0915
   42CHL1   C26 4281   2.029   2.582   4.377  0.5419  0.2421 -0.2035
   42CHL1  H26A 4282   2.079   2.483   4.387 -0.0209 -0.3398 -2.5991
   42CHL1  H26B 4283   1.969   2.591   4.285  1.7401 -0.3161 -1.0710
   42CHL1  H26C 4284   2.114   2.648   4.348 -0.3128  1.0523 -0.8984
   42CHL1   C27 4285   1.948   2.792   4.495  0.1365 -0.0512  0.1156
   42CHL1  H27A 4286   2.049   2.828   4.465  0.2094  1.5567  2.1299
   42CHL1  H27B 4287   1.886   2.829   4.411  0.4819  1.3074  0.4340
   42CHL1  H27C 4288   1.906   2.826   4.591 -1.6199  0.7585 -0.9055
   43CHL1    C3 4289   2.588   4.559   6.256 -0.4572 -0.1485 -0.7576
   43CHL1    H3 4290   2.600   4.644   6.186  0.8106 -0.4497 -0.9265
   43CHL1    O3 4291   2.636   4.596   6.388  0.9336  0.2903  1.2073
   43CHL1   H3' 4292   2.694   4.522   6.409  2.1451  0.1936 -1.8575
   43CHL1    C4 4293   2.453   4.486   6.252  0.1449  0.3674 -0.0388
   43CHL1   H4A 4294   2.451   4.408   6.331 -0.0348  2.4033  2.0978
   43CHL1   H4B 4295   2.378   4.563   6.282 -0.4724 -0.3863  0.4159
   43CHL1    C5 4296   2.419   4.440   6.110 -0.1614  0.0208  0.1029
   43CHL1    C6 4297   2.319   4.493   6.041  0.0357 -0.1000  0.5282
   43CHL1    H6 4298   2.259   4.574   6.084  1.2659  1.1676 -0.0811
   43CHL1    C7 4299   2.284   4.449   5.897  1.1215 -0.0754  0.3520
   43CHL1   H7A 4300   2.173   4.445   5.888  1.1282 -1.0367  0.6079
   43CHL1   H7B 4301   2.320   4.528   5.828 -0.3825  1.2012  0.9612
   43CHL1    C8 4302   2.350   4.314   5.856 -0.3861  0.0853 -0.4209
   43CHL1    H8 4303   2.302   4.241   5.924 -1.5623 -0.2818 -1.6177
   43CHL1   C14 4304   2.342   4.284   5.711  0.2175 -0.4411  0.1416
   43CHL1   H14 4305   2.404   4.362   5.662  0.8706 -1.7746 -1.2713
   43CHL1   C15 4306   2.203   4.281   5.636 -0.4601  0.2732  0.1128
   43CHL1  H15A 4307   2.124   4.217   5.682 -1.7232  1.7604  0.1110
   43CHL1  H15B 4308   2.160   4.384   5.631 -0.1134  0.3688 -1.3942
   43CHL1   C16 4309   2.238   4.229   5.496 -0.4479 -0.1564  0.4003
   43CHL1  H16A 4310   2.162   4.159   5.454 -1.1381  1.4345 -1.1666
   43CHL1  H16B 4311   2.251   4.317   5.430 -0.6077 -0.6021 -0.2401
   43CHL1   C17 4312   2.376   4.161   5.511 -0.1072 -0.1744  0.2449
   43CHL1   H17 4313   2.445   4.239   5.472 -0.0620  0.4542  1.5356
   43CHL1   C13 4314   2.411   4.152   5.658 -1.3245  0.1577 -0.8517
   43CHL1   C18 4315   2.329   4.035   5.721  0.8098  0.2358  0.2693
   43CHL1  H18A 4316   2.381   3.942   5.689 -0.0372  0.1158 -0.8158
   43CHL1  H18B 4317   2.333   4.042   5.832  1.3743 -3.4226  0.5913
   43CHL1  H18C 4318   2.228   4.041   5.675  0.0203  0.6742  1.9657
   43CHL1   C12 4319   2.560   4.168   5.696 -1.1784  0.2470  0.1061
   43CHL1  H12A 4320   2.624   4.077   5.683  0.1294  0.8371  1.9822
   43CHL1  H12B 4321   2.608   4.254   5.643 -0.8132  0.2684  0.4688
   43CHL1   C11 4322   2.576   4.185   5.845  0.2816 -0.7353  0.0900
   43CHL1  H11A 4323   2.536   4.091   5.889  1.7853 -0.9030  1.1975
   43CHL1  H11B 4324   2.682   4.197   5.877 -0.3024 -0.4506  2.0947
   43CHL1    C9 4325   2.497   4.311   5.898  0.0250 -0.1139  0.5445
   43CHL1    H9 4326   2.540   4.392   5.836 -1.9628 -0.0637 -0.8744
   43CHL1   C10 4327   2.516   4.341   6.045  0.4323  0.4214  0.3951
   43CHL1   C19 4328   2.488   4.217   6.133 -0.1219  0.4104  0.3817
   43CHL1  H19A 4329   2.386   4.173   6.131  0.8638 -2.0145 -0.9286
   43CHL1  H19B 4330   2.565   4.146   6.096  0.9090  1.0809  1.1918
   43CHL1  H19C 4331   2.519   4.228   6.239  0.4930  2.7587  0.0052
   43CHL1    C1 4332   2.663   4.400   6.066  0.4727 -0.0146  0.9977
   43CHL1   H1A 4333   2.730   4.314   6.044  0.1158 -0.3777  1.2931
   43CHL1   H1B 4334   2.680   4.482   5.994  2.4023 -0.2950  1.0914
   43CHL1    C2 4335   2.694   4.456   6.207 -0.3114  0.4054 -0.7574
   43CHL1   H2A 4336   2.796   4.498   6.219  0.8767 -2.5828  0.6572
   43CHL1   H2B 4337   2.686   4.371   6.278 -0.5602 -1.4697 -2.9251
   43CHL1   C20 4338   2.399   4.042   5.412 -0.1411 -0.0639 -0.7035
   43CHL1   H20 4339   2.305   3.984   5.413 -1.2546  1.6543 -1.0605
   43CHL1   C21 4340   2.523   3.966   5.459 -0.7931  0.7992  0.0194
   43CHL1  H21A 4341   2.606   4.039   5.462 -1.6473  2.1546 -3.7039
   43CHL1  H21B 4342   2.559   3.895   5.382 -1.5550 -0.0256  0.4019
   43CHL1  H21C 4343   2.511   3.917   5.558  1.0719  0.1000 -0.0682
   43CHL1   C22 4344   2.402   4.089   5.261 -0.5737 -0.5830  0.6841
   43CHL1  H22A 4345   2.312   4.153   5.247 -1.0436 -1.1154  1.1851
   43CHL1  H22B 4346   2.496   4.144   5.239 -0.7871 -0.9084 -1.1221
   43CHL1   C23 4347   2.405   3.976   5.160 -0.4208  0.6349  0.0897
   43CHL1  H23A 4348   2.510   3.939   5.160  0.6246  3.3244 -1.2365
   43CHL1  H23B 4349   2.345   3.895   5.206  0.0041  0.2948  0.0548
   43CHL1   C24 4350   2.366   4.021   5.019 -0.4042 -0.2381  1.3455
   43CHL1  H24A 4351   2.266   4.068   5.020 -0.2095  0.1894  2.4153
   43CHL1  H24B 4352   2.431   4.105   4.985 -0.3535 -0.4281  0.9690
   43CHL1   C25 4353   2.370   3.907   4.913 -0.3177 -0.1417 -0.0882
   43CHL1   H25 4354   2.313   3.820   4.952  0.3774 -0.4679  0.2297
   43CHL1   C26 4355   2.324   3.948   4.772  0.7127  0.3792 -0.2545
   43CHL1  H26A 4356   2.215   3.965   4.765  0.7790  1.0355  0.1916
   43CHL1  H26B 4357   2.371   4.041   4.733 -2.2945  1.0761 -2.4943
   43CHL1  H26C 4358   2.357   3.868   4.703  0.8835  1.5864 -1.6211
   43CHL1   C27 4359   2.516   3.862   4.908 -0.2717  0.3068 -0.3697
   43CHL1  H27A 4360   2.572   3.950   4.870 -0.1268  0.4977  0.2781
   43CHL1  H27B 4361   2.571   3.824   4.996  0.7387 -0.7563 -1.4293
   43CHL1  H27C 4362   2.530   3.772   4.844  1.3835 -0.4229  0.9513
   44CHL1    C3 4363   2.035   1.249   5.889 -0.2389 -0.3069  0.0182
   44CHL1    H3 4364   2.128   1.189   5.881 -0.1643 -0.1742 -0.1290
   44CHL1    O3 4365   1.996   1.252   6.026  0.3738 -0.2325  0.3645
   44CHL1   H3' 4366   1.991   1.160   6.055  3.0789 -0.5943 -0.0287
   44CHL1    C4 4367   2.056   1.390   5.837 -0.0484  0.4334 -0.2417
   44CHL1   H4A 4368   1.963   1.444   5.865 -0.2507 -0.2686  0.4713
   44CHL1   H4B 4369   2.152   1.426   5.880  0.4953 -0.8816 -0.3110
   44CHL1    C5 4370   2.073   1.390   5.685  0.1429  0.1545 -0.0854
   44CHL1    C6 4371   2.161   1.464   5.616  0.4155  0.0669 -1.1281
   44CHL1    H6 4372   2.235   1.523   5.673  0.7591 -3.2439  2.1987
   44CHL1    C7 4373   2.158   1.480   5.467  1.0393  0.5376 -0.0188
   44CHL1   H7A 4374   2.184   1.584   5.438 -0.5878  0.8411 -0.4957
   44CHL1   H7B 4375   2.244   1.418   5.435 -0.4089 -1.9057  0.5310
   44CHL1    C8 4376   2.039   1.422   5.388  0.2577 -1.0832  0.5849
   44CHL1    H8 4377   1.960   1.500   5.392  0.3743 -0.9763  0.8100
   44CHL1   C14 4378   2.070   1.393   5.244 -0.7414  0.1803 -0.0838
   44CHL1   H14 4379   2.137   1.304   5.236 -1.8508 -0.5051 -2.9761
   44CHL1   C15 4380   2.147   1.500   5.169 -0.1487  0.5893  0.3283
   44CHL1  H15A 4381   2.114   1.603   5.193 -0.2334  0.5172  0.5179
   44CHL1  H15B 4382   2.257   1.490   5.182 -0.2923 -0.9291  0.4920
   44CHL1   C16 4383   2.116   1.480   5.024 -0.8311  0.0216 -0.1850
   44CHL1  H16A 4384   2.080   1.577   4.983  2.9978  1.2437 -1.0159
   44CHL1  H16B 4385   2.200   1.445   4.960 -1.9444 -1.4842 -0.9010
   44CHL1   C17 4386   2.018   1.362   5.015 -0.4246 -0.3898 -0.2139
   44CHL1   H17 4387   2.077   1.269   5.007  0.1938 -0.1693  1.4296
   44CHL1   C13 4388   1.950   1.359   5.160 -0.3899  0.1199  0.3062
   44CHL1   C18 4389   1.838   1.467   5.158  0.3127  0.0536 -0.1952
   44CHL1  H18A 4390   1.788   1.475   5.258  0.0375  0.8337 -0.3838
   44CHL1  H18B 4391   1.872   1.571   5.137 -0.1037  0.1010 -0.6304
   44CHL1  H18C 4392   1.769   1.430   5.080  1.2222  0.2821 -1.1264
   44CHL1   C12 4393   1.900   1.224   5.214  0.2765  0.4007  0.4147
   44CHL1  H12A 4394   1.813   1.177   5.163 -1.8443  1.7496  2.5238
   44CHL1  H12B 4395   1.979   1.147   5.201 -0.3848 -0.0384 -1.2036
   44CHL1   C11 4396   1.866   1.229   5.366  0.1053 -0.0839  0.3957
   44CHL1  H11A 4397   1.777   1.295   5.376  0.8024  1.2054 -1.3251
   44CHL1  H11B 4398   1.854   1.131   5.416  1.7197  0.0392  1.0830
   44CHL1    C9 4399   1.985   1.298   5.454  0.4803  0.0706 -0.3953
   44CHL1    H9 4400   2.070   1.227   5.444  1.6383  1.2426  0.7972
   44CHL1   C10 4401   1.957   1.316   5.606 -0.1212  0.2798 -0.7411
   44CHL1   C19 4402   1.823   1.402   5.622  0.0928  0.5379  0.1264
   44CHL1  H19A 4403   1.738   1.359   5.565 -0.3625  0.9547  0.4846
   44CHL1  H19B 4404   1.791   1.419   5.727 -0.6028 -1.9665  0.3750
   44CHL1  H19C 4405   1.842   1.495   5.564 -0.1906  1.8679  2.0987
   44CHL1    C1 4406   1.935   1.179   5.671 -0.5877  0.1228  0.1272
   44CHL1   H1A 4407   1.839   1.144   5.627 -1.0082  1.3689  0.0217
   44CHL1   H1B 4408   2.020   1.117   5.634  0.4826 -0.0080  2.5952
   44CHL1    C2 4409   1.919   1.173   5.817 -0.5049  0.3421  0.1540
   44CHL1   H2A 4410   1.911   1.070   5.858 -2.2417 -1.2034 -3.6152
   44CHL1   H2B 4411   1.823   1.222   5.843 -0.9681  0.1932 -1.1900
   44CHL1   C20 4412   1.929   1.370   4.896  0.0092  0.9013  0.3573
   44CHL1   H20 4413   1.867   1.461   4.883  0.1529  0.7279 -1.9665
   44CHL1   C21 4414   1.843   1.239   4.887 -0.3523 -0.6064  0.4223
   44CHL1  H21A 4415   1.795   1.232   4.787 -0.9394 -1.8220  0.7802
   44CHL1  H21B 4416   1.764   1.238   4.964 -1.4358 -0.4161 -0.6636
   44CHL1  H21C 4417   1.910   1.151   4.896  0.7814  0.2676  0.7690
   44CHL1   C22 4418   2.009   1.383   4.767 -0.4684 -0.0650 -0.3803
   44CHL1  H22A 4419   2.095   1.453   4.769 -0.5199 -0.0072 -0.1798
   44CHL1  H22B 4420   2.054   1.286   4.737  3.8315  1.6887 -0.3514
   44CHL1   C23 4421   1.933   1.439   4.646  0.0560  0.4721 -0.4438
   44CHL1  H23A 4422   1.831   1.397   4.634 -1.4372  3.0597  2.0105
   44CHL1  H23B 4423   1.909   1.545   4.669  0.3425  0.4999 -0.2753
   44CHL1   C24 4424   2.001   1.412   4.517  0.1194  0.6858 -0.1688
   44CHL1  H24A 4425   1.995   1.306   4.487 -2.1864  1.4379 -2.8176
   44CHL1  H24B 4426   1.949   1.465   4.434 -4.2930 -3.7366 -0.7376
   44CHL1   C25 4427   2.153   1.457   4.508  0.0309  0.2325  0.2783
   44CHL1   H25 4428   2.213   1.384   4.568  0.2946 -0.2652 -0.5722
   44CHL1   C26 4429   2.206   1.448   4.359 -0.2603  0.1873 -0.2468
   44CHL1  H26A 4430   2.299   1.506   4.342  0.7749 -1.7082 -1.3080
   44CHL1  H26B 4431   2.235   1.343   4.337  2.3481  1.2669 -2.4335
   44CHL1  H26C 4432   2.129   1.472   4.283  0.3560 -0.5597 -1.1268
   44CHL1   C27 4433   2.156   1.598   4.541 -0.1444  0.2403  0.1247
   44CHL1  H27A 4434   2.254   1.640   4.511  1.3219 -1.5597  2.1242
   44CHL1  H27B 4435   2.071   1.650   4.492 -0.0025  0.0251 -0.3496
   44CHL1  H27C 4436   2.140   1.617   4.649  0.1051  1.1343  0.0126
   45CHL1    C3 4437   2.732   1.073   5.805 -0.9374 -0.2909 -0.0256
   45CHL1    H3 4438   2.787   1.167   5.784  1.4699 -1.5307  0.4404
   45CHL1    O3 4439   2.726   1.042   5.946  0.0109  0.1792  0.1419
   45CHL1   H3' 4440   2.726   1.120   6.002 -0.1228 -1.1191  2.0338
   45CHL1    C4 4441   2.594   1.084   5.750  0.0093 -0.0129  0.7680
   45CHL1   H4A 4442   2.538   0.994   5.781  0.1889  0.3194  2.1009
   45CHL1   H4B 4443   2.549   1.173   5.799  0.9575  1.2388 -0.5231
   45CHL1    C5 4444   2.586   1.108   5.597  0.8581 -0.5462  0.5977
   45CHL1    C6 4445   2.521   1.210   5.535  0.1808  0.3303  0.0437
   45CHL1    H6 4446   2.473   1.291   5.592  1.3373  2.7904 -2.2378
   45CHL1    C7 4447   2.500   1.230   5.390  0.7647 -0.0078 -0.2854
   45CHL1   H7A 4448   2.392   1.257   5.390  0.9204  0.9448  2.4314
   45CHL1   H7B 4449   2.563   1.312   5.348 -0.0508  0.6270 -0.3111
   45CHL1    C8 4450   2.544   1.104   5.312 -0.0287 -0.2251  0.6028
   45CHL1    H8 4451   2.469   1.026   5.337  1.0743 -1.3010  0.6196
   45CHL1   C14 4452   2.562   1.142   5.160 -0.3559  0.0004 -0.0597
   45CHL1   H14 4453   2.650   1.209   5.159  0.4070 -0.9235  1.6816
   45CHL1   C15 4454   2.443   1.215   5.103 -0.7573 -0.4551  0.1294
   45CHL1  H15A 4455   2.345   1.171   5.130 -0.0934 -0.6096  2.5554
   45CHL1  H15B 4456   2.425   1.319   5.138 -0.6808 -0.1010 -0.8599
   45CHL1   C16 4457   2.461   1.209   4.954 -0.8670  0.0083 -0.4961
   45CHL1  H16A 4458   2.363   1.173   4.914 -0.0739 -1.9856 -0.7413
   45CHL1  H16B 4459   2.482   1.311   4.913 -0.8784  0.4257  0.5116
   45CHL1   C17 4460   2.574   1.103   4.929 -0.5530 -0.0572  0.2571
   45CHL1   H17 4461   2.666   1.160   4.905 -0.9072  1.0707  1.4602
   45CHL1   C13 4462   2.595   1.030   5.059 -0.4951  0.2878 -0.2269
   45CHL1   C18 4463   2.493   0.923   5.073  1.1236  0.2376  0.0468
   45CHL1  H18A 4464   2.391   0.964   5.056  0.8985 -0.5625 -0.6358
   45CHL1  H18B 4465   2.500   0.837   5.003  0.1313 -1.6579  2.1610
   45CHL1  H18C 4466   2.499   0.887   5.178  0.4824 -0.9440 -0.3027
   45CHL1   C12 4467   2.738   0.978   5.105 -0.3502  0.4551 -0.4769
   45CHL1  H12A 4468   2.776   0.890   5.049 -1.2235 -1.2240  1.4636
   45CHL1  H12B 4469   2.806   1.059   5.070 -0.4793 -0.2093 -2.4231
   45CHL1   C11 4470   2.739   0.935   5.256 -0.3512 -0.7253  0.2556
   45CHL1  H11A 4471   2.668   0.850   5.262 -0.8478 -0.2110  1.9260
   45CHL1  H11B 4472   2.841   0.902   5.287  0.9009  2.1230 -0.4506
   45CHL1    C9 4473   2.679   1.044   5.356  0.1057  1.1345 -0.1812
   45CHL1    H9 4474   2.744   1.133   5.348  0.1234  1.2145  0.7860
   45CHL1   C10 4475   2.661   1.006   5.512  0.3107 -0.0825  0.1136
   45CHL1   C19 4476   2.583   0.877   5.524  0.2866 -0.0060 -0.3666
   45CHL1  H19A 4477   2.583   0.837   5.628  2.6892 -3.0304 -1.3922
   45CHL1  H19B 4478   2.478   0.892   5.490 -0.1281  1.9451  1.5265
   45CHL1  H19C 4479   2.634   0.807   5.455  1.2406  1.7049 -1.4538
   45CHL1    C1 4480   2.795   0.975   5.578  0.2432 -0.1449 -0.6566
   45CHL1   H1A 4481   2.850   0.888   5.536  0.3401  0.0477 -0.9333
   45CHL1   H1B 4482   2.855   1.067   5.560 -0.4770  0.3359 -0.6842
   45CHL1    C2 4483   2.807   0.960   5.733 -0.5164  0.1533 -0.7513
   45CHL1   H2A 4484   2.915   0.958   5.758 -0.1229 -1.3294 -2.3927
   45CHL1   H2B 4485   2.772   0.857   5.755  0.5880 -0.4447 -1.6789
   45CHL1   C20 4486   2.547   1.021   4.800  1.4857  0.0874  0.5948
   45CHL1   H20 4487   2.459   0.956   4.819  1.8179 -0.8435 -0.9358
   45CHL1   C21 4488   2.673   0.935   4.774  0.0658 -0.1945  0.6920
   45CHL1  H21A 4489   2.659   0.892   4.673 -0.1105 -2.2157  1.5276
   45CHL1  H21B 4490   2.706   0.858   4.847 -0.1804 -0.1339  0.8705
   45CHL1  H21C 4491   2.759   1.005   4.762 -2.0969  2.4724 -0.4998
   45CHL1   C22 4492   2.525   1.117   4.682  0.2006 -0.1229 -0.5754
   45CHL1  H22A 4493   2.455   1.201   4.701  0.3870 -0.5063  2.3175
   45CHL1  H22B 4494   2.620   1.167   4.656  0.0558  0.3041 -0.2915
   45CHL1   C23 4495   2.468   1.049   4.561  0.0690 -0.6735  0.1083
   45CHL1  H23A 4496   2.526   0.959   4.530  1.1874  0.8318 -2.5410
   45CHL1  H23B 4497   2.365   1.016   4.584 -0.4209 -0.7839 -2.0425
   45CHL1   C24 4498   2.487   1.147   4.440  0.0607  0.0133  0.1934
   45CHL1  H24A 4499   2.412   1.228   4.452 -0.1312 -0.2440  0.7375
   45CHL1  H24B 4500   2.583   1.203   4.450  0.9440 -1.2936 -0.6089
   45CHL1   C25 4501   2.499   1.089   4.299 -0.0058 -0.5725  0.0055
   45CHL1   H25 4502   2.590   1.027   4.315  1.1829  0.8923 -0.8929
   45CHL1   C26 4503   2.376   1.001   4.271 -0.4301 -0.5698 -0.0215
   45CHL1  H26A 4504   2.384   0.915   4.341 -0.3444 -0.8073 -0.3225
   45CHL1  H26B 4505   2.283   1.058   4.292 -0.4641 -0.0844 -1.4240
   45CHL1  H26C 4506   2.378   0.978   4.163 -1.3861 -1.3292  0.1117
   45CHL1   C27 4507   2.529   1.209   4.204  0.3403 -0.0925 -0.5195
   45CHL1  H27A 4508   2.556   1.175   4.102  2.2774  0.5046 -0.2547
   45CHL1  H27B 4509   2.444   1.280   4.195  0.4646 -0.2150 -3.3342
   45CHL1  H27C 4510   2.610   1.277   4.242 -0.0030 -0.2720  0.5819
   46CHL1    C3 4511   5.243   1.939   6.138 -0.3982  0.7093  0.0333
   46CHL1    H3 4512   5.320   2.020   6.139 -1.1763  1.4651  1.1307
   46CHL1    O3 4513   5.213   1.905   6.268  0.4544 -0.2018  0.2706
   46CHL1   H3' 4514   5.301   1.882   6.299  1.2625  1.1483 -0.8469
   46CHL1    C4 4515   5.113   1.976   6.073  0.2921 -0.0386 -0.7031
   46CHL1   H4A 4516   5.034   1.911   6.116 -0.3302 -0.0569 -1.8193
   46CHL1   H4B 4517   5.091   2.071   6.126 -2.6657 -0.7689 -0.4638
   46CHL1    C5 4518   5.110   1.992   5.923 -0.2569 -0.6390  0.4571
   46CHL1    C6 4519   5.068   2.106   5.861 -0.0806  0.6807 -0.3755
   46CHL1    H6 4520   5.038   2.188   5.929  0.7972  1.3589 -0.7802
   46CHL1    C7 4521   5.073   2.124   5.707  1.0297  0.4449 -0.0758
   46CHL1   H7A 4522   4.993   2.190   5.669 -0.0214 -1.2520 -0.9122
   46CHL1   H7B 4523   5.159   2.191   5.683 -0.8913  3.5690  1.2005
   46CHL1    C8 4524   5.078   1.991   5.631 -0.0598 -0.1695 -0.6502
   46CHL1    H8 4525   4.983   1.936   5.646  0.5330 -0.6971  1.7066
   46CHL1   C14 4526   5.111   2.020   5.485  0.3533 -0.2703  0.4571
   46CHL1   H14 4527   5.221   2.036   5.482  0.4698 -1.0407  0.4566
   46CHL1   C15 4528   5.039   2.138   5.410  0.5399  0.2127  0.5791
   46CHL1  H15A 4529   4.929   2.141   5.428  0.8137  0.6051  2.4846
   46CHL1  H15B 4530   5.093   2.234   5.428  0.4763  0.5928 -1.0684
   46CHL1   C16 4531   5.061   2.103   5.260 -0.2993 -0.0756  0.2442
   46CHL1  H16A 4532   4.962   2.097   5.210 -0.1208  0.9321 -0.2581
   46CHL1  H16B 4533   5.119   2.184   5.211  0.4532  0.0913  1.3737
   46CHL1   C17 4534   5.129   1.963   5.260  0.1514 -0.4133 -0.4608
   46CHL1   H17 4535   5.238   1.982   5.250  0.1570  0.2719  0.7040
   46CHL1   C13 4536   5.101   1.900   5.401 -0.4004  0.0846  0.3628
   46CHL1   C18 4537   4.964   1.835   5.402  0.1733 -0.4776  0.5091
   46CHL1  H18A 4538   4.951   1.791   5.503  0.3438  0.5457  0.9934
   46CHL1  H18B 4539   4.888   1.913   5.380 -0.5885 -1.4990 -0.6351
   46CHL1  H18C 4540   4.933   1.761   5.325  0.3512 -0.5726  0.5280
   46CHL1   C12 4541   5.207   1.798   5.457 -0.2527 -0.3203  0.6075
   46CHL1  H12A 4542   5.205   1.711   5.389  0.6327  0.4786 -0.4847
   46CHL1  H12B 4543   5.311   1.837   5.451 -0.6234  0.6196 -0.0517
   46CHL1   C11 4544   5.181   1.765   5.605  0.2476  0.1156 -0.4859
   46CHL1  H11A 4545   5.083   1.715   5.623 -0.9683  1.7998 -1.9763
   46CHL1  H11B 4546   5.265   1.702   5.639 -1.4290 -1.0638  1.7599
   46CHL1    C9 4547   5.185   1.898   5.691  1.1923 -0.1268 -0.7481
   46CHL1    H9 4548   5.279   1.957   5.687  1.3560 -0.4248 -1.6605
   46CHL1   C10 4549   5.169   1.870   5.846  0.1491 -0.1778  0.8827
   46CHL1   C19 4550   5.085   1.748   5.869  0.5410 -0.7861 -0.2002
   46CHL1  H19A 4551   4.996   1.771   5.807  1.1320 -1.2731 -1.2489
   46CHL1  H19B 4552   5.121   1.655   5.821 -1.8933 -0.4093 -3.0332
   46CHL1  H19C 4553   5.041   1.732   5.970 -0.1921  0.8144 -0.2417
   46CHL1    C1 4554   5.309   1.842   5.908 -0.3360 -0.1827 -0.5018
   46CHL1   H1A 4555   5.349   1.750   5.860  1.4187  0.5884 -0.5642
   46CHL1   H1B 4556   5.378   1.924   5.881 -0.8086  0.4176  0.0885
   46CHL1    C2 4557   5.304   1.822   6.063 -0.2396  0.4608 -0.2580
   46CHL1   H2A 4558   5.409   1.821   6.098 -0.3192  1.4509  0.0383
   46CHL1   H2B 4559   5.255   1.725   6.086 -0.8088  1.1337  1.4946
   46CHL1   C20 4560   5.088   1.882   5.130 -0.1216  0.4481 -0.2468
   46CHL1   H20 4561   4.978   1.869   5.132 -0.1185  0.2535 -1.0576
   46CHL1   C21 4562   5.145   1.739   5.127  0.4285 -0.1244  0.0719
   46CHL1  H21A 4563   5.106   1.687   5.037  2.9207 -2.2919  0.1051
   46CHL1  H21B 4564   5.108   1.680   5.214  0.5197  2.7915  2.2042
   46CHL1  H21C 4565   5.255   1.742   5.113  0.6038 -2.3998  0.4901
   46CHL1   C22 4566   5.133   1.954   5.001  0.6489 -0.0301  0.9775
   46CHL1  H22A 4567   5.061   2.037   4.987  0.7762 -0.2810 -1.8749
   46CHL1  H22B 4568   5.234   1.999   5.009  0.6020 -0.0072  1.4932
   46CHL1   C23 4569   5.129   1.883   4.868  0.8789 -0.3768  0.5617
   46CHL1  H23A 4570   5.193   1.793   4.885  0.1061 -0.7754  1.4250
   46CHL1  H23B 4571   5.032   1.835   4.848  1.2077  0.0131 -2.3833
   46CHL1   C24 4572   5.180   1.970   4.757  0.3831  0.0555  0.9740
   46CHL1  H24A 4573   5.095   2.027   4.714  1.3852  2.2674  1.7812
   46CHL1  H24B 4574   5.254   2.046   4.792  0.8233 -0.4771  1.2237
   46CHL1   C25 4575   5.241   1.897   4.631 -0.2627  0.6490  0.1538
   46CHL1   H25 4576   5.179   1.805   4.624 -0.9229  1.0650  0.3758
   46CHL1   C26 4577   5.224   1.978   4.506  0.0286 -0.3284 -0.1473
   46CHL1  H26A 4578   5.265   2.081   4.516 -0.8885  0.1150 -0.7767
   46CHL1  H26B 4579   5.283   1.936   4.422  2.0048  1.1455  0.4195
   46CHL1  H26C 4580   5.118   2.001   4.480  0.4272 -0.0655 -1.6269
   46CHL1   C27 4581   5.382   1.844   4.647 -0.1911 -0.3297  0.0234
   46CHL1  H27A 4582   5.452   1.930   4.634 -1.2262  0.7677  1.3391
   46CHL1  H27B 4583   5.408   1.791   4.742  1.0237  1.2818  0.6477
   46CHL1  H27C 4584   5.408   1.781   4.559  0.8470  1.1530 -0.7867
   47CHL1    C3 4585   6.540   2.258   5.648  0.3113  0.0574  0.3793
   47CHL1    H3 4586   6.447   2.221   5.599  0.5295  0.3660 -0.2867
   47CHL1    O3 4587   6.552   2.233   5.785 -0.1627  0.5677 -0.6399
   47CHL1   H3' 4588   6.617   2.298   5.813  2.6718 -0.8947 -3.2287
   47CHL1    C4 4589   6.655   2.192   5.572 -0.4437 -0.0868  0.4287
   47CHL1   H4A 4590   6.753   2.214   5.620 -0.8716 -0.9870  1.7739
   47CHL1   H4B 4591   6.643   2.082   5.577 -0.6520 -0.0179  2.6459
   47CHL1    C5 4592   6.668   2.225   5.425  0.3781 -0.0203  0.1091
   47CHL1    C6 4593   6.682   2.130   5.326 -1.0925 -0.8381 -0.4565
   47CHL1    H6 4594   6.697   2.026   5.361  0.4652 -1.0062 -1.5184
   47CHL1    C7 4595   6.690   2.163   5.178 -0.5359  0.0432  0.1652
   47CHL1   H7A 4596   6.784   2.123   5.136  0.8770  1.1111  2.1227
   47CHL1   H7B 4597   6.597   2.132   5.126 -0.6989 -1.0934  1.1012
   47CHL1    C8 4598   6.721   2.316   5.154  0.1656  0.6059 -0.1865
   47CHL1    H8 4599   6.823   2.334   5.193 -0.6345 -1.3677  3.2180
   47CHL1   C14 4600   6.683   2.343   5.007 -0.1364 -0.7377 -0.6401
   47CHL1   H14 4601   6.574   2.326   4.997 -0.4050  0.3518  0.2614
   47CHL1   C15 4602   6.747   2.258   4.894 -0.6397  0.3809 -0.1467
   47CHL1  H15A 4603   6.855   2.239   4.907 -0.2752  1.4830 -1.4475
   47CHL1  H15B 4604   6.707   2.154   4.883 -2.2088  1.0540 -1.1825
   47CHL1   C16 4605   6.720   2.352   4.769 -0.6795  1.2195  0.5225
   47CHL1  H16A 4606   6.813   2.354   4.708 -0.8849 -2.1541 -0.0896
   47CHL1  H16B 4607   6.635   2.300   4.721 -1.0919  0.2752  2.1800
   47CHL1   C17 4608   6.669   2.486   4.819 -0.8015  0.2972 -0.4435
   47CHL1   H17 4609   6.558   2.489   4.821 -0.8180 -0.1940 -0.6575
   47CHL1   C13 4610   6.706   2.492   4.972  0.4770 -0.5021  0.0922
   47CHL1   C18 4611   6.863   2.523   5.002 -0.2736 -0.1807 -0.0869
   47CHL1  H18A 4612   6.890   2.502   5.107  1.3690 -0.6193 -0.5696
   47CHL1  H18B 4613   6.932   2.466   4.936 -0.2099 -0.1389 -0.0559
   47CHL1  H18C 4614   6.879   2.631   4.980 -0.7144 -0.0248  0.3513
   47CHL1   C12 4615   6.613   2.574   5.056  0.3165 -0.1112  0.1584
   47CHL1  H12A 4616   6.635   2.683   5.049 -2.6004  0.5801  0.4810
   47CHL1  H12B 4617   6.508   2.555   5.026  0.4430 -0.5036 -0.0406
   47CHL1   C11 4618   6.637   2.552   5.200  0.1751 -0.5165  0.0195
   47CHL1  H11A 4619   6.738   2.596   5.219  0.6782 -1.9501  0.7712
   47CHL1  H11B 4620   6.566   2.611   5.262  1.6848 -0.2432  1.5797
   47CHL1    C9 4621   6.638   2.401   5.243  0.5096 -0.2809  0.4172
   47CHL1    H9 4622   6.532   2.376   5.220  0.3149  0.9346 -0.0808
   47CHL1   C10 4623   6.660   2.379   5.396  0.6538 -0.0494 -0.3889
   47CHL1   C19 4624   6.786   2.454   5.445  0.0597  0.6086 -0.3799
   47CHL1  H19A 4625   6.824   2.430   5.547 -2.6563  3.4789  1.4652
   47CHL1  H19B 4626   6.867   2.450   5.369 -0.1716  1.7321 -0.6936
   47CHL1  H19C 4627   6.758   2.560   5.460 -0.9069  0.4970 -1.3665
   47CHL1    C1 4628   6.535   2.439   5.471  0.2206 -0.2424  0.4039
   47CHL1   H1A 4629   6.525   2.549   5.460  0.0533 -0.3829 -1.1917
   47CHL1   H1B 4630   6.448   2.384   5.429  2.0430 -2.6507 -0.4690
   47CHL1    C2 4631   6.531   2.406   5.620  0.4286  0.0756 -0.0125
   47CHL1   H2A 4632   6.437   2.449   5.661 -0.4013  0.3248 -2.0189
   47CHL1   H2B 4633   6.623   2.457   5.656  1.3618 -1.1664 -0.5511
   47CHL1   C20 4634   6.719   2.605   4.736  0.0777  0.0723 -0.1284
   47CHL1   H20 4635   6.828   2.624   4.743  0.0846  2.0208 -3.3356
   47CHL1   C21 4636   6.660   2.740   4.786 -0.2987  0.4925 -0.4191
   47CHL1  H21A 4637   6.678   2.822   4.713 -1.4500  0.8702 -0.2968
   47CHL1  H21B 4638   6.712   2.771   4.880  0.0017  4.0426 -1.6315
   47CHL1  H21C 4639   6.551   2.745   4.803 -0.5467  2.3318 -2.2074
   47CHL1   C22 4640   6.684   2.568   4.583 -0.1013 -0.1986 -0.8914
   47CHL1  H22A 4641   6.749   2.487   4.543  0.6179 -1.0116  1.7153
   47CHL1  H22B 4642   6.575   2.545   4.580 -0.3765  1.0961 -1.0765
   47CHL1   C23 4643   6.719   2.678   4.483  0.1103  0.1413  0.3957
   47CHL1  H23A 4644   6.685   2.774   4.527 -2.1000 -0.9644  1.2229
   47CHL1  H23B 4645   6.829   2.679   4.463  0.0811  0.6691  0.2429
   47CHL1   C24 4646   6.654   2.660   4.349  0.2727 -0.0373  1.1455
   47CHL1  H24A 4647   6.547   2.635   4.369  0.1322 -2.7892 -2.0663
   47CHL1  H24B 4648   6.662   2.751   4.285  2.7778 -1.3547 -0.6044
   47CHL1   C25 4649   6.700   2.527   4.280 -0.9304  0.1962  0.0822
   47CHL1   H25 4650   6.675   2.442   4.346 -2.4695  1.8899  1.8219
   47CHL1   C26 4651   6.609   2.513   4.154  0.6923 -0.8454  0.4630
   47CHL1  H26A 4652   6.585   2.409   4.122 -0.2570 -0.4417 -0.1720
   47CHL1  H26B 4653   6.511   2.564   4.167  2.2310  1.9215  2.3805
   47CHL1  H26C 4654   6.663   2.574   4.078 -0.5857  2.0971  1.7449
   47CHL1   C27 4655   6.847   2.529   4.235 -0.3446  0.2985  0.2768
   47CHL1  H27A 4656   6.859   2.619   4.171  0.2825 -0.2218 -0.3573
   47CHL1  H27B 4657   6.913   2.549   4.323 -0.5662 -1.5267  0.9092
   47CHL1  H27C 4658   6.889   2.449   4.170 -1.6288  0.4874 -0.8201
   48CHL1    C3 4659   3.212   3.905   5.912 -0.2369  0.0354 -1.0523
   48CHL1    H3 4660   3.221   4.014   5.927  2.1957 -0.3364  0.8144
   48CHL1    O3 4661   3.218   3.842   6.042  0.5228 -0.4431  0.0420
   48CHL1   H3' 4662   3.143   3.874   6.093 -0.6320 -1.9593 -0.6190
   48CHL1    C4 4663   3.084   3.861   5.850  0.1041 -0.5337 -0.2298
   48CHL1   H4A 4664   3.059   3.753   5.857 -1.0634 -0.1930  1.6898
   48CHL1   H4B 4665   3.003   3.909   5.909  0.2670 -0.7672  0.1892
   48CHL1    C5 4666   3.054   3.898   5.705 -0.1861  0.5524  0.8800
   48CHL1    C6 4667   2.955   3.981   5.666  0.5510  0.2805 -0.0465
   48CHL1    H6 4668   2.897   4.028   5.747  0.1444  1.0162 -0.7512
   48CHL1    C7 4669   2.916   4.011   5.522  0.5597  0.0644 -0.3180
   48CHL1   H7A 4670   2.807   3.997   5.508  0.2213  0.3538  1.7811
   48CHL1   H7B 4671   2.942   4.114   5.488  0.9343  0.0027 -0.2238
   48CHL1    C8 4672   2.993   3.914   5.423 -0.6469 -0.6200 -0.4118
   48CHL1    H8 4673   2.937   3.818   5.432 -0.5711 -0.5828  0.5689
   48CHL1   C14 4674   2.987   3.966   5.283  0.9823  0.1400  0.1448
   48CHL1   H14 4675   3.038   4.065   5.280 -2.2671  1.9576 -2.9275
   48CHL1   C15 4676   2.847   3.989   5.223  0.6350  0.0908  0.0912
   48CHL1  H15A 4677   2.775   3.908   5.247 -1.2143  1.9343  1.1021
   48CHL1  H15B 4678   2.806   4.086   5.257  0.5293  0.1248 -0.1271
   48CHL1   C16 4679   2.858   3.977   5.069 -0.7641  0.0972  0.0054
   48CHL1  H16A 4680   2.794   3.893   5.036  1.1165 -1.0693 -0.8308
   48CHL1  H16B 4681   2.842   4.072   5.013  1.1811  0.9617  0.7913
   48CHL1   C17 4682   3.012   3.945   5.050  0.0384 -0.7070  0.2211
   48CHL1   H17 4683   3.061   4.044   5.046 -3.4152  1.1414 -0.6598
   48CHL1   C13 4684   3.059   3.879   5.183  0.9293  0.1982  0.4092
   48CHL1   C18 4685   3.007   3.728   5.188 -0.3644  0.0916  0.7807
   48CHL1  H18A 4686   3.070   3.665   5.122  0.3237  0.6885  0.8471
   48CHL1  H18B 4687   3.000   3.677   5.286  0.9128 -1.0097  0.3228
   48CHL1  H18C 4688   2.906   3.731   5.142 -0.0127 -2.6630 -0.3530
   48CHL1   C12 4689   3.218   3.883   5.218 -0.1246 -0.4465 -0.1782
   48CHL1  H12A 4690   3.268   3.821   5.141 -1.3630 -0.2909 -1.1490
   48CHL1  H12B 4691   3.245   3.990   5.203 -0.1456 -0.4566 -0.2880
   48CHL1   C11 4692   3.234   3.834   5.365 -0.8908 -0.5901  0.3918
   48CHL1  H11A 4693   3.216   3.725   5.375 -1.3096 -0.4182  1.6800
   48CHL1  H11B 4694   3.342   3.848   5.390 -0.2920 -1.5433 -1.4593
   48CHL1    C9 4695   3.144   3.900   5.470 -0.4222  0.2561 -0.2594
   48CHL1    H9 4696   3.181   4.005   5.472 -0.4466  0.2663 -0.3112
   48CHL1   C10 4697   3.157   3.841   5.615  0.3469  0.0883  0.3670
   48CHL1   C19 4698   3.121   3.681   5.619 -0.4967  0.0780  0.1990
   48CHL1  H19A 4699   3.147   3.635   5.717 -2.1683 -0.6870  0.3079
   48CHL1  H19B 4700   3.017   3.655   5.591 -1.1413  1.2941  1.3665
   48CHL1  H19C 4701   3.185   3.629   5.544 -0.8264 -0.9915  0.6380
   48CHL1    C1 4702   3.300   3.871   5.668 -0.3478  0.0054 -0.4685
   48CHL1   H1A 4703   3.372   3.808   5.611 -0.4666 -1.2063  0.6552
   48CHL1   H1B 4704   3.331   3.976   5.653 -1.4388  0.4060 -0.0024
   48CHL1    C2 4705   3.320   3.838   5.820 -0.1278  0.3209 -0.2978
   48CHL1   H2A 4706   3.422   3.861   5.857 -0.4143  0.5489  0.3436
   48CHL1   H2B 4707   3.316   3.727   5.823  2.1646  0.1706 -0.8018
   48CHL1   C20 4708   3.051   3.870   4.920  0.6338  0.4153  0.6108
   48CHL1   H20 4709   3.055   3.760   4.935 -0.7474 -0.1490 -2.4929
   48CHL1   C21 4710   3.177   3.917   4.853 -0.4995 -0.1518 -0.2118
   48CHL1  H21A 4711   3.160   4.021   4.817  1.5843  1.1996  2.3364
   48CHL1  H21B 4712   3.255   3.925   4.932  0.5681  1.7420 -1.3989
   48CHL1  H21C 4713   3.211   3.851   4.771  0.2710 -1.3873  1.0500
   48CHL1   C22 4714   2.936   3.879   4.809  0.3993  0.0113 -0.6110
   48CHL1  H22A 4715   2.849   3.823   4.848  0.7207  1.7936  3.1239
   48CHL1  H22B 4716   2.928   3.989   4.798 -0.0292  0.1813  1.0869
   48CHL1   C23 4717   2.973   3.814   4.674 -0.4968  0.7411  0.0111
   48CHL1  H23A 4718   3.057   3.867   4.624 -0.2599 -0.5673 -1.0665
   48CHL1  H23B 4719   3.008   3.712   4.701 -1.9311  0.0240 -0.6997
   48CHL1   C24 4720   2.846   3.800   4.583 -0.0421  0.2639 -0.1015
   48CHL1  H24A 4721   2.885   3.744   4.495  2.9880  1.1081  0.5717
   48CHL1  H24B 4722   2.777   3.728   4.632  0.8977  0.6097  1.8257
   48CHL1   C25 4723   2.779   3.933   4.556  0.4977 -0.3115 -0.5880
   48CHL1   H25 4724   2.743   3.968   4.655  2.0817 -1.9464  0.6589
   48CHL1   C26 4725   2.877   4.029   4.494 -0.3556 -0.9251  0.2321
   48CHL1  H26A 4726   2.929   3.982   4.408  0.7126 -0.3796  0.5568
   48CHL1  H26B 4727   2.825   4.118   4.452  0.2967 -1.5686 -2.0526
   48CHL1  H26C 4728   2.944   4.064   4.576  0.2918  0.1669 -0.7417
   48CHL1   C27 4729   2.656   3.930   4.461 -0.2428  0.0341 -0.6900
   48CHL1  H27A 4730   2.685   3.890   4.361  0.4784 -1.1091 -0.0588
   48CHL1  H27B 4731   2.588   3.852   4.501 -0.5112  0.2573 -0.7128
   48CHL1  H27C 4732   2.607   4.029   4.457 -0.8241 -0.3068 -2.8494
   49CHL1    C3 4733   0.052   3.510   2.686  0.3374 -0.0769  0.7395
   49CHL1    H3 4734  -0.048   3.552   2.711  0.1480  0.6880 -1.1443
   49CHL1    O3 4735   0.063   3.505   2.546 -0.0191  0.0525  0.3137
   49CHL1   H3' 4736   0.150   3.472   2.523  0.5281  0.1036  2.1356
   49CHL1    C4 4737   0.162   3.596   2.744  0.1282  0.3317 -0.1738
   49CHL1   H4A 4738   0.264   3.555   2.732  0.0082 -0.4661  1.3468
   49CHL1   H4B 4739   0.154   3.701   2.708  2.0979  1.3995  2.2739
   49CHL1    C5 4740   0.139   3.599   2.893 -0.1121 -0.3330  0.1025
   49CHL1    C6 4741   0.121   3.715   2.963  0.0070  0.1533 -0.8406
   49CHL1    H6 4742   0.126   3.810   2.908  2.3074 -0.2690 -1.4672
   49CHL1    C7 4743   0.092   3.728   3.113  0.5136 -0.0122 -0.9007
   49CHL1   H7A 4744   0.132   3.824   3.151 -1.5966  1.4971 -2.2596
   49CHL1   H7B 4745  -0.018   3.726   3.131  0.4305  1.7842 -1.0571
   49CHL1    C8 4746   0.148   3.600   3.187  0.5985  0.0410  0.1500
   49CHL1    H8 4747   0.259   3.606   3.189  0.6790 -1.1821  2.6677
   49CHL1   C14 4748   0.104   3.599   3.330  0.4938  0.4052  0.4406
   49CHL1   H14 4749  -0.007   3.595   3.322  0.5320 -3.4517 -0.2232
   49CHL1   C15 4750   0.137   3.713   3.418  0.2131  0.2301 -0.2040
   49CHL1  H15A 4751   0.245   3.735   3.416 -0.1171  1.8791 -1.6862
   49CHL1  H15B 4752   0.077   3.803   3.395  1.1800  1.1891  0.9043
   49CHL1   C16 4753   0.095   3.655   3.557 -0.0578  0.7631  0.0699
   49CHL1  H16A 4754   0.165   3.697   3.633 -1.2191 -0.9550  2.2198
   49CHL1  H16B 4755  -0.004   3.693   3.588  0.3280  0.6326  1.5279
   49CHL1   C17 4756   0.077   3.505   3.553  0.5029 -0.7813 -0.3890
   49CHL1   H17 4757  -0.030   3.479   3.537  0.7988 -1.8440 -0.6697
   49CHL1   C13 4758   0.139   3.470   3.415  0.4596  0.0806  0.8392
   49CHL1   C18 4759   0.298   3.465   3.436 -0.4719  0.2940  0.3830
   49CHL1  H18A 4760   0.320   3.368   3.487 -3.4876 -0.2981  0.7643
   49CHL1  H18B 4761   0.354   3.470   3.340 -2.2011 -1.2848 -0.7708
   49CHL1  H18C 4762   0.330   3.551   3.497  0.9137  0.5067 -0.5927
   49CHL1   C12 4763   0.080   3.346   3.351 -0.4270 -1.0894 -0.2407
   49CHL1  H12A 4764   0.106   3.248   3.396 -1.3416 -1.0032  0.4965
   49CHL1  H12B 4765  -0.031   3.349   3.345 -0.3338  1.3449 -2.0136
   49CHL1   C11 4766   0.130   3.334   3.200  0.0769 -0.7533 -0.0124
   49CHL1  H11A 4767   0.239   3.331   3.217 -0.1420  0.3199  1.8160
   49CHL1  H11B 4768   0.096   3.237   3.156 -0.6298 -1.4751  1.9954
   49CHL1    C9 4769   0.095   3.468   3.115  0.0047 -0.6126  0.0936
   49CHL1    H9 4770  -0.015   3.475   3.117  0.0386 -0.1459  0.4024
   49CHL1   C10 4771   0.141   3.463   2.970  0.3805  0.4583 -0.6303
   49CHL1   C19 4772   0.291   3.418   2.963 -0.4104 -0.0326 -0.8459
   49CHL1  H19A 4773   0.332   3.429   2.860  0.8909 -0.1367 -0.3559
   49CHL1  H19B 4774   0.356   3.489   3.018 -0.0015 -1.9379  1.2636
   49CHL1  H19C 4775   0.303   3.321   3.016  2.0958  1.5105  1.6795
   49CHL1    C1 4776   0.048   3.360   2.898 -0.4313  0.3846  0.6422
   49CHL1   H1A 4777   0.088   3.264   2.938  0.1271  0.8001  1.0884
   49CHL1   H1B 4778  -0.058   3.375   2.930 -0.2552  1.3914  0.7906
   49CHL1    C2 4779   0.067   3.369   2.741  0.1478 -0.3884 -0.2492
   49CHL1   H2A 4780  -0.016   3.311   2.697 -1.4394  3.4522 -2.9052
   49CHL1   H2B 4781   0.164   3.333   2.701  0.8087  2.8344 -1.9192
   49CHL1   C20 4782   0.123   3.424   3.671 -0.0996  0.2846  0.4881
   49CHL1   H20 4783   0.144   3.318   3.647 -1.1053  0.4014 -0.9778
   49CHL1   C21 4784   0.006   3.429   3.765  0.3785  0.0657  0.0131
   49CHL1  H21A 4785  -0.003   3.531   3.809 -1.1280  0.1554 -0.4403
   49CHL1  H21B 4786   0.028   3.365   3.853 -0.0961 -2.5923 -1.7060
   49CHL1  H21C 4787  -0.096   3.405   3.730  0.2720  0.5404 -0.0182
   49CHL1   C22 4788   0.240   3.480   3.754 -0.7536 -0.4435  0.5758
   49CHL1  H22A 4789   0.329   3.491   3.689 -0.6543 -0.1090  0.7620
   49CHL1  H22B 4790   0.209   3.581   3.788 -1.2965 -0.1198 -0.8346
   49CHL1   C23 4791   0.293   3.401   3.871 -0.3530 -0.1941  0.4345
   49CHL1  H23A 4792   0.220   3.387   3.954 -0.8185 -1.4013 -0.1573
   49CHL1  H23B 4793   0.317   3.297   3.840 -0.2923  0.3805 -1.5579
   49CHL1   C24 4794   0.420   3.467   3.938  0.0576  0.2971  0.3494
   49CHL1  H24A 4795   0.516   3.437   3.892  0.8990  0.5052  1.9131
   49CHL1  H24B 4796   0.410   3.575   3.914  0.0737  0.9809  3.0667
   49CHL1   C25 4797   0.440   3.450   4.089 -0.1676  0.6960 -0.4931
   49CHL1   H25 4798   0.342   3.456   4.142 -0.6734 -1.0402 -1.1622
   49CHL1   C26 4799   0.509   3.320   4.129 -0.8602 -0.0100 -0.1065
   49CHL1  H26A 4800   0.503   3.292   4.236  1.4741 -2.7200 -0.5486
   49CHL1  H26B 4801   0.468   3.235   4.071 -0.9215 -0.4186  0.5278
   49CHL1  H26C 4802   0.615   3.332   4.097 -0.6945 -0.4446  0.2686
   49CHL1   C27 4803   0.531   3.564   4.131 -0.1583 -0.1917  0.2993
   49CHL1  H27A 4804   0.500   3.670   4.115 -0.1571 -0.0829  1.0082
   49CHL1  H27B 4805   0.568   3.569   4.235  1.9458  0.2748 -0.4381
   49CHL1  H27C 4806   0.625   3.563   4.073  1.1002 -0.9022  2.2613
   50CHL1    C3 4807   0.717   1.327   2.774  0.4556 -0.1403  0.3081
   50CHL1    H3 4808   0.741   1.434   2.761  0.9765 -0.2658  0.2053
   50CHL1    O3 4809   0.700   1.263   2.648  0.3147  0.2940 -0.2537
   50CHL1   H3' 4810   0.711   1.168   2.660 -1.7061 -0.0184 -0.4512
   50CHL1    C4 4811   0.841   1.259   2.840 -0.0696 -0.8455 -0.3109
   50CHL1   H4A 4812   0.814   1.151   2.843 -4.5022  0.0780  0.7809
   50CHL1   H4B 4813   0.926   1.284   2.773 -2.2090  2.6462 -2.0137
   50CHL1    C5 4814   0.855   1.304   2.988 -0.0388  0.5885 -0.6171
   50CHL1    C6 4815   0.979   1.342   3.032 -0.1029  0.4590 -0.0897
   50CHL1    H6 4816   1.060   1.337   2.958 -2.3791 -0.2871 -2.7174
   50CHL1    C7 4817   1.006   1.383   3.175 -0.2428  0.1357  0.0092
   50CHL1   H7A 4818   1.106   1.346   3.207 -1.3386 -2.4221  0.7247
   50CHL1   H7B 4819   1.007   1.494   3.179 -0.8626  0.1870 -1.0227
   50CHL1    C8 4820   0.886   1.345   3.270  0.4614  0.0234 -0.4520
   50CHL1    H8 4821   0.893   1.236   3.288 -0.2724  0.3463  2.2471
   50CHL1   C14 4822   0.885   1.427   3.403 -0.2943  0.0622 -0.0980
   50CHL1   H14 4823   0.860   1.531   3.373  1.2414  0.6219  0.4664
   50CHL1   C15 4824   1.023   1.425   3.470 -0.1773 -0.1375  0.7320
   50CHL1  H15A 4825   1.074   1.326   3.464 -1.6140 -1.0324  2.1852
   50CHL1  H15B 4826   1.083   1.506   3.423 -1.2415 -0.2701 -0.9486
   50CHL1   C16 4827   0.984   1.450   3.617  0.0524  0.4652 -0.0452
   50CHL1  H16A 4828   1.017   1.359   3.672  1.5601 -0.3706 -2.2206
   50CHL1  H16B 4829   1.036   1.538   3.661 -0.2505 -0.8968  3.4019
   50CHL1   C17 4830   0.826   1.474   3.620  0.3059 -0.2300 -0.1630
   50CHL1   H17 4831   0.813   1.582   3.595  1.7667 -0.3234 -1.4794
   50CHL1   C13 4832   0.779   1.387   3.502 -0.1357 -0.2709  0.2184
   50CHL1   C18 4833   0.797   1.241   3.545 -0.3858 -0.4884  0.5843
   50CHL1  H18A 4834   0.773   1.181   3.455  0.6678 -0.7174  0.4433
   50CHL1  H18B 4835   0.900   1.210   3.574 -0.0770 -3.1957 -2.7693
   50CHL1  H18C 4836   0.722   1.213   3.621 -1.6994 -0.0962 -0.5228
   50CHL1   C12 4837   0.641   1.405   3.444  0.0983  0.7939  1.0730
   50CHL1  H12A 4838   0.570   1.361   3.518  1.4756 -3.6906  0.0449
   50CHL1  H12B 4839   0.617   1.513   3.450 -1.4827  0.5698 -0.3508
   50CHL1   C11 4840   0.623   1.337   3.306 -0.6548 -0.6763  0.4912
   50CHL1  H11A 4841   0.600   1.229   3.316  0.2080 -1.0683 -1.3394
   50CHL1  H11B 4842   0.536   1.393   3.265 -0.5426  0.1012  1.2855
   50CHL1    C9 4843   0.743   1.361   3.211 -0.3750 -0.1255 -0.1963
   50CHL1    H9 4844   0.737   1.472   3.206  0.7666  0.1619  2.5910
   50CHL1   C10 4845   0.727   1.304   3.069  0.3610  0.3957  0.4097
   50CHL1   C19 4846   0.680   1.153   3.083  0.3757  0.1830 -0.2079
   50CHL1  H19A 4847   0.690   1.072   3.008  1.4835 -0.4622  0.5979
   50CHL1  H19B 4848   0.742   1.110   3.166  1.1978  2.3248  0.3633
   50CHL1  H19C 4849   0.575   1.150   3.120  0.0208 -0.8472 -1.2499
   50CHL1    C1 4850   0.610   1.382   3.000 -0.5809  0.2636 -0.0769
   50CHL1   H1A 4851   0.514   1.364   3.054  0.3969 -0.0120  1.6554
   50CHL1   H1B 4852   0.627   1.491   2.987  1.5182 -0.1630 -1.3255
   50CHL1    C2 4853   0.586   1.319   2.859 -0.2346 -0.6135  0.0377
   50CHL1   H2A 4854   0.503   1.369   2.805 -0.3310 -0.1585  0.6112
   50CHL1   H2B 4855   0.572   1.208   2.862 -1.4347 -0.4529  2.6598
   50CHL1   C20 4856   0.772   1.447   3.764 -0.3220 -0.0545  0.2723
   50CHL1   H20 4857   0.765   1.337   3.783 -2.2430 -0.0669 -0.3043
   50CHL1   C21 4858   0.625   1.503   3.778 -0.4461 -0.5844  0.4469
   50CHL1  H21A 4859   0.602   1.489   3.885 -1.0286 -0.7990  0.2988
   50CHL1  H21B 4860   0.570   1.436   3.708  2.8062 -0.6527 -2.3243
   50CHL1  H21C 4861   0.625   1.611   3.751 -0.4111 -0.9149 -0.9905
   50CHL1   C22 4862   0.859   1.503   3.877  0.1139  0.4241  0.3858
   50CHL1  H22A 4863   0.817   1.454   3.967  1.1261 -3.0766 -0.9101
   50CHL1  H22B 4864   0.962   1.466   3.863  0.1746  1.1285 -1.4179
   50CHL1   C23 4865   0.867   1.658   3.883 -0.4111  0.0696 -0.2196
   50CHL1  H23A 4866   0.897   1.699   3.784 -3.6412 -0.0520 -1.3499
   50CHL1  H23B 4867   0.775   1.719   3.888  0.7311  2.0356 -1.5606
   50CHL1   C24 4868   0.974   1.698   3.984  0.7679 -0.0525  0.1524
   50CHL1  H24A 4869   1.069   1.657   3.945  1.2503 -0.3062  1.5315
   50CHL1  H24B 4870   0.995   1.807   3.991 -0.9053  0.2862  0.3420
   50CHL1   C25 4871   0.962   1.636   4.124  0.1905 -0.3020  0.1753
   50CHL1   H25 4872   0.972   1.526   4.109  1.0206 -0.0909 -0.9752
   50CHL1   C26 4873   1.070   1.672   4.216 -0.1778 -0.5391 -0.8660
   50CHL1  H26A 4874   1.038   1.652   4.321 -3.0308  2.2630 -1.0516
   50CHL1  H26B 4875   1.170   1.624   4.201  0.2764  0.2883 -0.5607
   50CHL1  H26C 4876   1.080   1.782   4.208  0.0898 -0.5122 -0.2349
   50CHL1   C27 4877   0.834   1.666   4.201  0.5158  0.0502  0.3341
   50CHL1  H27A 4878   0.751   1.642   4.131  0.1096  2.8373 -0.2473
   50CHL1  H27B 4879   0.823   1.611   4.297 -1.3639 -1.1153 -0.4834
   50CHL1  H27C 4880   0.822   1.776   4.208 -2.2991 -0.0280 -1.5177
   51CHL1    C3 4881   4.444   6.716   2.666 -0.4487  0.4999 -0.3746
   51CHL1    H3 4882   4.491   6.616   2.682 -1.7648  0.0998  1.3557
   51CHL1    O3 4883   4.465   6.762   2.530  0.1556 -0.6210  0.0578
   51CHL1   H3' 4884   4.431   6.689   2.479  0.8776 -1.8199  1.2155
   51CHL1    C4 4885   4.297   6.707   2.689 -0.3681  0.4829  0.2627
   51CHL1   H4A 4886   4.250   6.803   2.657 -3.4176  0.1512  3.1856
   51CHL1   H4B 4887   4.253   6.626   2.628 -1.5034  0.9574  0.4343
   51CHL1    C5 4888   4.256   6.689   2.832  0.5063 -0.3859  0.0945
   51CHL1    C6 4889   4.162   6.604   2.876 -0.1342 -0.1380  0.2043
   51CHL1    H6 4890   4.117   6.537   2.802 -0.0176  0.0727 -0.0570
   51CHL1    C7 4891   4.115   6.579   3.012  0.5266 -0.1301 -0.4339
   51CHL1   H7A 4892   4.006   6.564   3.001  0.3999  1.7389 -2.3757
   51CHL1   H7B 4893   4.158   6.484   3.050 -0.3742 -0.9447 -1.3974
   51CHL1    C8 4894   4.148   6.691   3.117  0.2150 -0.3348 -0.2512
   51CHL1    H8 4895   4.082   6.776   3.091  1.0764  0.2922 -0.4250
   51CHL1   C14 4896   4.115   6.650   3.257  0.4704  0.4979 -0.1323
   51CHL1   H14 4897   4.171   6.555   3.268  1.7392  1.4363  2.0752
   51CHL1   C15 4898   3.978   6.609   3.291  0.2515  0.0203 -0.3710
   51CHL1  H15A 4899   3.890   6.673   3.270 -0.7650 -0.1076  2.8284
   51CHL1  H15B 4900   3.953   6.511   3.244  1.3060  0.0776 -1.0608
   51CHL1   C16 4901   3.982   6.616   3.446 -0.8289  0.9586  0.4899
   51CHL1  H16A 4902   3.893   6.670   3.486 -2.2990 -0.2738 -0.9829
   51CHL1  H16B 4903   3.973   6.509   3.477  1.2329 -0.0312 -2.0143
   51CHL1   C17 4904   4.113   6.691   3.486 -0.6730 -0.4506  0.3752
   51CHL1   H17 4905   4.191   6.617   3.511  0.0444  1.0500  2.8899
   51CHL1   C13 4906   4.160   6.757   3.354  0.4989  0.6123  0.2534
   51CHL1   C18 4907   4.086   6.894   3.342 -0.8168  0.4909 -0.6428
   51CHL1  H18A 4908   4.132   6.963   3.417 -1.6569 -1.1789  1.5131
   51CHL1  H18B 4909   4.107   6.941   3.244  0.5175  0.6227 -0.3215
   51CHL1  H18C 4910   3.976   6.883   3.348 -0.4869 -3.1134  2.6817
   51CHL1   C12 4911   4.313   6.777   3.341 -0.7651  0.7740 -0.7616
   51CHL1  H12A 4912   4.365   6.845   3.412 -0.1694  0.7107 -1.1207
   51CHL1  H12B 4913   4.345   6.672   3.359  0.3473  0.5981 -3.3497
   51CHL1   C11 4914   4.356   6.814   3.204  0.2843  1.0169  0.3875
   51CHL1  H11A 4915   4.329   6.922   3.196 -2.1980  0.4464  0.2172
   51CHL1  H11B 4916   4.466   6.802   3.199  0.0994 -0.8468  0.2678
   51CHL1    C9 4917   4.295   6.729   3.091  0.1452 -0.1155 -0.0706
   51CHL1    H9 4918   4.351   6.634   3.099 -0.6093 -0.7662 -2.0174
   51CHL1   C10 4919   4.318   6.775   2.944 -0.8073 -0.5661  1.0704
   51CHL1   C19 4920   4.260   6.916   2.926 -0.0949  0.3819 -0.6142
   51CHL1  H19A 4921   4.278   6.951   2.822  1.3749 -1.0435 -0.8767
   51CHL1  H19B 4922   4.150   6.920   2.940  0.0435 -1.6178  1.9157
   51CHL1  H19C 4923   4.302   6.988   3.000  0.4747 -1.6123  1.0978
   51CHL1    C1 4924   4.473   6.783   2.909  0.2747 -0.0453 -0.5516
   51CHL1   H1A 4925   4.510   6.861   2.979  0.2853 -1.2955  0.8801
   51CHL1   H1B 4926   4.521   6.685   2.929 -0.7576 -0.7612 -1.4336
   51CHL1    C2 4927   4.503   6.816   2.764 -0.2591 -0.6224 -0.1814
   51CHL1   H2A 4928   4.613   6.823   2.748 -0.7328  0.7709 -3.5236
   51CHL1   H2B 4929   4.466   6.919   2.749  3.0083  0.4682 -1.7285
   51CHL1   C20 4930   4.094   6.773   3.620  0.4561  0.5967 -0.0572
   51CHL1   H20 4931   4.011   6.843   3.598 -0.2370 -0.5581 -1.3061
   51CHL1   C21 4932   4.218   6.859   3.653  0.5032  0.8393 -1.3087
   51CHL1  H21A 4933   4.205   6.891   3.759  0.3247 -1.2972 -0.6323
   51CHL1  H21B 4934   4.232   6.944   3.584 -1.5667  2.2546 -0.0856
   51CHL1  H21C 4935   4.308   6.794   3.662 -0.4915 -0.3019  1.9704
   51CHL1   C22 4936   4.059   6.675   3.738  0.5989  0.4200 -0.1318
   51CHL1  H22A 4937   3.975   6.607   3.712 -0.1373  1.3438 -0.2198
   51CHL1  H22B 4938   4.148   6.617   3.769 -1.0758 -2.5935 -0.5758
   51CHL1   C23 4939   4.019   6.735   3.875  0.7082  0.3066 -0.0155
   51CHL1  H23A 4940   4.094   6.804   3.918  0.3364 -0.4681  2.0168
   51CHL1  H23B 4941   3.926   6.793   3.857 -0.2529 -0.9711  0.6096
   51CHL1   C24 4942   3.995   6.623   3.983 -0.4570 -0.3273  1.0654
   51CHL1  H24A 4943   3.942   6.541   3.930 -0.9131  0.1059  0.8502
   51CHL1  H24B 4944   4.096   6.579   4.002  0.9365  2.0916 -0.3591
   51CHL1   C25 4945   3.932   6.666   4.116 -0.0003 -0.1021 -0.1992
   51CHL1   H25 4946   3.835   6.715   4.090 -0.3000  0.4335  1.7835
   51CHL1   C26 4947   3.891   6.540   4.202 -0.3043 -0.3287  0.5639
   51CHL1  H26A 4948   3.979   6.495   4.253  1.1918 -1.3038 -2.6067
   51CHL1  H26B 4949   3.814   6.557   4.280 -1.4323 -2.6211  0.0628
   51CHL1  H26C 4950   3.860   6.455   4.136  0.7148 -0.1025 -0.2385
   51CHL1   C27 4951   4.011   6.767   4.201 -0.4270  0.0380  0.5789
   51CHL1  H27A 4952   3.971   6.791   4.302 -1.8428  0.8926 -0.1455
   51CHL1  H27B 4953   4.114   6.728   4.214  0.1562  0.4109 -2.1973
   51CHL1  H27C 4954   4.010   6.866   4.150 -0.6932 -0.6636 -0.8381
   52CHL1    C3 4955   5.389   0.811   2.611 -0.5947 -0.1085 -0.4170
   52CHL1    H3 4956   5.474   0.759   2.660 -0.3753 -1.6649 -2.3376
   52CHL1    O3 4957   5.392   0.786   2.470 -0.1012 -1.1138 -0.4206
   52CHL1   H3' 4958   5.316   0.838   2.442 -1.6148 -2.9364  0.0828
   52CHL1    C4 4959   5.263   0.742   2.685  0.1857 -0.3740 -0.0988
   52CHL1   H4A 4960   5.172   0.788   2.641 -0.2803 -0.3530  0.8590
   52CHL1   H4B 4961   5.265   0.633   2.664 -0.7671 -0.1260 -1.6459
   52CHL1    C5 4962   5.279   0.776   2.832  0.0800 -0.0776 -0.5039
   52CHL1    C6 4963   5.303   0.682   2.926  0.6478  0.6352  0.5917
   52CHL1    H6 4964   5.289   0.578   2.895  0.9499  0.8715 -0.3563
   52CHL1    C7 4965   5.316   0.710   3.078 -0.6507 -0.4270  0.2723
   52CHL1   H7A 4966   5.255   0.635   3.133  0.1619 -2.1512 -1.0664
   52CHL1   H7B 4967   5.424   0.703   3.106 -0.4192  0.7229 -0.2981
   52CHL1    C8 4968   5.264   0.853   3.101  0.6377  0.5182  0.1333
   52CHL1    H8 4969   5.153   0.851   3.102  0.6508 -0.4224  0.6205
   52CHL1   C14 4970   5.312   0.883   3.244  0.5898  0.4596  0.5199
   52CHL1   H14 4971   5.422   0.900   3.248  0.9037 -1.3494  0.3017
   52CHL1   C15 4972   5.297   0.779   3.350 -0.2903  0.5108  0.9423
   52CHL1  H15A 4973   5.196   0.735   3.336  0.1124  0.1896 -1.4015
   52CHL1  H15B 4974   5.368   0.696   3.332 -0.9341 -0.1505  1.4031
   52CHL1   C16 4975   5.320   0.856   3.485 -0.5066 -0.9186  0.2812
   52CHL1  H16A 4976   5.235   0.829   3.551 -0.6710  1.3977  1.1144
   52CHL1  H16B 4977   5.423   0.830   3.517  1.3854  2.2007 -2.6049
   52CHL1   C17 4978   5.322   1.005   3.442 -0.1920 -0.0418 -0.0622
   52CHL1   H17 4979   5.429   1.032   3.429 -0.5803  1.8828  0.3610
   52CHL1   C13 4980   5.260   1.011   3.304  0.5452  0.5452 -0.2855
   52CHL1   C18 4981   5.102   0.996   3.330 -0.1061 -0.7515 -0.7202
   52CHL1  H18A 4982   5.056   0.980   3.230  1.3504 -0.5058 -1.4587
   52CHL1  H18B 4983   5.071   0.917   3.402 -0.8758  0.4944  0.3632
   52CHL1  H18C 4984   5.059   1.087   3.377 -0.0037 -0.8978 -0.3345
   52CHL1   C12 4985   5.302   1.130   3.220  0.4583 -0.5317 -0.0680
   52CHL1  H12A 4986   5.239   1.219   3.242 -1.9972 -2.3150  0.5867
   52CHL1  H12B 4987   5.409   1.158   3.225 -0.0003  1.1951  1.0779
   52CHL1   C11 4988   5.266   1.105   3.068  0.5435  0.2583 -0.7446
   52CHL1  H11A 4989   5.156   1.089   3.059  0.9383 -1.4637 -3.3818
   52CHL1  H11B 4990   5.308   1.188   3.008  2.4097  0.1507  0.3307
   52CHL1    C9 4991   5.314   0.963   3.012  0.2171 -1.2366 -0.5673
   52CHL1    H9 4992   5.425   0.967   3.023  0.4399 -2.8712 -1.9332
   52CHL1   C10 4993   5.283   0.926   2.869  0.1993 -0.1924  0.2309
   52CHL1   C19 4994   5.142   0.973   2.831  0.0069 -0.2105 -0.6092
   52CHL1  H19A 4995   5.128   0.969   2.721  0.1993  0.0104 -0.6418
   52CHL1  H19B 4996   5.069   0.906   2.883  1.3834 -1.3966 -0.1456
   52CHL1  H19C 4997   5.118   1.077   2.861  2.4643 -0.0952  1.2752
   52CHL1    C1 4998   5.378   1.001   2.781  0.4279 -0.5886  0.3877
   52CHL1   H1A 4999   5.357   1.109   2.797 -1.4106 -1.0465  1.3396
   52CHL1   H1B 5000   5.480   0.990   2.823  0.4569  1.1174  0.8457
   52CHL1    C2 5001   5.376   0.961   2.630  0.5514  0.3722 -0.3302
   52CHL1   H2A 5002   5.468   1.007   2.586  1.9649 -1.3054  0.7618
   52CHL1   H2B 5003   5.285   0.996   2.577  2.1564  0.4125 -3.2900
   52CHL1   C20 5004   5.281   1.098   3.555 -0.4761  0.0127 -0.6296
   52CHL1   H20 5005   5.185   1.059   3.594  0.1482 -2.2478 -1.1672
   52CHL1   C21 5006   5.257   1.247   3.508 -0.6673 -0.3714 -0.3477
   52CHL1  H21A 5007   5.356   1.276   3.466 -0.7655 -1.2141 -1.1836
   52CHL1  H21B 5008   5.242   1.324   3.587  1.5151  2.1701 -2.2219
   52CHL1  H21C 5009   5.176   1.271   3.437 -0.3042  1.1710 -0.2946
   52CHL1   C22 5010   5.378   1.089   3.671  0.6856  0.5295  0.0827
   52CHL1  H22A 5011   5.387   0.984   3.707 -0.6045  0.6189  0.7282
   52CHL1  H22B 5012   5.476   1.130   3.638  0.3689  0.1410 -1.4032
   52CHL1   C23 5013   5.327   1.171   3.795  0.3736  0.8543  0.3770
   52CHL1  H23A 5014   5.327   1.277   3.762  1.3010  1.1260  1.1614
   52CHL1  H23B 5015   5.226   1.146   3.832  0.7542  0.4029  1.1559
   52CHL1   C24 5016   5.411   1.151   3.916 -0.1656  0.1871 -0.8114
   52CHL1  H24A 5017   5.432   1.045   3.942  0.2248  0.9097  2.0981
   52CHL1  H24B 5018   5.505   1.209   3.908 -0.4927  1.1581  1.5455
   52CHL1   C25 5019   5.358   1.226   4.040  0.0181 -0.4816  0.4937
   52CHL1   H25 5020   5.265   1.168   4.058  0.2136 -0.7348  0.6866
   52CHL1   C26 5021   5.441   1.216   4.167 -0.0706  0.0681 -0.1646
   52CHL1  H26A 5022   5.399   1.289   4.240 -0.2621  1.1207 -1.2858
   52CHL1  H26B 5023   5.431   1.111   4.201 -0.0582  0.0032 -0.3617
   52CHL1  H26C 5024   5.545   1.246   4.140  0.3012 -3.2548 -3.0615
   52CHL1   C27 5025   5.333   1.382   4.011  0.8237 -0.2153 -0.3151
   52CHL1  H27A 5026   5.432   1.430   3.998 -0.1220  2.4001  1.2617
   52CHL1  H27B 5027   5.273   1.397   3.919 -0.1443 -1.3835  0.0933
   52CHL1  H27C 5028   5.278   1.422   4.099  0.9499 -2.6134  0.9330
   53CHL1    C3 5029   3.306   1.500   2.441  0.4907 -0.3254 -0.3320
   53CHL1    H3 5030   3.197   1.510   2.460  0.7011  2.6388 -0.2247
   53CHL1    O3 5031   3.308   1.480   2.305 -0.7100  0.2072  0.2368
   53CHL1   H3' 5032   3.401   1.464   2.285  0.0092  1.6567  2.1422
   53CHL1    C4 5033   3.370   1.634   2.486 -0.1745  0.2316 -0.0005
   53CHL1   H4A 5034   3.468   1.638   2.435  0.3040 -0.9749  0.7698
   53CHL1   H4B 5035   3.304   1.706   2.432  1.7343  1.1592 -1.1905
   53CHL1    C5 5036   3.371   1.648   2.637 -0.0766 -0.2762  0.2668
   53CHL1    C6 5037   3.315   1.760   2.689  0.5834  0.3046  0.6206
   53CHL1    H6 5038   3.274   1.837   2.621 -0.8421 -0.0139  1.0736
   53CHL1    C7 5039   3.299   1.782   2.835 -0.4254  0.1315  0.2167
   53CHL1   H7A 5040   3.337   1.884   2.857  1.6392  0.1104 -2.6617
   53CHL1   H7B 5041   3.192   1.783   2.865  0.0793 -0.9955  2.2615
   53CHL1    C8 5042   3.379   1.683   2.920 -0.0911 -0.9146 -0.1105
   53CHL1    H8 5043   3.484   1.717   2.930 -0.0770 -1.1548  0.6944
   53CHL1   C14 5044   3.318   1.673   3.058 -0.1363 -0.3200  0.0532
   53CHL1   H14 5045   3.213   1.639   3.061  0.1138 -1.0646  1.4014
   53CHL1   C15 5046   3.306   1.807   3.136  0.4768 -0.4364  0.1779
   53CHL1  H15A 5047   3.400   1.865   3.121  0.0645  0.2815  0.3250
   53CHL1  H15B 5048   3.225   1.868   3.091  0.1919 -1.0473 -0.1439
   53CHL1   C16 5049   3.290   1.751   3.278  0.5769 -0.3062 -0.2599
   53CHL1  H16A 5050   3.365   1.804   3.342 -0.9018  1.9407 -0.2737
   53CHL1  H16B 5051   3.189   1.777   3.315  0.8712 -0.6963  0.8557
   53CHL1   C17 5052   3.319   1.602   3.285  0.2462  0.7218  0.7302
   53CHL1   H17 5053   3.218   1.558   3.267  0.2484 -0.9525  4.0922
   53CHL1   C13 5054   3.391   1.577   3.154  0.1671  0.6580 -0.2767
   53CHL1   C18 5055   3.539   1.619   3.180 -0.1537 -0.1642 -0.0666
   53CHL1  H18A 5056   3.592   1.621   3.082 -0.4445 -0.3150 -0.2250
   53CHL1  H18B 5057   3.548   1.721   3.223 -0.6077  0.6198 -1.7817
   53CHL1  H18C 5058   3.578   1.543   3.252 -2.3496 -0.8888  0.4239
   53CHL1   C12 5059   3.371   1.432   3.103  0.9497  0.4266  0.2361
   53CHL1  H12A 5060   3.435   1.362   3.162 -0.4755 -3.4953 -2.4370
   53CHL1  H12B 5061   3.263   1.408   3.095  1.0455 -0.0501  0.3312
   53CHL1   C11 5062   3.419   1.426   2.952  0.3834  0.1144 -0.6152
   53CHL1  H11A 5063   3.529   1.444   2.956  0.3364  1.0296 -2.6314
   53CHL1  H11B 5064   3.387   1.328   2.910  0.1850 -0.2260  0.3021
   53CHL1    C9 5065   3.366   1.541   2.862 -0.0778 -0.0872  0.5599
   53CHL1    H9 5066   3.256   1.530   2.860  0.1270 -2.6340 -1.8037
   53CHL1   C10 5067   3.418   1.529   2.718  0.3739  0.0155  0.5714
   53CHL1   C19 5068   3.572   1.540   2.708  0.4651  0.1945  0.1287
   53CHL1  H19A 5069   3.599   1.547   2.600 -1.3516  0.3750 -0.3486
   53CHL1  H19B 5070   3.609   1.628   2.764  0.3858  1.0588 -1.1263
   53CHL1  H19C 5071   3.622   1.452   2.754 -1.7454 -1.1578  0.1124
   53CHL1    C1 5072   3.366   1.404   2.656 -0.1403  0.0559 -0.0301
   53CHL1   H1A 5073   3.423   1.320   2.701  0.3879 -0.4580 -1.5824
   53CHL1   H1B 5074   3.259   1.385   2.678 -0.5705  1.5502 -0.6696
   53CHL1    C2 5075   3.379   1.381   2.506 -0.3604 -0.6930 -0.0115
   53CHL1   H2A 5076   3.336   1.280   2.487  1.1439 -1.2908 -0.3339
   53CHL1   H2B 5077   3.482   1.384   2.465 -0.4121  0.4884 -0.1104
   53CHL1   C20 5078   3.371   1.530   3.411  0.3302 -0.4568 -0.0112
   53CHL1   H20 5079   3.457   1.470   3.375  2.3335  2.7620 -0.9773
   53CHL1   C21 5080   3.259   1.447   3.468 -0.6236 -0.2521 -0.6637
   53CHL1  H21A 5081   3.292   1.401   3.563  2.0822 -0.6720 -1.7239
   53CHL1  H21B 5082   3.234   1.365   3.398 -0.2613 -1.6168  0.7653
   53CHL1  H21C 5083   3.167   1.505   3.493 -0.1229 -0.2169  1.2187
   53CHL1   C22 5084   3.438   1.628   3.513 -0.4402  0.0615 -0.0884
   53CHL1  H22A 5085   3.491   1.712   3.465 -0.2346  0.0494  0.1150
   53CHL1  H22B 5086   3.367   1.671   3.587 -0.3300 -1.2970  0.8681
   53CHL1   C23 5087   3.551   1.560   3.592 -0.3166 -0.6007 -0.0815
   53CHL1  H23A 5088   3.514   1.460   3.624 -0.3190 -0.0197  1.8906
   53CHL1  H23B 5089   3.631   1.540   3.518 -0.3961 -1.0803 -0.0472
   53CHL1   C24 5090   3.613   1.649   3.696  0.7174  0.0263 -0.3475
   53CHL1  H24A 5091   3.657   1.730   3.634 -0.1796  2.1199  1.6271
   53CHL1  H24B 5092   3.542   1.700   3.764  0.0696  0.1974 -1.1347
   53CHL1   C25 5093   3.729   1.573   3.774  0.5297 -0.6648  0.8739
   53CHL1   H25 5094   3.797   1.523   3.702  1.2480 -0.5284  1.4538
   53CHL1   C26 5095   3.808   1.691   3.850  0.1759  1.0692  0.0414
   53CHL1  H26A 5096   3.728   1.756   3.890 -2.1632 -0.1524 -2.3449
   53CHL1  H26B 5097   3.884   1.650   3.920  1.8262 -1.1709 -2.8344
   53CHL1  H26C 5098   3.862   1.737   3.764 -0.4979  0.7325 -0.5790
   53CHL1   C27 5099   3.680   1.469   3.872  0.5954  0.0505 -0.3445
   53CHL1  H27A 5100   3.754   1.445   3.952  1.5000  0.3375 -1.0865
   53CHL1  H27B 5101   3.589   1.502   3.927  0.8191  1.4435 -0.7859
   53CHL1  H27C 5102   3.648   1.377   3.819 -0.6449  0.7350 -0.8296
   54CHL1    C3 5103   5.768   3.861   2.706  0.1533 -0.9716  0.5688
   54CHL1    H3 5104   5.866   3.886   2.751 -0.1459 -0.9594  1.2179
   54CHL1    O3 5105   5.775   3.871   2.562  0.0585  0.2094 -0.3947
   54CHL1   H3' 5106   5.768   3.965   2.546 -0.9425  0.5745  1.7715
   54CHL1    C4 5107   5.726   3.725   2.742  0.5500  0.5920  0.6180
   54CHL1   H4A 5108   5.646   3.694   2.671 -0.5465  2.9196  0.7552
   54CHL1   H4B 5109   5.810   3.656   2.717 -1.5308 -2.0797  0.4198
   54CHL1    C5 5110   5.692   3.702   2.883  0.3576 -0.0098 -0.0193
   54CHL1    C6 5111   5.760   3.603   2.948 -0.5215 -0.3576 -0.6401
   54CHL1    H6 5112   5.836   3.545   2.894  1.0653  1.6982 -0.7432
   54CHL1    C7 5113   5.742   3.577   3.095 -0.0995  0.0494 -0.3577
   54CHL1   H7A 5114   5.752   3.469   3.120  3.7864  0.3532  0.0151
   54CHL1   H7B 5115   5.819   3.638   3.147 -2.3044  1.0584  1.9307
   54CHL1    C8 5116   5.622   3.660   3.156  0.9581 -0.8349 -0.2108
   54CHL1    H8 5117   5.528   3.604   3.141  0.6302 -0.6742  1.1279
   54CHL1   C14 5118   5.629   3.651   3.308 -0.2654 -0.3352  0.0963
   54CHL1   H14 5119   5.712   3.720   3.335  0.0562 -1.0128  0.8729
   54CHL1   C15 5120   5.666   3.520   3.375  0.7142  0.4489 -0.1676
   54CHL1  H15A 5121   5.602   3.435   3.343 -0.5427  1.4457 -0.3890
   54CHL1  H15B 5122   5.771   3.487   3.360  0.6288 -0.0396  0.2852
   54CHL1   C16 5123   5.645   3.551   3.523 -0.1469  0.9835  0.2729
   54CHL1  H16A 5124   5.603   3.466   3.580  0.3018 -0.1499 -1.0312
   54CHL1  H16B 5125   5.739   3.575   3.577 -0.5487 -0.3445  1.6330
   54CHL1   C17 5126   5.559   3.678   3.535  0.4845 -0.1999 -0.0507
   54CHL1   H17 5127   5.641   3.752   3.544 -0.5534  1.4969 -3.1508
   54CHL1   C13 5128   5.510   3.714   3.389  0.2067  0.0878  0.4799
   54CHL1   C18 5129   5.377   3.643   3.358  0.1248 -0.0530  0.6382
   54CHL1  H18A 5130   5.366   3.629   3.249  0.7030  0.8979  0.4522
   54CHL1  H18B 5131   5.364   3.545   3.411 -2.0477  0.9552  2.1087
   54CHL1  H18C 5132   5.292   3.709   3.386  0.4825  1.5486 -1.8031
   54CHL1   C12 5133   5.509   3.864   3.341  0.4458  0.1127  0.1555
   54CHL1  H12A 5134   5.433   3.930   3.388  1.9914  0.7533  1.8511
   54CHL1  H12B 5135   5.604   3.916   3.365 -0.0321  0.4777  1.3557
   54CHL1   C11 5136   5.502   3.887   3.185 -0.2853 -0.5466 -0.6193
   54CHL1  H11A 5137   5.398   3.860   3.157 -2.3383  3.4708  2.2642
   54CHL1  H11B 5138   5.514   3.996   3.173 -1.6577 -0.3113 -0.0165
   54CHL1    C9 5139   5.607   3.803   3.102  0.5969  0.3742  0.2013
   54CHL1    H9 5140   5.705   3.850   3.126  1.7727 -1.9502  0.2688
   54CHL1   C10 5141   5.594   3.806   2.945  0.0368  0.2400 -0.3032
   54CHL1   C19 5142   5.455   3.756   2.903 -0.7832 -0.0337  0.4785
   54CHL1  H19A 5143   5.378   3.831   2.932  0.0276  1.1247 -0.2840
   54CHL1  H19B 5144   5.454   3.741   2.793  1.4887 -2.6151  0.6814
   54CHL1  H19C 5145   5.436   3.653   2.942  0.9420  0.1892  2.0702
   54CHL1    C1 5146   5.631   3.948   2.899  0.4113 -0.0099 -0.0283
   54CHL1   H1A 5147   5.535   3.996   2.929  0.0927  0.8549 -2.2874
   54CHL1   H1B 5148   5.716   3.987   2.958  0.1090  0.8593 -0.1562
   54CHL1    C2 5149   5.664   3.964   2.747  0.1434  0.8736 -0.0907
   54CHL1   H2A 5150   5.688   4.071   2.728 -0.3232  1.1122  0.6271
   54CHL1   H2B 5151   5.570   3.946   2.691  1.2525 -0.3929 -1.6657
   54CHL1   C20 5152   5.462   3.694   3.659 -0.3862  0.4048 -0.0622
   54CHL1   H20 5153   5.387   3.612   3.650  0.8719 -0.9906  1.4546
   54CHL1   C21 5154   5.397   3.835   3.659 -0.7773  0.9761 -0.4093
   54CHL1  H21A 5155   5.469   3.915   3.685 -0.4403 -0.1627  2.4860
   54CHL1  H21B 5156   5.318   3.825   3.737  0.0770 -0.0174  0.3540
   54CHL1  H21C 5157   5.340   3.860   3.567 -0.3052  1.3909 -0.5931
   54CHL1   C22 5158   5.529   3.662   3.796  0.3527  0.2635  0.0148
   54CHL1  H22A 5159   5.581   3.564   3.786  2.4318  1.0868  1.7174
   54CHL1  H22B 5160   5.603   3.742   3.818  2.5042 -1.1143 -1.7061
   54CHL1   C23 5161   5.422   3.649   3.905 -0.5887 -0.4012 -0.6037
   54CHL1  H23A 5162   5.354   3.737   3.909 -1.8907 -1.3602 -0.7805
   54CHL1  H23B 5163   5.365   3.557   3.878  0.5581 -0.6124 -2.5735
   54CHL1   C24 5164   5.494   3.636   4.040  0.6265  0.0025 -0.1869
   54CHL1  H24A 5165   5.572   3.557   4.038  1.2955  0.6002  1.0055
   54CHL1  H24B 5166   5.544   3.734   4.059 -0.0734  0.7666 -2.0482
   54CHL1   C25 5167   5.391   3.608   4.158 -0.2670  0.6122  0.2506
   54CHL1   H25 5168   5.296   3.658   4.128 -0.5746 -1.4881 -2.6871
   54CHL1   C26 5169   5.345   3.459   4.170 -0.0287  1.1285  0.1516
   54CHL1  H26A 5170   5.298   3.428   4.075  0.1008  1.7255 -0.1085
   54CHL1  H26B 5171   5.436   3.399   4.192  0.7299  1.6280 -1.5191
   54CHL1  H26C 5172   5.272   3.442   4.253  0.7141 -1.4281  0.3804
   54CHL1   C27 5173   5.457   3.659   4.290  1.1141  0.0784  0.4673
   54CHL1  H27A 5174   5.397   3.634   4.380 -0.0205  1.1757  0.0597
   54CHL1  H27B 5175   5.563   3.627   4.301  1.1714  0.8004  2.4329
   54CHL1  H27C 5176   5.452   3.770   4.283  2.8342  0.1137 -0.7028
   55CHL1    C3 5177   1.239   0.991   2.644 -0.9221 -0.1913  0.2445
   55CHL1    H3 5178   1.232   1.101   2.658 -0.1299 -0.2503  1.1845
   55CHL1    O3 5179   1.285   0.958   2.514 -0.2827 -0.0064 -0.0966
   55CHL1   H3' 5180   1.252   0.868   2.513 -2.2126  0.6442  0.9203
   55CHL1    C4 5181   1.352   0.939   2.739  0.5389  0.2565  0.2691
   55CHL1   H4A 5182   1.371   0.833   2.712  2.9437  0.6310  0.2543
   55CHL1   H4B 5183   1.447   0.996   2.731  0.3799  0.5304  0.3093
   55CHL1    C5 5184   1.298   0.957   2.880 -0.2458  0.3939  1.2124
   55CHL1    C6 5185   1.381   1.012   2.972  0.1476 -0.1212 -0.0023
   55CHL1    H6 5186   1.480   1.047   2.940  0.7249 -1.8924 -0.2625
   55CHL1    C7 5187   1.354   1.017   3.116 -0.2872 -1.0159 -0.1041
   55CHL1   H7A 5188   1.444   0.967   3.158 -0.5711  0.0861  1.9155
   55CHL1   H7B 5189   1.358   1.115   3.167 -0.8231 -0.5477 -0.9402
   55CHL1    C8 5190   1.234   0.923   3.161 -0.2245  0.5750  0.4612
   55CHL1    H8 5191   1.270   0.819   3.170 -2.7023 -0.2590  1.4934
   55CHL1   C14 5192   1.192   0.962   3.303 -0.0586  0.0079 -0.6052
   55CHL1   H14 5193   1.149   1.064   3.306  1.6969  0.7836 -0.6628
   55CHL1   C15 5194   1.296   0.991   3.419 -0.9829  0.6030 -0.6091
   55CHL1  H15A 5195   1.388   0.930   3.413 -2.4025 -2.1698  2.9267
   55CHL1  H15B 5196   1.321   1.100   3.419  0.8595  0.2158 -1.5385
   55CHL1   C16 5197   1.226   0.951   3.548  0.0629  0.1286 -0.2745
   55CHL1  H16A 5198   1.280   0.856   3.571  0.0150  0.3252  0.7022
   55CHL1  H16B 5199   1.240   1.022   3.632  1.3526  1.2598 -1.3953
   55CHL1   C17 5200   1.076   0.927   3.510 -0.3165 -0.9416  0.0274
   55CHL1   H17 5201   1.031   1.028   3.504  1.3920  0.0275  2.1011
   55CHL1   C13 5202   1.084   0.872   3.363 -0.1803  0.3401 -0.2463
   55CHL1   C18 5203   1.132   0.730   3.359 -0.9357  0.6163  0.0456
   55CHL1  H18A 5204   1.227   0.726   3.417 -1.4547  0.4624  0.9127
   55CHL1  H18B 5205   1.053   0.672   3.411 -2.4542  2.3743 -0.2271
   55CHL1  H18C 5206   1.145   0.690   3.257  2.3004 -0.5201  0.7600
   55CHL1   C12 5207   0.957   0.886   3.274 -0.6282 -0.1300 -0.1846
   55CHL1  H12A 5208   0.865   0.831   3.301 -0.7236 -0.9090 -1.8965
   55CHL1  H12B 5209   0.932   0.993   3.262 -0.4616  0.1560  1.7705
   55CHL1   C11 5210   0.985   0.861   3.118 -0.1351  0.7805 -0.4754
   55CHL1  H11A 5211   0.980   0.750   3.118 -0.4043  0.5777  4.3417
   55CHL1  H11B 5212   0.889   0.890   3.072 -1.0600 -0.0831  0.8565
   55CHL1    C9 5213   1.113   0.933   3.066  0.7785 -0.0477  0.4325
   55CHL1    H9 5214   1.082   1.039   3.064 -0.3798 -0.3702 -1.9629
   55CHL1   C10 5215   1.153   0.893   2.913 -0.6233 -0.8129 -0.0178
   55CHL1   C19 5216   1.181   0.745   2.898  0.3044 -0.1163  0.7411
   55CHL1  H19A 5217   1.176   0.723   2.789 -0.0160  2.1213  0.2618
   55CHL1  H19B 5218   1.278   0.700   2.929 -0.7124 -2.0111  1.3235
   55CHL1  H19C 5219   1.102   0.683   2.945 -1.2632  0.8439 -0.5296
   55CHL1    C1 5220   1.054   0.951   2.807  0.2251  0.0653  0.1507
   55CHL1   H1A 5221   0.961   0.891   2.801 -0.0433  0.3162  1.5470
   55CHL1   H1B 5222   1.030   1.056   2.834 -0.0398 -0.1984  0.9635
   55CHL1    C2 5223   1.102   0.940   2.660 -0.4024 -1.0260  0.8305
   55CHL1   H2A 5224   1.040   1.004   2.594 -1.0844 -0.3317  2.0926
   55CHL1   H2B 5225   1.084   0.840   2.616 -0.3850 -0.3534 -0.7723
   55CHL1   C20 5226   1.002   0.846   3.617  0.1345  0.3487 -0.1483
   55CHL1   H20 5227   1.025   0.738   3.604 -1.8359 -0.0974 -0.2622
   55CHL1   C21 5228   0.854   0.860   3.582 -0.0042  0.2580 -0.2521
   55CHL1  H21A 5229   0.793   0.844   3.674 -0.6323  2.0167 -0.3206
   55CHL1  H21B 5230   0.839   0.793   3.495  1.0356  0.7413 -0.8076
   55CHL1  H21C 5231   0.835   0.967   3.559 -3.1529  0.1427  1.2580
   55CHL1   C22 5232   1.034   0.879   3.762 -0.2875 -0.7025 -0.4592
   55CHL1  H22A 5233   0.965   0.810   3.817 -1.6796  3.5104  3.8132
   55CHL1  H22B 5234   1.139   0.856   3.787 -0.4845 -0.4389  0.6754
   55CHL1   C23 5235   1.012   1.025   3.813 -0.1908  0.3254  0.4180
   55CHL1  H23A 5236   1.083   1.098   3.767 -1.5165  0.7790 -1.0348
   55CHL1  H23B 5237   0.907   1.060   3.795 -0.3577  0.0002  0.7591
   55CHL1   C24 5238   1.042   1.028   3.962  0.0024 -0.3183 -0.6609
   55CHL1  H24A 5239   0.979   0.956   4.018  3.0028 -2.3857  0.3039
   55CHL1  H24B 5240   1.146   0.994   3.985 -0.0835  0.5326  1.2187
   55CHL1   C25 5241   1.041   1.169   4.039  0.2561  0.6869 -0.0779
   55CHL1   H25 5242   1.068   1.257   3.977  0.0587  0.7798 -0.0335
   55CHL1   C26 5243   0.907   1.203   4.100  0.5548  0.2698 -0.5374
   55CHL1  H26A 5244   0.842   1.246   4.022 -0.1014  0.0350 -0.1264
   55CHL1  H26B 5245   0.870   1.107   4.142  1.1361 -0.2283 -1.1474
   55CHL1  H26C 5246   0.929   1.278   4.179  2.4689 -0.6587 -0.1096
   55CHL1   C27 5247   1.151   1.172   4.144 -0.0126 -0.7104  0.1050
   55CHL1  H27A 5248   1.157   1.268   4.200 -1.5800 -0.5963  0.1425
   55CHL1  H27B 5249   1.140   1.090   4.219  1.0237 -0.4580  0.5493
   55CHL1  H27C 5250   1.241   1.136   4.090 -0.3978  0.4729 -1.3835
   56CHL1    C3 5251   2.484   5.755   2.664  0.6377 -0.2918  1.2106
   56CHL1    H3 5252   2.399   5.824   2.680  0.0626 -0.5202 -0.5674
   56CHL1    O3 5253   2.471   5.695   2.536 -0.5471 -0.4124  0.3271
   56CHL1   H3' 5254   2.461   5.770   2.477  0.9247 -1.4405 -1.3075
   56CHL1    C4 5255   2.612   5.835   2.663 -0.1097 -0.8532  0.4488
   56CHL1   H4A 5256   2.707   5.781   2.642  1.1476  0.1598  3.0309
   56CHL1   H4B 5257   2.596   5.917   2.590 -3.1188 -1.4487  0.3086
   56CHL1    C5 5258   2.639   5.894   2.802  0.1225  0.8384  0.4758
   56CHL1    C6 5259   2.658   6.026   2.812  0.0420  0.3942  0.4751
   56CHL1    H6 5260   2.670   6.086   2.721  0.3073 -0.2190  0.0989
   56CHL1    C7 5261   2.669   6.095   2.948  0.5162 -0.1246 -0.3127
   56CHL1   H7A 5262   2.757   6.160   2.926  0.9045 -0.8690 -0.9980
   56CHL1   H7B 5263   2.580   6.160   2.962  0.9766  0.0347  2.3327
   56CHL1    C8 5264   2.694   6.008   3.073 -0.3035  1.0597 -0.6743
   56CHL1    H8 5265   2.804   5.998   3.063 -0.0626  2.1329  0.5669
   56CHL1   C14 5266   2.659   6.074   3.202 -0.7790 -0.6429  0.5383
   56CHL1   H14 5267   2.549   6.090   3.201 -0.6158  0.6718 -0.9639
   56CHL1   C15 5268   2.716   6.220   3.223  0.2104 -0.0558 -0.5285
   56CHL1  H15A 5269   2.819   6.225   3.180 -0.0876 -1.6873 -1.5225
   56CHL1  H15B 5270   2.653   6.288   3.161 -1.0478 -1.5653 -0.9670
   56CHL1   C16 5271   2.701   6.246   3.376  1.2424  0.2878  0.4012
   56CHL1  H16A 5272   2.787   6.294   3.428  0.9286  1.1837  0.1083
   56CHL1  H16B 5273   2.614   6.308   3.406  1.5720  0.1453  1.7580
   56CHL1   C17 5274   2.672   6.101   3.441 -0.1772  0.3813  0.5191
   56CHL1   H17 5275   2.563   6.094   3.457 -0.1147  1.2258  1.4527
   56CHL1   C13 5276   2.705   5.995   3.326  0.1319 -0.0177 -0.6385
   56CHL1   C18 5277   2.857   5.959   3.325  0.1601 -0.2177  0.1761
   56CHL1  H18A 5278   2.897   5.899   3.241  1.3200  0.0289  0.5338
   56CHL1  H18B 5279   2.911   6.054   3.306  0.7403 -0.1981  1.7578
   56CHL1  H18C 5280   2.886   5.923   3.426 -0.1678 -0.0177  0.3409
   56CHL1   C12 5281   2.631   5.859   3.325 -0.6389 -0.7124 -0.0355
   56CHL1  H12A 5282   2.674   5.800   3.409 -1.8996 -0.6638  0.6883
   56CHL1  H12B 5283   2.522   5.881   3.332 -0.0603  2.5835  0.0993
   56CHL1   C11 5284   2.650   5.786   3.188 -0.2765  0.2550 -0.6227
   56CHL1  H11A 5285   2.754   5.749   3.180  0.0965  1.4146 -1.4387
   56CHL1  H11B 5286   2.586   5.696   3.176  0.0233 -0.3149  1.5879
   56CHL1    C9 5287   2.624   5.874   3.059 -0.2366  0.4809 -0.0518
   56CHL1    H9 5288   2.516   5.901   3.062 -0.2058  0.7765 -1.1451
   56CHL1   C10 5289   2.633   5.798   2.925 -0.0496 -0.4943  0.5845
   56CHL1   C19 5290   2.767   5.719   2.917 -0.2182 -0.3159  0.0749
   56CHL1  H19A 5291   2.786   5.669   2.820 -0.1963 -0.1637  0.0002
   56CHL1  H19B 5292   2.846   5.796   2.928 -1.0084  1.0084 -2.6450
   56CHL1  H19C 5293   2.767   5.640   2.995  1.4141  0.0276  0.4493
   56CHL1    C1 5294   2.504   5.703   2.902 -0.2785  0.4352 -0.6195
   56CHL1   H1A 5295   2.504   5.619   2.976  1.6306  1.1589  0.2602
   56CHL1   H1B 5296   2.420   5.766   2.938  0.8945  0.8809  1.4934
   56CHL1    C2 5297   2.487   5.642   2.761 -0.1764 -1.0885  0.8410
   56CHL1   H2A 5298   2.397   5.577   2.758 -0.4411 -0.8208  2.1106
   56CHL1   H2B 5299   2.574   5.575   2.746 -0.6767 -1.5945  0.1542
   56CHL1   C20 5300   2.728   6.094   3.588 -0.6481 -0.2998 -0.1123
   56CHL1   H20 5301   2.838   6.107   3.587 -0.7982  1.1307 -1.0866
   56CHL1   C21 5302   2.683   5.958   3.641 -0.9023  0.5151 -0.4556
   56CHL1  H21A 5303   2.725   5.950   3.744 -2.9785 -1.2035  0.3410
   56CHL1  H21B 5304   2.729   5.871   3.588 -1.1363  1.0359 -1.5453
   56CHL1  H21C 5305   2.573   5.953   3.646 -0.8992  1.1586  0.6504
   56CHL1   C22 5306   2.674   6.208   3.678  0.9576 -0.0597  0.5232
   56CHL1  H22A 5307   2.691   6.304   3.625 -0.6950 -1.1699 -2.2181
   56CHL1  H22B 5308   2.564   6.196   3.679  1.0168 -0.6485  2.1259
   56CHL1   C23 5309   2.747   6.214   3.809 -0.4966  0.3541 -0.2637
   56CHL1  H23A 5310   2.741   6.118   3.863  0.3785 -0.5498 -1.7066
   56CHL1  H23B 5311   2.853   6.222   3.779 -0.7073  0.6174 -0.9692
   56CHL1   C24 5312   2.693   6.326   3.900  0.4772  0.0528 -0.3112
   56CHL1  H24A 5313   2.706   6.422   3.846 -0.8494  0.1084 -0.5577
   56CHL1  H24B 5314   2.590   6.295   3.925  0.6372  0.0255  0.3320
   56CHL1   C25 5315   2.780   6.334   4.031  0.1113  0.7260  0.0781
   56CHL1   H25 5316   2.887   6.340   4.004 -0.2097  1.7002 -1.1019
   56CHL1   C26 5317   2.742   6.464   4.102  0.3430  0.6543 -0.1193
   56CHL1  H26A 5318   2.765   6.539   4.023 -3.1367  0.8010 -1.1628
   56CHL1  H26B 5319   2.637   6.473   4.135  0.3726 -1.3424  0.6583
   56CHL1  H26C 5320   2.812   6.462   4.188  0.0211  0.2479  0.1347
   56CHL1   C27 5321   2.741   6.227   4.132  0.1184 -0.7727  0.2301
   56CHL1  H27A 5322   2.784   6.131   4.098 -1.7051 -0.5834 -2.9861
   56CHL1  H27B 5323   2.781   6.251   4.233  1.4638 -1.0100 -0.2272
   56CHL1  H27C 5324   2.630   6.224   4.135  0.0837 -0.0544 -0.1107
   57CHL1    C3 5325   0.314   0.232   2.591  0.1909 -0.4249 -0.0055
   57CHL1    H3 5326   0.303   0.342   2.593 -1.8283 -0.5750 -0.7921
   57CHL1    O3 5327   0.359   0.194   2.461  0.4266 -0.4036 -0.0256
   57CHL1   H3' 5328   0.276   0.183   2.414 -0.0794  1.9126  0.1812
   57CHL1    C4 5329   0.435   0.191   2.686 -0.3774  0.0142  0.2082
   57CHL1   H4A 5330   0.475   0.089   2.671 -0.1257 -0.1839  2.0104
   57CHL1   H4B 5331   0.519   0.257   2.656 -0.0171 -1.0935 -1.3980
   57CHL1    C5 5332   0.396   0.228   2.825 -0.4861  0.1580  0.6152
   57CHL1    C6 5333   0.473   0.314   2.890 -0.4970  0.3044 -0.3800
   57CHL1    H6 5334   0.566   0.361   2.854  0.9334  0.5288  3.2381
   57CHL1    C7 5335   0.458   0.343   3.034 -0.1337 -0.1336 -0.3349
   57CHL1   H7A 5336   0.552   0.335   3.092 -1.4563 -2.8886  1.6857
   57CHL1   H7B 5337   0.422   0.448   3.046  1.1089  0.1562  1.1637
   57CHL1    C8 5338   0.363   0.244   3.107 -0.0990  0.2783  0.5356
   57CHL1    H8 5339   0.426   0.152   3.117  1.9226  1.3196 -1.6935
   57CHL1   C14 5340   0.327   0.290   3.249  0.5633 -0.4218  0.2186
   57CHL1   H14 5341   0.285   0.392   3.240  0.9193 -0.4562 -2.5098
   57CHL1   C15 5342   0.446   0.315   3.338 -0.6945  0.3794 -0.3769
   57CHL1  H15A 5343   0.515   0.230   3.321 -1.3490 -0.2274 -0.0284
   57CHL1  H15B 5344   0.495   0.409   3.303  1.3347  0.7641  3.0390
   57CHL1   C16 5345   0.385   0.318   3.476 -0.2216  0.2926 -1.3755
   57CHL1  H16A 5346   0.454   0.268   3.547  2.9761  2.7693 -2.4680
   57CHL1  H16B 5347   0.383   0.421   3.519  0.1324 -0.4727  0.5837
   57CHL1   C17 5348   0.243   0.255   3.457 -0.6145  0.1004  0.8185
   57CHL1   H17 5349   0.174   0.342   3.461 -0.5164  0.1525  1.7186
   57CHL1   C13 5350   0.235   0.193   3.321  0.8758 -0.6016  0.4832
   57CHL1   C18 5351   0.294   0.046   3.320  0.0557  0.1519  0.2994
   57CHL1  H18A 5352   0.384   0.032   3.384  1.2636 -2.1887 -1.7428
   57CHL1  H18B 5353   0.216  -0.025   3.355  1.9011 -1.6885  0.8703
   57CHL1  H18C 5354   0.328   0.015   3.218  1.3852  3.2257 -0.3015
   57CHL1   C12 5355   0.100   0.209   3.236 -0.1442 -0.8445 -0.7886
   57CHL1  H12A 5356   0.022   0.154   3.294 -0.3092  0.3463  0.1583
   57CHL1  H12B 5357   0.077   0.318   3.235 -2.4365 -1.2744 -1.4797
   57CHL1   C11 5358   0.111   0.160   3.096  0.4725 -0.3207 -0.3140
   57CHL1  H11A 5359   0.125   0.050   3.094 -0.1769 -0.4167  0.1164
   57CHL1  H11B 5360   0.014   0.168   3.042  1.1447 -0.5157 -1.5769
   57CHL1    C9 5361   0.232   0.220   3.022  0.1110 -0.2362  0.1286
   57CHL1    H9 5362   0.192   0.319   2.991 -0.2227 -0.5356 -0.4121
   57CHL1   C10 5363   0.271   0.162   2.883 -0.3300  0.2625 -0.8549
   57CHL1   C19 5364   0.280   0.014   2.892  0.6170  0.2030  0.2713
   57CHL1  H19A 5365   0.337  -0.025   2.979 -1.4601 -2.8926  0.4270
   57CHL1  H19B 5366   0.180  -0.031   2.911  0.6691  1.0337  2.7840
   57CHL1  H19C 5367   0.314  -0.032   2.796  0.3410 -0.2757  0.3983
   57CHL1    C1 5368   0.157   0.198   2.782  0.3233  0.3753  0.5420
   57CHL1   H1A 5369   0.065   0.141   2.804  0.4377 -0.5873 -1.2791
   57CHL1   H1B 5370   0.132   0.306   2.791 -4.1281  0.2386 -4.6772
   57CHL1    C2 5371   0.179   0.181   2.627  0.5565 -0.4062  0.2634
   57CHL1   H2A 5372   0.100   0.238   2.574  0.7341 -1.4930 -1.2074
   57CHL1   H2B 5373   0.175   0.075   2.594 -1.9576  0.0154 -0.9979
   57CHL1   C20 5374   0.194   0.174   3.572 -0.7898  0.5838 -0.4540
   57CHL1   H20 5375   0.270   0.093   3.575 -0.3096  0.7692 -3.6825
   57CHL1   C21 5376   0.045   0.123   3.556  0.1516  0.1339  0.4511
   57CHL1  H21A 5377   0.046   0.028   3.498  1.0836 -0.5800  1.5749
   57CHL1  H21B 5378  -0.025   0.199   3.516  0.4449 -0.1559 -0.6420
   57CHL1  H21C 5379   0.016   0.074   3.652 -0.4922  3.3355  2.0204
   57CHL1   C22 5380   0.211   0.254   3.709  0.1320 -0.2373 -0.6787
   57CHL1  H22A 5381   0.160   0.182   3.776  1.0078 -2.2689 -2.1053
   57CHL1  H22B 5382   0.320   0.252   3.732 -0.3682  0.7385  2.1220
   57CHL1   C23 5383   0.140   0.393   3.726 -0.0201  0.0725  0.4295
   57CHL1  H23A 5384   0.170   0.462   3.645  0.1411 -1.2101 -0.6442
   57CHL1  H23B 5385   0.031   0.373   3.725  0.1720 -1.0863  1.1393
   57CHL1   C24 5386   0.185   0.455   3.851  0.0926  0.1239  0.0022
   57CHL1  H24A 5387   0.295   0.437   3.846 -0.1440 -2.4560  1.9281
   57CHL1  H24B 5388   0.165   0.564   3.853  0.1132  0.1276  1.6943
   57CHL1   C25 5389   0.137   0.380   3.976 -0.0481  0.0156 -0.1342
   57CHL1   H25 5390   0.164   0.273   3.964 -1.5320 -0.3898 -0.1044
   57CHL1   C26 5391   0.210   0.433   4.099 -0.4303 -0.3135 -0.6248
   57CHL1  H26A 5392   0.176   0.391   4.196  0.1177 -0.6003 -0.5537
   57CHL1  H26B 5393   0.321   0.431   4.101 -0.4427 -0.6104  0.6034
   57CHL1  H26C 5394   0.190   0.543   4.095 -0.2328 -0.2150  0.6556
   57CHL1   C27 5395  -0.018   0.384   3.999  0.0332 -0.1741 -0.3464
   57CHL1  H27A 5396  -0.030   0.332   4.096  0.8373 -1.9049 -1.1300
   57CHL1  H27B 5397  -0.058   0.487   3.997  0.6871  0.1620  1.7173
   57CHL1  H27C 5398  -0.072   0.326   3.922 -0.9103  0.0683  0.1248
   58CHL1    C3 5399   6.775   0.719   2.652  0.4606 -0.0162  0.2384
   58CHL1    H3 5400   6.861   0.785   2.676 -0.7301  0.9986  1.9195
   58CHL1    O3 5401   6.793   0.708   2.512  0.2949  0.2201 -0.4057
   58CHL1   H3' 5402   6.723   0.648   2.485  1.2242 -1.1925  0.2243
   58CHL1    C4 5403   6.793   0.586   2.718  0.2013  0.2576  0.1617
   58CHL1   H4A 5404   6.715   0.513   2.687  0.3494  0.7482 -1.4598
   58CHL1   H4B 5405   6.889   0.543   2.682  0.4142  0.1348  0.8678
   58CHL1    C5 5406   6.795   0.618   2.862  0.1425  0.3453 -0.2091
   58CHL1    C6 5407   6.904   0.586   2.944  0.2546  0.1198  0.0820
   58CHL1    H6 5408   6.985   0.534   2.891  0.9868  0.2542  1.0367
   58CHL1    C7 5409   6.918   0.619   3.086 -0.3111 -0.4898 -0.2040
   58CHL1   H7A 5410   6.944   0.525   3.140 -1.3624  0.5245  2.2090
   58CHL1   H7B 5411   6.994   0.695   3.111 -0.6120 -0.1791 -0.2226
   58CHL1    C8 5412   6.779   0.663   3.145 -0.0874 -0.7552  0.0893
   58CHL1    H8 5413   6.708   0.577   3.150 -0.0316 -0.7462  1.1256
   58CHL1   C14 5414   6.801   0.721   3.283  0.2432 -0.0716  0.8772
   58CHL1   H14 5415   6.881   0.798   3.276  0.3427 -0.1910  0.6952
   58CHL1   C15 5416   6.856   0.616   3.381 -0.1122 -0.0661  0.2249
   58CHL1  H15A 5417   6.793   0.526   3.365 -3.0548  1.9024  0.1349
   58CHL1  H15B 5418   6.961   0.587   3.355 -0.4006 -0.8365 -0.1188
   58CHL1   C16 5419   6.851   0.695   3.507  0.2713 -0.0379 -0.4559
   58CHL1  H16A 5420   6.803   0.638   3.589 -1.0245  0.7174 -0.6680
   58CHL1  H16B 5421   6.953   0.722   3.541 -0.5749  1.5437  0.9632
   58CHL1   C17 5422   6.765   0.821   3.481 -0.1569  0.1952 -0.0480
   58CHL1   H17 5423   6.829   0.909   3.461 -1.0856  1.1119  0.8620
   58CHL1   C13 5424   6.685   0.786   3.353 -0.6417 -0.5118 -0.0452
   58CHL1   C18 5425   6.561   0.697   3.385 -0.3544 -0.3636 -0.1141
   58CHL1  H18A 5426   6.583   0.635   3.474  3.8469  0.4396 -0.3861
   58CHL1  H18B 5427   6.479   0.767   3.412 -0.7208 -0.0761 -1.8403
   58CHL1  H18C 5428   6.520   0.635   3.302  3.3748  0.3131 -2.7091
   58CHL1   C12 5429   6.642   0.899   3.262  0.7044 -0.2646 -0.0719
   58CHL1  H12A 5430   6.569   0.967   3.310 -0.1900 -1.0817 -0.2462
   58CHL1  H12B 5431   6.735   0.955   3.240  1.7505 -2.2926 -1.1921
   58CHL1   C11 5432   6.597   0.854   3.122 -1.0122  0.0950 -0.7179
   58CHL1  H11A 5433   6.504   0.794   3.136 -0.1286 -1.7366 -2.1879
   58CHL1  H11B 5434   6.570   0.946   3.065  1.1423  0.7654 -0.7568
   58CHL1    C9 5435   6.711   0.763   3.052  0.0404 -0.4351  0.6017
   58CHL1    H9 5436   6.788   0.836   3.020 -1.6484  0.9114 -0.6200
   58CHL1   C10 5437   6.675   0.709   2.915  0.6354  0.7763  0.2670
   58CHL1   C19 5438   6.550   0.610   2.930  0.1924  0.0486 -0.2720
   58CHL1  H19A 5439   6.515   0.603   2.825 -0.7109  2.2019 -0.1729
   58CHL1  H19B 5440   6.587   0.515   2.974 -1.2303 -1.0964 -1.4224
   58CHL1  H19C 5441   6.459   0.641   2.985  1.6594  1.1277  1.6526
   58CHL1    C1 5442   6.630   0.829   2.817 -0.6166  0.0606 -0.0652
   58CHL1   H1A 5443   6.526   0.856   2.844 -0.5165 -1.0299  1.5864
   58CHL1   H1B 5444   6.702   0.911   2.838  0.5231 -0.8883 -0.1666
   58CHL1    C2 5445   6.645   0.787   2.677  0.2538 -0.2361  0.5321
   58CHL1   H2A 5446   6.621   0.876   2.615 -1.4938 -1.5226 -0.7522
   58CHL1   H2B 5447   6.566   0.712   2.654 -0.3426  0.6704 -0.4973
   58CHL1   C20 5448   6.680   0.865   3.605 -0.0131 -0.0460 -0.0465
   58CHL1   H20 5449   6.605   0.789   3.636  0.5666 -1.3459 -1.6753
   58CHL1   C21 5450   6.608   0.997   3.567  0.7860 -0.4901  0.2188
   58CHL1  H21A 5451   6.677   1.069   3.518  0.9418 -1.5842 -1.2407
   58CHL1  H21B 5452   6.577   1.035   3.667 -2.2594  2.9693 -1.7951
   58CHL1  H21C 5453   6.519   0.970   3.506  0.2923 -1.5454  1.3633
   58CHL1   C22 5454   6.779   0.900   3.723  0.0237  0.2615  0.6357
   58CHL1  H22A 5455   6.844   0.814   3.749  0.6204 -0.1998 -2.0284
   58CHL1  H22B 5456   6.841   0.985   3.686 -1.1326  0.6977 -0.3789
   58CHL1   C23 5457   6.718   0.940   3.858 -0.5495 -0.3742  0.3550
   58CHL1  H23A 5458   6.803   0.968   3.925 -1.4076 -1.7285  2.0930
   58CHL1  H23B 5459   6.644   1.022   3.855  0.0572  0.1955  0.5956
   58CHL1   C24 5460   6.656   0.824   3.933 -0.0954  0.2588 -0.2497
   58CHL1  H24A 5461   6.555   0.801   3.892 -0.4139  1.9073 -0.4740
   58CHL1  H24B 5462   6.726   0.739   3.937  1.2541  1.3447 -0.1889
   58CHL1   C25 5463   6.608   0.855   4.082  0.5008 -0.4305 -0.2799
   58CHL1   H25 5464   6.696   0.900   4.134  1.4733 -3.7728  1.2696
   58CHL1   C26 5465   6.488   0.954   4.090  0.3868 -0.5469 -0.0053
   58CHL1  H26A 5466   6.394   0.916   4.046 -1.3464  3.0666  0.1963
   58CHL1  H26B 5467   6.470   0.970   4.199  0.3478 -1.7009  0.1648
   58CHL1  H26C 5468   6.525   1.052   4.053 -2.6832  0.5789 -0.3480
   58CHL1   C27 5469   6.563   0.727   4.145 -0.3737  0.5133  0.0179
   58CHL1  H27A 5470   6.470   0.684   4.103  0.0004 -0.0594 -0.2217
   58CHL1  H27B 5471   6.647   0.655   4.140 -0.8167 -0.1431  1.4499
   58CHL1  H27C 5472   6.552   0.738   4.255  1.7321  2.3506  0.1089
   59CHL1    C3 5473   6.115   6.568   3.195 -0.2702 -0.2742  0.7149
   59CHL1    H3 5474   6.110   6.467   3.241  3.8154 -0.0830  1.9160
   59CHL1    O3 5475   6.157   6.545   3.063  0.5569 -0.3996  0.5907
   59CHL1   H3' 5476   6.086   6.569   3.003  0.5185 -3.5298 -0.8179
   59CHL1    C4 5477   5.982   6.649   3.187  0.1372  0.6863  0.0979
   59CHL1   H4A 5478   5.999   6.744   3.132  0.3287 -0.5136 -2.0483
   59CHL1   H4B 5479   5.908   6.611   3.113 -0.4649  2.1398 -0.0777
   59CHL1    C5 5480   5.932   6.677   3.322 -0.2834  0.0508  0.3016
   59CHL1    C6 5481   5.814   6.638   3.361  0.5805 -0.0401  0.5485
   59CHL1    H6 5482   5.743   6.587   3.295  0.3692  0.1987  0.5920
   59CHL1    C7 5483   5.760   6.681   3.495 -0.0324 -0.5616  0.4954
   59CHL1   H7A 5484   5.658   6.713   3.465  1.3630  0.2654 -4.2030
   59CHL1   H7B 5485   5.754   6.593   3.563 -0.4561  0.4866  1.8336
   59CHL1    C8 5486   5.836   6.788   3.561  0.4309 -0.9279 -0.0171
   59CHL1    H8 5487   5.813   6.888   3.516  2.1421 -0.3420  0.3473
   59CHL1   C14 5488   5.794   6.808   3.706 -0.1759  0.1537  0.1016
   59CHL1   H14 5489   5.838   6.719   3.756 -0.1290  0.2245  0.1857
   59CHL1   C15 5490   5.649   6.804   3.744  0.0118 -0.6315  0.3958
   59CHL1  H15A 5491   5.595   6.885   3.691  0.2142 -0.5831  0.2636
   59CHL1  H15B 5492   5.602   6.705   3.725 -1.3912  0.3027 -1.1785
   59CHL1   C16 5493   5.649   6.842   3.891  0.3438  0.4035  0.0406
   59CHL1  H16A 5494   5.558   6.904   3.910 -0.0794 -0.9514  2.9878
   59CHL1  H16B 5495   5.635   6.747   3.948 -0.7745  0.2298 -0.4826
   59CHL1   C17 5496   5.789   6.919   3.923  0.1610  0.1124 -0.1916
   59CHL1   H17 5497   5.845   6.837   3.973  1.6119 -0.6851 -2.8767
   59CHL1   C13 5498   5.859   6.931   3.781 -0.5763  0.6190  0.4559
   59CHL1   C18 5499   5.809   7.062   3.713 -0.0819 -0.2147  0.3105
   59CHL1  H18A 5500   5.837   7.150   3.774  1.5361 -1.4417  1.4216
   59CHL1  H18B 5501   5.863   7.076   3.617  0.4219  1.4804  0.8056
   59CHL1  H18C 5502   5.702   7.079   3.688  0.6061  2.5821 -1.2007
   59CHL1   C12 5503   6.013   6.904   3.787 -0.4745 -0.4152  0.8250
   59CHL1  H12A 5504   6.043   7.004   3.824  0.1456 -1.1648  2.4691
   59CHL1  H12B 5505   6.024   6.823   3.862 -3.3033  1.3991  3.4292
   59CHL1   C11 5506   6.063   6.871   3.644  0.7472 -0.1167 -0.8690
   59CHL1  H11A 5507   6.071   6.969   3.594  1.3185  0.0469 -0.4759
   59CHL1  H11B 5508   6.167   6.832   3.653 -0.0138 -2.1067  0.0097
   59CHL1    C9 5509   5.982   6.768   3.560 -0.0415 -0.2325 -0.0839
   59CHL1    H9 5510   6.004   6.673   3.614 -2.3353 -0.4656  0.5301
   59CHL1   C10 5511   6.034   6.747   3.414 -0.7201 -0.5423 -0.1881
   59CHL1   C19 5512   6.057   6.887   3.356  0.4447  0.0324 -0.3423
   59CHL1  H19A 5513   6.102   6.882   3.255 -0.3287  0.3965 -0.7112
   59CHL1  H19B 5514   5.961   6.942   3.357  0.1769 -0.4144  1.4289
   59CHL1  H19C 5515   6.126   6.952   3.415 -0.9524  0.9187  0.3561
   59CHL1    C1 5516   6.176   6.674   3.408  0.0010 -0.5341 -0.0681
   59CHL1   H1A 5517   6.244   6.740   3.466  0.1229 -0.2128 -0.5702
   59CHL1   H1B 5518   6.175   6.576   3.462  0.7606 -1.0023 -0.8808
   59CHL1    C2 5519   6.228   6.640   3.268 -0.3222 -0.0933 -0.0741
   59CHL1   H2A 5520   6.310   6.566   3.280  0.5528  0.2929 -2.8940
   59CHL1   H2B 5521   6.250   6.732   3.211  0.3341  0.2866  0.7734
   59CHL1   C20 5522   5.765   7.037   4.008 -0.4029 -0.1222 -0.8892
   59CHL1   H20 5523   5.731   7.126   3.949  0.1914  1.2611  0.7619
   59CHL1   C21 5524   5.902   7.087   4.055  0.1391  0.6308 -0.5219
   59CHL1  H21A 5525   5.957   7.002   4.102  0.7547  0.8955 -0.7559
   59CHL1  H21B 5526   5.884   7.161   4.136  1.5882 -0.0493  0.4606
   59CHL1  H21C 5527   5.964   7.137   3.978  2.3807 -0.0956  0.7165
   59CHL1   C22 5528   5.674   7.020   4.130  0.5462 -0.2222 -0.0533
   59CHL1  H22A 5529   5.676   7.113   4.192  1.0386 -0.6528  0.5865
   59CHL1  H22B 5530   5.568   7.012   4.096  0.3864  1.0530  0.0704
   59CHL1   C23 5531   5.731   6.920   4.232  0.2933 -0.1287 -0.2350
   59CHL1  H23A 5532   5.759   6.827   4.178  0.0386 -0.8160  0.7833
   59CHL1  H23B 5533   5.822   6.959   4.281 -0.9204  0.4047  1.6868
   59CHL1   C24 5534   5.627   6.859   4.327 -0.4821  0.1747 -0.6685
   59CHL1  H24A 5535   5.671   6.792   4.405  0.6740 -0.8389 -2.1285
   59CHL1  H24B 5536   5.589   6.950   4.377 -1.3528 -1.2054  1.3191
   59CHL1   C25 5537   5.498   6.779   4.279 -0.0991 -0.5248 -0.0058
   59CHL1   H25 5538   5.449   6.841   4.200  1.1597  0.5136 -0.0097
   59CHL1   C26 5539   5.536   6.640   4.228  0.3501  0.4958  0.3758
   59CHL1  H26A 5540   5.446   6.576   4.216  0.3611  0.3955  0.7871
   59CHL1  H26B 5541   5.588   6.648   4.131  2.1124 -2.3443  0.9591
   59CHL1  H26C 5542   5.614   6.589   4.289  3.0778  0.0113 -3.1909
   59CHL1   C27 5543   5.401   6.774   4.402 -0.7999  0.1137  0.1003
   59CHL1  H27A 5544   5.440   6.726   4.493  0.2249 -1.0982 -0.9455
   59CHL1  H27B 5545   5.376   6.882   4.412 -1.8167 -0.2061  1.2969
   59CHL1  H27C 5546   5.306   6.723   4.373  0.5317 -0.6363 -3.5936
   60CHL1    C3 5547   0.202   6.318   2.688  0.2561 -0.9721 -0.3305
   60CHL1    H3 5548   0.129   6.401   2.700  0.9485 -0.4516  0.4557
   60CHL1    O3 5549   0.224   6.296   2.547 -0.5051 -0.1057 -0.2792
   60CHL1   H3' 5550   0.289   6.226   2.546 -0.1393  0.2250 -1.6063
   60CHL1    C4 5551   0.340   6.344   2.750  0.1728 -0.7662 -0.1723
   60CHL1   H4A 5552   0.413   6.261   2.745 -0.2108 -1.3208  2.0854
   60CHL1   H4B 5553   0.383   6.428   2.692  1.6883 -1.5137 -0.1642
   60CHL1    C5 5554   0.325   6.369   2.896 -0.3497 -0.9097  0.1578
   60CHL1    C6 5555   0.373   6.480   2.949 -0.8359  1.0305 -0.4690
   60CHL1    H6 5556   0.412   6.553   2.876 -2.3323  0.0586 -2.3294
   60CHL1    C7 5557   0.363   6.509   3.096  0.8298 -0.1635  0.0931
   60CHL1   H7A 5558   0.454   6.554   3.141 -0.0149  0.9296  0.7544
   60CHL1   H7B 5559   0.291   6.592   3.107  1.8807  0.5580  2.0090
   60CHL1    C8 5560   0.321   6.383   3.184 -0.0648 -0.1558 -0.4713
   60CHL1    H8 5561   0.407   6.312   3.181  0.5898  0.6300 -0.4783
   60CHL1   C14 5562   0.294   6.422   3.325  0.2447 -0.9513  0.4630
   60CHL1   H14 5563   0.198   6.477   3.321 -0.7162 -2.5918  0.0860
   60CHL1   C15 5564   0.401   6.508   3.394  0.1429  0.4158  0.2281
   60CHL1  H15A 5565   0.501   6.461   3.391  0.6372  1.4480  0.1142
   60CHL1  H15B 5566   0.418   6.609   3.350  0.8777 -0.8901 -2.7232
   60CHL1   C16 5567   0.349   6.509   3.542 -0.1694 -0.5372  0.7923
   60CHL1  H16A 5568   0.432   6.484   3.611  1.2842 -1.9619 -1.3128
   60CHL1  H16B 5569   0.303   6.609   3.556  1.6485  0.4971 -0.2480
   60CHL1   C17 5570   0.242   6.394   3.551  0.3820  0.2009 -0.7710
   60CHL1   H17 5571   0.142   6.441   3.545 -0.1553 -0.8730 -0.5731
   60CHL1   C13 5572   0.249   6.309   3.422 -0.4907 -0.8624  0.1863
   60CHL1   C18 5573   0.361   6.202   3.432  0.4522 -0.7938 -0.6011
   60CHL1  H18A 5574   0.453   6.250   3.471  0.2121 -1.4611  0.8743
   60CHL1  H18B 5575   0.346   6.114   3.498 -0.3724  0.3097  0.7500
   60CHL1  H18C 5576   0.398   6.166   3.334  0.1206 -1.0880 -0.6206
   60CHL1   C12 5577   0.120   6.246   3.359  0.0028 -0.5431  0.0397
   60CHL1  H12A 5578   0.100   6.154   3.419  1.4449  0.8720  2.8884
   60CHL1  H12B 5579   0.033   6.313   3.370  0.0146 -0.2099 -1.6294
   60CHL1   C11 5580   0.131   6.218   3.214 -0.2977 -0.7188 -0.1543
   60CHL1  H11A 5581   0.191   6.124   3.214  2.0960  0.7103 -0.2778
   60CHL1  H11B 5582   0.033   6.193   3.168 -0.7660 -0.7223  0.8235
   60CHL1    C9 5583   0.207   6.317   3.118  0.2837  0.4643  0.3401
   60CHL1    H9 5584   0.123   6.388   3.096 -2.7645 -2.7947  0.5404
   60CHL1   C10 5585   0.245   6.262   2.976 -0.1218  0.2309 -0.6687
   60CHL1   C19 5586   0.329   6.136   2.990 -0.0091 -0.0584  0.2327
   60CHL1  H19A 5587   0.414   6.141   3.061  0.0954 -1.5525  0.2482
   60CHL1  H19B 5588   0.268   6.047   3.016 -0.0270 -0.3341 -0.6910
   60CHL1  H19C 5589   0.373   6.107   2.892  1.4079 -0.6249  1.0089
   60CHL1    C1 5590   0.114   6.221   2.895 -0.1780  0.2406 -0.4027
   60CHL1   H1A 5591   0.070   6.136   2.950 -0.0381  1.0755  1.0350
   60CHL1   H1B 5592   0.047   6.310   2.898 -0.7281 -0.1881  0.2627
   60CHL1    C2 5593   0.131   6.196   2.744 -0.4176  0.3098  0.2271
   60CHL1   H2A 5594   0.030   6.182   2.701 -0.1593 -1.2040  0.0461
   60CHL1   H2B 5595   0.190   6.105   2.718 -2.6855 -1.5068  1.1093
   60CHL1   C20 5596   0.245   6.317   3.694  0.2816 -0.1522 -0.7885
   60CHL1   H20 5597   0.339   6.258   3.698  0.3751  0.0793  2.1378
   60CHL1   C21 5598   0.130   6.219   3.700 -0.0859 -0.2703 -0.0200
   60CHL1  H21A 5599   0.145   6.139   3.624  2.4501 -2.0328  2.1375
   60CHL1  H21B 5600   0.046   6.289   3.680  1.1358  1.7353  1.4530
   60CHL1  H21C 5601   0.113   6.167   3.797  0.1426 -0.6753 -0.1943
   60CHL1   C22 5602   0.248   6.416   3.815 -0.1167  0.4505 -0.6443
   60CHL1  H22A 5603   0.290   6.361   3.902  1.0767  0.9638 -0.8783
   60CHL1  H22B 5604   0.320   6.498   3.795  0.8969 -0.3523 -0.3864
   60CHL1   C23 5605   0.111   6.477   3.849  0.2015  0.8967 -0.5227
   60CHL1  H23A 5606   0.082   6.541   3.764 -0.2782 -1.8478 -2.5640
   60CHL1  H23B 5607   0.039   6.396   3.871 -1.1222  2.7420  2.5827
   60CHL1   C24 5608   0.115   6.570   3.976  0.5960 -0.1187 -0.6532
   60CHL1  H24A 5609   0.148   6.497   4.054  0.5127 -0.0333 -0.5367
   60CHL1  H24B 5610   0.190   6.651   3.980 -1.9826  2.4470 -0.7974
   60CHL1   C25 5611  -0.025   6.627   4.022  0.6423 -0.3263  0.4940
   60CHL1   H25 5612  -0.094   6.541   4.020 -0.5226  0.5846  0.5693
   60CHL1   C26 5613  -0.019   6.677   4.164 -0.1858 -0.2633 -0.0019
   60CHL1  H26A 5614   0.046   6.766   4.175 -2.5992  1.3083  3.1053
   60CHL1  H26B 5615  -0.117   6.718   4.197 -1.7672 -1.0151 -3.2582
   60CHL1  H26C 5616   0.024   6.601   4.233 -1.7861 -0.8342  0.4266
   60CHL1   C27 5617  -0.082   6.723   3.918  0.4721  0.5082  0.7070
   60CHL1  H27A 5618  -0.102   6.688   3.814  1.0094 -1.4216  1.2115
   60CHL1  H27B 5619  -0.178   6.756   3.964 -1.1612 -0.5886 -1.7081
   60CHL1  H27C 5620  -0.018   6.813   3.923  2.6401 -0.9127 -0.3737
   61CHL1    C3 5621   2.184   5.835   3.112  0.1486  0.0974  0.0317
   61CHL1    H3 5622   2.274   5.770   3.123  1.2585  1.1581 -2.1720
   61CHL1    O3 5623   2.154   5.863   2.976  0.2655 -0.3697  0.6597
   61CHL1   H3' 5624   2.210   5.935   2.947  2.0609 -2.4775 -1.6503
   61CHL1    C4 5625   2.064   5.757   3.169 -0.0006 -0.1699 -0.3519
   61CHL1   H4A 5626   1.968   5.807   3.143  1.5021  2.9709 -0.2612
   61CHL1   H4B 5627   2.073   5.657   3.122  1.2781 -0.1961 -0.0726
   61CHL1    C5 5628   2.064   5.749   3.322  0.3577  0.2204 -0.0851
   61CHL1    C6 5629   2.054   5.635   3.387  0.2529  0.0857  0.2392
   61CHL1    H6 5630   2.048   5.545   3.323 -0.1243  0.9950 -1.0395
   61CHL1    C7 5631   2.039   5.612   3.535 -0.0308  0.4324  0.0700
   61CHL1   H7A 5632   1.948   5.551   3.551 -0.2033  0.6154 -0.2192
   61CHL1   H7B 5633   2.129   5.570   3.585  0.5364  2.8919  1.3012
   61CHL1    C8 5634   2.012   5.747   3.607 -0.0450  0.1410  0.4433
   61CHL1    H8 5635   1.910   5.780   3.580  0.6040 -0.0356 -2.5857
   61CHL1   C14 5636   2.037   5.729   3.755  0.3667 -0.7876  0.0171
   61CHL1   H14 5637   2.146   5.724   3.772  0.3823 -0.9890 -0.1463
   61CHL1   C15 5638   1.974   5.609   3.828 -0.1501 -0.3771 -0.7246
   61CHL1  H15A 5639   1.871   5.602   3.787  0.4811  1.1556 -2.7391
   61CHL1  H15B 5640   2.019   5.510   3.809 -2.6473 -2.5069  3.0325
   61CHL1   C16 5641   1.988   5.648   3.972 -0.3257  0.1027  0.1986
   61CHL1  H16A 5642   1.889   5.641   4.020  0.2032 -0.7386  1.2256
   61CHL1  H16B 5643   2.063   5.579   4.017 -0.3984  0.3638  0.7154
   61CHL1   C17 5644   2.039   5.802   3.978  0.3684  0.4124  0.5197
   61CHL1   H17 5645   2.149   5.790   3.982  0.4548  0.7098 -0.6118
   61CHL1   C13 5646   2.012   5.859   3.840 -0.1550  0.0719 -0.0156
   61CHL1   C18 5647   1.867   5.908   3.838  0.7806 -0.4337  0.0987
   61CHL1  H18A 5648   1.819   5.891   3.739 -1.7454 -2.3614  1.5411
   61CHL1  H18B 5649   1.799   5.855   3.908  0.6233 -1.9482 -1.1566
   61CHL1  H18C 5650   1.879   6.016   3.859  1.2467 -0.5629  0.5295
   61CHL1   C12 5651   2.112   5.966   3.786 -0.3782 -0.1785 -0.3074
   61CHL1  H12A 5652   2.094   6.063   3.836 -0.4252 -1.6109  2.7140
   61CHL1  H12B 5653   2.212   5.921   3.808 -0.3620 -0.5071 -1.0158
   61CHL1   C11 5654   2.082   5.987   3.641 -0.1587 -0.0834 -0.4975
   61CHL1  H11A 5655   1.981   6.029   3.620 -0.4589 -0.7704 -0.4544
   61CHL1  H11B 5656   2.148   6.063   3.595 -0.9148  0.7811 -0.1970
   61CHL1    C9 5657   2.100   5.859   3.551  0.0169  0.4979  0.3546
   61CHL1    H9 5658   2.204   5.822   3.565 -0.4940 -1.1614  0.0297
   61CHL1   C10 5659   2.079   5.887   3.404 -0.0126  0.0499  0.1615
   61CHL1   C19 5660   1.954   5.965   3.382  0.1350  0.3881  0.2724
   61CHL1  H19A 5661   1.918   5.974   3.278 -1.8541  1.1233  0.9731
   61CHL1  H19B 5662   1.872   5.923   3.444  1.6757 -0.3883  1.8709
   61CHL1  H19C 5663   1.966   6.069   3.421 -3.0893  0.4915  1.3370
   61CHL1    C1 5664   2.199   5.953   3.342 -0.6688 -0.0452 -0.2282
   61CHL1   H1A 5665   2.213   6.049   3.396  2.1135  0.6676 -1.9474
   61CHL1   H1B 5666   2.285   5.894   3.379 -0.8140  0.5261  1.0846
   61CHL1    C2 5667   2.195   5.974   3.188 -0.1852  0.1044  0.1857
   61CHL1   H2A 5668   2.292   6.025   3.172  0.9216 -1.6622  0.9913
   61CHL1   H2B 5669   2.125   6.056   3.159 -0.9368 -0.7353 -0.4437
   61CHL1   C20 5670   2.000   5.872   4.110  0.4761  0.7192 -0.1802
   61CHL1   H20 5671   1.891   5.852   4.119  0.1042  2.9452  0.7686
   61CHL1   C21 5672   2.034   6.019   4.112  0.4330 -0.3103 -0.1700
   61CHL1  H21A 5673   1.977   6.086   4.044 -1.1808  0.5140  1.8861
   61CHL1  H21B 5674   2.143   6.029   4.094  0.6405 -2.1174 -0.1374
   61CHL1  H21C 5675   2.008   6.061   4.211  1.4768 -1.3829  0.5872
   61CHL1   C22 5676   2.066   5.800   4.232  1.1929  0.0232  0.6273
   61CHL1  H22A 5677   2.051   5.690   4.232  2.0054 -0.1072 -0.4420
   61CHL1  H22B 5678   2.175   5.814   4.250  1.4565  2.5117 -2.1182
   61CHL1   C23 5679   2.000   5.843   4.364 -0.2051 -1.6182 -0.0745
   61CHL1  H23A 5680   2.025   5.951   4.372  1.5867 -2.1205  2.1261
   61CHL1  H23B 5681   1.889   5.829   4.362 -0.1228 -2.2463 -0.5276
   61CHL1   C24 5682   2.046   5.771   4.496  0.1703 -0.0184  0.2254
   61CHL1  H24A 5683   2.003   5.669   4.496  2.6077 -1.1132  0.6038
   61CHL1  H24B 5684   2.155   5.754   4.505 -0.0401 -1.8397 -0.3683
   61CHL1   C25 5685   2.004   5.819   4.634 -0.3318  0.6435 -0.2389
   61CHL1   H25 5686   1.894   5.834   4.631 -0.5776 -0.9529 -0.4537
   61CHL1   C26 5687   2.029   5.719   4.744 -0.4329  0.0196  0.1683
   61CHL1  H26A 5688   1.971   5.735   4.838  1.0057  1.2705  0.8821
   61CHL1  H26B 5689   2.015   5.616   4.706 -0.1314  1.1836 -3.4928
   61CHL1  H26C 5690   2.134   5.740   4.774 -0.3441 -0.5380  0.2460
   61CHL1   C27 5691   2.076   5.955   4.664  1.3344 -0.4910 -0.1582
   61CHL1  H27A 5692   2.186   5.951   4.671  1.4559  1.4902 -0.1871
   61CHL1  H27B 5693   2.047   6.032   4.589  4.0030  2.1336  1.2852
   61CHL1  H27C 5694   2.053   5.990   4.767  2.4072 -0.0035 -0.0742
   62CHL1    C3 5695   3.979   0.001   2.499  0.2094  0.0108  0.4972
   62CHL1    H3 5696   4.039  -0.081   2.544  0.8022  0.8340  1.2372
   62CHL1    O3 5697   4.018   0.029   2.363 -0.4244  0.0973 -0.0913
   62CHL1   H3' 5698   3.990   0.117   2.337  1.8607  1.2780  1.1201
   62CHL1    C4 5699   3.832  -0.034   2.502 -1.0482  0.2913  0.4085
   62CHL1   H4A 5700   3.787   0.046   2.439 -0.4667 -0.9727 -1.6857
   62CHL1   H4B 5701   3.807  -0.123   2.441 -2.8496  1.5881 -0.8653
   62CHL1    C5 5702   3.778  -0.041   2.640  0.0674  0.1102 -0.0264
   62CHL1    C6 5703   3.714  -0.154   2.682  0.2119 -0.6320 -0.1491
   62CHL1    H6 5704   3.692  -0.238   2.615  0.1766 -1.3928  0.7994
   62CHL1    C7 5705   3.653  -0.175   2.819 -0.1439 -0.0028  0.0114
   62CHL1   H7A 5706   3.553  -0.223   2.820  0.8439 -2.1922 -1.2589
   62CHL1   H7B 5707   3.719  -0.231   2.888  0.8688  0.8514 -0.2196
   62CHL1    C8 5708   3.630  -0.038   2.893  0.4658 -0.1258 -0.6027
   62CHL1    H8 5709   3.539   0.012   2.855  0.6999  0.2553 -0.6638
   62CHL1   C14 5710   3.600  -0.062   3.041  0.4166  0.4205 -0.2624
   62CHL1   H14 5711   3.689  -0.110   3.088 -0.1430 -0.0154  0.3782
   62CHL1   C15 5712   3.475  -0.149   3.069 -0.7312 -0.4071  1.2176
   62CHL1  H15A 5713   3.399  -0.116   2.995 -0.0057  1.3551  1.2092
   62CHL1  H15B 5714   3.503  -0.254   3.043 -0.7013 -0.3438  0.9878
   62CHL1   C16 5715   3.434  -0.113   3.209 -0.1683  0.1607 -0.5549
   62CHL1  H16A 5716   3.331  -0.072   3.212 -0.3355 -0.2520 -0.4489
   62CHL1  H16B 5717   3.440  -0.195   3.285  1.8882 -0.4168 -1.2643
   62CHL1   C17 5718   3.542  -0.003   3.257 -0.3755  0.1500  0.2228
   62CHL1   H17 5719   3.632  -0.056   3.295 -0.0106 -1.9630 -3.1934
   62CHL1   C13 5720   3.586   0.060   3.127  0.2524 -0.2625  0.6957
   62CHL1   C18 5721   3.468   0.153   3.070 -0.0979  0.8306 -0.0021
   62CHL1  H18A 5722   3.453   0.245   3.131  1.2321 -0.2118  2.0220
   62CHL1  H18B 5723   3.491   0.203   2.974  2.5999  0.6209  0.4542
   62CHL1  H18C 5724   3.375   0.097   3.045 -0.3860  0.8454  0.9755
   62CHL1   C12 5725   3.727   0.120   3.125 -0.4304 -0.2920 -0.4970
   62CHL1  H12A 5726   3.727   0.214   3.183  0.5041 -0.0016 -0.9387
   62CHL1  H12B 5727   3.793   0.042   3.169  0.8022 -0.6220 -2.7507
   62CHL1   C11 5728   3.776   0.158   2.985  0.2922 -0.0316 -0.5998
   62CHL1  H11A 5729   3.716   0.246   2.953 -0.1545  0.0142  0.3307
   62CHL1  H11B 5730   3.882   0.192   2.981  0.6336 -0.9377 -5.3497
   62CHL1    C9 5731   3.757   0.044   2.884  0.0312 -0.4076  0.5034
   62CHL1    H9 5732   3.839  -0.025   2.915  1.0033  1.6401  2.8503
   62CHL1   C10 5733   3.795   0.079   2.736  0.0407  0.1873  0.6238
   62CHL1   C19 5734   3.708   0.197   2.680  0.6048 -0.3645 -0.7082
   62CHL1  H19A 5735   3.725   0.214   2.572  2.9817  0.7140 -0.2245
   62CHL1  H19B 5736   3.600   0.178   2.699  0.4557  1.2515  0.2292
   62CHL1  H19C 5737   3.744   0.291   2.726  0.0289 -0.9477  1.0336
   62CHL1    C1 5738   3.946   0.125   2.720  0.0800 -0.2419  0.3491
   62CHL1   H1A 5739   3.957   0.227   2.764  1.0729 -0.0727 -0.2630
   62CHL1   H1B 5740   4.010   0.054   2.778 -0.5761 -0.1250  1.2470
   62CHL1    C2 5741   4.005   0.131   2.579 -0.3613 -0.3634  0.1254
   62CHL1   H2A 5742   4.114   0.147   2.594 -0.6222 -0.0339  1.8925
   62CHL1   H2B 5743   3.966   0.220   2.524  0.0840  1.0194  1.9475
   62CHL1   C20 5744   3.490   0.088   3.381 -0.4444 -0.0637  0.5547
   62CHL1   H20 5745   3.397   0.138   3.347 -1.0248 -0.4797  1.5007
   62CHL1   C21 5746   3.593   0.187   3.427 -0.1028  0.4016 -0.6197
   62CHL1  H21A 5747   3.556   0.228   3.523 -1.2938 -4.1698  1.1168
   62CHL1  H21B 5748   3.619   0.273   3.360 -1.1827  0.9268 -0.3802
   62CHL1  H21C 5749   3.690   0.140   3.455 -1.4272 -1.2647  1.3717
   62CHL1   C22 5750   3.436   0.007   3.508  0.2804  0.2117 -0.1187
   62CHL1  H22A 5751   3.366   0.075   3.562 -0.2389 -1.5026  1.4412
   62CHL1  H22B 5752   3.379  -0.082   3.475 -0.5749  1.5695 -2.5899
   62CHL1   C23 5753   3.539  -0.042   3.610 -0.2806  0.8871 -0.1533
   62CHL1  H23A 5754   3.610  -0.105   3.553 -0.5102 -0.1132  0.6515
   62CHL1  H23B 5755   3.603   0.044   3.640  0.7908 -0.8734  2.9769
   62CHL1   C24 5756   3.477  -0.113   3.733  0.2998  0.3037  0.5095
   62CHL1  H24A 5757   3.402  -0.048   3.783 -1.7216  1.0606 -3.1455
   62CHL1  H24B 5758   3.421  -0.206   3.706 -0.3876  1.3785 -2.1044
   62CHL1   C25 5759   3.576  -0.158   3.844  0.1034 -0.3634  0.1168
   62CHL1   H25 5760   3.654  -0.081   3.862  0.7813 -1.4958  2.2933
   62CHL1   C26 5761   3.493  -0.175   3.978 -0.4220  0.5763 -0.5320
   62CHL1  H26A 5762   3.404  -0.233   3.945  0.9966 -0.6619 -2.4166
   62CHL1  H26B 5763   3.546  -0.233   4.056 -2.2337 -0.8483 -0.2938
   62CHL1  H26C 5764   3.460  -0.076   4.016 -1.5890  0.1006 -0.2649
   62CHL1   C27 5765   3.643  -0.291   3.805 -0.3997 -0.0593  0.7576
   62CHL1  H27A 5766   3.699  -0.324   3.895  0.7221  0.9819  0.4564
   62CHL1  H27B 5767   3.565  -0.367   3.783 -1.4699  1.5656 -1.4300
   62CHL1  H27C 5768   3.692  -0.270   3.708 -3.1482 -0.9238 -0.9576
   63CHL1    C3 5769   0.120   5.750   2.539 -0.9411 -0.9409  0.0053
   63CHL1    H3 5770   0.226   5.783   2.543 -0.7137 -1.2568 -2.2388
   63CHL1    O3 5771   0.095   5.755   2.403 -0.4253 -0.4345  0.2562
   63CHL1   H3' 5772  -0.001   5.750   2.397 -0.5160 -0.7635  1.5818
   63CHL1    C4 5773   0.114   5.611   2.593 -0.0957  0.5333  0.0398
   63CHL1   H4A 5774   0.017   5.561   2.569  1.1106 -0.7633 -2.5410
   63CHL1   H4B 5775   0.188   5.555   2.533 -0.6117  0.4578 -0.5285
   63CHL1    C5 5776   0.152   5.617   2.737  0.1833 -0.3747 -0.5502
   63CHL1    C6 5777   0.261   5.554   2.789  0.8444  0.5052 -0.0562
   63CHL1    H6 5778   0.317   5.492   2.717 -0.6933  0.0714 -0.9289
   63CHL1    C7 5779   0.296   5.540   2.931  0.0057 -0.8565 -0.4836
   63CHL1   H7A 5780   0.299   5.432   2.959 -4.7567 -0.8554  0.9037
   63CHL1   H7B 5781   0.390   5.596   2.949 -0.0069 -1.5840  2.2601
   63CHL1    C8 5782   0.189   5.604   3.024  0.7093 -0.0083 -0.5790
   63CHL1    H8 5783   0.108   5.529   3.013 -0.0216  0.6361  0.3080
   63CHL1   C14 5784   0.239   5.618   3.158 -0.2615  0.4957  0.3452
   63CHL1   H14 5785   0.330   5.681   3.154  0.6584 -0.7898  0.6313
   63CHL1   C15 5786   0.288   5.484   3.219 -0.1841 -0.2080 -0.2638
   63CHL1  H15A 5787   0.214   5.405   3.192  0.2576 -0.1875 -1.5568
   63CHL1  H15B 5788   0.386   5.438   3.194  0.2520 -1.7446  3.5536
   63CHL1   C16 5789   0.309   5.526   3.366 -0.7238  0.1172  0.2487
   63CHL1  H16A 5790   0.269   5.447   3.434 -0.4682  1.0658  1.5420
   63CHL1  H16B 5791   0.414   5.537   3.399 -0.0655 -0.3635 -1.5613
   63CHL1   C17 5792   0.235   5.665   3.386  0.3249 -0.2718  0.1590
   63CHL1   H17 5793   0.316   5.740   3.379  1.8339 -1.6596  1.8582
   63CHL1   C13 5794   0.145   5.687   3.257 -0.5640  1.2322 -0.3129
   63CHL1   C18 5795   0.015   5.605   3.277 -0.0901 -0.5382 -0.8586
   63CHL1  H18A 5796  -0.044   5.665   3.349  3.4375  2.2176 -0.0030
   63CHL1  H18B 5797  -0.045   5.584   3.186 -1.2603 -1.4846  0.1025
   63CHL1  H18C 5798   0.028   5.503   3.319 -0.0614 -0.5121 -0.8028
   63CHL1   C12 5799   0.121   5.830   3.208 -0.5281 -0.9158 -0.4117
   63CHL1  H12A 5800   0.053   5.879   3.280  1.1381 -1.9004  1.9372
   63CHL1  H12B 5801   0.216   5.887   3.208 -0.3331 -1.2275  0.7216
   63CHL1   C11 5802   0.063   5.826   3.067  0.4232 -0.5087 -0.0679
   63CHL1  H11A 5803  -0.033   5.771   3.079  0.9356 -0.9514  2.6842
   63CHL1  H11B 5804   0.030   5.917   3.013 -1.8674 -0.4080  1.3551
   63CHL1    C9 5805   0.145   5.732   2.963 -0.3453 -0.4269 -0.1949
   63CHL1    H9 5806   0.239   5.790   2.948 -1.0002  0.7175 -0.0404
   63CHL1   C10 5807   0.071   5.715   2.827  0.0434 -0.0446  0.6107
   63CHL1   C19 5808  -0.067   5.642   2.840 -0.4290 -0.4220 -0.0793
   63CHL1  H19A 5809  -0.081   5.545   2.891 -0.3376 -0.4339 -0.0780
   63CHL1  H19B 5810  -0.134   5.701   2.906  0.1698 -0.0758  0.2267
   63CHL1  H19C 5811  -0.115   5.653   2.740  0.6665  2.9438 -0.3557
   63CHL1    C1 5812   0.064   5.851   2.755 -0.6443  0.4483  0.0465
   63CHL1   H1A 5813  -0.015   5.901   2.814 -1.0446 -0.6668  0.4762
   63CHL1   H1B 5814   0.164   5.899   2.765 -0.4937 -0.1100  1.4756
   63CHL1    C2 5815   0.028   5.847   2.611  0.2640  0.1342  0.1669
   63CHL1   H2A 5816   0.035   5.951   2.572  0.5957 -0.3284 -1.0439
   63CHL1   H2B 5817  -0.075   5.809   2.593  0.5989  0.4625 -2.9118
   63CHL1   C20 5818   0.176   5.673   3.526 -0.5383  0.6177 -0.1585
   63CHL1   H20 5819   0.079   5.620   3.523 -0.3707  0.3176 -2.7916
   63CHL1   C21 5820   0.132   5.818   3.555 -0.2792 -0.5227  0.5615
   63CHL1  H21A 5821   0.050   5.840   3.483  2.2610 -2.8885 -3.4244
   63CHL1  H21B 5822   0.206   5.900   3.544 -0.9766 -0.1947 -2.6061
   63CHL1  H21C 5823   0.086   5.820   3.656 -0.5878  0.6800  0.4091
   63CHL1   C22 5824   0.263   5.629   3.644  0.7534  0.3911  0.0020
   63CHL1  H22A 5825   0.336   5.548   3.626 -0.0068 -0.4319  0.5378
   63CHL1  H22B 5826   0.324   5.720   3.665  0.0937  0.8464  0.0213
   63CHL1   C23 5827   0.199   5.585   3.775 -0.3562 -0.3694  0.1859
   63CHL1  H23A 5828   0.134   5.662   3.821  0.9311  0.6947  0.2757
   63CHL1  H23B 5829   0.127   5.501   3.761  0.0286 -0.3922 -2.1088
   63CHL1   C24 5830   0.305   5.554   3.881 -0.0519 -0.2592  0.1919
   63CHL1  H24A 5831   0.368   5.468   3.854  1.3912 -0.1773  2.9207
   63CHL1  H24B 5832   0.370   5.644   3.888  0.3691 -0.6064  0.7544
   63CHL1   C25 5833   0.239   5.537   4.025  0.1274  0.0331 -0.3355
   63CHL1   H25 5834   0.184   5.628   4.058  0.4937 -0.3415  1.3724
   63CHL1   C26 5835   0.146   5.411   4.020  0.5102 -0.1876  0.7704
   63CHL1  H26A 5836   0.216   5.336   3.979 -1.7393 -1.4670 -0.9898
   63CHL1  H26B 5837   0.114   5.385   4.123 -2.4950  0.3093  0.0675
   63CHL1  H26C 5838   0.063   5.408   3.946  0.3025 -1.0507  1.0290
   63CHL1   C27 5839   0.345   5.505   4.129 -0.3454  0.1160  0.3085
   63CHL1  H27A 5840   0.387   5.404   4.112  1.6071  1.0779 -1.0835
   63CHL1  H27B 5841   0.429   5.576   4.111 -0.0114 -0.3342  0.0541
   63CHL1  H27C 5842   0.296   5.508   4.228 -1.1695 -1.3002 -0.0219
   64CHL1    C3 5843   4.249   1.194   2.819 -0.1626 -0.2097 -0.2240
   64CHL1    H3 5844   4.179   1.279   2.832 -0.1265 -0.4241  1.7154
   64CHL1    O3 5845   4.296   1.202   2.683  0.1830 -0.4558  0.0208
   64CHL1   H3' 5846   4.388   1.179   2.670 -0.0372 -0.1568 -2.7366
   64CHL1    C4 5847   4.366   1.212   2.917  0.5628  0.2766  0.6269
   64CHL1   H4A 5848   4.456   1.162   2.875  0.1828  0.4838 -0.4555
   64CHL1   H4B 5849   4.405   1.315   2.906  2.0706 -0.3399 -0.1981
   64CHL1    C5 5850   4.322   1.172   3.054 -0.3086 -0.5741  0.4861
   64CHL1    C6 5851   4.332   1.257   3.158  0.2596 -0.1594 -0.3937
   64CHL1    H6 5852   4.354   1.363   3.135 -0.8729  0.1021 -0.3674
   64CHL1    C7 5853   4.315   1.220   3.304  0.2318  0.3378  0.2648
   64CHL1   H7A 5854   4.401   1.264   3.358 -0.8873  2.2925  0.5424
   64CHL1   H7B 5855   4.230   1.278   3.345  1.6233  1.4434  1.6813
   64CHL1    C8 5856   4.303   1.062   3.331  0.1472 -0.1639  0.5160
   64CHL1    H8 5857   4.405   1.022   3.314  0.5452  1.5955 -1.6072
   64CHL1   C14 5858   4.251   1.033   3.466 -0.1037  0.6585 -0.7455
   64CHL1   H14 5859   4.154   1.081   3.489 -0.0308  0.3175  0.3294
   64CHL1   C15 5860   4.346   1.088   3.575 -0.1752  0.5780  0.1838
   64CHL1  H15A 5861   4.455   1.071   3.556 -0.1320 -0.1923  0.9961
   64CHL1  H15B 5862   4.338   1.198   3.589 -1.3529  0.3284  1.7546
   64CHL1   C16 5863   4.299   1.015   3.701 -0.2563  0.6498 -0.1178
   64CHL1  H16A 5864   4.388   0.978   3.757 -0.5479  1.8935  1.2196
   64CHL1  H16B 5865   4.246   1.081   3.772  1.9205  0.2187  2.0417
   64CHL1   C17 5866   4.200   0.904   3.654 -0.0322  0.0641  0.7269
   64CHL1   H17 5867   4.102   0.956   3.653 -0.2420 -0.3058 -0.6378
   64CHL1   C13 5868   4.232   0.886   3.502 -0.0712 -0.4006 -1.2023
   64CHL1   C18 5869   4.359   0.801   3.478  0.1603 -0.1772 -0.5654
   64CHL1  H18A 5870   4.370   0.802   3.368 -1.7412 -4.6014 -1.0206
   64CHL1  H18B 5871   4.447   0.841   3.533  0.5486 -1.1736 -0.4298
   64CHL1  H18C 5872   4.341   0.698   3.515 -0.3520  0.2804  0.4984
   64CHL1   C12 5873   4.121   0.835   3.397  0.2512  0.4044 -0.1522
   64CHL1  H12A 5874   4.110   0.725   3.409  0.6915  0.5557  1.9360
   64CHL1  H12B 5875   4.025   0.884   3.422  0.9011  1.0428  1.1728
   64CHL1   C11 5876   4.162   0.856   3.247 -0.3144 -0.2989  0.5210
   64CHL1  H11A 5877   4.245   0.790   3.216 -0.0543 -0.1465  0.8898
   64CHL1  H11B 5878   4.073   0.828   3.186  0.1846 -0.7073 -0.0215
   64CHL1    C9 5879   4.208   1.001   3.216 -0.9704 -0.1415 -0.5104
   64CHL1    H9 5880   4.117   1.063   3.231  0.5645  2.2729 -0.6506
   64CHL1   C10 5881   4.262   1.030   3.072  0.2205 -0.3071 -0.4077
   64CHL1   C19 5882   4.366   0.922   3.042 -0.0822  0.4116  0.6071
   64CHL1  H19A 5883   4.411   0.939   2.943  0.0180 -0.4437  0.4998
   64CHL1  H19B 5884   4.444   0.912   3.120 -0.6416  1.0930  1.2713
   64CHL1  H19C 5885   4.316   0.824   3.027  0.2634 -0.2694  3.3028
   64CHL1    C1 5886   4.144   1.027   2.977 -0.9265  0.0370  0.8174
   64CHL1   H1A 5887   4.084   0.934   2.982 -2.2472  0.8866  1.4906
   64CHL1   H1B 5888   4.066   1.097   3.014  0.0560  0.4824  2.1688
   64CHL1    C2 5889   4.177   1.058   2.834  0.2298  0.7573  0.0162
   64CHL1   H2A 5890   4.081   1.075   2.782  1.0212  2.3774 -0.9938
   64CHL1   H2B 5891   4.231   0.976   2.781  2.3424  0.8085  1.9414
   64CHL1   C20 5892   4.192   0.786   3.742  0.4001 -0.5926 -0.4443
   64CHL1   H20 5893   4.164   0.700   3.679 -0.6832 -1.0616  0.6406
   64CHL1   C21 5894   4.067   0.794   3.838  0.4450 -0.0853  0.2177
   64CHL1  H21A 5895   3.972   0.808   3.781  1.2922  3.8817 -0.5215
   64CHL1  H21B 5896   4.081   0.871   3.916  1.1349  0.5480 -0.5173
   64CHL1  H21C 5897   4.056   0.696   3.890  1.7532 -0.8446 -0.8880
   64CHL1   C22 5898   4.325   0.743   3.815 -0.5448  0.0819 -0.4315
   64CHL1  H22A 5899   4.413   0.769   3.752 -0.1089  0.9137  0.4804
   64CHL1  H22B 5900   4.335   0.787   3.917 -2.3936 -0.2338 -0.0864
   64CHL1   C23 5901   4.352   0.592   3.827 -0.0107  0.1378  0.1678
   64CHL1  H23A 5902   4.276   0.533   3.882  1.2099 -0.9580  0.7191
   64CHL1  H23B 5903   4.366   0.554   3.724  0.6959  0.1995  0.2407
   64CHL1   C24 5904   4.477   0.567   3.909  0.2032  0.7561  0.4336
   64CHL1  H24A 5905   4.562   0.585   3.840  1.6465  1.1106  2.2520
   64CHL1  H24B 5906   4.493   0.626   4.002 -1.7399  0.0376  1.2862
   64CHL1   C25 5907   4.482   0.415   3.941 -0.0899 -0.6388  0.3593
   64CHL1   H25 5908   4.434   0.356   3.861 -0.4980 -1.5296  1.2392
   64CHL1   C26 5909   4.630   0.374   3.965 -0.2046  0.3640  0.6754
   64CHL1  H26A 5910   4.703   0.401   3.886 -1.3205  1.0277 -0.1713
   64CHL1  H26B 5911   4.670   0.400   4.065  4.4262 -2.4814 -0.1684
   64CHL1  H26C 5912   4.626   0.263   3.972 -0.8925  0.3189 -0.1230
   64CHL1   C27 5913   4.393   0.390   4.067 -0.0398  0.2313 -0.0773
   64CHL1  H27A 5914   4.381   0.281   4.087  2.2451 -0.2148 -0.8037
   64CHL1  H27B 5915   4.441   0.444   4.151  2.7842  1.7422 -2.4449
   64CHL1  H27C 5916   4.291   0.427   4.044 -0.4481 -0.1616  1.0310
   65CHL1    C3 5917   4.396   5.022   2.674  0.6337  0.9415  0.2149
   65CHL1    H3 5918   4.308   5.084   2.648 -0.6037 -0.8484 -0.0260
   65CHL1    O3 5919   4.433   4.963   2.548 -0.3459 -0.0437  0.1630
   65CHL1   H3' 5920   4.351   4.919   2.525 -0.4828 -0.1643  0.8534
   65CHL1    C4 5921   4.506   5.114   2.728 -0.5954  0.2971 -0.3343
   65CHL1   H4A 5922   4.603   5.062   2.715 -1.2899 -1.9639  2.5593
   65CHL1   H4B 5923   4.510   5.198   2.655  1.3591 -0.3723 -1.0705
   65CHL1    C5 5924   4.482   5.166   2.868  0.2974 -0.4738 -0.5885
   65CHL1    C6 5925   4.493   5.295   2.906  0.0795 -0.0632  0.8181
   65CHL1    H6 5926   4.521   5.373   2.834  1.1224 -1.0847  0.0917
   65CHL1    C7 5927   4.466   5.344   3.047  0.0839  0.8931 -0.7043
   65CHL1   H7A 5928   4.514   5.443   3.065  1.6816 -0.0880  0.8028
   65CHL1   H7B 5929   4.356   5.350   3.033 -0.1127 -0.9255 -0.1951
   65CHL1    C8 5930   4.490   5.234   3.154 -0.2244 -0.8378  0.5174
   65CHL1    H8 5931   4.600   5.219   3.145 -0.0507  0.7503 -0.2236
   65CHL1   C14 5932   4.447   5.284   3.295 -1.0233 -0.2627 -0.4523
   65CHL1   H14 5933   4.341   5.317   3.299 -0.7824  0.4368  0.3972
   65CHL1   C15 5934   4.531   5.404   3.346  0.2018  0.0844 -0.1718
   65CHL1  H15A 5935   4.638   5.379   3.333  0.2065  0.1926 -0.3395
   65CHL1  H15B 5936   4.511   5.498   3.289  0.4861 -1.2276 -2.5410
   65CHL1   C16 5937   4.511   5.391   3.500  0.2750 -0.6183 -0.6221
   65CHL1  H16A 5938   4.613   5.387   3.542  0.2977  0.6011 -0.5142
   65CHL1  H16B 5939   4.453   5.476   3.542  1.6162 -0.2774  0.6159
   65CHL1   C17 5940   4.433   5.257   3.528 -0.2045  0.3670  0.1071
   65CHL1   H17 5941   4.324   5.276   3.525 -0.6505 -1.9645 -0.5214
   65CHL1   C13 5942   4.455   5.174   3.400 -0.7850  0.3436 -0.5485
   65CHL1   C18 5943   4.605   5.114   3.417  0.5473  0.0029  0.0708
   65CHL1  H18A 5944   4.599   5.027   3.485 -1.9383 -1.0117 -1.3102
   65CHL1  H18B 5945   4.637   5.070   3.320 -1.0680 -2.1455  0.4282
   65CHL1  H18C 5946   4.674   5.196   3.448  0.3379 -0.1589  0.9834
   65CHL1   C12 5947   4.364   5.067   3.355  0.6387  0.4928  0.3274
   65CHL1  H12A 5948   4.353   4.983   3.428 -1.1695 -0.4026 -0.8853
   65CHL1  H12B 5949   4.263   5.114   3.347  0.2642 -0.0329  1.5902
   65CHL1   C11 5950   4.409   5.007   3.222 -0.0815 -0.4672 -0.0410
   65CHL1  H11A 5951   4.506   4.952   3.228  0.5285  0.6210  0.1983
   65CHL1  H11B 5952   4.339   4.927   3.189  1.3234 -1.1915 -1.3786
   65CHL1    C9 5953   4.413   5.107   3.108 -0.3667  0.0416  0.1847
   65CHL1    H9 5954   4.307   5.139   3.094 -0.0765  3.0429  3.4628
   65CHL1   C10 5955   4.446   5.050   2.965  0.0740 -0.5201  0.5863
   65CHL1   C19 5956   4.583   4.975   2.981  0.2798 -0.0716  0.2564
   65CHL1  H19A 5957   4.644   5.042   3.045 -1.4203  2.6739 -0.7953
   65CHL1  H19B 5958   4.561   4.881   3.035 -1.2873 -0.3848 -0.8582
   65CHL1  H19C 5959   4.625   4.942   2.884  0.9478 -0.2909  0.6124
   65CHL1    C1 5960   4.337   4.963   2.911  1.2605  0.5649  0.1176
   65CHL1   H1A 5961   4.331   4.872   2.974 -0.2314 -0.4464 -1.3773
   65CHL1   H1B 5962   4.242   5.020   2.922 -0.5138 -2.5795  2.5022
   65CHL1    C2 5963   4.363   4.912   2.769  0.0093  0.0298 -0.9112
   65CHL1   H2A 5964   4.273   4.857   2.733 -2.0613  0.5198  2.9821
   65CHL1   H2B 5965   4.446   4.840   2.782 -0.6861 -0.8236 -1.1294
   65CHL1   C20 5966   4.456   5.181   3.662  0.5069 -0.7380 -0.7152
   65CHL1   H20 5967   4.566   5.172   3.672  0.4431 -0.4858  0.3142
   65CHL1   C21 5968   4.389   5.040   3.684 -0.4509 -0.6369  0.1612
   65CHL1  H21A 5969   4.282   5.040   3.657 -0.2382 -0.6679 -0.7319
   65CHL1  H21B 5970   4.399   5.023   3.793  3.0643  1.8120  0.4219
   65CHL1  H21C 5971   4.441   4.961   3.627  0.3299 -0.4912  0.6515
   65CHL1   C22 5972   4.425   5.281   3.776  0.6268 -0.2747 -0.3446
   65CHL1  H22A 5973   4.431   5.390   3.754 -1.3469  0.0322  0.4507
   65CHL1  H22B 5974   4.318   5.261   3.800  0.7825  1.6267  2.4015
   65CHL1   C23 5975   4.511   5.256   3.900 -0.6786 -0.1257 -0.9692
   65CHL1  H23A 5976   4.496   5.156   3.946  0.1551 -1.2478 -3.0388
   65CHL1  H23B 5977   4.612   5.253   3.855 -0.4815 -3.1925 -0.5044
   65CHL1   C24 5978   4.500   5.366   4.020  0.2889  0.1729  0.1705
   65CHL1  H24A 5979   4.400   5.347   4.063  0.3973 -0.1393  0.2913
   65CHL1  H24B 5980   4.576   5.330   4.093  0.9427 -0.8791 -0.9889
   65CHL1   C25 5981   4.534   5.511   3.991 -0.8342  0.2379 -0.1394
   65CHL1   H25 5982   4.458   5.539   3.915  1.2271  0.4276 -2.2478
   65CHL1   C26 5983   4.527   5.598   4.118 -0.1726 -0.2930 -0.5759
   65CHL1  H26A 5984   4.558   5.702   4.093  1.5004 -0.3738  0.9548
   65CHL1  H26B 5985   4.425   5.605   4.162  0.1852 -0.3168  0.2960
   65CHL1  H26C 5986   4.592   5.564   4.202  1.4614  3.2181 -0.2410
   65CHL1   C27 5987   4.676   5.523   3.926 -0.0317  0.1369 -0.4325
   65CHL1  H27A 5988   4.676   5.520   3.815 -0.3412  1.5891 -0.4933
   65CHL1  H27B 5989   4.712   5.623   3.960  0.2956 -0.7627  2.0527
   65CHL1  H27C 5990   4.739   5.441   3.967 -0.6400 -0.2972 -0.3648
   66CHL1    C3 5991   2.073   0.591   2.482 -0.1114  0.9163  0.1265
   66CHL1    H3 5992   1.964   0.605   2.502 -0.2689 -0.1713  0.0572
   66CHL1    O3 5993   2.080   0.542   2.348 -0.3904  0.3581 -0.7610
   66CHL1   H3' 5994   2.175   0.538   2.332 -0.2405  0.4451  0.0335
   66CHL1    C4 5995   2.138   0.725   2.498 -0.2406  0.6458  0.5750
   66CHL1   H4A 5996   2.238   0.723   2.449  0.1317  2.0401  1.1993
   66CHL1   H4B 5997   2.073   0.789   2.434 -0.1156  0.4196  0.2192
   66CHL1    C5 5998   2.151   0.787   2.637  1.0331 -0.0687  0.2460
   66CHL1    C6 5999   2.107   0.911   2.659 -0.1905  0.1819  0.4449
   66CHL1    H6 6000   2.077   0.966   2.568  0.0760  1.7255  1.2460
   66CHL1    C7 6001   2.123   0.978   2.796 -0.3077  0.2948  0.4188
   66CHL1   H7A 6002   2.156   1.083   2.786 -1.5544  0.7567  1.0286
   66CHL1   H7B 6003   2.019   0.986   2.834 -1.1566  1.7647 -2.0328
   66CHL1    C8 6004   2.223   0.891   2.883  0.0111  0.1875  0.5645
   66CHL1    H8 6005   2.320   0.910   2.834  0.1242  0.9707  1.0707
   66CHL1   C14 6006   2.218   0.931   3.025 -0.0834  0.1392  0.2139
   66CHL1   H14 6007   2.115   0.901   3.054  0.7230 -2.0186  0.9910
   66CHL1   C15 6008   2.222   1.080   3.056  0.3592 -0.7492  0.7832
   66CHL1  H15A 6009   2.276   1.139   2.979 -2.3574  0.4580 -0.2933
   66CHL1  H15B 6010   2.118   1.117   3.051  1.0479  1.3812  1.0180
   66CHL1   C16 6011   2.270   1.093   3.201 -0.0487  0.2214  0.1234
   66CHL1  H16A 6012   2.363   1.151   3.212  0.6077 -0.9563  1.0705
   66CHL1  H16B 6013   2.197   1.138   3.272 -0.0969 -2.1907  1.7284
   66CHL1   C17 6014   2.294   0.946   3.250 -0.4821 -0.6465  0.9732
   66CHL1   H17 6015   2.192   0.919   3.283 -0.7997 -1.5294 -0.6147
   66CHL1   C13 6016   2.315   0.860   3.122  0.6557 -0.1247 -0.5467
   66CHL1   C18 6017   2.460   0.889   3.081 -0.0260  0.4386 -0.3083
   66CHL1  H18A 6018   2.490   0.995   3.092  0.1101  0.6466 -2.3706
   66CHL1  H18B 6019   2.526   0.822   3.141 -0.5713 -0.7222 -0.9725
   66CHL1  H18C 6020   2.486   0.860   2.977 -0.7407 -0.0899 -0.3457
   66CHL1   C12 6021   2.276   0.713   3.122 -0.1229 -0.9637  0.6266
   66CHL1  H12A 6022   2.355   0.657   3.177 -0.2568 -1.9815 -0.1707
   66CHL1  H12B 6023   2.187   0.698   3.186 -2.1014  0.6119 -1.6122
   66CHL1   C11 6024   2.273   0.658   2.980 -0.1641 -0.2045  0.3152
   66CHL1  H11A 6025   2.378   0.657   2.944 -0.0752 -1.9233  0.5435
   66CHL1  H11B 6026   2.246   0.550   2.976  3.4477 -1.1950 -0.6669
   66CHL1    C9 6027   2.193   0.741   2.878  0.6479  0.0240 -0.1567
   66CHL1    H9 6028   2.086   0.728   2.908 -0.2472  0.7988 -2.7139
   66CHL1   C10 6029   2.204   0.686   2.734  0.2594 -0.5983  0.1654
   66CHL1   C19 6030   2.359   0.675   2.686 -0.1830 -0.2968  0.0828
   66CHL1  H19A 6031   2.366   0.639   2.581 -1.4624 -1.5331  0.3950
   66CHL1  H19B 6032   2.416   0.771   2.691  1.7007 -1.2249 -1.8333
   66CHL1  H19C 6033   2.413   0.600   2.748  0.2179 -0.9425 -1.0276
   66CHL1    C1 6034   2.138   0.543   2.723 -0.0765 -0.3939 -0.5804
   66CHL1   H1A 6035   2.200   0.471   2.781 -0.0639 -0.1860 -0.3312
   66CHL1   H1B 6036   2.035   0.549   2.762 -0.7610  0.2287 -2.3810
   66CHL1    C2 6037   2.137   0.496   2.576  0.2053 -0.5343  0.0650
   66CHL1   H2A 6038   2.100   0.392   2.559 -1.1308  0.2726 -2.6154
   66CHL1   H2B 6039   2.244   0.488   2.545 -0.0635 -2.1002 -0.5672
   66CHL1   C20 6040   2.391   0.924   3.369 -0.0123  0.0929  0.2085
   66CHL1   H20 6041   2.492   0.921   3.322  1.1453  1.7439  2.3975
   66CHL1   C21 6042   2.364   0.782   3.433  0.0646 -0.1567 -0.2796
   66CHL1  H21A 6043   2.427   0.701   3.390  0.6430 -1.0393  2.0616
   66CHL1  H21B 6044   2.254   0.768   3.439 -0.1955  2.1007  2.7064
   66CHL1  H21C 6045   2.407   0.793   3.535 -0.0953 -1.4591 -0.0594
   66CHL1   C22 6046   2.396   1.038   3.477 -0.1276  0.6641 -0.0588
   66CHL1  H22A 6047   2.494   1.047   3.529 -0.6058 -3.2917  1.8722
   66CHL1  H22B 6048   2.394   1.133   3.418  0.9492  1.1075  0.5797
   66CHL1   C23 6049   2.281   1.053   3.574  0.2586 -0.2385 -0.0583
   66CHL1  H23A 6050   2.185   1.049   3.517 -0.4372 -0.1842  1.0883
   66CHL1  H23B 6051   2.285   0.967   3.644 -0.0429 -0.5195 -0.3830
   66CHL1   C24 6052   2.286   1.180   3.653 -0.2438 -0.4767 -0.1522
   66CHL1  H24A 6053   2.277   1.265   3.581  0.6999  0.1331  0.4251
   66CHL1  H24B 6054   2.199   1.185   3.722  0.5337  0.0265  0.8117
   66CHL1   C25 6055   2.403   1.190   3.756 -0.9241  0.2213  0.6512
   66CHL1   H25 6056   2.497   1.187   3.696 -1.1711  0.4676  0.2436
   66CHL1   C26 6057   2.400   1.317   3.841 -0.9743 -0.3986  0.3357
   66CHL1  H26A 6058   2.387   1.406   3.775 -0.5048 -0.2594  0.4304
   66CHL1  H26B 6059   2.313   1.316   3.910 -1.5060  1.7978 -0.2069
   66CHL1  H26C 6060   2.486   1.331   3.910 -1.4920  0.4847  0.8212
   66CHL1   C27 6061   2.402   1.075   3.861 -0.0516 -0.1688 -0.1921
   66CHL1  H27A 6062   2.472   1.082   3.947  0.2464 -0.1705 -0.4286
   66CHL1  H27B 6063   2.430   0.980   3.809  0.9630 -0.3265  0.6011
   66CHL1  H27C 6064   2.298   1.077   3.899 -0.4340  3.3124 -1.0564
   67CHL1    C3 6065   6.304   5.963   2.524  0.4119  0.2438  0.1752
   67CHL1    H3 6066   6.207   5.913   2.545  0.1962 -0.1729 -1.6662
   67CHL1    O3 6067   6.328   5.972   2.383 -0.1320  0.3487 -0.0774
   67CHL1   H3' 6068   6.323   5.880   2.357 -0.3879  0.4304 -0.3222
   67CHL1    C4 6069   6.296   6.107   2.583  0.2930 -0.8383 -0.5143
   67CHL1   H4A 6070   6.377   6.163   2.531 -0.1437 -1.3097 -1.7632
   67CHL1   H4B 6071   6.200   6.147   2.543  0.2743 -0.0186  0.3324
   67CHL1    C5 6072   6.299   6.110   2.733  0.2739 -0.2490 -0.8026
   67CHL1    C6 6073   6.198   6.164   2.803  0.3552 -0.0751  0.3438
   67CHL1    H6 6074   6.121   6.211   2.741  1.8978  0.6771 -1.0904
   67CHL1    C7 6075   6.199   6.186   2.952  0.0485  0.0972  0.1184
   67CHL1   H7A 6076   6.195   6.295   2.972 -0.3368 -0.0455  0.8747
   67CHL1   H7B 6077   6.113   6.141   3.006 -1.5425  1.1231 -1.4470
   67CHL1    C8 6078   6.325   6.145   3.019 -1.0702  0.1677  0.3190
   67CHL1    H8 6079   6.406   6.221   3.009  0.9897 -1.7918  1.2305
   67CHL1   C14 6080   6.300   6.113   3.162 -0.3961 -0.1620 -0.5353
   67CHL1   H14 6081   6.219   6.038   3.173 -0.9737  0.2642 -1.7409
   67CHL1   C15 6082   6.230   6.225   3.242 -0.0012 -0.2934  0.1876
   67CHL1  H15A 6083   6.290   6.318   3.248 -0.4826  0.0772 -0.5358
   67CHL1  H15B 6084   6.125   6.242   3.208 -0.1166 -1.6116 -0.1808
   67CHL1   C16 6085   6.246   6.173   3.387 -0.4100 -0.0793  0.0269
   67CHL1  H16A 6086   6.310   6.239   3.448  0.9138 -1.9391  0.7333
   67CHL1  H16B 6087   6.143   6.152   3.422 -0.3656 -0.8196 -0.2666
   67CHL1   C17 6088   6.327   6.035   3.382  0.0873 -0.8878  0.0048
   67CHL1   H17 6089   6.250   5.956   3.366  0.8874 -1.6408 -0.2235
   67CHL1   C13 6090   6.410   6.051   3.251 -0.5370 -0.1532  0.5075
   67CHL1   C18 6091   6.527   6.146   3.282 -0.0736  0.7517  0.2105
   67CHL1  H18A 6092   6.604   6.077   3.321 -1.5988 -1.8727 -1.1162
   67CHL1  H18B 6093   6.561   6.196   3.188  0.0023  0.9872  0.3617
   67CHL1  H18C 6094   6.509   6.219   3.364  0.8823  0.3648  0.7811
   67CHL1   C12 6095   6.459   5.915   3.186  0.4382 -0.2819 -0.0248
   67CHL1  H12A 6096   6.545   5.873   3.242  0.7214 -1.5218 -1.3316
   67CHL1  H12B 6097   6.371   5.848   3.196  1.1893 -1.2341  0.3889
   67CHL1   C11 6098   6.489   5.943   3.032  0.4565  0.1361  0.6570
   67CHL1  H11A 6099   6.583   5.996   3.007 -0.9692  1.2394 -3.0544
   67CHL1  H11B 6100   6.508   5.841   2.991 -0.4232 -0.5463  1.8792
   67CHL1    C9 6101   6.378   6.013   2.959 -0.1123 -0.1717 -0.1399
   67CHL1    H9 6102   6.290   5.945   2.959  0.8687 -1.4895 -0.1105
   67CHL1   C10 6103   6.411   6.034   2.809  0.1263 -1.2698  0.3824
   67CHL1   C19 6104   6.535   6.111   2.790 -0.1404 -0.4465 -0.8319
   67CHL1  H19A 6105   6.624   6.053   2.824  0.4858 -0.0476 -1.7552
   67CHL1  H19B 6106   6.551   6.126   2.681 -0.8453 -2.6542 -1.2971
   67CHL1  H19C 6107   6.532   6.213   2.834  2.0178 -0.8629  0.4255
   67CHL1    C1 6108   6.407   5.896   2.738  0.0272  0.1573  0.4474
   67CHL1   H1A 6109   6.490   5.841   2.787 -0.3237  1.4349  2.6547
   67CHL1   H1B 6110   6.316   5.841   2.771  1.0156 -1.2150  0.9571
   67CHL1    C2 6111   6.421   5.888   2.589  0.3686 -0.2029  0.1042
   67CHL1   H2A 6112   6.414   5.780   2.565  0.9107  0.0536 -1.3226
   67CHL1   H2B 6113   6.514   5.936   2.552  0.6959  0.0920  1.2662
   67CHL1   C20 6114   6.399   6.015   3.523  1.3169 -0.1348  0.8045
   67CHL1   H20 6115   6.491   6.077   3.520  1.2089  0.0290  0.9266
   67CHL1   C21 6116   6.456   5.867   3.535  0.5012 -0.4199 -0.3051
   67CHL1  H21A 6117   6.374   5.798   3.565 -1.1541  0.9532 -1.5217
   67CHL1  H21B 6118   6.524   5.875   3.622  0.2301 -0.2333 -0.1101
   67CHL1  H21C 6119   6.510   5.829   3.445 -0.9553 -1.7462 -0.6612
   67CHL1   C22 6120   6.319   6.061   3.646 -0.2027 -0.3191  0.4844
   67CHL1  H22A 6121   6.302   6.171   3.652 -3.1730 -0.4658 -2.4382
   67CHL1  H22B 6122   6.218   6.016   3.660 -0.0988 -0.7997 -0.2774
   67CHL1   C23 6123   6.399   6.029   3.776 -0.0595  0.1060 -0.6647
   67CHL1  H23A 6124   6.328   6.044   3.860  0.0440  1.3637 -0.7850
   67CHL1  H23B 6125   6.419   5.920   3.787 -0.4052  0.1185  0.0970
   67CHL1   C24 6126   6.528   6.112   3.807 -0.2642 -0.1280  0.7156
   67CHL1  H24A 6127   6.612   6.086   3.738  0.3459 -0.3116  1.5172
   67CHL1  H24B 6128   6.506   6.218   3.785  3.3795  0.5189 -0.5584
   67CHL1   C25 6129   6.567   6.094   3.953  0.5009  0.3155 -0.1439
   67CHL1   H25 6130   6.474   6.063   4.008  0.9715 -1.0008 -0.0381
   67CHL1   C26 6131   6.667   5.982   3.974  0.7337 -0.0974  0.2308
   67CHL1  H26A 6132   6.623   5.884   3.945 -0.2581 -0.2612  2.1076
   67CHL1  H26B 6133   6.762   6.010   3.923 -1.0246  4.2083 -1.1039
   67CHL1  H26C 6134   6.692   5.966   4.081  0.6762 -0.9907  0.1192
   67CHL1   C27 6135   6.617   6.223   4.030  0.2728  0.6562  0.3875
   67CHL1  H27A 6136   6.720   6.252   3.998  0.7764  0.1590  1.5027
   67CHL1  H27B 6137   6.551   6.309   4.009 -0.4829  0.7286  2.8086
   67CHL1  H27C 6138   6.620   6.196   4.138  0.0909 -1.7992 -0.1580
   68CHL1    C3 6139   4.556   3.949   2.505  0.0703 -0.2405  0.4573
   68CHL1    H3 6140   4.489   3.864   2.478  0.1690 -0.1341 -0.1388
   68CHL1    O3 6141   4.603   3.987   2.377  0.0355 -0.7070  0.0379
   68CHL1   H3' 6142   4.653   4.068   2.394 -2.3992  0.9891 -0.4286
   68CHL1    C4 6143   4.471   4.060   2.567 -0.0513  0.4793  0.0154
   68CHL1   H4A 6144   4.531   4.154   2.559  3.0283 -1.1203  2.0939
   68CHL1   H4B 6145   4.376   4.077   2.512 -1.0465  0.9743  1.8282
   68CHL1    C5 6146   4.448   4.037   2.711  0.2143 -0.2540 -0.1083
   68CHL1    C6 6147   4.320   4.040   2.760  0.6263 -0.0892  0.2883
   68CHL1    H6 6148   4.237   4.052   2.688  2.4899  1.2964 -1.7623
   68CHL1    C7 6149   4.287   4.029   2.901  0.5279  0.5408  0.2720
   68CHL1   H7A 6150   4.218   4.106   2.943 -1.0542 -1.0135  0.6568
   68CHL1   H7B 6151   4.231   3.933   2.905  1.0207  0.2787  1.5800
   68CHL1    C8 6152   4.409   4.022   3.002  0.2928  0.8981  0.0248
   68CHL1    H8 6153   4.437   4.125   3.032 -0.6409  0.3608  3.1130
   68CHL1   C14 6154   4.366   3.954   3.125  0.1423  0.2324 -0.1786
   68CHL1   H14 6155   4.357   3.846   3.100  0.5680  0.6176 -2.1840
   68CHL1   C15 6156   4.234   4.005   3.196  0.2215  0.6108 -0.7279
   68CHL1  H15A 6157   4.242   4.116   3.202  1.8622  0.5118 -0.5047
   68CHL1  H15B 6158   4.139   3.972   3.148 -0.4341 -0.3105  1.1151
   68CHL1   C16 6159   4.251   3.947   3.336 -0.2670 -0.4845 -0.8057
   68CHL1  H16A 6160   4.239   4.031   3.408  3.0599  0.4755 -1.2212
   68CHL1  H16B 6161   4.177   3.866   3.353 -0.4776 -0.1424 -0.0669
   68CHL1   C17 6162   4.397   3.888   3.352  0.1626  0.3092  0.8521
   68CHL1   H17 6163   4.380   3.782   3.325 -1.3014  1.3956 -3.2535
   68CHL1   C13 6164   4.473   3.955   3.238  0.7419  0.2376  1.2029
   68CHL1   C18 6165   4.511   4.106   3.273  0.4112 -0.3575 -0.6832
   68CHL1  H18A 6166   4.421   4.169   3.280 -0.9881 -2.3812  1.3243
   68CHL1  H18B 6167   4.546   4.101   3.379  0.0413 -3.5093 -0.6064
   68CHL1  H18C 6168   4.578   4.146   3.194 -0.4036 -0.0331 -1.2192
   68CHL1   C12 6169   4.591   3.870   3.187 -0.4214  0.8542 -0.5063
   68CHL1  H12A 6170   4.682   3.878   3.250  0.4583 -0.4797 -1.5645
   68CHL1  H12B 6171   4.564   3.765   3.166 -0.7533  1.1842 -1.8412
   68CHL1   C11 6172   4.639   3.916   3.041 -0.1680 -0.0973 -0.0667
   68CHL1  H11A 6173   4.692   4.012   3.057 -0.6511  0.3148 -0.9155
   68CHL1  H11B 6174   4.703   3.838   2.994 -1.7226 -1.3936 -0.1419
   68CHL1    C9 6175   4.523   3.940   2.942  0.9370  0.0112 -0.5705
   68CHL1    H9 6176   4.480   3.840   2.923 -1.3663  0.7421  0.3567
   68CHL1   C10 6177   4.559   3.995   2.804  0.0138 -0.1196  0.8205
   68CHL1   C19 6178   4.642   4.131   2.827 -0.4463 -0.2008 -0.9448
   68CHL1  H19A 6179   4.581   4.193   2.896  2.9200  1.7541  0.5199
   68CHL1  H19B 6180   4.733   4.112   2.888 -1.8875 -0.1213  1.3312
   68CHL1  H19C 6181   4.671   4.191   2.738  0.1725  1.9911  0.6314
   68CHL1    C1 6182   4.636   3.886   2.732  0.1979  0.8886 -0.2706
   68CHL1   H1A 6183   4.727   3.869   2.794 -0.6803  1.9043  1.3454
   68CHL1   H1B 6184   4.580   3.790   2.734 -0.9765  1.5793  0.8787
   68CHL1    C2 6185   4.675   3.912   2.590  0.3930 -0.0603  0.3223
   68CHL1   H2A 6186   4.725   3.823   2.548 -0.5877 -0.2268 -0.5211
   68CHL1   H2B 6187   4.741   4.001   2.590  0.8204 -0.3711  0.7429
   68CHL1   C20 6188   4.446   3.894   3.491 -0.6835 -0.3103 -0.4047
   68CHL1   H20 6189   4.441   4.001   3.518  0.0976  0.2070 -2.2268
   68CHL1   C21 6190   4.595   3.848   3.506 -0.7348 -0.1285 -0.3989
   68CHL1  H21A 6191   4.617   3.744   3.473  1.2327 -0.0942  0.6699
   68CHL1  H21B 6192   4.610   3.853   3.616  0.8055  1.5122 -0.6395
   68CHL1  H21C 6193   4.676   3.915   3.470  0.4226 -0.8338  0.8138
   68CHL1   C22 6194   4.359   3.817   3.602  0.1023  0.2827  0.4041
   68CHL1  H22A 6195   4.417   3.828   3.696 -0.3847 -0.7171  0.8364
   68CHL1  H22B 6196   4.255   3.853   3.617 -0.5282 -0.4633 -1.7982
   68CHL1   C23 6197   4.349   3.668   3.578 -0.5074  0.5570  0.0572
   68CHL1  H23A 6198   4.268   3.654   3.502  0.6181 -1.4835 -0.8597
   68CHL1  H23B 6199   4.443   3.635   3.530 -0.4734  2.0215 -0.9403
   68CHL1   C24 6200   4.319   3.584   3.704 -0.4283 -0.0011  0.1137
   68CHL1  H24A 6201   4.396   3.603   3.782  1.1859 -0.0770 -1.4031
   68CHL1  H24B 6202   4.221   3.621   3.742 -1.3900  0.3364 -2.4881
   68CHL1   C25 6203   4.305   3.435   3.678 -0.5057 -0.7877 -0.8838
   68CHL1   H25 6204   4.393   3.405   3.618  0.9547  0.9337  0.2800
   68CHL1   C26 6205   4.340   3.351   3.805  0.8334 -0.0309  0.1431
   68CHL1  H26A 6206   4.343   3.243   3.779 -1.4278 -0.4882  1.4943
   68CHL1  H26B 6207   4.442   3.374   3.844  1.8029 -2.2238 -0.9326
   68CHL1  H26C 6208   4.278   3.365   3.897  1.0163 -1.6791  0.5437
   68CHL1   C27 6209   4.173   3.396   3.605 -0.6570 -0.2156 -0.4427
   68CHL1  H27A 6210   4.177   3.466   3.520  0.9980 -0.0895 -0.2900
   68CHL1  H27B 6211   4.177   3.295   3.559  0.8081  0.2638 -1.4013
   68CHL1  H27C 6212   4.084   3.414   3.670  0.8758  1.8817  1.2200
   69CHL1    C3 6213   1.538   4.436   2.464 -0.7485 -0.0674  0.0988
   69CHL1    H3 6214   1.634   4.381   2.475  0.3654  2.0104  1.4934
   69CHL1    O3 6215   1.507   4.470   2.329  0.6770  0.8696 -0.2795
   69CHL1   H3' 6216   1.520   4.565   2.317 -0.3696  0.8271 -1.9889
   69CHL1    C4 6217   1.424   4.348   2.525 -0.4950 -0.2973 -0.1285
   69CHL1   H4A 6218   1.328   4.398   2.503  0.4256  3.3796  3.1761
   69CHL1   H4B 6219   1.432   4.253   2.468 -1.5643 -1.0451  0.9287
   69CHL1    C5 6220   1.445   4.321   2.673 -0.7894 -0.3689 -0.0548
   69CHL1    C6 6221   1.458   4.195   2.711 -0.5756 -0.0920 -0.2388
   69CHL1    H6 6222   1.415   4.121   2.643  0.5309  1.0161 -2.2293
   69CHL1    C7 6223   1.463   4.154   2.857  0.0051 -0.2252  1.3787
   69CHL1   H7A 6224   1.384   4.079   2.875 -1.2610  0.9413  0.8943
   69CHL1   H7B 6225   1.559   4.106   2.886  1.8100  1.5631 -1.1017
   69CHL1    C8 6226   1.448   4.277   2.951 -0.5073  0.1818 -0.6882
   69CHL1    H8 6227   1.342   4.308   2.944  0.1096  2.7305  0.1633
   69CHL1   C14 6228   1.480   4.250   3.095 -0.8701  0.4568  0.1423
   69CHL1   H14 6229   1.583   4.211   3.082 -0.2698  2.1335 -0.3548
   69CHL1   C15 6230   1.407   4.136   3.168 -0.0233  0.1043  0.0032
   69CHL1  H15A 6231   1.300   4.165   3.169  0.5596  2.4066  1.4838
   69CHL1  H15B 6232   1.423   4.038   3.117 -0.7193 -0.8877  1.6073
   69CHL1   C16 6233   1.455   4.141   3.315  0.0752  0.0742 -0.1029
   69CHL1  H16A 6234   1.365   4.122   3.378  1.6670 -0.3287  2.1784
   69CHL1  H16B 6235   1.532   4.065   3.343  0.2749  0.1589 -0.4248
   69CHL1   C17 6236   1.516   4.285   3.323 -0.1995 -0.1655 -0.0404
   69CHL1   H17 6237   1.626   4.275   3.318  0.1539  0.8352  3.3464
   69CHL1   C13 6238   1.481   4.363   3.191 -0.0284  0.4358  0.3339
   69CHL1   C18 6239   1.333   4.416   3.202  0.2062  0.1768 -0.2129
   69CHL1  H18A 6240   1.270   4.342   3.257 -0.7005 -0.0062 -1.4422
   69CHL1  H18B 6241   1.332   4.515   3.251  1.5448  0.3597 -0.5329
   69CHL1  H18C 6242   1.284   4.423   3.102  1.6516  0.5466 -0.9199
   69CHL1   C12 6243   1.584   4.469   3.144  0.2271 -0.4589 -0.3301
   69CHL1  H12A 6244   1.573   4.560   3.207  0.6126  1.1650 -2.5173
   69CHL1  H12B 6245   1.684   4.427   3.167 -0.2618 -1.6535 -0.3080
   69CHL1   C11 6246   1.552   4.510   2.999 -0.2401  0.1102 -0.1089
   69CHL1  H11A 6247   1.455   4.565   2.998 -0.4260 -0.2149 -1.3253
   69CHL1  H11B 6248   1.628   4.577   2.956  1.0236  0.3424  2.3181
   69CHL1    C9 6249   1.536   4.393   2.893 -0.6558 -0.2770 -0.1222
   69CHL1    H9 6250   1.638   4.353   2.880 -0.3546  0.9090 -1.7927
   69CHL1   C10 6251   1.488   4.442   2.756  0.1520  0.0880  0.7038
   69CHL1   C19 6252   1.349   4.520   2.760 -0.0952  0.4246  0.2743
   69CHL1  H19A 6253   1.273   4.458   2.813 -0.7312  1.5957  0.7701
   69CHL1  H19B 6254   1.376   4.607   2.823  0.9784 -0.0002  0.4294
   69CHL1  H19C 6255   1.310   4.559   2.664 -1.7797 -0.3769  0.5995
   69CHL1    C1 6256   1.595   4.526   2.690 -0.1750  0.1335  0.6307
   69CHL1   H1A 6257   1.629   4.616   2.745 -2.0413  1.0980  0.3139
   69CHL1   H1B 6258   1.680   4.456   2.679 -1.7109 -2.0989  1.9899
   69CHL1    C2 6259   1.564   4.565   2.543 -0.4395 -0.0212 -0.2498
   69CHL1   H2A 6260   1.647   4.616   2.488  0.1116  0.6698  1.1864
   69CHL1   H2B 6261   1.476   4.629   2.523  0.3703  0.5941 -2.0491
   69CHL1   C20 6262   1.490   4.353   3.456  0.0669 -0.8041  0.0754
   69CHL1   H20 6263   1.379   4.359   3.463  0.0620  0.4990 -0.6840
   69CHL1   C21 6264   1.554   4.494   3.476  0.4075  0.9186 -0.2868
   69CHL1  H21A 6265   1.659   4.492   3.441  0.0136  1.3026 -1.5648
   69CHL1  H21B 6266   1.553   4.528   3.581 -1.4342 -1.8911  0.7167
   69CHL1  H21C 6267   1.501   4.560   3.404  0.4177  0.6732 -0.5217
   69CHL1   C22 6268   1.538   4.260   3.583 -0.1398 -0.4591  0.3072
   69CHL1  H22A 6269   1.539   4.152   3.556 -0.1163  0.0857 -2.0955
   69CHL1  H22B 6270   1.644   4.292   3.588 -0.6547  1.2930  0.8827
   69CHL1   C23 6271   1.458   4.278   3.714 -0.4471 -0.2514 -0.2843
   69CHL1  H23A 6272   1.405   4.376   3.709  0.6752  0.6907  3.1290
   69CHL1  H23B 6273   1.394   4.187   3.721  1.4957 -1.6252  0.3226
   69CHL1   C24 6274   1.547   4.280   3.849  0.7017 -0.8876  1.1817
   69CHL1  H24A 6275   1.591   4.179   3.859  1.7358 -0.5339  0.2879
   69CHL1  H24B 6276   1.616   4.363   3.825  1.0663 -1.6144 -0.3411
   69CHL1   C25 6277   1.471   4.313   3.982  0.3225  0.2522  0.0160
   69CHL1   H25 6278   1.431   4.416   3.965  0.7134  0.2136 -1.1893
   69CHL1   C26 6279   1.352   4.223   4.007 -0.3784 -0.0411 -0.7952
   69CHL1  H26A 6280   1.382   4.117   4.024  0.4673  0.5596  2.0282
   69CHL1  H26B 6281   1.312   4.261   4.104  1.7563  0.6369 -0.1209
   69CHL1  H26C 6282   1.274   4.219   3.928 -2.0109 -1.5285  0.7930
   69CHL1   C27 6283   1.561   4.308   4.103 -0.0361  0.5850  0.1403
   69CHL1  H27A 6284   1.526   4.328   4.207  0.4186  1.6702  0.0978
   69CHL1  H27B 6285   1.605   4.206   4.103  2.0731  1.3607  2.9574
   69CHL1  H27C 6286   1.658   4.360   4.095  0.1290  0.1465 -0.7507
   70CHL1    C3 6287   5.997   2.704   3.229  0.5254  0.1020  0.4279
   70CHL1    H3 6288   5.948   2.802   3.242 -1.8913 -1.0593  0.5765
   70CHL1    O3 6289   5.934   2.629   3.129  0.3732  0.4830 -0.3157
   70CHL1   H3' 6290   5.997   2.567   3.091 -0.6846 -0.4401 -0.6097
   70CHL1    C4 6291   6.151   2.734   3.201 -0.5468 -0.0846  0.4238
   70CHL1   H4A 6292   6.202   2.638   3.178  0.7145  0.6457  0.0857
   70CHL1   H4B 6293   6.145   2.794   3.107 -3.0064 -1.4784 -0.4087
   70CHL1    C5 6294   6.209   2.814   3.316  0.2459  0.0126  0.0154
   70CHL1    C6 6295   6.257   2.936   3.289  0.2162 -0.1594 -0.6159
   70CHL1    H6 6296   6.263   2.976   3.187  1.2573  1.2061 -0.0560
   70CHL1    C7 6297   6.310   3.022   3.403  0.1228  0.1167  0.4841
   70CHL1   H7A 6298   6.411   3.064   3.384 -0.0809  1.2654  1.8351
   70CHL1   H7B 6299   6.243   3.110   3.404 -0.5713 -0.2012 -3.1542
   70CHL1    C8 6300   6.331   2.946   3.538 -0.2416 -0.0159  0.4198
   70CHL1    H8 6301   6.418   2.876   3.537 -1.7631 -1.9743 -0.1911
   70CHL1   C14 6302   6.341   3.045   3.654  0.2191  0.0471 -0.0946
   70CHL1   H14 6303   6.247   3.103   3.647 -0.9333 -1.7327 -0.0718
   70CHL1   C15 6304   6.460   3.139   3.634  0.0248 -0.3145 -0.0936
   70CHL1  H15A 6305   6.558   3.097   3.603  1.7491  3.4867 -0.3067
   70CHL1  H15B 6306   6.428   3.208   3.553  3.2244  0.2144 -1.0107
   70CHL1   C16 6307   6.463   3.205   3.772 -0.6334 -0.3073  0.3743
   70CHL1  H16A 6308   6.572   3.213   3.792 -0.2976 -1.2666 -0.9726
   70CHL1  H16B 6309   6.420   3.308   3.780  1.5235  0.6834  0.0615
   70CHL1   C17 6310   6.378   3.112   3.868 -0.6039  0.2945 -0.1156
   70CHL1   H17 6311   6.280   3.163   3.874 -0.2516  1.0541 -0.5730
   70CHL1   C13 6312   6.348   2.981   3.795 -0.0148 -0.4862 -0.2147
   70CHL1   C18 6313   6.466   2.888   3.810 -0.4043  0.3792 -0.8756
   70CHL1  H18A 6314   6.482   2.810   3.733  1.0908 -1.1849  0.8932
   70CHL1  H18B 6315   6.563   2.942   3.817  0.0583  0.1245 -3.9206
   70CHL1  H18C 6316   6.472   2.831   3.905  0.4789 -0.3486 -1.3486
   70CHL1   C12 6317   6.214   2.917   3.824 -0.0731  0.7306  0.8326
   70CHL1  H12A 6318   6.209   2.869   3.924 -0.8950  0.1626  0.5204
   70CHL1  H12B 6319   6.128   2.987   3.822 -0.5852  0.1381 -2.0928
   70CHL1   C11 6320   6.196   2.809   3.711  0.6919 -0.1052  0.4081
   70CHL1  H11A 6321   6.267   2.726   3.731 -0.7019 -2.0120 -2.0143
   70CHL1  H11B 6322   6.101   2.754   3.721  0.3048  0.5248  0.2705
   70CHL1    C9 6323   6.204   2.868   3.564  0.5499  0.0446 -0.0152
   70CHL1    H9 6324   6.125   2.945   3.562 -0.5669 -1.0081  1.3484
   70CHL1   C10 6325   6.176   2.762   3.456 -0.7032  0.1651 -0.2248
   70CHL1   C19 6326   6.264   2.638   3.480  0.2352  0.0033 -0.0886
   70CHL1  H19A 6327   6.237   2.585   3.573 -0.2002 -1.8905 -1.2306
   70CHL1  H19B 6328   6.254   2.562   3.399  0.0696 -1.5530  1.3397
   70CHL1  H19C 6329   6.370   2.669   3.494  0.3340 -1.0390  1.6794
   70CHL1    C1 6330   6.030   2.722   3.470  0.1252 -0.1582  0.1650
   70CHL1   H1A 6331   6.008   2.649   3.550 -0.1000 -2.7542 -2.1158
   70CHL1   H1B 6332   5.962   2.809   3.483 -1.5497 -1.5511  1.1300
   70CHL1    C2 6333   5.982   2.625   3.357  0.0007 -0.0408 -0.0878
   70CHL1   H2A 6334   5.871   2.617   3.368 -0.1532 -0.6532 -1.7785
   70CHL1   H2B 6335   6.029   2.524   3.354 -1.3659 -0.7702  1.2706
   70CHL1   C20 6336   6.439   3.114   4.009  0.0364  0.7794  0.0349
   70CHL1   H20 6337   6.542   3.073   4.018 -1.0625 -2.4981 -0.8790
   70CHL1   C21 6338   6.353   3.029   4.097  0.5457  0.3500 -0.1288
   70CHL1  H21A 6339   6.250   3.068   4.081  0.0458 -0.0456  1.8159
   70CHL1  H21B 6340   6.377   3.043   4.205  1.3864  0.3508 -0.3111
   70CHL1  H21C 6341   6.345   2.923   4.065 -2.6661  0.5589 -0.3364
   70CHL1   C22 6342   6.444   3.256   4.063 -0.0136  0.1534 -0.1336
   70CHL1  H22A 6343   6.469   3.326   3.981  1.3695 -0.3139 -0.1369
   70CHL1  H22B 6344   6.347   3.278   4.112 -0.6452 -1.5616 -0.5636
   70CHL1   C23 6345   6.568   3.270   4.160 -0.4140  0.2988 -0.1746
   70CHL1  H23A 6346   6.552   3.190   4.235  0.5626 -0.1203 -0.3934
   70CHL1  H23B 6347   6.659   3.248   4.099 -0.2774  0.2350  0.0541
   70CHL1   C24 6348   6.584   3.409   4.218  0.2140 -0.6348 -0.0469
   70CHL1  H24A 6349   6.577   3.480   4.132  1.7790  0.3968  0.6349
   70CHL1  H24B 6350   6.505   3.437   4.292  1.7384  1.0032  1.0459
   70CHL1   C25 6351   6.723   3.432   4.290  0.1737  0.4030 -0.4468
   70CHL1   H25 6352   6.725   3.353   4.368 -0.1554 -2.2487 -2.9626
   70CHL1   C26 6353   6.842   3.421   4.194  0.1417  0.5761 -0.0048
   70CHL1  H26A 6354   6.850   3.316   4.158  0.6034 -0.4229  2.7799
   70CHL1  H26B 6355   6.813   3.485   4.108  0.7618  1.3900  0.3824
   70CHL1  H26C 6356   6.940   3.449   4.237 -0.0545  1.2128  0.0397
   70CHL1   C27 6357   6.729   3.569   4.362 -0.2185  0.4776  0.4755
   70CHL1  H27A 6358   6.713   3.646   4.284  2.0799 -0.5364 -1.0960
   70CHL1  H27B 6359   6.646   3.582   4.435 -1.2027 -0.7676 -0.3768
   70CHL1  H27C 6360   6.826   3.581   4.416 -0.7039  3.1517  0.8925
   71CHL1    C3 6361   3.393   4.821   2.496 -0.1433 -0.9726 -0.2519
   71CHL1    H3 6362   3.470   4.743   2.479  0.1289 -1.3573  2.2851
   71CHL1    O3 6363   3.330   4.865   2.377 -0.0354 -0.0486 -0.0220
   71CHL1   H3' 6364   3.284   4.949   2.380  1.3082  0.8932 -2.7910
   71CHL1    C4 6365   3.285   4.774   2.593 -0.0534  0.3767  0.5461
   71CHL1   H4A 6366   3.192   4.834   2.586 -1.3194 -1.6380 -1.4049
   71CHL1   H4B 6367   3.249   4.684   2.539 -2.5839  1.3859  0.4171
   71CHL1    C5 6368   3.325   4.745   2.740 -0.6670  0.2497  0.0192
   71CHL1    C6 6369   3.314   4.624   2.797 -0.1613 -0.1950  0.3714
   71CHL1    H6 6370   3.265   4.540   2.745  1.2531 -0.1333 -1.1524
   71CHL1    C7 6371   3.363   4.583   2.938  0.5392  0.6158  0.1588
   71CHL1   H7A 6372   3.286   4.517   2.982 -0.8098  0.4654 -2.2401
   71CHL1   H7B 6373   3.459   4.530   2.926 -1.3851 -3.2134  0.2859
   71CHL1    C8 6374   3.379   4.708   3.022  0.2322  0.0216 -0.0958
   71CHL1    H8 6375   3.278   4.750   3.043  0.2524  0.2379 -0.4319
   71CHL1   C14 6376   3.449   4.667   3.150  0.2213 -0.5816  0.5192
   71CHL1   H14 6377   3.546   4.617   3.127 -0.4343 -3.2017  2.8834
   71CHL1   C15 6378   3.372   4.566   3.228  0.6249 -0.6099 -0.7119
   71CHL1  H15A 6379   3.274   4.618   3.232  0.4119 -0.9937  3.4906
   71CHL1  H15B 6380   3.357   4.466   3.181 -0.8547 -0.4244 -0.6947
   71CHL1   C16 6381   3.446   4.581   3.361 -0.0475  0.3974  0.1844
   71CHL1  H16A 6382   3.375   4.602   3.444  0.3915 -2.5975  1.4437
   71CHL1  H16B 6383   3.498   4.486   3.385 -4.7230 -2.2204  1.2269
   71CHL1   C17 6384   3.544   4.700   3.354  0.3492  0.3750 -0.5366
   71CHL1   H17 6385   3.643   4.658   3.326  0.2695 -0.4446  0.3662
   71CHL1   C13 6386   3.488   4.786   3.239 -0.2291 -0.3832 -0.1740
   71CHL1   C18 6387   3.359   4.861   3.282 -0.3746 -0.1638 -1.0018
   71CHL1  H18A 6388   3.280   4.864   3.204 -0.4289 -3.4690 -1.2374
   71CHL1  H18B 6389   3.307   4.804   3.362 -1.4549  0.1017 -1.4989
   71CHL1  H18C 6390   3.382   4.964   3.317  0.1261  0.3501 -2.7103
   71CHL1   C12 6391   3.591   4.875   3.164  0.2693  0.0701  0.1748
   71CHL1  H12A 6392   3.639   4.954   3.225  2.7591 -1.0016 -0.2830
   71CHL1  H12B 6393   3.676   4.807   3.141  1.4883  0.8514  2.1571
   71CHL1   C11 6394   3.523   4.923   3.033 -0.0277  0.5469 -0.2691
   71CHL1  H11A 6395   3.440   4.987   3.069 -0.0952  0.4082 -0.1785
   71CHL1  H11B 6396   3.599   4.984   2.979 -2.5656  2.7329 -1.6318
   71CHL1    C9 6397   3.461   4.815   2.943  0.3055  0.1323 -0.1515
   71CHL1    H9 6398   3.544   4.747   2.917  0.3724 -0.5041  1.5809
   71CHL1   C10 6399   3.398   4.861   2.812  0.7207  1.0370 -0.1202
   71CHL1   C19 6400   3.304   4.968   2.851  0.0470 -0.5037 -0.7574
   71CHL1  H19A 6401   3.356   5.050   2.904  2.0451 -3.1246  1.6997
   71CHL1  H19B 6402   3.245   4.997   2.762  0.5420 -0.2685 -1.0118
   71CHL1  H19C 6403   3.224   4.928   2.918 -0.5015  1.4502 -0.1912
   71CHL1    C1 6404   3.510   4.909   2.712  0.9931 -0.6617  0.3767
   71CHL1   H1A 6405   3.572   4.986   2.761 -0.3578 -1.1581  3.0311
   71CHL1   H1B 6406   3.577   4.820   2.704  2.2100 -0.1458  3.5812
   71CHL1    C2 6407   3.465   4.938   2.566 -0.5499 -0.5426 -0.6316
   71CHL1   H2A 6408   3.560   4.976   2.522 -0.2550 -0.1011  0.3645
   71CHL1   H2B 6409   3.400   5.027   2.562 -1.4026 -1.1535 -0.6327
   71CHL1   C20 6410   3.566   4.759   3.502 -0.1954  0.3536  0.3371
   71CHL1   H20 6411   3.465   4.777   3.545 -0.5320  0.4966 -0.4902
   71CHL1   C21 6412   3.633   4.897   3.506 -0.4159  0.2857  0.1514
   71CHL1  H21A 6413   3.637   4.949   3.604  1.9022  2.0060 -0.7598
   71CHL1  H21B 6414   3.582   4.961   3.431 -1.8995 -1.7675 -0.6639
   71CHL1  H21C 6415   3.739   4.888   3.474 -0.4977 -1.5197  0.3024
   71CHL1   C22 6416   3.641   4.664   3.594 -0.1400 -0.7059 -0.8327
   71CHL1  H22A 6417   3.622   4.555   3.581 -0.5790 -0.6159 -0.9567
   71CHL1  H22B 6418   3.751   4.669   3.577  0.2754 -1.8639  1.1094
   71CHL1   C23 6419   3.607   4.695   3.736  0.0011 -0.5046 -0.3556
   71CHL1  H23A 6420   3.663   4.619   3.794 -1.3625 -1.0476  0.2844
   71CHL1  H23B 6421   3.645   4.793   3.773  2.1778 -1.0672 -0.9476
   71CHL1   C24 6422   3.463   4.664   3.774 -0.3301 -0.3165  0.6030
   71CHL1  H24A 6423   3.454   4.683   3.883 -0.3746  0.1353  0.5260
   71CHL1  H24B 6424   3.397   4.734   3.717  2.2281  1.3903 -0.4573
   71CHL1   C25 6425   3.407   4.518   3.768 -0.3850 -0.2374 -0.1932
   71CHL1   H25 6426   3.411   4.491   3.660  0.8942 -2.5364  0.3716
   71CHL1   C26 6427   3.492   4.410   3.837  0.5457  0.0225  0.5565
   71CHL1  H26A 6428   3.462   4.306   3.811  0.0428  0.1159  0.7512
   71CHL1  H26B 6429   3.596   4.402   3.799  1.9711  1.3383  3.8547
   71CHL1  H26C 6430   3.487   4.416   3.947 -2.3898  1.9245  0.4466
   71CHL1   C27 6431   3.264   4.507   3.805  0.2668 -0.9359  0.1173
   71CHL1  H27A 6432   3.255   4.525   3.914  1.2943  0.3981  0.0135
   71CHL1  H27B 6433   3.197   4.587   3.767 -1.0837 -2.4594 -0.7998
   71CHL1  H27C 6434   3.220   4.406   3.794  0.3205 -1.2810  2.4897
   72CHL1    C3 6435   2.243   3.149   2.585  0.1771  0.5423  0.3847
   72CHL1    H3 6436   2.316   3.233   2.592  0.2595  0.4625  0.4811
   72CHL1    O3 6437   2.223   3.121   2.446 -0.2133 -0.5536 -0.3554
   72CHL1   H3' 6438   2.132   3.093   2.432 -0.4045 -0.1714  0.1011
   72CHL1    C4 6439   2.290   3.017   2.648  0.6701 -0.1591  0.0091
   72CHL1   H4A 6440   2.221   2.940   2.608  0.9070  0.2519 -1.2069
   72CHL1   H4B 6441   2.392   2.995   2.611  1.2255 -0.0683  1.4143
   72CHL1    C5 6442   2.295   3.027   2.800  0.3389 -0.5573 -0.2620
   72CHL1    C6 6443   2.409   2.982   2.867  0.5039 -0.2443 -0.0124
   72CHL1    H6 6444   2.493   2.935   2.814 -0.5512 -1.6021 -0.5502
   72CHL1    C7 6445   2.421   2.974   3.018 -0.4639 -0.4576 -0.7350
   72CHL1   H7A 6446   2.448   2.871   3.051  2.3169  0.1980 -0.7027
   72CHL1   H7B 6447   2.505   3.029   3.065  1.5947 -3.0252 -1.1444
   72CHL1    C8 6448   2.288   3.010   3.091 -0.3249  0.2807  0.2904
   72CHL1    H8 6449   2.226   2.920   3.073  0.1328  0.1426 -0.6463
   72CHL1   C14 6450   2.316   3.046   3.235  0.3459  0.4091  0.6469
   72CHL1   H14 6451   2.377   3.140   3.234 -0.5952  1.0360  0.1032
   72CHL1   C15 6452   2.401   2.944   3.317 -0.1273  0.5101 -0.6100
   72CHL1  H15A 6453   2.387   2.843   3.275 -0.5904  1.1284 -2.0101
   72CHL1  H15B 6454   2.509   2.964   3.296 -0.1476  0.2495 -0.9738
   72CHL1   C16 6455   2.364   2.966   3.465 -0.2593  0.0355  0.6209
   72CHL1  H16A 6456   2.308   2.876   3.500 -1.7271  1.1762  1.3080
   72CHL1  H16B 6457   2.451   2.983   3.533  0.1134 -1.0553  0.4335
   72CHL1   C17 6458   2.268   3.090   3.459 -0.3201  0.0182  0.1048
   72CHL1   H17 6459   2.321   3.186   3.443 -0.6682  0.1398 -0.3050
   72CHL1   C13 6460   2.199   3.081   3.319 -0.6436 -0.5764 -0.0361
   72CHL1   C18 6461   2.094   2.967   3.322 -0.4861 -0.2130 -0.3991
   72CHL1  H18A 6462   2.013   2.997   3.393  1.1615  1.1844  1.0021
   72CHL1  H18B 6463   2.053   2.938   3.223 -3.4636 -0.4954  0.8015
   72CHL1  H18C 6464   2.145   2.875   3.357 -0.4530  0.0931  0.3795
   72CHL1   C12 6465   2.144   3.212   3.266 -0.0109 -0.3198  0.0555
   72CHL1  H12A 6466   2.061   3.246   3.330 -0.2126 -1.4942  0.4399
   72CHL1  H12B 6467   2.227   3.286   3.263  0.6330 -1.0501 -0.4925
   72CHL1   C11 6468   2.104   3.187   3.117 -0.7066  0.8632  0.0005
   72CHL1  H11A 6469   2.015   3.121   3.109  1.3933 -2.6039  2.3954
   72CHL1  H11B 6470   2.063   3.281   3.076 -2.7874  0.1468  0.3285
   72CHL1    C9 6471   2.213   3.120   3.029 -0.7429  0.2216 -0.3225
   72CHL1    H9 6472   2.290   3.200   3.023 -0.8872  0.8698  3.6173
   72CHL1   C10 6473   2.181   3.094   2.878  0.7316 -0.2836 -0.2457
   72CHL1   C19 6474   2.062   2.988   2.866  0.6411  0.7507 -0.0602
   72CHL1  H19A 6475   2.088   2.887   2.907 -1.8650  0.3774  0.7978
   72CHL1  H19B 6476   1.973   3.017   2.926 -1.0678 -0.4961 -1.8453
   72CHL1  H19C 6477   2.046   2.967   2.758 -0.8604 -0.4401  0.3469
   72CHL1    C1 6478   2.151   3.225   2.802  0.9751  0.2121 -0.2314
   72CHL1   H1A 6479   2.068   3.279   2.853 -0.7873 -0.6387 -2.0740
   72CHL1   H1B 6480   2.240   3.290   2.815  0.1497  1.0020  2.2078
   72CHL1    C2 6481   2.119   3.207   2.651  0.1471  0.0976 -0.0615
   72CHL1   H2A 6482   2.084   3.305   2.610  0.0207 -0.4248 -1.2309
   72CHL1   H2B 6483   2.034   3.136   2.644 -0.6418  0.9350  0.6826
   72CHL1   C20 6484   2.170   3.109   3.576 -0.2313  0.8808  0.0891
   72CHL1   H20 6485   2.079   3.157   3.533 -0.8163 -0.0611  0.2549
   72CHL1   C21 6486   2.223   3.229   3.660 -0.3264  0.5111 -0.4626
   72CHL1  H21A 6487   2.309   3.191   3.720 -1.3066 -1.4015 -0.1603
   72CHL1  H21B 6488   2.137   3.267   3.719  0.9001 -0.5052  2.1378
   72CHL1  H21C 6489   2.256   3.309   3.592  0.4923  0.0828 -0.5837
   72CHL1   C22 6490   2.123   2.993   3.664  0.1214  0.2390  0.0319
   72CHL1  H22A 6491   2.087   2.916   3.592 -2.7266  1.0307  0.4762
   72CHL1  H22B 6492   2.201   2.951   3.731 -1.0188  1.1085  1.9874
   72CHL1   C23 6493   2.004   3.028   3.764 -0.2972  0.1826  0.0782
   72CHL1  H23A 6494   2.047   3.086   3.848 -0.3480 -0.8908  0.8719
   72CHL1  H23B 6495   1.935   3.090   3.702  3.1321  0.4187 -3.9224
   72CHL1   C24 6496   1.942   2.903   3.829 -0.5680  0.0106  0.3873
   72CHL1  H24A 6497   1.890   2.844   3.750 -0.5602  1.3795 -0.6658
   72CHL1  H24B 6498   2.031   2.853   3.872 -0.5546  0.0866  0.4487
   72CHL1   C25 6499   1.840   2.935   3.935 -0.3854  0.3850  0.1306
   72CHL1   H25 6500   1.764   2.999   3.887  0.5759  0.9817 -0.6352
   72CHL1   C26 6501   1.766   2.810   3.987 -0.1237 -0.7162  0.1621
   72CHL1  H26A 6502   1.708   2.772   3.901 -2.1400  1.5308  0.4350
   72CHL1  H26B 6503   1.839   2.735   4.024  0.7736 -0.7391 -1.5342
   72CHL1  H26C 6504   1.689   2.837   4.062 -2.2302 -2.6936 -1.1771
   72CHL1   C27 6505   1.907   3.008   4.047 -0.6894 -0.1469 -0.0229
   72CHL1  H27A 6506   1.844   2.993   4.138 -0.6355 -5.5095 -0.5574
   72CHL1  H27B 6507   2.006   2.977   4.087 -1.1137 -0.9865  0.3908
   72CHL1  H27C 6508   1.908   3.117   4.023  1.6518  0.1058  0.9085
   73CHL1    C3 6509   3.677   4.446   2.464  0.4278 -0.1931 -0.0616
   73CHL1    H3 6510   3.699   4.552   2.488 -0.8367 -0.0633  0.5937
   73CHL1    O3 6511   3.654   4.433   2.329  0.3289 -0.1642 -0.0736
   73CHL1   H3' 6512   3.666   4.340   2.309 -1.3871 -0.5954  0.6947
   73CHL1    C4 6513   3.805   4.363   2.503  0.4139 -0.1677  0.0784
   73CHL1   H4A 6514   3.797   4.260   2.462 -0.1023  0.0764 -0.4456
   73CHL1   H4B 6515   3.888   4.402   2.440 -0.4253 -1.2427 -1.7931
   73CHL1    C5 6516   3.833   4.345   2.653  0.2755  0.1706  0.3717
   73CHL1    C6 6517   3.949   4.389   2.711 -0.2801 -0.0739  0.0684
   73CHL1    H6 6518   4.026   4.414   2.637 -1.4038 -0.2257 -1.1905
   73CHL1    C7 6519   3.981   4.372   2.860  0.9972  0.5328 -0.6602
   73CHL1   H7A 6520   4.076   4.316   2.876 -0.2068 -0.6480  3.7664
   73CHL1   H7B 6521   3.985   4.471   2.911  0.8852 -1.4204  3.5296
   73CHL1    C8 6522   3.870   4.283   2.935 -0.3413  0.1197 -0.5688
   73CHL1    H8 6523   3.876   4.173   2.922 -0.1527  0.2312 -1.4467
   73CHL1   C14 6524   3.876   4.312   3.089 -0.2930 -0.0405 -0.3235
   73CHL1   H14 6525   3.852   4.419   3.108 -1.9760 -0.4702  0.2119
   73CHL1   C15 6526   4.014   4.295   3.159 -0.1502  0.1546  0.5520
   73CHL1  H15A 6527   4.056   4.197   3.127  0.5681  0.2637  1.1420
   73CHL1  H15B 6528   4.088   4.375   3.137 -0.7409  0.1687 -1.5275
   73CHL1   C16 6529   3.978   4.278   3.312  0.1791  0.1220 -0.5119
   73CHL1  H16A 6530   4.014   4.181   3.353 -0.3895  0.6533  1.3276
   73CHL1  H16B 6531   4.023   4.358   3.374  1.3473 -0.9178  0.0294
   73CHL1   C17 6532   3.817   4.288   3.316  0.3618  0.6565 -0.3592
   73CHL1   H17 6533   3.789   4.395   3.333  0.4264  0.4614  1.1221
   73CHL1   C13 6534   3.772   4.240   3.178  0.4977  0.0450  0.0457
   73CHL1   C18 6535   3.786   4.088   3.174  0.1241 -0.5641 -0.2153
   73CHL1  H18A 6536   3.802   4.063   3.067 -3.2938  0.1788 -1.0257
   73CHL1  H18B 6537   3.875   4.057   3.233  0.9456  1.3560 -0.3744
   73CHL1  H18C 6538   3.688   4.042   3.200 -1.0355  0.1775 -2.8836
   73CHL1   C12 6539   3.633   4.286   3.127  0.1470  0.5168 -0.0638
   73CHL1  H12A 6540   3.550   4.246   3.189 -0.4905  1.0794 -0.5428
   73CHL1  H12B 6541   3.627   4.397   3.131  0.2397  0.4965  0.6908
   73CHL1   C11 6542   3.625   4.237   2.977  0.3941 -0.1513  0.6949
   73CHL1  H11A 6543   3.632   4.126   2.968  0.2969 -0.2143  1.3758
   73CHL1  H11B 6544   3.528   4.260   2.927  1.2365 -0.5594 -1.2169
   73CHL1    C9 6545   3.725   4.315   2.891  0.7813 -0.7236 -0.0312
   73CHL1    H9 6546   3.718   4.424   2.912 -0.2967 -1.1048  1.8792
   73CHL1   C10 6547   3.710   4.299   2.736 -0.6438 -0.5215 -0.0644
   73CHL1   C19 6548   3.676   4.152   2.708  0.1209 -0.5069 -0.9254
   73CHL1  H19A 6549   3.666   4.135   2.599 -1.4334  1.1636 -1.0917
   73CHL1  H19B 6550   3.757   4.089   2.749  1.2345  0.4913 -1.5183
   73CHL1  H19C 6551   3.577   4.126   2.751  1.1246 -2.8668  0.0768
   73CHL1    C1 6552   3.584   4.388   2.696 -0.4222  0.5542  0.3859
   73CHL1   H1A 6553   3.496   4.346   2.750  0.3015 -2.2602 -0.4436
   73CHL1   H1B 6554   3.596   4.493   2.730  1.0127  0.8866 -1.0609
   73CHL1    C2 6555   3.552   4.395   2.544 -0.9661 -0.4229  0.0758
   73CHL1   H2A 6556   3.469   4.466   2.526 -0.5917 -0.0322 -0.1256
   73CHL1   H2B 6557   3.531   4.297   2.497 -2.2366 -0.9440  1.6575
   73CHL1   C20 6558   3.768   4.219   3.445 -0.8807 -0.5574 -0.2141
   73CHL1   H20 6559   3.810   4.116   3.450 -0.8618 -0.7874 -3.4687
   73CHL1   C21 6560   3.610   4.212   3.448 -0.2969  0.0081 -0.0302
   73CHL1  H21A 6561   3.565   4.144   3.372  1.2961 -1.1213 -0.0247
   73CHL1  H21B 6562   3.577   4.318   3.443 -1.2364 -0.2334  0.8516
   73CHL1  H21C 6563   3.563   4.174   3.542  0.0135  1.7700  0.8705
   73CHL1   C22 6564   3.817   4.294   3.573  0.2150 -0.4023 -0.2857
   73CHL1  H22A 6565   3.922   4.328   3.577 -0.4092  1.8150 -1.1424
   73CHL1  H22B 6566   3.754   4.380   3.604 -0.3258  0.0957 -2.5997
   73CHL1   C23 6567   3.812   4.205   3.697  0.3127 -0.0915 -0.5631
   73CHL1  H23A 6568   3.710   4.161   3.710 -0.5656  2.3253  1.5201
   73CHL1  H23B 6569   3.892   4.129   3.685  2.6175  1.6710  2.4340
   73CHL1   C24 6570   3.860   4.293   3.819 -0.1491  0.0973  0.1753
   73CHL1  H24A 6571   3.959   4.340   3.799 -1.6340  3.5576  0.2151
   73CHL1  H24B 6572   3.797   4.383   3.834 -1.3250 -0.4493 -1.3080
   73CHL1   C25 6573   3.875   4.215   3.947  0.4512  0.2172  0.4426
   73CHL1   H25 6574   3.959   4.142   3.935  0.0072 -0.3479  0.7301
   73CHL1   C26 6575   3.917   4.313   4.062  0.7328  0.2427  0.8640
   73CHL1  H26A 6576   3.903   4.255   4.155 -0.0602 -0.6496  0.2068
   73CHL1  H26B 6577   4.025   4.335   4.045  1.2401 -4.2035 -5.7282
   73CHL1  H26C 6578   3.845   4.397   4.065 -0.8453 -1.0888  2.0056
   73CHL1   C27 6579   3.750   4.130   3.979  0.2522 -0.1231 -0.5666
   73CHL1  H27A 6580   3.759   4.082   4.079  0.0517 -0.6133 -0.7822
   73CHL1  H27B 6581   3.661   4.197   3.985 -1.5255 -2.4589  1.5747
   73CHL1  H27C 6582   3.737   4.046   3.908 -0.2340 -2.6454  2.3082
   74CHL1    C3 6583   4.944   3.598   2.577 -0.1807 -0.2350 -0.1172
   74CHL1    H3 6584   4.897   3.698   2.593 -1.4663 -0.6779 -0.9553
   74CHL1    O3 6585   4.989   3.592   2.442  0.4870  0.4579 -0.3957
   74CHL1   H3' 6586   5.050   3.517   2.437 -0.3460 -0.2314 -0.5508
   74CHL1    C4 6587   5.061   3.592   2.672  0.0427 -0.3085  0.3182
   74CHL1   H4A 6588   5.112   3.497   2.647 -0.1244  0.0115 -1.3853
   74CHL1   H4B 6589   5.133   3.674   2.652 -1.1440  1.3940  2.5218
   74CHL1    C5 6590   5.015   3.590   2.814  0.2626  1.1268 -0.1433
   74CHL1    C6 6591   5.064   3.675   2.905  0.2438 -0.6005  0.0046
   74CHL1    H6 6592   5.138   3.750   2.872 -0.0251  0.4394  1.6551
   74CHL1    C7 6593   5.034   3.674   3.049  0.3885  0.0056  0.2588
   74CHL1   H7A 6594   5.128   3.705   3.099 -0.2309  2.5195  0.0559
   74CHL1   H7B 6595   4.971   3.762   3.078  1.5843  0.5952  1.1627
   74CHL1    C8 6596   4.972   3.537   3.092 -0.5419 -0.1376 -0.7102
   74CHL1    H8 6597   5.049   3.458   3.104 -0.9472 -0.3881  0.2624
   74CHL1   C14 6598   4.916   3.553   3.233 -0.6748  0.0745  0.1657
   74CHL1   H14 6599   4.833   3.626   3.224 -2.6078 -1.9817  0.5893
   74CHL1   C15 6600   5.010   3.600   3.350  0.2934 -0.2442  0.2435
   74CHL1  H15A 6601   5.097   3.532   3.361  1.9318  1.8129  0.7190
   74CHL1  H15B 6602   5.041   3.707   3.348  0.0596 -0.1856 -1.2652
   74CHL1   C16 6603   4.921   3.585   3.473  0.3005 -0.3815  0.2762
   74CHL1  H16A 6604   4.986   3.539   3.551  0.1500 -0.5619  0.2934
   74CHL1  H16B 6605   4.876   3.681   3.505  1.2909 -0.8309  3.4083
   74CHL1   C17 6606   4.807   3.486   3.438 -0.4763  0.1936  0.3570
   74CHL1   H17 6607   4.728   3.560   3.415 -1.5464 -1.3983 -1.4490
   74CHL1   C13 6608   4.851   3.426   3.296 -0.2312 -0.3092  0.1698
   74CHL1   C18 6609   4.952   3.312   3.311  0.0076  0.1501 -0.3797
   74CHL1  H18A 6610   5.021   3.324   3.397  0.9501 -0.2466 -1.0702
   74CHL1  H18B 6611   4.895   3.220   3.333  0.8596 -0.3879 -0.3755
   74CHL1  H18C 6612   5.013   3.293   3.220  0.3172 -1.7686  0.1980
   74CHL1   C12 6613   4.735   3.398   3.195 -0.0553  0.2425 -0.1494
   74CHL1  H12A 6614   4.692   3.301   3.230  0.2635  0.5930  1.3123
   74CHL1  H12B 6615   4.651   3.469   3.210  0.3431  1.0318 -1.5208
   74CHL1   C11 6616   4.776   3.377   3.044  0.1166 -0.8563  0.0551
   74CHL1  H11A 6617   4.823   3.276   3.037 -0.7176 -1.2241 -0.3814
   74CHL1  H11B 6618   4.684   3.381   2.982  1.3100  2.5966 -1.7404
   74CHL1    C9 6619   4.863   3.496   2.995  0.1222 -0.6488 -0.2768
   74CHL1    H9 6620   4.789   3.578   3.004  0.2741 -0.5507  0.0597
   74CHL1   C10 6621   4.910   3.491   2.850  0.6508 -0.0781  0.0015
   74CHL1   C19 6622   4.974   3.349   2.830  0.0490  0.1605 -0.2947
   74CHL1  H19A 6623   5.043   3.323   2.913  0.7888  0.2904 -0.8564
   74CHL1  H19B 6624   4.888   3.282   2.812  0.5689 -0.5148 -0.3212
   74CHL1  H19C 6625   5.038   3.343   2.739  0.3594  1.8276 -0.2098
   74CHL1    C1 6626   4.796   3.508   2.753  0.0398 -0.2085 -0.1477
   74CHL1   H1A 6627   4.731   3.420   2.773 -0.1098 -0.1432 -0.3521
   74CHL1   H1B 6628   4.727   3.594   2.759 -1.0954 -0.8025 -2.9232
   74CHL1    C2 6629   4.838   3.491   2.606 -0.3567 -0.5104  0.0706
   74CHL1   H2A 6630   4.745   3.513   2.549 -3.0146 -3.9085  2.6682
   74CHL1   H2B 6631   4.875   3.391   2.574  0.4114 -0.1402 -0.2350
   74CHL1   C20 6632   4.765   3.385   3.545  0.0107 -0.3572 -0.5341
   74CHL1   H20 6633   4.841   3.308   3.567 -1.6437 -1.8766  0.0796
   74CHL1   C21 6634   4.638   3.316   3.507  0.4808  0.5289  0.9520
   74CHL1  H21A 6635   4.567   3.383   3.454  0.0215 -0.9671 -0.4058
   74CHL1  H21B 6636   4.584   3.267   3.591  1.1011  0.1892  1.1677
   74CHL1  H21C 6637   4.658   3.237   3.431 -1.3547  1.7274 -0.8698
   74CHL1   C22 6638   4.720   3.462   3.678  0.9342  0.5385 -0.2223
   74CHL1  H22A 6639   4.672   3.555   3.642  0.8455  0.8611  0.7106
   74CHL1  H22B 6640   4.638   3.407   3.729  0.2868  2.3840  0.7932
   74CHL1   C23 6641   4.817   3.501   3.792 -0.1407  0.1770  0.4635
   74CHL1  H23A 6642   4.822   3.408   3.851 -1.1047  0.7233  1.4370
   74CHL1  H23B 6643   4.915   3.535   3.752 -0.1949  0.4126  0.5282
   74CHL1   C24 6644   4.759   3.608   3.892  0.4864  0.3962  0.2575
   74CHL1  H24A 6645   4.757   3.708   3.845 -1.2888 -0.5624 -1.8729
   74CHL1  H24B 6646   4.654   3.588   3.923 -0.0822  0.4052 -1.5515
   74CHL1   C25 6647   4.855   3.638   4.015  0.8254 -1.0147 -0.5923
   74CHL1   H25 6648   4.854   3.554   4.088  1.6856  0.0628  0.6936
   74CHL1   C26 6649   4.996   3.675   3.972 -0.0609 -0.4014  0.2413
   74CHL1  H26A 6650   5.053   3.580   3.969 -0.1698 -0.5294  1.7128
   74CHL1  H26B 6651   4.989   3.723   3.872 -1.5900 -0.0371  0.4888
   74CHL1  H26C 6652   5.037   3.732   4.058  0.7878 -2.0041  0.9418
   74CHL1   C27 6653   4.802   3.767   4.084 -0.7634  0.0865  0.2941
   74CHL1  H27A 6654   4.848   3.792   4.182  0.6359 -0.4417 -0.2064
   74CHL1  H27B 6655   4.813   3.853   4.015  2.4180 -1.2896 -1.0728
   74CHL1  H27C 6656   4.693   3.751   4.103 -1.4252  0.5122 -2.6362
   75CHL1    C3 6657   5.110   4.138   2.638 -0.6820 -0.0314 -0.4207
   75CHL1    H3 6658   5.002   4.118   2.619 -0.4857 -0.3113 -1.2843
   75CHL1    O3 6659   5.163   4.141   2.506 -0.2664  0.0894 -0.0493
   75CHL1   H3' 6660   5.108   4.210   2.468 -3.7359 -2.6013 -0.4647
   75CHL1    C4 6661   5.127   4.273   2.704 -0.3921  0.0427 -0.4329
   75CHL1   H4A 6662   5.234   4.295   2.720 -0.6752  1.6816 -0.6932
   75CHL1   H4B 6663   5.089   4.355   2.640 -2.7882  0.9961  1.9753
   75CHL1    C5 6664   5.068   4.283   2.844 -0.1313  0.6297 -0.5686
   75CHL1    C6 6665   4.973   4.369   2.882  0.4130  0.3056  0.2252
   75CHL1    H6 6666   4.937   4.444   2.811  0.1507 -0.2913 -0.2798
   75CHL1    C7 6667   4.914   4.371   3.024  0.3878 -0.5823  0.1882
   75CHL1   H7A 6668   4.912   4.476   3.060  1.4949 -1.1420  2.0561
   75CHL1   H7B 6669   4.812   4.326   3.022 -0.2158  0.7818 -1.5079
   75CHL1    C8 6670   4.993   4.282   3.123 -0.8162  0.3584 -0.4173
   75CHL1    H8 6671   5.089   4.333   3.144  0.1007 -0.6455 -2.0039
   75CHL1   C14 6672   4.916   4.268   3.253 -0.9272 -0.0794 -0.4049
   75CHL1   H14 6673   4.823   4.214   3.228 -0.8044 -0.4566 -0.0603
   75CHL1   C15 6674   4.868   4.397   3.330  0.8042  0.1791 -0.1702
   75CHL1  H15A 6675   4.934   4.486   3.325 -0.5900  1.2502 -0.0564
   75CHL1  H15B 6676   4.765   4.434   3.308  0.6879 -0.4542 -0.7362
   75CHL1   C16 6677   4.870   4.360   3.479  0.0897  0.0198 -0.1256
   75CHL1  H16A 6678   4.956   4.410   3.528  0.9073 -0.1706 -1.3244
   75CHL1  H16B 6679   4.779   4.393   3.534  0.8539  0.9932  0.5996
   75CHL1   C17 6680   4.899   4.201   3.482 -0.0834 -0.6503  1.0152
   75CHL1   H17 6681   4.808   4.153   3.441 -1.5382  1.2290  1.8556
   75CHL1   C13 6682   4.994   4.184   3.356 -0.6113  0.0766 -0.4033
   75CHL1   C18 6683   5.137   4.240   3.394 -0.7079 -0.0187  0.1029
   75CHL1  H18A 6684   5.209   4.222   3.311  0.5931  0.2722  1.1404
   75CHL1  H18B 6685   5.140   4.350   3.409 -0.1258 -0.0848  0.5030
   75CHL1  H18C 6686   5.181   4.180   3.477  0.8929 -0.2366 -0.8525
   75CHL1   C12 6687   5.012   4.042   3.302  0.0939 -1.4464 -0.9635
   75CHL1  H12A 6688   5.058   3.983   3.384  1.0361 -2.5293 -2.2075
   75CHL1  H12B 6689   4.909   4.003   3.289 -0.2504 -0.5243 -1.0006
   75CHL1   C11 6690   5.094   4.038   3.168  0.1861  0.2022  0.2480
   75CHL1  H11A 6691   5.204   4.047   3.183  0.5144 -1.3823 -0.9916
   75CHL1  H11B 6692   5.085   3.940   3.118 -0.0691 -0.1068  0.8897
   75CHL1    C9 6693   5.034   4.140   3.067 -0.4081  0.7875 -0.2136
   75CHL1    H9 6694   4.936   4.103   3.031 -0.2489 -0.7688  0.8601
   75CHL1   C10 6695   5.120   4.162   2.933  0.3350  0.3199 -0.3610
   75CHL1   C19 6696   5.263   4.199   2.979  0.1473 -0.4642  1.3426
   75CHL1  H19A 6697   5.265   4.288   3.045  0.3906  0.3883  0.2284
   75CHL1  H19B 6698   5.318   4.112   3.022  0.6130 -1.7376 -1.5737
   75CHL1  H19C 6699   5.342   4.211   2.901  0.5617 -1.6799  1.5565
   75CHL1    C1 6700   5.117   4.026   2.855 -0.3729 -0.6249  0.2992
   75CHL1   H1A 6701   5.180   3.964   2.923 -0.5216  2.7805  3.9311
   75CHL1   H1B 6702   5.016   3.980   2.847 -0.6800 -0.0859  1.0241
   75CHL1    C2 6703   5.180   4.032   2.715  0.5620  0.0020  0.4053
   75CHL1   H2A 6704   5.171   3.933   2.667  0.6946  0.2490 -0.1349
   75CHL1   H2B 6705   5.289   4.056   2.709  1.1761 -2.4439  0.7010
   75CHL1   C20 6706   4.930   4.131   3.618 -0.2126 -0.0813 -0.1646
   75CHL1   H20 6707   4.972   4.032   3.589  2.4331  0.0948  2.5588
   75CHL1   C21 6708   4.802   4.113   3.700  0.3577  0.5071 -0.1104
   75CHL1  H21A 6709   4.745   4.208   3.691  1.4620  1.0610 -1.5730
   75CHL1  H21B 6710   4.822   4.084   3.805 -1.7609 -0.6588  0.0300
   75CHL1  H21C 6711   4.744   4.031   3.653 -1.0207 -0.9469  3.6783
   75CHL1   C22 6712   5.031   4.203   3.704  0.1132  0.2870 -0.3074
   75CHL1  H22A 6713   5.104   4.260   3.643  1.2252 -2.0964 -1.3145
   75CHL1  H22B 6714   4.991   4.279   3.774  1.0350  0.1957  0.3483
   75CHL1   C23 6715   5.107   4.106   3.794  0.5421  0.1034 -0.8606
   75CHL1  H23A 6716   5.040   4.057   3.868  0.4371  1.5702  0.0518
   75CHL1  H23B 6717   5.152   4.025   3.732  0.3974 -0.0555 -0.7568
   75CHL1   C24 6718   5.216   4.171   3.878  0.2836  0.2758  0.0864
   75CHL1  H24A 6719   5.280   4.230   3.809  2.8815 -0.1122  1.9869
   75CHL1  H24B 6720   5.172   4.233   3.960  0.7985 -0.1240  0.6757
   75CHL1   C25 6721   5.303   4.064   3.943 -0.1249  0.4563 -0.6235
   75CHL1   H25 6722   5.303   3.972   3.880  1.5205  0.4772 -0.6828
   75CHL1   C26 6723   5.443   4.115   3.962 -0.3855  0.6498 -0.8398
   75CHL1  H26A 6724   5.490   4.140   3.864  1.6428 -0.1856 -0.1450
   75CHL1  H26B 6725   5.445   4.201   4.033  0.6573  0.8081 -1.0441
   75CHL1  H26C 6726   5.513   4.041   4.006 -1.0153  0.3739 -0.2882
   75CHL1   C27 6727   5.241   4.021   4.079 -0.3608  0.2505 -0.2231
   75CHL1  H27A 6728   5.296   3.932   4.114  2.5276  1.3576 -1.6236
   75CHL1  H27B 6729   5.262   4.107   4.147 -0.1668  0.3969 -0.4657
   75CHL1  H27C 6730   5.132   4.001   4.083 -0.3855  0.3866 -0.1969
   76CHL1    C3 6731   1.779   4.106   2.422 -0.0444 -0.7042  0.3227
   76CHL1    H3 6732   1.684   4.154   2.454  0.9280  3.1433 -1.8252
   76CHL1    O3 6733   1.775   4.093   2.278 -0.6685  0.1992 -0.3178
   76CHL1   H3' 6734   1.864   4.064   2.254 -0.8178  0.5221 -1.2935
   76CHL1    C4 6735   1.900   4.185   2.449  0.0031  0.4801 -0.0092
   76CHL1   H4A 6736   1.990   4.133   2.411  1.4913  2.9948 -0.1651
   76CHL1   H4B 6737   1.896   4.279   2.390  0.3555 -0.2016 -1.1455
   76CHL1    C5 6738   1.921   4.213   2.591  0.4849 -0.3343 -1.4288
   76CHL1    C6 6739   1.938   4.342   2.643 -0.2448 -0.2310 -0.5799
   76CHL1    H6 6740   1.935   4.435   2.585  1.0226 -0.6634 -1.3703
   76CHL1    C7 6741   1.963   4.363   2.791  0.6046  0.3587 -0.0293
   76CHL1   H7A 6742   2.045   4.439   2.799  2.6774 -1.6533 -1.0071
   76CHL1   H7B 6743   1.867   4.394   2.838 -0.6023 -1.5890 -1.0833
   76CHL1    C8 6744   2.004   4.238   2.876 -0.4745  0.2015  0.0723
   76CHL1    H8 6745   2.111   4.211   2.865 -0.9832 -3.0710  1.8568
   76CHL1   C14 6746   1.967   4.273   3.023  0.7068  0.0477  0.0134
   76CHL1   H14 6747   1.861   4.304   3.026  0.9730  1.0314 -0.1955
   76CHL1   C15 6748   2.041   4.399   3.078 -0.9048  0.7694  0.0465
   76CHL1  H15A 6749   2.151   4.389   3.071 -0.6313  1.6465  2.2990
   76CHL1  H15B 6750   2.011   4.503   3.052 -1.8299  0.1345 -1.5909
   76CHL1   C16 6751   2.015   4.389   3.231  0.2367  0.3310  0.3711
   76CHL1  H16A 6752   2.119   4.382   3.268  0.4079 -1.7472 -0.3616
   76CHL1  H16B 6753   1.947   4.464   3.277 -1.6476 -0.6564 -0.6746
   76CHL1   C17 6754   1.948   4.247   3.255 -0.1052 -0.0985 -0.4804
   76CHL1   H17 6755   1.841   4.277   3.252 -0.0386  0.1013 -1.2231
   76CHL1   C13 6756   1.985   4.170   3.130 -0.1958  0.2775  0.3591
   76CHL1   C18 6757   2.134   4.122   3.143  0.6243 -0.4969  0.3082
   76CHL1  H18A 6758   2.129   4.019   3.183  3.5592 -1.0602 -0.5460
   76CHL1  H18B 6759   2.169   4.125   3.038 -0.1163  1.9114  0.0541
   76CHL1  H18C 6760   2.192   4.196   3.203 -1.9894 -0.1402  2.5944
   76CHL1   C12 6761   1.892   4.062   3.083  0.1787 -0.1165  0.2060
   76CHL1  H12A 6762   1.911   3.979   3.154 -0.3653 -2.0349 -1.8022
   76CHL1  H12B 6763   1.786   4.094   3.081 -1.5910 -5.1699 -0.6490
   76CHL1   C11 6764   1.915   4.019   2.940 -0.5125 -0.2805 -0.6304
   76CHL1  H11A 6765   2.018   3.982   2.921 -0.4438 -0.7522  0.5886
   76CHL1  H11B 6766   1.857   3.927   2.917  0.2015 -1.3804  1.7401
   76CHL1    C9 6767   1.902   4.133   2.834 -0.1580 -0.0213  0.1910
   76CHL1    H9 6768   1.798   4.166   2.857 -0.0952 -0.2038  0.7538
   76CHL1   C10 6769   1.921   4.092   2.679  0.4093 -0.3252 -0.2311
   76CHL1   C19 6770   2.054   4.016   2.659  0.9893  0.4507 -0.2189
   76CHL1  H19A 6771   2.068   3.977   2.556  2.2700  0.2946 -0.0050
   76CHL1  H19B 6772   2.138   4.080   2.694  1.7355 -1.6141  2.0746
   76CHL1  H19C 6773   2.054   3.930   2.730 -1.2265  1.0229  0.5581
   76CHL1    C1 6774   1.805   3.993   2.638  0.2084 -0.6348  0.2392
   76CHL1   H1A 6775   1.820   3.896   2.689  1.5050 -1.2297 -1.1819
   76CHL1   H1B 6776   1.709   4.042   2.664  1.1383  1.4995 -0.1983
   76CHL1    C2 6777   1.807   3.973   2.491 -0.0824  0.8072  0.2583
   76CHL1   H2A 6778   1.719   3.909   2.469  0.6847 -0.7169  1.4070
   76CHL1   H2B 6779   1.898   3.923   2.453  0.4601  2.9603 -1.4132
   76CHL1   C20 6780   1.975   4.195   3.395  0.2144 -0.9059 -0.3590
   76CHL1   H20 6781   2.082   4.167   3.394  0.3954 -0.4878  2.0024
   76CHL1   C21 6782   1.884   4.073   3.411 -0.2844  0.3223 -0.2662
   76CHL1  H21A 6783   1.777   4.100   3.419  0.5799  3.8278  1.6570
   76CHL1  H21B 6784   1.904   4.019   3.507  0.2141 -2.3249 -1.7374
   76CHL1  H21C 6785   1.909   3.986   3.346 -1.6792 -0.1821 -0.1714
   76CHL1   C22 6786   1.943   4.295   3.511 -0.1332 -0.8200  0.5203
   76CHL1  H22A 6787   2.013   4.379   3.491 -0.9770 -0.7488 -2.5609
   76CHL1  H22B 6788   1.837   4.327   3.504 -0.1222 -0.3973  2.0045
   76CHL1   C23 6789   1.970   4.233   3.651 -0.3697  0.1976  0.4683
   76CHL1  H23A 6790   1.886   4.165   3.680  0.2005 -0.6869  0.0957
   76CHL1  H23B 6791   2.065   4.177   3.636 -0.7175  0.0993 -1.7729
   76CHL1   C24 6792   1.987   4.341   3.753  0.0302  0.1547  0.0425
   76CHL1  H24A 6793   2.066   4.413   3.724  0.1812 -0.0969 -0.1798
   76CHL1  H24B 6794   1.890   4.395   3.753 -1.1138 -1.8026  0.4448
   76CHL1   C25 6795   1.997   4.289   3.894  0.7529 -0.1162  0.1258
   76CHL1   H25 6796   1.914   4.216   3.906  1.6172 -1.2626 -0.7449
   76CHL1   C26 6797   2.127   4.222   3.923  0.1383  0.5343 -0.1906
   76CHL1  H26A 6798   2.136   4.121   3.877 -1.5035 -0.4709  1.5271
   76CHL1  H26B 6799   2.218   4.284   3.909  1.3476 -1.1723 -0.1666
   76CHL1  H26C 6800   2.133   4.184   4.028  2.9525  2.3992  0.4410
   76CHL1   C27 6801   1.968   4.394   4.007 -0.0826 -0.6778 -0.2796
   76CHL1  H27A 6802   1.861   4.421   4.019 -0.3715 -1.5997 -0.6631
   76CHL1  H27B 6803   2.001   4.357   4.107 -0.7689  3.0406  1.4833
   76CHL1  H27C 6804   2.026   4.484   3.980 -0.4187 -0.6078 -0.7751
   77SOPE     N 6805   6.740   4.287   6.527  0.3648  0.5811 -0.4906
   77SOPE   HN1 6806   6.753   4.390   6.519  1.1830  0.5854  0.5816
   77SOPE   HN2 6807   6.801   4.256   6.606 -0.8273  1.2482  0.7184
   77SOPE   HN3 6808   6.773   4.241   6.440  1.8611  2.4799 -1.0081
   77SOPE   C12 6809   6.599   4.257   6.553 -1.1725 -0.2946  0.3441
   77SOPE  H12A 6810   6.538   4.337   6.505 -0.3149  0.2546  0.1413
   77SOPE  H12B 6811   6.582   4.266   6.662  1.2449  0.7687  0.7028
   77SOPE   C11 6812   6.555   4.116   6.521 -0.7782  1.0844  0.4624
   77SOPE  H11A 6813   6.554   4.094   6.412 -1.1103  0.8770  0.5070
   77SOPE  H11B 6814   6.449   4.090   6.541 -0.8322 -0.5795 -1.6401
   77SOPE     P 6815   6.632   3.926   6.689 -0.0756  0.0900  0.0197
   77SOPE   O13 6816   6.524   3.968   6.781 -0.6975  0.3690  1.1715
   77SOPE   O14 6817   6.761   3.897   6.757 -0.9400  0.1330  0.0654
   77SOPE   O12 6818   6.651   4.031   6.583 -0.5295 -0.1147 -0.4461
   77SOPE   O11 6819   6.582   3.798   6.616 -0.3642 -0.2732  0.3159
   77SOPE    C1 6820   6.674   3.724   6.529  0.2793  0.3420 -0.8210
   77SOPE    HA 6821   6.639   3.619   6.521 -2.5418  1.2223 -0.9470
   77SOPE    HB 6822   6.776   3.734   6.572 -0.8148  3.2251  1.4399
   77SOPE    C2 6823   6.678   3.766   6.385  0.0219  0.5366  0.6103
   77SOPE    HS 6824   6.749   3.851   6.375  0.4908  0.0530 -0.3106
   77SOPE   O21 6825   6.541   3.814   6.349 -0.0668 -0.4084  0.6071
   77SOPE   C21 6826   6.539   3.887   6.240  0.0522 -0.6325 -0.0932
   77SOPE   O22 6827   6.635   3.944   6.191 -0.1826  0.0091  0.2821
   77SOPE   C22 6828   6.398   3.904   6.186 -0.0908 -0.0266  0.5549
   77SOPE   H2R 6829   6.343   3.971   6.256 -0.8829 -0.4799  0.3860
   77SOPE   H2S 6830   6.348   3.805   6.193  0.3603 -0.2142  1.1546
   77SOPE    C3 6831   6.716   3.649   6.287 -0.6533  0.0098 -0.1344
   77SOPE    HX 6832   6.629   3.581   6.287 -1.1634  0.6462 -0.9827
   77SOPE    HY 6833   6.804   3.604   6.339  1.3152  3.1434 -0.4881
   77SOPE   O31 6834   6.735   3.681   6.142  0.2161 -0.1423 -0.3177
   77SOPE   C31 6835   6.847   3.735   6.112  0.6168  0.3223 -0.6236
   77SOPE   O32 6836   6.947   3.745   6.180 -0.6312 -0.5325  0.6568
   77SOPE   C32 6837   6.842   3.782   5.961 -0.7250  0.1003  0.6605
   77SOPE   H2X 6838   6.796   3.883   5.961 -0.5323  0.2168 -0.7939
   77SOPE   H2Y 6839   6.780   3.708   5.905 -0.8855  1.1830 -0.6381
   77SOPE   C23 6840   6.404   3.970   6.040 -0.4936  0.4115 -0.3219
   77SOPE   H3R 6841   6.463   4.063   6.040  0.5666 -0.2425 -0.9984
   77SOPE   H3S 6842   6.299   3.991   6.010 -0.1336  1.9625 -0.5666
   77SOPE   C24 6843   6.443   3.873   5.936 -0.2594 -0.8087 -0.0135
   77SOPE   H4R 6844   6.546   3.835   5.952 -0.4913 -0.9015  1.4471
   77SOPE   H4S 6845   6.374   3.790   5.961 -1.7414  0.4666  0.2813
   77SOPE   C25 6846   6.411   3.907   5.792 -0.0029  0.0060 -0.0052
   77SOPE   H5R 6847   6.307   3.886   5.760 -1.1291  3.9187  0.5131
   77SOPE   H5S 6848   6.422   4.017   5.783  1.4318 -0.0289  1.0116
   77SOPE   C26 6849   6.500   3.835   5.695 -1.3487  0.0830 -0.3628
   77SOPE   H6R 6850   6.606   3.861   5.716 -0.7435 -1.8806 -0.7527
   77SOPE   H6S 6851   6.483   3.729   5.724 -1.6416 -0.1348 -1.3043
   77SOPE   C27 6852   6.462   3.857   5.547 -0.5687 -0.4227 -0.4595
   77SOPE   H7R 6853   6.353   3.840   5.547 -0.8840  0.3639  4.1803
   77SOPE   H7S 6854   6.486   3.963   5.526  0.2787 -0.5128 -0.0162
   77SOPE   C28 6855   6.527   3.749   5.461 -0.0131  0.0129  0.4389
   77SOPE   H8R 6856   6.634   3.745   5.491 -0.4147  0.4234  1.9753
   77SOPE   H8S 6857   6.490   3.648   5.487  0.7647 -0.6994 -1.0914
   77SOPE   C29 6858   6.527   3.773   5.315 -0.1414  0.1073  0.8815
   77SOPE   H91 6859   6.583   3.865   5.291 -1.5337  0.8693  0.4532
   77SOPE  C210 6860   6.475   3.693   5.220  0.4295  0.2161  0.0607
   77SOPE  H101 6861   6.477   3.732   5.117 -2.2853  0.9675  0.2352
   77SOPE  C211 6862   6.392   3.561   5.228 -0.4268  0.2871 -0.2557
   77SOPE  H11R 6863   6.374   3.529   5.333 -1.8397  0.4147 -0.4469
   77SOPE  H11S 6864   6.451   3.475   5.191 -1.6894 -1.1489  0.9440
   77SOPE  C212 6865   6.251   3.559   5.168 -0.0832 -0.3340 -0.2437
   77SOPE  H12R 6866   6.180   3.634   5.208 -2.8077 -2.6852 -0.2833
   77SOPE  H12S 6867   6.200   3.461   5.182 -0.6211  0.1212  1.0599
   77SOPE  C213 6868   6.253   3.581   5.017 -0.2170  0.1630  0.4050
   77SOPE  H13R 6869   6.316   3.506   4.964  0.1389  1.8849 -1.7390
   77SOPE  H13S 6870   6.304   3.678   5.001 -0.3632  0.4863  1.7787
   77SOPE  C214 6871   6.117   3.581   4.950  0.0198  0.5390 -0.2878
   77SOPE  H14R 6872   6.057   3.666   4.988 -0.6809  0.4170 -1.0894
   77SOPE  H14S 6873   6.059   3.491   4.981 -0.3947  0.7309 -0.5136
   77SOPE  C215 6874   6.138   3.602   4.807  0.0550 -0.5581  0.2337
   77SOPE  H15R 6875   6.203   3.524   4.761 -1.1126 -0.3858 -1.8377
   77SOPE  H15S 6876   6.188   3.701   4.798  1.0979 -0.6006  4.0062
   77SOPE  C216 6877   6.007   3.604   4.732  0.0798  0.0983  0.0874
   77SOPE  H16R 6878   5.975   3.497   4.723  0.0575  0.0435  0.8206
   77SOPE  H16S 6879   6.032   3.649   4.633 -0.7322 -0.4100 -0.3598
   77SOPE  C217 6880   5.886   3.680   4.802 -0.3075  0.6642  0.0112
   77SOPE  H17R 6881   5.922   3.784   4.819 -1.2302  0.7652  1.5668
   77SOPE  H17S 6882   5.867   3.638   4.903 -1.7144  3.4991  1.0243
   77SOPE  C218 6883   5.763   3.675   4.717  0.1752 -0.6449 -0.4157
   77SOPE  H18R 6884   5.677   3.673   4.788  1.3744 -0.9586  1.0988
   77SOPE  H18S 6885   5.755   3.579   4.662  0.8498  0.2496 -2.1199
   77SOPE  H18T 6886   5.748   3.760   4.648  1.4294  0.1170  0.1958
   77SOPE   C33 6887   6.982   3.783   5.896 -0.3277 -0.1337  0.4969
   77SOPE   H3X 6888   7.027   3.691   5.938 -1.3128 -1.6332 -1.5702
   77SOPE   H3Y 6889   7.037   3.870   5.938 -2.2459  1.8119 -0.7727
   77SOPE   C34 6890   6.971   3.806   5.748 -0.3207  0.6295 -0.1751
   77SOPE   H4X 6891   6.901   3.725   5.718 -1.0114  0.5028  1.6767
   77SOPE   H4Y 6892   7.072   3.798   5.703  0.2879 -0.6906  1.3418
   77SOPE   C35 6893   6.934   3.948   5.702 -0.5882  0.6354 -0.3053
   77SOPE   H5X 6894   6.997   4.017   5.762  0.1091  1.4502 -1.9212
   77SOPE   H5Y 6895   6.828   3.974   5.722 -1.0923 -0.3437 -1.5266
   77SOPE   C36 6896   6.958   3.978   5.546 -0.3387  0.1311 -0.4043
   77SOPE   H6X 6897   7.067   3.957   5.538 -0.1548 -0.4100  2.5325
   77SOPE   H6Y 6898   6.941   4.087   5.539 -0.9579  0.0353 -0.4195
   77SOPE   C37 6899   6.869   3.889   5.453 -0.5150 -0.5629 -0.7326
   77SOPE   H7X 6900   6.772   3.938   5.475 -0.1905 -0.1917 -0.0900
   77SOPE   H7Y 6901   6.871   3.784   5.487 -3.5333  0.2631  2.6176
   77SOPE   C38 6902   6.892   3.895   5.296 -0.1882  0.5143  0.1737
   77SOPE   H8X 6903   6.802   3.849   5.249  0.6883 -1.2624  0.1683
   77SOPE   H8Y 6904   6.978   3.828   5.279  0.5496  1.4405  0.2029
   77SOPE   C39 6905   6.918   4.031   5.244 -0.2819 -0.2783 -0.7269
   77SOPE   H9X 6906   7.021   4.066   5.263  0.0649 -1.2769 -0.7170
   77SOPE   H9Y 6907   6.852   4.098   5.303  0.6821  0.0220  0.0317
   77SOPE  C310 6908   6.893   4.053   5.097 -0.9070 -0.3032 -1.2889
   77SOPE  H10X 6909   6.905   4.161   5.076  0.9325  0.3825  2.4232
   77SOPE  H10Y 6910   6.789   4.024   5.071 -0.2545 -3.6574 -0.6408
   77SOPE  C311 6911   6.988   3.975   5.014 -0.6339 -0.2543  0.6181
   77SOPE  H11X 6912   6.980   3.864   5.022  1.0600 -0.4112  0.6552
   77SOPE  H11Y 6913   7.089   3.990   5.059  0.5305 -1.9868 -1.2536
   77SOPE  C312 6914   6.980   4.022   4.869  0.3018 -0.3699 -0.0799
   77SOPE  H12X 6915   7.056   3.963   4.813  0.6875  0.0851 -0.0431
   77SOPE  H12Y 6916   6.984   4.131   4.850 -2.6992 -0.3121 -0.8003
   77SOPE  C313 6917   6.846   3.985   4.791 -0.0670  0.3631 -0.4220
   77SOPE  H13X 6918   6.760   4.031   4.844  0.2736 -0.1496  0.6036
   77SOPE  H13Y 6919   6.834   3.876   4.804  5.3333 -0.5411 -0.6259
   77SOPE  C314 6920   6.856   4.035   4.649  0.2155 -0.1134 -0.6150
   77SOPE  H14X 6921   6.953   4.015   4.598 -0.0969  0.7854 -1.5921
   77SOPE  H14Y 6922   6.856   4.145   4.660  0.2202 -0.0365 -1.3270
   77SOPE  C315 6923   6.745   3.977   4.557  0.1688 -0.2748 -0.1731
   77SOPE  H15X 6924   6.645   4.011   4.591  0.0452 -1.4095  0.6426
   77SOPE  H15Y 6925   6.742   3.866   4.563  0.4240 -0.3520 -1.2097
   77SOPE  C316 6926   6.754   4.010   4.413 -0.1246  0.0590 -0.1587
   77SOPE  H16X 6927   6.674   3.964   4.352 -1.1047  0.8882  0.4765
   77SOPE  H16Y 6928   6.856   3.982   4.378  0.2444 -1.8643  2.1694
   77SOPE  C317 6929   6.742   4.166   4.398  0.0186 -0.4276  0.1119
   77SOPE  H17X 6930   6.836   4.218   4.428 -0.6420  0.1886  1.1684
   77SOPE  H17Y 6931   6.662   4.213   4.459  1.2149  0.2528  1.2089
   77SOPE  C318 6932   6.708   4.208   4.248  0.6023 -0.0483  0.3361
   77SOPE  H18X 6933   6.758   4.142   4.174  0.8110 -0.7080  1.0575
   77SOPE  H18Y 6934   6.725   4.316   4.228 -0.6235 -0.0819 -1.1393
   77SOPE  H18Z 6935   6.598   4.192   4.242  0.4343  1.3467 -1.2516
   78SOPE     N 6936   5.749   1.033   6.530  0.3992 -0.0221  0.0365
   78SOPE   HN1 6937   5.751   1.134   6.553  2.0296 -0.4362  1.9782
   78SOPE   HN2 6938   5.700   1.016   6.440 -1.2453 -1.2434  1.1111
   78SOPE   HN3 6939   5.681   0.991   6.596 -0.8134  0.3323 -0.9330
   78SOPE   C12 6940   5.890   0.988   6.539  0.2606 -0.1135  0.0154
   78SOPE  H12A 6941   5.889   0.878   6.525  1.8648 -0.4604  2.1248
   78SOPE  H12B 6942   5.924   0.988   6.644  0.8222 -1.8166 -0.1291
   78SOPE   C11 6943   5.992   1.052   6.439  0.1122  0.3122 -0.0328
   78SOPE  H11A 6944   5.986   1.162   6.454 -0.4370  0.4027 -0.8631
   78SOPE  H11B 6945   5.959   1.045   6.333  1.8518 -2.6020 -0.4894
   78SOPE     P 6946   6.186   0.882   6.424  0.1381  0.6216  0.1594
   78SOPE   O13 6947   6.124   0.785   6.519 -0.4310 -0.0610 -0.2799
   78SOPE   O14 6948   6.330   0.889   6.421 -0.4565 -0.7216  0.3840
   78SOPE   O12 6949   6.131   1.017   6.460  0.0432  0.3447 -0.2451
   78SOPE   O11 6950   6.125   0.860   6.276  0.5403 -0.2546  0.0379
   78SOPE    C1 6951   6.202   0.916   6.167 -0.0510 -0.6318 -0.0985
   78SOPE    HA 6952   6.266   1.001   6.200  0.6860 -0.7780 -1.1205
   78SOPE    HB 6953   6.133   0.966   6.095 -0.0852  0.0069  0.3678
   78SOPE    C2 6954   6.293   0.811   6.099 -0.0617  0.1321  0.5234
   78SOPE    HS 6955   6.387   0.820   6.157  1.2283 -1.1320 -1.2658
   78SOPE   O21 6956   6.312   0.857   5.964 -0.1431  0.0653  0.1940
   78SOPE   C21 6957   6.407   0.796   5.899 -0.1672  0.3514 -0.7962
   78SOPE   O22 6958   6.485   0.720   5.947 -0.2312  0.0774 -0.1629
   78SOPE   C22 6959   6.393   0.837   5.758  0.1268  0.1901 -0.4208
   78SOPE   H2R 6960   6.406   0.948   5.758 -1.6297  0.4328 -0.1006
   78SOPE   H2S 6961   6.292   0.807   5.721  0.7596  0.4331 -2.4995
   78SOPE    C3 6962   6.227   0.666   6.113 -0.3031 -0.5249 -0.2038
   78SOPE    HX 6963   6.217   0.652   6.223  0.4336  3.6427  0.5590
   78SOPE    HY 6964   6.295   0.584   6.082 -0.6097 -0.5203 -0.9035
   78SOPE   O31 6965   6.097   0.658   6.055 -0.1836  0.2964  0.4535
   78SOPE   C31 6966   6.084   0.614   5.931 -0.9541 -0.8691  0.2808
   78SOPE   O32 6967   6.175   0.605   5.849 -0.1139  0.2191  0.3740
   78SOPE   C32 6968   5.939   0.574   5.894  0.5191 -0.1967 -0.0093
   78SOPE   H2X 6969   5.875   0.638   5.958  1.7619  1.0108  0.0561
   78SOPE   H2Y 6970   5.937   0.465   5.918  0.0404 -0.7371 -2.2294
   78SOPE   C23 6971   6.478   0.748   5.665  0.3388 -0.2759  0.1254
   78SOPE   H3R 6972   6.466   0.647   5.708 -1.0918 -0.3747 -0.4413
   78SOPE   H3S 6973   6.585   0.777   5.662  0.6804 -1.5555 -0.7665
   78SOPE   C24 6974   6.431   0.737   5.517 -0.2248  0.2768  0.3186
   78SOPE   H4R 6975   6.431   0.839   5.473 -0.2267 -0.3342 -1.1501
   78SOPE   H4S 6976   6.511   0.678   5.468 -0.5581 -0.7018  0.9230
   78SOPE   C25 6977   6.292   0.667   5.498  0.2676  0.3056 -0.3698
   78SOPE   H5R 6978   6.274   0.608   5.590 -0.1471 -0.3921 -0.8897
   78SOPE   H5S 6979   6.213   0.744   5.500 -1.3588 -1.2341 -1.9697
   78SOPE   C26 6980   6.269   0.573   5.377 -0.3153  0.5903 -0.2784
   78SOPE   H6R 6981   6.354   0.502   5.366  0.5401  1.6354 -0.6412
   78SOPE   H6S 6982   6.178   0.513   5.397 -1.8852  2.0934 -2.5240
   78SOPE   C27 6983   6.240   0.643   5.240 -0.9348  0.3762  0.4333
   78SOPE   H7R 6984   6.193   0.563   5.178  1.3234 -0.5809 -0.1688
   78SOPE   H7S 6985   6.160   0.717   5.257 -0.3458  1.1468 -0.1024
   78SOPE   C28 6986   6.364   0.691   5.167 -0.1614 -0.4024 -0.1687
   78SOPE   H8R 6987   6.407   0.768   5.234 -1.5883 -0.8920  1.3929
   78SOPE   H8S 6988   6.441   0.613   5.148 -0.6532 -0.6958 -1.0056
   78SOPE   C29 6989   6.321   0.754   5.038 -0.1128 -0.3442 -0.6900
   78SOPE   H91 6990   6.316   0.863   5.050  2.7022 -0.0556 -1.3434
   78SOPE  C210 6991   6.297   0.695   4.919 -0.8481 -0.4286 -1.2768
   78SOPE  H101 6992   6.286   0.745   4.822 -0.7745  1.6845 -0.2590
   78SOPE  C211 6993   6.294   0.542   4.911 -1.3000  0.7222  1.2971
   78SOPE  H11R 6994   6.205   0.512   4.852  0.1853  1.2192 -1.3584
   78SOPE  H11S 6995   6.276   0.497   5.011 -0.4166  0.2214  1.2402
   78SOPE  C212 6996   6.419   0.487   4.852 -0.1956 -1.2421 -0.4740
   78SOPE  H12R 6997   6.510   0.515   4.908  1.0408 -0.3297 -2.7875
   78SOPE  H12S 6998   6.437   0.509   4.745  0.2093  0.3600 -0.0919
   78SOPE  C213 6999   6.425   0.332   4.857  0.9093 -0.6757 -0.4182
   78SOPE  H13R 7000   6.426   0.296   4.962 -0.4691  0.0071 -0.1501
   78SOPE  H13S 7001   6.522   0.308   4.808  0.8925  1.5933 -1.6805
   78SOPE  C214 7002   6.307   0.260   4.784 -0.4002  0.1883  0.1915
   78SOPE  H14R 7003   6.213   0.292   4.833 -0.8179 -1.3928  0.4660
   78SOPE  H14S 7004   6.318   0.150   4.798 -1.1322  0.1368  0.3819
   78SOPE  C215 7005   6.305   0.278   4.627  0.6632 -0.0092  0.0148
   78SOPE  H15R 7006   6.413   0.275   4.600  0.5018 -0.1309 -0.6370
   78SOPE  H15S 7007   6.266   0.381   4.610  1.2320  0.3081  0.5736
   78SOPE  C216 7008   6.213   0.190   4.538 -0.0343 -0.5354  0.0705
   78SOPE  H16R 7009   6.242   0.088   4.569  2.0045  0.0856  0.3411
   78SOPE  H16S 7010   6.225   0.201   4.428 -0.1458 -0.7964  0.0334
   78SOPE  C217 7011   6.068   0.202   4.581  0.2211  0.4021 -0.2245
   78SOPE  H17R 7012   6.035   0.298   4.537 -0.7686  0.3833  0.4341
   78SOPE  H17S 7013   6.061   0.201   4.692 -0.4941  0.5700 -0.2633
   78SOPE  C218 7014   5.984   0.087   4.521  0.0580 -0.1576 -0.0776
   78SOPE  H18R 7015   5.973   0.095   4.411 -1.1709 -1.0344 -0.0499
   78SOPE  H18S 7016   5.880   0.099   4.561  0.0173  3.1335 -0.8693
   78SOPE  H18T 7017   6.026  -0.012   4.547 -0.6908  0.1341  2.5312
   78SOPE   C33 7018   5.899   0.612   5.749 -0.5499 -0.3867  0.7838
   78SOPE   H3X 7019   5.963   0.693   5.708 -0.7015 -0.9763 -0.6462
   78SOPE   H3Y 7020   5.793   0.642   5.740 -0.7177 -1.3381 -0.5822
   78SOPE   C34 7021   5.936   0.506   5.634 -0.0057 -0.0165 -0.1852
   78SOPE   H4X 7022   6.045   0.484   5.629 -0.5147 -2.5571 -2.2947
   78SOPE   H4Y 7023   5.912   0.552   5.536  0.1725 -1.0543 -0.7306
   78SOPE   C35 7024   5.854   0.379   5.639  0.4599 -0.2394  0.1624
   78SOPE   H5X 7025   5.746   0.406   5.628 -1.0634 -4.7638  1.7094
   78SOPE   H5Y 7026   5.867   0.350   5.745  0.2961  3.5467  1.3795
   78SOPE   C36 7027   5.893   0.277   5.531  0.0457 -0.6742 -0.7522
   78SOPE   H6X 7028   5.855   0.179   5.567 -0.4531 -0.0271  0.5470
   78SOPE   H6Y 7029   6.003   0.266   5.523  0.4258  2.0720 -0.2859
   78SOPE   C37 7030   5.849   0.309   5.388 -0.8373  0.0515  0.4585
   78SOPE   H7X 7031   5.873   0.414   5.361 -0.5920 -0.0718  0.1975
   78SOPE   H7Y 7032   5.738   0.302   5.386 -0.9842  1.9628  0.7533
   78SOPE   C38 7033   5.920   0.214   5.287  0.0220 -0.3530  0.2979
   78SOPE   H8X 7034   5.950   0.121   5.339 -0.2492 -1.6631 -1.7520
   78SOPE   H8Y 7035   6.011   0.261   5.243 -0.4388 -0.8317 -1.2587
   78SOPE   C39 7036   5.823   0.182   5.177  0.0300 -0.2956  0.1318
   78SOPE   H9X 7037   5.766   0.269   5.139  0.0806 -0.1953  0.2859
   78SOPE   H9Y 7038   5.761   0.107   5.230  2.2408 -1.1943  1.6217
   78SOPE  C310 7039   5.883   0.102   5.063 -0.5799  0.1785 -0.3390
   78SOPE  H10X 7040   5.915   0.003   5.102  0.0080 -0.4911 -2.3621
   78SOPE  H10Y 7041   5.966   0.152   5.009  0.3154  0.8288  1.5588
   78SOPE  C311 7042   5.786   0.061   4.952  0.2272 -0.1372  0.1799
   78SOPE  H11X 7043   5.752   0.153   4.900 -3.7272 -1.6145 -0.1650
   78SOPE  H11Y 7044   5.690   0.026   4.995 -0.7190  0.0497 -1.6748
   78SOPE  C312 7045   5.855  -0.044   4.862 -0.0030  0.1765  0.1144
   78SOPE  H12X 7046   5.892  -0.136   4.911  1.6010 -1.3418 -3.5461
   78SOPE  H12Y 7047   5.948   0.007   4.826  0.3526 -1.5697 -1.6152
   78SOPE  C313 7048   5.762  -0.066   4.744  0.5083  0.5544  0.1081
   78SOPE  H13X 7049   5.831  -0.105   4.666  1.7585 -1.5186  2.1297
   78SOPE  H13Y 7050   5.720   0.029   4.705 -0.1953  0.2174  0.0208
   78SOPE  C314 7051   5.655  -0.176   4.766  0.2584  0.2655  0.2279
   78SOPE  H14X 7052   5.581  -0.183   4.683 -0.0739  1.5681  0.3919
   78SOPE  H14Y 7053   5.593  -0.147   4.853  0.4675 -0.0574  0.4853
   78SOPE  C315 7054   5.714  -0.312   4.787 -0.3468  0.0449 -0.1173
   78SOPE  H15X 7055   5.636  -0.383   4.823 -0.7405  0.0526 -0.9296
   78SOPE  H15Y 7056   5.802  -0.307   4.855  0.0912  0.2303 -0.6925
   78SOPE  C316 7057   5.758  -0.370   4.649  0.5761 -0.2744  0.1229
   78SOPE  H16X 7058   5.839  -0.306   4.607  0.6455  0.4095  1.2643
   78SOPE  H16Y 7059   5.673  -0.361   4.578  0.1119 -2.2813  0.3652
   78SOPE  C317 7060   5.791  -0.522   4.659  0.0895  0.9345  0.2936
   78SOPE  H17X 7061   5.709  -0.569   4.717  0.0409 -0.6356 -0.9868
   78SOPE  H17Y 7062   5.885  -0.538   4.717 -0.6951 -0.1430  1.3063
   78SOPE  C318 7063   5.828  -0.599   4.533 -0.0794 -0.2800  0.2242
   78SOPE  H18X 7064   5.930  -0.579   4.495 -0.2549  1.1363  0.4728
   78SOPE  H18Y 7065   5.751  -0.597   4.453 -0.2911 -1.9054  0.3379
   78SOPE  H18Z 7066   5.849  -0.703   4.566 -1.0879 -1.1136 -1.6033
   79SOPE     N 7067   4.036   5.074   6.653  0.1153 -0.1556  0.7604
   79SOPE   HN1 7068   3.941   5.111   6.633  0.9628  2.7429  1.5976
   79SOPE   HN2 7069   4.092   5.161   6.641 -0.3224  0.4846  2.8949
   79SOPE   HN3 7070   4.070   4.999   6.589  0.8911 -0.2196  1.2282
   79SOPE   C12 7071   4.051   5.021   6.793  0.1677  0.3592  0.1419
   79SOPE  H12A 7072   3.983   5.080   6.858 -2.4976 -0.8066 -1.4276
   79SOPE  H12B 7073   4.161   5.035   6.804  0.2062 -0.0571  0.2674
   79SOPE   C11 7074   4.015   4.882   6.815  1.2287  0.2462  0.2411
   79SOPE  H11A 7075   3.907   4.862   6.800  1.0575  0.0634  1.6253
   79SOPE  H11B 7076   4.018   4.863   6.924  4.0400  1.9834  0.5805
   79SOPE     P 7077   4.058   4.711   6.629 -0.1775  0.2408 -0.2181
   79SOPE   O13 7078   3.923   4.646   6.653  0.1827 -0.3681  0.6280
   79SOPE   O14 7079   4.172   4.620   6.605  0.4714 -0.3634  0.3692
   79SOPE   O12 7080   4.103   4.783   6.760  0.0943  0.0490  0.3317
   79SOPE   O11 7081   4.037   4.827   6.520 -0.2342  0.1592  0.4056
   79SOPE    C1 7082   3.928   4.816   6.427  0.5747  0.2883 -0.2305
   79SOPE    HA 7083   3.911   4.916   6.381 -0.8824 -0.2231 -0.8717
   79SOPE    HB 7084   3.829   4.789   6.471  0.3301  0.1654 -0.8423
   79SOPE    C2 7085   3.934   4.719   6.305 -0.0071 -0.5007  0.9612
   79SOPE    HS 7086   3.932   4.616   6.347 -2.0943 -0.5565  0.8308
   79SOPE   O21 7087   4.049   4.749   6.221  0.0472 -0.0969  0.7295
   79SOPE   C21 7088   4.102   4.648   6.164  0.7673 -0.1628 -0.0002
   79SOPE   O22 7089   4.078   4.530   6.192 -0.2453 -0.6166  0.4086
   79SOPE   C22 7090   4.192   4.688   6.052 -0.2361 -0.5647 -0.5423
   79SOPE   H2R 7091   4.300   4.680   6.076 -0.0659  0.3329 -0.9533
   79SOPE   H2S 7092   4.190   4.797   6.027 -0.7205 -0.5423 -0.4143
   79SOPE    C3 7093   3.795   4.733   6.225 -0.6446 -0.8520  0.1047
   79SOPE    HX 7094   3.780   4.842   6.207 -1.2457 -0.7907  0.9319
   79SOPE    HY 7095   3.721   4.697   6.300 -0.4015  0.9641  1.2684
   79SOPE   O31 7096   3.794   4.656   6.103  0.3798 -0.1884  0.0105
   79SOPE   C31 7097   3.726   4.546   6.101 -0.1107 -0.0859 -0.2470
   79SOPE   O32 7098   3.660   4.503   6.197  0.4338  0.5909  0.3474
   79SOPE   C32 7099   3.732   4.471   5.970 -0.6858  0.8338  0.1368
   79SOPE   H2X 7100   3.661   4.386   5.963  1.4362 -0.8552 -2.4113
   79SOPE   H2Y 7101   3.835   4.430   5.962 -0.7331  0.5284  1.0032
   79SOPE   C23 7102   4.164   4.620   5.918  0.1679 -0.8106  0.0271
   79SOPE   H3R 7103   4.056   4.639   5.904 -0.3474 -1.9658  1.9860
   79SOPE   H3S 7104   4.177   4.509   5.924 -0.8699 -0.8790  1.5031
   79SOPE   C24 7105   4.248   4.684   5.801  0.6309 -0.9773  0.5413
   79SOPE   H4R 7106   4.236   4.794   5.801  1.0056 -0.9198  1.7251
   79SOPE   H4S 7107   4.356   4.676   5.826  0.2759 -1.9010  1.8900
   79SOPE   C25 7108   4.214   4.625   5.660 -0.7850 -0.2626 -0.0911
   79SOPE   H5R 7109   4.266   4.528   5.670  2.4411  1.3589  0.0835
   79SOPE   H5S 7110   4.103   4.625   5.649 -0.8986  1.6258  0.6698
   79SOPE   C26 7111   4.277   4.700   5.549 -0.7405  0.3072 -0.4411
   79SOPE   H6R 7112   4.242   4.805   5.556  0.9512  0.8327  0.8004
   79SOPE   H6S 7113   4.388   4.702   5.549 -0.7433  0.9911  0.4739
   79SOPE   C27 7114   4.233   4.639   5.416  0.1339  0.2039 -0.5266
   79SOPE   H7R 7115   4.270   4.534   5.413  2.0898  0.6428  2.8045
   79SOPE   H7S 7116   4.124   4.642   5.399  0.0210 -0.0733  0.1333
   79SOPE   C28 7117   4.298   4.715   5.306 -0.0040  0.4111  0.8019
   79SOPE   H8R 7118   4.295   4.822   5.334 -0.0080  0.3239  1.1396
   79SOPE   H8S 7119   4.404   4.680   5.310 -0.5428 -1.2502  1.5087
   79SOPE   C29 7120   4.239   4.694   5.167  0.2308 -0.7048  0.0235
   79SOPE   H91 7121   4.136   4.730   5.152 -0.0352 -1.6165 -0.4410
   79SOPE  C210 7122   4.287   4.629   5.059  0.6733  0.7906 -0.4135
   79SOPE  H101 7123   4.235   4.635   4.962  1.0300 -0.1014 -0.6674
   79SOPE  C211 7124   4.423   4.571   5.042 -0.5068  0.4448  0.2085
   79SOPE  H11R 7125   4.417   4.460   5.045  2.2132  0.0795 -2.7414
   79SOPE  H11S 7126   4.493   4.610   5.120  1.1876 -0.9828 -0.5301
   79SOPE  C212 7127   4.480   4.606   4.901 -0.1871 -0.2962  0.5598
   79SOPE  H12R 7128   4.405   4.566   4.829 -3.8148  0.4394  3.5687
   79SOPE  H12S 7129   4.575   4.554   4.878 -0.8016 -1.5384  0.7686
   79SOPE  C213 7130   4.492   4.753   4.873 -0.2335  0.1265 -0.0516
   79SOPE  H13R 7131   4.582   4.784   4.930  1.6632 -0.4227 -2.5225
   79SOPE  H13S 7132   4.408   4.817   4.906  0.3619 -0.0502  1.9023
   79SOPE  C214 7133   4.512   4.801   4.729 -0.6502  0.1078 -0.0330
   79SOPE  H14R 7134   4.544   4.907   4.745  2.0686 -0.5230 -0.6834
   79SOPE  H14S 7135   4.421   4.780   4.670 -1.0541  1.2679  0.1436
   79SOPE  C215 7136   4.628   4.732   4.653 -0.3666  0.0336  1.2205
   79SOPE  H15R 7137   4.594   4.629   4.630 -1.5312  0.9352 -1.4690
   79SOPE  H15S 7138   4.725   4.735   4.707  0.3410  2.3091 -0.0346
   79SOPE  C216 7139   4.651   4.806   4.516 -0.2465  0.3800 -0.4523
   79SOPE  H16R 7140   4.651   4.915   4.541  0.0446  0.1042  0.8019
   79SOPE  H16S 7141   4.574   4.813   4.436  2.4549 -0.0822 -3.2626
   79SOPE  C217 7142   4.785   4.769   4.452 -0.0461 -0.0520 -0.2397
   79SOPE  H17R 7143   4.855   4.780   4.538 -0.0868  0.4340 -0.2627
   79SOPE  H17S 7144   4.805   4.837   4.366 -1.0292  0.2137 -0.2765
   79SOPE  C218 7145   4.790   4.633   4.392 -0.2839 -0.2262  0.3649
   79SOPE  H18R 7146   4.737   4.559   4.456 -0.1412 -2.4579 -1.9110
   79SOPE  H18S 7147   4.892   4.593   4.371 -0.6447  0.1995 -2.7210
   79SOPE  H18T 7148   4.739   4.635   4.293  0.4970 -1.1210 -0.0816
   79SOPE   C33 7149   3.713   4.554   5.841 -0.0961 -0.3088 -0.3847
   79SOPE   H3X 7150   3.781   4.641   5.855  0.6341 -0.9329  0.0023
   79SOPE   H3Y 7151   3.609   4.593   5.846 -0.7492 -1.8368 -1.5649
   79SOPE   C34 7152   3.755   4.482   5.720  0.9827  0.0647  0.3392
   79SOPE   H4X 7153   3.719   4.376   5.715 -1.3499  0.8005  0.3284
   79SOPE   H4Y 7154   3.865   4.470   5.718  1.0612  0.7815 -1.9125
   79SOPE   C35 7155   3.703   4.555   5.599  0.2336  0.1316 -0.0639
   79SOPE   H5X 7156   3.753   4.654   5.593  1.5284 -0.3226  2.0528
   79SOPE   H5Y 7157   3.593   4.561   5.587  0.3418  2.2296 -0.4048
   79SOPE   C36 7158   3.758   4.471   5.484 -0.2638  0.1448  0.1917
   79SOPE   H6X 7159   3.711   4.371   5.486 -0.2734  0.1625  1.2084
   79SOPE   H6Y 7160   3.868   4.453   5.488  0.1356  2.2603  0.1114
   79SOPE   C37 7161   3.726   4.537   5.357  0.4959 -0.0022 -0.1415
   79SOPE   H7X 7162   3.756   4.644   5.363  0.8640 -0.1888  2.2178
   79SOPE   H7Y 7163   3.618   4.554   5.338  0.0820 -1.7198  0.5195
   79SOPE   C38 7164   3.792   4.486   5.230  0.6341  0.5377  0.0737
   79SOPE   H8X 7165   3.743   4.388   5.214 -0.0050  0.9701 -0.7505
   79SOPE   H8Y 7166   3.898   4.455   5.237  1.1546  2.2161  0.1044
   79SOPE   C39 7167   3.775   4.570   5.108 -0.4484  0.3517  0.2165
   79SOPE   H9X 7168   3.829   4.665   5.124 -1.3356  0.8421  0.3774
   79SOPE   H9Y 7169   3.674   4.606   5.079  0.0225  0.3802 -1.5005
   79SOPE  C310 7170   3.830   4.508   4.983 -0.4907  0.0552  0.3037
   79SOPE  H10X 7171   3.834   4.397   4.994  0.6035  0.0338 -0.2137
   79SOPE  H10Y 7172   3.938   4.536   4.988  0.1942 -2.4669  2.4644
   79SOPE  C311 7173   3.774   4.570   4.853 -0.2943  0.4753 -0.2132
   79SOPE  H11X 7174   3.817   4.666   4.816 -1.9219  1.2533 -0.1893
   79SOPE  H11Y 7175   3.665   4.576   4.871 -0.3357  0.2219 -0.3834
   79SOPE  C312 7176   3.790   4.473   4.731  0.7796  0.4001  0.8054
   79SOPE  H12X 7177   3.728   4.381   4.741  2.3971 -0.5434  3.0538
   79SOPE  H12Y 7178   3.897   4.443   4.732  0.1211 -2.7274 -2.5523
   79SOPE  C313 7179   3.761   4.540   4.594 -0.3075  0.1420  0.3060
   79SOPE  H13X 7180   3.847   4.608   4.575 -0.9058  0.9194  0.3276
   79SOPE  H13Y 7181   3.665   4.597   4.598 -0.2441  0.5946 -2.4738
   79SOPE  C314 7182   3.754   4.433   4.481 -0.9932 -0.0650 -0.4687
   79SOPE  H14X 7183   3.657   4.380   4.489 -0.8234 -0.9292 -3.2082
   79SOPE  H14Y 7184   3.836   4.357   4.487 -0.0134  1.0481  1.0559
   79SOPE  C315 7185   3.739   4.505   4.345 -0.5104 -0.6658  0.3600
   79SOPE  H15X 7186   3.709   4.422   4.277 -1.5854 -2.1764  2.5436
   79SOPE  H15Y 7187   3.836   4.548   4.311  0.0131 -1.1797  1.1701
   79SOPE  C316 7188   3.633   4.622   4.340 -0.1575 -0.3849  0.0906
   79SOPE  H16X 7189   3.663   4.691   4.422 -1.8574 -2.2150  2.3903
   79SOPE  H16Y 7190   3.534   4.586   4.375  0.7216 -3.4942 -0.3224
   79SOPE  C317 7191   3.622   4.699   4.208  0.5484 -0.2440 -0.3506
   79SOPE  H17X 7192   3.556   4.788   4.223 -0.5326 -1.3511  1.9504
   79SOPE  H17Y 7193   3.565   4.633   4.139 -0.2979 -0.8067  0.8501
   79SOPE  C318 7194   3.759   4.747   4.151 -0.1716  0.2030  0.8058
   79SOPE  H18X 7195   3.813   4.782   4.241 -1.3346  0.1413  1.5542
   79SOPE  H18Y 7196   3.746   4.822   4.070 -0.5406 -3.1316 -2.5163
   79SOPE  H18Z 7197   3.815   4.673   4.090 -0.6361  0.8970 -0.4998
   80SOPE     N 7198   4.593   0.140   6.577 -0.0085  0.5567  0.0294
   80SOPE   HN1 7199   4.491   0.119   6.571 -0.1907  0.9686  1.2133
   80SOPE   HN2 7200   4.639   0.050   6.600  1.3250  1.6485  1.9211
   80SOPE   HN3 7201   4.621   0.210   6.650 -1.3331 -1.0331  2.1860
   80SOPE   C12 7202   4.617   0.208   6.444 -0.2890  0.1828  0.0411
   80SOPE  H12A 7203   4.581   0.146   6.360  0.3105 -0.4886  0.2700
   80SOPE  H12B 7204   4.728   0.212   6.443 -0.2724 -0.0311  0.6563
   80SOPE   C11 7205   4.542   0.335   6.452 -0.0184 -0.5212  0.7809
   80SOPE  H11A 7206   4.559   0.386   6.355  0.4516  0.8797  1.5535
   80SOPE  H11B 7207   4.577   0.412   6.525 -1.2144  0.0144  0.8153
   80SOPE     P 7208   4.314   0.371   6.580  0.3149  0.2453 -0.6898
   80SOPE   O13 7209   4.397   0.418   6.693  0.4643  0.4175 -0.2862
   80SOPE   O14 7210   4.200   0.283   6.610 -0.1415 -0.3752 -0.2787
   80SOPE   O12 7211   4.405   0.307   6.462  0.0709 -0.5457  0.1472
   80SOPE   O11 7212   4.249   0.503   6.520 -1.0846  0.3871  0.2404
   80SOPE    C1 7213   4.311   0.587   6.422  0.1727  0.6600  0.8994
   80SOPE    HA 7214   4.418   0.559   6.405 -0.4177  0.1812 -2.7769
   80SOPE    HB 7215   4.307   0.689   6.466 -2.1733  0.9851  0.0405
   80SOPE    C2 7216   4.235   0.593   6.290 -0.0056  0.2694 -0.3251
   80SOPE    HS 7217   4.129   0.618   6.310 -0.6013 -0.8806 -1.8170
   80SOPE   O21 7218   4.249   0.464   6.221 -0.6331 -0.1142 -0.4993
   80SOPE   C21 7219   4.152   0.373   6.237  0.2339  0.4149  0.7210
   80SOPE   O22 7220   4.049   0.390   6.304  0.0771  0.0656 -0.0775
   80SOPE   C22 7221   4.182   0.247   6.159 -0.0015  0.0278 -0.5412
   80SOPE   H2R 7222   4.123   0.250   6.064  1.1109 -1.7260 -1.3405
   80SOPE   H2S 7223   4.153   0.159   6.220  1.7049 -0.2072 -0.0205
   80SOPE    C3 7224   4.287   0.707   6.203  0.1287 -0.4687 -0.1076
   80SOPE    HX 7225   4.282   0.798   6.266 -0.5303 -1.2139  0.9417
   80SOPE    HY 7226   4.209   0.713   6.124  0.4209 -0.6116 -0.4089
   80SOPE   O31 7227   4.420   0.695   6.151 -0.5426  0.5916 -0.3606
   80SOPE   C31 7228   4.439   0.625   6.044  0.4510  0.0353  0.2532
   80SOPE   O32 7229   4.356   0.575   5.969  0.3251 -0.3863  0.2277
   80SOPE   C32 7230   4.594   0.597   6.024 -0.2054 -0.2229  0.0880
   80SOPE   H2X 7231   4.589   0.486   6.032 -2.8193 -0.4106 -2.3410
   80SOPE   H2Y 7232   4.641   0.641   6.114  0.2803 -1.4382  0.4506
   80SOPE   C23 7233   4.336   0.221   6.126  0.0254 -0.1559 -0.3064
   80SOPE   H3R 7234   4.398   0.200   6.215  1.7461  1.0140 -1.1834
   80SOPE   H3S 7235   4.372   0.317   6.082 -0.3242 -0.0007 -0.2592
   80SOPE   C24 7236   4.346   0.123   6.006 -0.1740 -0.1621  0.4795
   80SOPE   H4R 7237   4.321   0.022   6.046  0.7275  0.2460  2.1262
   80SOPE   H4S 7238   4.278   0.156   5.924 -1.4845  0.2732  1.7155
   80SOPE   C25 7239   4.492   0.122   5.961  0.2995 -0.1043 -0.6048
   80SOPE   H5R 7240   4.513   0.228   5.937 -1.7397  0.5782  0.4049
   80SOPE   H5S 7241   4.559   0.102   6.048 -1.8669 -1.5824  0.8494
   80SOPE   C26 7242   4.537   0.055   5.837 -0.0930 -0.8924 -0.4255
   80SOPE   H6R 7243   4.648   0.056   5.841 -0.0674 -1.1204 -1.0018
   80SOPE   H6S 7244   4.516  -0.054   5.828  2.5882 -1.4983 -0.3118
   80SOPE   C27 7245   4.488   0.124   5.716 -0.2369 -0.2635 -0.0574
   80SOPE   H7R 7246   4.377   0.120   5.714 -0.4526  2.6249 -2.2905
   80SOPE   H7S 7247   4.515   0.232   5.709 -1.0366  0.0701  1.6076
   80SOPE   C28 7248   4.529   0.062   5.577  0.0986  0.1727 -1.0561
   80SOPE   H8R 7249   4.502   0.144   5.507 -0.5589  2.4138  1.6611
   80SOPE   H8S 7250   4.639   0.052   5.578  0.2371  1.4161 -1.7221
   80SOPE   C29 7251   4.449  -0.063   5.546 -0.6436  0.1510 -0.3133
   80SOPE   H91 7252   4.357  -0.051   5.488  1.3008 -1.2133 -4.0481
   80SOPE  C210 7253   4.486  -0.191   5.556  0.5316 -0.4531 -0.0663
   80SOPE  H101 7254   4.419  -0.274   5.530  0.7676 -0.6100 -0.1809
   80SOPE  C211 7255   4.610  -0.236   5.633 -0.6389  0.1913  0.0206
   80SOPE  H11R 7256   4.586  -0.280   5.733  1.9205 -1.4380  0.0087
   80SOPE  H11S 7257   4.693  -0.162   5.630 -0.5946  0.1542  0.2765
   80SOPE  C212 7258   4.667  -0.360   5.552  0.4329 -1.0254  0.3344
   80SOPE  H12R 7259   4.590  -0.438   5.571  0.3657 -0.7467  1.2586
   80SOPE  H12S 7260   4.759  -0.397   5.602  0.3436  0.0756  1.3778
   80SOPE  C213 7261   4.686  -0.360   5.398  0.2141  1.0789  0.0100
   80SOPE  H13R 7262   4.588  -0.377   5.348  0.4125  0.3140 -0.1416
   80SOPE  H13S 7263   4.758  -0.444   5.383 -1.3911 -0.1443 -1.2432
   80SOPE  C214 7264   4.737  -0.238   5.323 -0.7099 -0.8056  0.3869
   80SOPE  H14R 7265   4.844  -0.217   5.347 -0.8079 -0.7312  0.7668
   80SOPE  H14S 7266   4.698  -0.140   5.359 -0.5496  0.0808 -1.7332
   80SOPE  C215 7267   4.728  -0.249   5.170  0.1577  0.2307 -0.5613
   80SOPE  H15R 7268   4.778  -0.157   5.134  0.7656  0.1669  0.0841
   80SOPE  H15S 7269   4.621  -0.260   5.145 -0.1452 -1.7725  1.2986
   80SOPE  C216 7270   4.788  -0.383   5.119 -0.8208 -0.0228 -0.1725
   80SOPE  H16R 7271   4.707  -0.453   5.148 -0.1720 -0.5212  0.4717
   80SOPE  H16S 7272   4.886  -0.408   5.165 -0.5325  0.7751 -0.3376
   80SOPE  C217 7273   4.809  -0.386   4.969  0.1996  0.0598  0.4417
   80SOPE  H17R 7274   4.848  -0.293   4.924  2.6258 -1.1718 -0.1981
   80SOPE  H17S 7275   4.714  -0.419   4.920 -0.9645 -0.5476  2.9183
   80SOPE  C218 7276   4.911  -0.498   4.923  0.5576 -0.3394 -0.3167
   80SOPE  H18R 7277   4.909  -0.504   4.812 -2.4764  1.2553 -0.4440
   80SOPE  H18S 7278   4.865  -0.589   4.966 -0.1689  1.0879  2.1011
   80SOPE  H18T 7279   5.014  -0.489   4.965  0.3212 -1.2137  0.4800
   80SOPE   C33 7280   4.651   0.644   5.885  0.3701  0.0289  0.0354
   80SOPE   H3X 7281   4.763   0.643   5.885  0.4231 -0.9955  2.1937
   80SOPE   H3Y 7282   4.621   0.751   5.880 -1.7687 -0.4339  1.5664
   80SOPE   C34 7283   4.595   0.574   5.762  0.1546 -0.0746 -0.3015
   80SOPE   H4X 7284   4.484   0.580   5.761  0.0011 -1.3176 -3.8282
   80SOPE   H4Y 7285   4.612   0.464   5.769 -2.5938 -0.4915  1.6441
   80SOPE   C35 7286   4.660   0.626   5.636  0.0929  0.2319  0.1181
   80SOPE   H5X 7287   4.771   0.616   5.641  0.3804  1.3422 -2.3678
   80SOPE   H5Y 7288   4.645   0.736   5.633 -0.3001  0.1543 -0.8793
   80SOPE   C36 7289   4.606   0.574   5.503 -0.2804  0.4923 -0.4212
   80SOPE   H6X 7290   4.496   0.559   5.505 -0.4624  1.6903  1.7952
   80SOPE   H6Y 7291   4.650   0.472   5.498 -2.1248 -0.2870 -2.0399
   80SOPE   C37 7292   4.649   0.655   5.379  0.3742 -0.4454  0.3877
   80SOPE   H7X 7293   4.761   0.658   5.378  0.3565  0.9753  0.8344
   80SOPE   H7Y 7294   4.606   0.755   5.400  0.1778  0.3446 -3.1338
   80SOPE   C38 7295   4.592   0.592   5.252  0.3166  0.1707 -0.2597
   80SOPE   H8X 7296   4.484   0.620   5.251 -0.2260 -1.3580  3.0399
   80SOPE   H8Y 7297   4.600   0.482   5.258 -0.9048  0.0936  0.2673
   80SOPE   C39 7298   4.640   0.651   5.119  0.2500 -0.4213 -0.4608
   80SOPE   H9X 7299   4.621   0.759   5.105  0.0764 -0.2614  0.9181
   80SOPE   H9Y 7300   4.585   0.597   5.039 -0.6899  1.1558 -0.9153
   80SOPE  C310 7301   4.793   0.627   5.091 -0.7060  0.0738 -0.1573
   80SOPE  H10X 7302   4.838   0.539   5.141  0.4728 -0.2227 -1.6534
   80SOPE  H10Y 7303   4.845   0.718   5.128  1.4243 -0.9179 -0.5655
   80SOPE  C311 7304   4.819   0.610   4.937 -0.3673 -0.0976  0.0395
   80SOPE  H11X 7305   4.754   0.686   4.888  0.3087 -0.4533 -1.4641
   80SOPE  H11Y 7306   4.771   0.520   4.893 -0.5843  1.6938 -3.8433
   80SOPE  C312 7307   4.965   0.613   4.902 -0.5365  0.0498  0.4717
   80SOPE  H12X 7308   5.007   0.532   4.966  1.7876  0.1449 -0.8112
   80SOPE  H12Y 7309   5.011   0.709   4.934 -0.4584  0.4114 -0.6821
   80SOPE  C313 7310   4.995   0.585   4.753 -0.0585 -0.1170 -0.6968
   80SOPE  H13X 7311   4.943   0.494   4.716 -2.9841  1.1034  0.1198
   80SOPE  H13Y 7312   5.102   0.557   4.760  0.3799  1.7811  1.2923
   80SOPE  C314 7313   4.969   0.701   4.666  0.6304 -0.2753  0.3889
   80SOPE  H14X 7314   5.031   0.781   4.713 -0.5226  1.0750 -0.3153
   80SOPE  H14Y 7315   4.862   0.729   4.667  0.5880 -0.3856 -0.6155
   80SOPE  C315 7316   5.025   0.690   4.520 -1.3446  0.3359 -0.5313
   80SOPE  H15X 7317   5.133   0.664   4.516 -0.8952  1.8812  0.7164
   80SOPE  H15Y 7318   5.022   0.785   4.463  3.2756 -0.2920 -2.2040
   80SOPE  C316 7319   4.969   0.571   4.440  0.0697  0.9445  0.2817
   80SOPE  H16X 7320   5.004   0.476   4.486 -3.5189 -0.2652  0.8352
   80SOPE  H16Y 7321   4.995   0.572   4.332 -0.9483 -0.5808  0.0025
   80SOPE  C317 7322   4.812   0.554   4.431  0.4436 -0.0189 -0.1920
   80SOPE  H17X 7323   4.767   0.577   4.529 -1.2934 -0.5842 -0.8133
   80SOPE  H17Y 7324   4.804   0.444   4.415 -0.9000 -0.2802  1.9100
   80SOPE  C318 7325   4.736   0.630   4.326  0.2753 -0.1777  0.8059
   80SOPE  H18X 7326   4.628   0.605   4.331  0.3025 -0.1948  1.3168
   80SOPE  H18Y 7327   4.755   0.584   4.226 -0.1288 -0.3087  0.7899
   80SOPE  H18Z 7328   4.737   0.741   4.324 -0.7287 -0.1709  0.4310
   81SOPE     N 7329   5.822   3.282   6.935  0.0875 -0.6454 -0.2513
   81SOPE   HN1 7330   5.827   3.240   7.030 -0.3606  1.1042  0.5988
   81SOPE   HN2 7331   5.876   3.370   6.923  0.0074 -0.5680 -0.0413
   81SOPE   HN3 7332   5.722   3.305   6.916  0.3908  1.4578  0.4258
   81SOPE   C12 7333   5.863   3.179   6.840 -0.1307 -0.3369 -0.6427
   81SOPE  H12A 7334   5.973   3.176   6.853 -0.1922 -0.9510 -0.2000
   81SOPE  H12B 7335   5.843   3.204   6.733  0.2510  1.2872 -0.3613
   81SOPE   C11 7336   5.788   3.044   6.855 -0.3680  0.1837 -0.8905
   81SOPE  H11A 7337   5.805   2.994   6.953 -1.5947  1.1035 -0.1649
   81SOPE  H11B 7338   5.833   2.966   6.790  0.6166  0.0578 -0.0880
   81SOPE     P 7339   5.575   3.004   6.707  0.5483  0.1902 -0.7666
   81SOPE   O13 7340   5.496   3.119   6.650 -0.1123 -0.0711  0.4606
   81SOPE   O14 7341   5.484   2.897   6.756 -0.2355  0.4624 -0.3691
   81SOPE   O12 7342   5.648   3.059   6.825  0.3378  0.0797 -0.1469
   81SOPE   O11 7343   5.675   2.946   6.602 -0.4238  0.3154  0.0333
   81SOPE    C1 7344   5.709   3.039   6.495 -0.1243  0.3410  0.2280
   81SOPE    HA 7345   5.804   3.002   6.451 -0.8906 -0.8815 -0.4558
   81SOPE    HB 7346   5.727   3.143   6.532 -0.8603  0.8746 -0.8469
   81SOPE    C2 7347   5.613   3.022   6.372 -0.3298 -0.2298 -0.9522
   81SOPE    HS 7348   5.513   3.042   6.415  1.1277  1.1834  2.1151
   81SOPE   O21 7349   5.628   2.884   6.332 -0.3361 -0.3970  0.0515
   81SOPE   C21 7350   5.518   2.838   6.269 -0.9675 -0.3668 -0.0364
   81SOPE   O22 7351   5.417   2.900   6.246 -0.6153  0.4904 -0.3631
   81SOPE   C22 7352   5.529   2.690   6.234  0.4977  0.2973 -0.9871
   81SOPE   H2R 7353   5.454   2.645   6.302 -0.9107  2.1608 -1.2189
   81SOPE   H2S 7354   5.628   2.652   6.268  0.5862  0.5779 -0.9293
   81SOPE    C3 7355   5.642   3.125   6.257 -0.2030 -0.2299 -0.1703
   81SOPE    HX 7356   5.626   3.226   6.299 -1.3340  0.5761 -2.4237
   81SOPE    HY 7357   5.566   3.092   6.183  0.8378  1.7836 -2.2664
   81SOPE   O31 7358   5.778   3.113   6.217 -0.1939  0.0334 -0.0000
   81SOPE   C31 7359   5.795   3.089   6.092  0.3967 -0.1245  0.3312
   81SOPE   O32 7360   5.716   3.066   6.004 -0.6129 -0.1791  0.1194
   81SOPE   C32 7361   5.945   3.094   6.061  0.0181  0.1661 -0.7587
   81SOPE   H2X 7362   6.005   3.055   6.146 -1.0116  2.1844  0.9736
   81SOPE   H2Y 7363   5.979   3.200   6.057 -2.0088  0.9409  0.9849
   81SOPE   C23 7364   5.492   2.662   6.095 -0.0762 -0.7492 -0.5318
   81SOPE   H3R 7365   5.388   2.695   6.076  1.1331  2.0686 -3.0966
   81SOPE   H3S 7366   5.494   2.555   6.066  1.5268 -1.0021  0.3438
   81SOPE   C24 7367   5.593   2.737   6.006  0.3977  0.0838  0.5087
   81SOPE   H4R 7368   5.581   2.846   6.026 -3.3026 -0.4647  2.2628
   81SOPE   H4S 7369   5.696   2.703   6.029  1.2829 -0.7525 -3.8996
   81SOPE   C25 7370   5.566   2.709   5.858  0.1454 -0.2380 -0.4372
   81SOPE   H5R 7371   5.583   2.600   5.842 -0.1925 -0.9562  3.3551
   81SOPE   H5S 7372   5.463   2.741   5.829  0.0450  2.7017  2.6519
   81SOPE   C26 7373   5.673   2.777   5.769  0.1245 -1.1397  0.0140
   81SOPE   H6R 7374   5.658   2.884   5.795 -4.1898 -2.0734  2.3877
   81SOPE   H6S 7375   5.776   2.752   5.802  0.5967 -0.1522 -0.6442
   81SOPE   C27 7376   5.644   2.751   5.615 -0.1760 -0.3830  0.3447
   81SOPE   H7R 7377   5.677   2.646   5.600 -1.6792 -1.0439  1.4270
   81SOPE   H7S 7378   5.534   2.743   5.604 -0.5809 -0.2633  3.5115
   81SOPE   C28 7379   5.710   2.850   5.511 -0.8009 -1.0007 -0.7835
   81SOPE   H8R 7380   5.817   2.862   5.539 -0.8907 -1.6785 -0.1024
   81SOPE   H8S 7381   5.708   2.800   5.412  0.1513 -0.2347 -1.2019
   81SOPE   C29 7382   5.639   2.986   5.520 -0.0673  1.0241 -0.2366
   81SOPE   H91 7383   5.616   3.020   5.622 -0.5410 -0.5693  0.2165
   81SOPE  C210 7384   5.576   3.049   5.418 -0.2757 -0.1962 -0.0205
   81SOPE  H101 7385   5.541   3.150   5.447 -0.2629 -0.1484 -0.1701
   81SOPE  C211 7386   5.574   3.010   5.269  0.6535  0.2109 -0.3662
   81SOPE  H11R 7387   5.679   2.988   5.239  0.4976 -3.1697  1.1235
   81SOPE  H11S 7388   5.540   3.089   5.198  0.7136 -0.7514 -1.4962
   81SOPE  C212 7389   5.477   2.886   5.239 -0.3438  0.2068  0.8229
   81SOPE  H12R 7390   5.372   2.912   5.263 -0.7171 -0.2875 -0.2479
   81SOPE  H12S 7391   5.512   2.797   5.295  1.5050 -0.6783 -1.5580
   81SOPE  C213 7392   5.483   2.837   5.092  0.1124 -0.3096 -0.5304
   81SOPE  H13R 7393   5.434   2.737   5.088 -0.5490 -0.0002 -0.3170
   81SOPE  H13S 7394   5.587   2.836   5.053 -0.4827  1.3383 -2.3086
   81SOPE  C214 7395   5.405   2.925   4.991  0.2329 -0.0262  0.0509
   81SOPE  H14R 7396   5.448   3.027   4.982 -1.7301  1.0717  2.0183
   81SOPE  H14S 7397   5.299   2.942   5.018 -0.8153  0.1118 -3.5778
   81SOPE  C215 7398   5.393   2.868   4.851 -0.4264 -0.4424  0.4335
   81SOPE  H15R 7399   5.340   2.935   4.780  2.6547 -0.4696 -2.0818
   81SOPE  H15S 7400   5.327   2.778   4.856  0.3149 -1.0049  0.2885
   81SOPE  C216 7401   5.526   2.841   4.775 -1.2357 -0.1014  0.0846
   81SOPE  H16R 7402   5.604   2.774   4.815  1.3706  2.0747 -1.0346
   81SOPE  H16S 7403   5.579   2.938   4.759 -2.2031  0.2674 -1.0677
   81SOPE  C217 7404   5.504   2.779   4.638  0.3302  0.0298  0.0369
   81SOPE  H17R 7405   5.582   2.817   4.569  1.8328  0.8411  2.0760
   81SOPE  H17S 7406   5.413   2.825   4.594  1.2866  2.4108  0.3387
   81SOPE  C218 7407   5.499   2.627   4.653 -1.0321 -0.2945 -0.4197
   81SOPE  H18R 7408   5.581   2.596   4.722 -2.9011 -2.3744  0.9939
   81SOPE  H18S 7409   5.513   2.573   4.557  1.1964  1.2718 -1.0505
   81SOPE  H18T 7410   5.406   2.598   4.706  0.4457  0.0997  2.5884
   81SOPE   C33 7411   5.986   3.018   5.930 -0.0926  0.6858  0.0439
   81SOPE   H3X 7412   5.924   2.926   5.920 -1.5475  1.7291 -0.9952
   81SOPE   H3Y 7413   6.089   2.979   5.940  0.6940  2.1618 -1.6898
   81SOPE   C34 7414   5.985   3.100   5.799 -0.1047  0.4920  0.1741
   81SOPE   H4X 7415   6.042   3.194   5.811 -3.3029  2.6080  0.1431
   81SOPE   H4Y 7416   5.879   3.133   5.792 -0.4411  0.2099  2.9280
   81SOPE   C35 7417   6.037   3.022   5.680  0.3839  0.2654  0.0063
   81SOPE   H5X 7418   5.999   2.917   5.678  1.2393 -0.0527 -1.5591
   81SOPE   H5Y 7419   6.144   3.006   5.703 -0.1011  1.2991  3.5050
   81SOPE   C36 7420   6.010   3.085   5.542 -1.0545  0.0558 -0.7704
   81SOPE   H6X 7421   5.899   3.092   5.536 -1.0091  2.3355  0.2168
   81SOPE   H6Y 7422   6.048   3.006   5.473  1.1661  0.5527 -0.1688
   81SOPE   C37 7423   6.068   3.222   5.514  0.2328 -0.1511 -0.3923
   81SOPE   H7X 7424   6.176   3.220   5.538  0.7206 -0.2953 -2.4392
   81SOPE   H7Y 7425   6.026   3.297   5.584  1.9572  1.3569 -0.9115
   81SOPE   C38 7426   6.052   3.254   5.368 -0.3079  0.2817  0.0784
   81SOPE   H8X 7427   6.097   3.166   5.317 -0.5636  0.3650 -0.2948
   81SOPE   H8Y 7428   6.114   3.340   5.336 -0.0421 -0.1208 -0.5182
   81SOPE   C39 7429   5.907   3.273   5.324 -0.2063  0.1696  0.1567
   81SOPE   H9X 7430   5.851   3.324   5.405  1.1827 -1.3478  2.1459
   81SOPE   H9Y 7431   5.867   3.172   5.300  1.8845 -0.5567 -0.4816
   81SOPE  C310 7432   5.899   3.366   5.199 -0.7226 -0.3147 -0.2480
   81SOPE  H10X 7433   5.971   3.327   5.123 -1.2603 -2.1905  0.1357
   81SOPE  H10Y 7434   5.930   3.458   5.253 -1.1670  0.1462 -0.7695
   81SOPE  C311 7435   5.765   3.400   5.132  1.1270  0.5077  0.2442
   81SOPE  H11X 7436   5.788   3.500   5.089  1.0190  0.0526 -0.9199
   81SOPE  H11Y 7437   5.680   3.394   5.204 -0.8098  2.0109 -1.7803
   81SOPE  C312 7438   5.718   3.310   5.018 -0.3122 -0.0284 -0.1007
   81SOPE  H12X 7439   5.681   3.212   5.056 -0.7284 -0.3020 -1.1836
   81SOPE  H12Y 7440   5.802   3.282   4.952  1.2633  1.0350  1.3326
   81SOPE  C313 7441   5.611   3.378   4.935  0.4961  0.4151 -0.1415
   81SOPE  H13X 7442   5.647   3.478   4.903  2.0244  0.1904  0.7611
   81SOPE  H13Y 7443   5.517   3.399   4.989  1.6208  1.1426  1.6275
   81SOPE  C314 7444   5.573   3.292   4.812  0.4898 -1.0035 -0.0344
   81SOPE  H14X 7445   5.568   3.192   4.861 -0.7194 -0.3188  1.2845
   81SOPE  H14Y 7446   5.664   3.292   4.747  0.5001 -0.0109 -0.0257
   81SOPE  C315 7447   5.440   3.333   4.750 -0.1297 -0.3645 -0.5393
   81SOPE  H15X 7448   5.447   3.435   4.706 -0.1884 -0.1264 -0.0104
   81SOPE  H15Y 7449   5.367   3.345   4.833  1.9783  1.2040  1.2344
   81SOPE  C316 7450   5.399   3.234   4.627  0.8460  0.5496 -0.1795
   81SOPE  H16X 7451   5.320   3.283   4.566  0.6923  0.2390 -0.2292
   81SOPE  H16Y 7452   5.376   3.137   4.676  0.4303  1.3195  1.2066
   81SOPE  C317 7453   5.506   3.204   4.525 -0.4740  0.7391 -0.6994
   81SOPE  H17X 7454   5.582   3.138   4.572 -1.9975 -1.6257 -1.3871
   81SOPE  H17Y 7455   5.549   3.302   4.494 -2.2114  1.9443  0.5075
   81SOPE  C318 7456   5.466   3.118   4.405 -0.5828 -0.2147 -0.4498
   81SOPE  H18X 7457   5.541   3.111   4.324  0.3115 -1.8230  0.4724
   81SOPE  H18Y 7458   5.365   3.150   4.371 -1.9251 -1.4561  2.0938
   81SOPE  H18Z 7459   5.454   3.014   4.442 -1.2384  0.1039  0.2651
   82SOPE     N 7460   4.502   3.449   6.733  0.9881 -0.0640  0.2701
   82SOPE   HN1 7461   4.485   3.502   6.821 -0.2496 -1.7779  1.1311
   82SOPE   HN2 7462   4.507   3.347   6.751 -1.8518 -0.7756 -2.1588
   82SOPE   HN3 7463   4.596   3.484   6.706  0.5688  1.5292  0.7745
   82SOPE   C12 7464   4.402   3.472   6.621 -0.3135 -0.3005  0.3296
   82SOPE  H12A 7465   4.409   3.580   6.596  1.5021 -0.6249 -0.7515
   82SOPE  H12B 7466   4.299   3.440   6.649 -0.6129 -1.0015 -1.4229
   82SOPE   C11 7467   4.439   3.399   6.492 -0.1248 -0.3703  0.0446
   82SOPE  H11A 7468   4.541   3.428   6.459 -0.4559  0.5613 -0.2167
   82SOPE  H11B 7469   4.370   3.432   6.411 -1.1971 -2.1321  0.2037
   82SOPE     P 7470   4.310   3.164   6.457 -0.1882 -0.2224 -0.0045
   82SOPE   O13 7471   4.195   3.180   6.546 -0.5885  0.1804  0.0205
   82SOPE   O14 7472   4.362   3.027   6.423  0.0194  0.1051  0.4464
   82SOPE   O12 7473   4.428   3.254   6.513  0.0057  0.1091 -0.0776
   82SOPE   O11 7474   4.275   3.246   6.330 -0.5393  0.5250 -0.3234
   82SOPE    C1 7475   4.364   3.251   6.215  0.1761 -0.2876  0.3666
   82SOPE    HA 7476   4.377   3.147   6.177  0.6159 -0.8200  1.9068
   82SOPE    HB 7477   4.458   3.302   6.247 -1.6808  2.2587  2.1783
   82SOPE    C2 7478   4.313   3.359   6.111 -0.3139  0.3704  0.8234
   82SOPE    HS 7479   4.260   3.437   6.169 -0.9110 -0.8404  1.9525
   82SOPE   O21 7480   4.217   3.300   6.033 -0.5918  0.5541  0.2539
   82SOPE   C21 7481   4.164   3.369   5.935  1.0156 -0.3565 -1.2104
   82SOPE   O22 7482   4.164   3.491   5.918 -0.2804 -0.4272 -0.5623
   82SOPE   C22 7483   4.104   3.273   5.833  0.2735 -0.2028 -0.6007
   82SOPE   H2R 7484   4.012   3.234   5.882  0.6814 -0.9715 -0.4312
   82SOPE   H2S 7485   4.175   3.190   5.811 -0.9169 -0.8520 -2.1995
   82SOPE    C3 7486   4.436   3.415   6.021  0.0864 -0.7320  0.5646
   82SOPE    HX 7487   4.514   3.469   6.079 -0.5234  2.6305 -1.4808
   82SOPE    HY 7488   4.396   3.490   5.950 -0.1413  0.0399  1.4876
   82SOPE   O31 7489   4.494   3.299   5.945  0.8095  0.0863 -0.1258
   82SOPE   C31 7490   4.578   3.333   5.854 -0.2224 -1.0957 -0.0340
   82SOPE   O32 7491   4.604   3.447   5.829  0.1873 -0.0043  0.4148
   82SOPE   C32 7492   4.644   3.213   5.778 -0.3266 -0.6006 -0.5312
   82SOPE   H2X 7493   4.591   3.124   5.818 -0.6320  0.0641  0.5696
   82SOPE   H2Y 7494   4.753   3.211   5.800  0.2239  1.3551 -2.6172
   82SOPE   C23 7495   4.065   3.353   5.706  0.9872 -0.0858  0.3527
   82SOPE   H3R 7496   4.147   3.413   5.661  0.4776  0.6043  0.3257
   82SOPE   H3S 7497   3.982   3.421   5.736  0.9135  0.9063 -1.8956
   82SOPE   C24 7498   4.004   3.263   5.601  0.2352  0.2476  0.3577
   82SOPE   H4R 7499   4.080   3.205   5.545  0.1547  2.0865 -1.7956
   82SOPE   H4S 7500   3.914   3.206   5.632 -0.9080  1.7281 -0.0943
   82SOPE   C25 7501   3.942   3.354   5.491  0.5728 -0.9251 -0.5944
   82SOPE   H5R 7502   3.867   3.424   5.534  1.3563 -0.9956  0.9194
   82SOPE   H5S 7503   4.020   3.426   5.461  1.3173 -0.5847  2.0026
   82SOPE   C26 7504   3.893   3.277   5.375  0.0290 -0.2451  0.7909
   82SOPE   H6R 7505   3.896   3.351   5.291  0.1377 -2.0826 -0.8967
   82SOPE   H6S 7506   3.975   3.212   5.340  0.1340  0.4623 -0.3517
   82SOPE   C27 7507   3.758   3.201   5.384  0.1181  0.4114 -0.3952
   82SOPE   H7R 7508   3.739   3.145   5.478 -0.5701  0.9279 -0.2206
   82SOPE   H7S 7509   3.674   3.273   5.376  0.1711  0.3899 -1.2621
   82SOPE   C28 7510   3.748   3.111   5.261 -0.3648  0.8990 -0.3714
   82SOPE   H8R 7511   3.787   3.162   5.171 -0.7235 -2.5231 -2.6751
   82SOPE   H8S 7512   3.813   3.020   5.264 -1.9490 -0.2852 -0.3946
   82SOPE   C29 7513   3.607   3.045   5.256  0.3533  0.1203 -0.5437
   82SOPE   H91 7514   3.574   2.985   5.342 -0.3011 -0.3180 -1.0890
   82SOPE  C210 7515   3.529   3.068   5.147  0.3004  0.0154 -0.1305
   82SOPE  H101 7516   3.426   3.030   5.150 -0.1501  1.2324  0.2199
   82SOPE  C211 7517   3.562   3.152   5.022  0.3348  0.1585  0.1107
   82SOPE  H11R 7518   3.673   3.147   5.017  0.5140 -0.1708  2.9187
   82SOPE  H11S 7519   3.518   3.255   5.021  1.2607  0.5652  0.3259
   82SOPE  C212 7520   3.518   3.067   4.899  0.8042 -0.2937  0.1860
   82SOPE  H12R 7521   3.407   3.065   4.895  0.7239  1.8089  0.2103
   82SOPE  H12S 7522   3.555   2.962   4.903  0.0359 -0.5698  0.2232
   82SOPE  C213 7523   3.568   3.120   4.765  0.8256 -0.4940 -0.6213
   82SOPE  H13R 7524   3.679   3.128   4.767  0.9028 -1.3197 -1.2776
   82SOPE  H13S 7525   3.515   3.215   4.744 -2.5726 -1.8709  0.9487
   82SOPE  C214 7526   3.527   3.035   4.645  0.0894  0.6847 -0.6566
   82SOPE  H14R 7527   3.417   3.046   4.640  0.0548  0.7296  0.1146
   82SOPE  H14S 7528   3.569   2.934   4.666  1.3518  1.3128 -0.0295
   82SOPE  C215 7529   3.585   3.087   4.514 -0.0891 -0.2910  0.5684
   82SOPE  H15R 7530   3.696   3.093   4.520 -0.0645 -0.2159  0.0424
   82SOPE  H15S 7531   3.556   3.192   4.494 -0.8203 -0.4518  0.7416
   82SOPE  C216 7532   3.541   2.994   4.396 -0.5288  0.0362 -0.3118
   82SOPE  H16R 7533   3.431   2.999   4.405 -0.6392 -0.8741 -1.0515
   82SOPE  H16S 7534   3.580   2.890   4.401  0.5037  0.2805 -2.3940
   82SOPE  C217 7535   3.576   3.039   4.258 -0.6927 -1.0253  0.1780
   82SOPE  H17R 7536   3.685   3.021   4.259 -0.2345  1.3763  0.6074
   82SOPE  H17S 7537   3.565   3.150   4.256  0.5670 -0.8429  1.6522
   82SOPE  C218 7538   3.485   2.970   4.155 -0.2958 -0.2140 -0.8672
   82SOPE  H18R 7539   3.495   2.860   4.170  2.0728  0.2574  1.9462
   82SOPE  H18S 7540   3.528   3.008   4.060  1.8724  3.4763  1.3447
   82SOPE  H18T 7541   3.382   3.006   4.171 -0.2921 -0.1878 -0.9067
   82SOPE   C33 7542   4.639   3.230   5.627  0.5328 -0.0261  0.8105
   82SOPE   H3X 7543   4.702   3.150   5.582  0.8646  0.1934  0.8795
   82SOPE   H3Y 7544   4.682   3.329   5.602 -1.1079  0.3313 -0.8079
   82SOPE   C34 7545   4.504   3.243   5.552  0.5142  0.2104  0.2443
   82SOPE   H4X 7546   4.438   3.307   5.614  2.8121 -0.1489  3.3525
   82SOPE   H4Y 7547   4.448   3.148   5.563 -2.2088  1.8992  2.3096
   82SOPE   C35 7548   4.530   3.284   5.400 -0.6607  0.3275 -0.0625
   82SOPE   H5X 7549   4.619   3.227   5.365 -1.8515 -0.7845 -1.4371
   82SOPE   H5Y 7550   4.553   3.393   5.400  1.6624 -0.0965 -0.7351
   82SOPE   C36 7551   4.419   3.252   5.306 -0.0184  0.7236  0.0476
   82SOPE   H6X 7552   4.428   3.318   5.217  0.3607  1.7430  0.8200
   82SOPE   H6Y 7553   4.328   3.268   5.367 -1.6806 -0.6257 -1.9480
   82SOPE   C37 7554   4.416   3.100   5.268 -0.4146 -0.0236  0.0421
   82SOPE   H7X 7555   4.424   3.043   5.363 -0.9530 -0.1797 -0.0021
   82SOPE   H7Y 7556   4.508   3.083   5.209  0.4011 -0.0825  1.3068
   82SOPE   C38 7557   4.284   3.053   5.205 -0.5536  0.2294 -0.4678
   82SOPE   H8X 7558   4.202   3.038   5.278  0.6978 -0.9989  0.7545
   82SOPE   H8Y 7559   4.305   2.947   5.181 -1.5043 -0.2132  0.5842
   82SOPE   C39 7560   4.247   3.132   5.084  0.0390 -0.4330  0.1202
   82SOPE   H9X 7561   4.331   3.132   5.011  0.2688  0.4988  0.3709
   82SOPE   H9Y 7562   4.243   3.241   5.105  1.1711  0.2764 -2.7975
   82SOPE  C310 7563   4.111   3.094   5.028  0.0731  0.3075  0.1974
   82SOPE  H10X 7564   4.034   3.145   5.089 -0.4393 -1.4969  1.1348
   82SOPE  H10Y 7565   4.101   2.983   5.030 -3.1169  0.5096  2.3149
   82SOPE  C311 7566   4.092   3.125   4.870 -0.1055  0.4660 -0.4985
   82SOPE  H11X 7567   3.982   3.118   4.857 -0.2044  3.9087 -2.7274
   82SOPE  H11Y 7568   4.147   3.047   4.813  1.1313 -2.3579  4.0322
   82SOPE  C312 7569   4.136   3.264   4.826 -0.0019  0.1566 -0.3559
   82SOPE  H12X 7570   4.237   3.271   4.780  1.0463 -1.7398  1.4712
   82SOPE  H12Y 7571   4.121   3.320   4.921  2.5641 -3.4839  2.4795
   82SOPE  C313 7572   4.046   3.322   4.707 -0.5643 -1.0611 -0.5476
   82SOPE  H13X 7573   4.072   3.428   4.685 -0.1817 -1.5119 -2.4066
   82SOPE  H13Y 7574   3.942   3.315   4.746 -0.5468 -1.9534 -0.6418
   82SOPE  C314 7575   4.028   3.223   4.587  0.2567  0.5111  0.1526
   82SOPE  H14X 7576   3.924   3.233   4.550  0.0510  1.0613  0.8578
   82SOPE  H14Y 7577   4.036   3.123   4.634  0.9196  0.1817 -0.6438
   82SOPE  C315 7578   4.129   3.240   4.479 -0.3828  0.1516  0.1140
   82SOPE  H15X 7579   4.231   3.253   4.519 -1.4501  1.8529  2.5000
   82SOPE  H15Y 7580   4.105   3.318   4.404  1.2266 -2.7934 -3.8351
   82SOPE  C316 7581   4.139   3.120   4.383 -0.1285  0.2169  0.5871
   82SOPE  H16X 7582   4.191   3.033   4.428 -0.6270  0.0470  0.8448
   82SOPE  H16Y 7583   4.208   3.142   4.298  0.7928  0.3009  1.3434
   82SOPE  C317 7584   4.003   3.086   4.326 -0.5084  0.3548  0.3507
   82SOPE  H17X 7585   3.933   3.076   4.411 -0.2058  1.2499  0.7146
   82SOPE  H17Y 7586   4.015   2.988   4.275  1.7443  0.6964  0.1034
   82SOPE  C318 7587   3.961   3.187   4.222  0.2577  0.5612 -0.5942
   82SOPE  H18X 7588   3.951   3.287   4.271 -1.3468 -1.0287  2.6282
   82SOPE  H18Y 7589   3.861   3.159   4.183 -0.2114  0.4727  0.6117
   82SOPE  H18Z 7590   4.036   3.179   4.140  2.5172 -2.0469  1.5533
   83SOPE     N 7591   4.225   3.753   1.598  0.4381  0.7741 -0.5401
   83SOPE   HN1 7592   4.144   3.806   1.635  0.8413 -0.0012  1.6290
   83SOPE   HN2 7593   4.306   3.769   1.661  0.7658 -2.2764 -0.0403
   83SOPE   HN3 7594   4.249   3.784   1.502 -1.6743 -0.4808 -1.5501
   83SOPE   C12 7595   4.190   3.610   1.622  0.1580 -0.1214  0.3329
   83SOPE  H12A 7596   4.281   3.548   1.605  0.3166 -0.2962  1.7071
   83SOPE  H12B 7597   4.113   3.578   1.548  0.2827 -1.2208  0.6580
   83SOPE   C11 7598   4.128   3.578   1.754 -0.1091 -0.4127 -0.5471
   83SOPE  H11A 7599   4.045   3.653   1.759  0.1528 -0.1675  0.3780
   83SOPE  H11B 7600   4.191   3.597   1.844 -0.4245 -3.1889  0.3638
   83SOPE     P 7601   4.095   3.339   1.868  0.0930  0.0702 -0.0245
   83SOPE   O13 7602   4.041   3.215   1.815  0.0931  0.6983  0.1521
   83SOPE   O14 7603   4.044   3.381   1.999  0.1835 -0.0066  0.1242
   83SOPE   O12 7604   4.065   3.450   1.763 -0.2358 -0.3592  0.0574
   83SOPE   O11 7605   4.254   3.337   1.859  0.5037  0.1487 -0.0590
   83SOPE    C1 7606   4.320   3.220   1.906  0.3803 -0.2467 -0.0175
   83SOPE    HA 7607   4.389   3.188   1.824 -0.0738  0.8327 -0.8452
   83SOPE    HB 7608   4.256   3.128   1.904  2.0825 -1.4991  0.8276
   83SOPE    C2 7609   4.385   3.239   2.046 -0.3974  0.1438  0.6589
   83SOPE    HS 7610   4.439   3.146   2.075  1.3929  0.9144 -0.0906
   83SOPE   O21 7611   4.296   3.272   2.159  0.2685 -0.0542  0.2856
   83SOPE   C21 7612   4.203   3.179   2.193 -0.5166  0.3981 -0.2052
   83SOPE   O22 7613   4.197   3.065   2.146  0.4028  0.6798  0.5244
   83SOPE   C22 7614   4.101   3.240   2.286  0.0774  0.0532 -0.5642
   83SOPE   H2R 7615   4.002   3.201   2.253 -1.2008 -0.0336  3.0177
   83SOPE   H2S 7616   4.109   3.350   2.272  3.5164 -0.2793 -2.4731
   83SOPE    C3 7617   4.493   3.351   2.039  0.3950 -0.5222  0.1968
   83SOPE    HX 7618   4.452   3.448   2.003 -0.1456 -0.4676  0.9230
   83SOPE    HY 7619   4.544   3.305   1.952 -0.0797  0.6961 -0.7464
   83SOPE   O31 7620   4.560   3.352   2.166  0.6256 -0.0440  0.2444
   83SOPE   C31 7621   4.678   3.291   2.176  0.1326  0.4419  0.8539
   83SOPE   O32 7622   4.732   3.227   2.084 -0.4103 -0.5997 -0.4512
   83SOPE   C32 7623   4.734   3.305   2.315  0.0575 -0.5806 -0.1176
   83SOPE   H2X 7624   4.696   3.396   2.366  0.3591 -1.1740  1.2061
   83SOPE   H2Y 7625   4.842   3.330   2.302 -0.6228  1.8362 -1.7766
   83SOPE   C23 7626   4.124   3.188   2.432  0.3224  0.8077 -0.1918
   83SOPE   H3R 7627   4.038   3.223   2.494 -0.8712 -1.2088 -0.6073
   83SOPE   H3S 7628   4.223   3.219   2.472 -0.7122  1.9955  1.6049
   83SOPE   C24 7629   4.116   3.030   2.438  0.1561  0.1138 -0.6130
   83SOPE   H4R 7630   4.035   2.989   2.375  1.7436 -3.1358 -0.7683
   83SOPE   H4S 7631   4.215   2.985   2.412  2.0842  2.4611  2.0105
   83SOPE   C25 7632   4.086   2.972   2.574 -0.1106  0.9183  0.0077
   83SOPE   H5R 7633   3.981   2.994   2.604 -0.1055 -0.7233  1.3869
   83SOPE   H5S 7634   4.098   2.862   2.565 -1.3227  0.8963 -1.7398
   83SOPE   C26 7635   4.179   3.022   2.688  0.0594 -0.0719 -0.4181
   83SOPE   H6R 7636   4.279   2.977   2.672  0.5015 -0.2066  2.3046
   83SOPE   H6S 7637   4.181   3.133   2.690  0.8871 -0.0743 -0.7800
   83SOPE   C27 7638   4.128   2.969   2.833  0.4216 -0.1682  0.2701
   83SOPE   H7R 7639   4.018   2.982   2.826  0.7114  1.7714 -1.7310
   83SOPE   H7S 7640   4.157   2.862   2.840  1.4583  0.1868  2.0099
   83SOPE   C28 7641   4.181   3.055   2.951  0.3808 -0.0447 -0.0441
   83SOPE   H8R 7642   4.291   3.051   2.963  0.3949  2.0814  1.0505
   83SOPE   H8S 7643   4.162   3.163   2.935  1.0160  0.0093 -0.4975
   83SOPE   C29 7644   4.126   3.011   3.079  0.5954 -0.6609 -0.6881
   83SOPE   H91 7645   4.042   2.941   3.067  0.1677 -0.6654  1.6776
   83SOPE  C210 7646   4.165   3.043   3.200 -0.2447 -0.0956 -0.1110
   83SOPE  H101 7647   4.111   2.987   3.277  1.2322 -0.4367  0.7105
   83SOPE  C211 7648   4.282   3.140   3.237 -0.1939  0.5869 -0.3453
   83SOPE  H11R 7649   4.246   3.223   3.301 -0.1537  1.5987 -1.6025
   83SOPE  H11S 7650   4.321   3.187   3.144 -1.4145  1.0979 -0.6131
   83SOPE  C212 7651   4.402   3.079   3.318 -0.1887 -0.1320  0.6802
   83SOPE  H12R 7652   4.461   3.160   3.365  1.3281 -1.1167  0.5310
   83SOPE  H12S 7653   4.474   3.037   3.245 -1.0299  1.9897 -1.5128
   83SOPE  C213 7654   4.370   3.004   3.449 -0.7141 -0.4430 -0.7786
   83SOPE  H13R 7655   4.315   2.911   3.425 -0.2978 -0.9196  0.0505
   83SOPE  H13S 7656   4.311   3.068   3.517  2.7618  0.9760  1.1588
   83SOPE  C214 7657   4.487   2.949   3.532  0.2798  0.1806  0.2391
   83SOPE  H14R 7658   4.557   3.028   3.569  1.9067 -0.2449 -1.7842
   83SOPE  H14S 7659   4.544   2.876   3.471 -1.0601 -0.8595  0.1761
   83SOPE  C215 7660   4.443   2.871   3.659  0.2866  0.0873  0.2395
   83SOPE  H15R 7661   4.525   2.817   3.710  0.6030  1.8044  1.6426
   83SOPE  H15S 7662   4.366   2.795   3.636 -0.9574  1.0574  1.1014
   83SOPE  C216 7663   4.388   2.958   3.771  0.0985  0.1464 -0.1159
   83SOPE  H16R 7664   4.305   3.024   3.735 -0.3526  0.3258  1.1947
   83SOPE  H16S 7665   4.456   3.038   3.806  0.8434 -0.0594 -1.0741
   83SOPE  C217 7666   4.314   2.879   3.886 -0.0272  0.8495  0.0358
   83SOPE  H17R 7667   4.383   2.818   3.948 -0.4527 -1.2503 -1.4558
   83SOPE  H17S 7668   4.243   2.813   3.833 -1.1235  0.8617  1.4051
   83SOPE  C218 7669   4.247   2.983   3.982 -0.2212  0.2376  0.6930
   83SOPE  H18R 7670   4.329   3.028   4.041  1.4160 -1.5692 -0.0950
   83SOPE  H18S 7671   4.173   2.939   4.052  0.4666  1.1797  2.0536
   83SOPE  H18T 7672   4.194   3.064   3.928  0.2299 -0.4780 -0.8934
   83SOPE   C33 7673   4.723   3.176   2.397 -0.4294 -0.5656  0.2280
   83SOPE   H3X 7674   4.791   3.182   2.485  2.2823  2.1518 -1.8490
   83SOPE   H3Y 7675   4.760   3.086   2.344 -1.8268 -0.1599 -1.5300
   83SOPE   C34 7676   4.576   3.155   2.453  0.5126 -0.1558 -0.0600
   83SOPE   H4X 7677   4.515   3.113   2.370  0.3535  0.8084 -0.4464
   83SOPE   H4Y 7678   4.539   3.254   2.489 -1.0308 -1.7213  3.0367
   83SOPE   C35 7679   4.552   3.061   2.566  0.3071 -0.1593  0.1742
   83SOPE   H5X 7680   4.545   2.956   2.531 -0.2679  0.2999 -1.1266
   83SOPE   H5Y 7681   4.451   3.084   2.605  0.4090  1.3628 -0.3997
   83SOPE   C36 7682   4.647   3.076   2.686 -0.9757 -0.2537 -0.1410
   83SOPE   H6X 7683   4.670   3.183   2.698 -0.1205 -0.6579  2.2320
   83SOPE   H6Y 7684   4.742   3.030   2.650 -1.1184 -0.8667  0.2454
   83SOPE   C37 7685   4.603   3.021   2.821  0.0641 -0.9310  0.1849
   83SOPE   H7X 7686   4.563   2.917   2.813  0.8189 -1.1226 -1.6659
   83SOPE   H7Y 7687   4.531   3.095   2.861  1.5182  1.5748 -1.5109
   83SOPE   C38 7688   4.733   3.019   2.906 -0.1937 -0.1481  0.1303
   83SOPE   H8X 7689   4.761   3.127   2.914  2.2504 -0.8580  2.9934
   83SOPE   H8Y 7690   4.803   2.969   2.837  0.7674  2.0287 -0.5618
   83SOPE   C39 7691   4.722   2.958   3.049  0.2535 -0.2452  0.1596
   83SOPE   H9X 7692   4.712   2.849   3.034  1.5881 -0.4507  0.6642
   83SOPE   H9Y 7693   4.630   2.995   3.099  1.4961  0.1621  2.2561
   83SOPE  C310 7694   4.849   2.971   3.128 -0.0050 -0.3717  0.3979
   83SOPE  H10X 7695   4.871   3.080   3.136  0.0857 -0.2538 -1.1372
   83SOPE  H10Y 7696   4.931   2.921   3.073 -0.0688  1.0148 -1.0145
   83SOPE  C311 7697   4.817   2.920   3.264 -0.4688  0.0554 -0.4796
   83SOPE  H11X 7698   4.756   2.828   3.256  0.0183 -0.4248  0.9987
   83SOPE  H11Y 7699   4.759   2.991   3.326 -0.2039 -1.9603  2.2925
   83SOPE  C312 7700   4.947   2.907   3.346  0.4697  0.1866  0.3165
   83SOPE  H12X 7701   5.000   3.004   3.352  3.2951 -1.1730 -0.6035
   83SOPE  H12Y 7702   5.016   2.840   3.289  0.2096  1.1842 -1.2219
   83SOPE  C313 7703   4.930   2.853   3.490 -0.6068  0.7362  1.0347
   83SOPE  H13X 7704   5.033   2.842   3.530 -0.0306  3.9465  0.7050
   83SOPE  H13Y 7705   4.879   2.754   3.496 -0.6436  0.7054  0.2960
   83SOPE  C314 7706   4.854   2.957   3.578  0.2303 -0.4585 -0.0385
   83SOPE  H14X 7707   4.748   2.974   3.547  0.5765 -0.0912 -1.0504
   83SOPE  H14Y 7708   4.911   3.049   3.556 -0.6742  0.3529  0.8968
   83SOPE  C315 7709   4.864   2.928   3.726 -0.6477 -0.2441  0.9220
   83SOPE  H15X 7710   4.964   2.935   3.773  0.1929 -1.3086 -0.5817
   83SOPE  H15Y 7711   4.814   2.832   3.752 -1.2328  0.2161  1.5142
   83SOPE  C316 7712   4.778   3.025   3.808  0.7755 -0.4105  0.5595
   83SOPE  H16X 7713   4.676   3.031   3.764  0.9412 -0.3521  0.1826
   83SOPE  H16Y 7714   4.822   3.123   3.780 -0.7341  0.4028  0.9491
   83SOPE  C317 7715   4.761   3.000   3.959  0.2935  0.4598 -0.0086
   83SOPE  H17X 7716   4.860   3.010   4.009  0.6454  0.6520 -0.7255
   83SOPE  H17Y 7717   4.722   2.898   3.977 -0.3779  1.2248  3.4337
   83SOPE  C318 7718   4.665   3.098   4.022  0.1473 -0.4615  0.0662
   83SOPE  H18X 7719   4.699   3.203   4.016  0.2599 -0.5394 -0.6739
   83SOPE  H18Y 7720   4.653   3.075   4.131 -0.3419 -0.7201 -0.0401
   83SOPE  H18Z 7721   4.570   3.093   3.966 -0.2805  1.8655  0.5021
   84SOPE     N 7722   2.387   1.292   1.490  0.1653 -0.9080  0.3832
   84SOPE   HN1 7723   2.463   1.341   1.540 -1.2587 -0.3810  2.1655
   84SOPE   HN2 7724   2.416   1.259   1.396  0.5997  0.6223 -0.0405
   84SOPE   HN3 7725   2.325   1.374   1.475  1.8231 -0.1669 -3.7928
   84SOPE   C12 7726   2.323   1.187   1.575  0.1717 -0.0315  0.1408
   84SOPE  H12A 7727   2.392   1.101   1.584 -1.2171 -1.1157  0.9366
   84SOPE  H12B 7728   2.230   1.155   1.523 -0.4279  0.2918  1.0023
   84SOPE   C11 7729   2.293   1.249   1.713 -0.4168  0.4362  1.1389
   84SOPE  H11A 7730   2.228   1.176   1.766  2.3054 -3.0069  0.0936
   84SOPE  H11B 7731   2.255   1.353   1.709  2.9802  1.7716 -0.0534
   84SOPE     P 7732   2.459   1.146   1.883 -0.1877 -0.7555 -0.0060
   84SOPE   O13 7733   2.590   1.187   1.948  0.0094  0.0445 -0.5679
   84SOPE   O14 7734   2.451   1.017   1.826  0.4150 -0.0362  0.0345
   84SOPE   O12 7735   2.423   1.256   1.774  0.2693  0.1945  0.9114
   84SOPE   O11 7736   2.342   1.165   1.989 -0.1633 -0.4258  0.0478
   84SOPE    C1 7737   2.329   1.278   2.077  0.1582 -0.0361  0.0805
   84SOPE    HA 7738   2.296   1.366   2.017  2.2522  0.6509 -0.1503
   84SOPE    HB 7739   2.426   1.317   2.115  0.0553  1.7323 -1.3219
   84SOPE    C2 7740   2.215   1.253   2.191  0.6762  0.3454 -0.1686
   84SOPE    HS 7741   2.221   1.352   2.241  0.3960  0.2014  0.1460
   84SOPE   O21 7742   2.252   1.150   2.279  0.4133 -0.1255  0.1719
   84SOPE   C21 7743   2.370   1.157   2.336 -0.0101 -0.7214  0.7244
   84SOPE   O22 7744   2.446   1.251   2.337 -0.7064 -0.0174  0.4640
   84SOPE   C22 7745   2.395   1.021   2.411  0.4575 -0.1061 -0.6078
   84SOPE   H2R 7746   2.365   0.944   2.337 -0.9447 -0.5203  0.3503
   84SOPE   H2S 7747   2.319   1.008   2.491 -0.8774 -1.8228 -2.0866
   84SOPE    C3 7748   2.073   1.216   2.131 -0.2855  0.5206  0.2943
   84SOPE    HX 7749   2.109   1.142   2.057  0.9163  2.3436 -1.0453
   84SOPE    HY 7750   2.029   1.287   2.058  2.2076  1.9401  0.0268
   84SOPE   O31 7751   1.986   1.149   2.219 -0.0619  0.2982 -0.7680
   84SOPE   C31 7752   1.891   1.235   2.252 -0.7045  0.2782 -0.0761
   84SOPE   O32 7753   1.877   1.343   2.200  0.5892  0.3525  0.4017
   84SOPE   C32 7754   1.807   1.177   2.366  0.4365 -0.9239 -0.3755
   84SOPE   H2X 7755   1.803   1.066   2.361 -0.9253 -0.9223  0.2811
   84SOPE   H2Y 7756   1.705   1.204   2.331 -0.9145 -3.3582  1.3818
   84SOPE   C23 7757   2.546   1.017   2.476 -0.3522  0.1870 -1.3852
   84SOPE   H3R 7758   2.620   1.059   2.405  0.2741  0.1575 -0.7690
   84SOPE   H3S 7759   2.571   0.913   2.506 -1.1075  0.8478  1.9316
   84SOPE   C24 7760   2.552   1.103   2.606  0.6664 -0.3443  0.6540
   84SOPE   H4R 7761   2.514   1.207   2.594 -2.3853 -1.0950  2.7004
   84SOPE   H4S 7762   2.476   1.054   2.671  0.9511 -0.1879  1.1104
   84SOPE   C25 7763   2.678   1.092   2.683 -0.6452  0.3147 -0.1136
   84SOPE   H5R 7764   2.695   0.987   2.713  0.9007  1.3817  3.2522
   84SOPE   H5S 7765   2.771   1.118   2.628  1.1476 -2.4068  1.3852
   84SOPE   C26 7766   2.680   1.183   2.809 -0.1938  0.1925 -0.5961
   84SOPE   H6R 7767   2.706   1.288   2.785  0.4183  0.0879 -0.4075
   84SOPE   H6S 7768   2.583   1.179   2.863 -0.7534  2.1064 -1.3859
   84SOPE   C27 7769   2.782   1.135   2.917 -0.3150  0.4079  0.1668
   84SOPE   H7R 7770   2.748   1.038   2.958 -0.9896  1.2469  1.6684
   84SOPE   H7S 7771   2.879   1.113   2.868 -0.9382 -0.5787 -0.6675
   84SOPE   C28 7772   2.809   1.240   3.024 -0.2717  0.3906 -0.4758
   84SOPE   H8R 7773   2.897   1.210   3.085  0.0260  1.7736 -0.1834
   84SOPE   H8S 7774   2.853   1.334   2.983 -0.5156  0.6785 -0.0855
   84SOPE   C29 7775   2.693   1.269   3.114  0.1288 -0.4479 -0.1933
   84SOPE   H91 7776   2.597   1.269   3.061 -0.1682  0.6634  0.3120
   84SOPE  C210 7777   2.693   1.293   3.244  0.1052 -0.4133  0.3656
   84SOPE  H101 7778   2.603   1.301   3.307  1.9057 -0.8807  3.1857
   84SOPE  C211 7779   2.818   1.300   3.327  0.1577  0.3441 -0.4856
   84SOPE  H11R 7780   2.828   1.396   3.382 -1.8743  0.3850 -0.1308
   84SOPE  H11S 7781   2.912   1.297   3.267  1.1244 -1.2599  0.9879
   84SOPE  C212 7782   2.828   1.193   3.445 -0.0699 -0.4646  0.5742
   84SOPE  H12R 7783   2.856   1.092   3.409 -1.7382 -1.3203  1.5309
   84SOPE  H12S 7784   2.727   1.165   3.483  0.3687 -3.9480 -0.4623
   84SOPE  C213 7785   2.921   1.239   3.553 -0.1191 -0.2471 -0.5202
   84SOPE  H13R 7786   2.995   1.312   3.514  1.4890 -0.7566  1.4193
   84SOPE  H13S 7787   2.971   1.144   3.582 -2.8005 -2.1503 -1.7205
   84SOPE  C214 7788   2.858   1.299   3.682 -0.8856  0.0630  0.2557
   84SOPE  H14R 7789   2.764   1.240   3.696 -1.7656  1.4989  0.6353
   84SOPE  H14S 7790   2.823   1.401   3.655  1.5080  0.9036  0.1691
   84SOPE  C215 7791   2.959   1.301   3.797 -0.9046  0.0390  0.2090
   84SOPE  H15R 7792   3.008   1.202   3.806  0.8813  0.8078 -0.6548
   84SOPE  H15S 7793   2.899   1.312   3.890 -1.8849 -0.5033 -0.3535
   84SOPE  C216 7794   3.060   1.415   3.798  0.0243  0.1365 -0.5751
   84SOPE  H16R 7795   3.012   1.515   3.795  0.3386  0.2812 -0.9260
   84SOPE  H16S 7796   3.125   1.410   3.708  0.1695 -0.0014 -0.4602
   84SOPE  C217 7797   3.152   1.415   3.928 -0.5578 -0.8670  0.8536
   84SOPE  H17R 7798   3.201   1.318   3.949  0.3134 -0.0312  3.0287
   84SOPE  H17S 7799   3.083   1.440   4.012 -1.4884  0.8134 -0.3286
   84SOPE  C218 7800   3.261   1.523   3.930  0.3329 -0.1315 -0.6685
   84SOPE  H18R 7801   3.322   1.533   4.023 -0.4440  1.6244 -0.3167
   84SOPE  H18S 7802   3.214   1.620   3.905  1.7017  0.1414 -2.4059
   84SOPE  H18T 7803   3.325   1.499   3.843  1.2244  0.1893 -0.1157
   84SOPE   C33 7804   1.848   1.239   2.500 -0.5797 -0.1488  0.7685
   84SOPE   H3X 7805   1.802   1.341   2.506  2.1943  1.2234  0.4441
   84SOPE   H3Y 7806   1.958   1.252   2.505 -0.4659 -0.9661  0.4459
   84SOPE   C34 7807   1.815   1.157   2.626 -0.1991 -0.5896  0.0297
   84SOPE   H4X 7808   1.868   1.060   2.634 -0.3371 -0.8570 -1.8691
   84SOPE   H4Y 7809   1.708   1.129   2.624 -0.9051  1.8560 -2.8808
   84SOPE   C35 7810   1.823   1.238   2.753 -0.7551 -0.5688  0.1810
   84SOPE   H5X 7811   1.786   1.343   2.755  0.5280 -0.0838 -0.1226
   84SOPE   H5Y 7812   1.931   1.241   2.781 -0.8396 -1.4024  0.6146
   84SOPE   C36 7813   1.757   1.162   2.862 -0.0555 -0.3591 -0.5828
   84SOPE   H6X 7814   1.787   1.056   2.854  2.7665  0.4615 -2.5398
   84SOPE   H6Y 7815   1.647   1.176   2.857  0.0716  2.2952  1.4829
   84SOPE   C37 7816   1.810   1.221   2.993  0.2704  0.3459 -0.6553
   84SOPE   H7X 7817   1.802   1.330   2.970 -0.7829 -0.2142 -3.3279
   84SOPE   H7Y 7818   1.917   1.196   3.010  0.0596 -1.2120 -1.3916
   84SOPE   C38 7819   1.731   1.184   3.122  0.1720  0.6408  0.0433
   84SOPE   H8X 7820   1.742   1.077   3.151  0.4071  0.9615  1.1839
   84SOPE   H8Y 7821   1.622   1.190   3.100 -0.4535 -3.7826  0.8807
   84SOPE   C39 7822   1.757   1.281   3.231  0.9135  0.4309 -0.1185
   84SOPE   H9X 7823   1.721   1.373   3.182  0.8712 -0.7770 -2.4736
   84SOPE   H9Y 7824   1.867   1.283   3.251  0.6794 -1.9485  2.1041
   84SOPE  C310 7825   1.679   1.252   3.365  0.8076 -0.1810 -0.0460
   84SOPE  H10X 7826   1.574   1.287   3.352  1.0831  0.2514 -1.2939
   84SOPE  H10Y 7827   1.724   1.314   3.446 -0.9090 -0.1665  0.9368
   84SOPE  C311 7828   1.693   1.108   3.413 -0.0104  0.1024 -0.2912
   84SOPE  H11X 7829   1.801   1.085   3.402  0.2830  1.0399  0.4316
   84SOPE  H11Y 7830   1.634   1.053   3.336 -2.1883 -0.3144  1.5663
   84SOPE  C312 7831   1.635   1.083   3.554 -0.5048 -0.3090  0.1223
   84SOPE  H12X 7832   1.612   0.975   3.558  0.7542 -0.6167 -0.6171
   84SOPE  H12Y 7833   1.548   1.152   3.568  0.5975  1.0836  0.3838
   84SOPE  C313 7834   1.741   1.110   3.663  0.1660  0.3736  0.5436
   84SOPE  H13X 7835   1.689   1.104   3.761  0.4653  0.3228  0.6998
   84SOPE  H13Y 7836   1.791   1.209   3.666  0.0151  0.4443  0.7927
   84SOPE  C314 7837   1.856   1.005   3.674  0.2245 -0.2800 -0.4858
   84SOPE  H14X 7838   1.940   1.047   3.614  0.6789 -0.4238  0.0455
   84SOPE  H14Y 7839   1.832   0.901   3.640  0.9797 -0.8427  0.6405
   84SOPE  C315 7840   1.908   0.988   3.819 -0.9677 -0.5624  0.0155
   84SOPE  H15X 7841   2.005   0.935   3.812 -0.5884  0.0790  0.3243
   84SOPE  H15Y 7842   1.845   0.915   3.875  0.3168 -1.2268  0.6191
   84SOPE  C316 7843   1.932   1.119   3.890 -0.3540  0.1742 -0.2211
   84SOPE  H16X 7844   1.845   1.188   3.880 -1.1099 -0.5838  0.8538
   84SOPE  H16Y 7845   2.008   1.179   3.837 -1.1068 -0.4351 -2.1011
   84SOPE  C317 7846   1.981   1.095   4.037  0.2929 -0.2941 -0.0809
   84SOPE  H17X 7847   2.066   1.022   4.034 -1.7162 -2.8127  0.3464
   84SOPE  H17Y 7848   1.895   1.054   4.094  1.0390 -0.0620  1.2632
   84SOPE  C318 7849   2.024   1.221   4.115  0.3639 -0.1743  0.0761
   84SOPE  H18X 7850   2.072   1.204   4.214  1.6675  0.4323 -0.4245
   84SOPE  H18Y 7851   1.943   1.297   4.118  1.4677  1.0801 -0.9042
   84SOPE  H18Z 7852   2.091   1.281   4.050  0.4341  0.6089  0.8590
   85SOPE     N 7853   6.728   4.791   1.729 -0.0431 -0.2425 -0.0013
   85SOPE   HN1 7854   6.806   4.838   1.678  1.4761 -3.1187 -0.5603
   85SOPE   HN2 7855   6.705   4.701   1.682 -0.0807 -0.5396  0.5698
   85SOPE   HN3 7856   6.651   4.861   1.731 -0.8041 -0.9481 -2.1258
   85SOPE   C12 7857   6.757   4.766   1.876 -0.3293  0.0788 -0.6223
   85SOPE  H12A 7858   6.672   4.718   1.928 -0.9456  2.1440  0.3879
   85SOPE  H12B 7859   6.775   4.863   1.928  0.3626 -0.4926  0.2305
   85SOPE   C11 7860   6.876   4.673   1.891  0.1200  0.7237 -0.1065
   85SOPE  H11A 7861   6.841   4.577   1.847 -1.6019 -1.3148  4.8969
   85SOPE  H11B 7862   6.881   4.654   2.001 -1.3386  0.9535  0.0184
   85SOPE     P 7863   7.074   4.847   1.909  0.3801 -0.2743  0.3184
   85SOPE   O13 7864   7.008   4.973   1.853  0.1540  0.0079 -0.2213
   85SOPE   O14 7865   7.221   4.832   1.899 -0.0648 -0.2106 -0.3042
   85SOPE   O12 7866   7.001   4.722   1.840  0.1466 -0.3900  0.0129
   85SOPE   O11 7867   7.034   4.840   2.064  0.4376 -0.0133 -0.3401
   85SOPE    C1 7868   7.075   4.724   2.139  0.5804 -0.6781 -0.2085
   85SOPE    HA 7869   7.143   4.656   2.084  1.4749  0.6554 -0.8149
   85SOPE    HB 7870   6.988   4.662   2.167  0.7244 -0.0908  1.6372
   85SOPE    C2 7871   7.145   4.755   2.280  0.0489 -0.0899  0.9115
   85SOPE    HS 7872   7.152   4.662   2.340 -0.7769 -1.9225 -1.6510
   85SOPE   O21 7873   7.065   4.854   2.353 -0.2765 -0.5541 -0.1823
   85SOPE   C21 7874   7.005   4.819   2.466 -0.4124  0.0426 -0.1712
   85SOPE   O22 7875   6.983   4.705   2.502 -0.9732  0.7966  0.5524
   85SOPE   C22 7876   6.963   4.950   2.537 -0.7305 -0.7504 -0.1594
   85SOPE   H2R 7877   6.908   5.019   2.470 -1.2349  0.3697  1.3577
   85SOPE   H2S 7878   7.057   5.005   2.560 -1.0115  0.2006 -1.2023
   85SOPE    C3 7879   7.292   4.813   2.248 -0.0781 -0.2011 -0.4468
   85SOPE    HX 7880   7.280   4.895   2.174  0.9594  0.9616  0.6375
   85SOPE    HY 7881   7.343   4.726   2.201 -1.3914 -1.0367 -0.3799
   85SOPE   O31 7882   7.366   4.849   2.367  0.9005  0.4909 -1.2403
   85SOPE   C31 7883   7.349   4.967   2.414 -0.2682  0.3157  0.1879
   85SOPE   O32 7884   7.284   5.057   2.367  0.3518 -0.2283  0.0041
   85SOPE   C32 7885   7.443   4.980   2.539  0.1543 -0.4802  0.2247
   85SOPE   H2X 7886   7.545   4.955   2.503 -0.3475  0.8253 -2.2717
   85SOPE   H2Y 7887   7.415   4.914   2.624 -0.0899  0.9822  1.3257
   85SOPE   C23 7888   6.872   4.921   2.661  0.3765  0.5884  0.3735
   85SOPE   H3R 7889   6.936   4.869   2.735  0.9749  1.6506  0.6353
   85SOPE   H3S 7890   6.799   4.846   2.624  0.5525  0.7063 -0.2221
   85SOPE   C24 7891   6.796   5.047   2.702  0.2123  0.0702  0.1005
   85SOPE   H4R 7892   6.870   5.121   2.740 -0.2078  1.2098 -1.2045
   85SOPE   H4S 7893   6.765   5.090   2.604  0.2294  1.0253  0.5039
   85SOPE   C25 7894   6.670   5.021   2.795 -0.4790 -0.6027  0.8365
   85SOPE   H5R 7895   6.602   5.105   2.772  1.7328  1.0568  0.0043
   85SOPE   H5S 7896   6.602   4.935   2.774 -1.6653 -0.0416  2.2301
   85SOPE   C26 7897   6.705   5.005   2.939 -0.3073  0.0447 -0.2885
   85SOPE   H6R 7898   6.778   4.926   2.966 -2.1881 -1.0069  2.0374
   85SOPE   H6S 7899   6.763   5.097   2.964 -0.3559  0.3865 -1.3618
   85SOPE   C27 7900   6.587   4.988   3.029  0.9928 -0.5100 -0.3050
   85SOPE   H7R 7901   6.502   5.050   2.994  1.7237  0.4664 -0.4229
   85SOPE   H7S 7902   6.558   4.881   3.036  0.1973 -0.3000 -0.2463
   85SOPE   C28 7903   6.600   5.023   3.178 -0.6827  0.6844 -0.7237
   85SOPE   H8R 7904   6.509   4.990   3.233 -1.6732  1.1316 -2.0593
   85SOPE   H8S 7905   6.697   4.976   3.206 -1.1570  0.8922  1.4597
   85SOPE   C29 7906   6.607   5.168   3.218  0.9537  0.0744  0.4292
   85SOPE   H91 7907   6.549   5.224   3.143  0.1016  1.1207  1.8258
   85SOPE  C210 7908   6.683   5.223   3.313 -0.0700 -0.0293 -0.2829
   85SOPE  H101 7909   6.670   5.329   3.338  0.5644 -0.4255  1.9484
   85SOPE  C211 7910   6.769   5.143   3.417  0.1027 -0.1315 -0.6925
   85SOPE  H11R 7911   6.877   5.168   3.412 -0.0900  0.5697 -2.3873
   85SOPE  H11S 7912   6.770   5.032   3.410 -0.6173 -0.4687  2.7867
   85SOPE  C212 7913   6.717   5.181   3.561  0.7066  0.5751  0.9346
   85SOPE  H12R 7914   6.608   5.163   3.558  1.1276 -2.4075 -2.5817
   85SOPE  H12S 7915   6.749   5.288   3.568 -1.7022  1.5751 -1.5771
   85SOPE  C213 7916   6.777   5.108   3.678 -0.8631 -0.0633 -0.3479
   85SOPE  H13R 7917   6.887   5.125   3.689 -0.7938 -1.5208  2.0519
   85SOPE  H13S 7918   6.769   5.001   3.652  1.3408 -0.5446  0.7165
   85SOPE  C214 7919   6.713   5.153   3.810  0.2975  0.4503  0.1580
   85SOPE  H14R 7920   6.604   5.162   3.793 -0.0429  0.7129  2.2286
   85SOPE  H14S 7921   6.751   5.254   3.837 -1.1668  1.0106  0.1916
   85SOPE  C215 7922   6.734   5.052   3.925 -0.1016 -0.6000  0.3194
   85SOPE  H15R 7923   6.845   5.047   3.928  0.0925  0.2663 -2.6005
   85SOPE  H15S 7924   6.694   4.954   3.890  1.0523 -0.7218 -0.7362
   85SOPE  C216 7925   6.667   5.082   4.061 -0.1191 -0.0898  0.0671
   85SOPE  H16R 7926   6.557   5.070   4.048 -0.0395  0.7700 -1.5460
   85SOPE  H16S 7927   6.695   5.186   4.088 -1.8281  0.4450 -0.0826
   85SOPE  C217 7928   6.724   4.977   4.162 -0.3432 -0.9094 -0.1204
   85SOPE  H17R 7929   6.828   5.012   4.182 -0.7611  0.0784  0.4321
   85SOPE  H17S 7930   6.724   4.878   4.111 -0.8574 -0.5771 -0.7834
   85SOPE  C218 7931   6.657   4.966   4.300 -0.4002 -0.1784  0.4971
   85SOPE  H18R 7932   6.702   4.879   4.353  0.1894  0.6414  1.3651
   85SOPE  H18S 7933   6.550   4.947   4.279 -0.0786 -0.5617 -0.9195
   85SOPE  H18T 7934   6.668   5.058   4.360 -0.9153  0.1742  0.0556
   85SOPE   C33 7935   7.450   5.127   2.591  0.5769 -0.6865 -0.1058
   85SOPE   H3X 7936   7.352   5.178   2.606  2.8408  3.8419  1.0168
   85SOPE   H3Y 7937   7.509   5.187   2.519  1.0523 -0.5947  0.3640
   85SOPE   C34 7938   7.521   5.137   2.725  0.0676  0.4348 -0.0863
   85SOPE   H4X 7939   7.626   5.109   2.702 -0.1905 -0.6080 -0.0211
   85SOPE   H4Y 7940   7.485   5.051   2.786  0.3670 -0.5867 -1.3223
   85SOPE   C35 7941   7.516   5.276   2.794  0.0776  0.6559  0.2285
   85SOPE   H5X 7942   7.407   5.291   2.809 -0.7339 -1.6398 -2.5831
   85SOPE   H5Y 7943   7.560   5.355   2.729 -0.2663  1.0342  0.4525
   85SOPE   C36 7944   7.601   5.281   2.924  0.0262 -0.1728 -1.0252
   85SOPE   H6X 7945   7.706   5.303   2.897 -0.2263 -0.8434 -2.7186
   85SOPE   H6Y 7946   7.586   5.186   2.979  1.3733  0.3565  0.3133
   85SOPE   C37 7947   7.560   5.394   3.021  0.2666  0.0102  0.1031
   85SOPE   H7X 7948   7.449   5.384   3.026 -0.0421  0.6281 -3.1851
   85SOPE   H7Y 7949   7.597   5.489   2.976 -0.2839  0.2683  0.1906
   85SOPE   C38 7950   7.616   5.358   3.156  0.7119  0.0408  0.7310
   85SOPE   H8X 7951   7.726   5.347   3.161  0.8354  0.3325 -0.8860
   85SOPE   H8Y 7952   7.569   5.260   3.181 -2.2216  1.8036  2.8546
   85SOPE   C39 7953   7.559   5.438   3.270 -0.3868 -0.3850 -0.5444
   85SOPE   H9X 7954   7.450   5.456   3.262 -0.3276 -0.7417 -2.7953
   85SOPE   H9Y 7955   7.613   5.535   3.270 -0.1160 -0.5015 -2.3151
   85SOPE  C310 7956   7.570   5.366   3.410 -0.9582 -0.0693  0.0225
   85SOPE  H10X 7957   7.668   5.313   3.412 -0.6640  0.2551 -2.6041
   85SOPE  H10Y 7958   7.487   5.293   3.423  0.2789 -1.5455 -0.0509
   85SOPE  C311 7959   7.581   5.460   3.525  0.0389 -0.5203  0.3321
   85SOPE  H11X 7960   7.481   5.507   3.520  0.8477  1.1821 -0.3910
   85SOPE  H11Y 7961   7.655   5.543   3.525  0.2089 -0.6162 -2.1017
   85SOPE  C312 7962   7.598   5.373   3.651 -0.0618 -0.0148 -0.0530
   85SOPE  H12X 7963   7.707   5.354   3.652 -0.3097 -2.0792  3.1901
   85SOPE  H12Y 7964   7.531   5.285   3.646  0.2963 -0.2766 -0.2284
   85SOPE  C313 7965   7.569   5.458   3.783 -0.3477  0.5049 -0.2210
   85SOPE  H13X 7966   7.462   5.488   3.785 -0.7225 -0.7264 -0.7784
   85SOPE  H13Y 7967   7.632   5.550   3.783  0.8383 -0.2907 -0.2211
   85SOPE  C314 7968   7.582   5.363   3.909  0.2490 -0.2687 -0.0361
   85SOPE  H14X 7969   7.684   5.318   3.906  1.2424  1.8609  0.2062
   85SOPE  H14Y 7970   7.511   5.278   3.899 -1.2430  0.9205  0.1618
   85SOPE  C315 7971   7.563   5.433   4.045 -0.1462  0.4972 -0.6213
   85SOPE  H15X 7972   7.486   5.512   4.040  3.0254  3.9920  0.6007
   85SOPE  H15Y 7973   7.647   5.504   4.064 -0.4771  1.2150 -1.7387
   85SOPE  C316 7974   7.551   5.333   4.168 -0.3561 -1.0454  0.2916
   85SOPE  H16X 7975   7.644   5.273   4.172  1.1653  1.2028  0.7495
   85SOPE  H16Y 7976   7.462   5.282   4.126 -0.4843  0.9306 -2.0897
   85SOPE  C317 7977   7.530   5.398   4.307  0.2145  0.2023  0.2359
   85SOPE  H17X 7978   7.432   5.450   4.302 -0.6821 -1.3874  0.6017
   85SOPE  H17Y 7979   7.618   5.463   4.328  0.9976 -0.8454  0.3163
   85SOPE  C318 7980   7.501   5.294   4.414 -0.5433  0.4374 -0.2112
   85SOPE  H18X 7981   7.570   5.207   4.407  0.7213  1.3097  0.8250
   85SOPE  H18Y 7982   7.399   5.249   4.415 -0.3901 -0.1713  3.3447
   85SOPE  H18Z 7983   7.511   5.342   4.514  0.7312  1.7836 -0.9583
   86SOPE     N 7984   0.162   6.561   2.392 -0.4162 -0.2164 -0.5198
   86SOPE   HN1 7985   0.195   6.479   2.337  1.1521 -0.6971  1.0262
   86SOPE   HN2 7986   0.090   6.531   2.462 -0.4764 -0.2044 -0.5757
   86SOPE   HN3 7987   0.112   6.618   2.321 -1.1225  2.3480  1.8461
   86SOPE   C12 7988   0.290   6.619   2.453 -0.6614 -0.5947 -0.2852
   86SOPE  H12A 7989   0.330   6.543   2.523 -0.1529  0.6818  0.8519
   86SOPE  H12B 7990   0.264   6.704   2.519  1.0934 -0.7237  0.6274
   86SOPE   C11 7991   0.391   6.680   2.352  0.3708 -0.5675  0.8206
   86SOPE  H11A 7992   0.471   6.740   2.400 -0.3405  2.1373 -1.1160
   86SOPE  H11B 7993   0.333   6.764   2.308 -0.4417 -2.3985 -1.8410
   86SOPE     P 7994   0.544   6.476   2.300 -0.5616  0.0621  0.3572
   86SOPE   O13 7995   0.670   6.498   2.236 -0.7461 -0.4438 -0.3751
   86SOPE   O14 7996   0.477   6.344   2.274 -0.3142 -0.2469  0.1162
   86SOPE   O12 7997   0.446   6.592   2.255  1.0660  0.2126  0.2615
   86SOPE   O11 7998   0.562   6.498   2.461  0.1619 -0.4783 -0.4092
   86SOPE    C1 7999   0.678   6.443   2.524  0.7877  0.1907  0.1413
   86SOPE    HA 8000   0.771   6.460   2.466 -0.0855 -1.0845 -1.7228
   86SOPE    HB 8001   0.657   6.337   2.548 -3.3335  0.4505 -1.4513
   86SOPE    C2 8002   0.706   6.517   2.660  0.1197  0.1037  0.4530
   86SOPE    HS 8003   0.813   6.548   2.657 -0.4764  2.2468 -2.3201
   86SOPE   O21 8004   0.673   6.427   2.763 -0.0851  0.2758  0.5787
   86SOPE   C21 8005   0.738   6.424   2.871  0.5868  0.6991  0.3643
   86SOPE   O22 8006   0.828   6.500   2.906  0.0508  0.3508  0.0578
   86SOPE   C22 8007   0.690   6.307   2.955 -0.2237  0.6431 -0.4837
   86SOPE   H2R 8008   0.702   6.226   2.880  3.6743 -0.8869  1.5310
   86SOPE   H2S 8009   0.585   6.310   2.992 -0.2854  0.4472 -0.6370
   86SOPE    C3 8010   0.621   6.651   2.681  0.5042 -0.1654 -0.2001
   86SOPE    HX 8011   0.516   6.620   2.665  0.2332  0.3608  0.5396
   86SOPE    HY 8012   0.638   6.721   2.596 -1.3350 -0.1862 -0.6255
   86SOPE   O31 8013   0.638   6.714   2.812 -0.0520  0.0189  0.1744
   86SOPE   C31 8014   0.722   6.819   2.812  0.0704  0.4306  0.7806
   86SOPE   O32 8015   0.773   6.866   2.714  0.0921 -0.3095  0.3829
   86SOPE   C32 8016   0.739   6.885   2.943  0.2690  0.2401 -0.2708
   86SOPE   H2X 8017   0.657   6.956   2.964  1.4034  1.0685  1.6852
   86SOPE   H2Y 8018   0.837   6.937   2.955 -0.5067  1.3537  1.6418
   86SOPE   C23 8019   0.784   6.274   3.079 -0.5020 -0.5290 -0.2868
   86SOPE   H3R 8020   0.890   6.280   3.047 -0.6502 -3.1129 -1.5243
   86SOPE   H3S 8021   0.762   6.170   3.111 -0.1172 -0.2722  0.8819
   86SOPE   C24 8022   0.759   6.358   3.205  0.2903  0.1910  0.3005
   86SOPE   H4R 8023   0.823   6.448   3.202  0.6609 -0.1008 -2.0115
   86SOPE   H4S 8024   0.662   6.411   3.198 -0.6756 -1.4608  0.5544
   86SOPE   C25 8025   0.782   6.291   3.339 -0.1174  0.1809 -0.3707
   86SOPE   H5R 8026   0.691   6.232   3.363 -0.9150  1.1103 -1.0168
   86SOPE   H5S 8027   0.867   6.219   3.337 -0.3840 -0.1342 -0.4789
   86SOPE   C26 8028   0.811   6.395   3.455 -0.4389 -0.6394  0.1756
   86SOPE   H6R 8029   0.895   6.461   3.420 -1.2678 -0.1898 -1.0536
   86SOPE   H6S 8030   0.727   6.458   3.490  0.5788 -0.9364  3.4279
   86SOPE   C27 8031   0.869   6.331   3.583 -0.1132  0.1086  0.1292
   86SOPE   H7R 8032   0.952   6.262   3.556 -0.4004 -0.3245  0.3491
   86SOPE   H7S 8033   0.910   6.412   3.647  0.7534 -0.2535  0.0401
   86SOPE   C28 8034   0.763   6.265   3.667 -1.2507 -0.2246  0.1661
   86SOPE   H8R 8035   0.692   6.346   3.696 -0.1994  0.3082  1.3623
   86SOPE   H8S 8036   0.715   6.194   3.597  2.1654 -2.0460 -0.5342
   86SOPE   C29 8037   0.822   6.195   3.794 -0.2357  0.0938  0.0376
   86SOPE   H91 8038   0.897   6.117   3.778  0.2133  1.1209 -3.8369
   86SOPE  C210 8039   0.791   6.224   3.924  0.0848 -0.0462 -0.1963
   86SOPE  H101 8040   0.844   6.175   4.007 -2.0148  2.3131  2.7827
   86SOPE  C211 8041   0.698   6.326   3.982 -0.7332  0.0094 -0.2846
   86SOPE  H11R 8042   0.608   6.327   3.916  0.4918  0.8001 -2.0182
   86SOPE  H11S 8043   0.752   6.423   3.983  1.4635 -1.0044  4.2657
   86SOPE  C212 8044   0.652   6.290   4.123 -0.3264 -0.5756  0.1665
   86SOPE  H12R 8045   0.742   6.286   4.189  1.5114  1.9234 -1.9570
   86SOPE  H12S 8046   0.600   6.192   4.124 -1.8168  0.1926  0.3015
   86SOPE  C213 8047   0.542   6.385   4.175 -0.5424 -0.3668  0.4274
   86SOPE  H13R 8048   0.465   6.398   4.096  2.3609  0.6591 -2.4303
   86SOPE  H13S 8049   0.575   6.488   4.198 -2.8018  0.9109 -1.5607
   86SOPE  C214 8050   0.479   6.333   4.298  1.6284  0.4710 -0.0526
   86SOPE  H14R 8051   0.545   6.325   4.387 -0.0557  0.7275  1.2687
   86SOPE  H14S 8052   0.443   6.230   4.280 -2.5391  1.9111 -1.0905
   86SOPE  C215 8053   0.352   6.408   4.336 -0.4094  0.3636  0.0026
   86SOPE  H15R 8054   0.288   6.405   4.245  0.0916  0.8248 -0.3730
   86SOPE  H15S 8055   0.368   6.516   4.355  0.7597 -0.0250  1.4278
   86SOPE  C216 8056   0.275   6.347   4.448  0.0985 -0.1951  0.0493
   86SOPE  H16R 8057   0.329   6.372   4.541  2.2506 -0.4426 -1.0585
   86SOPE  H16S 8058   0.267   6.236   4.451  1.4537 -0.3397 -0.8470
   86SOPE  C217 8059   0.127   6.396   4.446  0.5851  0.5836  0.3192
   86SOPE  H17R 8060   0.135   6.503   4.420 -0.7622  0.3670 -1.1502
   86SOPE  H17S 8061   0.082   6.381   4.547 -1.6897  1.8034 -0.4526
   86SOPE  C218 8062   0.026   6.333   4.342 -0.6313 -0.6454  0.2555
   86SOPE  H18R 8063   0.048   6.364   4.237 -1.0200  0.4440  0.4818
   86SOPE  H18S 8064  -0.073   6.381   4.354  0.3171  1.3270  0.4843
   86SOPE  H18T 8065   0.034   6.223   4.356  1.9623 -0.5509 -0.0253
   86SOPE   C33 8066   0.727   6.781   3.062 -0.1265  0.9105 -0.1786
   86SOPE   H3X 8067   0.795   6.694   3.052  0.3903  1.2569  0.2781
   86SOPE   H3Y 8068   0.621   6.748   3.059  0.8112 -2.4297 -1.7326
   86SOPE   C34 8069   0.775   6.850   3.191  0.4247  0.1774 -0.0878
   86SOPE   H4X 8070   0.745   6.957   3.190 -0.8781 -0.1630 -0.0498
   86SOPE   H4Y 8071   0.886   6.849   3.191  0.4855  1.0101 -1.8233
   86SOPE   C35 8072   0.725   6.786   3.316 -0.1774 -0.4872  0.5130
   86SOPE   H5X 8073   0.721   6.677   3.299  2.5524 -0.3061 -2.2104
   86SOPE   H5Y 8074   0.621   6.822   3.331  0.0423  0.2743  0.2973
   86SOPE   C36 8075   0.797   6.836   3.449 -0.4238  0.1503 -1.2444
   86SOPE   H6X 8076   0.781   6.945   3.449 -0.8441  0.1188 -3.1270
   86SOPE   H6Y 8077   0.903   6.808   3.426  0.1308 -0.0895  1.2842
   86SOPE   C37 8078   0.754   6.763   3.583 -0.8483  0.0059 -0.2769
   86SOPE   H7X 8079   0.841   6.782   3.651 -0.7266  1.2495 -0.7642
   86SOPE   H7Y 8080   0.749   6.653   3.568  1.0410 -0.0411 -0.7724
   86SOPE   C38 8081   0.627   6.811   3.644  0.2863 -0.0521  0.2538
   86SOPE   H8X 8082   0.544   6.787   3.573 -0.7950  0.5850  1.2671
   86SOPE   H8Y 8083   0.627   6.922   3.645 -1.8134 -0.0025  0.1984
   86SOPE   C39 8084   0.601   6.760   3.793  0.4244  0.1876  1.3158
   86SOPE   H9X 8085   0.699   6.751   3.845  0.4828 -1.3233  1.0148
   86SOPE   H9Y 8086   0.558   6.658   3.787 -0.1197  0.4775 -1.6070
   86SOPE  C310 8087   0.498   6.844   3.878 -0.5089  0.4790 -0.0248
   86SOPE  H10X 8088   0.392   6.825   3.851 -0.7691  0.1209  1.1779
   86SOPE  H10Y 8089   0.522   6.953   3.877 -2.3544  0.9522  1.4166
   86SOPE  C311 8090   0.504   6.806   4.035  0.6691  0.8021 -0.2249
   86SOPE  H11X 8091   0.606   6.838   4.063  1.0890 -2.3188  2.4854
   86SOPE  H11Y 8092   0.474   6.699   4.041 -0.9432  1.2771  1.0069
   86SOPE  C312 8093   0.393   6.893   4.108  0.2210 -0.1118 -0.8512
   86SOPE  H12X 8094   0.294   6.847   4.088  1.0752 -2.4675 -0.0252
   86SOPE  H12Y 8095   0.401   6.991   4.056  0.1253  3.0820  4.4022
   86SOPE  C313 8096   0.425   6.917   4.258 -0.4319 -0.1038 -0.9486
   86SOPE  H13X 8097   0.360   6.991   4.308  0.9526  0.0820  0.6800
   86SOPE  H13Y 8098   0.525   6.966   4.265  0.9140 -2.5597 -1.7762
   86SOPE  C314 8099   0.428   6.796   4.345 -0.5006  0.2969  0.2066
   86SOPE  H14X 8100   0.524   6.746   4.320  0.4009  1.7489  0.6687
   86SOPE  H14Y 8101   0.342   6.732   4.314  0.7520 -1.3769  0.0149
   86SOPE  C315 8102   0.415   6.821   4.494 -0.3329  0.0732  0.3706
   86SOPE  H15X 8103   0.320   6.875   4.515  0.2644  1.1348  0.4097
   86SOPE  H15Y 8104   0.492   6.889   4.535 -0.5897  0.4316  0.2643
   86SOPE  C316 8105   0.432   6.693   4.576 -0.1049  0.3218  0.0148
   86SOPE  H16X 8106   0.507   6.618   4.542 -2.0045 -1.1383 -1.1744
   86SOPE  H16Y 8107   0.337   6.635   4.569 -0.0040  0.1412  0.1337
   86SOPE  C317 8108   0.467   6.724   4.722 -0.1251  0.6298  0.0977
   86SOPE  H17X 8109   0.403   6.797   4.776 -0.9202 -0.1498  0.2260
   86SOPE  H17Y 8110   0.570   6.765   4.722  0.6221 -1.1286  1.4604
   86SOPE  C318 8111   0.461   6.602   4.815 -0.7604 -0.0892 -0.2948
   86SOPE  H18X 8112   0.543   6.529   4.794 -0.8272 -1.0976  2.5738
   86SOPE  H18Y 8113   0.369   6.542   4.797  0.5077 -1.9582 -0.8420
   86SOPE  H18Z 8114   0.478   6.632   4.920  0.8148 -0.4765 -0.4131
   87SOPE     N 8115   1.745   5.670   1.722 -0.0396 -0.2129  0.6368
   87SOPE   HN1 8116   1.846   5.660   1.700 -0.2014 -0.1856 -0.1412
   87SOPE   HN2 8117   1.704   5.722   1.642  0.5453  2.1313  1.7775
   87SOPE   HN3 8118   1.726   5.718   1.812 -3.7003 -2.6349  1.3938
   87SOPE   C12 8119   1.688   5.532   1.729 -0.4055  0.3945 -0.1700
   87SOPE  H12A 8120   1.714   5.477   1.636 -0.1817 -0.3613  0.3226
   87SOPE  H12B 8121   1.578   5.543   1.734 -0.8801 -0.9350 -4.0279
   87SOPE   C11 8122   1.742   5.454   1.849 -0.6183 -0.3263  0.5898
   87SOPE  H11A 8123   1.674   5.369   1.873  1.1390 -1.7805  0.6532
   87SOPE  H11B 8124   1.730   5.518   1.939 -1.1590  0.7376 -0.2141
   87SOPE     P 8125   1.912   5.255   1.876 -0.1395 -0.0916 -0.0109
   87SOPE   O13 8126   2.060   5.249   1.865  0.6770 -0.1055  0.5401
   87SOPE   O14 8127   1.833   5.164   1.785 -0.4348  0.2694 -0.1892
   87SOPE   O12 8128   1.869   5.405   1.835 -0.8229  0.1744 -0.6624
   87SOPE   O11 8129   1.864   5.226   2.019  0.4459 -0.0428  0.1943
   87SOPE    C1 8130   1.841   5.312   2.124  0.1395 -0.0447  0.1128
   87SOPE    HA 8131   1.733   5.303   2.151  0.3667 -0.9654  0.7564
   87SOPE    HB 8132   1.875   5.413   2.093  2.4214 -0.3937  1.2853
   87SOPE    C2 8133   1.913   5.275   2.258  0.5883  0.7600  0.0854
   87SOPE    HS 8134   2.023   5.281   2.247  0.7259 -0.2691  0.7326
   87SOPE   O21 8135   1.870   5.142   2.292  0.4853  0.0253 -0.0394
   87SOPE   C21 8136   1.955   5.078   2.366  0.2474  0.4712 -0.1572
   87SOPE   O22 8137   2.055   5.127   2.426  0.0524 -0.8011 -0.0883
   87SOPE   C22 8138   1.914   4.929   2.361  0.4957 -0.1670  0.8657
   87SOPE   H2R 8139   2.003   4.863   2.354  1.0057  0.6719 -1.4257
   87SOPE   H2S 8140   1.854   4.920   2.268 -0.6110  0.7844  1.4522
   87SOPE    C3 8141   1.870   5.380   2.373 -0.3010 -0.2091  0.3318
   87SOPE    HX 8142   1.917   5.475   2.341 -0.0612 -0.7186 -0.9067
   87SOPE    HY 8143   1.921   5.345   2.465  0.2772  2.0538  0.9132
   87SOPE   O31 8144   1.729   5.406   2.386  0.4613 -0.4806 -0.2101
   87SOPE   C31 8145   1.661   5.317   2.457 -0.8770 -0.1486 -0.7368
   87SOPE   O32 8146   1.704   5.212   2.498  0.4746  0.3106 -0.1534
   87SOPE   C32 8147   1.525   5.374   2.488 -0.5090  0.5635 -0.0469
   87SOPE   H2X 8148   1.457   5.291   2.517 -0.2502 -0.3610 -1.9465
   87SOPE   H2Y 8149   1.476   5.419   2.399 -0.4890  3.0837  1.1147
   87SOPE   C23 8150   1.830   4.894   2.490 -0.1917 -0.6251  0.7339
   87SOPE   H3R 8151   1.761   4.810   2.467 -1.1560 -0.0133  1.3118
   87SOPE   H3S 8152   1.762   4.978   2.515  0.0179  0.0312 -0.7988
   87SOPE   C24 8153   1.922   4.863   2.612 -0.3161 -0.1228  0.2255
   87SOPE   H4R 8154   1.979   4.768   2.609 -0.8602 -0.5632  2.3674
   87SOPE   H4S 8155   1.998   4.944   2.621  0.4513 -0.9910  2.1276
   87SOPE   C25 8156   1.843   4.860   2.742 -0.4921 -0.2122 -0.4858
   87SOPE   H5R 8157   1.789   4.955   2.764 -3.6712 -1.9215 -0.3314
   87SOPE   H5S 8158   1.773   4.774   2.731 -1.8858  0.5045  1.9500
   87SOPE   C26 8159   1.929   4.833   2.868 -0.1618 -0.4530  0.0479
   87SOPE   H6R 8160   1.863   4.821   2.956  0.6329 -1.6177  0.5199
   87SOPE   H6S 8161   1.994   4.745   2.845  2.6407  1.0441  1.6249
   87SOPE   C27 8162   2.028   4.950   2.892 -0.7282 -1.2561 -0.2474
   87SOPE   H7R 8163   2.114   4.934   2.823  0.5791  0.3615  0.9053
   87SOPE   H7S 8164   1.988   5.047   2.854  2.0581  0.3984  0.6701
   87SOPE   C28 8165   2.083   4.953   3.034 -0.1626  0.3835 -0.0253
   87SOPE   H8R 8166   2.167   5.024   3.044 -1.5090  1.7875  2.4203
   87SOPE   H8S 8167   2.004   4.995   3.100 -0.1709 -1.8661  1.5294
   87SOPE   C29 8168   2.141   4.818   3.083 -0.3111  0.0023 -0.9473
   87SOPE   H91 8169   2.191   4.759   3.005  0.3304 -0.5555 -0.1250
   87SOPE  C210 8170   2.108   4.762   3.203  0.1811  1.1929  0.4462
   87SOPE  H101 8171   2.165   4.674   3.233  0.8424  0.8588 -1.6058
   87SOPE  C211 8172   2.015   4.827   3.303  0.2291  1.0585 -0.1453
   87SOPE  H11R 8173   1.911   4.843   3.268 -0.0272 -3.5666 -2.2793
   87SOPE  H11S 8174   2.074   4.915   3.335  1.1311  1.2093 -2.0634
   87SOPE  C212 8175   1.984   4.730   3.420  0.1084  0.4248  0.6819
   87SOPE  H12R 8176   2.077   4.683   3.458 -0.2791 -1.1246 -0.2133
   87SOPE  H12S 8177   1.923   4.654   3.368 -0.7060  1.5837 -0.1120
   87SOPE  C213 8178   1.914   4.800   3.536  0.4785 -0.0589  0.2299
   87SOPE  H13R 8179   1.853   4.884   3.497  0.5271 -0.3076 -0.3823
   87SOPE  H13S 8180   1.986   4.844   3.609 -0.4785  2.0671 -0.0270
   87SOPE  C214 8181   1.825   4.705   3.617  0.2542  0.6197 -0.3018
   87SOPE  H14R 8182   1.883   4.614   3.644 -1.9500 -0.4345  1.2342
   87SOPE  H14S 8183   1.753   4.675   3.538 -1.3074  1.4092  0.7751
   87SOPE  C215 8184   1.759   4.767   3.744 -0.2183 -0.1199  0.5958
   87SOPE  H15R 8185   1.690   4.846   3.708 -0.2378 -0.3046  0.2203
   87SOPE  H15S 8186   1.840   4.806   3.808 -1.1209  0.3273  1.5004
   87SOPE  C216 8187   1.692   4.652   3.825  0.0006 -0.5534 -0.9123
   87SOPE  H16R 8188   1.772   4.577   3.847  0.0560  0.3306  2.4095
   87SOPE  H16S 8189   1.612   4.602   3.767 -1.2719  0.4628 -0.0582
   87SOPE  C217 8190   1.639   4.697   3.965  0.6751 -0.1457 -0.2101
   87SOPE  H17R 8191   1.623   4.603   4.024 -1.5268 -0.5716 -1.3531
   87SOPE  H17S 8192   1.539   4.732   3.930  0.6718 -1.4436 -1.6405
   87SOPE  C218 8193   1.717   4.799   4.049 -0.0265  0.3260  0.7044
   87SOPE  H18R 8194   1.660   4.805   4.144 -0.8581 -3.9920  0.6893
   87SOPE  H18S 8195   1.726   4.893   3.992  0.5311 -0.9347 -1.4002
   87SOPE  H18T 8196   1.820   4.761   4.062 -0.2739 -0.8453 -0.4599
   87SOPE   C33 8197   1.523   5.482   2.595 -0.2592 -0.7759  0.5874
   87SOPE   H3X 8198   1.584   5.457   2.684  1.8033  2.1539  0.1361
   87SOPE   H3Y 8199   1.418   5.496   2.629 -0.8020 -2.2739 -0.3970
   87SOPE   C34 8200   1.576   5.625   2.552 -0.7057 -0.5225 -0.3025
   87SOPE   H4X 8201   1.526   5.659   2.459 -0.7867 -0.3225 -0.1852
   87SOPE   H4Y 8202   1.685   5.612   2.533 -0.6719 -3.9222  1.3684
   87SOPE   C35 8203   1.557   5.744   2.654  0.3070 -0.5308 -0.9775
   87SOPE   H5X 8204   1.454   5.786   2.651  0.5641  0.1006 -1.4834
   87SOPE   H5Y 8205   1.632   5.825   2.641 -1.8225  1.4298 -1.7030
   87SOPE   C36 8206   1.582   5.698   2.800  0.1145 -0.5057  0.5442
   87SOPE   H6X 8207   1.687   5.661   2.810  0.5317 -0.0335 -1.5174
   87SOPE   H6Y 8208   1.514   5.613   2.821 -0.0070 -0.7255 -0.6547
   87SOPE   C37 8209   1.552   5.805   2.905 -0.2424  0.6680 -0.2708
   87SOPE   H7X 8210   1.459   5.861   2.883 -0.1141  0.5817 -1.0801
   87SOPE   H7Y 8211   1.635   5.878   2.893 -0.0364 -0.0184 -5.0817
   87SOPE   C38 8212   1.543   5.746   3.039  0.1639 -0.1556 -0.5121
   87SOPE   H8X 8213   1.636   5.699   3.077  0.9211  2.1834  0.7436
   87SOPE   H8Y 8214   1.464   5.668   3.028 -0.7528  0.7772 -0.6937
   87SOPE   C39 8215   1.508   5.845   3.151  0.1228 -0.0249  0.2042
   87SOPE   H9X 8216   1.425   5.913   3.124 -0.8980 -0.2412  2.5281
   87SOPE   H9Y 8217   1.591   5.916   3.171 -1.8966  2.6951 -0.5933
   87SOPE  C310 8218   1.472   5.767   3.283  0.7782  0.4053  0.1923
   87SOPE  H10X 8219   1.399   5.689   3.254 -0.0281  1.6472 -1.2464
   87SOPE  H10Y 8220   1.415   5.839   3.346  1.6934  0.7469  0.6425
   87SOPE  C311 8221   1.595   5.722   3.365  0.7484  0.4747 -0.1349
   87SOPE  H11X 8222   1.648   5.816   3.393 -0.8883  1.6884 -0.9499
   87SOPE  H11Y 8223   1.658   5.650   3.308 -1.2464  0.4371 -2.4365
   87SOPE  C312 8224   1.549   5.642   3.489 -0.2059  0.4423  0.2041
   87SOPE  H12X 8225   1.636   5.590   3.534  0.3868  0.6880 -0.6399
   87SOPE  H12Y 8226   1.482   5.558   3.462 -0.0771 -0.5937  2.7961
   87SOPE  C313 8227   1.484   5.741   3.589  0.3964 -0.3579 -0.2402
   87SOPE  H13X 8228   1.374   5.743   3.574  0.3075  0.5264  0.4801
   87SOPE  H13Y 8229   1.522   5.844   3.571  2.2717 -1.1215 -0.9154
   87SOPE  C314 8230   1.531   5.699   3.732 -0.3200 -0.2089 -0.4642
   87SOPE  H14X 8231   1.641   5.695   3.720 -0.4675 -0.6479 -1.7933
   87SOPE  H14Y 8232   1.488   5.601   3.766 -0.9587  0.0484 -0.5118
   87SOPE  C315 8233   1.484   5.786   3.851  0.5512  0.0365  0.2001
   87SOPE  H15X 8234   1.374   5.790   3.839  0.5265  1.0920  0.6894
   87SOPE  H15Y 8235   1.523   5.890   3.847  0.1464  0.2002  0.4399
   87SOPE  C316 8236   1.510   5.726   3.985 -1.1860  0.0990 -0.0882
   87SOPE  H16X 8237   1.617   5.694   3.990 -0.6089  1.7927 -1.0107
   87SOPE  H16Y 8238   1.441   5.639   3.994 -1.5815  0.4326  0.1056
   87SOPE  C317 8239   1.475   5.819   4.100  0.3343  0.3936  0.2655
   87SOPE  H17X 8240   1.497   5.764   4.194  1.2805  0.2660 -0.0219
   87SOPE  H17Y 8241   1.365   5.832   4.100  0.6391  4.3018  0.7005
   87SOPE  C318 8242   1.550   5.952   4.103 -0.0099 -0.5812 -0.9948
   87SOPE  H18X 8243   1.526   6.015   4.015  2.5404  0.1783 -1.2196
   87SOPE  H18Y 8244   1.657   5.925   4.103 -0.0021 -0.5723 -0.2676
   87SOPE  H18Z 8245   1.526   6.004   4.198 -0.2176 -4.0584  1.0431
   88SOPE     N 8246   2.662   6.140   1.795 -0.3725  0.2612  0.3575
   88SOPE   HN1 8247   2.747   6.088   1.766 -0.3504  0.5242 -0.0534
   88SOPE   HN2 8248   2.587   6.122   1.726  0.0640 -1.1439  0.2138
   88SOPE   HN3 8249   2.695   6.239   1.789 -0.8242  0.4836  1.3384
   88SOPE   C12 8250   2.609   6.094   1.925  0.5835  0.9704 -0.6445
   88SOPE  H12A 8251   2.575   5.990   1.906 -1.3433  1.8318 -2.4264
   88SOPE  H12B 8252   2.523   6.162   1.947 -1.6663 -2.3299  1.8537
   88SOPE   C11 8253   2.713   6.108   2.038  0.2110 -0.2045  0.5451
   88SOPE  H11A 8254   2.780   6.023   2.012 -0.8916 -0.9066 -0.0632
   88SOPE  H11B 8255   2.665   6.081   2.135 -2.9314 -0.4255 -0.9384
   88SOPE     P 8256   2.739   6.360   2.109 -0.0635  0.0111  0.1918
   88SOPE   O13 8257   2.624   6.402   2.026  0.4970  0.0222  0.1379
   88SOPE   O14 8258   2.855   6.449   2.122 -0.9694 -0.2075 -0.0132
   88SOPE   O12 8259   2.788   6.228   2.040 -0.2056 -0.3915 -0.2514
   88SOPE   O11 8260   2.692   6.308   2.254  0.2068 -0.6976 -0.0344
   88SOPE    C1 8261   2.789   6.250   2.343 -0.5771 -0.2657 -0.1598
   88SOPE    HA 8262   2.888   6.225   2.298  1.1734  3.2945  1.2786
   88SOPE    HB 8263   2.752   6.152   2.380  1.6416 -0.9882  0.2755
   88SOPE    C2 8264   2.821   6.334   2.476 -0.0135 -0.2465 -0.1527
   88SOPE    HS 8265   2.892   6.267   2.528  1.9956  0.8282 -1.3865
   88SOPE   O21 8266   2.704   6.357   2.555 -0.3816 -0.0218  0.0223
   88SOPE   C21 8267   2.727   6.363   2.684 -0.2829 -0.3646  0.4587
   88SOPE   O22 8268   2.836   6.340   2.734  0.1875 -0.0939  0.3571
   88SOPE   C22 8269   2.592   6.400   2.751  0.0189 -0.1698 -0.3748
   88SOPE   H2R 8270   2.522   6.313   2.749 -0.5584  0.2981 -1.3734
   88SOPE   H2S 8271   2.541   6.479   2.691 -1.4872 -1.0559 -0.3146
   88SOPE    C3 8272   2.899   6.459   2.445  0.1876  0.0880 -0.4210
   88SOPE    HX 8273   2.843   6.513   2.365 -1.1819 -2.0705 -1.0047
   88SOPE    HY 8274   2.996   6.433   2.396 -0.3882 -0.4273 -1.3217
   88SOPE   O31 8275   2.925   6.545   2.564  0.1340 -0.1114 -0.0403
   88SOPE   C31 8276   3.012   6.642   2.541  0.6306  0.6128  0.8472
   88SOPE   O32 8277   3.048   6.683   2.431  0.3640 -0.3516  1.1145
   88SOPE   C32 8278   3.048   6.697   2.679 -0.0193  0.5874  0.5278
   88SOPE   H2X 8279   3.119   6.628   2.728 -2.9203 -2.4183  0.8623
   88SOPE   H2Y 8280   2.957   6.687   2.742 -0.7246 -1.4937 -0.7078
   88SOPE   C23 8281   2.629   6.452   2.893 -1.0451 -0.1439  0.4893
   88SOPE   H3R 8282   2.698   6.382   2.945 -1.1829  0.0139  0.8822
   88SOPE   H3S 8283   2.537   6.459   2.954  0.0177  0.2173  2.1292
   88SOPE   C24 8284   2.689   6.600   2.883  0.1934  0.0843  0.0485
   88SOPE   H4R 8285   2.773   6.601   2.811  0.7303 -0.7387  0.6372
   88SOPE   H4S 8286   2.602   6.651   2.837  0.6606 -1.8001 -3.2220
   88SOPE   C25 8287   2.725   6.655   3.017  0.1188 -0.6744 -0.5563
   88SOPE   H5R 8288   2.804   6.591   3.061  0.7444  0.5964  0.2224
   88SOPE   H5S 8289   2.773   6.753   2.998  1.4678 -1.5980 -2.2019
   88SOPE   C26 8290   2.615   6.678   3.130  0.3431  0.6273  0.6890
   88SOPE   H6R 8291   2.536   6.742   3.084  1.3851  2.5289  1.4366
   88SOPE   H6S 8292   2.562   6.583   3.150 -4.2744  2.7041 -0.2062
   88SOPE   C27 8293   2.662   6.752   3.254 -0.5576  0.0500  0.7893
   88SOPE   H7R 8294   2.756   6.706   3.290  0.3590  0.3350 -1.1212
   88SOPE   H7S 8295   2.690   6.856   3.226  1.7591 -0.1301  2.2012
   88SOPE   C28 8296   2.554   6.748   3.366 -0.5703 -0.1908  0.0171
   88SOPE   H8R 8297   2.589   6.829   3.433  1.2049 -2.4433  2.0223
   88SOPE   H8S 8298   2.454   6.781   3.331 -0.4190  0.8048  0.4919
   88SOPE   C29 8299   2.542   6.612   3.435 -0.3187 -0.3783  0.1787
   88SOPE   H91 8300   2.508   6.530   3.370 -2.4713  0.0478  0.6839
   88SOPE  C210 8301   2.567   6.580   3.563  0.6431 -0.1976  0.4563
   88SOPE  H101 8302   2.557   6.476   3.598  2.6836 -0.8512 -0.7308
   88SOPE  C211 8303   2.608   6.672   3.674 -0.1341  0.7565 -0.5205
   88SOPE  H11R 8304   2.702   6.724   3.645 -0.8521  1.0764 -2.4357
   88SOPE  H11S 8305   2.638   6.612   3.763 -2.7247  2.2457  1.4842
   88SOPE  C212 8306   2.494   6.756   3.735  0.1443 -0.6613  0.5616
   88SOPE  H12R 8307   2.400   6.698   3.746 -0.0046 -0.4546  0.3848
   88SOPE  H12S 8308   2.479   6.838   3.661  0.4940 -1.4989 -0.4683
   88SOPE  C213 8309   2.543   6.813   3.873 -0.7146 -0.0565 -0.0233
   88SOPE  H13R 8310   2.635   6.868   3.847  0.2724 -2.2316 -1.4020
   88SOPE  H13S 8311   2.556   6.727   3.942 -0.3423  1.1274  1.4355
   88SOPE  C214 8312   2.442   6.908   3.933 -0.1688 -0.9947  0.3992
   88SOPE  H14R 8313   2.339   6.868   3.948 -0.4422 -0.9681 -1.2646
   88SOPE  H14S 8314   2.434   6.999   3.870  1.3095  0.3842  2.0968
   88SOPE  C215 8315   2.474   6.973   4.065 -0.8399  0.3458  0.1870
   88SOPE  H15R 8316   2.584   6.974   4.082 -1.0672 -0.6188  1.9387
   88SOPE  H15S 8317   2.435   6.901   4.140  0.5168 -0.2187  0.3705
   88SOPE  C216 8318   2.399   7.103   4.105  0.0815  0.2147  0.4184
   88SOPE  H16R 8319   2.290   7.099   4.125  0.2872  1.8741  2.1799
   88SOPE  H16S 8320   2.414   7.169   4.017  0.5872  0.1723  0.4667
   88SOPE  C217 8321   2.449   7.163   4.238  0.5395 -0.5915  0.0199
   88SOPE  H17R 8322   2.398   7.260   4.256 -1.4085 -1.1873 -1.9433
   88SOPE  H17S 8323   2.555   7.190   4.220  0.6114 -0.5163  0.5480
   88SOPE  C218 8324   2.452   7.058   4.353  0.6751  0.2250 -0.2356
   88SOPE  H18R 8325   2.538   6.989   4.340  0.1513 -0.5636  0.3752
   88SOPE  H18S 8326   2.365   6.989   4.352  0.8247  0.0224  0.3708
   88SOPE  H18T 8327   2.456   7.106   4.453 -0.9195 -1.1683  0.5500
   88SOPE   C33 8328   3.098   6.843   2.694  0.1164  0.1494  0.8072
   88SOPE   H3X 8329   3.013   6.908   2.664  0.6113  0.8039  0.8047
   88SOPE   H3Y 8330   3.171   6.862   2.613 -1.8491  0.0668 -1.0799
   88SOPE   C34 8331   3.154   6.868   2.829 -0.0449  0.5431 -1.0037
   88SOPE   H4X 8332   3.210   6.963   2.845  1.9342 -0.9050  1.7277
   88SOPE   H4Y 8333   3.236   6.797   2.855 -1.4264 -1.4866 -1.9242
   88SOPE   C35 8334   3.042   6.872   2.932  0.1818 -1.0172 -0.6300
   88SOPE   H5X 8335   3.003   6.771   2.957 -1.3317 -0.0669  1.0996
   88SOPE   H5Y 8336   2.966   6.940   2.886 -1.5339 -1.9740  0.6900
   88SOPE   C36 8337   3.082   6.926   3.074  0.5151 -0.5322  0.1475
   88SOPE   H6X 8338   3.153   7.011   3.067 -0.8710  0.5815 -0.7625
   88SOPE   H6Y 8339   3.146   6.845   3.117  1.0619 -0.5403 -0.6635
   88SOPE   C37 8340   2.970   6.949   3.173  0.5227  0.1925 -1.2576
   88SOPE   H7X 8341   2.890   6.873   3.178  0.7241  0.0613  0.2596
   88SOPE   H7Y 8342   2.918   7.036   3.127  1.1774  1.2106 -0.1165
   88SOPE   C38 8343   3.023   6.965   3.316 -0.1490 -0.6885 -0.1775
   88SOPE   H8X 8344   3.089   7.054   3.308 -2.0360  0.7343 -0.7166
   88SOPE   H8Y 8345   3.082   6.872   3.330  0.3938 -0.4144 -0.5936
   88SOPE   C39 8346   2.921   6.989   3.425  0.0942 -0.1911 -0.3258
   88SOPE   H9X 8347   2.835   6.919   3.421 -1.0487  1.2107 -2.6369
   88SOPE   H9Y 8348   2.888   7.092   3.399 -0.3671 -0.6151 -1.4917
   88SOPE  C310 8349   2.986   6.976   3.560  0.1851 -0.8256  0.2905
   88SOPE  H10X 8350   3.007   6.868   3.579  2.1866 -0.3729  0.8559
   88SOPE  H10Y 8351   2.918   7.009   3.642 -2.7861 -0.8624 -1.9889
   88SOPE  C311 8352   3.108   7.060   3.577  0.5399  0.2781  0.2122
   88SOPE  H11X 8353   3.085   7.168   3.565 -1.3582 -0.1174 -0.0619
   88SOPE  H11Y 8354   3.188   7.044   3.502 -0.4228 -0.3305 -0.7127
   88SOPE  C312 8355   3.171   7.025   3.715  0.0141 -0.4733  0.0005
   88SOPE  H12X 8356   3.186   6.915   3.722  1.8849 -0.7133 -4.5103
   88SOPE  H12Y 8357   3.095   7.056   3.789  0.5166 -0.5628  0.5641
   88SOPE  C313 8358   3.306   7.103   3.739 -0.4900  0.0025 -0.0891
   88SOPE  H13X 8359   3.280   7.206   3.771  0.9366  0.1296  0.7408
   88SOPE  H13Y 8360   3.364   7.109   3.645  3.2076  0.0518  1.9997
   88SOPE  C314 8361   3.398   7.049   3.852  0.1070 -0.0628 -0.1994
   88SOPE  H14X 8362   3.503   7.073   3.825 -0.1936 -0.4507 -1.8087
   88SOPE  H14Y 8363   3.398   6.938   3.858 -0.7074 -0.0084  1.4763
   88SOPE  C315 8364   3.377   7.119   3.993 -0.7174 -0.0774 -0.7600
   88SOPE  H15X 8365   3.424   7.051   4.068  0.4023  2.0686  0.5876
   88SOPE  H15Y 8366   3.270   7.116   4.020 -0.7626 -0.2526 -0.9596
   88SOPE  C316 8367   3.448   7.255   4.019 -0.6924 -0.2498 -0.7464
   88SOPE  H16X 8368   3.385   7.345   4.007 -1.4978 -0.4587  1.4717
   88SOPE  H16Y 8369   3.537   7.266   3.953 -1.1654  0.3653 -1.2843
   88SOPE  C317 8370   3.503   7.262   4.160  0.8156  0.1814 -0.4699
   88SOPE  H17X 8371   3.583   7.188   4.181 -2.2224 -2.3645  3.5061
   88SOPE  H17Y 8372   3.423   7.236   4.232  0.7946 -0.4379 -0.7072
   88SOPE  C318 8373   3.541   7.403   4.204  0.0207  0.0869 -0.3801
   88SOPE  H18X 8374   3.575   7.395   4.310  1.8715 -0.6290 -0.9796
   88SOPE  H18Y 8375   3.451   7.468   4.197 -0.2288 -0.3145 -1.0111
   88SOPE  H18Z 8376   3.623   7.443   4.142  1.2366 -1.4236  0.1780
   89SAPC     N 8377   6.295   5.441   6.735  0.1816 -0.2263  0.5827
   89SAPC   C12 8378   6.299   5.395   6.594  0.2946  0.2622 -0.4345
   89SAPC  H12A 8379   6.231   5.453   6.532  0.7112  2.1994  0.8356
   89SAPC  H12B 8380   6.284   5.288   6.591 -0.1761  0.2826  0.7248
   89SAPC   C13 8381   6.167   5.393   6.808 -0.0636  0.0512  0.0037
   89SAPC  H13A 8382   6.172   5.286   6.813  0.9868  0.1491  2.6508
   89SAPC  H13B 8383   6.173   5.435   6.908 -0.3219  1.2480 -0.4636
   89SAPC  H13C 8384   6.075   5.427   6.764  0.8835  2.5732 -0.2522
   89SAPC   C14 8385   6.409   5.391   6.821 -0.2336 -0.2248 -0.0598
   89SAPC  H14A 8386   6.418   5.444   6.915 -0.1032 -0.7123  0.2044
   89SAPC  H14B 8387   6.411   5.286   6.845 -0.6938 -0.1053  0.5350
   89SAPC  H14C 8388   6.499   5.405   6.764  1.2325 -4.1508  0.9993
   89SAPC   C15 8389   6.284   5.587   6.739 -0.0839  0.4089  0.1868
   89SAPC  H15A 8390   6.200   5.609   6.676  0.0788 -1.2416 -0.6661
   89SAPC  H15B 8391   6.271   5.632   6.836  0.5405 -1.0178  0.9558
   89SAPC  H15C 8392   6.375   5.633   6.702 -1.0961 -0.5335 -4.0107
   89SAPC   C11 8393   6.432   5.419   6.521  0.6461 -0.1196  0.0526
   89SAPC  H11A 8394   6.469   5.524   6.525 -0.1876  0.1765  0.3697
   89SAPC  H11B 8395   6.413   5.402   6.413  1.5343 -0.6714 -0.0236
   89SAPC     P 8396   6.548   5.191   6.501  0.2526  0.1043 -0.3215
   89SAPC   O13 8397   6.622   5.194   6.372 -0.0992  0.5061  1.3410
   89SAPC   O14 8398   6.604   5.112   6.612 -0.5706 -0.4809  0.0435
   89SAPC   O12 8399   6.540   5.338   6.564  0.3201 -0.1439 -0.2639
   89SAPC   O11 8400   6.399   5.139   6.474  0.0281 -0.7267 -0.4034
   89SAPC    C1 8401   6.375   5.026   6.392 -0.1446  0.0155 -0.2789
   89SAPC    HA 8402   6.464   4.961   6.385  0.2279  0.6053 -1.2336
   89SAPC    HB 8403   6.304   4.963   6.450 -0.8080  0.5077 -0.5346
   89SAPC    C2 8404   6.320   5.061   6.253 -0.1596  0.3458 -0.4123
   89SAPC    HS 8405   6.402   5.096   6.187  1.2782 -1.9138  0.0515
   89SAPC   O21 8406   6.219   5.167   6.245  0.2851 -0.3175 -0.1048
   89SAPC   C21 8407   6.121   5.171   6.331 -0.3200 -0.2492  0.2682
   89SAPC   O22 8408   6.106   5.097   6.426 -0.3875 -0.5781 -0.6303
   89SAPC   C22 8409   6.033   5.291   6.295  0.5233 -0.5632 -0.3318
   89SAPC   H2R 8410   6.021   5.331   6.398 -0.0816 -2.1751  0.2415
   89SAPC   H2S 8411   6.085   5.372   6.238  0.7476  0.4338  1.2282
   89SAPC    C3 8412   6.257   4.937   6.176  0.7105  0.1879 -0.7436
   89SAPC    HX 8413   6.179   4.900   6.246  1.7869 -3.1486 -1.1468
   89SAPC    HY 8414   6.327   4.851   6.175 -0.0156 -0.5027  1.7280
   89SAPC   O31 8415   6.192   4.963   6.050  0.4244 -0.1338  0.2747
   89SAPC   C31 8416   6.275   4.967   5.946  0.1178 -0.2146  0.0290
   89SAPC   O32 8417   6.395   4.959   5.955 -0.2094  0.1109  0.1665
   89SAPC   C32 8418   6.192   4.994   5.820  0.5053  0.7289 -0.2545
   89SAPC   H2X 8419   6.138   5.089   5.839 -1.8040 -0.5662  0.0574
   89SAPC   H2Y 8420   6.106   4.924   5.809 -0.4914  1.3776  2.5345
   89SAPC   C23 8421   5.887   5.270   6.238 -0.2914 -0.2744  0.3200
   89SAPC   H3R 8422   5.834   5.368   6.240  0.0476  0.0412 -2.4007
   89SAPC   H3S 8423   5.830   5.206   6.309 -1.1956 -0.6117 -0.6819
   89SAPC   C24 8424   5.890   5.227   6.085  0.4523 -0.3520  0.0402
   89SAPC   H4R 8425   5.983   5.268   6.041  1.8515 -1.0158  2.2195
   89SAPC   H4S 8426   5.801   5.277   6.039 -0.3484 -2.4058 -0.7578
   89SAPC   C25 8427   5.886   5.078   6.072 -0.2556  0.4706  0.2811
   89SAPC   H5R 8428   5.894   5.019   6.164  0.1842 -1.3989 -0.9154
   89SAPC   C26 8429   5.849   5.017   5.960 -0.0583  0.6159 -0.7043
   89SAPC   H6R 8430   5.858   4.908   5.957  0.1001  0.4769  2.1301
   89SAPC   C27 8431   5.816   5.073   5.824  0.3910  0.8456  0.3236
   89SAPC   H7R 8432   5.874   5.014   5.750  1.6593 -1.2220  2.8280
   89SAPC   H7S 8433   5.851   5.178   5.815  0.0412  1.0661  1.4063
   89SAPC   C28 8434   5.672   5.073   5.787  0.1256  0.0172 -0.4771
   89SAPC   H8R 8435   5.600   5.045   5.866  1.0179 -1.6058 -0.1893
   89SAPC   C29 8436   5.621   5.098   5.671  0.1824  0.1667 -0.1328
   89SAPC   H9R 8437   5.512   5.095   5.655 -0.0306 -1.0124  1.3588
   89SAPC  C210 8438   5.706   5.151   5.558 -0.0201 -0.2210 -0.6754
   89SAPC  H10R 8439   5.804   5.099   5.551  0.2524  0.1710  0.1053
   89SAPC  H10S 8440   5.733   5.255   5.588 -0.1090 -0.4353  0.1750
   89SAPC  C211 8441   5.629   5.155   5.428 -1.0504  0.2035  0.2437
   89SAPC  H11R 8442   5.550   5.081   5.409  0.1162 -1.2776  0.9670
   89SAPC  C212 8443   5.668   5.226   5.325 -0.2512  0.0577 -0.5652
   89SAPC  H12R 8444   5.615   5.221   5.229  1.6303 -1.3467 -1.5878
   89SAPC  C213 8445   5.792   5.312   5.315  0.1848  0.0107 -0.0675
   89SAPC  H13R 8446   5.863   5.280   5.394 -3.2514 -1.7245  2.5639
   89SAPC  H13S 8447   5.770   5.420   5.326  1.3382  0.5921 -2.6036
   89SAPC  C214 8448   5.865   5.298   5.182  0.6527  0.4820 -0.3383
   89SAPC  H14R 8449   5.962   5.247   5.192  0.1757 -0.3964 -0.0729
   89SAPC  C215 8450   5.813   5.335   5.061  0.0347  0.2726  0.4943
   89SAPC  H15R 8451   5.883   5.316   4.979  0.6453 -1.3418  1.3409
   89SAPC  C216 8452   5.687   5.415   5.032  0.2816 -0.4456 -0.0526
   89SAPC  H16R 8453   5.702   5.517   5.074  1.2723 -0.2642 -0.8021
   89SAPC  H16S 8454   5.592   5.371   5.068 -0.8981  0.6153 -1.7196
   89SAPC  C217 8455   5.665   5.436   4.879 -0.2370  0.8481 -0.1232
   89SAPC  H17R 8456   5.755   5.481   4.832  0.0232  0.8446  0.3687
   89SAPC  H17S 8457   5.592   5.519   4.883 -0.4520  0.6774 -0.4537
   89SAPC  C218 8458   5.600   5.312   4.816  1.3437 -0.2853  0.3022
   89SAPC  H18R 8459   5.511   5.291   4.879  1.3686  0.8998  0.7545
   89SAPC  H18S 8460   5.652   5.214   4.830 -1.3842 -1.7300  1.0175
   89SAPC  C219 8461   5.574   5.336   4.663 -0.3269 -0.2854  0.3530
   89SAPC  H19R 8462   5.531   5.244   4.618  1.3060  0.3178 -2.6537
   89SAPC  H19S 8463   5.671   5.344   4.610 -1.4667  0.4317 -1.7322
   89SAPC  C220 8464   5.491   5.465   4.625  0.2572 -1.0718 -0.6776
   89SAPC  H20R 8465   5.389   5.464   4.669  2.2411  1.6155  5.0094
   89SAPC  H20S 8466   5.478   5.475   4.516  0.0474 -0.5742 -0.6075
   89SAPC  H20T 8467   5.542   5.557   4.661 -2.0513  0.4298 -1.0288
   89SAPC   C33 8468   6.287   5.006   5.698  0.0504  0.5011 -0.2800
   89SAPC   H3X 8469   6.337   4.912   5.666 -2.1243 -1.1415  0.9476
   89SAPC   H3Y 8470   6.371   5.077   5.717  0.7925 -0.3205 -0.4058
   89SAPC   C34 8471   6.211   5.054   5.571  0.2443  0.2698 -0.5912
   89SAPC   H4X 8472   6.286   5.089   5.497 -0.8924  2.6692 -0.7015
   89SAPC   H4Y 8473   6.151   5.142   5.601  1.0660  0.6529 -0.0098
   89SAPC   C35 8474   6.112   4.949   5.504 -0.3411  0.0248 -0.2304
   89SAPC   H5X 8475   6.041   4.925   5.587  0.6444 -0.2911  0.5516
   89SAPC   H5Y 8476   6.152   4.846   5.493 -4.4397 -1.9501  1.1579
   89SAPC   C36 8477   6.044   4.988   5.371  0.8436 -0.1696 -0.0352
   89SAPC   H6X 8478   6.123   5.003   5.295  0.5513 -0.3265 -0.3719
   89SAPC   H6Y 8479   6.005   5.089   5.395  0.0778 -0.0084 -1.7940
   89SAPC   C37 8480   5.936   4.898   5.315 -0.2996  0.6333 -0.2369
   89SAPC   H7X 8481   5.850   4.898   5.386  1.7556 -0.1835  2.4484
   89SAPC   H7Y 8482   5.970   4.793   5.309 -0.6262  0.2743  2.4971
   89SAPC   C38 8483   5.885   4.942   5.177  0.1307 -0.3539  0.1967
   89SAPC   H8X 8484   5.836   5.039   5.197  0.1419 -0.9936  4.0911
   89SAPC   H8Y 8485   5.808   4.870   5.140 -1.0431 -0.1568  2.1103
   89SAPC   C39 8486   5.992   4.963   5.066 -0.3430  0.6308 -0.5355
   89SAPC   H9X 8487   6.060   4.875   5.065 -1.8972 -0.6411 -2.7742
   89SAPC   H9Y 8488   6.046   5.059   5.078 -2.3322  1.9440 -1.6039
   89SAPC  C310 8489   5.907   4.955   4.942  0.0331 -1.0642  0.0676
   89SAPC  H10X 8490   5.824   5.026   4.962  0.2104 -1.0983  0.9704
   89SAPC  H10Y 8491   5.874   4.848   4.937  4.0043 -2.3854 -1.8323
   89SAPC  C311 8492   5.980   4.985   4.814  0.0008  0.2282 -0.5669
   89SAPC  H11X 8493   5.904   4.950   4.741  1.0009 -1.2151 -0.9627
   89SAPC  H11Y 8494   6.069   4.920   4.809 -0.0635  0.0716  0.1719
   89SAPC  C312 8495   6.014   5.133   4.788 -0.8419 -0.2726  0.1254
   89SAPC  H12X 8496   6.070   5.171   4.876 -0.7804 -0.1641  0.0402
   89SAPC  H12Y 8497   5.916   5.185   4.795 -0.7114 -0.1818  1.4342
   89SAPC  C313 8498   6.072   5.155   4.647 -0.6334  0.2759  0.0480
   89SAPC  H13X 8499   6.011   5.113   4.564 -1.0108  0.4543  0.2303
   89SAPC  H13Y 8500   6.174   5.112   4.643  0.5970  2.8549  1.3658
   89SAPC  C314 8501   6.086   5.304   4.614  0.0347 -0.7540 -0.1244
   89SAPC  H14X 8502   6.135   5.359   4.697 -0.7940  1.0905 -0.8016
   89SAPC  H14Y 8503   5.987   5.352   4.599  0.3206 -0.1304 -0.0456
   89SAPC  C315 8504   6.177   5.337   4.501 -0.1107  0.0190 -0.1587
   89SAPC  H15X 8505   6.132   5.299   4.407 -0.3205 -1.1555  0.4011
   89SAPC  H15Y 8506   6.278   5.290   4.508 -0.2264 -0.1188  0.7306
   89SAPC  C316 8507   6.203   5.486   4.491  0.2734 -0.6821 -0.6805
   89SAPC  H16X 8508   6.287   5.502   4.419  0.4602 -1.0988 -0.5530
   89SAPC  H16Y 8509   6.234   5.516   4.593  3.1137 -1.1802 -1.2951
   89SAPC  C317 8510   6.090   5.580   4.459  0.7992 -0.5548 -0.5889
   89SAPC  H17X 8511   5.998   5.571   4.521  0.5419 -4.0940 -1.3137
   89SAPC  H17Y 8512   6.078   5.555   4.352 -1.1101 -0.5708 -0.4107
   89SAPC  C318 8513   6.130   5.725   4.480 -0.2605 -0.8779 -0.5039
   89SAPC  H18X 8514   6.050   5.799   4.459  2.8711  2.3410 -2.2441
   89SAPC  H18Y 8515   6.211   5.736   4.405  0.2160  1.6435  0.2776
   89SAPC  H18Z 8516   6.175   5.739   4.581  0.4819 -2.2945 -0.6161
   90SAPC     N 8517   2.008   2.795   6.426  0.0104 -0.0273 -0.2854
   90SAPC   C12 8518   2.101   2.823   6.308  0.4115 -0.4300 -0.2420
   90SAPC  H12A 8519   2.082   2.749   6.232  2.0071  0.4214 -1.5488
   90SAPC  H12B 8520   2.199   2.794   6.344 -0.0198 -0.1684  1.2352
   90SAPC   C13 8521   1.863   2.844   6.398 -0.4133 -0.8594 -0.3918
   90SAPC  H13A 8522   1.815   2.810   6.307  0.5096  0.7570 -1.5299
   90SAPC  H13B 8523   1.788   2.823   6.473 -1.1275  0.7711 -0.6170
   90SAPC  H13C 8524   1.877   2.950   6.388  0.1331 -0.8974 -0.0451
   90SAPC   C14 8525   2.001   2.649   6.447  0.1122  0.0554 -0.5902
   90SAPC  H14A 8526   2.088   2.594   6.479 -1.5417 -2.5370 -0.1902
   90SAPC  H14B 8527   1.922   2.622   6.516 -0.1977  0.5819 -0.7334
   90SAPC  H14C 8528   1.968   2.591   6.362  0.3975 -0.2553 -0.4881
   90SAPC   C15 8529   2.063   2.864   6.544 -0.3082  0.3116 -0.6925
   90SAPC  H15A 8530   2.001   2.851   6.632  0.9524 -0.7086  0.0821
   90SAPC  H15B 8531   2.156   2.821   6.579 -0.4561  1.1982  0.9290
   90SAPC  H15C 8532   2.093   2.965   6.519  3.3051 -0.7882 -1.3790
   90SAPC   C11 8533   2.102   2.966   6.252 -0.0323 -0.2483 -0.6192
   90SAPC  H11A 8534   2.002   3.013   6.239 -0.5915 -1.2741 -0.1638
   90SAPC  H11B 8535   2.157   2.953   6.156 -1.5466 -0.4550 -1.4900
   90SAPC     P 8536   2.327   3.070   6.346  0.1659 -0.2341  0.0116
   90SAPC   O13 8537   2.380   3.039   6.479 -0.2525  0.8366 -0.2565
   90SAPC   O14 8538   2.388   2.998   6.236  0.6253 -0.0631 -0.6060
   90SAPC   O12 8539   2.173   3.048   6.340  0.9488 -0.1342  0.7230
   90SAPC   O11 8540   2.338   3.227   6.329 -0.1954 -0.2021 -0.4710
   90SAPC    C1 8541   2.265   3.309   6.240 -0.4089 -0.2142 -0.8006
   90SAPC    HA 8542   2.155   3.297   6.251 -0.3605 -0.5335 -0.6412
   90SAPC    HB 8543   2.286   3.415   6.266 -2.6023 -0.4089  2.4389
   90SAPC    C2 8544   2.305   3.282   6.097 -0.4656  1.0259  0.4223
   90SAPC    HS 8545   2.279   3.177   6.075  0.6966  0.7844  0.1240
   90SAPC   O21 8546   2.451   3.295   6.091  0.5288 -0.0151 -0.4850
   90SAPC   C21 8547   2.514   3.217   5.996 -0.3497  0.3890 -0.1705
   90SAPC   O22 8548   2.465   3.136   5.918 -0.1784 -0.0693 -0.3736
   90SAPC   C22 8549   2.669   3.254   5.996  0.2209  0.5113  0.0361
   90SAPC   H2R 8550   2.695   3.303   6.093 -2.4823  2.2221  0.0101
   90SAPC   H2S 8551   2.730   3.166   5.971  2.2350  1.7106  0.5265
   90SAPC    C3 8552   2.236   3.383   6.006  0.4776 -0.0228  0.4945
   90SAPC    HX 8553   2.254   3.483   6.049 -0.7914 -0.2708  1.6839
   90SAPC    HY 8554   2.126   3.380   6.014  0.4021  1.4802  0.1995
   90SAPC   O31 8555   2.284   3.368   5.868 -0.5401 -0.1790  0.1882
   90SAPC   C31 8556   2.228   3.287   5.783  0.3485 -0.8312  0.0027
   90SAPC   O32 8557   2.127   3.225   5.808 -0.9615 -0.3758 -0.2328
   90SAPC   C32 8558   2.312   3.289   5.659 -0.7036  0.8326  0.9668
   90SAPC   H2X 8559   2.406   3.345   5.677 -1.3847  2.2333  0.3381
   90SAPC   H2Y 8560   2.259   3.361   5.593  0.3556  0.7871  0.0372
   90SAPC   C23 8561   2.696   3.353   5.882 -0.3691  0.0262 -0.4649
   90SAPC   H3R 8562   2.797   3.396   5.902 -0.5033  0.2701 -0.2994
   90SAPC   H3S 8563   2.618   3.432   5.889 -1.9579 -1.2242 -2.8146
   90SAPC   C24 8564   2.694   3.288   5.742  0.5909  0.3133  0.4546
   90SAPC   H4R 8565   2.704   3.379   5.679 -0.1908  0.2269  0.1835
   90SAPC   H4S 8566   2.588   3.253   5.737 -0.2357  2.5188  1.5008
   90SAPC   C25 8567   2.800   3.183   5.719  0.2951  0.0353 -0.2759
   90SAPC   H5R 8568   2.763   3.083   5.748  0.1319  0.5089  1.1921
   90SAPC   C26 8569   2.919   3.203   5.665 -1.1402 -0.3709 -0.2625
   90SAPC   H6R 8570   2.995   3.124   5.678  0.8762  1.8538  2.9493
   90SAPC   C27 8571   2.973   3.336   5.609  0.1112  0.1734 -0.9500
   90SAPC   H7R 8572   2.971   3.409   5.693 -3.5466 -1.5347  0.6978
   90SAPC   H7S 8573   2.919   3.380   5.522 -0.9610 -0.5421 -0.6696
   90SAPC   C28 8574   3.117   3.324   5.571  0.7338 -0.2582  0.6654
   90SAPC   H8R 8575   3.186   3.377   5.638  0.3607  0.8423  0.2053
   90SAPC   C29 8576   3.165   3.288   5.453 -0.1961  0.1514 -0.4675
   90SAPC   H9R 8577   3.274   3.287   5.443 -0.2018 -0.1396 -0.4969
   90SAPC  C210 8578   3.082   3.236   5.335  0.0923 -0.5971 -0.3512
   90SAPC  H10R 8579   3.101   3.304   5.249 -0.1651  0.0214  0.0784
   90SAPC  H10S 8580   2.972   3.235   5.351  0.2839 -2.5433  1.1423
   90SAPC  C211 8581   3.118   3.099   5.285  0.4820 -0.3897  0.5810
   90SAPC  H11R 8582   3.188   3.030   5.335  1.3088 -0.2625 -0.3752
   90SAPC  C212 8583   3.077   3.061   5.163  0.2028  0.8022 -0.4416
   90SAPC  H12R 8584   3.098   2.957   5.132 -0.4493  0.7232 -0.6310
   90SAPC  C213 8585   3.004   3.151   5.067  0.2088  0.5987 -0.0721
   90SAPC  H13R 8586   2.975   3.250   5.107  1.2815 -0.1908  2.9128
   90SAPC  H13S 8587   2.908   3.106   5.034 -0.8798  1.6249  1.5572
   90SAPC  C214 8588   3.107   3.177   4.956  0.5943 -0.4126 -0.1672
   90SAPC  H14R 8589   3.185   3.250   4.983  1.3295 -0.5106 -1.9038
   90SAPC  C215 8590   3.115   3.112   4.840 -0.2907 -0.1988  0.1120
   90SAPC  H15R 8591   3.196   3.143   4.772  1.2755 -0.6886  1.6756
   90SAPC  C216 8592   3.035   2.994   4.805  1.1015 -0.5833  0.0342
   90SAPC  H16R 8593   2.943   3.021   4.748  0.5521 -1.3851  0.5157
   90SAPC  H16S 8594   3.002   2.955   4.903  1.1296  2.4387  1.3796
   90SAPC  C217 8595   3.103   2.886   4.729  0.1865  0.6047  0.3298
   90SAPC  H17R 8596   3.055   2.786   4.729  0.9091  0.2015  2.6351
   90SAPC  H17S 8597   3.205   2.864   4.767 -0.5247 -0.6951  1.5577
   90SAPC  C218 8598   3.112   2.917   4.574  0.7513 -0.7035 -0.0950
   90SAPC  H18R 8599   3.153   3.020   4.573 -2.1465  0.5909  1.8521
   90SAPC  H18S 8600   3.011   2.943   4.536  1.2808  0.4888 -0.7226
   90SAPC  C219 8601   3.187   2.818   4.485 -0.0318  0.9617 -0.7892
   90SAPC  H19R 8602   3.150   2.713   4.493 -0.3487  1.2042  1.7554
   90SAPC  H19S 8603   3.297   2.813   4.499  0.1228  3.5449 -0.6650
   90SAPC  C220 8604   3.180   2.866   4.339 -0.4507  0.9134 -0.1421
   90SAPC  H20R 8605   3.218   2.791   4.265 -2.9409 -3.3046  2.4599
   90SAPC  H20S 8606   3.230   2.963   4.322 -1.6001  1.6920  0.7841
   90SAPC  H20T 8607   3.073   2.876   4.310 -0.5331  1.2974  0.2881
   90SAPC   C33 8608   2.327   3.159   5.573  0.2133  0.5508  0.2554
   90SAPC   H3X 8609   2.231   3.114   5.543 -0.6064  1.7815  0.9446
   90SAPC   H3Y 8610   2.373   3.079   5.634 -1.1326  0.1022  0.7038
   90SAPC   C34 8611   2.414   3.190   5.454 -0.1886 -0.6828 -0.2612
   90SAPC   H4X 8612   2.514   3.214   5.494  1.1489 -2.9394 -2.0318
   90SAPC   H4Y 8613   2.370   3.278   5.400  0.5068 -0.8225 -1.0698
   90SAPC   C35 8614   2.424   3.074   5.352 -0.8383  0.0457 -0.1608
   90SAPC   H5X 8615   2.324   3.064   5.303 -1.0394 -0.8156  0.4216
   90SAPC   H5Y 8616   2.452   2.978   5.400  1.9380  0.4208 -0.8578
   90SAPC   C36 8617   2.530   3.105   5.249  0.9030  0.3763  0.1925
   90SAPC   H6X 8618   2.626   3.135   5.297  0.0745 -0.0921  2.2385
   90SAPC   H6Y 8619   2.490   3.188   5.188  1.4100 -0.6956 -1.6785
   90SAPC   C37 8620   2.527   2.996   5.137  0.1486  0.2448 -0.1398
   90SAPC   H7X 8621   2.425   2.950   5.132  0.1909  0.0931  0.3244
   90SAPC   H7Y 8622   2.587   2.918   5.188 -0.5882 -0.2001  0.0706
   90SAPC   C38 8623   2.577   3.043   5.000 -0.7174 -0.7177 -1.0210
   90SAPC   H8X 8624   2.666   3.110   5.009 -0.9676 -0.0946 -2.8688
   90SAPC   H8Y 8625   2.495   3.105   4.959  0.3055  1.3751 -0.0844
   90SAPC   C39 8626   2.626   2.922   4.908  0.4488 -0.4319 -0.8822
   90SAPC   H9X 8627   2.544   2.848   4.920 -2.5005  2.4787 -1.3795
   90SAPC   H9Y 8628   2.720   2.882   4.951  0.4047  0.5704  0.2221
   90SAPC  C310 8629   2.642   2.968   4.767 -0.0729 -0.8422 -0.2966
   90SAPC  H10X 8630   2.710   3.053   4.742 -1.7341 -0.0781 -2.5762
   90SAPC  H10Y 8631   2.554   3.009   4.713  0.6382  2.4452  0.7626
   90SAPC  C311 8632   2.694   2.852   4.681 -0.0350  0.4808  0.5060
   90SAPC  H11X 8633   2.634   2.763   4.708 -0.3532  0.2469 -0.8937
   90SAPC  H11Y 8634   2.798   2.831   4.713 -0.6869 -1.3052  1.5744
   90SAPC  C312 8635   2.694   2.865   4.530  0.7484 -0.1407  0.0722
   90SAPC  H12X 8636   2.763   2.784   4.498 -0.5017 -0.8689 -0.8900
   90SAPC  H12Y 8637   2.752   2.956   4.504  2.4445 -0.3387  2.8301
   90SAPC  C313 8638   2.554   2.849   4.475 -0.7356 -0.3982  0.3412
   90SAPC  H13X 8639   2.494   2.936   4.509 -0.8501  0.7394 -2.5025
   90SAPC  H13Y 8640   2.506   2.759   4.520 -0.9384 -0.3386  0.2469
   90SAPC  C314 8641   2.542   2.820   4.324  0.1730 -0.1282 -0.3772
   90SAPC  H14X 8642   2.573   2.909   4.265  0.5483 -1.2491 -1.9308
   90SAPC  H14Y 8643   2.434   2.793   4.324 -0.6675  2.7763  0.8487
   90SAPC  C315 8644   2.609   2.698   4.268  0.4076  0.3229  0.6390
   90SAPC  H15X 8645   2.715   2.701   4.299  0.4607 -0.5980  0.5957
   90SAPC  H15Y 8646   2.610   2.709   4.157 -0.4660  1.2738  0.7094
   90SAPC  C316 8647   2.547   2.564   4.298 -0.0522  0.2614 -0.2778
   90SAPC  H16X 8648   2.436   2.571   4.287  0.1730  1.6354 -1.9090
   90SAPC  H16Y 8649   2.554   2.553   4.409 -0.2375  1.9167 -0.0810
   90SAPC  C317 8650   2.611   2.443   4.232  0.1307  0.7874  0.7163
   90SAPC  H17X 8651   2.713   2.430   4.274  0.0225  0.8238  0.9936
   90SAPC  H17Y 8652   2.620   2.476   4.127  2.3608  1.2703  1.0013
   90SAPC  C318 8653   2.517   2.317   4.246 -0.3822  0.3799 -0.3125
   90SAPC  H18X 8654   2.474   2.330   4.347  0.0747  0.9091 -0.1832
   90SAPC  H18Y 8655   2.565   2.217   4.238 -0.2601  0.3449  0.7998
   90SAPC  H18Z 8656   2.440   2.314   4.166 -0.3518  1.0350 -0.3721
   91SAPC     N 8657   1.774   4.240   6.629 -0.2719  0.1954 -0.9488
   91SAPC   C12 8658   1.779   4.385   6.653 -1.2023  0.0339 -0.1578
   91SAPC  H12A 8659   1.807   4.436   6.562  0.0275  0.7449  0.5969
   91SAPC  H12B 8660   1.857   4.402   6.725 -0.8713 -0.0492 -0.4964
   91SAPC   C13 8661   1.917   4.185   6.635  0.5647  0.1104  0.1772
   91SAPC  H13A 8662   1.970   4.197   6.729  2.6116 -0.2915 -0.8724
   91SAPC  H13B 8663   1.910   4.083   6.602 -0.8314  0.4606 -0.6750
   91SAPC  H13C 8664   1.985   4.239   6.570  0.8872 -0.1060  0.3314
   91SAPC   C14 8665   1.681   4.180   6.731  0.6448  0.5774  0.6474
   91SAPC  H14A 8666   1.591   4.237   6.749 -0.2009 -0.3189 -0.5896
   91SAPC  H14B 8667   1.651   4.079   6.707 -1.7598  1.6794 -1.3804
   91SAPC  H14C 8668   1.736   4.175   6.824 -1.0547 -0.0295  1.6696
   91SAPC   C15 8669   1.720   4.224   6.492  0.2762 -0.4517 -0.0460
   91SAPC  H15A 8670   1.723   4.119   6.468  0.6537 -0.3791 -0.3226
   91SAPC  H15B 8671   1.617   4.255   6.502  0.5730 -0.0440  2.4723
   91SAPC  H15C 8672   1.756   4.286   6.411 -1.0434  1.6002  0.8495
   91SAPC   C11 8673   1.659   4.469   6.706 -0.0964  0.4328 -0.2156
   91SAPC  H11A 8674   1.696   4.573   6.718  2.3336 -0.4100  0.3212
   91SAPC  H11B 8675   1.634   4.440   6.811 -1.4929  1.1780 -0.3245
   91SAPC     P 8676   1.407   4.441   6.656 -0.0837 -0.6161  0.2992
   91SAPC   O13 8677   1.401   4.337   6.762  0.8628  0.4744  0.0394
   91SAPC   O14 8678   1.354   4.575   6.699 -0.1517 -0.4234  0.6189
   91SAPC   O12 8679   1.553   4.465   6.613 -0.3629  0.2554 -0.0299
   91SAPC   O11 8680   1.344   4.403   6.522 -0.1749  0.7284 -0.1664
   91SAPC    C1 8681   1.402   4.359   6.401  0.9729 -0.1023  0.3580
   91SAPC    HA 8682   1.507   4.393   6.390  1.4261 -1.8828 -1.2841
   91SAPC    HB 8683   1.398   4.248   6.404  2.2655 -0.1862 -0.5833
   91SAPC    C2 8684   1.315   4.411   6.286 -0.0553  0.0155 -0.3384
   91SAPC    HS 8685   1.209   4.383   6.302 -0.1039  1.8123  3.3270
   91SAPC   O21 8686   1.369   4.366   6.159 -0.5432 -0.2670 -0.2719
   91SAPC   C21 8687   1.294   4.282   6.087  0.3044 -0.4963  0.2684
   91SAPC   O22 8688   1.185   4.241   6.112  0.0813  0.0213 -0.3486
   91SAPC   C22 8689   1.373   4.252   5.953  0.2443  0.1160  0.0638
   91SAPC   H2R 8690   1.450   4.174   5.972 -1.9608 -1.9850  0.9446
   91SAPC   H2S 8691   1.306   4.195   5.885 -0.7991  0.3843  0.8419
   91SAPC    C3 8692   1.310   4.565   6.280 -0.0590  0.2245 -0.3428
   91SAPC    HX 8693   1.410   4.602   6.248  1.8300 -3.2434  1.0592
   91SAPC    HY 8694   1.277   4.608   6.377  0.4866  0.8261 -0.4180
   91SAPC   O31 8695   1.207   4.603   6.181 -0.1955  0.4233 -0.1889
   91SAPC   C31 8696   1.206   4.731   6.139  0.0305  0.0643 -0.6969
   91SAPC   O32 8697   1.292   4.813   6.165  0.0926 -0.1074 -0.0999
   91SAPC   C32 8698   1.071   4.761   6.074 -0.5371  0.0499  0.5611
   91SAPC   H2X 8699   0.982   4.751   6.141 -0.4600 -0.4188  0.5977
   91SAPC   H2Y 8700   1.054   4.688   5.991 -0.3178 -0.8235  1.2649
   91SAPC   C23 8701   1.417   4.379   5.876  0.1448  0.1943 -0.4533
   91SAPC   H3R 8702   1.527   4.380   5.866  0.0587  0.1856 -1.6732
   91SAPC   H3S 8703   1.377   4.464   5.934  0.5901 -0.3515  0.6672
   91SAPC   C24 8704   1.351   4.388   5.734  0.0754  0.2468  0.4198
   91SAPC   H4R 8705   1.357   4.489   5.688 -0.7933  1.0480  1.9700
   91SAPC   H4S 8706   1.242   4.375   5.755 -0.1002  1.2705  0.1887
   91SAPC   C25 8707   1.400   4.293   5.630 -0.3892 -0.1605  0.0644
   91SAPC   H5R 8708   1.391   4.186   5.656  1.0895  0.0468  1.6030
   91SAPC   C26 8709   1.472   4.316   5.512 -0.2842 -0.7723 -0.2867
   91SAPC   H6R 8710   1.498   4.229   5.451  3.1571 -0.4083  0.4925
   91SAPC   C27 8711   1.512   4.453   5.458 -0.7969 -0.4292 -0.1543
   91SAPC   H7R 8712   1.620   4.449   5.434 -0.5673 -0.9238  0.9290
   91SAPC   H7S 8713   1.514   4.516   5.549 -1.8613 -2.3845  1.2842
   91SAPC   C28 8714   1.429   4.509   5.348 -0.2582  0.4801  0.3136
   91SAPC   H8R 8715   1.338   4.564   5.377  0.5883  3.1137 -1.6904
   91SAPC   C29 8716   1.451   4.490   5.214  0.2315 -0.1004 -0.4023
   91SAPC   H9R 8717   1.396   4.561   5.151  0.6344  0.5044 -0.0962
   91SAPC  C210 8718   1.568   4.426   5.145 -0.4541  0.3090 -0.2163
   91SAPC  H10R 8719   1.639   4.376   5.215 -1.2848 -0.7782 -0.1181
   91SAPC  H10S 8720   1.624   4.504   5.090  0.5381 -0.5020 -0.3716
   91SAPC  C211 8721   1.513   4.312   5.067 -0.1024 -0.2872 -0.2476
   91SAPC  H11R 8722   1.481   4.233   5.137  2.0934  0.6389  2.0002
   91SAPC  C212 8723   1.499   4.296   4.932  0.1443  0.5664  0.3333
   91SAPC  H12R 8724   1.473   4.196   4.892 -1.1632  0.7095  0.7841
   91SAPC  C213 8725   1.544   4.396   4.826 -0.3919 -0.1955 -0.2672
   91SAPC  H13R 8726   1.551   4.335   4.733 -1.4144 -1.5726  0.5113
   91SAPC  H13S 8727   1.644   4.431   4.860 -1.4879  1.8120  1.0449
   91SAPC  C214 8728   1.463   4.521   4.807  0.5502  0.0990  0.1632
   91SAPC  H14R 8729   1.394   4.555   4.886  0.1957  1.7620 -0.8126
   91SAPC  C215 8730   1.489   4.613   4.716  1.1609 -0.2102 -0.4859
   91SAPC  H15R 8731   1.429   4.705   4.720  1.5159  0.0532  4.0809
   91SAPC  C216 8732   1.576   4.596   4.599  0.5112 -0.1551 -0.6457
   91SAPC  H16R 8733   1.639   4.506   4.614  0.4520  0.1855  2.3036
   91SAPC  H16S 8734   1.646   4.682   4.607 -1.6792  1.5773  1.6409
   91SAPC  C217 8735   1.506   4.589   4.465 -0.4423  0.6396  0.9297
   91SAPC  H17R 8736   1.457   4.489   4.458  3.5345 -1.3708 -2.6492
   91SAPC  H17S 8737   1.579   4.593   4.382  0.9335 -0.3588  2.0458
   91SAPC  C218 8738   1.383   4.681   4.451 -0.4522  0.3109 -0.5410
   91SAPC  H18R 8739   1.415   4.780   4.489  0.9202  0.0467 -0.9632
   91SAPC  H18S 8740   1.302   4.639   4.514  1.9120 -1.8001  1.2819
   91SAPC  C219 8741   1.344   4.704   4.300 -0.2585 -0.0558  0.1119
   91SAPC  H19R 8742   1.424   4.757   4.244 -0.9110  0.3468 -0.4527
   91SAPC  H19S 8743   1.252   4.765   4.303 -1.0277 -0.9487 -2.6136
   91SAPC  C220 8744   1.317   4.581   4.218  0.3080  0.0348  0.5169
   91SAPC  H20R 8745   1.403   4.511   4.223  0.0281 -0.6533 -2.3867
   91SAPC  H20S 8746   1.293   4.606   4.112 -5.2932  0.6556  1.6051
   91SAPC  H20T 8747   1.226   4.538   4.265 -0.6477  0.0717 -1.2365
   91SAPC   C33 8748   1.066   4.896   5.993 -0.2040 -0.3932  0.4772
   91SAPC   H3X 8749   1.086   4.973   6.070  2.2281  1.8792 -2.1941
   91SAPC   H3Y 8750   0.965   4.905   5.948 -0.1858 -3.5810 -0.4745
   91SAPC   C34 8751   1.169   4.908   5.882  0.2990 -0.4090 -0.5414
   91SAPC   H4X 8752   1.268   4.863   5.907  0.7998  1.1253  0.3707
   91SAPC   H4Y 8753   1.194   5.015   5.868 -1.2211 -0.1373 -1.3875
   91SAPC   C35 8754   1.111   4.881   5.746 -0.3796 -0.3938  0.1615
   91SAPC   H5X 8755   1.025   4.947   5.720 -1.7795 -2.3588 -0.3960
   91SAPC   H5Y 8756   1.063   4.781   5.756 -0.2966 -0.2819  1.9958
   91SAPC   C36 8757   1.216   4.883   5.632  0.6283 -0.2590 -0.0515
   91SAPC   H6X 8758   1.309   4.828   5.657 -0.7195 -2.3826  0.5665
   91SAPC   H6Y 8759   1.240   4.988   5.607 -3.3755  0.8492  0.0796
   91SAPC   C37 8760   1.150   4.815   5.511 -0.3295 -0.1054  0.0113
   91SAPC   H7X 8761   1.054   4.871   5.503 -0.0004  0.7266  1.5141
   91SAPC   H7Y 8762   1.129   4.710   5.542  1.6325  0.0128  2.0340
   91SAPC   C38 8763   1.239   4.821   5.380 -0.4765  0.7619 -0.7393
   91SAPC   H8X 8764   1.329   4.758   5.397 -0.1636  0.5761 -2.7919
   91SAPC   H8Y 8765   1.252   4.931   5.365  0.0053  0.6973 -0.8121
   91SAPC   C39 8766   1.156   4.770   5.265  0.3223 -0.2326 -0.1243
   91SAPC   H9X 8767   1.048   4.794   5.277  0.2973 -0.3087 -0.1989
   91SAPC   H9Y 8768   1.157   4.659   5.263  0.2398 -0.4643  3.8237
   91SAPC  C310 8769   1.212   4.831   5.134 -0.1436 -0.4343 -0.1971
   91SAPC  H10X 8770   1.323   4.822   5.129  0.2710  2.3276  1.9195
   91SAPC  H10Y 8771   1.189   4.940   5.129 -0.8276  0.0479  6.0218
   91SAPC  C311 8772   1.149   4.768   5.003  0.3639 -0.1856 -0.3286
   91SAPC  H11X 8773   1.039   4.770   5.017  0.5235  2.3007  1.3292
   91SAPC  H11Y 8774   1.192   4.666   5.018 -0.1197 -0.0968  2.1570
   91SAPC  C312 8775   1.187   4.832   4.869 -0.5801 -0.3654  0.4834
   91SAPC  H12X 8776   1.297   4.851   4.874 -0.6239  1.0741 -2.1650
   91SAPC  H12Y 8777   1.154   4.937   4.855 -0.7825 -0.7395 -2.4618
   91SAPC  C313 8778   1.143   4.752   4.745  0.6941  0.3508 -0.1046
   91SAPC  H13X 8779   1.175   4.646   4.753  2.2141  0.5583 -2.4300
   91SAPC  H13Y 8780   1.186   4.797   4.653 -0.1011 -2.3336 -1.8965
   91SAPC  C314 8781   0.993   4.754   4.734 -0.1783  0.4175 -0.0317
   91SAPC  H14X 8782   0.962   4.859   4.756 -1.2265  1.0784 -3.8926
   91SAPC  H14Y 8783   0.960   4.686   4.815  1.0951  2.0249  1.9192
   91SAPC  C315 8784   0.939   4.711   4.594 -0.8796 -0.2741  1.0340
   91SAPC  H15X 8785   0.828   4.718   4.594 -0.7909  2.2111  1.0404
   91SAPC  H15Y 8786   0.972   4.606   4.579 -2.1393 -0.3539 -1.8648
   91SAPC  C316 8787   0.985   4.785   4.469 -0.1289 -0.2619 -0.3768
   91SAPC  H16X 8788   0.917   4.743   4.392 -0.0991  1.0319 -1.1404
   91SAPC  H16Y 8789   1.087   4.758   4.433  0.1354  3.3080 -2.8629
   91SAPC  C317 8790   0.983   4.936   4.476  0.5438  0.2318  0.8105
   91SAPC  H17X 8791   1.074   4.967   4.531  0.5803 -2.0511  2.1513
   91SAPC  H17Y 8792   0.895   4.975   4.532 -0.2891 -0.7367  0.2199
   91SAPC  C318 8793   0.985   4.987   4.338 -0.0706 -0.0301  0.7490
   91SAPC  H18X 8794   0.894   4.956   4.282  0.3987  0.2015 -0.1683
   91SAPC  H18Y 8795   1.060   4.942   4.269 -0.9693 -1.9020  0.9145
   91SAPC  H18Z 8796   0.985   5.097   4.327 -1.8021 -0.1485 -0.9997
   92SAPC     N 8797   2.813   2.399   6.603  0.5168 -0.0538  0.4424
   92SAPC   C12 8798   2.821   2.418   6.448 -0.3518  0.1836  0.2674
   92SAPC  H12A 8799   2.925   2.410   6.419 -1.1603 -0.2164 -2.9275
   92SAPC  H12B 8800   2.787   2.518   6.427  0.8758  0.9168  1.6077
   92SAPC   C13 8801   2.898   2.288   6.645  0.3786  0.2914 -0.6808
   92SAPC  H13A 8802   2.865   2.194   6.605 -1.2516 -1.2622  3.7353
   92SAPC  H13B 8803   3.002   2.300   6.618  0.5129  0.7193  0.0022
   92SAPC  H13C 8804   2.885   2.275   6.751 -0.6076 -0.2468 -0.8609
   92SAPC   C14 8805   2.859   2.520   6.672 -0.2251  0.6748  0.3052
   92SAPC  H14A 8806   2.963   2.536   6.650  0.3976  0.0557  2.4970
   92SAPC  H14B 8807   2.811   2.614   6.646 -1.9051 -0.1900  0.1373
   92SAPC  H14C 8808   2.851   2.491   6.776  0.6108 -1.3358 -0.1648
   92SAPC   C15 8809   2.671   2.368   6.646  1.2901 -0.8652 -0.4286
   92SAPC  H15A 8810   2.653   2.338   6.748 -1.0153  1.8966  0.1081
   92SAPC  H15B 8811   2.610   2.454   6.624  0.3844 -1.1048  1.0508
   92SAPC  H15C 8812   2.628   2.284   6.593  1.4497 -2.6253  2.0631
   92SAPC   C11 8813   2.734   2.327   6.355 -0.6567 -0.9201 -0.2514
   92SAPC  H11A 8814   2.751   2.223   6.390  3.0157 -0.6565 -0.8277
   92SAPC  H11B 8815   2.769   2.340   6.250  1.2718 -0.7696  0.3598
   92SAPC     P 8816   2.496   2.292   6.265  0.0591 -0.2705 -0.4263
   92SAPC   O13 8817   2.471   2.154   6.320 -1.0088 -0.3684  0.7300
   92SAPC   O14 8818   2.376   2.382   6.235 -0.5638 -0.0887 -0.2843
   92SAPC   O12 8819   2.595   2.363   6.364  0.0841  0.0424  0.2228
   92SAPC   O11 8820   2.570   2.280   6.129 -0.8510 -0.3582  0.0250
   92SAPC    C1 8821   2.510   2.292   5.999 -0.3388  0.1699 -0.5702
   92SAPC    HA 8822   2.519   2.197   5.942 -0.5846  1.2289 -2.4630
   92SAPC    HB 8823   2.407   2.333   6.006  0.2638  1.6406  0.3590
   92SAPC    C2 8824   2.592   2.392   5.918  0.1418 -0.3346  0.3320
   92SAPC    HS 8825   2.538   2.419   5.825 -4.2642  1.5489  3.1143
   92SAPC   O21 8826   2.714   2.324   5.887 -0.0480  1.0609  0.4843
   92SAPC   C21 8827   2.708   2.239   5.776  0.3326 -0.4957 -0.3586
   92SAPC   O22 8828   2.607   2.220   5.714  0.3556 -0.5719 -0.3880
   92SAPC   C22 8829   2.842   2.179   5.747  0.1764  0.0451  0.0721
   92SAPC   H2R 8830   2.917   2.251   5.708  0.8806 -0.2738  0.8012
   92SAPC   H2S 8831   2.875   2.151   5.850 -0.2561  0.9469  0.4683
   92SAPC    C3 8832   2.638   2.520   5.989  0.0439  0.5798  0.4448
   92SAPC    HX 8833   2.703   2.492   6.074 -0.8817  0.3400  1.0957
   92SAPC    HY 8834   2.548   2.563   6.039  1.2561 -0.1601  3.5394
   92SAPC   O31 8835   2.706   2.622   5.907 -0.2293  0.3849  0.2046
   92SAPC   C31 8836   2.637   2.697   5.821 -0.5184 -0.0834 -0.6951
   92SAPC   O32 8837   2.519   2.693   5.806 -0.0834 -0.4491 -0.3165
   92SAPC   C32 8838   2.740   2.797   5.760  0.1840  0.2406  0.6562
   92SAPC   H2X 8839   2.811   2.826   5.840  1.7651 -0.5156 -0.4177
   92SAPC   H2Y 8840   2.667   2.879   5.740 -1.6955 -1.7237 -1.0531
   92SAPC   C23 8841   2.833   2.043   5.666 -0.2321 -0.0003  1.1090
   92SAPC   H3R 8842   2.764   1.983   5.729 -0.4679 -3.5850 -2.1149
   92SAPC   H3S 8843   2.934   1.995   5.669  0.0226  0.2831 -1.0008
   92SAPC   C24 8844   2.798   2.058   5.519 -1.0256  0.6983 -0.0746
   92SAPC   H4R 8845   2.703   2.116   5.511 -0.0735  2.2222 -1.0395
   92SAPC   H4S 8846   2.774   1.959   5.475  1.1176  0.8810 -1.8485
   92SAPC   C25 8847   2.890   2.131   5.423  0.8324  0.1753 -0.4610
   92SAPC   H5R 8848   2.914   2.234   5.453 -1.3306  0.8089 -0.7384
   92SAPC   C26 8849   2.922   2.084   5.299 -1.0916 -0.6390 -1.1651
   92SAPC   H6R 8850   2.984   2.149   5.236  0.0249 -0.7086 -0.1812
   92SAPC   C27 8851   2.894   1.952   5.240 -0.6043 -0.2264  0.0285
   92SAPC   H7R 8852   2.796   1.916   5.277 -1.2750  0.9038 -0.6133
   92SAPC   H7S 8853   2.977   1.886   5.274 -0.7632 -0.2667  0.3472
   92SAPC   C28 8854   2.902   1.947   5.088  0.4068 -0.1792 -0.6560
   92SAPC   H8R 8855   2.987   1.895   5.042  3.2108  3.0927  0.4330
   92SAPC   C29 8856   2.809   2.002   5.004 -0.4157 -0.5042 -0.1486
   92SAPC   H9R 8857   2.825   1.995   4.896  1.7744 -1.0351  0.1587
   92SAPC  C210 8858   2.693   2.090   5.045 -0.2875  0.2458 -0.3587
   92SAPC  H10R 8859   2.692   2.178   4.978 -1.2639 -0.3375 -1.1490
   92SAPC  H10S 8860   2.704   2.136   5.146 -3.3055  0.4460 -0.0217
   92SAPC  C211 8861   2.569   2.001   5.033 -0.4517 -0.7860  0.2222
   92SAPC  H11R 8862   2.588   1.894   5.018 -4.0879 -2.1393  3.5827
   92SAPC  C212 8863   2.444   2.049   5.071  0.1481  0.2452 -0.1580
   92SAPC  H12R 8864   2.357   1.984   5.053  0.8880 -0.5443 -1.0165
   92SAPC  C213 8865   2.413   2.192   5.113  0.5237 -0.5200  0.6327
   92SAPC  H13R 8866   2.338   2.234   5.043  2.0175  0.6128 -0.3548
   92SAPC  H13S 8867   2.495   2.265   5.096 -2.4735  2.5819 -1.7255
   92SAPC  C214 8868   2.359   2.207   5.254  0.3050  0.0410 -0.7090
   92SAPC  H14R 8869   2.260   2.161   5.265  0.2945  0.1313 -0.4126
   92SAPC  C215 8870   2.413   2.268   5.366 -0.3036  0.7792  0.4961
   92SAPC  H15R 8871   2.362   2.259   5.463  0.7548  1.3721  1.1259
   92SAPC  C216 8872   2.537   2.354   5.371 -0.1833  0.3613  0.3214
   92SAPC  H16R 8873   2.589   2.368   5.274  1.6934  0.1167  1.2522
   92SAPC  H16S 8874   2.619   2.311   5.432 -0.9705 -1.4536  0.1695
   92SAPC  C217 8875   2.501   2.492   5.425  0.5070  0.1257 -0.4124
   92SAPC  H17R 8876   2.592   2.549   5.396  0.4562  0.2753 -0.2777
   92SAPC  H17S 8877   2.490   2.488   5.535 -0.9575  0.0409 -0.5439
   92SAPC  C218 8878   2.367   2.554   5.361 -0.7404  0.2173  0.2732
   92SAPC  H18R 8879   2.280   2.490   5.385 -1.0596  0.1078 -1.0640
   92SAPC  H18S 8880   2.379   2.556   5.250 -0.2889 -1.0796  0.2760
   92SAPC  C219 8881   2.342   2.703   5.395 -0.3669 -0.2641 -0.3419
   92SAPC  H19R 8882   2.295   2.751   5.306 -1.5816  3.0014  1.8765
   92SAPC  H19S 8883   2.438   2.753   5.419 -0.0014 -1.7859  1.6058
   92SAPC  C220 8884   2.256   2.727   5.516 -0.1305 -0.1884  0.0195
   92SAPC  H20R 8885   2.236   2.834   5.534 -2.0235 -0.2337 -1.5009
   92SAPC  H20S 8886   2.312   2.685   5.602  3.9979  0.3250 -2.1506
   92SAPC  H20T 8887   2.153   2.685   5.511 -1.2813  2.3206  1.0595
   92SAPC   C33 8888   2.817   2.755   5.629 -0.4315  0.9502  0.1685
   92SAPC   H3X 8889   2.740   2.704   5.567  0.6877 -1.2366  0.4622
   92SAPC   H3Y 8890   2.893   2.681   5.660 -0.3249  0.1444 -1.8474
   92SAPC   C34 8891   2.874   2.870   5.556  0.4166  0.1326  0.4782
   92SAPC   H4X 8892   2.954   2.920   5.616  0.5686  0.7034 -0.1883
   92SAPC   H4Y 8893   2.797   2.950   5.549  1.7463  1.4422  0.2788
   92SAPC   C35 8894   2.918   2.828   5.410 -0.0647 -0.0416  0.4689
   92SAPC   H5X 8895   2.979   2.738   5.432  1.7777  1.6751  2.8744
   92SAPC   H5Y 8896   2.986   2.909   5.377 -1.5753  1.0920  0.0278
   92SAPC   C36 8897   2.800   2.809   5.308 -0.3870  0.2601 -0.6180
   92SAPC   H6X 8898   2.759   2.911   5.292  2.2276  1.5876  0.4103
   92SAPC   H6Y 8899   2.733   2.745   5.369 -1.0624  0.4877 -1.1193
   92SAPC   C37 8900   2.839   2.744   5.176 -0.0549 -0.1205  0.5970
   92SAPC   H7X 8901   2.917   2.810   5.133 -0.2549  0.1164  0.5900
   92SAPC   H7Y 8902   2.764   2.748   5.094  0.5410  0.8715  0.0865
   92SAPC   C38 8903   2.889   2.595   5.177 -0.4101 -0.4097  0.3983
   92SAPC   H8X 8904   2.803   2.528   5.198 -0.4430 -1.2017 -2.0141
   92SAPC   H8Y 8905   2.958   2.559   5.256 -1.1822 -3.2572 -0.1110
   92SAPC   C39 8906   2.949   2.535   5.049 -0.0002  0.3570 -0.0879
   92SAPC   H9X 8907   3.003   2.441   5.071  0.7167  0.1547 -2.3915
   92SAPC   H9Y 8908   3.031   2.601   5.013  0.1895  0.5642  0.7033
   92SAPC  C310 8909   2.842   2.523   4.942 -0.4982  0.0563 -0.1787
   92SAPC  H10X 8910   2.775   2.612   4.932 -1.8869 -0.6896  1.8685
   92SAPC  H10Y 8911   2.779   2.442   4.984 -0.6646  0.2997  0.0489
   92SAPC  C311 8912   2.894   2.498   4.801  0.4892  0.1014  0.4312
   92SAPC  H11X 8913   2.972   2.574   4.779 -1.7985  2.4834  0.0920
   92SAPC  H11Y 8914   2.816   2.509   4.723  1.0358  0.7178 -0.0402
   92SAPC  C312 8915   2.957   2.360   4.790 -0.2105  0.3762  0.0294
   92SAPC  H12X 8916   2.874   2.288   4.806 -1.3623  1.1066 -2.2841
   92SAPC  H12Y 8917   3.045   2.349   4.857 -0.7933 -3.2856  0.3775
   92SAPC  C313 8918   3.002   2.335   4.645 -0.2924  0.0668 -0.2677
   92SAPC  H13X 8919   3.089   2.397   4.614  0.4120 -0.3163  0.8936
   92SAPC  H13Y 8920   2.919   2.366   4.578 -1.2131 -1.0769  0.3128
   92SAPC  C314 8921   3.043   2.194   4.616  0.9852  0.1424  0.2740
   92SAPC  H14X 8922   2.967   2.123   4.653  1.0784 -0.1366 -0.0581
   92SAPC  H14Y 8923   3.136   2.165   4.670  0.2562 -1.2357  0.8440
   92SAPC  C315 8924   3.071   2.153   4.467 -0.0481 -0.3535 -0.4539
   92SAPC  H15X 8925   3.117   2.053   4.451 -0.3500 -0.2991 -1.8435
   92SAPC  H15Y 8926   3.140   2.222   4.415  0.8030 -0.4230  0.5547
   92SAPC  C316 8927   2.942   2.174   4.380 -0.6585 -0.5779  0.5795
   92SAPC  H16X 8928   2.881   2.258   4.419  0.0324 -0.0159  0.4639
   92SAPC  H16Y 8929   2.884   2.080   4.393 -1.1159 -0.3505  0.2048
   92SAPC  C317 8930   3.002   2.185   4.239  0.0873 -0.4142 -0.2157
   92SAPC  H17X 8931   3.076   2.105   4.218  0.0206 -0.9448  1.4824
   92SAPC  H17Y 8932   3.052   2.284   4.227 -3.3659  1.8316  1.9717
   92SAPC  C318 8933   2.889   2.188   4.133  0.0694  0.2413  0.3349
   92SAPC  H18X 8934   2.845   2.088   4.118 -1.2829  0.9278 -0.3719
   92SAPC  H18Y 8935   2.928   2.233   4.039 -1.7466  3.7331  1.0817
   92SAPC  H18Z 8936   2.798   2.243   4.165 -0.5809 -0.8195  0.3487
   93SAPC     N 8937   3.907   3.408   6.542 -0.0742  0.8372 -0.2337
   93SAPC   C12 8938   3.792   3.488   6.477  0.7268 -0.1939 -0.6194
   93SAPC  H12A 8939   3.694   3.450   6.505  1.3376 -2.7367 -1.6184
   93SAPC  H12B 8940   3.787   3.472   6.371  3.3378  1.7831 -1.1431
   93SAPC   C13 8941   3.926   3.431   6.686 -0.4281  0.2633 -0.4253
   93SAPC  H13A 8942   3.828   3.435   6.730  0.8656  3.5367  2.6799
   93SAPC  H13B 8943   3.980   3.345   6.724 -0.3022  0.2593 -0.6118
   93SAPC  H13C 8944   3.970   3.528   6.703  2.2044 -0.4883 -2.2311
   93SAPC   C14 8945   3.877   3.261   6.528  0.2566 -0.0291 -0.4908
   93SAPC  H14A 8946   3.797   3.228   6.593  2.1721 -0.6800  1.6919
   93SAPC  H14B 8947   3.861   3.229   6.427  0.3237  0.0539 -0.5278
   93SAPC  H14C 8948   3.960   3.201   6.563 -0.6616 -0.2711  1.4127
   93SAPC   C15 8949   4.044   3.430   6.473  0.6555  0.1339 -0.3963
   93SAPC  H15A 8950   4.072   3.534   6.468  1.5551 -0.1594 -2.3261
   93SAPC  H15B 8951   4.115   3.374   6.531  0.2350  0.1841  0.1776
   93SAPC  H15C 8952   4.049   3.385   6.375 -2.3325 -1.1662 -0.0725
   93SAPC   C11 8953   3.808   3.639   6.496 -0.7010 -0.0242 -0.1447
   93SAPC  H11A 8954   3.909   3.678   6.471 -0.5041  0.9358  1.9750
   93SAPC  H11B 8955   3.796   3.658   6.605  0.8701 -3.1360  0.6724
   93SAPC     P 8956   3.720   3.792   6.295 -0.0585 -0.0370 -0.2258
   93SAPC   O13 8957   3.583   3.826   6.244 -0.9323 -0.2064 -0.1934
   93SAPC   O14 8958   3.816   3.896   6.335 -0.1729 -0.4409  0.4308
   93SAPC   O12 8959   3.702   3.693   6.423 -0.1040  0.1346 -0.0124
   93SAPC   O11 8960   3.785   3.695   6.200 -0.5124  0.2340  0.6911
   93SAPC    C1 8961   3.915   3.706   6.154 -0.0120 -0.0221 -0.5563
   93SAPC    HA 8962   3.979   3.705   6.245  0.4654  0.4990 -0.8815
   93SAPC    HB 8963   3.932   3.618   6.089  2.5060 -0.9335  1.1750
   93SAPC    C2 8964   3.944   3.831   6.064  0.5735 -0.2260  0.0849
   93SAPC    HS 8965   3.902   3.923   6.111  1.4377 -0.5257  1.4646
   93SAPC   O21 8966   3.867   3.800   5.940  0.4212  0.5186  0.0807
   93SAPC   C21 8967   3.799   3.909   5.891 -0.8390  0.2115  0.3835
   93SAPC   O22 8968   3.805   4.019   5.944  0.5088  0.4648  0.3321
   93SAPC   C22 8969   3.730   3.870   5.757  0.2684  0.5288 -0.6017
   93SAPC   H2R 8970   3.806   3.829   5.686  1.2048  1.0848  0.0509
   93SAPC   H2S 8971   3.651   3.799   5.788 -0.3922  2.2082  1.8288
   93SAPC    C3 8972   4.095   3.849   6.028  0.0272 -0.2317 -0.8198
   93SAPC    HX 8973   4.132   3.749   5.997  0.6791 -0.2029 -0.1620
   93SAPC    HY 8974   4.167   3.866   6.111  1.2268  0.9449 -2.0358
   93SAPC   O31 8975   4.112   3.944   5.920  0.3584 -0.1844  0.0116
   93SAPC   C31 8976   4.126   4.069   5.954 -0.2501 -0.6427  0.2635
   93SAPC   O32 8977   4.125   4.121   6.066  0.0594  0.0521 -0.4387
   93SAPC   C32 8978   4.156   4.164   5.835  0.0864 -0.1855 -0.2962
   93SAPC   H2X 8979   4.266   4.172   5.841  0.0122  0.0234  2.0928
   93SAPC   H2Y 8980   4.114   4.262   5.866  0.9432 -0.4727  2.0364
   93SAPC   C23 8981   3.664   3.993   5.688  0.2309 -0.5015 -0.5327
   93SAPC   H3R 8982   3.740   4.074   5.691 -0.9479  0.8642 -3.4661
   93SAPC   H3S 8983   3.595   4.015   5.772  1.6883 -0.6079  0.7353
   93SAPC   C24 8984   3.612   3.966   5.546 -0.4613 -0.5268  0.1458
   93SAPC   H4R 8985   3.544   4.051   5.528 -0.3613 -0.3566  0.5717
   93SAPC   H4S 8986   3.552   3.872   5.553 -0.7686 -0.4062 -0.7317
   93SAPC   C25 8987   3.719   3.948   5.440 -0.1814  0.2577 -0.5670
   93SAPC   H5R 8988   3.806   3.888   5.471  0.2555  1.4323  0.5557
   93SAPC   C26 8989   3.716   3.995   5.314 -0.2407  0.8181  0.0255
   93SAPC   H6R 8990   3.812   3.993   5.260 -0.2503  0.5613  0.0145
   93SAPC   C27 8991   3.615   4.068   5.230  0.8978 -0.8734 -0.6210
   93SAPC   H7R 8992   3.657   4.157   5.178 -1.1927 -1.2529 -3.1752
   93SAPC   H7S 8993   3.541   4.118   5.296  0.8633 -1.5777 -0.1213
   93SAPC   C28 8994   3.534   3.973   5.151 -0.3055  0.0465 -0.7608
   93SAPC   H8R 8995   3.463   3.923   5.218  0.0436  0.8128  0.2096
   93SAPC   C29 8996   3.515   3.963   5.023  0.4729 -0.1036 -0.0522
   93SAPC   H9R 8997   3.434   3.900   4.983  1.1602  0.8354 -3.1626
   93SAPC  C210 8998   3.590   4.030   4.917 -0.0351  0.9469  0.1798
   93SAPC  H10R 8999   3.686   4.070   4.955  0.4657  0.5275 -0.6420
   93SAPC  H10S 9000   3.525   4.112   4.879 -0.5556  0.7462  0.6244
   93SAPC  C211 9001   3.627   3.930   4.806 -0.5313 -0.0852 -0.2166
   93SAPC  H11R 9002   3.698   3.856   4.844  1.2839  1.7420  0.1415
   93SAPC  C212 9003   3.615   3.950   4.675  0.1124 -0.1428 -0.1864
   93SAPC  H12R 9004   3.642   3.866   4.609 -1.2093 -1.2320  0.6018
   93SAPC  C213 9005   3.549   4.067   4.619  0.2729  0.1058 -0.4210
   93SAPC  H13R 9006   3.583   4.155   4.677  0.1232 -1.1755  1.7276
   93SAPC  H13S 9007   3.439   4.063   4.604  0.2963  1.0310 -0.9442
   93SAPC  C214 9008   3.587   4.086   4.476  0.2506 -0.4350 -1.2322
   93SAPC  H14R 9009   3.695   4.102   4.459 -0.0192  0.8756 -1.9140
   93SAPC  C215 9010   3.514   4.072   4.364 -0.1011 -0.8137  0.3648
   93SAPC  H15R 9011   3.572   4.087   4.271  0.7683 -0.3759  0.9669
   93SAPC  C216 9012   3.366   4.044   4.356 -0.2269  0.2716  0.3097
   93SAPC  H16R 9013   3.318   4.104   4.276  1.2859  0.5193 -0.4515
   93SAPC  H16S 9014   3.308   4.083   4.443 -0.1439  1.1030  0.0016
   93SAPC  C217 9015   3.345   3.898   4.325  0.0126  1.0003  0.8201
   93SAPC  H17R 9016   3.236   3.875   4.329  0.4467 -1.2628  1.1456
   93SAPC  H17S 9017   3.395   3.835   4.401 -1.5431 -2.0615 -0.5032
   93SAPC  C218 9018   3.386   3.855   4.181  0.6771 -0.1588 -0.1205
   93SAPC  H18R 9019   3.488   3.896   4.161  0.0439  0.8994 -1.3090
   93SAPC  H18S 9020   3.323   3.899   4.101  0.8278  0.0245 -0.1398
   93SAPC  C219 9021   3.388   3.699   4.160 -0.0822  0.0562  0.2036
   93SAPC  H19R 9022   3.284   3.669   4.188  0.6087  0.7444  4.0764
   93SAPC  H19S 9023   3.455   3.655   4.237  1.8403  1.3655 -0.6422
   93SAPC  C220 9024   3.413   3.645   4.016  0.2201 -0.7014 -0.4556
   93SAPC  H20R 9025   3.388   3.538   3.997  2.3244 -1.3005 -0.0923
   93SAPC  H20S 9026   3.519   3.664   3.986  0.5807  0.9177  1.6119
   93SAPC  H20T 9027   3.353   3.713   3.952  0.3155 -1.0601 -0.9358
   93SAPC   C33 9028   4.079   4.113   5.708 -0.4282 -0.4327 -0.6319
   93SAPC   H3X 9029   3.977   4.073   5.725 -0.2785 -1.6116 -2.2573
   93SAPC   H3Y 9030   4.143   4.033   5.663  1.6906 -0.7892  2.6389
   93SAPC   C34 9031   4.078   4.224   5.603  0.1994 -0.2061  0.0465
   93SAPC   H4X 9032   4.177   4.274   5.594  0.1055 -0.0086  0.1084
   93SAPC   H4Y 9033   4.007   4.299   5.643  0.0526 -1.5120  2.4435
   93SAPC   C35 9034   4.044   4.162   5.471  0.5239  0.3990  0.6317
   93SAPC   H5X 9035   3.935   4.156   5.449 -0.0380 -0.5906  3.3408
   93SAPC   H5Y 9036   4.080   4.057   5.464  0.3003  0.4287 -1.7735
   93SAPC   C36 9037   4.114   4.240   5.358  0.2940  0.3619 -0.7964
   93SAPC   H6X 9038   4.220   4.244   5.392  0.4598 -0.5708 -1.1847
   93SAPC   H6Y 9039   4.077   4.345   5.358  1.1156  0.6812  0.8406
   93SAPC   C37 9040   4.089   4.190   5.221 -0.6802 -0.1235 -0.2574
   93SAPC   H7X 9041   3.979   4.178   5.212 -0.6739  0.7406 -2.2331
   93SAPC   H7Y 9042   4.132   4.088   5.217  1.7901  0.8019  0.8780
   93SAPC   C38 9043   4.152   4.271   5.103  0.2993  0.3597 -0.5595
   93SAPC   H8X 9044   4.256   4.300   5.129 -0.0728 -0.1965  1.7930
   93SAPC   H8Y 9045   4.103   4.371   5.093  1.1366  0.6877 -1.6117
   93SAPC   C39 9046   4.148   4.193   4.972  0.2547  0.0476 -0.0785
   93SAPC   H9X 9047   4.056   4.132   4.962  2.0161 -2.6270 -1.5938
   93SAPC   H9Y 9048   4.232   4.119   4.970  1.6842  1.5191  1.8986
   93SAPC  C310 9049   4.169   4.266   4.845  0.3527 -0.5593 -0.1786
   93SAPC  H10X 9050   4.274   4.303   4.841  0.3297 -0.5329 -0.5234
   93SAPC  H10Y 9051   4.094   4.348   4.849  0.1282 -0.7756  0.0946
   93SAPC  C311 9052   4.130   4.174   4.724 -0.4463 -0.4080 -0.9673
   93SAPC  H11X 9053   4.027   4.146   4.753 -0.8749  0.0969 -1.9452
   93SAPC  H11Y 9054   4.184   4.077   4.721 -0.8492 -0.6925  0.2869
   93SAPC  C312 9055   4.120   4.253   4.599 -0.0272 -0.7512  0.3042
   93SAPC  H12X 9056   4.064   4.346   4.625 -1.8493 -1.3373 -1.2148
   93SAPC  H12Y 9057   4.069   4.198   4.516  0.9431  0.6727 -1.3093
   93SAPC  C313 9058   4.262   4.306   4.548 -0.6033  0.3601  0.0482
   93SAPC  H13X 9059   4.337   4.225   4.561 -0.6817  0.2403 -0.2477
   93SAPC  H13Y 9060   4.297   4.395   4.606  2.6165 -0.6718 -0.1404
   93SAPC  C314 9061   4.258   4.359   4.401  0.4184  0.1196  0.0827
   93SAPC  H14X 9062   4.169   4.425   4.399 -1.8155 -2.7173 -0.4949
   93SAPC  H14Y 9063   4.242   4.265   4.344  0.1718 -0.3756  0.9575
   93SAPC  C315 9064   4.380   4.443   4.343  0.0390 -0.2129 -0.2212
   93SAPC  H15X 9065   4.473   4.391   4.376  0.4162 -1.2874 -2.7437
   93SAPC  H15Y 9066   4.393   4.545   4.386  0.5155 -1.2916  2.4095
   93SAPC  C316 9067   4.387   4.451   4.189 -0.5806 -0.2942 -0.2878
   93SAPC  H16X 9068   4.311   4.518   4.141 -0.3284  1.0327  1.0910
   93SAPC  H16Y 9069   4.379   4.344   4.161 -2.5143 -0.3199  0.2395
   93SAPC  C317 9070   4.523   4.516   4.155 -0.0767 -0.2658  0.1413
   93SAPC  H17X 9071   4.594   4.466   4.224  0.9714  0.6992 -0.1965
   93SAPC  H17Y 9072   4.538   4.622   4.185 -0.3260 -0.1186 -0.2467
   93SAPC  C318 9073   4.573   4.490   4.010 -0.0066 -0.0096  0.6480
   93SAPC  H18X 9074   4.514   4.551   3.938 -0.7792 -1.1266  0.3066
   93SAPC  H18Y 9075   4.577   4.381   3.989  0.2537 -0.2327  1.7645
   93SAPC  H18Z 9076   4.679   4.520   3.993  0.4879 -1.9950  0.0126
   94SAPC     N 9077   3.466   2.824   6.205  0.0312  0.0144  0.5005
   94SAPC   C12 9078   3.448   2.840   6.353  0.1102  0.5666 -0.5809
   94SAPC  H12A 9079   3.518   2.913   6.390  0.2514 -0.9047  2.2663
   94SAPC  H12B 9080   3.487   2.755   6.405  0.9051  1.5257  0.4218
   94SAPC   C13 9081   3.613   2.813   6.181  0.4214  0.3873  0.0782
   94SAPC  H13A 9082   3.648   2.720   6.223  1.0730  0.4207 -0.3765
   94SAPC  H13B 9083   3.636   2.814   6.076  0.8005  3.9656  0.0665
   94SAPC  H13C 9084   3.674   2.896   6.214  2.0590 -1.0013  0.6578
   94SAPC   C14 9085   3.389   2.707   6.156 -0.4893  0.3997 -0.1464
   94SAPC  H14A 9086   3.283   2.718   6.174  0.1144  2.2215  3.1125
   94SAPC  H14B 9087   3.407   2.687   6.051  0.7710  1.2329 -0.1201
   94SAPC  H14C 9088   3.417   2.616   6.206 -0.6953  1.2180  1.5240
   94SAPC   C15 9089   3.421   2.952   6.136 -0.0038 -0.7288  0.0491
   94SAPC  H15A 9090   3.480   3.039   6.159  0.5479 -1.0223 -0.2427
   94SAPC  H15B 9091   3.407   2.944   6.030  0.1747  0.8151 -0.1130
   94SAPC  H15C 9092   3.322   2.968   6.177 -0.3178 -1.0468 -0.5785
   94SAPC   C11 9093   3.304   2.861   6.404  0.1091  0.3847  0.4659
   94SAPC  H11A 9094   3.256   2.927   6.329 -0.3990 -0.4653  0.0167
   94SAPC  H11B 9095   3.301   2.917   6.499 -2.3715  0.3102  0.4914
   94SAPC     P 9096   3.096   2.717   6.382  0.1049 -0.3785  0.5086
   94SAPC   O13 9097   3.066   2.575   6.395  0.3310 -0.7656 -0.5425
   94SAPC   O14 9098   3.020   2.820   6.448 -0.0639 -0.2845 -0.2312
   94SAPC   O12 9099   3.243   2.732   6.412 -0.1335 -0.1541  0.0777
   94SAPC   O11 9100   3.091   2.760   6.233 -0.2274 -0.2985 -0.1346
   94SAPC    C1 9101   3.002   2.695   6.137 -0.6631 -0.0730 -0.0222
   94SAPC    HA 9102   2.987   2.588   6.161 -0.4791 -0.2356 -0.6285
   94SAPC    HB 9103   2.897   2.732   6.139 -1.1147 -1.1834 -1.3781
   94SAPC    C2 9104   3.052   2.705   5.991 -0.2159  0.0706  0.1256
   94SAPC    HS 9105   2.965   2.679   5.927 -0.7433 -0.7724  1.1644
   94SAPC   O21 9106   3.171   2.628   5.981 -0.4345 -0.0334 -0.3545
   94SAPC   C21 9107   3.152   2.511   5.913 -0.7532 -0.5129  0.0244
   94SAPC   O22 9108   3.043   2.466   5.884 -0.6280  0.5095 -0.5292
   94SAPC   C22 9109   3.287   2.449   5.890 -0.9078 -0.0065 -0.1874
   94SAPC   H2R 9110   3.360   2.526   5.858 -1.3393  0.7246  0.5496
   94SAPC   H2S 9111   3.320   2.422   5.993 -0.2196  0.9607 -0.1432
   94SAPC    C3 9112   3.089   2.848   5.947 -0.8191  0.5312  1.0004
   94SAPC    HX 9113   3.162   2.881   6.024  0.8922 -1.6050  0.4046
   94SAPC    HY 9114   2.995   2.907   5.949 -1.7255 -0.2974 -3.8585
   94SAPC   O31 9115   3.147   2.865   5.808 -0.0426 -0.2713 -0.3547
   94SAPC   C31 9116   3.272   2.863   5.789 -0.1840 -0.0253 -0.1912
   94SAPC   O32 9117   3.362   2.833   5.865  0.4008  0.0193 -0.1158
   94SAPC   C32 9118   3.302   2.875   5.636  0.4928  0.0558 -0.5707
   94SAPC   H2X 9119   3.381   2.952   5.622 -0.6378  1.4967  0.6137
   94SAPC   H2Y 9120   3.214   2.923   5.590  0.0651 -1.4938 -1.4560
   94SAPC   C23 9121   3.269   2.323   5.788  0.6755  0.5529 -0.6808
   94SAPC   H3R 9122   3.187   2.266   5.838  0.9045  1.2241  0.4927
   94SAPC   H3S 9123   3.361   2.260   5.789 -1.3638 -2.6893 -0.7257
   94SAPC   C24 9124   3.248   2.360   5.640 -0.8222 -0.3252 -0.1151
   94SAPC   H4R 9125   3.338   2.401   5.588 -0.9802  0.5709  0.3027
   94SAPC   H4S 9126   3.174   2.443   5.643  0.1467  0.6783 -1.8589
   94SAPC   C25 9127   3.190   2.245   5.563 -0.5843 -0.3420 -0.1700
   94SAPC   H5R 9128   3.111   2.197   5.622 -0.5072 -0.2628  0.0006
   94SAPC   C26 9129   3.218   2.190   5.440  0.0342 -0.1234  0.0317
   94SAPC   H6R 9130   3.158   2.106   5.401 -1.9337  1.3810 -0.3686
   94SAPC   C27 9131   3.319   2.241   5.344 -0.3547 -0.4217 -0.1162
   94SAPC   H7R 9132   3.386   2.158   5.314  0.7225  0.3393  0.1354
   94SAPC   H7S 9133   3.390   2.313   5.391 -1.0273 -1.2671  2.3513
   94SAPC   C28 9134   3.248   2.303   5.230  0.0712 -0.2329 -0.6632
   94SAPC   H8R 9135   3.151   2.347   5.260 -0.6369 -0.9773 -1.8260
   94SAPC   C29 9136   3.273   2.275   5.098 -0.3023  0.8150 -0.2930
   94SAPC   H9R 9137   3.216   2.335   5.026  0.9275  2.7638  0.2935
   94SAPC  C210 9138   3.374   2.178   5.036  0.4437  0.1683 -0.2054
   94SAPC  H10R 9139   3.328   2.095   4.979  1.7011 -1.4965  1.1240
   94SAPC  H10S 9140   3.428   2.137   5.124 -0.1521  1.8841  1.0221
   94SAPC  C211 9141   3.467   2.252   4.948  0.7638 -0.6142  0.6209
   94SAPC  H11R 9142   3.460   2.361   4.940  2.1861 -0.4460  1.4781
   94SAPC  C212 9143   3.563   2.201   4.867  0.2814 -0.3536 -0.6131
   94SAPC  H12R 9144   3.628   2.263   4.804  0.3294 -0.9772 -1.1868
   94SAPC  C213 9145   3.609   2.063   4.865 -0.4685  0.4218  0.2103
   94SAPC  H13R 9146   3.573   2.018   4.960  0.7065  0.7501  0.8281
   94SAPC  H13S 9147   3.719   2.052   4.862 -0.6688 -2.1899 -0.1297
   94SAPC  C214 9148   3.532   1.995   4.743 -0.4600 -0.2428  0.6095
   94SAPC  H14R 9149   3.442   2.048   4.709  0.7611 -0.2345 -3.0463
   94SAPC  C215 9150   3.556   1.869   4.704 -0.4970  1.4045 -0.0609
   94SAPC  H15R 9151   3.494   1.815   4.631  0.5691 -1.0030  0.7133
   94SAPC  C216 9152   3.663   1.770   4.743  0.5544  0.6043  0.4253
   94SAPC  H16R 9153   3.622   1.667   4.736 -0.9786  1.2720 -1.2950
   94SAPC  H16S 9154   3.708   1.780   4.844  0.9348  0.4697  0.2712
   94SAPC  C217 9155   3.794   1.787   4.662 -0.6463  0.6009  0.2333
   94SAPC  H17R 9156   3.878   1.727   4.702  0.1984  0.9913 -0.8921
   94SAPC  H17S 9157   3.824   1.894   4.657  0.4299  0.4636  2.5889
   94SAPC  C218 9158   3.780   1.737   4.512 -0.0426 -0.0134 -0.3158
   94SAPC  H18R 9159   3.713   1.797   4.447 -1.1399  0.0117  0.7878
   94SAPC  H18S 9160   3.739   1.634   4.512 -2.2727  0.8010  1.0277
   94SAPC  C219 9161   3.915   1.746   4.434  0.1547  0.2550 -0.0368
   94SAPC  H19R 9162   3.992   1.679   4.479  0.5386  0.7673  0.0750
   94SAPC  H19S 9163   3.961   1.847   4.435  0.3118  0.1855  0.7867
   94SAPC  C220 9164   3.898   1.702   4.285 -1.0404 -0.1346  0.1336
   94SAPC  H20R 9165   3.862   1.598   4.276 -3.2741  0.5681  0.2010
   94SAPC  H20S 9166   4.002   1.706   4.248 -0.3967 -2.5100  1.4933
   94SAPC  H20T 9167   3.833   1.777   4.234  0.0234  0.9405  0.3140
   94SAPC   C33 9168   3.325   2.745   5.565 -0.1818  0.0319  0.6065
   94SAPC   H3X 9169   3.240   2.675   5.584  0.7375 -0.9270  1.3092
   94SAPC   H3Y 9170   3.412   2.686   5.601 -0.4699 -0.0369  1.2021
   94SAPC   C34 9171   3.346   2.757   5.413  0.7505 -0.2701  0.7298
   94SAPC   H4X 9172   3.416   2.843   5.405 -0.0630  0.2524 -1.3723
   94SAPC   H4Y 9173   3.255   2.788   5.359  1.2738 -0.1363 -0.0996
   94SAPC   C35 9174   3.402   2.628   5.351 -0.6281 -0.3806  0.8546
   94SAPC   H5X 9175   3.328   2.547   5.367 -2.6504  1.0538 -0.7807
   94SAPC   H5Y 9176   3.492   2.608   5.413  1.2800 -1.9099 -2.1992
   94SAPC   C36 9177   3.433   2.644   5.199 -0.8640 -0.8678 -0.8122
   94SAPC   H6X 9178   3.472   2.551   5.152 -2.2295 -1.8380 -0.1226
   94SAPC   H6Y 9179   3.503   2.729   5.191 -2.8752  1.1122  1.1294
   94SAPC   C37 9180   3.315   2.706   5.118 -0.2321 -0.0189  0.3722
   94SAPC   H7X 9181   3.289   2.808   5.153  1.0646  0.7088 -0.7261
   94SAPC   H7Y 9182   3.225   2.641   5.120  0.0983 -0.4818  0.2695
   94SAPC   C38 9183   3.360   2.739   4.972  0.0891  0.0021  0.6509
   94SAPC   H8X 9184   3.471   2.737   4.967  0.1729 -1.2968  2.3331
   94SAPC   H8Y 9185   3.334   2.843   4.941  0.0195  0.5119  2.3297
   94SAPC   C39 9186   3.316   2.626   4.875  0.0544  0.0568 -0.6218
   94SAPC   H9X 9187   3.206   2.623   4.858 -0.0973  0.7260  0.1814
   94SAPC   H9Y 9188   3.330   2.533   4.934 -0.1099 -0.7491 -1.8256
   94SAPC  C310 9189   3.399   2.637   4.748 -0.0301  0.3970 -0.1514
   94SAPC  H10X 9190   3.503   2.666   4.774  0.3529 -2.9027  2.7072
   94SAPC  H10Y 9191   3.361   2.717   4.681  0.8003  2.5344  1.8086
   94SAPC  C311 9192   3.399   2.505   4.671 -0.1343 -0.5574 -0.8786
   94SAPC  H11X 9193   3.294   2.475   4.652 -0.6485 -1.8316  3.0100
   94SAPC  H11Y 9194   3.444   2.431   4.741 -0.4099 -0.0132 -0.1090
   94SAPC  C312 9195   3.494   2.495   4.552 -0.1037 -0.7804  0.1239
   94SAPC  H12X 9196   3.599   2.479   4.583  0.5714  0.0853 -1.5668
   94SAPC  H12Y 9197   3.495   2.586   4.489  1.1406  0.5428  1.9352
   94SAPC  C313 9198   3.459   2.381   4.459 -0.6539 -0.4287  0.9650
   94SAPC  H13X 9199   3.352   2.396   4.432 -0.3878  0.3801  0.3237
   94SAPC  H13Y 9200   3.474   2.280   4.501  1.1869 -1.0245 -0.9858
   94SAPC  C314 9201   3.548   2.386   4.325  0.5418 -0.2939 -0.0293
   94SAPC  H14X 9202   3.648   2.341   4.344  1.9343  2.4378 -0.3277
   94SAPC  H14Y 9203   3.562   2.492   4.297 -3.1350  0.6063  1.0005
   94SAPC  C315 9204   3.472   2.333   4.206  0.1992  0.7142  0.1807
   94SAPC  H15X 9205   3.374   2.384   4.190  0.8478  1.8023 -0.3960
   94SAPC  H15Y 9206   3.457   2.224   4.222 -0.3663  0.9946  1.7269
   94SAPC  C316 9207   3.549   2.357   4.076 -0.2560  0.0915 -0.1146
   94SAPC  H16X 9208   3.582   2.463   4.083 -3.3075  1.0312  2.1259
   94SAPC  H16Y 9209   3.473   2.337   3.998 -1.0970 -1.2560  1.0112
   94SAPC  C317 9210   3.668   2.260   4.059 -0.3721 -0.4046 -0.2512
   94SAPC  H17X 9211   3.617   2.165   4.033  1.9066 -1.5802 -0.7280
   94SAPC  H17Y 9212   3.721   2.242   4.156  0.2931  0.4403 -0.4474
   94SAPC  C318 9213   3.764   2.297   3.946 -0.1055 -0.1973 -0.1534
   94SAPC  H18X 9214   3.852   2.230   3.937 -0.9043 -0.9887 -3.1346
   94SAPC  H18Y 9215   3.799   2.402   3.957 -1.1839  0.2239 -0.6015
   94SAPC  H18Z 9216   3.705   2.297   3.852 -2.1540  0.3259  1.0639
   95SAPC     N 9217   4.507   6.238   1.667  0.9102  0.1549 -0.1649
   95SAPC   C12 9218   4.433   6.220   1.799  0.1558  0.6701 -0.6252
   95SAPC  H12A 9219   4.377   6.128   1.804 -1.2611  1.5865  2.8028
   95SAPC  H12B 9220   4.368   6.304   1.816  0.5432  0.8339  0.0720
   95SAPC   C13 9221   4.404   6.244   1.555  0.2880 -0.1812  0.3870
   95SAPC  H13A 9222   4.332   6.323   1.568 -1.3825 -1.7922  1.2464
   95SAPC  H13B 9223   4.461   6.262   1.465 -1.9444 -0.2678 -1.1027
   95SAPC  H13C 9224   4.347   6.153   1.547 -1.2637  0.7949 -0.0987
   95SAPC   C14 9225   4.574   6.371   1.675 -0.1649 -1.1260 -0.7061
   95SAPC  H14A 9226   4.633   6.373   1.765  1.1098  0.4965 -1.5211
   95SAPC  H14B 9227   4.647   6.383   1.596  1.5801  1.3421  1.1152
   95SAPC  H14C 9228   4.509   6.457   1.678 -0.0509 -1.0692  1.5305
   95SAPC   C15 9229   4.608   6.131   1.649 -0.0355 -0.1870  0.3411
   95SAPC  H15A 9230   4.647   6.125   1.548 -1.1997 -0.2807 -0.1212
   95SAPC  H15B 9231   4.690   6.148   1.717  0.3107 -1.6611  0.3376
   95SAPC  H15C 9232   4.565   6.033   1.663  1.2681 -0.9576 -0.7961
   95SAPC   C11 9233   4.520   6.203   1.922  0.7692 -0.4925  0.2611
   95SAPC  H11A 9234   4.464   6.247   2.007  1.5033  2.6841 -0.7675
   95SAPC  H11B 9235   4.615   6.261   1.918  0.3106  0.3216  0.8921
   95SAPC     P 9236   4.606   6.014   2.080 -0.1542 -0.1786  0.0395
   95SAPC   O13 9237   4.495   5.956   2.152  0.3714 -0.0173  0.3113
   95SAPC   O14 9238   4.725   5.930   2.049 -0.4749  0.0200  0.1070
   95SAPC   O12 9239   4.559   6.069   1.938  0.8108 -0.0748 -0.1491
   95SAPC   O11 9240   4.651   6.142   2.161 -0.3394  0.2082  0.0120
   95SAPC    C1 9241   4.791   6.158   2.202  0.4932 -0.2296 -0.8312
   95SAPC    HA 9242   4.864   6.115   2.130 -1.7188 -0.2823 -3.1814
   95SAPC    HB 9243   4.814   6.266   2.214  1.3389 -0.3200 -1.5540
   95SAPC    C2 9244   4.823   6.085   2.336 -0.9739  0.0485  0.4197
   95SAPC    HS 9245   4.817   5.975   2.320  0.6500 -0.1188  0.7714
   95SAPC   O21 9246   4.739   6.132   2.437 -0.7595  0.2403 -0.0361
   95SAPC   C21 9247   4.660   6.047   2.501  0.2594 -0.5840  1.2877
   95SAPC   O22 9248   4.630   5.934   2.472  0.0702  0.3416 -0.6981
   95SAPC   C22 9249   4.618   6.113   2.631  0.2598 -0.0663  0.2050
   95SAPC   H2R 9250   4.579   6.028   2.691 -0.3588  1.3955  1.9785
   95SAPC   H2S 9251   4.706   6.158   2.681  0.6503 -0.2007 -0.3486
   95SAPC    C3 9252   4.969   6.117   2.381 -0.3538  1.0941 -0.7316
   95SAPC    HX 9253   4.974   6.227   2.370  1.0505  0.9856 -1.3725
   95SAPC    HY 9254   5.044   6.077   2.310  0.4296 -0.2252  0.7643
   95SAPC   O31 9255   4.995   6.070   2.524 -0.3050  0.3244  0.4602
   95SAPC   C31 9256   5.126   6.092   2.553  0.3706  0.2069  0.1442
   95SAPC   O32 9257   5.206   6.145   2.475  0.2182  0.1195  0.4343
   95SAPC   C32 9258   5.156   6.047   2.695 -0.2708  0.4514  0.4631
   95SAPC   H2X 9259   5.093   5.961   2.725 -0.3317  0.0214 -0.8358
   95SAPC   H2Y 9260   5.137   6.135   2.760  1.4744  0.4916  0.9749
   95SAPC   C23 9261   4.511   6.226   2.597  0.0142  0.4348  0.1513
   95SAPC   H3R 9262   4.429   6.185   2.535  0.5511 -1.9655  0.9085
   95SAPC   H3S 9263   4.567   6.297   2.531 -0.8200 -0.5779 -1.7203
   95SAPC   C24 9264   4.465   6.293   2.722 -0.2172  0.2664 -0.2904
   95SAPC   H4R 9265   4.400   6.368   2.672 -0.4658  0.4407  0.2840
   95SAPC   H4S 9266   4.537   6.350   2.785 -1.1224 -0.5629  1.5584
   95SAPC   C25 9267   4.381   6.199   2.800 -0.3470  0.4506 -0.3713
   95SAPC   H5R 9268   4.307   6.150   2.735  0.3096 -2.2747  0.7862
   95SAPC   C26 9269   4.369   6.182   2.935 -0.3654 -0.0709  0.5142
   95SAPC   H6R 9270   4.308   6.102   2.977  0.2466 -0.2696  1.0443
   95SAPC   C27 9271   4.469   6.240   3.034 -0.1985  0.0811  0.2571
   95SAPC   H7R 9272   4.549   6.300   2.987  2.1282 -2.2243  1.0596
   95SAPC   H7S 9273   4.522   6.162   3.092 -2.2046 -0.3522  1.6389
   95SAPC   C28 9274   4.414   6.342   3.137  0.3576  0.1220 -0.6156
   95SAPC   H8R 9275   4.425   6.450   3.120  0.2583  0.4539  1.2198
   95SAPC   C29 9276   4.354   6.313   3.254 -0.2007  0.3708 -0.1597
   95SAPC   H9R 9277   4.327   6.397   3.319 -0.3446  0.4594 -0.3338
   95SAPC  C210 9278   4.314   6.179   3.304 -0.7716 -0.1541  0.8575
   95SAPC  H10R 9279   4.359   6.181   3.406 -0.5132  1.0938  0.7438
   95SAPC  H10S 9280   4.365   6.099   3.247 -1.2438 -0.1139  0.3739
   95SAPC  C211 9281   4.169   6.132   3.312 -1.0478  0.1295  0.5501
   95SAPC  H11R 9282   4.129   6.097   3.216 -1.2600  2.4375 -0.2652
   95SAPC  C212 9283   4.091   6.128   3.424 -0.4053  0.1804 -1.0102
   95SAPC  H12R 9284   3.990   6.086   3.423 -0.3465 -0.4536  2.8390
   95SAPC  C213 9285   4.128   6.188   3.560  0.0901  0.0944  0.0514
   95SAPC  H13R 9286   4.222   6.247   3.555  0.8002 -1.0531 -1.0097
   95SAPC  H13S 9287   4.158   6.101   3.622  3.0256  0.9130 -0.0546
   95SAPC  C214 9288   4.017   6.261   3.624 -0.5671 -0.1576  0.2957
   95SAPC  H14R 9289   3.943   6.312   3.559  1.3159  1.4515 -0.6802
   95SAPC  C215 9290   4.005   6.275   3.753 -0.4401 -0.6665  0.1074
   95SAPC  H15R 9291   3.922   6.334   3.796 -0.0108 -0.0246  0.0801
   95SAPC  C216 9292   4.101   6.217   3.851  0.0853  0.2158 -0.0396
   95SAPC  H16R 9293   4.102   6.284   3.940  1.8878  0.2503 -0.0659
   95SAPC  H16S 9294   4.208   6.200   3.828  0.4464  0.7744  1.1652
   95SAPC  C217 9295   4.057   6.075   3.906  0.3660  0.2146 -0.2850
   95SAPC  H17R 9296   4.013   6.023   3.818 -1.4234  0.2634  0.5267
   95SAPC  H17S 9297   3.981   6.094   3.985 -0.5048 -0.6788 -0.8795
   95SAPC  C218 9298   4.172   5.993   3.969 -0.0912  0.2268  0.0205
   95SAPC  H18R 9299   4.251   5.973   3.894  0.1519 -0.2636  0.3950
   95SAPC  H18S 9300   4.119   5.901   4.003 -0.3632  0.4825  0.3015
   95SAPC  C219 9301   4.239   6.054   4.091  0.0973  0.1871  0.3949
   95SAPC  H19R 9302   4.175   6.051   4.182 -1.2085  0.4771 -0.4862
   95SAPC  H19S 9303   4.252   6.163   4.070  0.4961  0.6029  2.5254
   95SAPC  C220 9304   4.383   6.011   4.130  0.4899 -0.5904  0.4651
   95SAPC  H20R 9305   4.457   6.061   4.064  0.1553 -1.2404 -0.4358
   95SAPC  H20S 9306   4.389   5.900   4.126  0.0435 -0.5930 -1.4458
   95SAPC  H20T 9307   4.411   6.046   4.231  1.5649  0.1045 -0.0623
   95SAPC   C33 9308   5.301   6.005   2.721 -0.3581 -0.3393  0.0819
   95SAPC   H3X 9309   5.366   6.090   2.692  0.4379 -1.4220 -1.4402
   95SAPC   H3Y 9310   5.329   5.929   2.646 -1.6370 -0.0554 -0.7149
   95SAPC   C34 9311   5.323   5.965   2.865 -0.3662  0.2576  0.8648
   95SAPC   H4X 9312   5.262   6.027   2.934  0.4739  0.8787  1.0703
   95SAPC   H4Y 9313   5.430   5.986   2.891 -0.1896 -0.8468  1.0591
   95SAPC   C35 9314   5.302   5.818   2.902  0.7419 -0.9901  0.3633
   95SAPC   H5X 9315   5.333   5.753   2.818 -2.7284 -0.2827 -1.6612
   95SAPC   H5Y 9316   5.193   5.803   2.918  0.2267  1.0269 -0.9559
   95SAPC   C36 9317   5.381   5.775   3.021 -0.5715  0.1359  0.8907
   95SAPC   H6X 9318   5.344   5.827   3.111 -1.4986  3.3288 -1.1819
   95SAPC   H6Y 9319   5.487   5.806   3.005 -0.5076 -0.6158 -0.3138
   95SAPC   C37 9320   5.383   5.619   3.041 -0.5760 -0.2682 -0.2990
   95SAPC   H7X 9321   5.428   5.562   2.957 -2.0607 -0.5922 -0.9145
   95SAPC   H7Y 9322   5.276   5.595   3.059 -1.0462  0.8034 -1.5533
   95SAPC   C38 9323   5.455   5.586   3.179  0.1611 -0.8483  0.1486
   95SAPC   H8X 9324   5.392   5.608   3.267  0.2909  0.6050 -0.0954
   95SAPC   H8Y 9325   5.529   5.667   3.193  0.1421 -1.0806  1.7058
   95SAPC   C39 9326   5.541   5.460   3.177 -0.1225  0.6236 -0.1097
   95SAPC   H9X 9327   5.600   5.452   3.083  0.0776  0.3298  0.0390
   95SAPC   H9Y 9328   5.482   5.367   3.176 -1.0496  1.1961 -1.1940
   95SAPC  C310 9329   5.633   5.454   3.297  0.3997  0.6522  0.1086
   95SAPC  H10X 9330   5.693   5.547   3.308  0.8620  0.7853 -2.7645
   95SAPC  H10Y 9331   5.706   5.375   3.271  0.3004  1.1510 -1.8736
   95SAPC  C311 9332   5.559   5.422   3.430 -0.6616  0.1440 -0.7412
   95SAPC  H11X 9333   5.522   5.319   3.414  0.7663 -0.3368 -1.1733
   95SAPC  H11Y 9334   5.474   5.490   3.445  0.7078  1.7178  0.1835
   95SAPC  C312 9335   5.650   5.446   3.555  0.5878  0.4296  0.7487
   95SAPC  H12X 9336   5.688   5.551   3.559  0.5236  0.6674 -2.3824
   95SAPC  H12Y 9337   5.742   5.389   3.531  0.2519 -0.2571  1.0692
   95SAPC  C313 9338   5.594   5.395   3.684  0.1206 -0.5596 -0.2446
   95SAPC  H13X 9339   5.560   5.290   3.670 -0.8703 -0.9168  3.6896
   95SAPC  H13Y 9340   5.502   5.455   3.699 -0.7436 -1.9731  0.3936
   95SAPC  C314 9341   5.690   5.408   3.803 -1.0157 -0.7083  0.5555
   95SAPC  H14X 9342   5.630   5.394   3.895  0.8573  0.6247  2.0363
   95SAPC  H14Y 9343   5.742   5.506   3.796 -0.3335 -1.1192 -0.3548
   95SAPC  C315 9344   5.792   5.302   3.797 -0.3874  0.0162 -0.4250
   95SAPC  H15X 9345   5.846   5.301   3.700 -0.0277 -0.2868 -0.2243
   95SAPC  H15Y 9346   5.750   5.199   3.798 -0.2614 -0.0338  0.6926
   95SAPC  C316 9347   5.898   5.325   3.912 -0.6782 -0.2844 -0.0374
   95SAPC  H16X 9348   5.860   5.335   4.016 -0.8581 -1.3391  0.0154
   95SAPC  H16Y 9349   5.944   5.420   3.880  0.8540 -0.0454  2.5950
   95SAPC  C317 9350   5.995   5.205   3.908  0.0420 -0.0042  0.1724
   95SAPC  H17X 9351   6.041   5.198   3.808 -0.4341  0.1036 -0.0552
   95SAPC  H17Y 9352   5.932   5.114   3.915  2.4536 -1.7267  0.7926
   95SAPC  C318 9353   6.108   5.189   4.014  0.1409 -0.3488  0.1303
   95SAPC  H18X 9354   6.054   5.178   4.110 -0.7088  0.0163 -0.2986
   95SAPC  H18Y 9355   6.172   5.280   4.023 -1.1320  0.3847  2.4938
   95SAPC  H18Z 9356   6.185   5.112   3.992  1.9584  1.5667 -0.5139
   96SAPC     N 9357   0.629   2.456   1.871 -0.0115  0.8036  0.1123
   96SAPC   C12 9358   0.493   2.419   1.929 -0.3890 -0.0370  0.8031
   96SAPC  H12A 9359   0.479   2.479   2.017  1.0850  3.9426 -1.4416
   96SAPC  H12B 9360   0.500   2.314   1.954  0.9523  0.0261  0.7912
   96SAPC   C13 9361   0.662   2.366   1.752  0.7559 -0.4851  0.1646
   96SAPC  H13A 9362   0.753   2.391   1.700  0.5593 -1.0542 -0.4834
   96SAPC  H13B 9363   0.667   2.262   1.780  0.6270 -0.4675  0.2553
   96SAPC  H13C 9364   0.574   2.377   1.689 -0.9901 -1.3835  2.2912
   96SAPC   C14 9365   0.636   2.594   1.831 -0.4443 -0.2431 -0.0437
   96SAPC  H14A 9366   0.559   2.632   1.765 -1.3783  2.0663  2.1638
   96SAPC  H14B 9367   0.618   2.654   1.919 -0.0986  1.0690 -0.8317
   96SAPC  H14C 9368   0.726   2.625   1.780 -0.2051 -1.1526 -0.1791
   96SAPC   C15 9369   0.737   2.424   1.970 -0.1819 -0.0443  0.5241
   96SAPC  H15A 9370   0.836   2.448   1.936 -0.0381  1.4247  1.8884
   96SAPC  H15B 9371   0.715   2.482   2.058  1.7805  0.3465  0.7945
   96SAPC  H15C 9372   0.731   2.319   1.995 -1.0719 -0.1343  0.0000
   96SAPC   C11 9373   0.364   2.428   1.847  0.2843 -0.5325 -0.3079
   96SAPC  H11A 9374   0.285   2.398   1.920  0.3405  0.7975  0.3211
   96SAPC  H11B 9375   0.361   2.356   1.762  2.2262  1.1327 -1.8886
   96SAPC     P 9376   0.265   2.670   1.892  0.2180 -0.1288 -0.3757
   96SAPC   O13 9377   0.343   2.793   1.868 -0.3252  0.3774 -0.1819
   96SAPC   O14 9378   0.118   2.676   1.874 -0.2048 -1.3219  0.0656
   96SAPC   O12 9379   0.322   2.559   1.791 -0.2273  0.0587 -0.5513
   96SAPC   O11 9380   0.299   2.614   2.037 -0.1159  0.2278 -0.0010
   96SAPC    C1 9381   0.196   2.581   2.130 -0.0481 -0.4626  0.2290
   96SAPC    HA 9382   0.104   2.548   2.077  0.6364 -0.1810 -1.1691
   96SAPC    HB 9383   0.238   2.500   2.193 -3.0272 -1.9063  0.5507
   96SAPC    C2 9384   0.155   2.691   2.224 -0.5283 -0.1484 -0.0408
   96SAPC    HS 9385   0.122   2.776   2.160 -1.5133 -1.2241 -1.0248
   96SAPC   O21 9386   0.263   2.735   2.303 -0.2707  0.1304  0.1072
   96SAPC   C21 9387   0.242   2.858   2.359  0.3752  0.1966  0.0940
   96SAPC   O22 9388   0.143   2.927   2.340  0.4270  0.0001 -0.1516
   96SAPC   C22 9389   0.350   2.909   2.451 -0.2394 -0.2196 -1.3919
   96SAPC   H2R 9390   0.414   2.824   2.483  1.1644  0.2077 -2.9316
   96SAPC   H2S 9391   0.418   2.967   2.384  0.9830 -2.3709 -2.1060
   96SAPC    C3 9392   0.027   2.654   2.303  0.3932  0.8227 -0.3171
   96SAPC    HX 9393  -0.055   2.620   2.237  1.3289 -1.5988 -0.3346
   96SAPC    HY 9394  -0.007   2.744   2.360  1.3814  0.2408  1.2615
   96SAPC   O31 9395   0.051   2.542   2.392 -0.4486 -0.0761  0.2000
   96SAPC   C31 9396  -0.045   2.530   2.490  0.0244 -0.2156 -0.0078
   96SAPC   O32 9397  -0.132   2.610   2.511  0.2195  0.3959  0.0143
   96SAPC   C32 9398  -0.017   2.394   2.552 -0.2151 -0.7030 -0.2718
   96SAPC   H2X 9399  -0.013   2.324   2.465  1.8626  0.7705 -1.4320
   96SAPC   H2Y 9400  -0.103   2.365   2.616 -1.0795 -0.7572 -1.4154
   96SAPC   C23 9401   0.299   2.993   2.570 -0.9107  0.3274  0.6369
   96SAPC   H3R 9402   0.233   3.075   2.534 -1.9886 -0.8893 -0.2406
   96SAPC   H3S 9403   0.388   3.041   2.618 -0.3177 -0.5768  0.4517
   96SAPC   C24 9404   0.222   2.916   2.672  0.4336 -0.5073 -0.5618
   96SAPC   H4R 9405   0.287   2.841   2.722  0.0568 -0.1622  0.4928
   96SAPC   H4S 9406   0.146   2.858   2.615 -0.7272  0.4002 -0.0038
   96SAPC   C25 9407   0.145   3.007   2.776 -1.1344  0.5041  0.8831
   96SAPC   H5R 9408   0.175   3.111   2.760 -0.4129 -0.1029 -2.7018
   96SAPC   C26 9409   0.069   2.961   2.878 -0.0291 -0.0199  0.1154
   96SAPC   H6R 9410   0.020   3.043   2.933  0.2003 -0.1867  0.5713
   96SAPC   C27 9411   0.042   2.822   2.915  1.0293 -0.1723 -0.7435
   96SAPC   H7R 9412   0.096   2.795   3.008  0.3528  0.1174 -0.2550
   96SAPC   H7S 9413   0.081   2.755   2.835  1.1303  1.2455 -1.9286
   96SAPC   C28 9414  -0.104   2.776   2.917 -0.0030  0.5903 -0.3339
   96SAPC   H8R 9415  -0.142   2.709   2.838 -1.2685  1.0747 -0.1566
   96SAPC   C29 9416  -0.191   2.806   3.017 -0.3002 -0.1965 -0.1384
   96SAPC   H9R 9417  -0.293   2.765   3.016 -0.5072  0.1294 -3.2462
   96SAPC  C210 9418  -0.155   2.889   3.143 -0.2610  0.0525  0.1947
   96SAPC  H10R 9419  -0.230   2.968   3.162 -0.6657 -0.5602  1.2665
   96SAPC  H10S 9420  -0.054   2.931   3.122 -0.2663 -0.7213 -1.5562
   96SAPC  C211 9421  -0.157   2.809   3.272  0.1513 -0.0021 -0.1785
   96SAPC  H11R 9422  -0.208   2.711   3.282  1.6227 -0.8166 -0.4458
   96SAPC  C212 9423  -0.105   2.865   3.388  0.6677  0.2219  0.5844
   96SAPC  H12R 9424  -0.097   2.794   3.472  1.6435  0.6712  0.8865
   96SAPC  C213 9425  -0.044   3.002   3.394  0.1083 -0.1036 -0.2880
   96SAPC  H13R 9426  -0.118   3.084   3.394  3.3291  3.0754 -0.5752
   96SAPC  H13S 9427   0.009   3.023   3.299  1.9715 -1.5815  0.3449
   96SAPC  C214 9428   0.052   3.009   3.511  0.8993  0.4585  0.1218
   96SAPC  H14R 9429   0.005   3.062   3.596  0.7508 -0.0549  0.3593
   96SAPC  C215 9430   0.182   2.989   3.520  0.2080 -0.2471 -0.4933
   96SAPC  H15R 9431   0.239   2.992   3.613 -0.9132 -2.2155  0.3078
   96SAPC  C216 9432   0.261   2.925   3.412 -0.2700 -0.3924  0.1077
   96SAPC  H16R 9433   0.204   2.847   3.359 -3.7912  1.2193  1.2514
   96SAPC  H16S 9434   0.360   2.892   3.452  0.4029  0.5089 -0.7432
   96SAPC  C217 9435   0.292   3.029   3.302 -0.0230  0.4604 -0.2150
   96SAPC  H17R 9436   0.307   3.131   3.341 -1.0392 -0.0126  1.5398
   96SAPC  H17S 9437   0.202   3.042   3.238  0.4060  0.9396 -0.7287
   96SAPC  C218 9438   0.411   3.008   3.204 -0.6096  0.0301 -0.0968
   96SAPC  H18R 9439   0.504   3.027   3.262  0.7094  1.0650 -2.3927
   96SAPC  H18S 9440   0.402   3.087   3.126 -2.1106 -1.6290 -1.7020
   96SAPC  C219 9441   0.404   2.879   3.120 -0.0174  0.9228 -0.2853
   96SAPC  H19R 9442   0.296   2.860   3.100  0.3362 -0.2820 -1.1682
   96SAPC  H19S 9443   0.428   2.788   3.179  0.4255 -0.0785 -1.9435
   96SAPC  C220 9444   0.470   2.872   2.984 -0.9567 -0.0087  0.2909
   96SAPC  H20R 9445   0.426   2.945   2.912 -2.1207  2.1288  2.9793
   96SAPC  H20S 9446   0.453   2.766   2.953 -2.0406 -0.1651  1.3381
   96SAPC  H20T 9447   0.578   2.883   3.003 -1.2190  0.5832  1.5471
   96SAPC   C33 9448   0.114   2.380   2.630  0.0273 -0.2544  0.3907
   96SAPC   H3X 9449   0.196   2.411   2.562 -2.9306  1.3275 -2.7537
   96SAPC   H3Y 9450   0.121   2.273   2.660  0.5238 -1.1703 -2.6317
   96SAPC   C34 9451   0.118   2.466   2.757 -0.1283 -0.4053  0.0814
   96SAPC   H4X 9452   0.032   2.464   2.828  0.2327 -1.1120  0.5028
   96SAPC   H4Y 9453   0.120   2.570   2.716 -1.1890 -0.9832 -1.5640
   96SAPC   C35 9454   0.232   2.433   2.840 -1.2785 -0.0170 -0.5171
   96SAPC   H5X 9455   0.324   2.444   2.779 -1.7080  5.3128 -0.7036
   96SAPC   H5Y 9456   0.229   2.326   2.871 -2.8005  0.2097  0.2472
   96SAPC   C36 9457   0.256   2.517   2.970  0.5998 -0.3248 -0.5702
   96SAPC   H6X 9458   0.184   2.602   2.969  3.5904  2.4692  1.2685
   96SAPC   H6Y 9459   0.361   2.553   2.964 -0.6191  3.5354 -2.2087
   96SAPC   C37 9460   0.213   2.440   3.101 -0.5842  0.0094  0.7915
   96SAPC   H7X 9461   0.288   2.359   3.112 -1.5562 -0.6990  2.6184
   96SAPC   H7Y 9462   0.114   2.389   3.104 -0.8262  0.3214 -1.0449
   96SAPC   C38 9463   0.207   2.526   3.229  0.1584 -0.2019 -0.1380
   96SAPC   H8X 9464   0.124   2.599   3.227  0.3682  0.0339 -0.9426
   96SAPC   H8Y 9465   0.303   2.582   3.230 -0.0150  0.0895 -0.0035
   96SAPC   C39 9466   0.190   2.448   3.358 -0.0186  0.3628  0.0434
   96SAPC   H9X 9467   0.090   2.401   3.349  0.2290  0.1188 -1.9600
   96SAPC   H9Y 9468   0.190   2.520   3.442 -3.4904 -2.9411  3.2664
   96SAPC  C310 9469   0.298   2.348   3.390 -0.2816  0.6328 -1.0065
   96SAPC  H10X 9470   0.394   2.400   3.406  0.2464 -0.5361 -0.2073
   96SAPC  H10Y 9471   0.322   2.286   3.300  1.9278  0.4410 -0.3312
   96SAPC  C311 9472   0.274   2.255   3.510  0.3031 -0.1722 -0.0207
   96SAPC  H11X 9473   0.241   2.320   3.594 -1.9854  1.0812 -1.7725
   96SAPC  H11Y 9474   0.373   2.213   3.538  1.9657  2.2452 -1.8726
   96SAPC  C312 9475   0.169   2.153   3.472  0.2051 -0.0500  0.1826
   96SAPC  H12X 9476   0.071   2.197   3.443 -0.8170 -1.7158  0.8905
   96SAPC  H12Y 9477   0.141   2.097   3.564 -0.4294  2.2057  1.4309
   96SAPC  C313 9478   0.210   2.045   3.366  0.3240 -0.5974  0.5164
   96SAPC  H13X 9479   0.292   1.978   3.401 -0.9124 -1.5144  1.7785
   96SAPC  H13Y 9480   0.225   2.102   3.272 -0.2264  1.0819  1.4148
   96SAPC  C314 9481   0.096   1.939   3.348  0.2274  0.2408 -0.5813
   96SAPC  H14X 9482  -0.003   1.989   3.348 -0.3333 -0.7895 -2.1037
   96SAPC  H14Y 9483   0.091   1.869   3.435  0.8932  0.8923 -0.0136
   96SAPC  C315 9484   0.099   1.870   3.213 -0.0938  0.5530 -0.5784
   96SAPC  H15X 9485   0.183   1.916   3.158  2.7791 -0.6749  2.4120
   96SAPC  H15Y 9486   0.010   1.891   3.149 -0.6594  0.6685  0.2273
   96SAPC  C316 9487   0.109   1.715   3.221 -0.2054  0.4656  0.3683
   96SAPC  H16X 9488   0.028   1.663   3.276  0.5758 -0.4486  0.6835
   96SAPC  H16Y 9489   0.211   1.687   3.255  0.0882  0.9750 -0.0952
   96SAPC  C317 9490   0.088   1.654   3.080  0.1518  0.1017 -0.1234
   96SAPC  H17X 9491   0.180   1.677   3.023 -0.1642 -0.1858 -0.7599
   96SAPC  H17Y 9492  -0.007   1.694   3.040 -0.4127 -0.1668  0.8971
   96SAPC  C318 9493   0.076   1.501   3.088 -0.5781 -0.1108 -0.2048
   96SAPC  H18X 9494   0.143   1.446   3.017  0.4416 -0.4230  0.9542
   96SAPC  H18Y 9495  -0.027   1.478   3.053 -0.4844 -2.2768  0.7572
   96SAPC  H18Z 9496   0.094   1.461   3.190 -4.1804 -2.3674 -0.2786
   97SAPC     N 9497   3.792   6.178   1.713 -0.4055  0.1777 -0.9090
   97SAPC   C12 9498   3.873   6.281   1.644 -0.2629  0.2201  0.3525
   97SAPC  H12A 9499   3.840   6.373   1.690 -0.3665  1.2550 -1.6818
   97SAPC  H12B 9500   3.850   6.282   1.538  1.0804  1.9351  0.0395
   97SAPC   C13 9501   3.812   6.197   1.862 -0.4217 -0.8044 -0.4125
   97SAPC  H13A 9502   3.812   6.301   1.889 -1.5146 -0.0807 -2.8623
   97SAPC  H13B 9503   3.740   6.142   1.921 -0.3210  0.2032  0.6892
   97SAPC  H13C 9504   3.914   6.175   1.890 -0.1622  1.1657  0.3579
   97SAPC   C14 9505   3.648   6.200   1.680 -0.5533  0.3407  0.1506
   97SAPC  H14A 9506   3.581   6.134   1.733  0.4661 -0.1676  0.8426
   97SAPC  H14B 9507   3.615   6.303   1.679  1.4025  1.0223  0.7839
   97SAPC  H14C 9508   3.637   6.160   1.580  0.6910 -0.3580  0.2711
   97SAPC   C15 9509   3.823   6.035   1.684 -0.1184 -0.3493 -0.0769
   97SAPC  H15A 9510   3.918   6.015   1.731 -0.7696 -1.5212  0.7930
   97SAPC  H15B 9511   3.756   5.967   1.735  1.2202 -2.4312 -0.9743
   97SAPC  H15C 9512   3.827   6.013   1.578 -0.6701 -3.3084  0.4239
   97SAPC   C11 9513   4.031   6.273   1.643  0.2336 -0.3944 -0.4392
   97SAPC  H11A 9514   4.060   6.367   1.592 -0.2119  1.8765  3.1406
   97SAPC  H11B 9515   4.057   6.184   1.582 -0.3810 -1.1969  0.4397
   97SAPC     P 9516   4.094   6.390   1.866 -0.8722  0.0835 -0.0859
   97SAPC   O13 9517   4.228   6.448   1.881  0.0541  0.1312  0.0657
   97SAPC   O14 9518   3.988   6.483   1.820  0.4020  0.0828  0.6090
   97SAPC   O12 9519   4.101   6.261   1.768  0.8403 -0.6540 -0.2120
   97SAPC   O11 9520   4.062   6.330   2.009  0.2025 -0.0815 -0.0313
   97SAPC    C1 9521   4.176   6.288   2.080  0.6713 -0.0481 -0.4627
   97SAPC    HA 9522   4.245   6.237   2.010  1.2689  1.3289 -0.9108
   97SAPC    HB 9523   4.227   6.375   2.126 -2.1688  2.2169 -1.3236
   97SAPC    C2 9524   4.127   6.197   2.194  0.2317 -0.1916  0.0390
   97SAPC    HS 9525   4.085   6.109   2.141  0.3080 -0.5326  0.5377
   97SAPC   O21 9526   4.021   6.252   2.279  0.3550  0.5644 -0.0067
   97SAPC   C21 9527   4.050   6.363   2.344 -0.5853  0.2080 -0.0506
   97SAPC   O22 9528   4.145   6.438   2.325 -0.6943  0.1504 -0.2210
   97SAPC   C22 9529   3.931   6.379   2.437  0.7737  0.2754 -0.1670
   97SAPC   H2R 9530   3.886   6.471   2.396 -0.1002 -0.5381 -1.0874
   97SAPC   H2S 9531   3.860   6.295   2.424  0.9422  0.1596 -0.3480
   97SAPC    C3 9532   4.232   6.135   2.289 -0.3582 -0.0464  0.4051
   97SAPC    HX 9533   4.298   6.220   2.317 -1.2891  1.8706 -2.7660
   97SAPC    HY 9534   4.290   6.064   2.226 -0.8381  0.4683 -0.6400
   97SAPC   O31 9535   4.172   6.073   2.405  0.3157 -0.1441 -0.0900
   97SAPC   C31 9536   4.218   5.953   2.437  0.1249 -0.1816  0.2978
   97SAPC   O32 9537   4.310   5.889   2.389  0.4728  0.2027 -0.2500
   97SAPC   C32 9538   4.122   5.903   2.541 -0.1400  0.5702 -0.1970
   97SAPC   H2X 9539   4.030   5.965   2.543 -0.5990  0.0133  3.6013
   97SAPC   H2Y 9540   4.176   5.895   2.638 -0.4874 -1.8685 -0.1605
   97SAPC   C23 9541   3.966   6.405   2.584 -0.1846  0.8130 -0.3110
   97SAPC   H3R 9542   3.871   6.444   2.629  0.0798  0.7590  0.3083
   97SAPC   H3S 9543   4.039   6.488   2.597  0.3036  0.2507  0.6513
   97SAPC   C24 9544   4.019   6.276   2.659  0.0996 -1.4031 -0.5144
   97SAPC   H4R 9545   4.129   6.271   2.644  0.1343 -2.0841 -0.0882
   97SAPC   H4S 9546   3.976   6.187   2.608 -1.4281 -0.5901 -0.7244
   97SAPC   C25 9547   3.998   6.285   2.809 -0.8341  0.3837 -0.4443
   97SAPC   H5R 9548   4.084   6.321   2.867  0.2263  0.2385 -1.8840
   97SAPC   C26 9549   3.890   6.237   2.878 -0.3100  0.0070  0.1845
   97SAPC   H6R 9550   3.885   6.257   2.986  0.4693 -0.4367  0.3077
   97SAPC   C27 9551   3.761   6.175   2.818  0.7545  0.2064  0.0370
   97SAPC   H7R 9552   3.789   6.102   2.739 -0.7895 -1.5701  1.0370
   97SAPC   H7S 9553   3.696   6.255   2.776 -1.4028 -0.1940  2.3926
   97SAPC   C28 9554   3.669   6.096   2.902 -0.6729 -0.1316  0.4509
   97SAPC   H8R 9555   3.633   6.000   2.862 -2.2727  1.3754 -1.9791
   97SAPC   C29 9556   3.611   6.133   3.018  0.2444  0.1846  0.4437
   97SAPC   H9R 9557   3.553   6.062   3.077  2.6904 -0.6505  2.0219
   97SAPC  C210 9558   3.621   6.262   3.094  0.0108  0.2369 -0.4147
   97SAPC  H10R 9559   3.515   6.267   3.129  0.6608  1.3021  1.5754
   97SAPC  H10S 9560   3.650   6.348   3.030  2.6444  1.1467  1.8104
   97SAPC  C211 9561   3.720   6.261   3.208  0.6910 -0.5140  0.6690
   97SAPC  H11R 9562   3.826   6.262   3.179  0.4775  0.8913 -0.1586
   97SAPC  C212 9563   3.697   6.268   3.341  0.3813 -0.0713 -0.1359
   97SAPC  H12R 9564   3.780   6.259   3.413 -0.6023 -1.0458  0.9278
   97SAPC  C213 9565   3.565   6.260   3.407  1.0834 -0.1056  0.0987
   97SAPC  H13R 9566   3.484   6.294   3.339  0.3449 -0.5203  0.7529
   97SAPC  H13S 9567   3.566   6.327   3.496 -0.6837 -2.6557  2.2029
   97SAPC  C214 9568   3.542   6.115   3.439  0.1145 -0.3865 -0.1162
   97SAPC  H14R 9569   3.611   6.037   3.402 -1.0946 -1.1835 -0.7776
   97SAPC  C215 9570   3.440   6.082   3.522 -0.1908  0.4230  0.0402
   97SAPC  H15R 9571   3.420   5.977   3.547 -1.5001  0.5464 -0.4475
   97SAPC  C216 9572   3.339   6.177   3.586 -0.7120 -0.6934  0.1582
   97SAPC  H16R 9573   3.236   6.168   3.543 -0.3193  1.2531 -1.3676
   97SAPC  H16S 9574   3.360   6.284   3.567  0.6490 -0.8296  0.8389
   97SAPC  C217 9575   3.323   6.162   3.738  0.5359 -0.2710  0.2170
   97SAPC  H17R 9576   3.421   6.154   3.790 -0.5688  1.1726  2.7194
   97SAPC  H17S 9577   3.277   6.064   3.763 -2.8777  1.2769  0.5733
   97SAPC  C218 9578   3.247   6.276   3.803  0.4480 -0.1378  0.0805
   97SAPC  H18R 9579   3.138   6.266   3.790  0.4089 -0.2251  0.4634
   97SAPC  H18S 9580   3.275   6.374   3.758 -0.4084 -0.2040 -0.6182
   97SAPC  C219 9581   3.275   6.290   3.955  0.1848  0.4937  0.5201
   97SAPC  H19R 9582   3.263   6.397   3.983  0.7226  1.1725 -1.6118
   97SAPC  H19S 9583   3.379   6.256   3.970  1.3134  1.3663 -3.8387
   97SAPC  C220 9584   3.187   6.209   4.044 -0.3953  0.6603  0.3108
   97SAPC  H20R 9585   3.087   6.256   4.038 -1.6533 -2.0331 -3.0718
   97SAPC  H20S 9586   3.217   6.186   4.148 -1.8417 -0.7287  0.4652
   97SAPC  H20T 9587   3.164   6.115   3.989 -1.7699  0.8604  0.5078
   97SAPC   C33 9588   4.070   5.761   2.488 -0.4581  0.1855 -0.3345
   97SAPC   H3X 9589   4.152   5.688   2.473 -0.2333  0.6625 -1.5288
   97SAPC   H3Y 9590   4.032   5.774   2.385 -0.3703  1.1748 -0.2542
   97SAPC   C34 9591   3.954   5.710   2.566  0.3496 -0.5375 -0.7525
   97SAPC   H4X 9592   3.945   5.600   2.549  1.9045 -1.0343  1.2889
   97SAPC   H4Y 9593   3.859   5.749   2.525  0.0680 -0.3156  0.0903
   97SAPC   C35 9594   3.955   5.740   2.714  0.3027  0.2633 -0.3048
   97SAPC   H5X 9595   3.953   5.849   2.736  1.7540 -0.0426  1.5866
   97SAPC   H5Y 9596   4.049   5.708   2.765  0.5181 -0.2911 -1.0255
   97SAPC   C36 9597   3.838   5.673   2.789 -0.5327 -0.1266 -0.5901
   97SAPC   H6X 9598   3.850   5.564   2.771 -0.3169  0.0579 -1.5758
   97SAPC   H6Y 9599   3.740   5.706   2.749  0.0936 -0.1772 -2.2375
   97SAPC   C37 9600   3.853   5.698   2.939  0.4412 -0.4384 -0.2282
   97SAPC   H7X 9601   3.888   5.802   2.960  0.7350 -0.6725  0.4784
   97SAPC   H7Y 9602   3.932   5.632   2.981  0.8118 -0.4203 -0.8781
   97SAPC   C38 9603   3.726   5.650   3.013 -0.0970 -0.0655  0.9891
   97SAPC   H8X 9604   3.703   5.546   2.983 -2.1582  0.8906 -1.0527
   97SAPC   H8Y 9605   3.642   5.715   2.981 -0.3224 -1.2159 -0.8759
   97SAPC   C39 9606   3.753   5.651   3.166  0.1964 -0.3756 -0.2280
   97SAPC   H9X 9607   3.851   5.602   3.185  0.8930  1.8063  2.5728
   97SAPC   H9Y 9608   3.679   5.588   3.220  0.4493 -1.4445 -1.1153
   97SAPC  C310 9609   3.768   5.786   3.226 -0.0819  0.3647  0.2598
   97SAPC  H10X 9610   3.678   5.851   3.216 -0.4789 -0.1860  0.1977
   97SAPC  H10Y 9611   3.854   5.840   3.181 -0.8940  0.6134 -1.0645
   97SAPC  C311 9612   3.778   5.784   3.382 -0.1821 -0.3216  0.4596
   97SAPC  H11X 9613   3.820   5.882   3.414 -0.2451 -0.0025 -0.3889
   97SAPC  H11Y 9614   3.849   5.702   3.405 -0.6826 -0.5397  1.2516
   97SAPC  C312 9615   3.644   5.752   3.447 -0.3882  0.7706  0.5484
   97SAPC  H12X 9616   3.620   5.654   3.398  1.5730  1.4277 -1.9599
   97SAPC  H12Y 9617   3.578   5.829   3.402  0.9329 -0.6793 -4.6056
   97SAPC  C313 9618   3.631   5.747   3.597 -0.4274  0.6741 -0.3459
   97SAPC  H13X 9619   3.689   5.657   3.625 -1.3612  0.0023 -0.5038
   97SAPC  H13Y 9620   3.522   5.748   3.618 -0.7424  3.6912 -1.5599
   97SAPC  C314 9621   3.697   5.862   3.667  0.0303  0.2454  0.0009
   97SAPC  H14X 9622   3.695   5.956   3.609  1.6955 -0.2663 -0.9801
   97SAPC  H14Y 9623   3.808   5.853   3.674  0.1664  2.3997  1.1521
   97SAPC  C315 9624   3.642   5.884   3.807 -0.1788 -0.0887  0.0395
   97SAPC  H15X 9625   3.532   5.897   3.806 -0.1229  0.4929 -1.3528
   97SAPC  H15Y 9626   3.693   5.981   3.827 -0.5630  0.2083 -0.3902
   97SAPC  C316 9627   3.687   5.781   3.916 -0.5154  0.7208  0.3551
   97SAPC  H16X 9628   3.795   5.801   3.933 -0.6906  1.6383  0.4537
   97SAPC  H16Y 9629   3.676   5.679   3.872 -0.2148  0.1396  1.5946
   97SAPC  C317 9630   3.630   5.808   4.050 -0.3441 -0.3787 -0.2515
   97SAPC  H17X 9631   3.524   5.779   4.065 -0.6839 -0.8667 -3.0461
   97SAPC  H17Y 9632   3.628   5.919   4.060  0.9087 -0.4048  0.3997
   97SAPC  C318 9633   3.715   5.755   4.163  0.0368  0.6520 -0.1457
   97SAPC  H18X 9634   3.665   5.773   4.260 -0.2377  1.3834 -0.4140
   97SAPC  H18Y 9635   3.819   5.793   4.161  3.1567 -6.1454 -3.5491
   97SAPC  H18Z 9636   3.732   5.646   4.146  0.5184  0.4263  1.5942
   98SAPC     N 9637   1.885   6.262   2.158  0.4109 -0.9014  0.0840
   98SAPC   C12 9638   1.807   6.377   2.220 -1.3560 -0.8548  0.6202
   98SAPC  H12A 9639   1.784   6.354   2.324 -2.5283 -0.7766  0.3941
   98SAPC  H12B 9640   1.709   6.385   2.176 -0.9622 -0.4503 -0.1972
   98SAPC   C13 9641   2.026   6.256   2.214  0.2263 -0.4261  0.2224
   98SAPC  H13A 9642   2.023   6.240   2.320  2.0316  4.0052  1.1139
   98SAPC  H13B 9643   2.080   6.173   2.170  2.3691  0.2107  1.5576
   98SAPC  H13C 9644   2.073   6.349   2.185  0.8455 -1.2809 -1.7442
   98SAPC   C14 9645   1.816   6.130   2.190  0.1832  0.8489 -0.0886
   98SAPC  H14A 9646   1.828   6.099   2.292 -0.0152  0.1392 -0.2771
   98SAPC  H14B 9647   1.709   6.130   2.178  0.1627 -1.8819 -0.4787
   98SAPC  H14C 9648   1.863   6.058   2.124 -1.4130  0.5371 -0.9276
   98SAPC   C15 9649   1.884   6.273   2.007  0.2837  0.1164 -0.2612
   98SAPC  H15A 9650   1.934   6.189   1.961  0.8509  0.8686 -1.0451
   98SAPC  H15B 9651   1.783   6.277   1.968  0.0068 -0.0298  0.4126
   98SAPC  H15C 9652   1.926   6.368   1.980  0.5650 -0.4000 -1.7072
   98SAPC   C11 9653   1.875   6.514   2.223 -0.0570 -0.4606 -0.3744
   98SAPC  H11A 9654   1.957   6.507   2.299  0.7026  0.7663 -1.0548
   98SAPC  H11B 9655   1.808   6.590   2.268 -0.5175 -1.4075  0.5877
   98SAPC     P 9656   2.070   6.610   2.064 -0.1700  0.2400  0.3060
   98SAPC   O13 9657   2.172   6.505   2.061  0.3231 -0.2527 -0.5039
   98SAPC   O14 9658   2.059   6.686   1.943  0.6514 -0.4463  0.5063
   98SAPC   O12 9659   1.929   6.553   2.097 -0.0290  0.6781  0.2543
   98SAPC   O11 9660   2.101   6.724   2.171  0.5202 -0.1293  0.6633
   98SAPC    C1 9661   2.237   6.759   2.209 -0.4358  0.1926 -0.4826
   98SAPC    HA 9662   2.314   6.764   2.130  0.7196 -0.4599  0.5764
   98SAPC    HB 9663   2.229   6.857   2.261  0.0377 -0.0171 -0.0140
   98SAPC    C2 9664   2.288   6.663   2.321 -0.0710  0.0642  0.2557
   98SAPC    HS 9665   2.301   6.563   2.274  2.3620  0.1275  0.6722
   98SAPC   O21 9666   2.189   6.652   2.422  0.0534  0.3158  0.9837
   98SAPC   C21 9667   2.203   6.546   2.504 -0.3283  0.4143 -0.1147
   98SAPC   O22 9668   2.284   6.454   2.494 -0.2719 -0.2246 -0.0517
   98SAPC   C22 9669   2.089   6.554   2.606 -0.6881  0.6113 -0.1984
   98SAPC   H2R 9670   2.012   6.614   2.553 -0.4539 -1.6162 -3.3940
   98SAPC   H2S 9671   2.041   6.456   2.628 -2.7748  1.8768  1.2367
   98SAPC    C3 9672   2.424   6.709   2.381 -0.2038 -0.1450 -0.4363
   98SAPC    HX 9673   2.495   6.725   2.297  0.7625 -3.1647 -0.2863
   98SAPC    HY 9674   2.464   6.638   2.455  0.6620  1.6778  0.9242
   98SAPC   O31 9675   2.403   6.844   2.442 -0.3416  0.3443 -0.1497
   98SAPC   C31 9676   2.472   6.860   2.556 -0.1611 -0.4929  0.0594
   98SAPC   O32 9677   2.547   6.780   2.601  0.0200 -0.1571 -0.3396
   98SAPC   C32 9678   2.436   6.995   2.621 -0.1132  0.5079  0.2459
   98SAPC   H2X 9679   2.417   6.979   2.730  1.8589 -1.3582  0.3840
   98SAPC   H2Y 9680   2.341   7.033   2.578  0.1438  0.7536 -0.1072
   98SAPC   C23 9681   2.132   6.612   2.742  0.2572  0.4296 -1.0085
   98SAPC   H3R 9682   2.054   6.592   2.819  1.4142 -0.4070 -0.0092
   98SAPC   H3S 9683   2.146   6.722   2.730 -0.4223  0.3872 -2.3269
   98SAPC   C24 9684   2.262   6.545   2.796 -0.0134  0.1817 -0.0570
   98SAPC   H4R 9685   2.293   6.598   2.888  2.2260  0.3062 -0.8280
   98SAPC   H4S 9686   2.346   6.558   2.726 -0.9393 -2.2451 -1.7559
   98SAPC   C25 9687   2.220   6.399   2.830  0.4277  0.3666 -0.3746
   98SAPC   H5R 9688   2.172   6.347   2.746 -1.0772  1.5110 -0.2747
   98SAPC   C26 9689   2.211   6.342   2.956 -0.6657  0.0282 -0.3736
   98SAPC   H6R 9690   2.172   6.241   2.976  0.3607 -0.4039 -0.5212
   98SAPC   C27 9691   2.272   6.405   3.076  0.3952  0.7452  0.1208
   98SAPC   H7R 9692   2.196   6.474   3.118 -1.4332 -0.6470 -0.7568
   98SAPC   H7S 9693   2.359   6.469   3.049  0.0919  1.3713  0.6112
   98SAPC   C28 9694   2.333   6.304   3.175 -0.0890 -0.4206  0.3674
   98SAPC   H8R 9695   2.408   6.234   3.136  0.8812  0.1795  1.1140
   98SAPC   C29 9696   2.305   6.298   3.302  0.5710  0.2401  0.1000
   98SAPC   H9R 9697   2.348   6.219   3.366 -1.9197  0.1387  1.8182
   98SAPC  C210 9698   2.220   6.391   3.387  0.1052  0.1144 -0.7087
   98SAPC  H10R 9699   2.222   6.492   3.341 -0.5830 -0.2846 -1.6339
   98SAPC  H10S 9700   2.270   6.402   3.486 -0.5307  0.2167 -0.3923
   98SAPC  C211 9701   2.076   6.355   3.406  0.0709 -0.1757  0.0242
   98SAPC  H11R 9702   2.041   6.333   3.304 -0.0456  0.7959 -0.1487
   98SAPC  C212 9703   2.003   6.342   3.516 -0.2627 -1.0498  0.4417
   98SAPC  H12R 9704   1.899   6.308   3.506 -1.0995  1.5455 -0.2003
   98SAPC  C213 9705   2.048   6.369   3.656 -0.0295  0.5635  0.3512
   98SAPC  H13R 9706   2.155   6.395   3.664  0.4405 -0.8380 -0.8992
   98SAPC  H13S 9707   2.030   6.286   3.727 -1.4032  0.4275 -0.1152
   98SAPC  C214 9708   1.977   6.491   3.712 -0.8318 -0.0474  0.0834
   98SAPC  H14R 9709   1.889   6.526   3.657 -0.9640  1.7695  1.3338
   98SAPC  C215 9710   2.023   6.570   3.808  0.0721  0.6211  0.0174
   98SAPC  H15R 9711   1.950   6.647   3.839 -0.0480  0.2064  0.8001
   98SAPC  C216 9712   2.137   6.554   3.907  0.2031  1.0860 -0.8357
   98SAPC  H16R 9713   2.215   6.631   3.886  1.4430 -0.1545 -0.9569
   98SAPC  H16S 9714   2.192   6.462   3.879  0.8877  1.6466 -1.3851
   98SAPC  C217 9715   2.090   6.560   4.052 -0.0504  0.2434  0.6217
   98SAPC  H17R 9716   2.028   6.470   4.074  1.4745 -1.2667 -0.9017
   98SAPC  H17S 9717   2.027   6.649   4.070 -0.1697  0.1471  0.6834
   98SAPC  C218 9718   2.209   6.556   4.149 -0.1172 -0.1035 -1.1206
   98SAPC  H18R 9719   2.158   6.541   4.247 -1.9806  0.4189 -1.9610
   98SAPC  H18S 9720   2.240   6.662   4.163 -0.8055 -0.1866  1.6270
   98SAPC  C219 9721   2.323   6.457   4.118  0.4501  0.5790 -0.0816
   98SAPC  H19R 9722   2.404   6.491   4.187  0.1558 -1.3085  1.2656
   98SAPC  H19S 9723   2.355   6.466   4.012 -0.0370  2.1120 -0.1187
   98SAPC  C220 9724   2.289   6.308   4.147 -0.4918 -0.4323 -0.4016
   98SAPC  H20R 9725   2.294   6.284   4.255 -3.4172 -0.5928 -0.2011
   98SAPC  H20S 9726   2.357   6.233   4.100 -2.1561 -2.5638  0.3915
   98SAPC  H20T 9727   2.191   6.275   4.104 -1.2798 -0.6039  1.4605
   98SAPC   C33 9728   2.544   7.111   2.609  0.0214 -0.5431  0.5159
   98SAPC   H3X 9729   2.511   7.215   2.633  2.4756  0.9568 -1.9848
   98SAPC   H3Y 9730   2.562   7.124   2.500  2.1900 -0.1278  0.8885
   98SAPC   C34 9731   2.681   7.092   2.683 -0.4594 -0.2633  0.2242
   98SAPC   H4X 9732   2.739   7.182   2.654 -1.7596 -0.5355 -3.8853
   98SAPC   H4Y 9733   2.727   7.003   2.637  2.0167  1.0090  0.0586
   98SAPC   C35 9734   2.653   7.067   2.834 -0.2375  0.3824  0.2521
   98SAPC   H5X 9735   2.751   7.028   2.869 -0.5725 -1.4178 -0.7249
   98SAPC   H5Y 9736   2.584   6.981   2.845 -0.7189  0.7489  0.1085
   98SAPC   C36 9737   2.598   7.176   2.926  0.6202 -0.4258 -0.3550
   98SAPC   H6X 9738   2.491   7.181   2.898  0.4978  0.2029  0.1924
   98SAPC   H6Y 9739   2.645   7.271   2.893 -0.0071  0.4846  1.2655
   98SAPC   C37 9740   2.615   7.139   3.075 -0.6447 -0.1434  0.0071
   98SAPC   H7X 9741   2.723   7.146   3.101 -0.9096 -0.0031  1.1091
   98SAPC   H7Y 9742   2.588   7.031   3.082  0.7049 -0.5051  0.0734
   98SAPC   C38 9743   2.549   7.226   3.181  0.2234 -0.2239  0.1637
   98SAPC   H8X 9744   2.440   7.219   3.162  0.2468 -3.2919  0.6083
   98SAPC   H8Y 9745   2.598   7.326   3.176  1.1850 -0.6855  0.1248
   98SAPC   C39 9746   2.587   7.169   3.315  0.0684  0.3908 -0.4471
   98SAPC   H9X 9747   2.675   7.213   3.367  1.1644  0.1592 -2.0448
   98SAPC   H9Y 9748   2.617   7.063   3.308  0.9695  0.6380 -0.4631
   98SAPC  C310 9749   2.472   7.182   3.419  0.2945 -0.1085 -0.0003
   98SAPC  H10X 9750   2.379   7.127   3.391 -1.0952  0.7202  2.6754
   98SAPC  H10Y 9751   2.453   7.291   3.425 -2.2766 -0.4682 -0.2808
   98SAPC  C311 9752   2.514   7.127   3.556 -1.0574  0.9378 -0.3240
   98SAPC  H11X 9753   2.578   7.039   3.533  0.9483  1.9089  1.2169
   98SAPC  H11Y 9754   2.426   7.082   3.606  0.1010 -0.6231  0.4106
   98SAPC  C312 9755   2.612   7.218   3.635  0.3273 -0.0983  0.0825
   98SAPC  H12X 9756   2.565   7.319   3.636 -2.9004 -1.4833  1.8061
   98SAPC  H12Y 9757   2.708   7.211   3.580 -0.4161  0.3724 -1.3287
   98SAPC  C313 9758   2.641   7.176   3.777  0.7160  0.3151 -0.6542
   98SAPC  H13X 9759   2.660   7.066   3.769  1.6205  0.5163 -1.4110
   98SAPC  H13Y 9760   2.556   7.195   3.846 -0.1243  0.7869 -1.7888
   98SAPC  C314 9761   2.765   7.241   3.838 -0.0446 -0.2832 -0.2171
   98SAPC  H14X 9762   2.750   7.351   3.839  1.3054 -0.0852 -0.0871
   98SAPC  H14Y 9763   2.838   7.216   3.758  1.4346 -0.7023  1.1933
   98SAPC  C315 9764   2.809   7.168   3.963  0.2514  0.0923  0.4814
   98SAPC  H15X 9765   2.808   7.060   3.937 -1.3074 -0.1408  1.4197
   98SAPC  H15Y 9766   2.728   7.184   4.037 -1.1244  3.8363 -1.5639
   98SAPC  C316 9767   2.950   7.211   4.003 -0.7308  0.7039  0.0849
   98SAPC  H16X 9768   3.013   7.222   3.913 -1.1228 -0.5647 -0.3618
   98SAPC  H16Y 9769   3.000   7.127   4.056  0.1809  1.7424  0.9348
   98SAPC  C317 9770   2.957   7.348   4.073  0.0615  0.8141  0.8744
   98SAPC  H17X 9771   2.860   7.366   4.124 -0.4933 -0.0732  0.1651
   98SAPC  H17Y 9772   2.951   7.421   3.989 -0.4659  0.7601  0.8580
   98SAPC  C318 9773   3.085   7.366   4.151 -0.1164  0.2624 -0.6669
   98SAPC  H18X 9774   3.162   7.389   4.075 -0.5035  0.3388 -1.0416
   98SAPC  H18Y 9775   3.098   7.268   4.201  2.5133  0.5118 -0.7530
   98SAPC  H18Z 9776   3.100   7.441   4.232  0.2113 -0.8213  0.2957
   99SAPC     N 9777   5.527   6.145   1.844  0.1952  1.2398  0.8444
   99SAPC   C12 9778   5.679   6.143   1.821 -0.2557 -0.4467  0.0574
   99SAPC  H12A 9779   5.725   6.240   1.811  0.7463 -0.9695 -0.5146
   99SAPC  H12B 9780   5.707   6.107   1.723 -0.9947 -1.0480  0.0579
   99SAPC   C13 9781   5.485   6.178   1.983  0.1277  0.0531 -1.1810
   99SAPC  H13A 9782   5.378   6.183   1.994 -0.0334  0.1183 -2.5782
   99SAPC  H13B 9783   5.507   6.096   2.050  0.8350  1.5018  0.4335
   99SAPC  H13C 9784   5.531   6.263   2.031 -1.1738  1.4222 -2.2783
   99SAPC   C14 9785   5.460   6.243   1.753 -0.2635  0.2260  0.2359
   99SAPC  H14A 9786   5.488   6.237   1.649 -1.0482  1.9876 -0.1135
   99SAPC  H14B 9787   5.355   6.227   1.769 -0.2411 -1.7716 -1.2954
   99SAPC  H14C 9788   5.493   6.343   1.777  0.6991  0.4778 -1.8777
   99SAPC   C15 9789   5.459   6.013   1.807 -0.2494 -0.1135 -1.2505
   99SAPC  H15A 9790   5.451   5.989   1.702  1.6278 -1.7605 -1.0631
   99SAPC  H15B 9791   5.509   5.928   1.851 -0.3147 -1.0496 -2.9112
   99SAPC  H15C 9792   5.353   6.025   1.829 -0.5360 -1.1348 -2.0101
   99SAPC   C11 9793   5.761   6.067   1.922  0.4055  0.5070 -0.5953
   99SAPC  H11A 9794   5.745   6.110   2.023  1.0665 -2.2297  0.7806
   99SAPC  H11B 9795   5.871   6.077   1.909  0.9027 -0.2117  2.2364
   99SAPC     P 9796   5.802   5.807   1.978 -0.4307  0.2267 -0.0860
   99SAPC   O13 9797   5.753   5.687   1.912 -0.2312  0.1404 -0.0265
   99SAPC   O14 9798   5.947   5.831   1.951  0.2053 -0.5698 -0.7651
   99SAPC   O12 9799   5.718   5.931   1.916 -0.6870  0.3963 -0.0417
   99SAPC   O11 9800   5.769   5.807   2.131 -0.0680  0.4305 -0.5993
   99SAPC    C1 9801   5.634   5.825   2.183  0.1449  0.1357  0.0106
   99SAPC    HA 9802   5.608   5.932   2.198 -2.2966 -0.2259 -1.1874
   99SAPC    HB 9803   5.558   5.779   2.116 -0.6658 -0.7998  1.5119
   99SAPC    C2 9804   5.613   5.743   2.313  0.0135 -0.3747 -1.1177
   99SAPC    HS 9805   5.506   5.732   2.341  0.7071  0.7748  2.4378
   99SAPC   O21 9806   5.692   5.806   2.415  0.2531  0.0247  0.0482
   99SAPC   C21 9807   5.634   5.908   2.475 -0.1715 -0.0018 -0.0441
   99SAPC   O22 9808   5.524   5.952   2.457 -0.4206  0.2157  0.5927
   99SAPC   C22 9809   5.742   5.964   2.564  0.2879 -0.1085 -0.2809
   99SAPC   H2R 9810   5.841   5.918   2.543  0.1924  0.0351 -1.0725
   99SAPC   H2S 9811   5.754   6.070   2.536  0.0519  0.2599  0.9353
   99SAPC    C3 9812   5.654   5.603   2.289  0.1246  0.5538 -0.1191
   99SAPC    HX 9813   5.757   5.602   2.249  0.2912 -0.2153  0.3151
   99SAPC    HY 9814   5.603   5.550   2.206  0.9543 -3.5841  1.7543
   99SAPC   O31 9815   5.624   5.523   2.404 -0.2346  0.0102 -0.4816
   99SAPC   C31 9816   5.726   5.451   2.445  0.1645 -0.9231  0.5766
   99SAPC   O32 9817   5.831   5.443   2.382 -0.6529 -0.3878  0.4145
   99SAPC   C32 9818   5.704   5.378   2.579 -0.5797  0.0800 -0.2545
   99SAPC   H2X 9819   5.611   5.319   2.564 -0.8469  0.7573 -1.4168
   99SAPC   H2Y 9820   5.688   5.455   2.657 -1.3646 -2.2343  2.0067
   99SAPC   C23 9821   5.704   5.956   2.716  0.4551  0.3103  0.0981
   99SAPC   H3R 9822   5.595   5.974   2.723  0.2528 -1.0974  0.9507
   99SAPC   H3S 9823   5.739   6.041   2.778 -1.5663  1.5733 -0.4091
   99SAPC   C24 9824   5.737   5.811   2.778  0.0730  0.9630  0.2937
   99SAPC   H4R 9825   5.702   5.733   2.707  0.6414 -0.1278  1.1831
   99SAPC   H4S 9826   5.676   5.801   2.871  0.4124 -2.3428  0.2416
   99SAPC   C25 9827   5.885   5.787   2.808  0.0147  0.2531  0.4234
   99SAPC   H5R 9828   5.951   5.779   2.720  2.4944  0.9748  2.1307
   99SAPC   C26 9829   5.950   5.761   2.920  0.5638  0.4053  0.2734
   99SAPC   H6R 9830   6.059   5.749   2.913  0.3599 -1.2556 -0.7063
   99SAPC   C27 9831   5.893   5.764   3.059 -0.0715 -0.3470 -0.2383
   99SAPC   H7R 9832   5.888   5.658   3.092  0.7612 -0.3870 -0.2238
   99SAPC   H7S 9833   5.787   5.798   3.048 -0.8434 -2.8252 -0.9651
   99SAPC   C28 9834   5.964   5.861   3.156  0.1482  0.4812  0.5969
   99SAPC   H8R 9835   6.022   5.946   3.117  0.6873 -0.4854 -0.7648
   99SAPC   C29 9836   5.966   5.841   3.289  0.1393 -0.4217  0.0774
   99SAPC   H9R 9837   6.017   5.915   3.353  1.5306 -0.1136 -1.3416
   99SAPC  C210 9838   5.889   5.743   3.367  0.0029 -0.0392 -0.1157
   99SAPC  H10R 9839   5.789   5.727   3.321 -0.8401 -0.1674  1.6919
   99SAPC  H10S 9840   5.873   5.781   3.470 -0.6228 -1.9475  0.5324
   99SAPC  C211 9841   5.953   5.610   3.380  0.2431 -0.2990 -0.2753
   99SAPC  H11R 9842   5.963   5.557   3.284  0.6043  2.5277 -1.9145
   99SAPC  C212 9843   5.988   5.542   3.495 -0.3568  0.1307  0.1264
   99SAPC  H12R 9844   6.037   5.444   3.487  0.5292  0.4803  1.0726
   99SAPC  C213 9845   5.979   5.593   3.633  0.3306  0.9259  0.5796
   99SAPC  H13R 9846   5.980   5.498   3.690 -0.2582  1.1255  0.9302
   99SAPC  H13S 9847   5.879   5.634   3.656 -0.3906 -0.9424  0.9613
   99SAPC  C214 9848   6.096   5.684   3.671  0.0551 -0.1016 -0.1022
   99SAPC  H14R 9849   6.180   5.692   3.600 -0.3254 -2.9220 -1.0025
   99SAPC  C215 9850   6.110   5.744   3.792 -0.0870  0.2237 -0.4867
   99SAPC  H15R 9851   6.199   5.807   3.809 -0.7709  0.8878  0.7558
   99SAPC  C216 9852   6.011   5.755   3.912  0.1534 -0.1863  0.3311
   99SAPC  H16R 9853   5.936   5.675   3.896  0.0311 -0.3972  1.7562
   99SAPC  H16S 9854   5.958   5.852   3.905  0.0826 -0.3614 -2.1617
   99SAPC  C217 9855   6.089   5.740   4.042  0.4367  0.4508  0.4065
   99SAPC  H17R 9856   6.157   5.652   4.038  0.6735  0.6808 -0.8304
   99SAPC  H17S 9857   6.006   5.724   4.115 -0.3394  2.5399  0.0536
   99SAPC  C218 9858   6.168   5.858   4.097 -0.3584 -0.8723  0.7862
   99SAPC  H18R 9859   6.253   5.873   4.027 -0.7175 -0.6124  0.4043
   99SAPC  H18S 9860   6.215   5.831   4.194  0.3124  1.2567  1.1037
   99SAPC  C219 9861   6.103   5.996   4.099  0.4979 -0.1565 -0.1931
   99SAPC  H19R 9862   6.089   6.026   3.993 -2.1963  0.8160  0.3663
   99SAPC  H19S 9863   6.174   6.065   4.149  1.5793  1.0055 -3.1031
   99SAPC  C220 9864   5.974   6.000   4.174 -0.0836 -0.1210  0.8105
   99SAPC  H20R 9865   6.000   5.968   4.277  1.8763  0.5407  0.5615
   99SAPC  H20S 9866   5.911   5.916   4.138 -0.6731  1.5623 -2.4293
   99SAPC  H20T 9867   5.927   6.101   4.175  1.5314  0.6981 -1.0249
   99SAPC   C33 9868   5.823   5.302   2.638  0.1274  0.1959  0.7099
   99SAPC   H3X 9869   5.911   5.369   2.623 -1.0382  1.3923 -1.2426
   99SAPC   H3Y 9870   5.845   5.206   2.586 -0.0406  1.5240 -2.0159
   99SAPC   C34 9871   5.815   5.280   2.794 -0.8783  0.3084  0.0281
   99SAPC   H4X 9872   5.752   5.189   2.800  0.4124 -0.7087 -1.1474
   99SAPC   H4Y 9873   5.775   5.370   2.846  0.5946  0.2774  1.2672
   99SAPC   C35 9874   5.954   5.272   2.864 -0.1849  0.7884 -0.6737
   99SAPC   H5X 9875   6.025   5.357   2.848  1.2544 -0.4365 -1.0484
   99SAPC   H5Y 9876   6.007   5.185   2.819 -1.8472 -2.1073  2.5821
   99SAPC   C36 9877   5.937   5.236   3.016  0.2054  0.0636  0.3661
   99SAPC   H6X 9878   5.881   5.140   3.027 -3.6677  1.9980 -0.7741
   99SAPC   H6Y 9879   5.874   5.299   3.081  1.5883 -3.1311  5.3473
   99SAPC   C37 9880   6.067   5.218   3.090 -0.4228 -0.7031 -0.2991
   99SAPC   H7X 9881   6.136   5.298   3.056 -0.3480  0.5771  2.5945
   99SAPC   H7Y 9882   6.118   5.121   3.074 -0.0540 -1.5389  4.4069
   99SAPC   C38 9883   6.054   5.214   3.243  0.0902  0.3841  0.1472
   99SAPC   H8X 9884   5.953   5.176   3.271  0.3756 -1.4400 -1.1062
   99SAPC   H8Y 9885   6.068   5.314   3.288  1.3301 -0.4480  1.7229
   99SAPC   C39 9886   6.145   5.112   3.307 -0.3388  0.1391  0.2524
   99SAPC   H9X 9887   6.253   5.132   3.291 -0.7489  2.4265  0.0776
   99SAPC   H9Y 9888   6.126   5.007   3.276  1.1737  0.1458 -0.8172
   99SAPC  C310 9889   6.107   5.118   3.455 -0.3063  0.4224 -0.5961
   99SAPC  H10X 9890   5.999   5.095   3.445  0.0775 -1.9280 -0.0476
   99SAPC  H10Y 9891   6.129   5.223   3.483  0.0926  0.7355 -2.0057
   99SAPC  C311 9892   6.166   5.011   3.545 -0.0665  0.0545  0.1736
   99SAPC  H11X 9893   6.149   4.909   3.506 -0.0834  0.2442 -0.3175
   99SAPC  H11Y 9894   6.099   5.012   3.634 -1.0132 -1.0181 -0.5128
   99SAPC  C312 9895   6.312   5.036   3.578  0.7704  0.4094  0.0940
   99SAPC  H12X 9896   6.336   5.143   3.598  0.5960  0.3780  0.4674
   99SAPC  H12Y 9897   6.377   5.007   3.492 -0.0018 -0.1467 -0.3160
   99SAPC  C313 9898   6.360   4.957   3.696 -0.8916 -0.8774  0.5221
   99SAPC  H13X 9899   6.314   4.999   3.787  1.5419 -0.0537  1.4566
   99SAPC  H13Y 9900   6.469   4.977   3.702 -0.9896 -0.6406  1.8331
   99SAPC  C314 9901   6.350   4.802   3.688 -0.2716  0.0284  0.1399
   99SAPC  H14X 9902   6.362   4.775   3.581 -0.4658  0.9183 -0.1164
   99SAPC  H14Y 9903   6.245   4.778   3.716 -0.3102 -0.3989 -0.3671
   99SAPC  C315 9904   6.458   4.739   3.782 -0.2758 -0.6122 -0.5418
   99SAPC  H15X 9905   6.534   4.814   3.812 -1.2121  0.3293 -0.4733
   99SAPC  H15Y 9906   6.506   4.652   3.733  0.8903 -0.2425 -0.0728
   99SAPC  C316 9907   6.400   4.681   3.912  0.3673  0.5572  0.1839
   99SAPC  H16X 9908   6.328   4.606   3.872 -2.8010  3.2704  0.3255
   99SAPC  H16Y 9909   6.326   4.752   3.957  0.2237  0.0183  0.8215
   99SAPC  C317 9910   6.505   4.637   4.022 -0.0607  0.0535 -0.6656
   99SAPC  H17X 9911   6.571   4.718   4.060 -1.3884  0.4157  0.9761
   99SAPC  H17Y 9912   6.574   4.567   3.969 -0.7416  0.1066 -1.6552
   99SAPC  C318 9913   6.438   4.557   4.139 -0.9800  0.2534  0.4049
   99SAPC  H18X 9914   6.361   4.620   4.188 -1.7955  0.6461 -1.2880
   99SAPC  H18Y 9915   6.520   4.543   4.213 -0.0838 -0.0012 -0.6026
   99SAPC  H18Z 9916   6.399   4.457   4.111 -1.8287  0.7106 -0.1003
  100SAPC     N 9917   3.766   2.259   1.794  1.0161  0.3567 -0.0397
  100SAPC   C12 9918   3.790   2.130   1.873  0.5553 -0.8722  0.2699
  100SAPC  H12A 9919   3.708   2.117   1.941 -0.0854 -2.4024 -0.7579
  100SAPC  H12B 9920   3.878   2.137   1.936  0.7471 -1.7618  0.1167
  100SAPC   C13 9921   3.639   2.240   1.714 -0.0733 -0.3679 -0.1114
  100SAPC  H13A 9922   3.630   2.146   1.662  1.7150  0.3793 -1.9066
  100SAPC  H13B 9923   3.549   2.252   1.772 -0.0858  0.9919 -0.3626
  100SAPC  H13C 9924   3.650   2.322   1.644  3.9328 -1.8750 -1.5658
  100SAPC   C14 9925   3.746   2.370   1.895 -0.3078  0.3614  0.0048
  100SAPC  H14A 9926   3.830   2.395   1.959  1.6802 -1.8362 -1.5938
  100SAPC  H14B 9927   3.711   2.454   1.838  0.7149  0.5935 -0.3105
  100SAPC  H14C 9928   3.664   2.349   1.963  0.2418  0.5882  0.7595
  100SAPC   C15 9929   3.879   2.279   1.702 -0.2965 -0.2974 -0.5255
  100SAPC  H15A 9930   3.856   2.346   1.619  0.7154  0.6077 -0.1042
  100SAPC  H15B 9931   3.968   2.308   1.756 -0.6019  1.4389 -0.8971
  100SAPC  H15C 9932   3.902   2.187   1.650 -0.7250 -1.3402  1.0842
  100SAPC   C11 9933   3.793   1.997   1.787 -0.7916  0.1582 -0.0618
  100SAPC  H11A 9934   3.837   1.907   1.835 -1.5279  0.0956  0.5079
  100SAPC  H11B 9935   3.867   1.998   1.704  0.6784 -1.6221  1.1496
  100SAPC     P 9936   3.558   1.900   1.826  0.0274 -0.1694  0.3672
  100SAPC   O13 9937   3.423   1.937   1.767  0.6248 -0.2254  0.3895
  100SAPC   O14 9938   3.584   1.762   1.858  0.1558  0.5215 -0.4478
  100SAPC   O12 9939   3.673   1.958   1.734 -0.1914 -0.2634 -0.6210
  100SAPC   O11 9940   3.563   1.990   1.956  0.0285  0.1571 -0.4337
  100SAPC    C1 9941   3.454   2.020   2.038  0.2462 -0.6300 -0.4377
  100SAPC    HA 9942   3.387   2.096   1.993  0.0491 -0.9994 -0.7729
  100SAPC    HB 9943   3.384   1.933   2.042  1.5415 -1.7270 -1.1567
  100SAPC    C2 9944   3.499   2.043   2.187 -0.3274  0.4023 -0.8026
  100SAPC    HS 9945   3.410   2.054   2.252  0.9522 -1.0650  1.3284
  100SAPC   O21 9946   3.584   2.163   2.199  0.4152 -0.2808 -0.0099
  100SAPC   C21 9947   3.585   2.223   2.316  0.2564  0.6558  0.4659
  100SAPC   O22 9948   3.496   2.217   2.397  0.1250 -0.1121  0.0484
  100SAPC   C22 9949   3.724   2.289   2.338  0.3802 -0.1054 -0.2010
  100SAPC   H2R 9950   3.740   2.283   2.447 -0.1461  3.9054  0.2204
  100SAPC   H2S 9951   3.797   2.228   2.280 -0.0287 -0.1376 -0.6994
  100SAPC    C3 9952   3.572   1.911   2.237 -0.1175 -0.0236  0.2655
  100SAPC    HX 9953   3.668   1.904   2.182  0.4407 -0.3079  1.2504
  100SAPC    HY 9954   3.505   1.832   2.199 -0.5342 -0.4751  1.8664
  100SAPC   O31 9955   3.589   1.908   2.387 -0.3362 -0.0645  0.1235
  100SAPC   C31 9956   3.714   1.926   2.431  0.1697  0.1765 -0.3042
  100SAPC   O32 9957   3.805   1.963   2.356  0.4750 -0.0085 -0.2078
  100SAPC   C32 9958   3.717   1.909   2.581 -0.0891 -0.2217 -0.3136
  100SAPC   H2X 9959   3.672   1.812   2.612 -0.3572  0.1842  0.5771
  100SAPC   H2Y 9960   3.653   1.992   2.618  1.2226  0.0138  1.5250
  100SAPC   C23 9961   3.721   2.440   2.301 -0.9186  0.6502 -0.3117
  100SAPC   H3R 9962   3.656   2.497   2.371 -2.8337  1.4779 -2.6117
  100SAPC   H3S 9963   3.657   2.453   2.211 -0.7777 -0.5721 -0.6073
  100SAPC   C24 9964   3.863   2.499   2.289 -0.4326 -0.4392  0.4813
  100SAPC   H4R 9965   3.853   2.608   2.305 -1.7671 -0.1882 -1.7190
  100SAPC   H4S 9966   3.895   2.492   2.183  0.8415  0.2898  0.7907
  100SAPC   C25 9967   3.962   2.438   2.386  0.8364 -0.4087 -0.3598
  100SAPC   H5R 9968   4.034   2.368   2.343  0.1387 -1.7477  0.5798
  100SAPC   C26 9969   3.969   2.455   2.519 -0.0400  0.1751  0.0320
  100SAPC   H6R 9970   4.041   2.385   2.565  0.7835 -0.6154 -2.3062
  100SAPC   C27 9971   3.877   2.537   2.608  0.0776 -0.5460 -0.0012
  100SAPC   H7R 9972   3.832   2.459   2.674  1.4197 -2.0573 -0.8143
  100SAPC   H7S 9973   3.811   2.601   2.545  0.4874 -0.2540 -0.1311
  100SAPC   C28 9974   3.954   2.613   2.709 -0.7257  0.3955 -0.6767
  100SAPC   H8R 9975   3.985   2.714   2.680  1.9814  0.1443  0.9935
  100SAPC   C29 9976   4.001   2.570   2.832 -0.0046  1.0723  0.5316
  100SAPC   H9R 9977   4.084   2.628   2.874 -1.1547  1.3373  2.5934
  100SAPC  C210 9978   3.984   2.431   2.891 -0.0224  0.2006  0.6843
  100SAPC  H10R 9979   4.077   2.370   2.898 -0.8466 -1.2351 -0.3890
  100SAPC  H10S 9980   3.906   2.375   2.836  0.1707 -0.2959  0.9134
  100SAPC  C211 9981   3.913   2.444   3.024 -0.3457  0.5928 -0.8594
  100SAPC  H11R 9982   3.814   2.490   3.011 -0.1403  1.2517 -0.1180
  100SAPC  C212 9983   3.953   2.411   3.150 -0.7026 -0.1610  0.1435
  100SAPC  H12R 9984   3.881   2.408   3.232 -1.4638 -1.0729 -0.5411
  100SAPC  C213 9985   4.090   2.366   3.189  0.6063 -0.5042  0.6001
  100SAPC  H13R 9986   4.138   2.448   3.246  0.4013 -0.6630  1.0076
  100SAPC  H13S 9987   4.159   2.360   3.102 -0.8912  0.5645 -0.7140
  100SAPC  C214 9988   4.076   2.233   3.261 -0.0819  0.7552  0.2435
  100SAPC  H14R 9989   4.083   2.146   3.194  0.4300  1.0716 -0.1261
  100SAPC  C215 9990   4.070   2.210   3.394 -0.4687  0.2004 -0.4925
  100SAPC  H15R 9991   4.076   2.107   3.433  0.0828  0.0193 -1.0543
  100SAPC  C216 9992   4.058   2.313   3.501  0.4027  0.2169  0.8954
  100SAPC  H16R 9993   3.977   2.288   3.573 -0.9817 -0.1445 -0.7385
  100SAPC  H16S 9994   4.025   2.411   3.462 -0.5124 -0.4030  0.0487
  100SAPC  C217 9995   4.195   2.326   3.577  0.2362 -0.3208  0.3663
  100SAPC  H17R 9996   4.261   2.357   3.493 -1.4774  0.9204 -0.5732
  100SAPC  H17S 9997   4.231   2.225   3.605 -1.1812 -0.8495  0.3565
  100SAPC  C218 9998   4.197   2.434   3.682 -0.9330 -0.4850  0.3165
  100SAPC  H18R 9999   4.176   2.528   3.626  1.8602  1.0712  1.6385
  100SAPC  H18S10000   4.295   2.435   3.735  0.4402  2.8759 -1.8969
  100SAPC  C21910001   4.084   2.429   3.787 -0.2881 -0.3421 -0.1000
  100SAPC  H19R10002   4.081   2.326   3.830 -2.1750  0.3287  1.4963
  100SAPC  H19S10003   3.991   2.456   3.733  0.4619 -0.7612 -1.6752
  100SAPC  C22010004   4.091   2.533   3.904 -0.3226  0.3235  0.1457
  100SAPC  H20R10005   4.161   2.510   3.987 -2.4463 -1.4590  1.5538
  100SAPC  H20S10006   3.989   2.528   3.947 -0.6971 -2.7198 -0.8743
  100SAPC  H20T10007   4.111   2.637   3.871 -2.1635  1.1946  1.5703
  100SAPC   C3310008   3.858   1.914   2.627 -0.5600 -0.6325 -1.0190
  100SAPC   H3X10009   3.926   1.995   2.593  3.3086 -2.0790  2.3682
  100SAPC   H3Y10010   3.913   1.821   2.598 -0.2319 -0.0768 -2.2607
  100SAPC   C3410011   3.869   1.910   2.781 -0.0621 -0.4967  0.1931
  100SAPC   H4X10012   3.964   1.867   2.820  0.1965 -2.6000 -2.4144
  100SAPC   H4Y10013   3.784   1.844   2.811 -3.6856  1.4663 -4.4960
  100SAPC   C3510014   3.855   2.054   2.838  0.2934  0.0826 -0.1204
  100SAPC   H5X10015   3.765   2.112   2.810 -0.3966 -1.3997 -1.1710
  100SAPC   H5Y10016   3.943   2.115   2.808  0.3665  0.2066  0.3501
  100SAPC   C3610017   3.854   2.056   2.985 -0.0903 -1.1509  0.1961
  100SAPC   H6X10018   3.869   2.163   3.007 -0.6249 -0.3990 -2.6333
  100SAPC   H6Y10019   3.928   2.004   3.049  0.0579 -0.5527  0.5150
  100SAPC   C3710020   3.716   2.005   3.044  0.0711  0.0075 -0.4090
  100SAPC   H7X10021   3.699   1.902   3.006  0.9918 -0.1078 -0.5381
  100SAPC   H7Y10022   3.630   2.064   3.005  0.4207  1.9607  1.5288
  100SAPC   C3810023   3.718   1.982   3.200 -0.0444 -0.4904 -0.1632
  100SAPC   H8X10024   3.796   1.913   3.238  0.7320  1.1442  1.3442
  100SAPC   H8Y10025   3.628   1.923   3.227 -0.4734  0.4553  0.5170
  100SAPC   C3910026   3.702   2.120   3.271  0.1709 -0.0921  1.0054
  100SAPC   H9X10027   3.612   2.178   3.240  2.0834  3.3365  1.2842
  100SAPC   H9Y10028   3.783   2.186   3.233 -0.0424  0.5717  1.6674
  100SAPC  C31010029   3.709   2.102   3.425 -0.2689  0.8821  0.2163
  100SAPC  H10X10030   3.709   2.201   3.476  2.3496  0.6654  0.7562
  100SAPC  H10Y10031   3.804   2.049   3.449 -0.1767 -1.1725 -3.8151
  100SAPC  C31110032   3.592   2.023   3.494 -0.0956 -0.3290  0.0541
  100SAPC  H11X10033   3.600   1.913   3.476 -0.3317 -0.6561  1.7526
  100SAPC  H11Y10034   3.492   2.044   3.451 -0.5020  2.1343  1.9822
  100SAPC  C31210035   3.563   2.061   3.639  0.4202  0.6391 -0.8299
  100SAPC  H12X10036   3.547   2.169   3.660 -1.2737  0.2343  0.1313
  100SAPC  H12Y10037   3.649   2.029   3.701 -2.2691 -2.2936  1.7111
  100SAPC  C31310038   3.446   1.979   3.688  1.0846  0.5259 -0.4757
  100SAPC  H13X10039   3.458   1.870   3.670  0.4864  0.6175 -1.5313
  100SAPC  H13Y10040   3.356   2.018   3.636 -0.5956 -1.1107  1.1001
  100SAPC  C31410041   3.426   2.003   3.834 -0.1933 -0.5509  0.3038
  100SAPC  H14X10042   3.382   2.105   3.845 -2.3759 -1.1804 -1.7027
  100SAPC  H14Y10043   3.527   1.993   3.878  0.8049  1.2897 -1.3707
  100SAPC  C31510044   3.329   1.910   3.902  0.5522  1.0246 -0.4195
  100SAPC  H15X10045   3.349   1.806   3.867 -2.4375  0.2562 -0.0873
  100SAPC  H15Y10046   3.231   1.955   3.876 -1.4819 -1.3041  2.4620
  100SAPC  C31610047   3.329   1.911   4.058  0.4530  0.2568 -0.4126
  100SAPC  H16X10048   3.264   1.824   4.083  1.0904 -0.1861 -0.2773
  100SAPC  H16Y10049   3.275   1.998   4.101  1.9310  1.7172 -1.3951
  100SAPC  C31710050   3.471   1.912   4.116  0.5657 -0.6712  0.3718
  100SAPC  H17X10051   3.535   1.998   4.084  0.2595 -0.2411  0.8915
  100SAPC  H17Y10052   3.528   1.831   4.066 -0.2362  0.9148 -3.4704
  100SAPC  C31810053   3.469   1.894   4.266  0.9491 -0.6226  0.2934
  100SAPC  H18X10054   3.573   1.886   4.304  1.6032 -2.7318 -1.7040
  100SAPC  H18Y10055   3.414   1.801   4.289 -0.8985  0.5226  0.7099
  100SAPC  H18Z10056   3.411   1.975   4.315  0.6802 -0.2442 -0.6312
  101OSM      N10057   6.636   1.943   6.856 -0.0334 -0.2318 -0.4887
  101OSM    C1510058   6.695   1.865   6.966 -0.0155  0.1326 -0.6137
  101OSM   H15A10059   6.621   1.800   7.010  0.4967 -2.4395 -3.2229
  101OSM   H15B10060   6.723   1.934   7.044 -1.4310  1.6769 -1.3925
  101OSM   H15C10061   6.790   1.822   6.938  0.0565 -0.6354  0.7533
  101OSM    C1410062   6.500   1.980   6.894 -0.3753  0.0172  0.4558
  101OSM   H14A10063   6.446   2.018   6.809  0.0666 -0.0493  0.1448
  101OSM   H14B10064   6.494   2.041   6.983  0.4919  0.5512  0.1536
  101OSM   H14C10065   6.443   1.890   6.911 -2.2975  0.7539 -1.7047
  101OSM    C1310066   6.718   2.069   6.841  0.4622  0.6129  0.3742
  101OSM   H13A10067   6.713   2.127   6.932 -0.4565  0.7959  0.2197
  101OSM   H13B10068   6.667   2.124   6.764 -1.6570 -1.4513  0.1692
  101OSM   H13C10069   6.822   2.047   6.827  0.4317 -0.8537  2.0777
  101OSM    C1210070   6.642   1.865   6.733  0.1861  0.2427 -0.1357
  101OSM   H12A10071   6.621   1.761   6.747  0.5231  0.4486  2.2916
  101OSM   H12B10072   6.745   1.853   6.701 -0.3137 -1.8441 -1.1223
  101OSM    C1110073   6.573   1.908   6.598  0.2252 -0.0372  0.6192
  101OSM   H11A10074   6.467   1.876   6.593  0.7570 -2.1038  1.2921
  101OSM   H11B10075   6.624   1.837   6.529 -1.1124 -0.6715  0.2448
  101OSM      P10076   6.497   2.153   6.539 -0.3428  0.0944 -0.6423
  101OSM    O1310077   6.386   2.131   6.635 -0.1121 -0.3718  0.4234
  101OSM    O1410078   6.569   2.282   6.548 -0.1248  0.5726 -0.4157
  101OSM    O1110079   6.442   2.154   6.392  0.0137 -0.2050 -0.2180
  101OSM    O1210080   6.605   2.037   6.550 -0.2653 -0.0912 -0.2388
  101OSM    C1S10081   6.535   2.153   6.280  0.3545 -0.2615  0.3580
  101OSM    H1S10082   6.604   2.067   6.290  2.3163  1.2003  0.0319
  101OSM    H1T10083   6.598   2.245   6.277 -1.6412  1.1607  0.0171
  101OSM     NF10084   6.556   2.107   6.032  0.0301 -0.2938  0.7282
  101OSM    HNF10085   6.553   2.167   5.952 -0.1765  1.1668  1.7834
  101OSM    C2S10086   6.463   2.134   6.143 -0.3437 -0.3911  0.1143
  101OSM    H2S10087   6.411   2.038   6.165  4.0289 -3.0569  0.0321
  101OSM    C3S10088   6.365   2.250   6.115 -0.1262  0.2429  0.2221
  101OSM    H3S10089   6.428   2.339   6.093  0.0548  0.1954  0.5377
  101OSM     O310090   6.284   2.291   6.225  0.3274 -0.2206 -0.3518
  101OSM    HO310091   6.333   2.259   6.301 -1.3405  0.1713  0.9805
  101OSM    C4S10092   6.281   2.229   5.981  0.2891 -0.3771  0.2374
  101OSM    H4S10093   6.333   2.283   5.900  0.3208 -0.4968  0.1776
  101OSM    C5S10094   6.160   2.170   5.948 -0.2985  0.2339 -0.3923
  101OSM    H5S10095   6.104   2.124   6.030 -0.6967 -1.9552 -1.8179
  101OSM    C6S10096   6.096   2.157   5.813  0.0151  0.1751 -0.4953
  101OSM    H6S10097   5.998   2.210   5.820 -0.1105 -0.0265 -0.6803
  101OSM    H6T10098   6.076   2.049   5.793  0.8148 -0.6279  2.5396
  101OSM    C7S10099   6.181   2.214   5.697 -0.7651 -0.2314  0.6783
  101OSM    H7S10100   6.280   2.165   5.684  1.5044  4.1218 -0.6758
  101OSM    H7T10101   6.201   2.322   5.716  2.7431  0.0192 -3.0439
  101OSM    C8S10102   6.104   2.192   5.561 -0.1016  0.0898 -0.6262
  101OSM    H8S10103   6.015   2.258   5.568  0.5351  0.8344  1.1352
  101OSM    H8T10104   6.069   2.087   5.559  1.4878 -0.4533 -2.3936
  101OSM    C9S10105   6.189   2.220   5.431 -0.3535 -0.4921 -0.1252
  101OSM    H9S10106   6.283   2.161   5.423 -1.0968 -2.2366  2.6685
  101OSM    H9T10107   6.217   2.328   5.437  0.1860 -0.6391  0.0224
  101OSM   C10S10108   6.101   2.220   5.309 -0.4169  0.1411 -0.4091
  101OSM   H10S10109   6.015   2.291   5.314 -0.9150 -0.1768 -2.8548
  101OSM   H10T10110   6.066   2.118   5.283  0.5225  0.5742 -4.0423
  101OSM   C11S10111   6.179   2.255   5.180  0.0160  0.0756 -0.2004
  101OSM   H11S10112   6.263   2.185   5.158 -0.1722 -0.5264  0.9197
  101OSM   H11T10113   6.239   2.346   5.200  1.2509 -1.0827  1.7040
  101OSM   C12S10114   6.094   2.280   5.053 -0.3892  0.5997 -1.1424
  101OSM   H12S10115   6.003   2.336   5.083 -1.1748 -1.1002 -0.1662
  101OSM   H12T10116   6.055   2.183   5.015 -0.3369  0.4994 -0.9429
  101OSM   C13S10117   6.170   2.363   4.951 -0.0555 -0.2679 -0.0357
  101OSM   H13S10118   6.229   2.441   5.003  0.7582 -1.1366  0.3690
  101OSM   H13T10119   6.095   2.416   4.887 -1.1511 -0.1479  1.3159
  101OSM   C14S10120   6.276   2.281   4.879  0.4028 -0.2792 -0.2796
  101OSM   H14S10121   6.343   2.245   4.960  0.1191 -1.0776 -0.3839
  101OSM   H14T10122   6.336   2.345   4.812  0.3896 -0.1836 -0.1992
  101OSM   C15S10123   6.225   2.172   4.789  0.3733  0.8012  0.6705
  101OSM   H15S10124   6.134   2.206   4.736  0.6484 -1.0461 -1.0826
  101OSM   H15T10125   6.198   2.083   4.850 -2.2521  1.3579  0.4419
  101OSM   C16S10126   6.324   2.140   4.677  0.4472  0.3956 -0.3317
  101OSM   H16S10127   6.325   2.029   4.677  0.8208  0.3537  1.6873
  101OSM   H16T10128   6.424   2.169   4.714  1.3685  1.7959 -3.5510
  101OSM   C17S10129   6.290   2.191   4.537  0.4462 -0.7560  0.0102
  101OSM   H17S10130   6.288   2.302   4.541  1.8488 -0.7290  0.4574
  101OSM   H17T10131   6.187   2.158   4.509 -0.3534 -0.3991  2.2729
  101OSM   C18S10132   6.391   2.154   4.422 -0.2131 -0.1827 -0.0494
  101OSM   H18S10133   6.333   2.170   4.329 -1.0187  3.0374  0.8901
  101OSM   H18T10134   6.414   2.045   4.430 -1.8999 -0.6663 -1.1405
  101OSM   H18U10135   6.485   2.211   4.429  0.0984 -0.4404 -1.7024
  101OSM    C1F10136   6.624   1.990   6.026 -0.6135  0.0633  0.5011
  101OSM     OF10137   6.620   1.906   6.113 -0.0358  0.0022 -0.0727
  101OSM    C2F10138   6.697   1.963   5.899 -0.0028  0.0239 -0.5497
  101OSM    H2F10139   6.758   2.052   5.874  1.3893 -0.4892  0.8467
  101OSM    H2G10140   6.621   1.952   5.818 -0.7780  1.3260 -0.0167
  101OSM    C3F10141   6.787   1.831   5.899  0.8145  0.1785  0.7984
  101OSM    H3F10142   6.724   1.745   5.931  0.7796  0.0708  0.4523
  101OSM    H3G10143   6.874   1.830   5.967  0.1939  0.8747  1.6229
  101OSM    C4F10144   6.858   1.808   5.771 -0.0982  0.2341  0.2886
  101OSM    H4F10145   6.903   1.707   5.782  0.8054  0.6564  0.5350
  101OSM    H4G10146   6.932   1.885   5.740  1.3413 -1.5512 -0.9216
  101OSM    C5F10147   6.755   1.785   5.648 -0.5507  0.7502 -0.3476
  101OSM    H5F10148   6.697   1.877   5.627 -2.6913 -0.0520  1.5124
  101OSM    H5G10149   6.674   1.711   5.669 -0.4208 -0.2180 -2.9611
  101OSM    C6F10150   6.827   1.753   5.523  0.0829 -0.4336 -0.0914
  101OSM    H6F10151   6.902   1.672   5.533 -0.0738 -0.3103  3.3560
  101OSM    H6G10152   6.870   1.853   5.498 -0.9893 -0.0537 -0.5083
  101OSM    C7F10153   6.733   1.699   5.413  0.0711 -0.2655  0.3314
  101OSM    H7F10154   6.659   1.778   5.392 -0.6539 -0.3658  2.3611
  101OSM    H7G10155   6.658   1.629   5.455 -0.6110  0.1861 -0.1127
  101OSM    C8F10156   6.803   1.655   5.291  0.2514  0.1850 -0.1610
  101OSM    H8F10157   6.723   1.620   5.222 -0.0408  1.2677 -0.3811
  101OSM    H8G10158   6.850   1.561   5.329 -1.6817 -0.7796 -0.0261
  101OSM    C9F10159   6.912   1.743   5.240  1.2857  0.6581 -0.0035
  101OSM    H9F10160   7.009   1.737   5.292  1.0024 -1.0279  0.4109
  101OSM   C10F10161   6.898   1.818   5.130 -0.7014  0.7504  0.4616
  101OSM   H10F10162   6.977   1.894   5.113  0.3547 -0.0790  1.5198
  101OSM   C11F10163   6.773   1.825   5.043 -0.2359 -0.0426  0.6108
  101OSM   H11F10164   6.751   1.929   5.010 -1.3057 -0.4299  0.0553
  101OSM   H11G10165   6.679   1.790   5.090 -2.0866  0.5149 -2.3752
  101OSM   C12F10166   6.797   1.739   4.916  0.3216  0.0467  0.5932
  101OSM   H12F10167   6.879   1.784   4.855 -0.3945  2.3810  1.2719
  101OSM   H12G10168   6.708   1.747   4.851  2.1523 -0.7603 -2.1805
  101OSM   C13F10169   6.804   1.588   4.931  0.4233  0.7622 -0.3986
  101OSM   H13F10170   6.708   1.565   4.983  1.6299 -1.6009  0.9431
  101OSM   H13G10171   6.884   1.566   5.005 -2.4895  0.5353  2.9685
  101OSM   C14F10172   6.838   1.515   4.801  0.4616  0.1212 -0.2171
  101OSM   H14F10173   6.911   1.573   4.741 -1.1282  1.2209 -1.1915
  101OSM   H14G10174   6.741   1.515   4.746 -1.0626  0.4214  2.2666
  101OSM   C15F10175   6.895   1.373   4.799 -0.2792  0.2054 -0.0880
  101OSM   H15F10176   6.837   1.308   4.868 -1.4562  0.9664 -0.3323
  101OSM   H15G10177   6.998   1.363   4.842 -1.1861 -1.4413  1.8861
  101OSM   C16F10178   6.877   1.317   4.658 -0.6535 -0.4304 -0.3863
  101OSM   H16F10179   6.911   1.395   4.586  1.2990  1.9161  2.8431
  101OSM   H16G10180   6.768   1.297   4.648 -0.5828 -1.0825  0.0975
  101OSM   C17F10181   6.979   1.200   4.636 -0.6733 -0.9380  0.1694
  101OSM   H17F10182   6.952   1.111   4.697 -1.0924 -1.0010 -0.1053
  101OSM   H17G10183   7.086   1.227   4.641  0.2840 -3.6494 -2.5762
  101OSM   C18F10184   6.966   1.161   4.494 -0.5435  0.1293 -0.4114
  101OSM   H18F10185   7.008   1.234   4.421  0.2189 -0.8532 -0.9905
  101OSM   H18G10186   6.861   1.148   4.458 -0.4857 -1.0922 -0.1883
  101OSM   H18H10187   7.013   1.061   4.479  0.8701  0.6554  0.3593
  102OSM      N10188   5.187   4.957   6.590 -0.1632 -0.1157  0.5716
  102OSM    C1510189   5.321   5.013   6.554  0.2007  0.0790  0.9124
  102OSM   H15A10190   5.372   4.945   6.487  0.9835  0.1009  1.4664
  102OSM   H15B10191   5.377   5.016   6.647 -1.1770  0.0074  1.7741
  102OSM   H15C10192   5.312   5.109   6.505 -0.0831 -0.2428  0.3326
  102OSM    C1410193   5.119   5.051   6.684 -0.7750  0.7110  0.6205
  102OSM   H14A10194   5.125   5.150   6.641  0.9891 -0.2738 -1.5860
  102OSM   H14B10195   5.168   5.055   6.780 -0.6854  1.1062  0.5594
  102OSM   H14C10196   5.014   5.027   6.695 -0.4769  0.0238  2.2917
  102OSM    C1310197   5.108   4.950   6.458 -0.7081  0.2170 -0.5121
  102OSM   H13A10198   5.164   4.890   6.388  0.3972 -0.5325  0.9629
  102OSM   H13B10199   5.091   5.050   6.421 -4.1100  0.4676  1.2862
  102OSM   H13C10200   5.010   4.907   6.475 -0.0050 -0.6640  1.7296
  102OSM    C1210201   5.202   4.813   6.637  0.1885 -0.7490 -0.0215
  102OSM   H12A10202   5.229   4.749   6.555  0.1829  0.0413 -0.6524
  102OSM   H12B10203   5.103   4.778   6.661  0.9453 -2.6733  0.5195
  102OSM    C1110204   5.284   4.775   6.766 -0.3987  0.1347 -0.8481
  102OSM   H11A10205   5.284   4.664   6.773 -4.2761 -0.1292 -2.5975
  102OSM   H11B10206   5.217   4.817   6.844 -0.9267 -0.4222 -0.9909
  102OSM      P10207   5.547   4.763   6.746  0.2175  0.0796  0.1185
  102OSM    O1310208   5.651   4.861   6.696  0.4310  0.4791  0.0456
  102OSM    O1410209   5.582   4.699   6.874 -0.5842 -0.0176 -0.0360
  102OSM    O1110210   5.517   4.647   6.650 -0.0580  0.3502  0.5582
  102OSM    O1210211   5.410   4.831   6.766 -0.2437  0.1888  0.4460
  102OSM    C1S10212   5.487   4.657   6.509  0.3919  0.5205  0.2573
  102OSM    H1S10213   5.411   4.732   6.479 -1.0818 -0.7659  0.6868
  102OSM    H1T10214   5.432   4.567   6.476  0.5745  1.3967 -2.7495
  102OSM     NF10215   5.587   4.697   6.288  0.3358 -0.0105 -0.3014
  102OSM    HNF10216   5.602   4.619   6.227 -1.3313 -0.5621 -0.0368
  102OSM    C2S10217   5.623   4.676   6.431  0.2383 -0.5535  0.6589
  102OSM    H2S10218   5.664   4.772   6.469  2.7512 -0.6896 -1.4350
  102OSM    C3S10219   5.725   4.563   6.455 -0.2802  0.8315  0.5758
  102OSM    H3S10220   5.685   4.472   6.405 -0.1058  0.8207  0.4563
  102OSM     O310221   5.759   4.521   6.592 -0.3197  0.6890  0.3380
  102OSM    HO310222   5.686   4.547   6.649 -2.0484  1.7246 -2.1263
  102OSM    C4S10223   5.849   4.594   6.377  0.1365  0.9879 -0.1174
  102OSM    H4S10224   5.899   4.691   6.388 -0.4020  1.2946 -0.3521
  102OSM    C5S10225   5.903   4.510   6.287 -0.1357  0.7388  0.5602
  102OSM    H5S10226   5.855   4.413   6.269 -1.9430  1.0549  3.0509
  102OSM    C6S10227   6.026   4.546   6.193  0.5990  0.0626 -0.1576
  102OSM    H6S10228   6.087   4.454   6.182  1.7286  0.5459  1.6125
  102OSM    H6T10229   6.096   4.623   6.233  0.5316 -0.1039  0.2864
  102OSM    C7S10230   5.978   4.568   6.049 -0.5363 -0.6145 -0.3822
  102OSM    H7S10231   5.922   4.662   6.032 -0.5153 -0.8678 -2.0408
  102OSM    H7T10232   5.908   4.484   6.024 -1.0191 -0.7333  1.2625
  102OSM    C8S10233   6.093   4.557   5.948 -0.1956 -0.5047 -0.3183
  102OSM    H8S10234   6.146   4.460   5.960 -0.9714 -0.9553 -0.4884
  102OSM    H8T10235   6.157   4.644   5.973 -0.9078 -0.0633  0.0181
  102OSM    C9S10236   6.059   4.562   5.798  0.2365 -0.5439 -0.4434
  102OSM    H9S10237   5.968   4.622   5.776  1.1384  1.5523  1.1255
  102OSM    H9T10238   6.020   4.461   5.771  0.5343 -0.9241  0.4975
  102OSM   C10S10239   6.172   4.616   5.710 -0.0091  0.3232 -0.1353
  102OSM   H10S10240   6.259   4.612   5.780 -0.0442  2.6709  0.1107
  102OSM   H10T10241   6.138   4.718   5.685 -0.4651  0.2507  0.1814
  102OSM   C11S10242   6.188   4.548   5.569  0.4431  0.8053 -0.0089
  102OSM   H11S10243   6.205   4.439   5.580  0.3460  0.6389 -1.3482
  102OSM   H11T10244   6.271   4.591   5.508  1.0822 -0.7900 -0.3132
  102OSM   C12S10245   6.061   4.556   5.486 -0.6956  0.3995 -0.1734
  102OSM   H12S10246   6.018   4.658   5.479 -0.0308  0.8242  1.3387
  102OSM   H12T10247   5.988   4.498   5.547 -3.4229  2.6510 -1.0791
  102OSM   C13S10248   6.077   4.480   5.358  0.2667  0.0623 -0.1620
  102OSM   H13S10249   6.111   4.377   5.384  1.2340  0.0053 -1.5465
  102OSM   H13T10250   6.157   4.522   5.293  0.1583  2.5266  1.1743
  102OSM   C14S10251   5.952   4.479   5.276 -0.0663  0.6187  0.2006
  102OSM   H14S10252   5.920   4.583   5.253  1.4043  1.2352  0.8026
  102OSM   H14T10253   5.877   4.413   5.325  1.3959 -1.3851 -0.1080
  102OSM   C15S10254   5.970   4.401   5.135  0.1437  0.0209 -0.1117
  102OSM   H15S10255   5.875   4.411   5.077  0.7001  2.3324 -0.7174
  102OSM   H15T10256   5.993   4.293   5.141 -0.2132 -0.3361 -3.2254
  102OSM   C16S10257   6.054   4.486   5.037 -0.1389 -0.0508 -0.5980
  102OSM   H16S10258   6.156   4.490   5.080  0.5572 -1.9522 -1.9430
  102OSM   H16T10259   6.010   4.588   5.043 -1.3171 -0.6220  2.1335
  102OSM   C17S10260   6.084   4.435   4.898 -0.0181 -0.2567 -0.5625
  102OSM   H17S10261   5.990   4.393   4.856 -0.5816  0.6746 -0.2561
  102OSM   H17T10262   6.151   4.348   4.912 -1.0808 -0.9179  0.5824
  102OSM   C18S10263   6.154   4.545   4.822  0.2397 -0.2496  0.1205
  102OSM   H18S10264   6.081   4.629   4.816  0.9814  0.4145  0.1846
  102OSM   H18T10265   6.179   4.520   4.717 -0.9543 -2.0279  0.2320
  102OSM   H18U10266   6.248   4.583   4.867 -0.4652  1.9428 -0.1029
  102OSM    C1F10267   5.534   4.810   6.236  0.0527  0.4767  0.2083
  102OSM     OF10268   5.523   4.911   6.299  0.0704  0.0843 -0.1921
  102OSM    C2F10269   5.489   4.799   6.094 -0.3250 -0.2897 -0.3218
  102OSM    H2F10270   5.476   4.692   6.068 -3.6705 -0.2990  0.9546
  102OSM    H2G10271   5.577   4.830   6.034 -0.2713 -1.1387 -0.6967
  102OSM    C3F10272   5.367   4.877   6.057 -0.2889 -0.6905  0.6691
  102OSM    H3F10273   5.373   4.982   6.092 -2.3219 -1.1115  2.5449
  102OSM    H3G10274   5.275   4.842   6.109 -1.6217  1.4690 -0.1053
  102OSM    C4F10275   5.327   4.879   5.904 -0.0795 -0.3133 -0.4253
  102OSM    H4F10276   5.299   4.779   5.864 -0.0845 -0.7696  0.6914
  102OSM    H4G10277   5.420   4.910   5.851  0.5301  2.1760  1.8716
  102OSM    C5F10278   5.210   4.964   5.881  0.0993 -0.1476  0.3304
  102OSM    H5F10279   5.193   5.047   5.953 -0.6761  0.6033 -0.6747
  102OSM    H5G10280   5.119   4.901   5.884 -0.9153  1.2749  1.0053
  102OSM    C6F10281   5.205   5.033   5.742 -0.4234 -0.1894 -0.5471
  102OSM    H6F10282   5.216   4.967   5.653 -0.3192 -0.4252 -0.3609
  102OSM    H6G10283   5.284   5.111   5.734 -1.0199  0.7283  1.6513
  102OSM    C7F10284   5.075   5.113   5.725 -0.1199  0.3184 -0.2731
  102OSM    H7F10285   5.075   5.210   5.778 -0.5611 -0.1087  0.5342
  102OSM    H7G10286   4.988   5.052   5.760  0.4971 -0.6416 -0.3591
  102OSM    C8F10287   5.040   5.154   5.583  1.1901  0.1309  0.3819
  102OSM    H8F10288   5.120   5.217   5.537  0.3361  1.1077  0.1925
  102OSM    H8G10289   4.952   5.221   5.589  1.1099  0.0647 -0.0282
  102OSM    C9F10290   4.998   5.036   5.493 -0.2556  0.3706 -0.3056
  102OSM    H9F10291   4.895   5.004   5.513 -2.2714  3.7934 -3.9913
  102OSM   C10F10292   5.067   4.949   5.416 -1.0174 -0.2438 -0.7053
  102OSM   H10F10293   5.014   4.860   5.380  1.3721 -2.3052  0.5440
  102OSM   C11F10294   5.212   4.965   5.372  0.1708  0.2800  0.2407
  102OSM   H11F10295   5.264   4.877   5.415 -1.8834 -0.8839  0.4354
  102OSM   H11G10296   5.266   5.058   5.401 -0.6530  0.7302  0.3463
  102OSM   C12F10297   5.218   4.956   5.211 -0.0305  0.1602 -0.5997
  102OSM   H12F10298   5.140   5.017   5.161 -0.2169  0.1784 -0.2901
  102OSM   H12G10299   5.213   4.850   5.177 -0.9674  0.7722 -2.5153
  102OSM   C13F10300   5.345   5.023   5.164 -0.0900 -0.0082  0.4106
  102OSM   H13F10301   5.437   4.966   5.189  1.9562  2.2053 -1.5178
  102OSM   H13G10302   5.349   5.126   5.203 -3.0139 -0.6040  2.5584
  102OSM   C14F10303   5.342   5.026   5.005 -0.1779 -0.3035 -0.8278
  102OSM   H14F10304   5.337   5.130   4.967  0.1127 -0.6513 -1.8450
  102OSM   H14G10305   5.253   4.965   4.977  0.0234 -1.0012  0.0005
  102OSM   C15F10306   5.475   4.962   4.955  0.7825 -0.2556  0.0260
  102OSM   H15F10307   5.487   4.868   5.014  1.4096  0.3482  0.8771
  102OSM   H15G10308   5.558   5.033   4.973 -0.3997  1.0964  0.2676
  102OSM   C16F10309   5.471   4.924   4.805  0.5989 -0.0807 -0.0219
  102OSM   H16F10310   5.406   4.999   4.755 -0.0655 -0.5991  0.0478
  102OSM   H16G10311   5.424   4.825   4.789 -0.2701 -0.1480  2.4650
  102OSM   C17F10312   5.606   4.933   4.733 -0.3788  0.3924  0.0165
  102OSM   H17F10313   5.661   4.856   4.791  1.2297  0.3190 -1.5243
  102OSM   H17G10314   5.662   5.029   4.737 -0.6742  0.6056 -0.7401
  102OSM   C18F10315   5.594   4.892   4.580 -0.1656  0.2813  0.2489
  102OSM   H18F10316   5.549   4.790   4.578  0.4912 -0.0207  0.3806
  102OSM   H18G10317   5.693   4.889   4.530  0.6748 -1.2350  1.8685
  102OSM   H18H10318   5.523   4.960   4.529  1.7793  1.5406 -0.8915
  103OSM      N10319   6.365   1.164   6.728  0.8591  0.2064 -0.1654
  103OSM    C1510320   6.410   1.023   6.719  0.5983  0.5825  0.1115
  103OSM   H15A10321   6.400   0.992   6.616 -2.3423  0.6522  0.2810
  103OSM   H15B10322   6.348   0.956   6.777  2.1085 -1.1689 -0.2421
  103OSM   H15C10323   6.513   1.008   6.746  0.3380  0.7811  1.2875
  103OSM    C1410324   6.364   1.203   6.874 -0.0691 -0.4696  0.9415
  103OSM   H14A10325   6.296   1.134   6.921 -0.3713 -0.5053  0.4605
  103OSM   H14B10326   6.334   1.306   6.888  0.6779 -0.0975 -0.0767
  103OSM   H14C10327   6.462   1.188   6.917  1.7309 -1.5627 -3.0570
  103OSM    C1310328   6.462   1.244   6.654  0.6095 -0.1093 -0.6679
  103OSM   H13A10329   6.446   1.351   6.660 -1.2335 -0.3216 -1.1144
  103OSM   H13B10330   6.482   1.214   6.552  1.3724  0.5927 -0.7350
  103OSM   H13C10331   6.558   1.221   6.698  0.5180  1.7886  0.6431
  103OSM    C1210332   6.227   1.172   6.667  0.3782  0.5408  0.3234
  103OSM   H12A10333   6.158   1.103   6.714 -1.2945  3.5738  2.7229
  103OSM   H12B10334   6.228   1.136   6.565 -2.2009  0.3996  0.2807
  103OSM    C1110335   6.161   1.310   6.664  0.4403 -1.0535 -0.4581
  103OSM   H11A10336   6.170   1.370   6.757 -1.6111 -1.5975  0.1404
  103OSM   H11B10337   6.053   1.287   6.650 -0.3926  2.0831  0.0887
  103OSM      P10338   6.208   1.544   6.577  0.0456 -0.4151  0.0635
  103OSM    O1310339   6.073   1.593   6.610  0.0275 -0.0277 -0.0605
  103OSM    O1410340   6.319   1.586   6.663 -0.6577  0.1821  0.0457
  103OSM    O1110341   6.220   1.596   6.434  0.1665  0.2612  0.6727
  103OSM    O1210342   6.205   1.385   6.550 -0.0538  0.3678 -0.1293
  103OSM    C1S10343   6.355   1.614   6.382 -0.7649 -0.4721 -1.0679
  103OSM    H1S10344   6.419   1.525   6.396  0.6713  0.9169  2.6095
  103OSM    H1T10345   6.408   1.698   6.432  3.2284 -2.1120 -2.1884
  103OSM     NF10346   6.512   1.667   6.202 -0.7348  0.4826 -0.1027
  103OSM    HNF10347   6.539   1.762   6.189 -0.7756  0.2528 -2.2892
  103OSM    C2S10348   6.371   1.647   6.239  0.6941  0.0203 -0.0896
  103OSM    H2S10349   6.339   1.551   6.194 -2.2230  1.2016 -0.7619
  103OSM    C3S10350   6.266   1.751   6.181 -0.0735 -1.0424  0.1953
  103OSM    H3S10351   6.282   1.851   6.227  0.3570 -0.4667 -1.1339
  103OSM     O310352   6.131   1.734   6.225 -0.7461 -0.2950 -0.2446
  103OSM    HO310353   6.140   1.667   6.293  1.2972 -0.4565 -0.6145
  103OSM    C4S10354   6.276   1.774   6.031  0.3155  0.2808  0.4347
  103OSM    H4S10355   6.370   1.821   5.998  1.3936 -1.7499  0.4461
  103OSM    C5S10356   6.183   1.745   5.932 -1.0111 -0.5416 -1.0430
  103OSM    H5S10357   6.086   1.703   5.964 -0.6019  0.4605  1.8517
  103OSM    C6S10358   6.202   1.775   5.783  0.5332 -0.4105 -0.4167
  103OSM    H6S10359   6.124   1.845   5.748 -0.1341 -0.7891  0.2932
  103OSM    H6T10360   6.174   1.683   5.726 -0.1011  0.8425 -2.2084
  103OSM    C7S10361   6.338   1.822   5.750 -0.0946 -0.0622 -0.1351
  103OSM    H7S10362   6.407   1.737   5.769 -2.0483 -1.3586  1.6853
  103OSM    H7T10363   6.369   1.908   5.813 -1.1527 -0.1107  0.4857
  103OSM    C8S10364   6.361   1.867   5.604  0.2575 -0.0415 -0.7817
  103OSM    H8S10365   6.455   1.924   5.589  0.1041  0.5474  0.3556
  103OSM    H8T10366   6.272   1.931   5.580  0.7856  1.3277  0.7125
  103OSM    C9S10367   6.370   1.757   5.502 -0.1296  0.2458  0.6170
  103OSM    H9S10368   6.282   1.690   5.510  0.0920 -0.4322 -1.8837
  103OSM    H9T10369   6.471   1.710   5.499  0.2708  0.8346  2.8490
  103OSM   C10S10370   6.364   1.820   5.355  0.4299  0.5713  0.6344
  103OSM   H10S10371   6.455   1.882   5.338 -1.6991  3.4511 -0.9139
  103OSM   H10T10372   6.281   1.893   5.351  0.8439  1.0174  0.1180
  103OSM   C11S10373   6.338   1.713   5.250  0.2515  0.0834  0.4721
  103OSM   H11S10374   6.244   1.656   5.265  0.7644 -1.0177 -0.3673
  103OSM   H11T10375   6.413   1.631   5.256  1.2496  0.9592  0.1943
  103OSM   C12S10376   6.329   1.777   5.110  0.2729  0.2631  0.2005
  103OSM   H12S10377   6.425   1.817   5.071  0.0403  0.0731 -0.5925
  103OSM   H12T10378   6.248   1.851   5.127 -1.4587 -1.8240  1.5979
  103OSM   C13S10379   6.287   1.675   5.013 -0.3021 -0.2925 -0.2271
  103OSM   H13S10380   6.179   1.648   5.023 -0.4658  0.4189  0.0241
  103OSM   H13T10381   6.350   1.585   5.007  1.4426  0.9052 -0.5225
  103OSM   C14S10382   6.315   1.728   4.873  0.5826 -0.5987 -0.3343
  103OSM   H14S10383   6.422   1.751   4.858  0.0759  0.2660 -3.3757
  103OSM   H14T10384   6.263   1.827   4.872 -0.7946 -1.2475  1.1422
  103OSM   C15S10385   6.280   1.637   4.758  0.2127 -0.0848 -0.1521
  103OSM   H15S10386   6.174   1.604   4.759  0.8008 -2.1031  0.6756
  103OSM   H15T10387   6.338   1.543   4.773 -0.9948 -1.0026 -1.0630
  103OSM   C16S10388   6.311   1.699   4.622  0.5442 -0.8241 -0.4482
  103OSM   H16S10389   6.263   1.798   4.604 -0.8636 -1.3739  0.1511
  103OSM   H16T10390   6.258   1.633   4.552  0.5363 -0.2768 -0.9680
  103OSM   C17S10391   6.460   1.693   4.581  0.0932 -0.2635 -0.1797
  103OSM   H17S10392   6.500   1.601   4.627 -1.6112 -0.6810  0.5613
  103OSM   H17T10393   6.517   1.771   4.636 -2.2828  0.4453  1.4512
  103OSM   C18S10394   6.480   1.698   4.430  0.0801  0.1238 -0.2292
  103OSM   H18S10395   6.411   1.636   4.369  0.8266 -1.0128  0.0458
  103OSM   H18T10396   6.579   1.655   4.406 -0.9589 -2.9309  0.4439
  103OSM   H18U10397   6.473   1.803   4.394 -0.0042 -0.3768 -1.7308
  103OSM    C1F10398   6.601   1.565   6.217  1.2042  0.2109  0.1059
  103OSM     OF10399   6.559   1.449   6.210 -0.2778 -0.8321  0.7287
  103OSM    C2F10400   6.739   1.595   6.235 -0.5799 -0.2018  0.1944
  103OSM    H2F10401   6.765   1.601   6.343 -1.6559 -0.9493  0.5027
  103OSM    H2G10402   6.766   1.692   6.188  0.6807 -0.6963 -0.1453
  103OSM    C3F10403   6.838   1.494   6.177  0.2220  0.3027 -0.5900
  103OSM    H3F10404   6.815   1.387   6.197  3.5612 -0.7010 -1.4305
  103OSM    H3G10405   6.942   1.507   6.213  1.1601 -1.4516 -2.4394
  103OSM    C4F10406   6.846   1.492   6.026  0.0192  0.1317 -0.5321
  103OSM    H4F10407   6.872   1.596   5.999  0.5995 -0.6613 -3.3164
  103OSM    H4G10408   6.740   1.480   5.996  0.4564 -2.1909 -1.3437
  103OSM    C5F10409   6.937   1.390   5.960 -0.0331  0.0864 -0.7863
  103OSM    H5F10410   6.918   1.291   6.008 -1.2669  0.4952 -0.4127
  103OSM    H5G10411   7.043   1.418   5.982 -0.9687  2.6557  0.8721
  103OSM    C6F10412   6.902   1.378   5.815 -0.6587  0.4298  0.6338
  103OSM    H6F10413   6.930   1.474   5.767 -0.4910  0.3862  0.6436
  103OSM    H6G10414   6.797   1.345   5.800  0.4144 -2.5602 -1.3303
  103OSM    C7F10415   6.975   1.259   5.742  0.6041  0.2467 -0.5822
  103OSM    H7F10416   6.908   1.173   5.761 -0.3397  1.1418  0.2435
  103OSM    H7G10417   7.070   1.246   5.799  1.0276  2.8884 -0.5557
  103OSM    C8F10418   6.998   1.273   5.591 -0.0702  0.1250 -0.2671
  103OSM    H8F10419   7.063   1.362   5.578 -0.3610  0.3900  0.0899
  103OSM    H8G10420   6.898   1.289   5.545 -0.2373 -1.4985 -0.5400
  103OSM    C9F10421   7.057   1.141   5.548 -0.2740 -0.0765  0.1740
  103OSM    H9F10422   7.058   1.059   5.621  1.0555  0.3897  0.7183
  103OSM   C10F10423   7.113   1.115   5.433 -0.2797 -0.1437  0.3876
  103OSM   H10F10424   7.147   1.013   5.409 -1.9149 -0.4983 -0.6504
  103OSM   C11F10425   7.143   1.201   5.307  0.0170 -0.6197  0.1073
  103OSM   H11F10426   7.251   1.191   5.281 -0.1675  0.5558 -1.2289
  103OSM   H11G10427   7.125   1.308   5.333 -1.8278 -0.6558 -0.8300
  103OSM   C12F10428   7.062   1.181   5.183 -0.4410 -0.0670 -0.2768
  103OSM   H12F10429   7.068   1.263   5.108 -0.2629 -1.3752 -1.7541
  103OSM   H12G10430   6.959   1.178   5.223 -0.8004 -1.9293 -1.2365
  103OSM   C13F10431   7.083   1.047   5.099 -0.5982  0.2475 -0.1835
  103OSM   H13F10432   7.019   1.043   5.008  2.7336  1.9278 -2.8763
  103OSM   H13G10433   7.064   0.963   5.170 -0.2555  0.9814  0.7953
  103OSM   C14F10434   7.220   1.031   5.037  0.3441  0.3370  0.5900
  103OSM   H14F10435   7.301   1.063   5.105 -1.6861  0.6568  2.9800
  103OSM   H14G10436   7.223   1.101   4.951 -1.0587  2.4644  2.1771
  103OSM   C15F10437   7.272   0.893   4.990 -0.6204 -0.5740  0.3586
  103OSM   H15F10438   7.223   0.880   4.891  0.4126  0.6064 -0.3376
  103OSM   H15G10439   7.236   0.813   5.058  0.2804 -2.8939 -1.7711
  103OSM   C16F10440   7.425   0.901   4.983 -0.5787 -0.1950 -0.4999
  103OSM   H16F10441   7.471   0.899   5.085  0.3496  0.1302 -0.8976
  103OSM   H16G10442   7.450   1.000   4.940 -0.2126 -0.0162  0.1024
  103OSM   C17F10443   7.485   0.790   4.890 -0.1774 -0.6105 -0.0021
  103OSM   H17F10444   7.445   0.696   4.935 -2.2622 -0.0030 -0.4491
  103OSM   H17G10445   7.595   0.786   4.898 -0.0796 -1.8732 -1.4136
  103OSM   C18F10446   7.448   0.807   4.743  0.0474  0.8748  0.1642
  103OSM   H18F10447   7.510   0.883   4.691  2.0395 -0.6727  0.1389
  103OSM   H18G10448   7.343   0.840   4.732 -0.3619  0.7276  2.8287
  103OSM   H18H10449   7.471   0.713   4.687 -1.5778  0.5568 -0.0060
  104OSM      N10450   1.302   0.707   6.710 -0.5889 -0.2063  0.1045
  104OSM    C1510451   1.415   0.726   6.810 -0.0846 -0.2496  0.3077
  104OSM   H15A10452   1.497   0.656   6.801  2.3023  2.4526 -0.5817
  104OSM   H15B10453   1.381   0.719   6.913 -2.7620 -1.5219 -0.5833
  104OSM   H15C10454   1.448   0.828   6.796 -2.9426  0.9131  1.3501
  104OSM    C1410455   1.214   0.595   6.744 -0.1943 -0.2055 -0.4268
  104OSM   H14A10456   1.154   0.548   6.668 -0.6327 -0.1053 -0.1435
  104OSM   H14B10457   1.139   0.621   6.818  1.0799 -3.2278  2.1733
  104OSM   H14C10458   1.267   0.510   6.786 -1.3132 -1.8784 -2.2466
  104OSM    C1310459   1.210   0.826   6.710 -0.4789 -0.1656 -0.5084
  104OSM   H13A10460   1.165   0.830   6.808 -0.7845 -3.0487 -0.4251
  104OSM   H13B10461   1.126   0.806   6.645  0.1464 -0.3007 -1.2871
  104OSM   H13C10462   1.257   0.918   6.679  1.2179 -1.0572 -0.6816
  104OSM    C1210463   1.367   0.692   6.574 -0.0177 -0.2517  0.2070
  104OSM   H12A10464   1.431   0.605   6.570  0.3832  0.0283  0.4193
  104OSM   H12B10465   1.446   0.766   6.576  0.8670 -1.1791  1.5067
  104OSM    C1110466   1.272   0.676   6.451  0.4931 -0.5029  0.4446
  104OSM   H11A10467   1.314   0.679   6.348 -0.9142  0.3257 -0.1185
  104OSM   H11B10468   1.207   0.765   6.447  0.9188 -0.2296 -1.9800
  104OSM      P10469   1.244   0.416   6.434  0.4272  0.6081  0.5036
  104OSM    O1310470   1.379   0.405   6.494 -0.3570  0.0131 -0.6071
  104OSM    O1410471   1.133   0.318   6.477 -0.4722 -0.3951 -0.2740
  104OSM    O1110472   1.258   0.416   6.274 -0.7169  0.1194  0.8628
  104OSM    O1210473   1.192   0.559   6.467 -0.2697 -0.3936 -0.4794
  104OSM    C1S10474   1.138   0.434   6.203  0.5514 -0.6497  0.5973
  104OSM    H1S10475   1.087   0.520   6.250  1.1580 -0.2388  0.5098
  104OSM    H1T10476   1.077   0.341   6.218  1.4847 -1.1167  1.6797
  104OSM     NF10477   1.037   0.471   5.986 -0.6678  0.0320  0.0039
  104OSM    HNF10478   1.015   0.419   5.904  2.3034  1.6019 -1.9917
  104OSM    C2S10479   1.168   0.467   6.051 -0.1508 -0.4453 -0.3069
  104OSM    H2S10480   1.211   0.569   6.051  1.4865 -0.9523  3.9989
  104OSM    C3S10481   1.272   0.367   5.985  0.2314 -0.4362  0.4251
  104OSM    H3S10482   1.221   0.269   5.974 -0.1852 -0.1257 -0.5696
  104OSM     O310483   1.389   0.348   6.056  0.2648 -0.1380  0.0382
  104OSM    HO310484   1.369   0.391   6.139 -1.7319 -0.7173 -0.1003
  104OSM    C4S10485   1.296   0.415   5.834  0.8505 -0.6485  0.2789
  104OSM    H4S10486   1.228   0.362   5.766  2.9851 -1.4696 -1.3388
  104OSM    C5S10487   1.397   0.492   5.792 -1.1661 -0.0244  0.0399
  104OSM    H5S10488   1.470   0.519   5.870 -0.4746 -0.6033 -0.3983
  104OSM    C6S10489   1.422   0.538   5.649 -0.5331 -0.7224  0.7228
  104OSM    H6S10490   1.522   0.509   5.609  0.2131  0.8629  1.3594
  104OSM    H6T10491   1.421   0.649   5.649 -1.6318 -0.7122  1.8971
  104OSM    C7S10492   1.315   0.493   5.540 -0.6674 -0.1405 -0.4735
  104OSM    H7S10493   1.209   0.510   5.570 -0.9639 -0.4368 -1.3105
  104OSM    H7T10494   1.318   0.384   5.518  0.9776 -0.2355  0.1067
  104OSM    C8S10495   1.338   0.551   5.399 -0.2987  0.0234 -0.3768
  104OSM    H8S10496   1.445   0.539   5.372  0.3275  0.2912  1.8467
  104OSM    H8T10497   1.328   0.661   5.415 -0.1269 -0.4978  5.0756
  104OSM    C9S10498   1.248   0.483   5.294  0.5970 -0.1040  0.6105
  104OSM    H9S10499   1.141   0.510   5.305  0.4583  0.9344 -2.3844
  104OSM    H9T10500   1.253   0.373   5.313  2.8607  0.0149  1.0124
  104OSM   C10S10501   1.283   0.515   5.149  0.0746 -0.0310  0.3064
  104OSM   H10S10502   1.388   0.486   5.126  1.7309  4.0655  1.8151
  104OSM   H10T10503   1.278   0.625   5.141  0.8100  0.0896  1.2787
  104OSM   C11S10504   1.176   0.461   5.057 -0.1752 -0.4497 -0.3922
  104OSM   H11S10505   1.077   0.507   5.080 -0.6085 -1.3974 -0.3001
  104OSM   H11T10506   1.168   0.351   5.070  2.9168 -0.7309 -0.1485
  104OSM   C12S10507   1.212   0.497   4.911  0.6271 -0.0000 -0.3508
  104OSM   H12S10508   1.288   0.436   4.858 -0.8756 -1.6183 -0.7341
  104OSM   H12T10509   1.242   0.603   4.920  1.9090 -0.4513  0.8928
  104OSM   C13S10510   1.078   0.499   4.820  0.5214  0.3817  0.1499
  104OSM   H13S10511   1.111   0.529   4.718 -0.2613  0.1026 -0.2000
  104OSM   H13T10512   1.006   0.576   4.855  1.4241  1.5046 -0.4111
  104OSM   C14S10513   1.009   0.357   4.812 -0.1840  0.3533 -0.2138
  104OSM   H14S10514   0.986   0.323   4.915 -0.1297  2.2374  0.4587
  104OSM   H14T10515   1.072   0.284   4.756  0.8045  0.0469  1.2378
  104OSM   C15S10516   0.874   0.369   4.731  0.1036 -0.0033 -0.3036
  104OSM   H15S10517   0.814   0.440   4.792 -0.8089 -0.3682 -0.7632
  104OSM   H15T10518   0.822   0.272   4.744  1.4676 -0.6475  0.5520
  104OSM   C16S10519   0.901   0.411   4.591 -0.5462  0.0738 -0.0693
  104OSM   H16S10520   0.965   0.341   4.534 -0.7605  0.0449 -0.2786
  104OSM   H16T10521   0.962   0.504   4.585  0.5877 -0.3758  2.9793
  104OSM   C17S10522   0.760   0.410   4.515 -0.0170 -0.2623  0.3323
  104OSM   H17S10523   0.698   0.483   4.571 -0.3009 -0.4147  0.2124
  104OSM   H17T10524   0.712   0.310   4.520  0.1221 -0.3034  0.9748
  104OSM   C18S10525   0.768   0.449   4.364  0.7494  0.6651  0.1671
  104OSM   H18S10526   0.853   0.399   4.314  1.3127  2.2065 -0.4957
  104OSM   H18T10527   0.788   0.559   4.363 -0.5001  0.9288  1.1447
  104OSM   H18U10528   0.672   0.418   4.319 -0.4172  0.2214  2.7509
  104OSM    C1F10529   0.947   0.560   6.005  0.0998  0.1177  0.2853
  104OSM     OF10530   0.978   0.663   6.058 -0.6479  0.1921 -0.4078
  104OSM    C2F10531   0.812   0.538   5.951  0.6663  0.4893 -0.1101
  104OSM    H2F10532   0.745   0.626   5.962 -0.8793 -0.7649  1.1648
  104OSM    H2G10533   0.761   0.447   5.990  0.6963 -0.0015 -1.1820
  104OSM    C3F10534   0.811   0.528   5.797  0.4793 -0.3297  0.5084
  104OSM    H3F10535   0.889   0.473   5.741 -0.1439  1.0143 -1.7989
  104OSM    H3G10536   0.826   0.631   5.758 -1.2408  0.2939  1.3973
  104OSM    C4F10537   0.664   0.494   5.749  0.1529 -0.2928  0.6211
  104OSM    H4F10538   0.650   0.513   5.641 -0.4589 -0.7450  0.6207
  104OSM    H4G10539   0.592   0.569   5.787 -2.3126 -1.0672 -2.1702
  104OSM    C5F10540   0.621   0.348   5.781  0.5280  0.1092  0.0910
  104OSM    H5F10541   0.613   0.327   5.890  0.8986 -0.2494  0.0562
  104OSM    H5G10542   0.688   0.277   5.727 -0.8407  0.3355 -2.0148
  104OSM    C6F10543   0.488   0.315   5.714 -0.0087  0.1212 -0.3034
  104OSM    H6F10544   0.403   0.380   5.746  0.0084 -0.6427  1.4392
  104OSM    H6G10545   0.462   0.218   5.762  1.0380  0.3071  0.6904
  104OSM    C7F10546   0.489   0.298   5.559 -0.1178  0.9283 -0.2901
  104OSM    H7F10547   0.573   0.231   5.532 -0.7904 -0.3136  0.6194
  104OSM    H7G10548   0.513   0.403   5.531 -0.6000  1.8729  2.5329
  104OSM    C8F10549   0.357   0.257   5.497  0.0689  0.3182 -0.6907
  104OSM    H8F10550   0.350   0.259   5.386 -0.2757 -0.5199 -0.6922
  104OSM    H8G10551   0.295   0.342   5.534 -1.2037 -0.2395 -1.4507
  104OSM    C9F10552   0.312   0.120   5.542 -0.2692  0.6594  0.4538
  104OSM    H9F10553   0.295   0.104   5.649  0.0157  1.5956  0.6455
  104OSM   C10F10554   0.283   0.013   5.463  0.9643  0.3230  0.2564
  104OSM   H10F10555   0.241  -0.074   5.515  1.5884 -0.8984 -1.2033
  104OSM   C11F10556   0.300  -0.001   5.310 -0.1204 -0.5389  0.3042
  104OSM   H11F10557   0.331  -0.104   5.281  1.2266 -0.2074  0.4930
  104OSM   H11G10558   0.386   0.058   5.272  1.0156 -1.5107  1.2598
  104OSM   C12F10559   0.173   0.033   5.226  0.1088  0.2337  0.5243
  104OSM   H12F10560   0.126   0.125   5.267  0.5938  1.1688 -0.9224
  104OSM   H12G10561   0.100  -0.050   5.235  0.3272 -0.2793 -1.7578
  104OSM   C13F10562   0.210   0.054   5.084  1.4605 -0.2257 -0.1902
  104OSM   H13F10563   0.271  -0.034   5.052  1.0438 -0.6387  0.1438
  104OSM   H13G10564   0.269   0.148   5.073 -0.2294  0.6851 -2.0720
  104OSM   C14F10565   0.087   0.064   4.995  0.0791 -0.2791  0.2336
  104OSM   H14F10566   0.027   0.153   5.025 -0.0316 -0.3568  0.2462
  104OSM   H14G10567   0.020  -0.023   5.014  0.4598 -0.2841  1.6551
  104OSM   C15F10568   0.128   0.064   4.842 -0.1268 -0.0440 -0.4738
  104OSM   H15F10569   0.210  -0.011   4.842 -0.2270 -0.1550 -0.5245
  104OSM   H15G10570   0.175   0.161   4.818 -1.1786  0.6077  0.0259
  104OSM   C16F10571   0.004   0.013   4.762  0.0019 -0.5019  0.1810
  104OSM   H16F10572  -0.076   0.088   4.775  0.6119 -0.0461  1.4667
  104OSM   H16G10573  -0.036  -0.082   4.802 -0.0462  0.3135  2.2130
  104OSM   C17F10574   0.038  -0.016   4.613 -0.0916 -0.3629 -0.1047
  104OSM   H17F10575   0.128  -0.080   4.601 -1.0121 -1.6662 -0.3020
  104OSM   H17G10576   0.058   0.082   4.566 -1.9365  0.6893  1.1674
  104OSM   C18F10577  -0.071  -0.077   4.520 -0.2380  0.5438 -0.1856
  104OSM   H18F10578  -0.101  -0.176   4.559 -1.2834  0.4460 -1.1797
  104OSM   H18G10579  -0.029  -0.080   4.417 -1.9548  2.1982 -1.0142
  104OSM   H18H10580  -0.165  -0.018   4.520 -0.9930 -0.6197  0.4564
  105OSM      N10581   0.481   0.136   6.417 -0.3809  0.1917 -0.5155
  105OSM    C1510582   0.588   0.152   6.517 -1.0773 -0.4771 -0.2233
  105OSM   H15A10583   0.569   0.094   6.606  0.2294 -0.9787 -0.2432
  105OSM   H15B10584   0.601   0.251   6.557  0.1233 -0.2682 -1.0821
  105OSM   H15C10585   0.690   0.133   6.488 -0.7947  0.6773 -0.0243
  105OSM    C1410586   0.355   0.186   6.475 -0.2062 -0.4927  0.0504
  105OSM   H14A10587   0.366   0.292   6.488 -0.8400 -0.2881 -0.9417
  105OSM   H14B10588   0.333   0.146   6.573 -1.7515  0.4058  0.1047
  105OSM   H14C10589   0.268   0.166   6.414 -1.9841 -0.3454  2.3998
  105OSM    C1310590   0.509   0.211   6.293 -0.0471 -0.7723  0.4376
  105OSM   H13A10591   0.521   0.310   6.334 -2.1654 -0.3655  0.1802
  105OSM   H13B10592   0.428   0.226   6.222  1.9827 -0.5085 -1.9822
  105OSM   H13C10593   0.604   0.191   6.245  0.8910  3.0868  0.3581
  105OSM    C1210594   0.471  -0.011   6.389 -0.3884  0.2569  0.6741
  105OSM   H12A10595   0.456  -0.070   6.477  0.6904 -0.9471  0.0822
  105OSM   H12B10596   0.569  -0.049   6.366 -0.5080 -0.4885  1.3679
  105OSM    C1110597   0.358  -0.051   6.285  0.0831 -0.1777 -0.2486
  105OSM   H11A10598   0.365  -0.161   6.278  1.2519 -0.0968 -0.7026
  105OSM   H11B10599   0.385   0.003   6.191  0.1019  2.5533  1.2076
  105OSM      P10600   0.114   0.045   6.235 -0.0154 -0.1219 -0.4534
  105OSM    O1310601  -0.022   0.028   6.295 -0.0886  0.2982  0.7048
  105OSM    O1410602   0.155   0.182   6.189 -0.0505  0.6936  0.3127
  105OSM    O1110603   0.121  -0.049   6.109  0.1504  0.0621  0.0270
  105OSM    O1210604   0.223  -0.020   6.339 -0.0777 -0.3527 -0.5158
  105OSM    C1S10605   0.121  -0.189   6.123  0.8198  0.8391  0.7430
  105OSM    H1S10606   0.044  -0.211   6.200  1.0686  0.5183  0.8963
  105OSM    H1T10607   0.220  -0.231   6.148  0.8774 -0.1768 -1.0140
  105OSM     NF10608   0.073  -0.402   5.999  0.1234  0.6364  0.0407
  105OSM    HNF10609   0.149  -0.454   5.961  0.1448  0.8750 -0.2489
  105OSM    C2S10610   0.083  -0.259   5.988 -0.3084 -0.4925 -0.3170
  105OSM    H2S10611  -0.016  -0.219   5.956 -1.3215 -3.1826 -0.8083
  105OSM    C3S10612   0.191  -0.220   5.882 -0.2447 -0.2252 -0.0472
  105OSM    H3S10613   0.289  -0.251   5.923 -0.5129  0.4175  1.1044
  105OSM     O310614   0.200  -0.078   5.871 -0.0308 -0.6093 -0.0180
  105OSM    HO310615   0.135  -0.058   5.939  0.1527 -0.7685  0.2029
  105OSM    C4S10616   0.163  -0.286   5.744 -0.3887  0.4478  0.4431
  105OSM    H4S10617   0.197  -0.390   5.736 -3.1158 -0.5999  1.1710
  105OSM    C5S10618   0.089  -0.248   5.643 -0.5238 -0.5491  0.8095
  105OSM    H5S10619   0.030  -0.155   5.650  0.6588  0.6659 -2.7544
  105OSM    C6S10620   0.057  -0.343   5.532 -0.3436 -0.5260 -0.2620
  105OSM    H6S10621  -0.051  -0.370   5.532 -0.8194  1.2309 -0.7644
  105OSM    H6T10622   0.101  -0.443   5.551  1.0258 -0.2947 -1.9593
  105OSM    C7S10623   0.096  -0.287   5.399  0.3710 -0.2681  0.1298
  105OSM    H7S10624   0.198  -0.243   5.397 -1.4906  4.5711 -0.9732
  105OSM    H7T10625   0.027  -0.209   5.359 -0.1643 -1.1582 -0.7356
  105OSM    C8S10626   0.098  -0.399   5.300 -0.7822 -0.1244 -0.2924
  105OSM    H8S10627   0.004  -0.459   5.291 -0.9097 -0.2544  1.5622
  105OSM    H8T10628   0.176  -0.476   5.321 -0.3505  0.3361 -0.2009
  105OSM    C9S10629   0.130  -0.336   5.165 -0.2593 -0.4220  0.1056
  105OSM    H9S10630   0.233  -0.296   5.167  1.1192 -3.6197  2.3001
  105OSM    H9T10631   0.064  -0.251   5.139 -2.3700 -1.5824  1.3765
  105OSM   C10S10632   0.093  -0.434   5.050  0.0512  0.4418 -0.2857
  105OSM   H10S10633   0.123  -0.398   4.950 -1.0788  0.7687 -0.5097
  105OSM   H10T10634  -0.015  -0.459   5.050 -0.1768  1.3069  0.9771
  105OSM   C11S10635   0.166  -0.566   5.069 -0.1219  0.7171 -0.4010
  105OSM   H11S10636   0.120  -0.630   5.148 -0.6253  0.1924 -1.0982
  105OSM   H11T10637   0.268  -0.536   5.101  0.1146  0.3335 -0.7752
  105OSM   C12S10638   0.166  -0.653   4.943 -0.7602 -0.1051  0.5382
  105OSM   H12S10639   0.226  -0.595   4.869 -0.6507 -0.5197  0.2988
  105OSM   H12T10640   0.064  -0.646   4.899 -0.8619  1.1125  0.9478
  105OSM   C13S10641   0.206  -0.801   4.961 -0.0098  0.3736  0.8125
  105OSM   H13S10642   0.133  -0.848   5.031 -0.3830 -0.6953 -0.2587
  105OSM   H13T10643   0.303  -0.812   5.014 -0.8298 -0.5922  2.1960
  105OSM   C14S10644   0.217  -0.891   4.838 -0.8182  0.3464 -0.0998
  105OSM   H14S10645   0.130  -0.888   4.769 -1.1054  1.6682  0.3095
  105OSM   H14T10646   0.224  -0.998   4.866 -0.3471  0.7537  1.4090
  105OSM   C15S10647   0.335  -0.837   4.751 -1.2365  0.0795 -0.2352
  105OSM   H15S10648   0.436  -0.840   4.796 -1.0667  1.8492 -0.4292
  105OSM   H15T10649   0.324  -0.727   4.737 -0.6828  0.3786  1.4231
  105OSM   C16S10650   0.342  -0.902   4.612  0.7022 -0.2594  0.1690
  105OSM   H16S10651   0.415  -0.832   4.565 -1.1817  0.0960 -2.4270
  105OSM   H16T10652   0.249  -0.879   4.556  1.0071 -0.6138 -0.4968
  105OSM   C17S10653   0.411  -1.039   4.605  0.5779 -0.2448  0.1667
  105OSM   H17S10654   0.369  -1.110   4.679 -1.1031  1.3385  0.8080
  105OSM   H17T10655   0.518  -1.025   4.631  0.3366  1.2283  0.4987
  105OSM   C18S10656   0.410  -1.091   4.457 -0.1941  0.2476 -0.1044
  105OSM   H18S10657   0.488  -1.169   4.443 -0.6882  0.1156 -2.4116
  105OSM   H18T10658   0.450  -1.007   4.397  0.7039 -1.0130 -1.3504
  105OSM   H18U10659   0.315  -1.124   4.410 -1.4934  1.2872  1.6805
  105OSM    C1F10660  -0.013  -0.469   6.075  0.5525  0.5064  0.7987
  105OSM     OF10661  -0.088  -0.410   6.150  0.4054 -0.0426 -0.1383
  105OSM    C2F10662  -0.014  -0.621   6.057 -0.9783  0.1354 -0.3853
  105OSM    H2F10663   0.004  -0.648   5.951  2.9756 -1.8538  0.5935
  105OSM    H2G10664  -0.114  -0.665   6.076  0.4307 -3.0075  0.5610
  105OSM    C3F10665   0.084  -0.693   6.161  0.1887  0.7042 -0.2880
  105OSM    H3F10666   0.025  -0.681   6.254 -0.9386  2.1615 -1.1468
  105OSM    H3G10667   0.188  -0.654   6.172 -0.0270  0.9780  0.8989
  105OSM    C4F10668   0.084  -0.846   6.125  0.0217  0.0521  0.8713
  105OSM    H4F10669  -0.024  -0.866   6.109  0.3411 -0.1094 -1.3644
  105OSM    H4G10670   0.129  -0.902   6.209 -1.3703 -1.5539  0.5823
  105OSM    C5F10671   0.178  -0.875   6.004  0.6531 -0.6543  0.2326
  105OSM    H5F10672   0.273  -0.836   6.046  2.3932 -4.2607  0.0160
  105OSM    H5G10673   0.154  -0.813   5.915  1.7618 -0.1851  0.2401
  105OSM    C6F10674   0.191  -1.020   5.963  0.2087 -0.4825  0.0992
  105OSM    H6F10675   0.092  -1.070   5.972  1.1908 -2.6824 -0.5158
  105OSM    H6G10676   0.264  -1.062   6.036 -0.6972 -0.3399  1.1063
  105OSM    C7F10677   0.237  -1.034   5.819 -0.3355 -0.5275 -0.1608
  105OSM    H7F10678   0.327  -0.969   5.810  0.0325 -1.0576 -0.3349
  105OSM    H7G10679   0.155  -0.990   5.758 -2.1325 -2.5633  0.6787
  105OSM    C8F10680   0.273  -1.175   5.790  0.2292 -0.6781 -0.6597
  105OSM    H8F10681   0.178  -1.230   5.774 -1.3756  1.9476 -0.6666
  105OSM    H8G10682   0.332  -1.220   5.873  1.1193  1.1996 -0.2122
  105OSM    C9F10683   0.352  -1.193   5.662  0.1815  0.0094 -0.8344
  105OSM    H9F10684   0.458  -1.166   5.673 -0.6052  3.2440  0.0834
  105OSM   C10F10685   0.307  -1.221   5.537 -1.0359  0.0323 -0.1872
  105OSM   H10F10686   0.385  -1.241   5.462 -1.8196 -1.2243 -0.6954
  105OSM   C11F10687   0.168  -1.253   5.492  0.5136  1.0905 -0.3525
  105OSM   H11F10688   0.085  -1.224   5.560 -0.6810 -0.4183 -1.1121
  105OSM   H11G10689   0.168  -1.362   5.470  4.7707  0.4616  1.8605
  105OSM   C12F10690   0.136  -1.172   5.368  0.3936 -0.0381  0.4747
  105OSM   H12F10691   0.039  -1.213   5.334 -1.3494  3.1966  1.1361
  105OSM   H12G10692   0.220  -1.178   5.294  1.7514  0.5862  1.9038
  105OSM   C13F10693   0.114  -1.025   5.395 -0.0291  0.3851  0.2864
  105OSM   H13F10694   0.092  -0.975   5.298 -2.3071  3.1271  2.0283
  105OSM   H13G10695   0.205  -0.972   5.428  1.3716 -0.7496 -1.5472
  105OSM   C14F10696   0.017  -0.984   5.505  0.5031 -0.1219 -0.0967
  105OSM   H14F10697   0.027  -1.033   5.604 -0.7097 -0.0578  0.0715
  105OSM   H14G10698  -0.086  -1.021   5.486  0.7191 -2.6908  2.8875
  105OSM   C15F10699   0.011  -0.830   5.529 -0.4786 -0.3641  0.9068
  105OSM   H15F10700   0.006  -0.770   5.436  1.8320 -3.3740 -1.3918
  105OSM   H15G10701   0.112  -0.807   5.569 -0.7497 -0.7190  1.8139
  105OSM   C16F10702  -0.099  -0.783   5.631  0.0161 -0.1774  0.1063
  105OSM   H16F10703  -0.099  -0.677   5.600 -1.4385 -0.3745 -0.6393
  105OSM   H16G10704  -0.055  -0.798   5.733 -3.2451 -0.0307  1.6407
  105OSM   C17F10705  -0.239  -0.842   5.627  0.7498 -0.7233  0.0002
  105OSM   H17F10706  -0.220  -0.950   5.642 -5.0662 -1.9168  0.9932
  105OSM   H17G10707  -0.293  -0.834   5.530  1.6623 -2.2651 -0.6815
  105OSM   C18F10708  -0.319  -0.811   5.749  0.6202 -0.0183 -0.1768
  105OSM   H18F10709  -0.356  -0.707   5.745  1.8563  0.5015  1.0020
  105OSM   H18G10710  -0.264  -0.831   5.844 -2.2264  1.5685  1.9692
  105OSM   H18H10711  -0.406  -0.880   5.747  0.4993  0.0451  1.3149
  106OSM      N10712   4.555   5.168   6.713 -0.1306  0.2066 -0.5784
  106OSM    C1510713   4.457   5.057   6.702  0.4285 -0.4008 -0.3558
  106OSM   H15A10714   4.394   5.059   6.615  1.2030 -1.4227 -0.9648
  106OSM   H15B10715   4.402   5.054   6.795  1.1020  3.3936  0.3357
  106OSM   H15C10716   4.509   4.962   6.700 -0.2940 -0.9619  2.4908
  106OSM    C1410717   4.472   5.287   6.707 -0.0832 -0.0514 -0.0847
  106OSM   H14A10718   4.423   5.297   6.803  1.2423  1.6845  0.4791
  106OSM   H14B10719   4.390   5.272   6.639 -0.1663 -1.5864  0.3350
  106OSM   H14C10720   4.524   5.381   6.692 -1.1622  0.2971 -1.9807
  106OSM    C1310721   4.624   5.157   6.841  0.7575  0.0044 -0.5617
  106OSM   H13A10722   4.692   5.239   6.855 -0.0148  0.2845  1.9067
  106OSM   H13B10723   4.680   5.066   6.856 -2.2931 -1.9287 -0.0496
  106OSM   H13C10724   4.546   5.166   6.915 -0.9074 -0.4075 -2.1903
  106OSM    C1210725   4.650   5.156   6.602 -0.2100 -0.0156  0.1234
  106OSM   H12A10726   4.593   5.142   6.512  0.2441 -2.1054  0.1207
  106OSM   H12B10727   4.699   5.060   6.597 -1.6909 -0.9318  1.9300
  106OSM    C1110728   4.760   5.271   6.596 -0.0010 -0.1300  0.1052
  106OSM   H11A10729   4.825   5.242   6.510 -1.3125  1.7005 -1.5918
  106OSM   H11B10730   4.808   5.270   6.696 -0.9658 -1.4732  0.5994
  106OSM      P10731   4.779   5.527   6.596  0.1509  0.0928 -0.3244
  106OSM    O1310732   4.691   5.634   6.554  0.6395 -0.4849 -0.3209
  106OSM    O1410733   4.820   5.525   6.733  0.0006 -0.4247 -0.4874
  106OSM    O1110734   4.908   5.516   6.504  0.1083 -0.2204 -0.0238
  106OSM    O1210735   4.699   5.393   6.567 -0.0589 -0.6450 -0.3042
  106OSM    C1S10736   4.890   5.507   6.359 -0.4315 -0.8506 -1.2724
  106OSM    H1S10737   4.864   5.609   6.326  0.0771  0.2249  1.3588
  106OSM    H1T10738   4.813   5.431   6.335 -1.0236 -0.7707  0.2741
  106OSM     NF10739   4.989   5.470   6.143  0.0209  0.5062 -0.5649
  106OSM    HNF10740   4.969   5.379   6.107  0.1115  0.2997 -0.0891
  106OSM    C2S10741   5.014   5.465   6.285 -0.3194  0.5490  0.7668
  106OSM    H2S10742   5.095   5.539   6.303 -1.5325  2.2552 -0.4512
  106OSM    C3S10743   5.059   5.324   6.335 -0.5198  0.4295 -0.0937
  106OSM    H3S10744   4.977   5.250   6.325 -0.9472  0.8461  0.2882
  106OSM     O310745   5.083   5.320   6.475 -0.5359 -0.0914 -0.3306
  106OSM    HO310746   5.037   5.400   6.501 -0.2522  0.7734 -2.3503
  106OSM    C4S10747   5.186   5.279   6.264 -0.0227  0.0623 -0.2667
  106OSM    H4S10748   5.156   5.222   6.175  1.4268  0.0929 -0.8014
  106OSM    C5S10749   5.317   5.298   6.293 -0.6650 -0.7165 -0.6183
  106OSM    H5S10750   5.346   5.336   6.392 -1.1552  0.9243 -1.0681
  106OSM    C6S10751   5.424   5.252   6.206 -0.2456  0.1241  0.0841
  106OSM    H6S10752   5.385   5.202   6.115  0.4516 -0.2235 -0.0298
  106OSM    H6T10753   5.494   5.183   6.257 -0.0162 -1.6179 -2.4073
  106OSM    C7S10754   5.503   5.373   6.159  0.0499 -0.1763  0.2971
  106OSM    H7S10755   5.599   5.336   6.115 -0.1794  0.1299 -0.4873
  106OSM    H7T10756   5.526   5.445   6.240 -0.8049  3.1269 -2.1912
  106OSM    C8S10757   5.441   5.459   6.043 -0.6582  0.6492  0.0046
  106OSM    H8S10758   5.506   5.549   6.030  0.3585 -0.3482 -2.5844
  106OSM    H8T10759   5.340   5.489   6.076 -0.3800 -0.1772  1.7022
  106OSM    C9S10760   5.428   5.389   5.900  0.0259  0.9384 -0.5604
  106OSM    H9S10761   5.336   5.328   5.904  0.9792 -0.5504  2.5333
  106OSM    H9T10762   5.512   5.316   5.892 -0.9135 -0.9384  3.6045
  106OSM   C10S10763   5.413   5.493   5.786 -0.7499  0.1443 -0.4221
  106OSM   H10S10764   5.511   5.545   5.773 -1.1980  1.3363  0.7211
  106OSM   H10T10765   5.338   5.569   5.817 -1.9685 -0.2663 -2.1930
  106OSM   C11S10766   5.363   5.418   5.661  0.6699  0.1247  0.6742
  106OSM   H11S10767   5.258   5.382   5.660  0.2063  1.4163 -0.4015
  106OSM   H11T10768   5.429   5.330   5.650  0.7090  0.4001 -1.9297
  106OSM   C12S10769   5.369   5.510   5.536  0.1743 -0.2467  0.9287
  106OSM   H12S10770   5.472   5.551   5.540  0.4987 -0.9181 -0.0036
  106OSM   H12T10771   5.298   5.594   5.546 -1.7148 -1.5621 -0.6254
  106OSM   C13S10772   5.352   5.439   5.402  0.4462  0.0697  1.1771
  106OSM   H13S10773   5.252   5.393   5.391  0.0137  1.0833  0.7500
  106OSM   H13T10774   5.427   5.358   5.390  0.2042  0.0891 -0.7579
  106OSM   C14S10775   5.369   5.545   5.290 -0.3774 -0.8409  0.0034
  106OSM   H14S10776   5.478   5.569   5.293 -0.5130 -0.2769  0.5626
  106OSM   H14T10777   5.317   5.640   5.313 -1.0027 -0.8847 -1.1470
  106OSM   C15S10778   5.328   5.488   5.149  0.0904 -0.1768  0.0145
  106OSM   H15S10779   5.224   5.449   5.149 -0.2167  0.3695 -3.2566
  106OSM   H15T10780   5.396   5.404   5.124 -0.9124 -0.9801 -0.1068
  106OSM   C16S10781   5.325   5.591   5.047  0.4260 -0.1887  0.5947
  106OSM   H16S10782   5.430   5.626   5.039  0.8260 -1.6078 -0.9814
  106OSM   H16T10783   5.251   5.672   5.069  0.3143  0.7340 -2.6362
  106OSM   C17S10784   5.275   5.546   4.913 -0.1195 -0.3064  0.8689
  106OSM   H17S10785   5.327   5.451   4.889  0.7064  0.9443 -3.1105
  106OSM   H17T10786   5.302   5.612   4.827 -1.6609  0.7852  1.1897
  106OSM   C18S10787   5.128   5.521   4.906 -0.6281 -0.2335  0.3934
  106OSM   H18S10788   5.080   5.494   4.810 -1.5055 -1.1090  1.0657
  106OSM   H18T10789   5.072   5.612   4.936 -2.3898 -0.7846 -1.0606
  106OSM   H18U10790   5.093   5.446   4.980 -2.1630 -0.1143 -0.1951
  106OSM    C1F10791   4.980   5.584   6.071  0.1868  0.4838  0.2671
  106OSM     OF10792   4.999   5.694   6.122  0.4081 -0.2738 -0.5081
  106OSM    C2F10793   4.951   5.562   5.930  0.1151  0.0521 -0.5853
  106OSM    H2F10794   4.842   5.583   5.924 -0.4735 -1.2965  2.9912
  106OSM    H2G10795   4.965   5.455   5.905  0.9666  0.3451 -1.4160
  106OSM    C3F10796   5.034   5.644   5.837 -0.0241  0.5714  0.0827
  106OSM    H3F10797   5.143   5.660   5.852 -0.2814  3.1806 -0.3335
  106OSM    H3G10798   4.994   5.747   5.838 -0.6426  0.3349 -0.0589
  106OSM    C4F10799   5.015   5.587   5.691  0.5705 -0.7743  0.4467
  106OSM    H4F10800   5.073   5.492   5.690  0.2882 -0.9530  0.7347
  106OSM    H4G10801   5.057   5.665   5.625 -0.3262  0.0759  0.8585
  106OSM    C5F10802   4.870   5.560   5.640 -0.2668 -0.1844  0.2576
  106OSM    H5F10803   4.806   5.641   5.682  0.2680  0.5469 -0.3161
  106OSM    H5G10804   4.832   5.458   5.661 -1.2106 -0.1190 -0.9635
  106OSM    C6F10805   4.840   5.581   5.489 -0.3616 -0.1349  0.1500
  106OSM    H6F10806   4.835   5.689   5.464  2.6423  0.0059 -0.2192
  106OSM    H6G10807   4.741   5.535   5.469 -0.4266  0.1085 -0.0815
  106OSM    C7F10808   4.940   5.516   5.403 -0.2659  0.1645  0.9656
  106OSM    H7F10809   4.960   5.410   5.428 -0.3472 -0.1802 -0.3636
  106OSM    H7G10810   5.034   5.574   5.417 -0.5614  0.8710  0.1285
  106OSM    C8F10811   4.905   5.525   5.252  1.0708 -0.1811 -1.0843
  106OSM    H8F10812   4.995   5.546   5.192  1.0072  0.8653 -0.8397
  106OSM    H8G10813   4.853   5.624   5.245 -1.1166 -1.2819 -1.4904
  106OSM    C9F10814   4.811   5.415   5.198  0.1332 -0.3531 -0.1644
  106OSM    H9F10815   4.810   5.325   5.260  0.1333 -1.2819 -1.4690
  106OSM   C10F10816   4.732   5.429   5.091  0.4757 -0.1362 -0.3939
  106OSM   H10F10817   4.669   5.342   5.067 -2.5356  1.9746 -0.7993
  106OSM   C11F10818   4.714   5.546   4.997  0.4180 -0.7261  0.1607
  106OSM   H11F10819   4.791   5.621   5.025 -1.0143  0.8051  0.1547
  106OSM   H11G10820   4.613   5.590   5.015  1.2980  2.0753 -1.0423
  106OSM   C12F10821   4.724   5.499   4.855 -0.1962  0.3473  0.3826
  106OSM   H12F10822   4.648   5.420   4.833  2.5661 -2.3906 -0.0180
  106OSM   H12G10823   4.823   5.462   4.820 -0.2778  0.1208  0.3920
  106OSM   C13F10824   4.683   5.624   4.767 -0.3504 -0.1425 -0.2583
  106OSM   H13F10825   4.749   5.711   4.788 -0.5317  0.1563 -0.9034
  106OSM   H13G10826   4.581   5.662   4.791 -2.3312 -2.3369 -4.2729
  106OSM   C14F10827   4.693   5.591   4.617 -0.3677 -0.0647 -0.0700
  106OSM   H14F10828   4.641   5.494   4.600  2.6647 -1.6105 -1.3794
  106OSM   H14G10829   4.796   5.557   4.593 -0.6817 -0.5895 -0.7238
  106OSM   C15F10830   4.656   5.695   4.509  0.0075 -0.2048 -0.3047
  106OSM   H15F10831   4.545   5.703   4.506  0.1239  1.5320 -2.1114
  106OSM   H15G10832   4.681   5.660   4.406 -0.6843 -0.3896 -0.4124
  106OSM   C16F10833   4.703   5.839   4.529 -0.3654 -0.3781 -0.4768
  106OSM   H16F10834   4.670   5.870   4.630  1.9281 -2.1126  0.9155
  106OSM   H16G10835   4.657   5.904   4.452 -1.2283  0.2178  0.5122
  106OSM   C17F10836   4.859   5.866   4.523  0.0118 -0.0451 -0.2416
  106OSM   H17F10837   4.909   5.775   4.563 -0.7290 -0.9611 -1.3276
  106OSM   H17G10838   4.882   5.947   4.596 -1.6484  0.5114 -0.2821
  106OSM   C18F10839   4.900   5.907   4.380 -0.6691 -0.0589 -0.8144
  106OSM   H18F10840   4.851   5.841   4.305 -1.1949  1.0456 -1.4667
  106OSM   H18G10841   5.011   5.914   4.369 -0.6601 -0.2100 -0.8211
  106OSM   H18H10842   4.867   6.011   4.363  2.5421  0.8002 -2.6943
  107OSM      N10843   0.952   4.358   6.568 -0.3034  1.0735  0.2188
  107OSM    C1510844   1.038   4.480   6.562 -0.1417 -0.1440 -0.1309
  107OSM   H15A10845   1.138   4.440   6.547 -0.3570 -0.1848 -1.5258
  107OSM   H15B10846   1.047   4.533   6.656 -1.0377  0.7632 -0.5439
  107OSM   H15C10847   1.014   4.544   6.479 -0.7830  3.3334  2.4980
  107OSM    C1410848   0.951   4.284   6.434  0.4387 -0.0299 -0.6899
  107OSM   H14A10849   0.882   4.201   6.440 -1.1118  1.2427 -0.1941
  107OSM   H14B10850   1.053   4.256   6.417 -0.1100 -3.6588  1.0308
  107OSM   H14C10851   0.915   4.339   6.348  1.0321 -2.0621 -2.3293
  107OSM    C1310852   1.011   4.266   6.673  0.6153 -0.3062  0.5466
  107OSM   H13A10853   0.989   4.286   6.777 -1.0379  0.6251  0.0635
  107OSM   H13B10854   1.118   4.281   6.667  0.5205  0.4000  0.5817
  107OSM   H13C10855   0.990   4.161   6.656  0.2563 -0.0663 -0.5578
  107OSM    C1210856   0.815   4.399   6.615  0.8878  0.7634  0.2831
  107OSM   H12A10857   0.778   4.477   6.551  0.7381  0.3724 -0.1091
  107OSM   H12B10858   0.823   4.446   6.712  0.9292 -0.1761  0.7408
  107OSM    C1110859   0.706   4.290   6.628  0.1933  0.8827 -0.0886
  107OSM   H11A10860   0.650   4.310   6.721  0.5303  0.8340  0.1276
  107OSM   H11B10861   0.756   4.194   6.650 -1.9603 -0.8320 -2.1885
  107OSM      P10862   0.548   4.380   6.435 -0.4405  0.2084 -0.3202
  107OSM    O1310863   0.406   4.353   6.451  0.1168  0.0309  0.2531
  107OSM    O1410864   0.599   4.512   6.471  0.5481 -0.2001  0.3693
  107OSM    O1110865   0.586   4.354   6.287 -0.6019  0.1331 -0.0002
  107OSM    O1210866   0.632   4.267   6.506  0.0494  0.7307  0.2081
  107OSM    C1S10867   0.651   4.238   6.240  0.4137  0.0682  0.7237
  107OSM    H1S10868   0.582   4.150   6.247 -1.2268  1.3533  1.4645
  107OSM    H1T10869   0.741   4.210   6.298  2.1916  1.7284 -1.0744
  107OSM     NF10870   0.710   4.123   6.036  0.4066  0.4688  0.7060
  107OSM    HNF10871   0.783   4.068   6.075  1.0292  0.5037 -0.3460
  107OSM    C2S10872   0.703   4.252   6.090  0.2406 -0.1006  0.0463
  107OSM    H2S10873   0.633   4.322   6.038  1.1738  1.1996  0.4789
  107OSM    C3S10874   0.841   4.330   6.102 -0.1799 -0.0180  0.2054
  107OSM    H3S10875   0.917   4.269   6.156 -0.0921 -0.8722 -0.8619
  107OSM     O310876   0.832   4.456   6.172 -0.6907 -0.7484  0.2888
  107OSM    HO310877   0.740   4.462   6.200 -1.4695  1.3006 -2.2978
  107OSM    C4S10878   0.894   4.344   5.963 -0.0295  0.2791 -0.0503
  107OSM    H4S10879   0.943   4.251   5.931 -2.0322 -1.1051  0.7054
  107OSM    C5S10880   0.871   4.448   5.880 -0.1502  0.2109  0.4811
  107OSM    H5S10881   0.825   4.540   5.918 -0.8986  0.3832 -0.7864
  107OSM    C6S10882   0.914   4.464   5.733  0.2030 -0.9109 -0.2409
  107OSM    H6S10883   0.989   4.544   5.716 -2.8229  1.8305 -2.0175
  107OSM    H6T10884   0.821   4.493   5.679  0.3860 -0.3592 -0.2665
  107OSM    C7S10885   0.961   4.351   5.645 -0.0978 -0.0111  0.7514
  107OSM    H7S10886   0.878   4.278   5.639  0.2828 -1.2208  5.6438
  107OSM    H7T10887   1.027   4.278   5.696 -1.9904 -2.9368 -0.7700
  107OSM    C8S10888   1.024   4.406   5.514  0.5019 -0.0627  0.1730
  107OSM    H8S10889   1.126   4.448   5.530  0.7813 -0.8002  0.3529
  107OSM    H8T10890   0.953   4.480   5.471 -1.0130 -1.0878  0.8218
  107OSM    C9S10891   1.017   4.298   5.408  0.3162 -0.9219  0.3226
  107OSM    H9S10892   0.914   4.255   5.411  0.4806 -1.5377 -1.5097
  107OSM    H9T10893   1.088   4.220   5.442  0.5213 -0.5103  0.8474
  107OSM   C10S10894   1.034   4.346   5.260 -0.4574  0.0927  0.3863
  107OSM   H10S10895   1.081   4.446   5.258  2.4720 -1.1780  1.3573
  107OSM   H10T10896   0.932   4.363   5.217 -0.0315  0.3457 -0.5595
  107OSM   C11S10897   1.112   4.251   5.163  0.6826 -0.0268 -0.3080
  107OSM   H11S10898   1.053   4.158   5.175 -1.7516  1.6455  1.7919
  107OSM   H11T10899   1.216   4.233   5.198  0.3449 -0.4890  0.4780
  107OSM   C12S10900   1.127   4.324   5.025 -0.2987  0.3222  0.2219
  107OSM   H12S10901   1.203   4.404   5.028 -1.0477  1.1936 -1.7697
  107OSM   H12T10902   1.038   4.379   4.987 -0.7672 -1.2038 -1.0154
  107OSM   C13S10903   1.167   4.224   4.914 -0.7477  0.2309  0.0608
  107OSM   H13S10904   1.087   4.147   4.911 -0.5480  0.0318 -2.1595
  107OSM   H13T10905   1.259   4.171   4.947 -0.8734 -1.3877 -1.9704
  107OSM   C14S10906   1.165   4.287   4.767 -0.0781 -0.8491  0.3039
  107OSM   H14S10907   1.240   4.368   4.761 -1.3870  0.3156 -2.7429
  107OSM   H14T10908   1.067   4.335   4.742  0.7405 -0.2516 -2.0654
  107OSM   C15S10909   1.203   4.195   4.649 -0.0056 -0.4115 -0.2676
  107OSM   H15S10910   1.125   4.117   4.643 -2.4808  1.4884  3.1769
  107OSM   H15T10911   1.298   4.149   4.683  0.1637  0.7322  0.8996
  107OSM   C16S10912   1.240   4.280   4.530  0.4356  0.3754  0.3729
  107OSM   H16S10913   1.319   4.352   4.559  0.2704  0.9611 -0.6118
  107OSM   H16T10914   1.151   4.335   4.493  2.7308  3.1674 -1.4342
  107OSM   C17S10915   1.297   4.199   4.419 -0.3156  0.0658 -0.4631
  107OSM   H17S10916   1.394   4.159   4.455 -0.3989  0.3568  0.0984
  107OSM   H17T10917   1.319   4.263   4.331 -0.4551  1.2940  0.3620
  107OSM   C18S10918   1.217   4.079   4.362  0.3875 -0.0387 -0.5380
  107OSM   H18S10919   1.250   4.066   4.257  0.2567  1.6905 -0.8217
  107OSM   H18T10920   1.111   4.110   4.355  0.5976  0.6423 -0.7652
  107OSM   H18U10921   1.217   3.988   4.426 -0.0086  2.6826  3.7094
  107OSM    C1F10922   0.602   4.062   5.983  0.0934  0.0901  0.2373
  107OSM     OF10923   0.491   4.112   5.977 -0.1641  0.2402  0.3462
  107OSM    C2F10924   0.624   3.921   5.938  0.0465 -0.0594  0.4199
  107OSM    H2F10925   0.575   3.852   6.010 -0.3176 -1.4883 -1.1467
  107OSM    H2G10926   0.733   3.899   5.940 -0.3438 -2.1913  1.0581
  107OSM    C3F10927   0.563   3.903   5.793  0.3216  0.1255 -0.1277
  107OSM    H3F10928   0.458   3.940   5.796  0.8105  1.6230 -0.6973
  107OSM    H3G10929   0.564   3.794   5.767  1.6387  0.2599 -0.6876
  107OSM    C4F10930   0.637   3.973   5.682  0.2957 -0.6021  0.1672
  107OSM    H4F10931   0.738   3.929   5.667 -0.0626 -1.5648  0.5186
  107OSM    H4G10932   0.661   4.077   5.712  1.4912  0.1370 -2.9673
  107OSM    C5F10933   0.567   3.980   5.547  0.7985  0.4023  0.2721
  107OSM    H5F10934   0.456   3.984   5.546  0.8005  0.6570  0.7651
  107OSM    H5G10935   0.595   3.881   5.505  0.2443 -0.8760  2.7018
  107OSM    C6F10936   0.620   4.089   5.453  0.4347  0.2682 -0.1007
  107OSM    H6F10937   0.729   4.065   5.446  0.8175  1.2213  1.8895
  107OSM    H6G10938   0.609   4.190   5.499  0.0091 -0.0914  0.5985
  107OSM    C7F10939   0.545   4.088   5.320  0.4799 -0.2862  0.0933
  107OSM    H7F10940   0.453   4.146   5.343  2.3052  2.7687  0.2567
  107OSM    H7G10941   0.513   3.985   5.294 -1.3645 -0.2228  1.8657
  107OSM    C8F10942   0.608   4.165   5.205 -0.4580  0.5225 -0.3872
  107OSM    H8F10943   0.709   4.124   5.186 -0.4740 -0.2756  1.1232
  107OSM    H8G10944   0.612   4.271   5.239 -1.4299  0.2787  0.5237
  107OSM    C9F10945   0.514   4.153   5.085 -1.0009 -0.9297  0.5331
  107OSM    H9F10946   0.410   4.189   5.094 -0.2827  1.7435 -0.7975
  107OSM   C10F10947   0.558   4.095   4.969  0.3344 -0.2571 -0.2806
  107OSM   H10F10948   0.486   4.093   4.886  0.3469  1.6547 -0.3734
  107OSM   C11F10949   0.694   4.040   4.932 -0.3099 -0.1912 -0.7205
  107OSM   H11F10950   0.726   3.962   5.004 -3.9362 -2.3341 -1.2008
  107OSM   H11G10951   0.776   4.114   4.923 -0.2203 -0.2400 -0.3130
  107OSM   C12F10952   0.687   3.979   4.794  0.1206 -0.1677  1.1295
  107OSM   H12F10953   0.604   3.907   4.778  1.7416 -2.2075  1.4170
  107OSM   H12G10954   0.790   3.937   4.789  0.4860  0.6933  1.3103
  107OSM   C13F10955   0.691   4.092   4.690 -0.3928 -0.0432 -0.7327
  107OSM   H13F10956   0.763   4.167   4.726  0.5335 -1.4761  0.5376
  107OSM   H13G10957   0.587   4.130   4.685 -0.0702  0.6869 -2.7319
  107OSM   C14F10958   0.720   4.051   4.540  0.3688 -0.5375 -0.9236
  107OSM   H14F10959   0.815   3.995   4.528  0.6213 -0.0445 -1.2855
  107OSM   H14G10960   0.748   4.147   4.492  2.8482 -1.7661 -2.1467
  107OSM   C15F10961   0.595   3.997   4.466 -0.6141  0.3170 -0.1795
  107OSM   H15F10962   0.573   3.892   4.491 -0.0871 -0.4416 -2.6004
  107OSM   H15G10963   0.627   3.999   4.359 -0.5096 -0.3868 -0.1659
  107OSM   C16F10964   0.469   4.084   4.459 -0.2394 -0.3028  0.0029
  107OSM   H16F10965   0.505   4.187   4.438  1.2263 -1.2804 -2.7619
  107OSM   H16G10966   0.418   4.090   4.557 -0.3595  1.7523 -0.1483
  107OSM   C17F10967   0.385   4.047   4.339 -0.3118 -0.1304 -0.1087
  107OSM   H17F10968   0.442   4.068   4.246  1.0208  0.1040  0.7366
  107OSM   H17G10969   0.291   4.106   4.334 -0.9042 -1.0367  0.2022
  107OSM   C18F10970   0.354   3.898   4.334  0.1501  0.7314 -0.3653
  107OSM   H18F10971   0.439   3.828   4.346 -0.4862 -0.1157 -0.6385
  107OSM   H18G10972   0.298   3.870   4.242  0.4263 -2.6789  0.3614
  107OSM   H18H10973   0.286   3.869   4.418  0.4077 -0.5508 -0.5750
  108OSM      N10974   0.665   3.622   6.604 -0.0782 -0.8131 -0.5628
  108OSM    C1510975   0.626   3.651   6.746  0.1937  0.2022  0.3521
  108OSM   H15A10976   0.638   3.758   6.749  0.8247  0.1458  0.0310
  108OSM   H15B10977   0.690   3.607   6.821  1.3329  2.5465  0.8520
  108OSM   H15C10978   0.523   3.627   6.765 -0.2548  1.6189 -0.1320
  108OSM    C1410979   0.562   3.684   6.517  0.8951 -0.3211 -0.2743
  108OSM   H14A10980   0.592   3.674   6.414 -0.2719 -2.3639 -0.4702
  108OSM   H14B10981   0.548   3.789   6.535 -1.1832 -0.5433 -0.3850
  108OSM   H14C10982   0.461   3.647   6.518  1.4425 -1.9600 -0.7360
  108OSM    C1310983   0.784   3.696   6.568 -0.8492  0.5161 -0.6044
  108OSM   H13A10984   0.767   3.802   6.558 -1.8206  0.3674 -0.6271
  108OSM   H13B10985   0.826   3.660   6.475 -1.1499  0.9978 -0.9311
  108OSM   H13C10986   0.859   3.682   6.644  0.1795  0.9263 -1.5167
  108OSM    C1210987   0.685   3.477   6.575 -0.1957 -0.1848  0.4785
  108OSM   H12A10988   0.599   3.438   6.627  0.7156  0.1568  2.2920
  108OSM   H12B10989   0.770   3.448   6.635 -0.5108 -1.2754  0.4190
  108OSM    C1110990   0.690   3.438   6.426 -0.2193 -0.3997 -0.8344
  108OSM   H11A10991   0.599   3.464   6.369 -0.8905 -0.7793  0.0399
  108OSM   H11B10992   0.697   3.328   6.415 -3.6943 -0.9059  0.6964
  108OSM      P10993   0.956   3.451   6.353  0.2075  0.3625  0.2022
  108OSM    O1310994   1.040   3.540   6.271  0.5797  0.1898 -0.7113
  108OSM    O1410995   1.012   3.416   6.483  0.4518 -0.1087 -0.2205
  108OSM    O1110996   0.940   3.316   6.277 -0.7310 -0.0829  0.1706
  108OSM    O1210997   0.806   3.511   6.367 -0.5438 -0.1642  0.2898
  108OSM    C1S10998   0.863   3.325   6.153  0.7399 -0.0098 -1.4088
  108OSM    H1S10999   0.787   3.405   6.164  1.3129  0.4334 -0.5485
  108OSM    H1T11000   0.794   3.239   6.141  0.4592  0.1257 -0.8003
  108OSM     NF11001   0.855   3.380   5.910  0.4421 -0.7405  0.4099
  108OSM    HNF11002   0.837   3.313   5.839  0.3145  0.7835 -1.0833
  108OSM    C2S11003   0.944   3.338   6.021  0.0565  0.0892  0.0453
  108OSM    H2S11004   1.015   3.421   6.041 -0.6139  0.2297  1.9831
  108OSM    C3S11005   1.028   3.211   5.997  0.9065 -1.4306  0.1318
  108OSM    H3S11006   0.951   3.137   5.965 -0.1088 -0.7250  0.8854
  108OSM     O311007   1.096   3.155   6.108  0.1565 -0.6059  0.1573
  108OSM    HO311008   1.058   3.199   6.184  0.3549  0.1667 -0.1721
  108OSM    C4S11009   1.129   3.229   5.886 -0.3906  0.7150  0.7895
  108OSM    H4S11010   1.102   3.203   5.783  3.2021 -3.6692  0.6524
  108OSM    C5S11011   1.247   3.289   5.900  0.4155  0.2146 -0.2471
  108OSM    H5S11012   1.253   3.340   5.996 -1.9458 -1.2498  0.7797
  108OSM    C6S11013   1.345   3.318   5.794  0.4673  0.1213  0.4596
  108OSM    H6S11014   1.415   3.233   5.805  1.4385  0.6462 -1.3793
  108OSM    H6T11015   1.403   3.411   5.814 -0.4778  0.9288 -0.4888
  108OSM    C7S11016   1.296   3.319   5.643  0.4612 -0.4093  0.5874
  108OSM    H7S11017   1.206   3.381   5.625  1.9379  1.6149 -0.2410
  108OSM    H7T11018   1.252   3.223   5.607 -0.7009  0.0377  0.7889
  108OSM    C8S11019   1.400   3.365   5.550  0.2231  0.4642  0.5632
  108OSM    H8S11020   1.501   3.322   5.569  0.6529  1.3148  0.2783
  108OSM    H8T11021   1.400   3.476   5.554  0.0902  0.5250 -0.7317
  108OSM    C9S11022   1.366   3.320   5.404 -0.3200  0.4870 -0.2084
  108OSM    H9S11023   1.360   3.209   5.391 -0.2515  0.6843 -2.3760
  108OSM    H9T11024   1.448   3.342   5.332  0.5457  0.4665  0.7387
  108OSM   C10S11025   1.245   3.383   5.327  0.1487  0.1356 -0.7390
  108OSM   H10S11026   1.250   3.493   5.309  1.8239  0.4833  1.4116
  108OSM   H10T11027   1.154   3.352   5.382  1.3750 -4.0250 -0.7460
  108OSM   C11S11028   1.227   3.320   5.184  0.3150 -0.0835 -0.7682
  108OSM   H11S11029   1.144   3.377   5.138 -1.0840 -0.7935  0.7727
  108OSM   H11T11030   1.199   3.214   5.202 -0.6669  0.4087  0.8100
  108OSM   C12S11031   1.338   3.341   5.083 -0.7989 -0.2205 -0.7899
  108OSM   H12S11032   1.433   3.294   5.115 -0.9055  1.3752  2.2382
  108OSM   H12T11033   1.368   3.448   5.089 -0.8848 -0.2827  2.7233
  108OSM   C13S11034   1.299   3.310   4.939  0.8030  0.0554 -0.1176
  108OSM   H13S11035   1.213   3.374   4.909  0.2842  0.6168  2.3209
  108OSM   H13T11036   1.254   3.209   4.953 -0.1591  0.7033  1.9417
  108OSM   C14S11037   1.415   3.324   4.837 -0.2486 -0.4428  0.0572
  108OSM   H14S11038   1.496   3.251   4.853  1.0669  0.7973 -0.6973
  108OSM   H14T11039   1.455   3.422   4.871  0.0915  0.1252 -1.8623
  108OSM   C15S11040   1.363   3.338   4.695  0.2008 -0.1652  0.3262
  108OSM   H15S11041   1.296   3.427   4.693  0.4162 -0.0022  0.3345
  108OSM   H15T11042   1.312   3.244   4.665  2.7787 -0.9730 -1.9446
  108OSM   C16S11043   1.478   3.354   4.594  0.4089 -0.0698 -0.9584
  108OSM   H16S11044   1.535   3.259   4.598 -1.7497 -1.4118 -0.0399
  108OSM   H16T11045   1.541   3.440   4.624  4.0987 -2.9092  0.1178
  108OSM   C17S11046   1.445   3.386   4.447  0.3861  0.1746  0.5761
  108OSM   H17S11047   1.370   3.467   4.439 -1.8124 -1.9005 -1.1900
  108OSM   H17T11048   1.391   3.295   4.413 -2.9270  1.1044  2.8311
  108OSM   C18S11049   1.570   3.409   4.356 -0.1843 -0.2099 -0.2059
  108OSM   H18S11050   1.655   3.338   4.372  2.0587  2.5958  1.3267
  108OSM   H18T11051   1.604   3.511   4.384 -0.2619  0.2563 -1.7195
  108OSM   H18U11052   1.536   3.425   4.252 -3.2847 -0.9319  0.6050
  108OSM    C1F11053   0.800   3.503   5.899 -0.3078  0.5179  0.6243
  108OSM     OF11054   0.816   3.580   5.993  0.0079 -0.3741 -0.4732
  108OSM    C2F11055   0.722   3.542   5.780 -0.1622 -0.0307 -0.0789
  108OSM    H2F11056   0.621   3.582   5.806  0.8952  1.5422  1.8728
  108OSM    H2G11057   0.720   3.450   5.718  1.2272 -1.4637  1.8835
  108OSM    C3F11058   0.807   3.657   5.721  0.2539 -0.5793  0.1994
  108OSM    H3F11059   0.844   3.728   5.798  0.1978 -1.0578  0.6794
  108OSM    H3G11060   0.741   3.701   5.643 -0.5482  1.1376  1.7820
  108OSM    C4F11061   0.931   3.597   5.651  0.4689  0.3385 -0.1936
  108OSM    H4F11062   0.902   3.508   5.592  1.9169 -0.2830 -0.0135
  108OSM    H4G11063   1.006   3.559   5.724  1.9609  2.1416 -0.7061
  108OSM    C5F11064   1.006   3.691   5.560  0.3029 -0.2050 -0.3186
  108OSM    H5F11065   1.078   3.623   5.509 -0.7299 -0.2392 -1.7885
  108OSM    H5G11066   1.070   3.767   5.610  0.3496 -0.1030 -0.5320
  108OSM    C6F11067   0.924   3.756   5.449 -0.0091 -0.0269  0.6096
  108OSM    H6F11068   0.980   3.841   5.403  0.5270 -0.2864  0.7746
  108OSM    H6G11069   0.828   3.796   5.487  0.5078  1.7699  0.1438
  108OSM    C7F11070   0.896   3.665   5.332  0.0650  0.2859 -0.1646
  108OSM    H7F11071   0.852   3.575   5.379  1.4142  1.3033  3.3787
  108OSM    H7G11072   0.985   3.616   5.287  0.2073  0.1310  0.2750
  108OSM    C8F11073   0.824   3.717   5.208 -0.1862  0.2676 -0.0041
  108OSM    H8F11074   0.727   3.750   5.252 -0.0179  0.1040  0.5005
  108OSM    H8G11075   0.796   3.632   5.143 -1.9174 -0.2437  1.3300
  108OSM    C9F11076   0.905   3.831   5.144  0.5761 -0.1787 -0.5400
  108OSM    H9F11077   0.873   3.929   5.184 -1.4758 -1.1329  0.2504
  108OSM   C10F11078   0.996   3.820   5.045  0.6959  0.0686 -0.2557
  108OSM   H10F11079   1.058   3.908   5.021  0.7892 -0.0706 -0.5300
  108OSM   C11F11080   1.039   3.684   4.988  0.0113 -0.6178 -0.0072
  108OSM   H11F11081   0.977   3.605   5.036 -1.5315 -0.0405 -0.9557
  108OSM   H11G11082   1.146   3.669   5.013  0.4785  1.2850 -0.6529
  108OSM   C12F11083   1.018   3.674   4.831 -0.5281  1.0177 -0.1117
  108OSM   H12F11084   0.908   3.687   4.817 -0.4197  0.3216 -1.9557
  108OSM   H12G11085   1.042   3.568   4.808  1.3433  1.6494 -1.3296
  108OSM   C13F11086   1.105   3.767   4.743  0.6368 -0.9837  0.0867
  108OSM   H13F11087   1.211   3.760   4.774  0.1384  1.1676  2.6833
  108OSM   H13G11088   1.076   3.871   4.770 -1.2039 -1.3045 -0.4898
  108OSM   C14F11089   1.079   3.748   4.594  0.1188 -1.2763 -0.9541
  108OSM   H14F11090   1.104   3.834   4.528  2.1016 -1.0589  0.0069
  108OSM   H14G11091   0.969   3.734   4.591  0.0512 -1.7127  1.6281
  108OSM   C15F11092   1.132   3.623   4.531 -0.6805 -0.0042  0.1899
  108OSM   H15F11093   1.108   3.528   4.584 -2.9525 -0.0946 -0.9224
  108OSM   H15G11094   1.242   3.619   4.517 -0.7741  0.1824 -0.6577
  108OSM   C16F11095   1.084   3.599   4.391 -0.0990  0.0366  0.3313
  108OSM   H16F11096   1.126   3.507   4.345  0.2712 -0.0768  0.8839
  108OSM   H16G11097   1.133   3.676   4.328  0.6573 -0.2230  0.5904
  108OSM   C17F11098   0.931   3.588   4.373  0.4751 -0.1731 -0.1520
  108OSM   H17F11099   0.899   3.693   4.390  0.8330 -0.4033  2.3899
  108OSM   H17G11100   0.873   3.532   4.449 -1.5322  1.4084 -0.4544
  108OSM   C18F11101   0.887   3.523   4.238 -0.0712 -0.3374 -0.0386
  108OSM   H18F11102   0.922   3.419   4.226 -1.0494 -0.4310 -2.6456
  108OSM   H18G11103   0.943   3.580   4.161 -2.0033  0.6545 -0.7758
  108OSM   H18H11104   0.777   3.528   4.219 -0.3758 -0.9523  1.4173
  109OSM      N11105   5.760   5.436   7.098 -0.1361  0.4705 -0.7110
  109OSM    C1511106   5.795   5.329   7.001 -0.1986  0.5521 -0.6882
  109OSM   H15A11107   5.854   5.250   7.043 -0.6523  1.7424  2.5224
  109OSM   H15B11108   5.834   5.365   6.907  2.3559  1.6017  0.6824
  109OSM   H15C11109   5.705   5.280   6.967 -0.7132  0.6820  0.4421
  109OSM    C1411110   5.705   5.371   7.223  0.3265 -0.1710  0.1915
  109OSM   H14A11111   5.778   5.312   7.277  2.6452  1.9647 -0.4187
  109OSM   H14B11112   5.620   5.309   7.200 -0.0092 -0.2453  1.5425
  109OSM   H14C11113   5.671   5.446   7.293  3.9874  1.8689  0.0149
  109OSM    C1311114   5.885   5.505   7.124 -0.0351  0.0142  0.1818
  109OSM   H13A11115   5.907   5.556   7.031 -0.7149  0.5612  0.3183
  109OSM   H13B11116   5.968   5.438   7.140  2.4504  1.8554 -3.4902
  109OSM   H13C11117   5.877   5.561   7.215  2.8730 -1.3051  1.3801
  109OSM    C1211118   5.664   5.526   7.032 -0.0930  0.3312 -0.2343
  109OSM   H12A11119   5.639   5.604   7.103  5.8277  2.6267 -0.1415
  109OSM   H12B11120   5.572   5.479   7.000  0.4526 -0.1522 -1.1302
  109OSM    C1111121   5.716   5.616   6.913 -0.2557 -0.1729  0.1427
  109OSM   H11A11122   5.633   5.663   6.857 -0.1169 -0.5278 -0.3685
  109OSM   H11B11123   5.760   5.554   6.832  0.3802  2.6067 -1.7686
  109OSM      P11124   5.785   5.862   6.987  0.3195 -0.3355  0.1557
  109OSM    O1311125   5.698   5.865   7.111  0.5365 -0.2095 -0.3563
  109OSM    O1411126   5.912   5.936   6.995  0.6427  0.4624 -0.5813
  109OSM    O1111127   5.696   5.907   6.857 -0.1479  0.5806  0.0604
  109OSM    O1211128   5.818   5.715   6.954 -0.0767  0.2155 -0.2711
  109OSM    C1S11129   5.779   5.913   6.734 -0.0101 -0.0135 -0.3141
  109OSM    H1S11130   5.831   5.816   6.713  0.2618 -0.3342  1.6375
  109OSM    H1T11131   5.862   5.987   6.743 -1.1477  1.3192 -0.4864
  109OSM     NF11132   5.746   5.927   6.486 -0.0701 -1.0201 -0.5440
  109OSM    HNF11133   5.807   6.003   6.465 -2.5172  2.4645  3.4222
  109OSM    C2S11134   5.688   5.957   6.618  0.3694 -0.2813 -0.1266
  109OSM    H2S11135   5.598   5.892   6.629  0.0155  0.3543  0.8999
  109OSM    C3S11136   5.646   6.103   6.634 -0.5054 -0.5864 -0.1630
  109OSM    H3S11137   5.731   6.175   6.625 -1.2216  0.4193  0.8192
  109OSM     O311138   5.582   6.135   6.759 -0.6536  0.6142 -0.3339
  109OSM    HO311139   5.612   6.057   6.806 -1.7555 -0.6409 -1.6262
  109OSM    C4S11140   5.547   6.134   6.527 -0.0297 -0.5097  0.0278
  109OSM    H4S11141   5.480   6.055   6.491  0.6170 -0.2233 -1.9173
  109OSM    C5S11142   5.547   6.241   6.443 -0.0729  1.8162 -0.3675
  109OSM    H5S11143   5.635   6.308   6.447  2.0674 -0.8797  1.9988
  109OSM    C6S11144   5.454   6.243   6.324  0.3500 -0.5190  0.9146
  109OSM    H6S11145   5.388   6.332   6.332 -0.5789 -1.3508  3.7344
  109OSM    H6T11146   5.398   6.149   6.307  1.2662 -1.6825  3.7008
  109OSM    C7S11147   5.526   6.266   6.181 -0.7872 -0.1097  0.1628
  109OSM    H7S11148   5.576   6.365   6.182  1.7491 -1.2989  1.1504
  109OSM    H7T11149   5.449   6.262   6.102  1.0102  0.4180 -1.6908
  109OSM    C8S11150   5.650   6.168   6.156  0.4805 -0.2727 -0.4203
  109OSM    H8S11151   5.613   6.064   6.147  0.7762 -0.4986  0.7608
  109OSM    H8T11152   5.718   6.172   6.245 -0.9978  1.5581  0.7100
  109OSM    C9S11153   5.734   6.215   6.033 -0.9545  0.9183  0.3552
  109OSM    H9S11154   5.776   6.316   6.055 -1.0473  0.9296  0.4888
  109OSM    H9T11155   5.665   6.233   5.948 -1.1691 -1.7235 -0.1048
  109OSM   C10S11156   5.841   6.109   5.999  0.2345 -0.6206  0.7483
  109OSM   H10S11157   5.799   6.008   5.981 -1.2343  0.1051 -0.0923
  109OSM   H10T11158   5.901   6.106   6.092 -0.3900  1.0749  1.2491
  109OSM   C11S11159   5.923   6.156   5.877 -0.5757  0.5892 -0.4112
  109OSM   H11S11160   6.000   6.077   5.865 -0.7115  0.0253  1.9009
  109OSM   H11T11161   5.977   6.250   5.899  1.0687  0.0466 -1.9156
  109OSM   C12S11162   5.852   6.156   5.734  0.5661 -0.6224 -0.7579
  109OSM   H12S11163   5.799   6.254   5.742 -0.8162 -1.3816 -0.2036
  109OSM   H12T11164   5.781   6.072   5.716 -1.5221  0.9207 -0.1016
  109OSM   C13S11165   5.954   6.167   5.620 -0.5875 -0.3375 -0.2093
  109OSM   H13S11166   6.029   6.247   5.637 -0.6561 -0.5777  1.2919
  109OSM   H13T11167   5.892   6.205   5.535 -1.1536 -0.3610  0.1867
  109OSM   C14S11168   6.010   6.041   5.565 -0.1841  0.5000 -0.8670
  109OSM   H14S11169   5.926   5.972   5.544  0.0729 -0.4358  0.9876
  109OSM   H14T11170   6.067   5.990   5.646 -0.7361 -0.5050 -1.0908
  109OSM   C15S11171   6.101   6.065   5.447  0.2201  0.1861  0.4007
  109OSM   H15S11172   6.195   6.121   5.464  0.7345 -0.7930  0.8956
  109OSM   H15T11173   6.049   6.135   5.378 -1.1564 -1.6097 -0.5086
  109OSM   C16S11174   6.148   5.939   5.378  0.2930 -0.1045  0.0293
  109OSM   H16S11175   6.207   5.870   5.442  1.7554  0.3796 -0.7456
  109OSM   H16T11176   6.226   5.975   5.307  2.0143 -3.3283  0.0606
  109OSM   C17S11177   6.045   5.867   5.300 -0.1444 -0.7143  0.5159
  109OSM   H17S11178   5.975   5.946   5.266  1.3379  0.7875  0.8580
  109OSM   H17T11179   6.003   5.795   5.373  1.4816 -0.4677  1.7577
  109OSM   C18S11180   6.099   5.790   5.183  0.2121  0.3394 -0.1574
  109OSM   H18S11181   6.121   5.865   5.104  1.2323 -0.2147 -0.4167
  109OSM   H18T11182   6.028   5.707   5.163  1.3755 -1.4194  2.4729
  109OSM   H18U11183   6.196   5.740   5.204 -1.1157 -2.6785 -0.6411
  109OSM    C1F11184   5.769   5.802   6.437  0.6830  0.6512  0.5159
  109OSM     OF11185   5.748   5.703   6.503 -0.6474 -0.0962  0.1368
  109OSM    C2F11186   5.810   5.784   6.297 -0.4745 -0.4446 -0.3630
  109OSM    H2F11187   5.891   5.856   6.272 -2.2067  1.9890  0.6455
  109OSM    H2G11188   5.724   5.819   6.237 -1.1501  1.8656  1.7789
  109OSM    C3F11189   5.854   5.643   6.261  0.1220  0.6915  0.1123
  109OSM    H3F11190   5.769   5.572   6.257  0.3070  0.5159 -1.7599
  109OSM    H3G11191   5.929   5.600   6.331 -1.5494  0.3260  1.7515
  109OSM    C4F11192   5.910   5.632   6.112 -0.4203  0.3005 -0.0193
  109OSM    H4F11193   5.956   5.534   6.086  0.0665  0.4166  0.4007
  109OSM    H4G11194   5.996   5.702   6.116 -1.8807  2.1329  1.2783
  109OSM    C5F11195   5.811   5.674   5.999 -0.4417 -0.2967 -0.1810
  109OSM    H5F11196   5.770   5.776   6.018 -1.8636 -1.0765  1.1331
  109OSM    H5G11197   5.720   5.611   6.001 -1.5163  1.2182  0.7925
  109OSM    C6F11198   5.889   5.677   5.869  0.3600  0.0044  0.3031
  109OSM    H6F11199   5.944   5.581   5.865 -0.6366 -0.7066  2.4791
  109OSM    H6G11200   5.967   5.756   5.878  0.8823 -0.4520 -0.1434
  109OSM    C7F11201   5.799   5.700   5.744 -0.6072  0.3030 -0.1722
  109OSM    H7F11202   5.763   5.804   5.760  2.6427  1.5277 -0.1789
  109OSM    H7G11203   5.707   5.638   5.750 -1.0039  0.8496 -0.4417
  109OSM    C8F11204   5.865   5.665   5.618 -0.6861  0.3767  1.1956
  109OSM    H8F11205   5.962   5.713   5.592 -0.1271 -1.0871  0.4886
  109OSM    H8G11206   5.792   5.707   5.545 -1.5114 -0.8493  1.2963
  109OSM    C9F11207   5.876   5.519   5.602  0.5411 -0.2057 -0.0923
  109OSM    H9F11208   5.776   5.478   5.584 -0.6522  2.3481  0.3134
  109OSM   C10F11209   5.990   5.450   5.581  0.1881  0.3352  0.0761
  109OSM   H10F11210   5.984   5.341   5.570  0.5630  0.4837 -2.1602
  109OSM   C11F11211   6.131   5.505   5.572 -0.1021  0.5205  0.3123
  109OSM   H11F11212   6.203   5.446   5.632  0.2931  0.2368 -0.4181
  109OSM   H11G11213   6.132   5.605   5.619  0.9387  0.3366  0.7113
  109OSM   C12F11214   6.174   5.518   5.423 -0.7592  0.2753 -0.1200
  109OSM   H12F11215   6.247   5.600   5.405 -0.3390  0.3479  1.7467
  109OSM   H12G11216   6.083   5.546   5.365 -2.2512  1.3279  2.5804
  109OSM   C13F11217   6.238   5.393   5.366  0.1721  0.3433 -0.0795
  109OSM   H13F11218   6.165   5.310   5.356  0.5060  0.2380 -2.0501
  109OSM   H13G11219   6.312   5.360   5.442 -2.3342 -1.1935  1.8738
  109OSM   C14F11220   6.300   5.417   5.231  0.3257 -0.6341 -0.1174
  109OSM   H14F11221   6.378   5.341   5.210  0.4854 -0.6886  0.6679
  109OSM   H14G11222   6.350   5.516   5.226  0.8589 -0.8374  0.8953
  109OSM   C15F11223   6.198   5.404   5.112 -0.3473 -0.2444 -0.4406
  109OSM   H15F11224   6.104   5.456   5.141 -1.8874 -2.3562 -1.3723
  109OSM   H15G11225   6.171   5.296   5.111  1.7680 -0.8328  0.4655
  109OSM   C16F11226   6.255   5.465   4.984 -0.3152  0.1061 -0.0819
  109OSM   H16F11227   6.282   5.566   5.020 -2.8059  0.6801  0.3809
  109OSM   H16G11228   6.175   5.479   4.908 -1.5351  2.9130  1.5744
  109OSM   C17F11229   6.364   5.381   4.928 -0.2168 -0.5014  0.0864
  109OSM   H17F11230   6.319   5.297   4.871 -3.5772  1.9596 -1.2069
  109OSM   H17G11231   6.427   5.354   5.016 -1.4461  2.7159  2.1453
  109OSM   C18F11232   6.450   5.461   4.834 -0.5236  0.0996 -0.3778
  109OSM   H18F11233   6.554   5.422   4.840 -0.1631  1.0361 -0.3465
  109OSM   H18G11234   6.444   5.569   4.859 -2.0497 -0.2509  0.9548
  109OSM   H18H11235   6.406   5.449   4.732  0.2916 -0.2807 -0.6981
  110OSM      N11236   1.293   3.116   6.405  0.0162  0.7612  0.1140
  110OSM    C1511237   1.418   3.058   6.476 -0.3939  0.4603  0.2430
  110OSM   H15A11238   1.482   3.031   6.394 -2.2636 -0.8062 -0.8819
  110OSM   H15B11239   1.390   2.961   6.517  0.7583 -0.6055 -1.3786
  110OSM   H15C11240   1.467   3.122   6.548 -0.5737  1.4769 -0.5157
  110OSM    C1411241   1.221   3.005   6.342 -0.2657 -0.0349  0.2457
  110OSM   H14A11242   1.277   2.955   6.264 -0.0968  0.9439 -0.2715
  110OSM   H14B11243   1.134   3.048   6.296 -0.6167 -1.5647 -0.5820
  110OSM   H14C11244   1.182   2.936   6.416  0.9625  0.2999  1.2488
  110OSM    C1311245   1.216   3.184   6.507  0.1003 -0.4393 -0.0499
  110OSM   H13A11246   1.260   3.278   6.537  1.4373 -1.1435  0.2871
  110OSM   H13B11247   1.212   3.126   6.599 -1.7206 -3.4688 -1.8660
  110OSM   H13C11248   1.118   3.211   6.471  0.7694 -2.5041 -3.8724
  110OSM    C1211249   1.347   3.216   6.292  0.3140 -0.3446 -0.2799
  110OSM   H12A11250   1.382   3.310   6.331 -0.0155  0.0926 -1.0308
  110OSM   H12B11251   1.257   3.239   6.237 -0.8231 -0.5349  1.4252
  110OSM    C1111252   1.459   3.171   6.196  0.5894 -0.1859  0.5734
  110OSM   H11A11253   1.461   3.253   6.121 -3.2607  0.7396  1.2627
  110OSM   H11B11254   1.409   3.081   6.154 -2.1509  1.3823  0.2684
  110OSM      P11255   1.683   3.241   6.308 -0.0903  0.1820 -0.5140
  110OSM    O1311256   1.602   3.346   6.371  0.2080  0.2089 -0.0706
  110OSM    O1411257   1.787   3.182   6.395  0.0688 -0.2398  0.1721
  110OSM    O1111258   1.756   3.287   6.182  0.3961  0.2620  0.7250
  110OSM    O1211259   1.584   3.132   6.255 -0.6946  0.2912  0.1093
  110OSM    C1S11260   1.837   3.192   6.102  0.5006 -0.0309  0.6151
  110OSM    H1S11261   1.824   3.087   6.133  1.7175 -0.7827 -1.2625
  110OSM    H1T11262   1.942   3.213   6.133  0.2119  0.5244  1.2348
  110OSM     NF11263   1.891   3.106   5.874  0.2962 -0.2706 -0.7314
  110OSM    HNF11264   1.981   3.144   5.855  0.8252  0.8440  3.1839
  110OSM    C2S11265   1.799   3.197   5.948 -0.4372 -0.8526 -0.2249
  110OSM    H2S11266   1.695   3.160   5.936 -0.6038 -1.1697  1.7969
  110OSM    C3S11267   1.801   3.343   5.894  0.3010  0.0330  0.6236
  110OSM    H3S11268   1.906   3.379   5.901  0.2162  0.5774 -0.5932
  110OSM     O311269   1.711   3.427   5.965 -0.4087 -0.6116  0.4708
  110OSM    HO311270   1.688   3.378   6.045 -0.6974  0.5410  1.1235
  110OSM    C4S11271   1.773   3.341   5.747 -0.2956  0.1811  0.2695
  110OSM    H4S11272   1.673   3.300   5.723 -0.1023  0.2003 -0.5938
  110OSM    C5S11273   1.861   3.348   5.647  0.4279 -0.8484 -0.5374
  110OSM    H5S11274   1.967   3.365   5.670  0.1956  2.6314 -1.4931
  110OSM    C6S11275   1.826   3.312   5.504 -0.2153 -0.0575 -0.3831
  110OSM    H6S11276   1.737   3.246   5.509 -0.3990  0.1696 -0.6123
  110OSM    H6T11277   1.915   3.264   5.457  0.1400 -0.1230  0.3513
  110OSM    C7S11278   1.790   3.430   5.418  0.4723 -1.0289  0.0521
  110OSM    H7S11279   1.875   3.499   5.397 -1.5995  2.3434  2.0092
  110OSM    H7T11280   1.714   3.500   5.458  1.3361  1.1251 -1.8547
  110OSM    C8S11281   1.725   3.388   5.286 -0.6679  0.3748  0.3517
  110OSM    H8S11282   1.628   3.439   5.267 -0.3416  1.4195  1.4247
  110OSM    H8T11283   1.708   3.278   5.284  0.5013  0.1747  0.4498
  110OSM    C9S11284   1.813   3.409   5.167  0.7363  0.3754 -0.0373
  110OSM    H9S11285   1.912   3.365   5.193  1.3811  2.4142  1.2318
  110OSM    H9T11286   1.830   3.517   5.144 -0.6881  0.4611 -0.7726
  110OSM   C10S11287   1.752   3.348   5.041 -0.1749 -0.3551 -0.1367
  110OSM   H10S11288   1.664   3.413   5.020  0.1432  0.6514  1.4044
  110OSM   H10T11289   1.698   3.254   5.066 -0.9503  0.2782  0.6618
  110OSM   C11S11290   1.854   3.317   4.932  0.8012 -0.8080  0.2699
  110OSM   H11S11291   1.929   3.244   4.970  1.8030  2.1066  4.5167
  110OSM   H11T11292   1.919   3.402   4.903 -1.6571  0.8240 -0.8139
  110OSM   C12S11293   1.794   3.269   4.797 -1.0120 -0.7636 -0.5944
  110OSM   H12S11294   1.723   3.350   4.769  0.5284  1.4392  1.4391
  110OSM   H12T11295   1.725   3.183   4.811 -0.3905 -1.3392 -0.9995
  110OSM   C13S11296   1.904   3.239   4.701 -0.9037  0.2191  0.5401
  110OSM   H13S11297   1.980   3.165   4.734  0.3080  1.0361 -0.3337
  110OSM   H13T11298   1.972   3.326   4.688  1.6713 -1.6261  0.8666
  110OSM   C14S11299   1.866   3.199   4.556 -0.3949  0.0692  0.2628
  110OSM   H14S11300   1.817   3.282   4.500  0.3916  0.8065  0.6621
  110OSM   H14T11301   1.793   3.116   4.568 -2.1225  1.6690  1.4358
  110OSM   C15S11302   1.993   3.163   4.479  0.3501 -1.4953  0.7373
  110OSM   H15S11303   1.952   3.122   4.385  0.3952  0.1694 -0.0431
  110OSM   H15T11304   2.053   3.087   4.534  0.6494 -1.1103  0.9487
  110OSM   C16S11305   2.083   3.277   4.432 -0.0853  0.0149  0.3553
  110OSM   H16S11306   2.134   3.317   4.522 -0.2861 -0.7886  0.8331
  110OSM   H16T11307   2.022   3.353   4.378  3.1042  2.5865  0.0688
  110OSM   C17S11308   2.179   3.221   4.323  0.5364 -0.6044  0.2321
  110OSM   H17S11309   2.150   3.117   4.295 -0.1126 -0.4192  0.1826
  110OSM   H17T11310   2.284   3.211   4.355  0.2904 -3.0506  0.4762
  110OSM   C18S11311   2.176   3.304   4.197 -0.3855 -0.7233  0.6683
  110OSM   H18S11312   2.072   3.326   4.164 -0.3727 -1.9434 -0.2914
  110OSM   H18T11313   2.221   3.248   4.112 -1.5838 -0.9030  0.1254
  110OSM   H18U11314   2.235   3.395   4.219  1.7911 -1.0472 -2.9825
  110OSM    C1F11315   1.866   2.972   5.873 -0.0140 -0.2659  0.1424
  110OSM     OF11316   1.758   2.944   5.922 -0.1775  0.2006  0.2837
  110OSM    C2F11317   1.971   2.879   5.826 -0.3100 -0.1502 -0.3280
  110OSM    H2F11318   1.991   2.797   5.899 -0.4739 -0.2058 -0.3457
  110OSM    H2G11319   2.054   2.948   5.801 -0.9006  0.3439 -0.9729
  110OSM    C3F11320   1.933   2.818   5.685  0.7981  0.0212 -0.4634
  110OSM    H3F11321   1.845   2.751   5.696 -0.5137  1.2564 -2.7507
  110OSM    H3G11322   2.022   2.751   5.674  1.8402  1.4037 -0.7314
  110OSM    C4F11323   1.928   2.915   5.564  0.5132  0.0307 -0.0806
  110OSM    H4F11324   2.027   2.965   5.558  1.2317 -1.2862  0.1652
  110OSM    H4G11325   1.861   3.001   5.584  0.0233 -0.1879 -0.7263
  110OSM    C5F11326   1.892   2.844   5.428  0.0911 -0.6860 -0.6614
  110OSM    H5F11327   1.781   2.829   5.427  0.1104 -0.8278 -0.8755
  110OSM    H5G11328   1.943   2.746   5.437 -1.0888 -1.1948  1.1871
  110OSM    C6F11329   1.936   2.920   5.308 -0.3496 -0.3044  0.5058
  110OSM    H6F11330   2.046   2.935   5.312 -0.3629  0.8484 -1.6926
  110OSM    H6G11331   1.887   3.019   5.322 -0.2025 -0.6441  4.6059
  110OSM    C7F11332   1.896   2.864   5.167  0.2527  0.0761  0.4205
  110OSM    H7F11333   1.791   2.831   5.176 -0.2122  1.8572  2.0622
  110OSM    H7G11334   1.952   2.770   5.147 -0.9845 -0.2145 -1.9432
  110OSM    C8F11335   1.928   2.966   5.046 -0.5209  0.4400  0.0822
  110OSM    H8F11336   1.862   3.055   5.052 -0.3308  0.5257  1.2211
  110OSM    H8G11337   1.891   2.906   4.960 -2.2988 -1.1240  1.8235
  110OSM    C9F11338   2.077   2.996   5.042  0.4782 -0.3442  0.0819
  110OSM    H9F11339   2.115   3.051   5.129  0.8944  1.6302 -1.2776
  110OSM   C10F11340   2.167   2.985   4.941  0.1080  0.3004 -1.0911
  110OSM   H10F11341   2.269   3.006   4.978 -0.3285 -0.9238  0.9317
  110OSM   C11F11342   2.144   2.934   4.804  0.1866  0.4266  0.7978
  110OSM   H11F11343   2.215   2.994   4.743 -0.8302  1.9569  1.0785
  110OSM   H11G11344   2.041   2.965   4.779  0.5301  0.3450 -0.8587
  110OSM   C12F11345   2.171   2.786   4.790 -0.0865  0.5379  0.0026
  110OSM   H12F11346   2.162   2.759   4.683  1.5490 -1.7665  0.3528
  110OSM   H12G11347   2.089   2.727   4.837  1.2650 -1.1649  0.3498
  110OSM   C13F11348   2.318   2.740   4.821 -0.8971  0.7090 -0.2071
  110OSM   H13F11349   2.338   2.749   4.930  0.2952  1.8789 -0.4962
  110OSM   H13G11350   2.398   2.797   4.769  0.9895 -1.5506  0.0451
  110OSM   C14F11351   2.335   2.589   4.782  0.2549 -0.1862  0.5893
  110OSM   H14F11352   2.339   2.579   4.672  2.4972 -0.9447  0.6654
  110OSM   H14G11353   2.246   2.536   4.821  0.5771 -0.0676  1.5271
  110OSM   C15F11354   2.465   2.536   4.845 -0.0815 -0.3057 -0.6529
  110OSM   H15F11355   2.449   2.532   4.954 -0.9544  0.1307 -0.7523
  110OSM   H15G11356   2.556   2.598   4.829  1.1112 -2.1311 -1.2651
  110OSM   C16F11357   2.488   2.388   4.807 -0.4184  0.2423  0.2676
  110OSM   H16F11358   2.395   2.332   4.830 -2.9691  4.1873  0.6126
  110OSM   H16G11359   2.567   2.349   4.875  0.3312  0.1195 -0.6578
  110OSM   C17F11360   2.535   2.364   4.665 -0.2125 -0.1993 -0.3284
  110OSM   H17F11361   2.615   2.437   4.641 -0.2044 -0.4324 -1.0322
  110OSM   H17G11362   2.458   2.381   4.586  0.3803 -1.7318 -1.2754
  110OSM   C18F11363   2.599   2.233   4.644 -0.5040 -0.1061  0.5471
  110OSM   H18F11364   2.696   2.223   4.697 -0.9620 -0.7456  1.2931
  110OSM   H18G11365   2.607   2.212   4.535 -1.3399 -0.6977  0.5849
  110OSM   H18H11366   2.530   2.156   4.686 -0.3309 -1.4397 -1.4695
  111OSM      N11367   2.854   1.743   6.727 -0.0048 -0.4702  0.4500
  111OSM    C1511368   2.971   1.836   6.743 -0.1907  0.5518 -0.0874
  111OSM   H15A11369   2.935   1.920   6.800  2.9379  0.4689  2.2672
  111OSM   H15B11370   3.017   1.859   6.648  2.1194  0.3012  0.9052
  111OSM   H15C11371   3.047   1.777   6.791  1.5579 -0.5997 -3.8874
  111OSM    C1411372   2.816   1.682   6.855 -0.4350  0.0910  0.2305
  111OSM   H14A11373   2.723   1.629   6.842 -0.0437 -0.1805 -1.7590
  111OSM   H14B11374   2.825   1.753   6.936  0.9520 -0.6397  0.7456
  111OSM   H14C11375   2.892   1.618   6.897  1.1170  2.6671  1.6532
  111OSM    C1311376   2.735   1.820   6.678  0.2422 -0.2671  0.4657
  111OSM   H13A11377   2.728   1.921   6.715 -1.1055 -0.2274  0.1675
  111OSM   H13B11378   2.648   1.756   6.690 -0.5987  0.7742  0.0295
  111OSM   H13C11379   2.735   1.828   6.571  0.9110 -1.1511  0.3868
  111OSM    C1211380   2.893   1.637   6.620  0.4058  0.2256  0.3362
  111OSM   H12A11381   2.928   1.692   6.534  1.0393  0.8317  0.9584
  111OSM   H12B11382   2.802   1.590   6.586  1.1727 -1.1897  0.1604
  111OSM    C1111383   3.000   1.540   6.660  0.2508 -0.3340 -0.2867
  111OSM   H11A11384   2.998   1.457   6.586 -2.2076 -0.1704 -0.4875
  111OSM   H11B11385   2.981   1.507   6.764 -0.7311  1.5522  0.1757
  111OSM      P11386   3.229   1.587   6.561  0.0771 -0.4675 -0.2222
  111OSM    O1311387   3.335   1.680   6.601  0.0683  0.6981  0.0044
  111OSM    O1411388   3.253   1.448   6.530 -0.7786  0.0285  0.5273
  111OSM    O1111389   3.159   1.648   6.439  0.3149 -0.9611 -0.2399
  111OSM    O1211390   3.124   1.595   6.670 -0.2670  0.0915  0.3593
  111OSM    C1S11391   3.204   1.746   6.347 -0.9844 -0.1241  0.2902
  111OSM    H1S11392   3.314   1.738   6.334 -1.0140 -2.1676  0.9271
  111OSM    H1T11393   3.177   1.844   6.393 -0.5568  0.5837 -0.9085
  111OSM     NF11394   3.181   1.839   6.119 -0.6568  0.6101 -0.4887
  111OSM    HNF11395   3.116   1.914   6.105 -0.1290  1.6250  1.9842
  111OSM    C2S11396   3.135   1.733   6.212  0.1453  0.1926  0.1772
  111OSM    H2S11397   3.152   1.631   6.172 -1.1888 -0.3199  0.8576
  111OSM    C3S11398   2.976   1.731   6.230 -0.7292  0.2627 -0.0515
  111OSM    H3S11399   2.955   1.830   6.276 -1.2809  1.6067 -3.0080
  111OSM     O311400   2.930   1.639   6.329 -0.0450 -0.4279  0.0748
  111OSM    HO311401   3.016   1.615   6.365 -0.7272  0.5634  2.5790
  111OSM    C4S11402   2.906   1.726   6.100  0.3891  0.4321  0.2168
  111OSM    H4S11403   2.914   1.828   6.061  0.9239 -0.2783 -1.6325
  111OSM    C5S11404   2.852   1.627   6.032 -0.1453  0.0137 -0.4885
  111OSM    H5S11405   2.869   1.523   6.063 -0.8886 -0.4938 -1.7257
  111OSM    C6S11406   2.798   1.641   5.894 -0.1571  0.3936  0.1570
  111OSM    H6S11407   2.796   1.749   5.867  1.0278  0.2482 -0.5851
  111OSM    H6T11408   2.699   1.591   5.887 -0.1619  0.3535  0.4855
  111OSM    C7S11409   2.890   1.565   5.792 -0.2453 -0.3345 -1.0792
  111OSM    H7S11410   2.922   1.469   5.836 -2.0299 -0.4975 -0.0385
  111OSM    H7T11411   2.987   1.617   5.778 -1.1561  1.5332 -0.7966
  111OSM    C8S11412   2.835   1.534   5.653  0.2030 -0.7931 -0.4065
  111OSM    H8S11413   2.814   1.628   5.598  0.3685  1.1412  2.5845
  111OSM    H8T11414   2.739   1.480   5.652 -0.0463 -0.3758  0.1244
  111OSM    C9S11415   2.940   1.451   5.573  0.3956  0.4983  1.0145
  111OSM    H9S11416   2.957   1.357   5.629 -0.7351  0.9257  2.1129
  111OSM    H9T11417   3.038   1.500   5.554  0.2698  0.1521 -0.7340
  111OSM   C10S11418   2.887   1.386   5.445  0.1438  0.5949  0.5768
  111OSM   H10S11419   2.836   1.467   5.389  0.4109  1.5492  1.6594
  111OSM   H10T11420   2.804   1.315   5.467  0.6102 -0.5373 -1.1332
  111OSM   C11S11421   3.007   1.322   5.355  0.3782  0.1341 -1.0563
  111OSM   H11S11422   3.043   1.228   5.402 -0.0306 -0.0112 -1.0288
  111OSM   H11T11423   3.091   1.395   5.353 -0.9472  1.7382 -0.9771
  111OSM   C12S11424   2.971   1.301   5.201 -0.6573 -0.0682 -0.4156
  111OSM   H12S11425   2.929   1.400   5.174 -0.0083 -0.0317 -1.3594
  111OSM   H12T11426   2.889   1.226   5.200 -0.7086 -0.0493  0.8199
  111OSM   C13S11427   3.087   1.267   5.108  0.0080  0.4329 -0.6922
  111OSM   H13S11428   3.144   1.176   5.136 -1.5656 -0.7601 -1.2347
  111OSM   H13T11429   3.159   1.352   5.110 -0.9623  1.3009  1.2537
  111OSM   C14S11430   3.043   1.244   4.963 -0.0992  0.8644  0.0960
  111OSM   H14S11431   2.997   1.336   4.922 -2.3756 -0.3323 -0.1707
  111OSM   H14T11432   2.963   1.169   4.946  0.8186 -0.1783  0.1843
  111OSM   C15S11433   3.160   1.191   4.869  0.5141  0.4023 -0.0038
  111OSM   H15S11434   3.124   1.122   4.790  0.5791  0.5842 -0.1962
  111OSM   H15T11435   3.236   1.133   4.925 -0.9667 -1.3376  0.2902
  111OSM   C16S11436   3.232   1.310   4.804 -0.4586  0.5213  1.0585
  111OSM   H16S11437   3.283   1.358   4.891 -0.3486 -1.4708  2.1443
  111OSM   H16T11438   3.155   1.357   4.739  1.4145 -1.1003 -2.6119
  111OSM   C17S11439   3.336   1.265   4.694  0.0737  0.0359 -0.2142
  111OSM   H17S11440   3.281   1.216   4.611 -1.5450  2.3259 -0.5985
  111OSM   H17T11441   3.404   1.191   4.741 -0.6883 -0.2090  0.5288
  111OSM   C18S11442   3.413   1.390   4.648 -0.5174  0.3268 -0.3744
  111OSM   H18S11443   3.518   1.370   4.617 -0.5843 -0.9857  0.1993
  111OSM   H18T11444   3.420   1.457   4.736 -4.9852  3.3911 -1.9791
  111OSM   H18U11445   3.358   1.451   4.573  0.8555  0.2618 -1.4688
  111OSM    C1F11446   3.301   1.838   6.069  0.4725 -0.6096  0.4130
  111OSM     OF11447   3.376   1.743   6.086 -0.1331 -0.1127 -0.3787
  111OSM    C2F11448   3.342   1.957   5.985  0.0401 -0.1331  0.1870
  111OSM    H2F11449   3.395   2.034   6.044  1.9026 -1.0564 -0.2053
  111OSM    H2G11450   3.254   2.012   5.945  2.0433  2.5755 -0.7927
  111OSM    C3F11451   3.439   1.912   5.870  0.4243  0.2042  0.2923
  111OSM    H3F11452   3.542   1.882   5.900  0.7385  0.3634 -0.5811
  111OSM    H3G11453   3.467   1.998   5.805  1.9670 -1.7661 -1.8279
  111OSM    C4F11454   3.383   1.813   5.764 -0.4092  0.7988 -0.2099
  111OSM    H4F11455   3.340   1.726   5.819 -0.8714  0.1019 -1.6318
  111OSM    H4G11456   3.463   1.778   5.697  1.2743  2.0539  1.0430
  111OSM    C5F11457   3.273   1.879   5.671 -0.4419 -0.1795  0.0719
  111OSM    H5F11458   3.323   1.964   5.620 -0.4504 -0.6207 -0.6838
  111OSM    H5G11459   3.195   1.913   5.743 -2.6600 -1.9512 -1.3290
  111OSM    C6F11460   3.211   1.787   5.561 -0.5073 -0.4269 -0.3136
  111OSM    H6F11461   3.134   1.846   5.506  0.0025 -0.1788 -0.7727
  111OSM    H6G11462   3.163   1.703   5.614  1.5844 -1.0786  0.6525
  111OSM    C7F11463   3.305   1.737   5.452 -0.4497  0.1791 -0.3966
  111OSM    H7F11464   3.258   1.650   5.401  0.7304 -0.5038 -0.3661
  111OSM    H7G11465   3.402   1.700   5.492 -0.6964 -1.0438 -0.8688
  111OSM    C8F11466   3.324   1.842   5.342 -0.0968 -0.3027  0.4404
  111OSM    H8F11467   3.352   1.942   5.382 -0.5562 -0.5158  1.3371
  111OSM    H8G11468   3.230   1.849   5.282  0.5365 -0.9658 -0.6555
  111OSM    C9F11469   3.433   1.792   5.252  0.3452  0.4288  0.4479
  111OSM    H9F11470   3.528   1.782   5.306  0.1527 -2.6114  0.3969
  111OSM   C10F11471   3.434   1.780   5.116  0.9305 -0.1409  0.5614
  111OSM   H10F11472   3.527   1.750   5.066  0.8627 -0.6734  0.7498
  111OSM   C11F11473   3.317   1.804   5.016 -0.1429 -0.2407 -0.3456
  111OSM   H11F11474   3.340   1.893   4.953 -1.0802  1.1579  1.1890
  111OSM   H11G11475   3.217   1.813   5.064 -1.1731 -0.5752 -2.3398
  111OSM   C12F11476   3.286   1.698   4.910 -0.1407 -0.1266 -0.0224
  111OSM   H12F11477   3.237   1.605   4.948  2.2741 -1.8758 -0.9230
  111OSM   H12G11478   3.381   1.659   4.868 -0.5275  0.7546 -1.7756
  111OSM   C13F11479   3.198   1.766   4.804  0.1264  0.0337 -0.6081
  111OSM   H13F11480   3.214   1.873   4.781 -0.1159  0.4839  1.1439
  111OSM   H13G11481   3.090   1.767   4.832 -0.9801 -0.5451 -4.3758
  111OSM   C14F11482   3.199   1.677   4.677  0.2536  0.2668  0.7045
  111OSM   H14F11483   3.162   1.573   4.691 -0.6016  0.2756 -1.1391
  111OSM   H14G11484   3.302   1.678   4.634 -0.1956  1.8835 -0.4219
  111OSM   C15F11485   3.112   1.746   4.564 -0.2732  0.2122 -0.5186
  111OSM   H15F11486   3.129   1.855   4.573  0.6674 -0.0705  1.8182
  111OSM   H15G11487   3.005   1.736   4.592 -0.1659 -1.1644 -0.5377
  111OSM   C16F11488   3.127   1.686   4.416  0.4314 -0.4210 -0.0303
  111OSM   H16F11489   3.105   1.578   4.418 -1.5838 -0.0626 -0.5052
  111OSM   H16G11490   3.227   1.710   4.374  0.9329 -3.0470 -0.5125
  111OSM   C17F11491   3.012   1.739   4.330 -1.1056  0.1447 -0.0222
  111OSM   H17F11492   3.031   1.848   4.320 -1.3296  0.0407 -1.8650
  111OSM   H17G11493   2.913   1.728   4.380 -0.5527 -2.8730  0.5445
  111OSM   C18F11494   3.003   1.665   4.191 -0.0264  0.0171  0.1194
  111OSM   H18F11495   2.944   1.723   4.117  0.8684 -0.1642 -0.7555
  111OSM   H18G11496   2.970   1.559   4.195  2.1299 -0.9275 -2.8834
  111OSM   H18H11497   3.107   1.657   4.153  0.7265  4.8671  0.4766
  112OSM      N11498   5.358   6.038   7.073  0.1483 -0.2137 -0.2303
  112OSM    C1511499   5.218   6.087   7.096 -0.1587  1.0897  0.7846
  112OSM   H15A11500   5.140   6.015   7.075 -2.6685  2.3417  4.6955
  112OSM   H15B11501   5.183   6.164   7.029  0.4852 -0.2587 -1.1940
  112OSM   H15C11502   5.209   6.118   7.199  0.0968 -0.6221  1.3539
  112OSM    C1411503   5.447   6.150   7.129 -0.2536  0.6085 -0.3292
  112OSM   H14A11504   5.427   6.149   7.235  1.8169  0.5060  0.1088
  112OSM   H14B11505   5.425   6.247   7.086 -0.4307 -0.6838 -3.3950
  112OSM   H14C11506   5.552   6.124   7.122 -0.7272 -1.6528  0.2218
  112OSM    C1311507   5.377   5.912   7.158 -0.2475  0.2001  0.1835
  112OSM   H13A11508   5.324   5.844   7.094  2.8614 -0.5564 -1.7991
  112OSM   H13B11509   5.342   5.933   7.258  1.0659  2.3235  0.2576
  112OSM   H13C11510   5.481   5.884   7.170  0.2528  1.9151  0.2151
  112OSM    C1211511   5.388   6.003   6.924  0.4537  0.2574 -0.5042
  112OSM   H12A11512   5.496   5.992   6.923  0.6982  2.2694 -1.7313
  112OSM   H12B11513   5.357   6.092   6.872 -1.0578  1.5580  2.3821
  112OSM    C1111514   5.320   5.879   6.859 -0.7012  0.0444  0.0154
  112OSM   H11A11515   5.361   5.791   6.912 -0.4561  1.5854  2.5355
  112OSM   H11B11516   5.366   5.874   6.758 -0.5169  2.9739 -0.1336
  112OSM      P11517   5.100   5.967   6.739 -0.0703  0.1141  0.1326
  112OSM    O1311518   4.958   5.964   6.780 -0.3710  0.2273 -0.5617
  112OSM    O1411519   5.163   6.097   6.709  0.2273  0.1909 -0.1984
  112OSM    O1111520   5.121   5.878   6.608 -0.2155 -0.2972 -0.5431
  112OSM    O1211521   5.180   5.895   6.853 -0.0084 -0.4626 -1.4363
  112OSM    C1S11522   5.038   5.893   6.491 -1.1638 -0.3584 -0.1358
  112OSM    H1S11523   4.946   5.955   6.504 -1.6559 -0.4874 -2.6339
  112OSM    H1T11524   4.994   5.794   6.468  0.0653 -1.6469  2.6200
  112OSM     NF11525   5.029   5.937   6.246  0.7783 -0.5281  0.2460
  112OSM    HNF11526   5.021   5.856   6.188 -0.5335 -0.7888  0.7605
  112OSM    C2S11527   5.114   5.927   6.363  0.8528  0.1932  0.6977
  112OSM    H2S11528   5.166   6.025   6.374  0.7187  0.9540 -3.5859
  112OSM    C3S11529   5.224   5.813   6.354  0.3011  0.1092 -0.5163
  112OSM    H3S11530   5.179   5.713   6.369  0.5585 -0.2364 -1.8990
  112OSM     O311531   5.321   5.819   6.463 -0.5786 -0.0449  0.5026
  112OSM    HO311532   5.269   5.854   6.536 -1.2129  2.1362 -0.8932
  112OSM    C4S11533   5.291   5.818   6.217  0.3564 -0.1655  0.7405
  112OSM    H4S11534   5.224   5.766   6.147 -1.1218 -0.5810  2.3710
  112OSM    C5S11535   5.412   5.861   6.179  0.4861 -0.9447 -0.4637
  112OSM    H5S11536   5.473   5.900   6.262 -0.6439  1.6075 -0.7667
  112OSM    C6S11537   5.467   5.854   6.039 -0.0615 -0.3691 -0.1736
  112OSM    H6S11538   5.513   5.753   6.030 -2.0023 -1.2401 -1.1287
  112OSM    H6T11539   5.546   5.930   6.023  0.4507 -1.0067 -0.7105
  112OSM    C7S11540   5.363   5.879   5.927 -0.2397  0.8270 -0.3626
  112OSM    H7S11541   5.294   5.962   5.951  0.5591  1.0635  1.2140
  112OSM    H7T11542   5.305   5.784   5.922  1.0636 -0.0991  1.3573
  112OSM    C8S11543   5.412   5.892   5.781 -0.0315 -0.9827  0.5647
  112OSM    H8S11544   5.319   5.886   5.721 -0.1631 -2.8384  0.8675
  112OSM    H8T11545   5.485   5.809   5.764 -0.5942 -1.5345  0.7995
  112OSM    C9S11546   5.484   6.019   5.758  0.0250 -0.1862 -0.2165
  112OSM    H9S11547   5.585   6.009   5.802  0.6067  0.7928 -1.2999
  112OSM    H9T11548   5.439   6.107   5.809 -1.3499 -1.5385  0.9937
  112OSM   C10S11549   5.509   6.038   5.603  0.3146  0.1613  0.0108
  112OSM   H10S11550   5.577   6.126   5.599  1.2074 -0.5243 -0.1278
  112OSM   H10T11551   5.407   6.054   5.563  0.0825  0.8715  0.8515
  112OSM   C11S11552   5.572   5.922   5.521 -0.6435  0.0083 -0.7077
  112OSM   H11S11553   5.507   5.834   5.501 -0.8621 -0.8424  3.0141
  112OSM   H11T11554   5.651   5.877   5.585 -1.7217  1.9816  2.2391
  112OSM   C12S11555   5.621   5.979   5.391  0.1542 -0.0380 -0.3891
  112OSM   H12S11556   5.715   6.038   5.408 -2.1559  3.2052  2.7490
  112OSM   H12T11557   5.556   6.060   5.351  0.8427  2.3264  2.8236
  112OSM   C13S11558   5.653   5.881   5.276  0.0641  0.3807  0.2556
  112OSM   H13S11559   5.568   5.809   5.269 -0.6812  1.3517 -1.5584
  112OSM   H13T11560   5.737   5.813   5.300 -0.4822 -0.7403 -0.9069
  112OSM   C14S11561   5.672   5.942   5.136  0.4007  0.1411 -0.1364
  112OSM   H14S11562   5.769   5.996   5.128 -0.8953  2.3867 -1.7657
  112OSM   H14T11563   5.597   6.023   5.125  1.0521  0.6322 -1.0606
  112OSM   C15S11564   5.681   5.843   5.025 -0.1592 -0.2738  0.6968
  112OSM   H15S11565   5.593   5.780   5.005 -1.7687  2.2254 -0.6338
  112OSM   H15T11566   5.769   5.778   5.046  0.1600 -0.1422 -0.1691
  112OSM   C16S11567   5.708   5.914   4.889 -1.1907 -0.7996  0.1011
  112OSM   H16S11568   5.795   5.982   4.894 -0.7605 -1.2399 -1.0958
  112OSM   H16T11569   5.625   5.978   4.853 -0.3495 -0.4035 -1.2080
  112OSM   C17S11570   5.745   5.818   4.776  0.0205 -0.0431  0.0883
  112OSM   H17S11571   5.765   5.872   4.682 -0.2464  0.0942  0.1098
  112OSM   H17T11572   5.650   5.766   4.751  0.5781 -0.4165 -1.3600
  112OSM   C18S11573   5.855   5.722   4.801  0.2461  0.0179 -0.1071
  112OSM   H18S11574   5.951   5.777   4.796  0.6125 -0.6784 -1.3389
  112OSM   H18T11575   5.859   5.628   4.741  1.6612 -0.0484  0.0632
  112OSM   H18U11576   5.855   5.684   4.905 -1.4025  0.5401  0.1129
  112OSM    C1F11577   4.942   6.031   6.217  0.0378 -0.9154 -0.7357
  112OSM     OF11578   4.933   6.130   6.292 -0.5833  0.1438 -0.1183
  112OSM    C2F11579   4.857   6.010   6.103  0.3535 -0.7991  0.5585
  112OSM    H2F11580   4.761   5.964   6.134 -0.1974  0.0597  0.1582
  112OSM    H2G11581   4.905   5.928   6.045  1.4747  0.3878 -0.2768
  112OSM    C3F11582   4.836   6.128   6.014  0.6254 -0.2612  0.8642
  112OSM    H3F11583   4.928   6.177   5.975  1.1629 -1.2410  0.8568
  112OSM    H3G11584   4.794   6.208   6.078 -1.8458 -0.4183 -0.4646
  112OSM    C4F11585   4.737   6.111   5.895  0.4638 -0.1126 -0.4666
  112OSM    H4F11586   4.734   6.201   5.831 -0.4177  0.1397 -0.0887
  112OSM    H4G11587   4.632   6.101   5.931 -0.7432  1.1197 -3.3495
  112OSM    C5F11588   4.764   5.989   5.808 -0.3323  0.7803  0.5687
  112OSM    H5F11589   4.750   5.894   5.865  2.3746  1.0628  1.8893
  112OSM    H5G11590   4.865   6.009   5.765 -0.6406 -0.9995 -1.1670
  112OSM    C6F11591   4.672   5.981   5.689 -0.7021  0.8254 -0.9649
  112OSM    H6F11592   4.573   6.014   5.728 -0.7537 -0.1126 -0.2802
  112OSM    H6G11593   4.663   5.880   5.644  0.2857  1.2124 -2.0524
  112OSM    C7F11594   4.709   6.073   5.574  0.1402 -0.5062 -0.1358
  112OSM    H7F11595   4.810   6.037   5.543  0.0718 -0.7231 -0.1054
  112OSM    H7G11596   4.729   6.175   5.614  2.2307 -0.2071 -1.7577
  112OSM    C8F11597   4.617   6.074   5.450 -0.0798  0.3674 -1.1558
  112OSM    H8F11598   4.659   6.147   5.377  0.4654  1.4242  0.1706
  112OSM    H8G11599   4.516   6.119   5.466 -0.6509 -1.7107  2.1549
  112OSM    C9F11600   4.595   5.933   5.397  0.3848  0.6286 -0.0793
  112OSM    H9F11601   4.521   5.878   5.456 -1.6372  2.7287 -0.4878
  112OSM   C10F11602   4.669   5.868   5.301 -0.2844  0.8770  0.0486
  112OSM   H10F11603   4.642   5.763   5.285 -0.2403  0.8023  0.4526
  112OSM   C11F11604   4.788   5.930   5.233  0.2411  0.3106 -0.2436
  112OSM   H11F11605   4.873   5.863   5.258  0.7834  0.3002 -1.9468
  112OSM   H11G11606   4.815   6.029   5.276  0.7195  0.2506 -0.4011
  112OSM   C12F11607   4.750   5.949   5.084  0.5528  0.7964 -0.1238
  112OSM   H12F11608   4.753   5.844   5.048  0.7522  0.5818  0.5049
  112OSM   H12G11609   4.825   6.005   5.023 -0.5483  0.3256 -1.9880
  112OSM   C13F11610   4.624   6.034   5.055 -0.3942 -0.4766 -0.0221
  112OSM   H13F11611   4.646   6.132   5.103 -0.4032  0.0765 -1.1224
  112OSM   H13G11612   4.532   6.004   5.110 -0.5178  0.4662  0.3077
  112OSM   C14F11613   4.586   6.063   4.908 -0.0876  0.9138  0.0914
  112OSM   H14F11614   4.572   5.967   4.853  1.6605  0.4864  0.3321
  112OSM   H14G11615   4.677   6.104   4.860 -0.4837  1.7221  0.0213
  112OSM   C15F11616   4.456   6.140   4.882  0.0321  0.0457 -0.1955
  112OSM   H15F11617   4.466   6.245   4.917 -3.3474  0.9917 -1.6287
  112OSM   H15G11618   4.367   6.106   4.939  0.5196  0.0658  0.5962
  112OSM   C16F11619   4.424   6.137   4.733  0.0505 -0.1574  0.0111
  112OSM   H16F11620   4.401   6.031   4.710  0.9446 -0.7849  1.8306
  112OSM   H16G11621   4.515   6.173   4.681 -2.2037  0.9608 -3.5745
  112OSM   C17F11622   4.327   6.242   4.684 -0.6548  0.1525 -0.4029
  112OSM   H17F11623   4.363   6.341   4.720 -0.0077 -0.2067 -0.0607
  112OSM   H17G11624   4.222   6.214   4.709 -1.1081  0.5380 -1.7697
  112OSM   C18F11625   4.315   6.241   4.534  0.2094  0.2911 -0.1482
  112OSM   H18F11626   4.294   6.141   4.491 -0.1295  1.4948 -2.9656
  112OSM   H18G11627   4.408   6.281   4.488  1.2096  1.2356  2.4900
  112OSM   H18H11628   4.235   6.306   4.493  1.5533  0.5905 -2.4360
  113OSM      N11629   3.026   6.472   6.642  0.5446 -0.2747  0.3230
  113OSM    C1511630   2.948   6.589   6.595  0.1887  0.2442 -0.5863
  113OSM   H15A11631   3.015   6.669   6.568  0.0237  1.1945  1.6298
  113OSM   H15B11632   2.895   6.629   6.680  1.1239  0.0639  0.0849
  113OSM   H15C11633   2.878   6.562   6.517 -0.7078  0.6239  0.0657
  113OSM    C1411634   3.125   6.527   6.732 -0.3383  0.7817 -0.1807
  113OSM   H14A11635   3.067   6.582   6.805  1.7921  0.3799  1.9348
  113OSM   H14B11636   3.186   6.599   6.680  3.7675 -1.9150  0.3639
  113OSM   H14C11637   3.184   6.453   6.784 -1.5332 -0.9670 -1.2042
  113OSM    C1311638   2.933   6.376   6.710  0.1796 -0.0736  0.0622
  113OSM   H13A11639   2.874   6.426   6.785  1.5549  0.7008  0.6673
  113OSM   H13B11640   2.987   6.298   6.762 -0.5752 -1.0627 -0.5894
  113OSM   H13C11641   2.873   6.327   6.634 -0.5024  0.5053  0.2166
  113OSM    C1211642   3.094   6.408   6.526 -0.2938 -0.2677  0.0693
  113OSM   H12A11643   3.167   6.342   6.571 -0.4022 -0.8347 -0.5727
  113OSM   H12B11644   3.136   6.490   6.469 -2.2434  0.9039  0.2532
  113OSM    C1111645   3.006   6.334   6.420  0.8983  0.1647  0.3011
  113OSM   H11A11646   3.062   6.313   6.326 -0.4943 -0.1864 -0.4767
  113OSM   H11B11647   2.920   6.401   6.401 -0.9049 -2.2338 -0.5516
  113OSM      P11648   3.041   6.090   6.488 -0.6308 -0.0523 -0.5020
  113OSM    O1311649   3.115   6.115   6.621  0.6791  0.3434  0.0528
  113OSM    O1411650   2.949   5.973   6.473 -0.1499  0.4391  1.3223
  113OSM    O1111651   3.152   6.093   6.379 -0.2021 -0.5620  0.3500
  113OSM    O1211652   2.950   6.212   6.459 -0.4185  0.3173 -0.3718
  113OSM    C1S11653   3.113   6.034   6.255  0.6214 -0.4720  0.1739
  113OSM    H1S11654   3.020   6.077   6.210  1.5813  3.1611  1.3391
  113OSM    H1T11655   3.087   5.927   6.273 -3.9895  0.2691 -0.6881
  113OSM     NF11656   3.186   5.977   6.029  0.0652  0.4569  0.0227
  113OSM    HNF11657   3.214   5.890   5.990  1.6818  1.1415 -0.4193
  113OSM    C2S11658   3.233   6.033   6.158  0.0399  0.7396  0.6740
  113OSM    H2S11659   3.265   6.139   6.144  0.9241  0.6859  2.1215
  113OSM    C3S11660   3.361   5.964   6.226  0.2493 -0.1734 -1.0852
  113OSM    H3S11661   3.333   5.858   6.239 -1.2907  0.4742  1.9378
  113OSM     O311662   3.387   5.997   6.365 -0.3208  0.1173  0.2868
  113OSM    HO311663   3.307   6.029   6.407 -0.3509 -1.8769  1.9573
  113OSM    C4S11664   3.486   5.974   6.146  0.1195  0.2341 -0.2327
  113OSM    H4S11665   3.515   5.884   6.090  0.1291 -0.2761  0.5805
  113OSM    C5S11666   3.553   6.082   6.132 -0.4883 -0.1056  0.2906
  113OSM    H5S11667   3.521   6.170   6.190  0.2825  0.1921  0.2754
  113OSM    C6S11668   3.662   6.100   6.028  0.1226  0.0505  0.2465
  113OSM    H6S11669   3.756   6.125   6.082 -0.2050  0.5832  0.5825
  113OSM    H6T11670   3.638   6.191   5.969 -1.8404 -1.3216 -1.2112
  113OSM    C7S11671   3.686   5.995   5.921  0.0358 -0.4776 -0.0920
  113OSM    H7S11672   3.594   5.996   5.858 -0.3334  0.0104  0.4409
  113OSM    H7T11673   3.704   5.889   5.948 -1.8213 -1.1081 -1.1029
  113OSM    C8S11674   3.799   6.044   5.824 -0.3937  0.0912 -0.3161
  113OSM    H8S11675   3.891   6.046   5.887  0.6595  1.7291 -1.8041
  113OSM    H8T11676   3.790   6.142   5.773 -0.0401 -0.4367 -1.4166
  113OSM    C9S11677   3.828   5.947   5.711  0.3546 -0.7129  0.3767
  113OSM    H9S11678   3.828   5.848   5.762 -1.8299 -1.0095 -0.0859
  113OSM    H9T11679   3.928   5.964   5.665 -0.7656  1.5773 -1.4237
  113OSM   C10S11680   3.719   5.956   5.595 -0.8607 -0.9160  0.2033
  113OSM   H10S11681   3.698   6.061   5.566  1.9533 -0.9537 -2.5116
  113OSM   H10T11682   3.618   5.923   5.628 -2.1655  0.9531 -1.6573
  113OSM   C11S11683   3.746   5.888   5.458  0.4681 -0.2401  0.2939
  113OSM   H11S11684   3.765   5.780   5.474 -0.0910 -0.7975 -2.3001
  113OSM   H11T11685   3.836   5.944   5.425  1.8496 -1.6336  1.5533
  113OSM   C12S11686   3.630   5.914   5.358  0.1508 -0.9977  0.2469
  113OSM   H12S11687   3.609   6.023   5.351  0.2424 -1.0126 -0.3286
  113OSM   H12T11688   3.539   5.880   5.412 -1.0819 -0.3091 -1.3062
  113OSM   C13S11689   3.660   5.868   5.222 -0.6107  0.3643  0.5044
  113OSM   H13S11690   3.689   5.761   5.226  0.5129  0.6823  1.2523
  113OSM   H13T11691   3.744   5.934   5.190 -1.3698  0.4788 -1.4227
  113OSM   C14S11692   3.555   5.887   5.112  0.1685  0.0117  0.0749
  113OSM   H14S11693   3.527   5.995   5.113 -2.2933 -0.4997 -1.8950
  113OSM   H14T11694   3.465   5.827   5.135  1.6526 -1.7081  1.6928
  113OSM   C15S11695   3.600   5.852   4.968 -0.0263  0.5330 -0.0338
  113OSM   H15S11696   3.619   5.742   4.970  0.6795  0.4990 -3.1950
  113OSM   H15T11697   3.697   5.906   4.954 -0.0481  0.7867  0.7790
  113OSM   C16S11698   3.503   5.899   4.856  0.0200  0.3056  0.4243
  113OSM   H16S11699   3.499   6.010   4.852 -3.4318  0.3726  2.1682
  113OSM   H16T11700   3.396   5.873   4.872  0.2470 -1.6600 -0.7819
  113OSM   C17S11701   3.552   5.833   4.726  0.2421  0.4433 -0.6510
  113OSM   H17S11702   3.514   5.729   4.715  0.7596  0.3953 -2.3663
  113OSM   H17T11703   3.663   5.834   4.721  0.3614  3.0391  0.7381
  113OSM   C18S11704   3.497   5.913   4.604 -0.7347 -0.2266  0.0882
  113OSM   H18S11705   3.387   5.912   4.619 -0.3784 -0.5962  3.3503
  113OSM   H18T11706   3.512   5.863   4.506  2.6131 -0.3478  0.5660
  113OSM   H18U11707   3.538   6.016   4.606 -0.8192 -0.1986  0.5344
  113OSM    C1F11708   3.099   6.042   5.956 -0.2222 -0.2873 -0.7098
  113OSM     OF11709   3.079   6.160   5.985  0.1527  0.3238 -0.2535
  113OSM    C2F11710   3.026   5.975   5.851  0.2438 -0.2532  0.0685
  113OSM    H2F11711   2.940   5.917   5.892  1.4518 -0.0708  3.1105
  113OSM    H2G11712   3.097   5.923   5.783  0.2763  0.3189 -0.3423
  113OSM    C3F11713   2.962   6.083   5.765 -0.1389  0.1473  0.1572
  113OSM    H3F11714   3.042   6.152   5.730 -0.6547  0.2132 -0.9618
  113OSM    H3G11715   2.884   6.142   5.819 -0.7502 -0.4083 -0.0990
  113OSM    C4F11716   2.892   6.032   5.642 -1.2370  0.7879 -0.2979
  113OSM    H4F11717   2.816   5.957   5.674  0.6917 -0.3523  1.9085
  113OSM    H4G11718   2.969   5.991   5.574 -2.1138 -0.1797 -0.7455
  113OSM    C5F11719   2.817   6.139   5.567  0.4385 -0.2577 -0.6377
  113OSM    H5F11720   2.880   6.230   5.572 -0.1948  0.2867 -2.0807
  113OSM    H5G11721   2.719   6.159   5.614  0.1537 -1.1704 -0.8084
  113OSM    C6F11722   2.798   6.090   5.419 -0.3895 -0.1615  0.2092
  113OSM    H6F11723   2.792   5.980   5.418  0.7196 -0.2491  0.7422
  113OSM    H6G11724   2.890   6.112   5.360 -1.4961  0.0158 -1.5000
  113OSM    C7F11725   2.681   6.159   5.349 -0.3756 -0.1254 -0.5099
  113OSM    H7F11726   2.710   6.265   5.333 -0.5863 -0.0456 -0.3739
  113OSM    H7G11727   2.592   6.166   5.415  0.1236 -1.6929  0.3624
  113OSM    C8F11728   2.650   6.085   5.214 -0.0165 -1.0116 -0.6779
  113OSM    H8F11729   2.562   6.133   5.164  1.1599  0.9205 -0.9848
  113OSM    H8G11730   2.623   5.982   5.244 -2.1579 -0.1021  0.8058
  113OSM    C9F11731   2.768   6.118   5.122  0.3182 -0.4601  0.2514
  113OSM    H9F11732   2.854   6.058   5.154  1.0447  1.7788  3.0067
  113OSM   C10F11733   2.776   6.206   5.018 -0.2314  0.3638 -0.2941
  113OSM   H10F11734   2.875   6.206   4.970  0.7011 -0.7789  1.5017
  113OSM   C11F11735   2.675   6.304   4.961  0.7162  0.3204  0.5756
  113OSM   H11F11736   2.715   6.406   4.978  2.2855  0.0633 -1.2285
  113OSM   H11G11737   2.574   6.301   5.008 -0.3048  1.5385 -1.4065
  113OSM   C12F11738   2.667   6.293   4.810  0.2924  0.6870  0.5947
  113OSM   H12F11739   2.766   6.293   4.760  0.1198 -1.3131  0.1570
  113OSM   H12G11740   2.617   6.383   4.768  0.0857 -0.7891 -2.7040
  113OSM   C13F11741   2.598   6.164   4.775  0.2296  0.4871 -0.0348
  113OSM   H13F11742   2.503   6.154   4.832 -0.4462 -0.4232 -1.2678
  113OSM   H13G11743   2.659   6.077   4.805  0.1044  0.1215 -0.8079
  113OSM   C14F11744   2.559   6.155   4.625  0.8036 -0.5875  0.2640
  113OSM   H14F11745   2.648   6.165   4.559  3.5123  0.3805  3.7090
  113OSM   H14G11746   2.492   6.240   4.600  0.7870 -0.1015  1.8344
  113OSM   C15F11747   2.484   6.020   4.598 -0.9984  0.0672 -0.3108
  113OSM   H15F11748   2.396   6.021   4.666 -1.0558 -0.1582 -0.3798
  113OSM   H15G11749   2.550   5.938   4.634  0.0579  0.9943 -0.0992
  113OSM   C16F11750   2.442   5.993   4.453  0.7172  0.6481  0.1765
  113OSM   H16F11751   2.418   6.092   4.409 -0.0822 -0.0091 -0.9145
  113OSM   H16G11752   2.354   5.925   4.449  1.6484 -0.5656 -0.4779
  113OSM   C17F11753   2.540   5.931   4.357 -0.3046 -0.0344  0.4801
  113OSM   H17F11754   2.564   5.825   4.381  1.5744  0.6371  1.8462
  113OSM   H17G11755   2.635   5.989   4.363  0.4918 -0.8532 -2.4272
  113OSM   C18F11756   2.495   5.940   4.210 -0.4421  0.9042  0.1988
  113OSM   H18F11757   2.514   6.042   4.171  2.0528  0.7880  0.8929
  113OSM   H18G11758   2.391   5.903   4.196  0.0860 -0.6145  0.0800
  113OSM   H18H11759   2.570   5.881   4.153 -0.4193  1.3461 -0.2345
  114OSM      N11760   1.943   3.510   6.798 -0.4113 -0.4669  0.0309
  114OSM    C1511761   2.052   3.618   6.796 -0.5486 -0.5685 -0.2062
  114OSM   H15A11762   2.020   3.707   6.744  1.3552  0.3883  0.1589
  114OSM   H15B11763   2.149   3.585   6.760 -0.2499 -0.1801  0.2257
  114OSM   H15C11764   2.074   3.636   6.900  1.1899 -2.0760 -0.2522
  114OSM    C1411765   1.988   3.395   6.876 -0.4398 -0.2828 -0.1044
  114OSM   H14A11766   2.029   3.426   6.971  0.3221  1.6621 -1.0057
  114OSM   H14B11767   2.065   3.339   6.825 -0.9979 -0.6760 -0.5366
  114OSM   H14C11768   1.916   3.320   6.905  0.1725  0.8692  5.4178
  114OSM    C1311769   1.823   3.564   6.862 -0.3174 -0.2650 -0.7516
  114OSM   H13A11770   1.741   3.493   6.863 -0.7543  0.2329  0.2649
  114OSM   H13B11771   1.783   3.650   6.809  0.0275 -0.4409 -1.3093
  114OSM   H13C11772   1.830   3.584   6.968  0.0123  1.3599 -1.0563
  114OSM    C1211773   1.911   3.465   6.661  0.1416 -0.1217 -0.1859
  114OSM   H12A11774   1.831   3.392   6.669  0.1196 -0.4596 -2.6386
  114OSM   H12B11775   1.998   3.408   6.631  0.0190 -0.6770  0.4732
  114OSM    C1111776   1.893   3.580   6.557 -0.7954 -0.5234 -0.5509
  114OSM   H11A11777   1.878   3.524   6.462 -0.1514  2.0608 -2.2618
  114OSM   H11B11778   1.988   3.634   6.538  0.0396 -2.4101 -2.1306
  114OSM      P11779   1.794   3.820   6.540  0.1163  0.1924  0.1947
  114OSM    O1311780   1.661   3.885   6.565  0.2133  0.9397  0.4851
  114OSM    O1411781   1.915   3.882   6.606  0.0858 -0.0257  0.0455
  114OSM    O1111782   1.821   3.799   6.383 -0.6206 -0.6525 -0.3306
  114OSM    O1211783   1.780   3.664   6.577  0.1326 -0.1564  0.1211
  114OSM    C1S11784   1.732   3.736   6.299 -0.1925  0.0609 -0.7748
  114OSM    H1S11785   1.645   3.805   6.305 -0.1140  0.1755 -0.9352
  114OSM    H1T11786   1.699   3.635   6.328 -0.1916 -0.0725 -1.2286
  114OSM     NF11787   1.689   3.690   6.067 -0.1333 -0.1661  0.0642
  114OSM    HNF11788   1.707   3.596   6.039 -0.2451  0.2451 -1.4482
  114OSM    C2S11789   1.787   3.749   6.157  0.3767  0.2891  0.5153
  114OSM    H2S11790   1.803   3.857   6.137  1.4358  0.1578  0.5895
  114OSM    C3S11791   1.922   3.666   6.145  0.0580 -0.6936  0.5517
  114OSM    H3S11792   1.882   3.563   6.156 -3.2946  0.5378  0.9737
  114OSM     O311793   2.017   3.668   6.256  0.1245 -0.3877  0.3228
  114OSM    HO311794   1.975   3.720   6.325  3.1652  1.5344  0.9067
  114OSM    C4S11795   1.994   3.673   6.008  0.7199  0.2996 -0.6472
  114OSM    H4S11796   1.956   3.599   5.936 -3.0142  0.7125  0.7041
  114OSM    C5S11797   2.091   3.753   5.971 -0.3333  0.2251  0.3530
  114OSM    H5S11798   2.128   3.821   6.049  0.1429 -0.8127  1.0427
  114OSM    C6S11799   2.163   3.752   5.846  0.2693 -0.8239  0.3561
  114OSM    H6S11800   2.265   3.715   5.871  0.7328  0.1048 -0.1251
  114OSM    H6T11801   2.168   3.859   5.816 -2.0290 -0.9113 -0.4810
  114OSM    C7S11802   2.105   3.669   5.730  0.0980 -0.4030 -0.4830
  114OSM    H7S11803   2.010   3.717   5.698  0.8558  0.5835 -1.3024
  114OSM    H7T11804   2.080   3.569   5.772  0.8589 -0.6674 -0.6594
  114OSM    C8S11805   2.198   3.667   5.607 -0.3988 -0.1243 -0.1913
  114OSM    H8S11806   2.294   3.623   5.641 -0.9732  1.1508  3.4719
  114OSM    H8T11807   2.228   3.770   5.578 -3.6401  0.9994  0.0446
  114OSM    C9S11808   2.131   3.585   5.487 -0.7634  0.1988  0.5670
  114OSM    H9S11809   2.044   3.645   5.454  1.2469  2.1566 -1.5016
  114OSM    H9T11810   2.083   3.489   5.515 -0.2834 -0.5101 -0.9588
  114OSM   C10S11811   2.224   3.566   5.368  0.1667  0.2147 -0.0846
  114OSM   H10S11812   2.327   3.547   5.404 -0.2374 -0.6444  0.6542
  114OSM   H10T11813   2.233   3.661   5.311  0.4658  0.4063  0.2822
  114OSM   C11S11814   2.171   3.466   5.268 -0.2609  0.0701  0.2598
  114OSM   H11S11815   2.068   3.495   5.239 -0.2527  0.7243  0.8669
  114OSM   H11T11816   2.173   3.363   5.310 -1.0529 -0.7468 -1.5998
  114OSM   C12S11817   2.263   3.462   5.140 -0.2239  0.1717  0.4803
  114OSM   H12S11818   2.368   3.434   5.163 -0.7274 -0.8107  1.6889
  114OSM   H12T11819   2.274   3.560   5.089  1.1275  1.1694  2.5710
  114OSM   C13S11820   2.209   3.356   5.038  0.4408  0.0679 -0.0411
  114OSM   H13S11821   2.107   3.391   5.009  1.0642  3.7138  1.6134
  114OSM   H13T11822   2.202   3.261   5.096  1.8901  0.9444  1.6647
  114OSM   C14S11823   2.298   3.339   4.916  0.4253  0.1622  0.0649
  114OSM   H14S11824   2.256   3.256   4.854 -0.0928  0.7985 -0.4610
  114OSM   H14T11825   2.404   3.315   4.938  0.3083 -0.3417  0.0804
  114OSM   C15S11826   2.279   3.454   4.821 -0.0021  0.0272  0.3008
  114OSM   H15S11827   2.297   3.546   4.880 -0.1173 -0.9712  1.9635
  114OSM   H15T11828   2.174   3.447   4.784 -0.7007  0.1754  2.1268
  114OSM   C16S11829   2.358   3.444   4.689 -0.2681 -0.0780 -0.2302
  114OSM   H16S11830   2.345   3.344   4.642 -0.9127  1.1473 -2.8053
  114OSM   H16T11831   2.466   3.445   4.717  0.1973 -2.3906 -1.6246
  114OSM   C17S11832   2.329   3.549   4.585  0.1291  0.8757 -0.0525
  114OSM   H17S11833   2.344   3.646   4.636 -0.8119 -0.0067  1.9829
  114OSM   H17T11834   2.225   3.541   4.546  0.7789  0.1153 -1.7517
  114OSM   C18S11835   2.427   3.537   4.470  0.3117  0.7522 -0.2350
  114OSM   H18S11836   2.396   3.607   4.389 -1.1725  1.0228  0.5350
  114OSM   H18T11837   2.426   3.437   4.420  1.8173  0.7663 -0.3374
  114OSM   H18U11838   2.524   3.554   4.520  1.0080  1.4114 -1.7437
  114OSM    C1F11839   1.576   3.759   6.036 -0.0444 -0.8478 -0.3503
  114OSM     OF11840   1.527   3.854   6.102 -0.4703  0.4801  0.3706
  114OSM    C2F11841   1.512   3.706   5.909  0.5656 -0.0328  0.0011
  114OSM    H2F11842   1.458   3.614   5.938 -0.4360  0.2932 -0.7565
  114OSM    H2G11843   1.594   3.678   5.839  0.4211 -0.4606  0.0032
  114OSM    C3F11844   1.419   3.807   5.839 -0.4176  0.1322  0.3086
  114OSM    H3F11845   1.472   3.904   5.830 -0.2394  0.1296  1.1905
  114OSM    H3G11846   1.339   3.820   5.916  0.5154 -0.7863  1.4719
  114OSM    C4F11847   1.358   3.745   5.716 -0.3504  0.1168  0.1996
  114OSM    H4F11848   1.269   3.802   5.680  0.0689  0.7600  0.1509
  114OSM    H4G11849   1.319   3.644   5.741 -0.5904 -0.3667 -1.8967
  114OSM    C5F11850   1.454   3.746   5.595  0.0930  0.0959  0.3800
  114OSM    H5F11851   1.534   3.669   5.605  0.2816  0.2552  0.1357
  114OSM    H5G11852   1.496   3.848   5.584 -1.3576  0.4421 -3.4832
  114OSM    C6F11853   1.376   3.721   5.471 -0.1909 -0.0840  0.1378
  114OSM    H6F11854   1.320   3.815   5.450  0.2355 -0.0416 -0.9102
  114OSM    H6G11855   1.304   3.638   5.484 -1.1336  0.7426  0.3076
  114OSM    C7F11856   1.450   3.687   5.336  0.1635 -0.0011 -0.2560
  114OSM    H7F11857   1.472   3.578   5.341  0.4834  0.0843  0.2409
  114OSM    H7G11858   1.545   3.746   5.338  1.1394 -1.5174 -0.1770
  114OSM    C8F11859   1.371   3.725   5.210  0.4432  0.4724 -0.0814
  114OSM    H8F11860   1.271   3.677   5.214 -0.6299  2.5746 -0.1219
  114OSM    H8G11861   1.427   3.683   5.123 -0.9675  0.0271 -0.8036
  114OSM    C9F11862   1.357   3.872   5.204  0.4271  0.1934 -0.1374
  114OSM    H9F11863   1.264   3.896   5.258  1.3233  0.6425  1.2628
  114OSM   C10F11864   1.411   3.965   5.122 -0.1498  0.0240 -0.8795
  114OSM   H10F11865   1.398   4.072   5.146 -0.0471  0.0682 -1.0180
  114OSM   C11F11866   1.516   3.925   5.020 -0.5791 -0.0558  0.4321
  114OSM   H11F11867   1.574   3.837   5.053  0.1275  1.1325  2.5435
  114OSM   H11G11868   1.589   4.005   4.997  0.6473 -0.9647  1.0818
  114OSM   C12F11869   1.451   3.890   4.879  0.1771 -0.4846 -0.0529
  114OSM   H12F11870   1.367   3.958   4.855 -1.0727 -2.3213 -1.1389
  114OSM   H12G11871   1.399   3.792   4.874 -2.0935  0.7150 -2.3917
  114OSM   C13F11872   1.550   3.877   4.762  0.0279  0.4142 -0.0015
  114OSM   H13F11873   1.612   3.789   4.790 -2.2640 -0.9835  0.9597
  114OSM   H13G11874   1.614   3.966   4.743  0.7088  0.7219  3.2320
  114OSM   C14F11875   1.483   3.834   4.629 -0.0122  0.4444 -0.1065
  114OSM   H14F11876   1.409   3.912   4.602 -1.6275 -1.4352 -1.3930
  114OSM   H14G11877   1.410   3.752   4.648 -0.4478  0.4842 -1.5153
  114OSM   C15F11878   1.580   3.809   4.515  0.3934  0.1041 -0.5052
  114OSM   H15F11879   1.642   3.720   4.541  0.2450  0.4964  1.3140
  114OSM   H15G11880   1.646   3.899   4.515 -1.0558  1.2367  0.8355
  114OSM   C16F11881   1.516   3.773   4.378  0.4947  0.5966 -0.5813
  114OSM   H16F11882   1.436   3.843   4.348 -0.3692 -0.5670 -1.0619
  114OSM   H16G11883   1.467   3.675   4.395 -0.5645  1.3311  0.8399
  114OSM   C17F11884   1.624   3.765   4.260 -0.0100 -0.4138  0.5723
  114OSM   H17F11885   1.581   3.692   4.188 -0.1259 -0.3056  0.5296
  114OSM   H17G11886   1.707   3.716   4.315  0.2838 -1.1401 -0.4891
  114OSM   C18F11887   1.656   3.902   4.195  0.4252 -0.5852 -0.0138
  114OSM   H18F11888   1.690   3.985   4.260 -3.9986  1.7366 -0.3018
  114OSM   H18G11889   1.565   3.944   4.148  0.4210  0.6840  1.0750
  114OSM   H18H11890   1.734   3.903   4.115  0.2435  0.3888 -0.1980
  115OSM      N11891   0.070   6.561   6.605 -0.0418  0.0178  0.1730
  115OSM    C1511892  -0.042   6.628   6.536  0.1548  0.6750 -0.4772
  115OSM   H15A11893  -0.109   6.670   6.610 -0.4837 -1.7874  0.4256
  115OSM   H15B11894  -0.090   6.553   6.475  1.8715 -1.1870  0.3659
  115OSM   H15C11895  -0.010   6.702   6.465  0.7464 -0.5198 -1.4860
  115OSM    C1411896   0.136   6.652   6.707 -0.0546  0.3926 -0.1229
  115OSM   H14A11897   0.189   6.590   6.777 -3.1450 -0.4618  1.6359
  115OSM   H14B11898   0.062   6.715   6.754 -0.4698  0.3324 -0.6870
  115OSM   H14C11899   0.213   6.716   6.664  2.2816 -0.2263  2.7862
  115OSM    C1311900   0.017   6.448   6.688 -0.5926 -0.1218  0.3523
  115OSM   H13A11901  -0.021   6.366   6.628 -0.6558  0.4431 -0.3955
  115OSM   H13B11902  -0.070   6.475   6.747 -0.9260 -0.0520 -0.1650
  115OSM   H13C11903   0.096   6.426   6.758 -1.4504  0.3030  1.4870
  115OSM    C1211904   0.179   6.523   6.501 -0.7585 -0.5159  0.0432
  115OSM   H12A11905   0.270   6.510   6.558  1.3052  2.9528 -2.0904
  115OSM   H12B11906   0.201   6.606   6.436 -0.1444  0.4528  1.4456
  115OSM    C1111907   0.153   6.400   6.417 -0.4730 -1.2976 -0.0205
  115OSM   H11A11908   0.071   6.429   6.349  0.4381 -0.6969 -0.8856
  115OSM   H11B11909   0.121   6.313   6.478  0.4143  0.6893  3.5746
  115OSM      P11910   0.394   6.321   6.415  0.5696  0.0953  0.0326
  115OSM    O1311911   0.457   6.419   6.508  0.3153 -0.0406  0.3252
  115OSM    O1411912   0.354   6.187   6.470  0.2066 -0.7039 -0.6937
  115OSM    O1111913   0.501   6.283   6.305  0.3807 -0.6352 -0.5287
  115OSM    O1211914   0.271   6.381   6.334  0.3483 -0.1375  0.1885
  115OSM    C1S11915   0.489   6.232   6.173  0.3932 -0.9644  0.2553
  115OSM    H1S11916   0.391   6.183   6.159  0.5996 -1.3792  0.2426
  115OSM    H1T11917   0.565   6.152   6.156 -0.0107 -0.9356 -2.0055
  115OSM     NF11918   0.508   6.282   5.931  0.2983  0.3744  0.0652
  115OSM    HNF11919   0.596   6.284   5.884  0.0390 -0.5515 -0.4819
  115OSM    C2S11920   0.501   6.352   6.062 -0.1189  0.2259 -0.0243
  115OSM    H2S11921   0.407   6.410   6.065 -0.0159  0.4206  2.8497
  115OSM    C3S11922   0.631   6.440   6.092 -0.0684  0.0259 -0.0206
  115OSM    H3S11923   0.721   6.376   6.085  0.1802  0.1834  1.4723
  115OSM     O311924   0.647   6.492   6.222  0.0791 -0.3906  0.2905
  115OSM    HO311925   0.616   6.421   6.279  0.5214  0.0584  1.1092
  115OSM    C4S11926   0.640   6.547   5.981  0.4989 -0.0868  1.1614
  115OSM    H4S11927   0.712   6.523   5.902 -0.9006 -3.0678  0.6243
  115OSM    C5S11928   0.580   6.670   5.971 -0.2258 -0.2282 -0.2735
  115OSM    H5S11929   0.508   6.706   6.046  0.0092 -1.9152  0.8267
  115OSM    C6S11930   0.591   6.773   5.868  0.2670  0.0722  0.3398
  115OSM    H6S11931   0.653   6.855   5.909 -0.9800 -0.1410  2.8798
  115OSM    H6T11932   0.490   6.813   5.844 -0.2380 -1.8373 -0.9231
  115OSM    C7S11933   0.644   6.730   5.731 -0.1328  0.4068  0.5398
  115OSM    H7S11934   0.746   6.691   5.752  0.0014  0.0008 -0.7742
  115OSM    H7T11935   0.660   6.824   5.675  0.5687 -0.4128 -0.6634
  115OSM    C8S11936   0.557   6.640   5.646  0.4342  0.2233  0.1444
  115OSM    H8S11937   0.457   6.685   5.629  0.2827 -0.8767 -2.4135
  115OSM    H8T11938   0.546   6.547   5.705 -0.0877  1.4605  2.0759
  115OSM    C9S11939   0.621   6.616   5.503  0.1225 -0.3644 -0.0993
  115OSM    H9S11940   0.730   6.600   5.520  0.2023  1.3862  1.4582
  115OSM    H9T11941   0.613   6.710   5.445 -1.4593 -0.2194  0.3009
  115OSM   C10S11942   0.552   6.509   5.423  0.4022  0.7865 -0.3181
  115OSM   H10S11943   0.456   6.556   5.392  0.8501  2.5577  0.8702
  115OSM   H10T11944   0.539   6.420   5.488  0.0313  1.5853  0.7265
  115OSM   C11S11945   0.631   6.483   5.305 -0.1850 -0.0522 -0.8342
  115OSM   H11S11946   0.729   6.436   5.329 -0.3858  0.0522  0.2523
  115OSM   H11T11947   0.658   6.577   5.253 -0.7545 -0.0220 -1.0870
  115OSM   C12S11948   0.570   6.384   5.199 -0.3278  0.6574  0.2426
  115OSM   H12S11949   0.466   6.410   5.172  0.4341  0.9991 -2.6626
  115OSM   H12T11950   0.551   6.290   5.255 -1.4615  0.4169 -0.5330
  115OSM   C13S11951   0.648   6.364   5.073  0.1878  0.1362  0.1936
  115OSM   H13S11952   0.749   6.336   5.110  0.9143  1.2845 -0.8574
  115OSM   H13T11953   0.648   6.457   5.012  1.0640 -0.0816 -0.1539
  115OSM   C14S11954   0.593   6.248   4.997 -0.5772  0.1294 -0.7723
  115OSM   H14S11955   0.499   6.273   4.944  0.4786  1.3232 -2.1662
  115OSM   H14T11956   0.583   6.172   5.078  0.0796  1.3283  0.4819
  115OSM   C15S11957   0.699   6.192   4.901  0.1023  0.7416  0.0942
  115OSM   H15S11958   0.653   6.097   4.867  1.0707  0.7997 -1.4876
  115OSM   H15T11959   0.793   6.162   4.952  0.6204 -1.1898 -1.8292
  115OSM   C16S11960   0.722   6.271   4.775  0.3831  0.2929  0.4779
  115OSM   H16S11961   0.761   6.371   4.801  1.7436 -0.4117  1.2549
  115OSM   H16T11962   0.623   6.289   4.728  0.0945 -1.8457  0.1684
  115OSM   C17S11963   0.814   6.193   4.669  0.7591 -0.4281 -1.1359
  115OSM   H17S11964   0.775   6.092   4.642 -0.8044  0.1880 -1.2791
  115OSM   H17T11965   0.911   6.197   4.724 -1.3876 -2.4380  3.3517
  115OSM   C18S11966   0.829   6.271   4.535  0.3121 -0.3444  0.3538
  115OSM   H18S11967   0.920   6.242   4.479 -0.6562 -2.0765 -0.3747
  115OSM   H18T11968   0.843   6.381   4.542  2.3826 -0.3995 -1.7015
  115OSM   H18U11969   0.741   6.242   4.475  1.1176 -0.3127 -0.8836
  115OSM    C1F11970   0.409   6.222   5.874  0.1814  0.3652 -0.5172
  115OSM     OF11971   0.301   6.254   5.916  0.1000 -0.3921  0.2081
  115OSM    C2F11972   0.429   6.132   5.754  0.1380  0.7653 -0.4791
  115OSM    H2F11973   0.399   6.030   5.786  0.5667  0.5779 -0.6675
  115OSM    H2G11974   0.535   6.120   5.723 -0.6926 -0.2876 -3.2062
  115OSM    C3F11975   0.341   6.165   5.635  0.8398  0.1180 -0.1292
  115OSM    H3F11976   0.352   6.270   5.599  0.6116  0.0373 -0.4444
  115OSM    H3G11977   0.234   6.157   5.662  0.3158  0.9765 -1.7831
  115OSM    C4F11978   0.371   6.068   5.515  0.1541 -0.0231 -0.4155
  115OSM    H4F11979   0.301   6.087   5.431  1.4086  1.7546 -1.1086
  115OSM    H4G11980   0.350   5.966   5.553 -0.3190  0.4846  0.7360
  115OSM    C5F11981   0.516   6.077   5.458 -0.4911  0.5015  0.4229
  115OSM    H5F11982   0.592   6.039   5.529  0.0321 -0.1500 -0.4722
  115OSM    H5G11983   0.546   6.184   5.458  0.4651  0.2971 -2.0221
  115OSM    C6F11984   0.527   6.004   5.322 -0.4127  0.0565 -0.0452
  115OSM    H6F11985   0.626   6.032   5.280 -1.5967 -1.9897 -4.7960
  115OSM    H6G11986   0.448   6.048   5.259 -0.8012 -0.1857  0.2679
  115OSM    C7F11987   0.501   5.852   5.343 -0.0831 -0.4430 -0.4043
  115OSM    H7F11988   0.391   5.836   5.353 -0.0894  0.3016  1.0968
  115OSM    H7G11989   0.541   5.828   5.444  0.9337 -0.5825 -0.8358
  115OSM    C8F11990   0.569   5.762   5.235 -0.4282 -0.2496  0.1218
  115OSM    H8F11991   0.546   5.659   5.269 -1.6361 -0.4927 -1.3142
  115OSM    H8G11992   0.679   5.769   5.247 -0.4760 -1.8336  1.8878
  115OSM    C9F11993   0.504   5.786   5.094  0.1486 -0.2582  0.4151
  115OSM    H9F11994   0.396   5.810   5.096  0.1920 -0.1066  1.0983
  115OSM   C10F11995   0.566   5.767   4.976 -0.4700  0.1908  0.7343
  115OSM   H10F11996   0.508   5.768   4.883 -0.3686 -3.0473  0.5394
  115OSM   C11F11997   0.709   5.719   4.958 -0.1231  0.1197 -0.2460
  115OSM   H11F11998   0.709   5.626   4.897  0.0154  0.0266 -0.1048
  115OSM   H11G11999   0.753   5.690   5.056  0.1552  3.2682  0.6698
  115OSM   C12F12000   0.791   5.833   4.904 -0.0829 -0.2741 -0.1112
  115OSM   H12F12001   0.775   5.924   4.965 -0.0418  0.0614 -0.5970
  115OSM   H12G12002   0.761   5.868   4.803 -1.1096 -0.4001  0.1444
  115OSM   C13F12003   0.933   5.783   4.895 -0.2988  0.0754 -0.0381
  115OSM   H13F12004   0.939   5.694   4.828  2.5928  1.0869 -1.2725
  115OSM   H13G12005   0.965   5.765   5.000 -2.5919  1.7730  1.0388
  115OSM   C14F12006   1.021   5.892   4.833  0.3774 -0.3469 -0.4349
  115OSM   H14F12007   1.040   5.971   4.909 -0.2648  0.2600 -0.9008
  115OSM   H14G12008   0.963   5.936   4.749 -0.8010  0.7891  0.9158
  115OSM   C15F12009   1.146   5.833   4.783  0.2325  0.1278 -0.4217
  115OSM   H15F12010   1.123   5.761   4.701  0.3737 -1.3316  0.7752
  115OSM   H15G12011   1.192   5.782   4.871  1.8200  1.2668 -0.5488
  115OSM   C16F12012   1.254   5.936   4.737  0.0912  0.1618  0.4124
  115OSM   H16F12013   1.355   5.889   4.740 -0.1083 -0.2672  0.4659
  115OSM   H16G12014   1.272   6.013   4.815 -3.5887  1.6127  0.0065
  115OSM   C17F12015   1.223   6.006   4.604 -0.2185 -0.2918 -0.1734
  115OSM   H17F12016   1.128   6.063   4.616 -0.7839 -1.2633  0.0838
  115OSM   H17G12017   1.192   5.932   4.527  0.2571 -0.0561 -0.5896
  115OSM   C18F12018   1.337   6.092   4.542 -0.2803  0.2878 -0.1450
  115OSM   H18F12019   1.379   6.171   4.608  1.6815  0.5050 -1.5921
  115OSM   H18G12020   1.292   6.143   4.454  1.9465 -0.9251 -2.0894
  115OSM   H18H12021   1.426   6.035   4.508  1.3209  1.3480  2.0410
  116OSM      N12022   3.809   5.681   6.459 -0.0608 -0.0267 -0.7080
  116OSM    C1512023   3.706   5.786   6.494  0.2036 -0.4036  0.3974
  116OSM   H15A12024   3.613   5.760   6.444  1.2607  1.1667 -2.6157
  116OSM   H15B12025   3.744   5.880   6.456 -2.7358  0.8136  0.2085
  116OSM   H15C12026   3.689   5.794   6.600  2.2473  3.0364  0.6092
  116OSM    C1412027   3.757   5.544   6.498  0.2468 -0.2100  0.7538
  116OSM   H14A12028   3.742   5.536   6.604  0.6847 -2.8168  0.6879
  116OSM   H14B12029   3.839   5.476   6.480  3.0031  3.2017 -0.7865
  116OSM   H14C12030   3.677   5.518   6.430 -0.5645  3.7751 -0.0442
  116OSM    C1312031   3.836   5.684   6.311 -0.0694 -0.5346 -0.2700
  116OSM   H13A12032   3.762   5.650   6.239  1.9211 -2.1721 -1.6464
  116OSM   H13B12033   3.927   5.630   6.292  0.2597 -0.6350  1.4784
  116OSM   H13C12034   3.853   5.786   6.281 -1.0458  0.4524  2.2653
  116OSM    C1212035   3.939   5.721   6.533 -0.3627  1.0802  0.0540
  116OSM   H12A12036   3.922   5.705   6.638 -1.6081  2.3980  0.0844
  116OSM   H12B12037   3.960   5.824   6.512 -1.4398  0.9219 -2.1240
  116OSM    C1112038   4.062   5.637   6.488  0.6074 -0.3902 -0.0018
  116OSM   H11A12039   4.144   5.668   6.556  1.0016  0.7028 -0.9351
  116OSM   H11B12040   4.098   5.658   6.385  1.7046  0.8392  0.5866
  116OSM      P12041   4.144   5.394   6.471  0.2265  0.2786 -0.0442
  116OSM    O1312042   4.261   5.457   6.415 -0.3628  0.2885 -0.1353
  116OSM    O1412043   4.156   5.305   6.587 -0.5226 -0.0733 -0.6722
  116OSM    O1112044   4.074   5.309   6.353 -0.2412 -1.0677  0.1341
  116OSM    O1212045   4.035   5.500   6.513  0.0479 -0.4390  0.3594
  116OSM    C1S12046   3.948   5.337   6.289 -0.7620  0.4113  0.0422
  116OSM    H1S12047   3.921   5.445   6.287  0.1885  0.6526 -0.0176
  116OSM    H1T12048   3.872   5.275   6.342 -1.0282 -0.3178 -1.1444
  116OSM     NF12049   3.831   5.305   6.079  0.1629  0.3652 -0.3564
  116OSM    HNF12050   3.776   5.222   6.069 -2.9798  2.0307  1.4269
  116OSM    C2S12051   3.955   5.281   6.147 -0.1407  0.0177 -0.6035
  116OSM    H2S12052   4.026   5.344   6.089 -0.2922 -0.5625 -1.4515
  116OSM    C3S12053   4.014   5.138   6.149 -0.2859  0.4043  0.4845
  116OSM    H3S12054   3.955   5.073   6.216 -1.6812  0.7652 -0.3563
  116OSM     O312055   4.152   5.141   6.198 -0.0300 -0.7030  0.2826
  116OSM    HO312056   4.149   5.217   6.256 -2.0603 -0.2968 -0.2752
  116OSM    C4S12057   4.004   5.071   6.013  0.5273 -0.6283  0.3697
  116OSM    H4S12058   3.920   5.001   6.007  1.9039 -2.3854  0.5877
  116OSM    C5S12059   4.091   5.071   5.910 -0.6229 -0.7100 -0.6547
  116OSM    H5S12060   4.194   5.109   5.918 -0.5820 -1.1202  1.4975
  116OSM    C6S12061   4.066   4.998   5.783 -0.7136 -0.0282 -0.0053
  116OSM    H6S12062   4.045   4.890   5.800  0.1001 -0.2616 -0.4299
  116OSM    H6T12063   4.163   4.990   5.729 -0.4102  0.5064  0.4489
  116OSM    C7S12064   3.963   5.068   5.688  0.3480  0.3346  0.1654
  116OSM    H7S12065   4.003   5.168   5.661  0.2793  0.1162 -0.7715
  116OSM    H7T12066   3.863   5.085   5.734  0.5580 -0.5537  0.9769
  116OSM    C8S12067   3.964   4.988   5.557 -0.1771 -0.5045 -0.3367
  116OSM    H8S12068   3.919   4.889   5.579  2.0401 -1.3686  0.5971
  116OSM    H8T12069   4.066   4.965   5.519 -0.4604 -0.0970 -1.3918
  116OSM    C9S12070   3.888   5.068   5.449 -0.7903  0.2937 -0.4449
  116OSM    H9S12071   3.955   5.151   5.418  1.8337 -1.1862  0.9322
  116OSM    H9T12072   3.796   5.109   5.497  0.0925  1.4402  0.3286
  116OSM   C10S12073   3.869   4.984   5.322 -0.0747  0.2039  0.7836
  116OSM   H10S12074   3.816   4.887   5.338  2.0013 -1.0239  0.5713
  116OSM   H10T12075   3.970   4.952   5.287  0.6636  1.0765  2.0531
  116OSM   C11S12076   3.789   5.059   5.215 -0.4444 -0.2352  0.0476
  116OSM   H11S12077   3.834   5.158   5.194  2.2620 -0.7609  2.6568
  116OSM   H11T12078   3.690   5.074   5.263 -0.7105 -3.4275  0.7036
  116OSM   C12S12079   3.788   4.971   5.090  0.5980 -0.1127 -0.4180
  116OSM   H12S12080   3.739   4.878   5.127  1.9044 -0.0877  1.5042
  116OSM   H12T12081   3.896   4.949   5.075  0.5858 -1.6438  1.3852
  116OSM   C13S12082   3.725   5.040   4.973  0.1824  0.8402  0.0654
  116OSM   H13S12083   3.779   5.129   4.934  1.3922 -0.2085 -0.7469
  116OSM   H13T12084   3.627   5.080   5.005  0.4558  3.2985 -1.8838
  116OSM   C14S12085   3.695   4.942   4.857  0.4571  0.7991  0.0944
  116OSM   H14S12086   3.664   4.845   4.902 -1.7893  2.5786  2.7152
  116OSM   H14T12087   3.790   4.925   4.802  0.1433 -1.9046  0.2761
  116OSM   C15S12088   3.604   4.994   4.738  0.0459  0.5259 -0.3789
  116OSM   H15S12089   3.620   5.103   4.725 -1.4437  1.2806  3.0188
  116OSM   H15T12090   3.500   4.991   4.778  0.3718  0.4593  0.4753
  116OSM   C16S12091   3.600   4.914   4.610  1.0474  0.0756  0.6063
  116OSM   H16S12092   3.563   4.813   4.636 -1.0548  1.1207  1.9724
  116OSM   H16T12093   3.707   4.907   4.580  1.1416  0.1578  0.9203
  116OSM   C17S12094   3.514   4.976   4.496  0.2355 -0.3020 -0.5696
  116OSM   H17S12095   3.511   4.915   4.403 -1.9363  0.4443 -1.0522
  116OSM   H17T12096   3.569   5.069   4.473  0.3144 -0.6910 -2.0577
  116OSM   C18S12097   3.367   5.024   4.522 -0.8014  0.1058  0.0897
  116OSM   H18S12098   3.376   5.091   4.610 -0.1067 -0.7871  0.7289
  116OSM   H18T12099   3.309   4.934   4.552 -2.4170  1.5432  1.4391
  116OSM   H18U12100   3.315   5.074   4.438 -3.4853 -1.8706  0.4265
  116OSM    C1F12101   3.790   5.430   6.057 -0.7109  0.8997  0.1783
  116OSM     OF12102   3.871   5.517   6.058  0.5226  0.2356 -0.9725
  116OSM    C2F12103   3.647   5.447   6.035  0.3360  0.1080 -0.3584
  116OSM    H2F12104   3.595   5.511   6.109  0.0021  2.3222 -2.3578
  116OSM    H2G12105   3.604   5.346   6.047 -0.7882  0.7936  2.0713
  116OSM    C3F12106   3.613   5.494   5.888 -0.4246  0.0328  1.0809
  116OSM    H3F12107   3.655   5.596   5.871  0.6878 -0.6548 -0.5731
  116OSM    H3G12108   3.503   5.510   5.882 -0.5340  0.6740  3.8062
  116OSM    C4F12109   3.668   5.411   5.767 -0.4279 -0.0962  0.3214
  116OSM    H4F12110   3.591   5.330   5.761 -0.0677 -0.4776  0.7575
  116OSM    H4G12111   3.766   5.362   5.783 -0.4540  0.3581  2.1521
  116OSM    C5F12112   3.654   5.496   5.635 -0.0701  0.6286 -0.5558
  116OSM    H5F12113   3.744   5.562   5.630  0.5657 -0.3232 -3.3900
  116OSM    H5G12114   3.563   5.560   5.642 -0.8850 -0.4022 -1.3509
  116OSM    C6F12115   3.647   5.413   5.506 -0.0348  0.1744  0.3445
  116OSM    H6F12116   3.565   5.339   5.519 -1.8837  2.1892  0.7104
  116OSM    H6G12117   3.739   5.350   5.507 -1.0461 -1.3555  0.4952
  116OSM    C7F12118   3.629   5.495   5.374 -0.3730 -0.1748  0.2178
  116OSM    H7F12119   3.696   5.583   5.381  1.9649 -1.9591  2.1116
  116OSM    H7G12120   3.526   5.535   5.362 -0.1416 -0.1347 -2.0735
  116OSM    C8F12121   3.653   5.416   5.245  0.5893 -0.0960 -0.2290
  116OSM    H8F12122   3.753   5.368   5.248  0.7432  0.2303 -0.1161
  116OSM    H8G12123   3.663   5.489   5.162  0.3503  0.4080  0.1797
  116OSM    C9F12124   3.545   5.315   5.215  0.0891  0.1072 -0.1625
  116OSM    H9F12125   3.556   5.233   5.287 -1.7768  0.5435  0.6947
  116OSM   C10F12126   3.450   5.319   5.122  0.4879 -0.4398  0.5114
  116OSM   H10F12127   3.374   5.241   5.110 -0.9991  1.0615 -0.3362
  116OSM   C11F12128   3.421   5.426   5.014  0.6015 -0.7569 -0.4411
  116OSM   H11F12129   3.505   5.499   5.013  1.9651 -2.2251  1.0042
  116OSM   H11G12130   3.331   5.488   5.037  1.8581  0.7555  0.5954
  116OSM   C12F12131   3.385   5.375   4.875  0.2869 -0.2217  0.6403
  116OSM   H12F12132   3.278   5.345   4.873 -0.2479  1.5112 -1.4508
  116OSM   H12G12133   3.442   5.284   4.846  0.8430  0.4974 -0.6375
  116OSM   C13F12134   3.425   5.477   4.765  0.1941 -0.3116  1.1433
  116OSM   H13F12135   3.531   5.506   4.784  0.1416 -0.7895  2.2896
  116OSM   H13G12136   3.366   5.571   4.767 -1.4834 -1.1975 -1.3081
  116OSM   C14F12137   3.418   5.411   4.619 -0.6488  0.9363  0.3597
  116OSM   H14F12138   3.316   5.369   4.607 -0.6894  1.4140 -1.1393
  116OSM   H14G12139   3.482   5.321   4.624 -1.2473  0.4911  0.1578
  116OSM   C15F12140   3.445   5.520   4.516  0.4574  0.1196 -0.4103
  116OSM   H15F12141   3.539   5.578   4.528  0.2421  0.9380 -2.2495
  116OSM   H15G12142   3.365   5.596   4.533  1.3268  0.7519  1.0453
  116OSM   C16F12143   3.431   5.463   4.376  0.4977 -0.2735 -0.4679
  116OSM   H16F12144   3.338   5.403   4.375  0.7918 -0.7432 -1.6029
  116OSM   H16G12145   3.501   5.379   4.353 -0.5052 -1.0882 -0.6185
  116OSM   C17F12146   3.428   5.576   4.269  1.1506  0.9452 -0.0582
  116OSM   H17F12147   3.439   5.536   4.166 -4.1975 -2.3459  0.3001
  116OSM   H17G12148   3.512   5.647   4.289  0.2768  1.6116  1.3986
  116OSM   C18F12149   3.303   5.669   4.270  0.3050 -0.1518 -0.3371
  116OSM   H18F12150   3.308   5.745   4.190 -1.3294  0.4725  0.1045
  116OSM   H18G12151   3.293   5.723   4.366 -2.7443  0.0637 -0.6667
  116OSM   H18H12152   3.213   5.606   4.250  0.9267 -0.7874 -1.2356
  117OSM      N12153   2.221   1.318   6.312  0.9968 -0.0079 -0.2769
  117OSM    C1512154   2.136   1.205   6.359  0.0392  0.1024  0.0674
  117OSM   H15A12155   2.079   1.230   6.448 -1.0154 -0.1507 -0.5117
  117OSM   H15B12156   2.202   1.120   6.369 -0.4289 -0.3582 -0.6511
  117OSM   H15C12157   2.067   1.164   6.286 -2.0039  2.7522  0.3723
  117OSM    C1412158   2.324   1.347   6.419  0.3393 -0.1177  0.4183
  117OSM   H14A12159   2.375   1.437   6.388  1.6430 -1.3337 -1.1331
  117OSM   H14B12160   2.396   1.267   6.425  1.1599  0.3361 -2.0128
  117OSM   H14C12161   2.272   1.360   6.513  0.3526 -0.9166  0.5415
  117OSM    C1312162   2.287   1.267   6.186  0.0437 -0.4659  0.0059
  117OSM   H13A12163   2.366   1.328   6.144  0.0310 -1.0548 -0.8849
  117OSM   H13B12164   2.218   1.258   6.104  0.7488  0.6570 -0.7400
  117OSM   H13C12165   2.329   1.168   6.203 -0.0018 -0.8428 -1.8621
  117OSM    C1212166   2.137   1.435   6.274  0.6637 -0.2480 -0.0548
  117OSM   H12A12167   2.096   1.480   6.363 -1.6443 -0.9666 -0.6859
  117OSM   H12B12168   2.050   1.409   6.215 -0.3048 -1.5688  1.8548
  117OSM    C1112169   2.202   1.550   6.199 -0.4430  0.6452 -0.2169
  117OSM   H11A12170   2.130   1.634   6.195 -0.3657  0.7464  0.4993
  117OSM   H11B12171   2.218   1.521   6.092 -3.2573 -2.3986  0.0342
  117OSM      P12172   2.359   1.737   6.278 -0.0610  0.1193  0.1226
  117OSM    O1312173   2.300   1.797   6.395  0.3025  0.0173  0.0209
  117OSM    O1412174   2.504   1.747   6.253  0.2233 -0.6661 -0.4736
  117OSM    O1112175   2.286   1.802   6.154 -0.2211  0.0247  0.8416
  117OSM    O1212176   2.318   1.591   6.267 -0.4338  0.3878  0.2268
  117OSM    C1S12177   2.352   1.828   6.032  0.5076 -0.0596 -0.3829
  117OSM    H1S12178   2.442   1.762   6.025 -0.5704 -1.7637  0.9769
  117OSM    H1T12179   2.373   1.937   6.033 -0.7920  0.1968 -0.4278
  117OSM     NF12180   2.348   1.810   5.782  0.2069  0.4587  0.4329
  117OSM    HNF12181   2.348   1.892   5.725 -0.4967  1.0068  1.1974
  117OSM    C2S12182   2.262   1.804   5.900 -0.3092 -0.2564  0.5656
  117OSM    H2S12183   2.222   1.702   5.914 -0.4590 -0.9875 -3.9652
  117OSM    C3S12184   2.145   1.898   5.893 -0.1581 -0.0678  0.2392
  117OSM    H3S12185   2.172   2.005   5.892 -0.6749  0.0823 -1.5978
  117OSM     O312186   2.057   1.878   6.003  0.0747 -0.5940 -0.0084
  117OSM    HO312187   2.092   1.803   6.052 -0.1354 -0.8069 -0.1769
  117OSM    C4S12188   2.069   1.869   5.771  0.1012  0.6290 -0.2451
  117OSM    H4S12189   1.976   1.812   5.783  0.7509 -0.4050 -0.0165
  117OSM    C5S12190   2.078   1.931   5.650 -0.0668 -0.4123 -0.4307
  117OSM    H5S12191   2.144   2.018   5.638  0.8189 -0.7801  1.4163
  117OSM    C6S12192   1.984   1.909   5.533  0.0814  0.1607  0.3664
  117OSM    H6S12193   1.933   1.999   5.492  1.6568  0.9398  0.0436
  117OSM    H6T12194   1.929   1.813   5.547  0.3089 -0.1847 -1.0437
  117OSM    C7S12195   2.085   1.886   5.415  0.4862  0.0021 -0.7833
  117OSM    H7S12196   2.153   1.799   5.424  0.8327  0.3939  0.6163
  117OSM    H7T12197   2.149   1.977   5.403  0.2274 -0.1468 -4.4137
  117OSM    C8S12198   2.015   1.871   5.281 -0.0147 -0.7779  0.2983
  117OSM    H8S12199   1.926   1.934   5.299  1.3982  1.4164  0.0161
  117OSM    H8T12200   1.974   1.769   5.268 -0.2686 -0.6296 -0.0938
  117OSM    C9S12201   2.093   1.912   5.157 -0.6944 -0.5069 -0.0886
  117OSM    H9S12202   2.183   1.848   5.141  0.4278  0.6451  1.3092
  117OSM    H9T12203   2.143   2.009   5.176 -2.6364  0.5740 -0.2937
  117OSM   C10S12204   2.005   1.930   5.026 -0.2003  0.4854 -0.1118
  117OSM   H10S12205   1.923   2.005   5.034  0.8383  1.6914 -0.3751
  117OSM   H10T12206   1.972   1.826   5.008  0.4286  0.0283  1.2178
  117OSM   C11S12207   2.094   1.984   4.909 -0.1615  0.8292  0.0105
  117OSM   H11S12208   2.171   2.052   4.953  1.8851  0.3524 -2.5958
  117OSM   H11T12209   2.036   2.033   4.829  0.1549 -0.9812 -1.3917
  117OSM   C12S12210   2.172   1.878   4.836 -0.1646  0.8020 -0.4919
  117OSM   H12S12211   2.103   1.825   4.766 -0.2703 -0.4094  0.4815
  117OSM   H12T12212   2.226   1.812   4.907  1.9337  0.8854 -1.9199
  117OSM   C13S12213   2.286   1.930   4.740 -0.3547 -0.5194 -0.1192
  117OSM   H13S12214   2.318   1.844   4.676 -1.1258 -0.9795  0.1000
  117OSM   H13T12215   2.369   1.966   4.805  1.0665  0.5534 -2.3709
  117OSM   C14S12216   2.241   2.040   4.643  1.2690  0.0351  0.2406
  117OSM   H14S12217   2.313   2.056   4.561  0.0014  2.2811 -0.5127
  117OSM   H14T12218   2.204   2.136   4.684 -0.8356  0.8934 -3.2724
  117OSM   C15S12219   2.119   2.004   4.551 -0.6014  0.1950  0.3871
  117OSM   H15S12220   2.029   1.968   4.605 -1.5317 -1.6402 -2.2327
  117OSM   H15T12221   2.138   1.917   4.486 -2.5064 -1.6941  2.1847
  117OSM   C16S12222   2.074   2.128   4.472 -0.2038 -0.2075 -0.2399
  117OSM   H16S12223   2.156   2.139   4.398  0.4403 -0.8765  0.3465
  117OSM   H16T12224   2.088   2.216   4.538 -0.9593 -2.0404  2.5290
  117OSM   C17S12225   1.937   2.105   4.408 -0.2219 -0.7353 -0.3214
  117OSM   H17S12226   1.904   2.201   4.362 -3.5855 -0.4954  2.2360
  117OSM   H17T12227   1.853   2.077   4.476 -1.0282 -0.8581 -1.3320
  117OSM   C18S12228   1.938   2.004   4.292  0.2824 -0.0568 -0.0754
  117OSM   H18S12229   1.833   1.975   4.270 -0.3999  1.6550  0.7387
  117OSM   H18T12230   1.979   1.908   4.329 -1.6634 -0.4967  1.1082
  117OSM   H18U12231   1.992   2.052   4.208  0.5820 -0.4294 -0.0993
  117OSM    C1F12232   2.431   1.720   5.744 -0.6460  0.2085  0.3690
  117OSM     OF12233   2.443   1.619   5.813 -0.2912  0.3057  0.0432
  117OSM    C2F12234   2.512   1.743   5.611 -0.2030  0.0254 -0.0608
  117OSM    H2F12235   2.614   1.720   5.649  0.0040 -1.6920 -1.5271
  117OSM    H2G12236   2.495   1.846   5.572  1.1962 -0.2690 -1.5469
  117OSM    C3F12237   2.484   1.644   5.489  0.4698 -0.9293 -0.4563
  117OSM    H3F12238   2.381   1.657   5.449  0.2745  0.8738  0.5525
  117OSM    H3G12239   2.481   1.536   5.516  2.2626 -0.9757 -0.2738
  117OSM    C4F12240   2.601   1.660   5.383  0.2544  0.6487 -0.2772
  117OSM    H4F12241   2.695   1.612   5.417 -1.0489 -1.6690  0.2398
  117OSM    H4G12242   2.617   1.769   5.365  3.5495  0.4039  0.5153
  117OSM    C5F12243   2.569   1.607   5.247 -0.0779  0.3989  0.0330
  117OSM    H5F12244   2.485   1.672   5.213 -2.7590 -1.4004  2.7361
  117OSM    H5G12245   2.522   1.507   5.246  1.0382 -0.1385 -1.3384
  117OSM    C6F12246   2.679   1.617   5.141 -0.0138  0.5315 -0.1113
  117OSM    H6F12247   2.768   1.558   5.169  0.5289  0.0528 -2.5555
  117OSM    H6G12248   2.708   1.724   5.145 -3.2759  1.5044  1.2883
  117OSM    C7F12249   2.643   1.576   4.998  0.1238  0.2961 -0.4382
  117OSM    H7F12250   2.649   1.466   4.982  0.0296  0.2079  0.1267
  117OSM    H7G12251   2.727   1.613   4.936  1.1339  1.5047  1.5735
  117OSM    C8F12252   2.511   1.630   4.945  0.4691  0.0768  0.6658
  117OSM    H8F12253   2.494   1.736   4.975 -2.0351 -0.0220 -0.1700
  117OSM    H8G12254   2.427   1.575   4.992  0.8671 -0.6847  0.4875
  117OSM    C9F12255   2.500   1.608   4.797  0.1286  0.2438  0.5246
  117OSM    H9F12256   2.441   1.520   4.769 -0.2686  1.0574 -1.3689
  117OSM   C10F12257   2.557   1.681   4.696 -0.4394 -0.2201 -0.5600
  117OSM   H10F12258   2.529   1.649   4.594 -0.1596  1.6392 -1.2543
  117OSM   C11F12259   2.638   1.806   4.699 -0.9099  0.3954  0.6785
  117OSM   H11F12260   2.721   1.794   4.772  1.2871  1.7657 -1.4211
  117OSM   H11G12261   2.583   1.896   4.733  0.4442  1.3182  0.5119
  117OSM   C12F12262   2.700   1.828   4.557  0.3659 -1.2406  0.7758
  117OSM   H12F12263   2.778   1.753   4.532  0.5560 -1.0240  0.7134
  117OSM   H12G12264   2.767   1.917   4.560 -0.7751 -0.2736 -0.6916
  117OSM   C13F12265   2.610   1.846   4.429 -0.6005  0.2626  0.5066
  117OSM   H13F12266   2.577   1.952   4.437  3.2916  1.5836  1.1353
  117OSM   H13G12267   2.528   1.772   4.437  1.8008 -2.7747 -0.5779
  117OSM   C14F12268   2.679   1.810   4.293 -0.7329 -0.4484  0.1372
  117OSM   H14F12269   2.734   1.714   4.306 -0.5367 -0.4749 -0.7775
  117OSM   H14G12270   2.748   1.896   4.283  0.6120 -1.2453  2.0959
  117OSM   C15F12271   2.587   1.811   4.164  0.8976 -0.9823 -0.0221
  117OSM   H15F12272   2.662   1.794   4.084  2.5191 -0.6125  1.3629
  117OSM   H15G12273   2.536   1.909   4.159 -3.0563 -2.6502  2.5313
  117OSM   C16F12274   2.479   1.702   4.180 -0.3397  0.3649  0.0656
  117OSM   H16F12275   2.411   1.722   4.094  1.7361 -0.8662 -1.9928
  117OSM   H16G12276   2.431   1.729   4.276  2.3360  1.1790  1.2578
  117OSM   C17F12277   2.530   1.563   4.164 -0.3177  0.6085  0.6963
  117OSM   H17F12278   2.446   1.497   4.133 -3.0782  2.8742  2.8758
  117OSM   H17G12279   2.564   1.520   4.261  0.3735  3.2750  1.7132
  117OSM   C18F12280   2.629   1.535   4.053  0.4868 -0.5402 -0.6884
  117OSM   H18F12281   2.592   1.579   3.958 -0.4679  0.2367  0.0251
  117OSM   H18G12282   2.639   1.425   4.046  0.1709 -0.6491  0.3843
  117OSM   H18H12283   2.731   1.578   4.064 -0.5119  1.9458 -0.5458
  118OSM      N12284   3.098   0.686   6.837  0.3392 -0.2265  0.7710
  118OSM    C1512285   3.214   0.592   6.804  0.4584 -0.1003  0.1732
  118OSM   H15A12286   3.296   0.622   6.868  0.4569 -1.7956  1.0136
  118OSM   H15B12287   3.243   0.603   6.700 -2.2075 -1.6041 -0.8120
  118OSM   H15C12288   3.179   0.490   6.811  0.5323 -0.2088 -0.8244
  118OSM    C1412289   3.103   0.684   6.992 -0.1455  0.2355 -0.0020
  118OSM   H14A12290   3.191   0.738   7.023  0.1507  0.0401 -0.5121
  118OSM   H14B12291   3.096   0.580   7.021  0.8025  0.5537  1.5212
  118OSM   H14C12292   3.015   0.732   7.032 -0.0062  1.5918 -1.2645
  118OSM    C1312293   3.124   0.823   6.791  0.5154 -0.1358 -0.4297
  118OSM   H13A12294   3.041   0.890   6.805 -0.0591 -0.8611 -0.2776
  118OSM   H13B12295   3.139   0.815   6.685  0.9277 -1.7180 -0.2888
  118OSM   H13C12296   3.216   0.863   6.832  0.1847 -2.9421  3.7865
  118OSM    C1212297   2.970   0.641   6.782 -0.6410  0.0350 -0.4358
  118OSM   H12A12298   2.896   0.699   6.834  0.0235 -0.9104  1.6625
  118OSM   H12B12299   2.959   0.535   6.795  0.1029 -0.1898 -1.4670
  118OSM    C1112300   2.941   0.661   6.633  1.0880 -0.7709  0.3566
  118OSM   H11A12301   2.848   0.601   6.617  0.6305 -0.4208  1.5707
  118OSM   H11B12302   3.023   0.625   6.567  0.2060 -1.9852 -0.1133
  118OSM      P12303   2.787   0.866   6.618 -0.2006  0.4085 -0.1210
  118OSM    O1312304   2.717   0.817   6.736  0.0710 -0.0279 -0.1006
  118OSM    O1412305   2.805   1.013   6.608 -0.0481 -0.0332  0.4514
  118OSM    O1112306   2.709   0.830   6.493 -0.4114 -0.3162 -0.7028
  118OSM    O1212307   2.925   0.797   6.602  0.4967 -0.1068 -0.0929
  118OSM    C1S12308   2.765   0.832   6.364  0.0195 -0.7098  0.0972
  118OSM    H1S12309   2.850   0.760   6.361  0.0155 -0.7735  1.2504
  118OSM    H1T12310   2.793   0.936   6.338  0.6836 -1.0984 -0.7692
  118OSM     NF12311   2.740   0.783   6.127 -0.6171  0.0604  0.0551
  118OSM    HNF12312   2.723   0.866   6.074  0.9766  0.3858  0.0146
  118OSM    C2S12313   2.666   0.795   6.254  0.1996 -0.3601 -0.2452
  118OSM    H2S12314   2.624   0.693   6.270  1.0963 -1.0657 -2.1097
  118OSM    C3S12315   2.544   0.898   6.255  0.1980  0.0196 -0.1010
  118OSM    H3S12316   2.595   0.996   6.243  0.8896 -0.4043 -0.7769
  118OSM     O312317   2.470   0.893   6.376  0.0787 -0.7742 -0.1176
  118OSM    HO312318   2.527   0.836   6.428  1.4413  1.3857  0.8900
  118OSM    C4S12319   2.452   0.891   6.136  0.4031  0.3763  0.4422
  118OSM    H4S12320   2.490   0.952   6.052  0.8572  0.7595  0.9131
  118OSM    C5S12321   2.325   0.845   6.128 -0.0478  0.2374 -0.6339
  118OSM    H5S12322   2.289   0.796   6.220  0.2699  2.1634  0.5796
  118OSM    C6S12323   2.221   0.847   6.015 -0.5778 -0.3693 -0.2812
  118OSM    H6S12324   2.135   0.910   6.043  0.2551  1.1693 -1.0595
  118OSM    H6T12325   2.192   0.743   5.989 -0.8926 -0.3436 -0.0425
  118OSM    C7S12326   2.271   0.900   5.877 -0.3170  0.0401  0.1997
  118OSM    H7S12327   2.370   0.860   5.845 -0.6028 -0.7455  0.2738
  118OSM    H7T12328   2.278   1.009   5.896 -0.1202  0.4988 -2.2559
  118OSM    C8S12329   2.177   0.864   5.765  0.1745 -0.5344 -0.0251
  118OSM    H8S12330   2.087   0.922   5.796 -1.5516 -2.6645 -0.8124
  118OSM    H8T12331   2.147   0.758   5.757  0.2453 -0.4126 -3.2449
  118OSM    C9S12332   2.240   0.891   5.627 -0.0306 -0.5594  0.5457
  118OSM    H9S12333   2.327   0.823   5.615 -0.4040 -1.6044  3.1234
  118OSM    H9T12334   2.275   0.997   5.623 -0.9793 -0.0848  2.7834
  118OSM   C10S12335   2.132   0.865   5.517  0.7959 -0.1928 -0.2439
  118OSM   H10S12336   2.037   0.915   5.545  0.8931 -1.4873  2.7999
  118OSM   H10T12337   2.105   0.757   5.508  2.1789 -0.6116  0.4410
  118OSM   C11S12338   2.174   0.904   5.377 -0.6259 -0.6268  0.0890
  118OSM   H11S12339   2.275   0.864   5.352 -0.2330  0.3898 -0.0235
  118OSM   H11T12340   2.184   1.013   5.357  2.4414 -1.0272 -1.2913
  118OSM   C12S12341   2.066   0.859   5.281  0.8368 -0.4917  0.7314
  118OSM   H12S12342   1.979   0.928   5.287  0.9896 -0.3022  0.7832
  118OSM   H12T12343   2.038   0.752   5.294  3.9177 -1.5420 -0.2688
  118OSM   C13S12344   2.118   0.870   5.135  0.7660  0.1642  0.9565
  118OSM   H13S12345   2.202   0.800   5.119  1.1789  0.7902  0.2828
  118OSM   H13T12346   2.173   0.967   5.130 -1.9384  1.8109  0.4729
  118OSM   C14S12347   2.016   0.878   5.023  0.2159  0.7735 -0.7038
  118OSM   H14S12348   1.935   0.954   5.030 -0.5958 -0.2128  1.3817
  118OSM   H14T12349   1.958   0.784   5.027 -0.6472  1.3343  0.4248
  118OSM   C15S12350   2.089   0.887   4.889  0.2918 -0.4658 -0.3022
  118OSM   H15S12351   2.169   0.810   4.892  0.0447 -0.6977  0.8120
  118OSM   H15T12352   2.136   0.988   4.893  1.9100 -1.2050  0.1867
  118OSM   C16S12353   2.000   0.874   4.764  0.1925  0.3687 -0.4829
  118OSM   H16S12354   1.905   0.928   4.784  0.3836  1.2874 -1.8761
  118OSM   H16T12355   1.973   0.767   4.751 -0.1734  0.2661  1.0086
  118OSM   C17S12356   2.078   0.928   4.645 -0.1114  0.5524 -0.2770
  118OSM   H17S12357   2.183   0.893   4.646 -0.0819  0.6564  0.0697
  118OSM   H17T12358   2.081   1.037   4.665  0.3162  0.5212 -0.1584
  118OSM   C18S12359   2.013   0.897   4.506 -0.2669  0.0844 -0.5426
  118OSM   H18S12360   2.093   0.932   4.436 -0.0554  1.0361  0.1509
  118OSM   H18T12361   1.918   0.954   4.496 -0.5566 -0.6360 -2.2243
  118OSM   H18U12362   1.995   0.790   4.485 -1.3911  0.0938  0.2882
  118OSM    C1F12363   2.839   0.696   6.091 -0.7064 -0.3653 -0.1056
  118OSM     OF12364   2.873   0.602   6.166  0.6123  0.1213 -0.6100
  118OSM    C2F12365   2.911   0.734   5.969  0.4883 -0.5338  0.1115
  118OSM    H2F12366   2.928   0.844   5.970 -2.7058  0.0493  1.1351
  118OSM    H2G12367   2.845   0.717   5.882  0.7274  1.9509 -0.6571
  118OSM    C3F12368   3.056   0.679   5.942 -0.3511  0.4078  0.1902
  118OSM    H3F12369   3.052   0.570   5.960  2.5526  0.0777 -0.6503
  118OSM    H3G12370   3.123   0.712   6.024  3.7758 -3.0304 -1.4167
  118OSM    C4F12371   3.127   0.694   5.805  0.1783 -0.1814  0.2837
  118OSM    H4F12372   3.230   0.651   5.804  0.6842  0.9832 -0.6627
  118OSM    H4G12373   3.148   0.800   5.780  1.3510 -0.2644  0.8353
  118OSM    C5F12374   3.046   0.621   5.699  0.6126 -0.1437 -0.0705
  118OSM    H5F12375   2.967   0.694   5.673  1.3414  1.4001  1.7654
  118OSM    H5G12376   3.005   0.528   5.742 -0.5235  1.1297  1.7120
  118OSM    C6F12377   3.126   0.595   5.567 -0.2471  0.2164 -0.6025
  118OSM    H6F12378   3.207   0.524   5.595  0.1330  0.5361 -0.8697
  118OSM    H6G12379   3.169   0.688   5.525  2.9257  0.9590  3.6385
  118OSM    C7F12380   3.043   0.521   5.459 -1.3306  0.4206 -0.2866
  118OSM    H7F12381   2.956   0.588   5.442 -2.0171  0.1098  1.7444
  118OSM    H7G12382   3.001   0.426   5.499  0.5134  0.1393  1.0824
  118OSM    C8F12383   3.126   0.493   5.333 -0.1233 -0.6907 -0.1873
  118OSM    H8F12384   3.048   0.458   5.262 -1.9587  2.3697  0.1798
  118OSM    H8G12385   3.192   0.408   5.363 -1.7743 -0.8422  3.5145
  118OSM    C9F12386   3.212   0.600   5.266 -0.0177 -0.2835  0.1749
  118OSM    H9F12387   3.284   0.640   5.339  0.4738 -1.6146  0.4519
  118OSM   C10F12388   3.220   0.623   5.136  0.5184  0.1548 -0.2649
  118OSM   H10F12389   3.282   0.707   5.100 -1.9638  1.9492 -0.6534
  118OSM   C11F12390   3.126   0.568   5.021  0.0931 -0.4600  0.3350
  118OSM   H11F12391   3.021   0.557   5.056 -0.2469 -0.3717 -0.6376
  118OSM   H11G12392   3.160   0.470   4.983  1.8546  0.4106 -0.4471
  118OSM   C12F12393   3.108   0.674   4.916  0.4082  0.0707  0.8460
  118OSM   H12F12394   3.199   0.714   4.866 -0.1051 -0.1434 -0.2945
  118OSM   H12G12395   3.057   0.760   4.963  1.7477  0.3093  1.9271
  118OSM   C13F12396   3.022   0.617   4.799 -0.0844 -0.9369 -0.4486
  118OSM   H13F12397   2.929   0.575   4.843 -0.6593  0.1051 -0.6419
  118OSM   H13G12398   3.081   0.535   4.753  1.2366  0.0693 -0.6211
  118OSM   C14F12399   2.986   0.732   4.695 -0.4469  0.4896 -0.4817
  118OSM   H14F12400   3.072   0.785   4.650 -2.1967  2.5068 -1.6223
  118OSM   H14G12401   2.925   0.801   4.758 -0.3817 -1.1608  1.5137
  118OSM   C15F12402   2.898   0.683   4.586 -0.2903 -0.1311  1.0501
  118OSM   H15F12403   2.800   0.648   4.625 -0.0672  0.2875  2.0218
  118OSM   H15G12404   2.955   0.605   4.531 -0.7446  0.3424 -0.1170
  118OSM   C16F12405   2.881   0.802   4.487  0.5880  0.9406  0.6955
  118OSM   H16F12406   2.984   0.835   4.461  0.3330  1.2786  0.0869
  118OSM   H16G12407   2.829   0.894   4.524  0.9833  1.5095 -0.1259
  118OSM   C17F12408   2.808   0.743   4.359 -0.1016  0.9391 -0.7541
  118OSM   H17F12409   2.872   0.655   4.336  0.4126  0.5252  1.9204
  118OSM   H17G12410   2.819   0.814   4.274 -0.2394 -0.0225 -1.6012
  118OSM   C18F12411   2.662   0.707   4.367 -0.5021 -0.5040  0.1859
  118OSM   H18F12412   2.616   0.805   4.391 -0.4296 -0.4431  0.0740
  118OSM   H18G12413   2.657   0.650   4.462  1.9712  0.9468  1.2740
  118OSM   H18H12414   2.612   0.665   4.277 -0.5130  0.1137 -0.1006
  119OSM      N12415   5.552   3.749   6.866 -0.0016  0.1278  0.0715
  119OSM    C1512416   5.676   3.792   6.942  0.1955 -0.1534  0.7293
  119OSM   H15A12417   5.712   3.887   6.906  0.3069 -0.4219  0.1208
  119OSM   H15B12418   5.751   3.717   6.918  0.9788  0.9336 -0.3239
  119OSM   H15C12419   5.666   3.777   7.049  1.9892 -2.8083  0.6398
  119OSM    C1412420   5.547   3.604   6.867  0.0340 -0.0041 -0.1918
  119OSM   H14A12421   5.538   3.573   6.970  0.0562 -2.9869 -1.0093
  119OSM   H14B12422   5.636   3.564   6.820  0.5707  0.3722  0.4843
  119OSM   H14C12423   5.456   3.570   6.820 -1.4473  0.2139  2.3220
  119OSM    C1312424   5.428   3.802   6.922 -0.0257 -0.4144 -0.6338
  119OSM   H13A12425   5.420   3.759   7.020  1.4883 -1.1368 -0.7987
  119OSM   H13B12426   5.344   3.765   6.865 -1.1631  1.8714 -0.5819
  119OSM   H13C12427   5.410   3.908   6.911  0.2785 -0.5437 -2.8784
  119OSM    C1212428   5.559   3.797   6.720  0.4354 -0.7116  0.1214
  119OSM   H12A12429   5.660   3.784   6.685  1.8232  1.2104  2.9628
  119OSM   H12B12430   5.553   3.905   6.719  0.1334 -0.7181  0.6590
  119OSM    C1112431   5.445   3.745   6.636  1.0454 -0.4390  0.4337
  119OSM   H11A12432   5.439   3.638   6.608 -3.2374 -0.2452 -0.1229
  119OSM   H11B12433   5.461   3.772   6.529 -2.1605 -0.1102 -0.0681
  119OSM      P12434   5.288   3.953   6.640 -0.0776  0.3238  0.7330
  119OSM    O1312435   5.147   3.998   6.666 -0.0786  0.4460 -1.0617
  119OSM    O1412436   5.387   4.035   6.706 -0.1254  0.3686  0.0268
  119OSM    O1112437   5.329   3.963   6.490 -0.3223 -0.2146  0.0723
  119OSM    O1212438   5.318   3.793   6.672 -0.1054 -0.5373  0.0630
  119OSM    C1S12439   5.251   3.894   6.389 -0.6869 -0.3318 -0.6955
  119OSM    H1S12440   5.142   3.908   6.402 -0.4155  1.2050  0.1050
  119OSM    H1T12441   5.265   3.784   6.387 -1.1686 -0.4398  0.9669
  119OSM     NF12442   5.173   3.908   6.144  0.5938 -0.0104  1.1522
  119OSM    HNF12443   5.170   3.821   6.096  0.2829  1.1903 -1.1554
  119OSM    C2S12444   5.281   3.943   6.242  0.2948 -0.6956 -0.6701
  119OSM    H2S12445   5.294   4.053   6.245  2.0697 -0.8706 -0.6984
  119OSM    C3S12446   5.421   3.890   6.209 -0.3859  0.5063 -0.5094
  119OSM    H3S12447   5.407   3.780   6.214 -1.8626  0.7206  1.4175
  119OSM     O312448   5.536   3.935   6.285  0.0846  0.3570  0.7655
  119OSM    HO312449   5.494   3.994   6.349  0.4013 -0.3731  1.6709
  119OSM    C4S12450   5.452   3.919   6.062  0.2509 -0.3252 -0.0685
  119OSM    H4S12451   5.475   4.026   6.050 -0.5246  0.0098  1.2513
  119OSM    C5S12452   5.449   3.839   5.954 -0.0116  0.0498  0.1212
  119OSM    H5S12453   5.456   3.731   5.975  2.6931 -0.1001 -1.1271
  119OSM    C6S12454   5.481   3.885   5.815 -0.2770 -0.1410  0.4725
  119OSM    H6S12455   5.389   3.881   5.752  0.2431  2.6546 -0.5993
  119OSM    H6T12456   5.544   3.803   5.774 -0.2888 -0.4719  1.1084
  119OSM    C7S12457   5.542   4.027   5.800  0.4347 -0.1134  0.3457
  119OSM    H7S12458   5.642   4.023   5.850  1.9600 -1.0304 -2.5096
  119OSM    H7T12459   5.484   4.110   5.845 -1.4884 -0.1356 -1.9603
  119OSM    C8S12460   5.576   4.072   5.658 -0.4846 -0.1089  0.6175
  119OSM    H8S12461   5.637   3.998   5.603 -1.4303 -1.4481  1.3227
  119OSM    H8T12462   5.640   4.163   5.654  0.6436 -0.9266 -1.6577
  119OSM    C9S12463   5.452   4.076   5.567 -0.4127 -0.0835 -0.3247
  119OSM    H9S12464   5.381   4.147   5.614 -0.1634  0.1998 -0.3757
  119OSM    H9T12465   5.399   3.980   5.546  0.0942 -0.8698  1.6638
  119OSM   C10S12466   5.483   4.152   5.433  0.6712 -0.5391  0.4289
  119OSM   H10S12467   5.533   4.250   5.443 -0.5149  0.4940 -2.6466
  119OSM   H10T12468   5.380   4.166   5.394  0.5294 -0.3609  0.8581
  119OSM   C11S12469   5.569   4.068   5.336 -0.7142  0.1630 -0.4566
  119OSM   H11S12470   5.520   3.969   5.321  0.3333 -0.5285  0.4316
  119OSM   H11T12471   5.659   4.042   5.397 -0.3865  1.0614 -0.5419
  119OSM   C12S12472   5.605   4.143   5.216 -0.4136 -0.5728 -0.0635
  119OSM   H12S12473   5.695   4.204   5.240  0.7238 -2.0402 -0.4948
  119OSM   H12T12474   5.521   4.210   5.185 -0.8393 -0.1659  1.8413
  119OSM   C13S12475   5.636   4.059   5.097 -0.0797  0.2843  0.4012
  119OSM   H13S12476   5.562   3.976   5.097  2.2291 -2.0014 -1.7319
  119OSM   H13T12477   5.738   4.015   5.106  0.2877  0.5521 -1.7959
  119OSM   C14S12478   5.608   4.132   4.971  0.4329 -0.9110 -0.4936
  119OSM   H14S12479   5.663   4.228   4.961 -0.0691 -0.5215  0.4592
  119OSM   H14T12480   5.498   4.148   4.970  0.0714 -2.9978 -1.1781
  119OSM   C15S12481   5.646   4.047   4.855 -0.0617 -0.6922  1.1318
  119OSM   H15S12482   5.584   3.955   4.860 -2.6300  0.7157 -1.5111
  119OSM   H15T12483   5.751   4.017   4.875  1.3783  3.6890  1.1463
  119OSM   C16S12484   5.612   4.106   4.716 -0.1895 -0.2614  0.4535
  119OSM   H16S12485   5.691   4.179   4.689  0.3189  0.0790  2.7064
  119OSM   H16T12486   5.515   4.160   4.728 -1.1555 -1.3545 -1.8959
  119OSM   C17S12487   5.595   4.010   4.596  0.2254  0.1890 -0.2731
  119OSM   H17S12488   5.522   3.932   4.625  0.0697  0.3900 -0.1255
  119OSM   H17T12489   5.694   3.964   4.573  0.5931  0.9290 -0.1989
  119OSM   C18S12490   5.534   4.068   4.466 -0.0484 -0.3198 -0.4759
  119OSM   H18S12491   5.579   4.167   4.441  1.0624 -0.4770  0.8032
  119OSM   H18T12492   5.428   4.093   4.485  0.6469  1.9551  0.8740
  119OSM   H18U12493   5.545   3.998   4.381 -1.9599  0.9947 -1.8804
  119OSM    C1F12494   5.054   3.969   6.147 -1.4123 -0.3138  0.3310
  119OSM     OF12495   5.043   4.066   6.217 -0.7091  0.3890 -0.1301
  119OSM    C2F12496   4.943   3.897   6.073 -0.3010  0.5098  0.1181
  119OSM    H2F12497   4.861   3.883   6.146  0.0848  0.8275  0.6138
  119OSM    H2G12498   4.982   3.801   6.033  1.1182  1.0794  0.0591
  119OSM    C3F12499   4.910   3.970   5.941 -0.0531 -0.4068 -0.0080
  119OSM    H3F12500   4.901   4.079   5.957  0.6756 -0.5669  1.6428
  119OSM    H3G12501   4.811   3.934   5.905 -1.4606  2.3211  0.8805
  119OSM    C4F12502   5.009   3.943   5.834 -0.3516  0.4927  0.8177
  119OSM    H4F12503   5.054   3.842   5.845  1.0204  1.2146  2.2557
  119OSM    H4G12504   5.097   4.011   5.835  2.9437 -3.2493 -1.2789
  119OSM    C5F12505   4.948   3.955   5.692 -0.6966 -0.3913  0.0062
  119OSM    H5F12506   4.907   4.057   5.674 -3.4915 -1.3335  0.4779
  119OSM    H5G12507   4.865   3.882   5.685  0.1799 -1.3142 -1.3879
  119OSM    C6F12508   5.052   3.938   5.578 -0.5215 -0.0567  0.2176
  119OSM    H6F12509   5.080   3.833   5.599 -0.9303  0.4564  4.2179
  119OSM    H6G12510   5.133   4.014   5.592  0.8053 -0.4620 -3.9335
  119OSM    C7F12511   4.995   3.965   5.439  0.8422  0.9083  0.4977
  119OSM    H7F12512   4.948   4.065   5.452 -0.7551  0.5848 -2.1579
  119OSM    H7G12513   4.918   3.890   5.414  1.1980  0.9451 -0.7739
  119OSM    C8F12514   5.095   3.966   5.323 -0.6151 -0.6104  0.3556
  119OSM    H8F12515   5.161   3.877   5.332  0.3754  0.0513 -0.1325
  119OSM    H8G12516   5.171   4.047   5.333  0.5570 -1.4469 -1.3092
  119OSM    C9F12517   5.030   3.983   5.189 -0.8239 -0.7981  0.7246
  119OSM    H9F12518   4.944   4.051   5.182  0.5761  0.9004 -0.7342
  119OSM   C10F12519   5.073   3.925   5.080 -0.3153  0.3334 -0.4434
  119OSM   H10F12520   5.007   3.936   4.993 -1.5104  0.2839  0.4454
  119OSM   C11F12521   5.187   3.821   5.057 -0.0818 -0.0953 -0.4136
  119OSM   H11F12522   5.137   3.745   4.994  0.2416 -0.2746 -0.4533
  119OSM   H11G12523   5.225   3.782   5.153  1.0674 -0.6266 -1.0705
  119OSM   C12F12524   5.313   3.867   4.981  0.0179  0.1906  0.0598
  119OSM   H12F12525   5.402   3.816   5.024  1.3729  2.3600  0.0109
  119OSM   H12G12526   5.325   3.974   5.010  0.1989  0.7203 -1.8655
  119OSM   C13F12527   5.289   3.859   4.834  0.3480  0.4244  0.5648
  119OSM   H13F12528   5.366   3.919   4.780 -0.2764 -0.1895 -1.0937
  119OSM   H13G12529   5.188   3.888   4.800  0.4982 -1.7542 -2.1284
  119OSM   C14F12530   5.315   3.714   4.775 -0.5016  0.5198 -0.1066
  119OSM   H14F12531   5.253   3.641   4.832 -0.2974 -0.2707 -0.8676
  119OSM   H14G12532   5.423   3.694   4.793 -0.2916  1.1684 -0.6102
  119OSM   C15F12533   5.286   3.697   4.626  0.3085 -0.7301  0.0666
  119OSM   H15F12534   5.321   3.596   4.594 -2.2967 -1.4698 -0.6831
  119OSM   H15G12535   5.352   3.776   4.585 -0.2347 -0.8026 -0.9713
  119OSM   C16F12536   5.139   3.721   4.599  0.3232 -0.5450  0.5170
  119OSM   H16F12537   5.102   3.821   4.630  1.3103  0.5114 -1.5355
  119OSM   H16G12538   5.080   3.641   4.647 -0.8354 -0.8020 -1.2529
  119OSM   C17F12539   5.103   3.709   4.450 -0.3392  0.0094  0.5217
  119OSM   H17F12540   4.994   3.687   4.444 -0.5299  0.5826  1.4563
  119OSM   H17G12541   5.158   3.620   4.413 -0.2574 -1.2958  3.4753
  119OSM   C18F12542   5.143   3.827   4.367 -1.6662  0.0856 -0.2917
  119OSM   H18F12543   5.084   3.919   4.384 -1.8855  0.3021 -2.0391
  119OSM   H18G12544   5.131   3.798   4.260  1.1520 -1.3667 -0.3163
  119OSM   H18H12545   5.248   3.858   4.390 -1.5301 -0.1478 -0.5832
  120OSM      N12546   2.103   2.184   6.203  0.6398 -0.2489 -0.0795
  120OSM    C1512547   2.173   2.080   6.271  0.1076  0.3280 -0.8292
  120OSM   H15A12548   2.278   2.102   6.283 -0.1071  0.1548  1.9524
  120OSM   H15B12549   2.155   1.987   6.220 -2.6093  1.8705 -3.0167
  120OSM   H15C12550   2.135   2.067   6.371 -0.0598 -1.3341 -1.0908
  120OSM    C1412551   2.103   2.307   6.293 -0.1705  0.3694 -0.0099
  120OSM   H14A12552   2.055   2.391   6.244 -3.7349 -2.3117 -1.5838
  120OSM   H14B12553   2.204   2.338   6.316 -0.1841 -0.5768  1.5029
  120OSM   H14C12554   2.053   2.281   6.386 -0.1474 -0.8413 -0.3139
  120OSM    C1312555   2.170   2.221   6.076 -0.3477 -0.1753 -0.8321
  120OSM   H13A12556   2.267   2.253   6.111 -0.8464 -2.4516  3.2220
  120OSM   H13B12557   2.130   2.306   6.023  1.4187  0.1606 -1.7016
  120OSM   H13C12558   2.186   2.133   6.015  0.4226 -0.7146  0.1117
  120OSM    C1212559   1.955   2.143   6.168 -0.0628 -0.1045  0.5615
  120OSM   H12A12560   1.955   2.062   6.097 -1.4394  0.0685  0.3256
  120OSM   H12B12561   1.912   2.225   6.112  1.1671 -1.2082 -2.1268
  120OSM    C1112562   1.857   2.116   6.286 -0.1664 -0.0266 -1.1270
  120OSM   H11A12563   1.907   2.049   6.360 -1.3312  0.5338  0.2267
  120OSM   H11B12564   1.765   2.064   6.251 -1.7549  2.7071 -1.2553
  120OSM      P12565   1.714   2.242   6.469  0.2780  0.1734 -0.2974
  120OSM    O1312566   1.771   2.145   6.564  0.3726  0.2538 -0.1021
  120OSM    O1412567   1.712   2.380   6.517  0.1940  0.3250  0.7129
  120OSM    O1112568   1.570   2.212   6.434  0.7208  1.3319  0.3068
  120OSM    O1212569   1.799   2.239   6.336 -0.5708 -0.1403  0.4743
  120OSM    C1S12570   1.485   2.287   6.346 -1.3189  0.1425 -0.5593
  120OSM    H1S12571   1.520   2.392   6.334  1.8600 -0.8948 -1.2257
  120OSM    H1T12572   1.387   2.293   6.398  0.4672 -0.4920  3.1889
  120OSM     NF12573   1.429   2.302   6.097  0.4243  0.7991  0.3003
  120OSM    HNF12574   1.338   2.282   6.063  0.4256 -1.3535  1.4152
  120OSM    C2S12575   1.478   2.212   6.206 -0.1985 -0.6444  0.6436
  120OSM    H2S12576   1.580   2.192   6.167 -0.4841 -0.1158 -0.4130
  120OSM    C3S12577   1.401   2.076   6.214 -1.0175 -0.0835 -0.1920
  120OSM    H3S12578   1.296   2.111   6.227 -0.0792  2.2691  1.7559
  120OSM     O312579   1.446   2.001   6.328  0.1882  0.3368  0.1669
  120OSM    HO312580   1.511   2.059   6.369  1.6485 -0.3371 -1.1026
  120OSM    C4S12581   1.420   1.993   6.090  0.3160  0.1142 -0.0451
  120OSM    H4S12582   1.361   2.022   6.002 -1.1239 -1.5207  0.3240
  120OSM    C5S12583   1.506   1.893   6.065  0.1820  0.7759  0.4218
  120OSM    H5S12584   1.583   1.872   6.141 -0.8592 -0.1921  1.2464
  120OSM    C6S12585   1.518   1.817   5.936 -0.1643 -0.9704  0.5224
  120OSM    H6S12586   1.471   1.881   5.858 -0.7492 -0.2428  1.4507
  120OSM    H6T12587   1.461   1.721   5.932 -1.7998 -0.0393  0.8780
  120OSM    C7S12588   1.667   1.817   5.904  0.3998  0.3294 -0.4000
  120OSM    H7S12589   1.712   1.759   5.988 -1.3388 -0.7073 -0.1266
  120OSM    H7T12590   1.709   1.919   5.913  0.9958 -0.0229  1.0316
  120OSM    C8S12591   1.691   1.741   5.775  0.8108  0.0298 -0.3345
  120OSM    H8S12592   1.623   1.654   5.768 -0.3224  0.8982 -0.4000
  120OSM    H8T12593   1.797   1.707   5.767  0.5774 -0.6570 -0.4866
  120OSM    C9S12594   1.652   1.826   5.649 -0.4524 -0.4165 -0.6751
  120OSM    H9S12595   1.733   1.902   5.647  0.4712 -1.3755 -0.7245
  120OSM    H9T12596   1.560   1.885   5.665  0.3671  0.7174  0.0554
  120OSM   C10S12597   1.623   1.731   5.529  0.0080 -0.0773 -0.4102
  120OSM   H10S12598   1.539   1.661   5.549  0.4859 -0.6432 -0.3814
  120OSM   H10T12599   1.703   1.658   5.506 -0.4983 -1.4184  1.7445
  120OSM   C11S12600   1.592   1.814   5.404 -0.4740  0.6571 -0.7987
  120OSM   H11S12601   1.657   1.903   5.403 -0.4346  0.6924  0.9306
  120OSM   H11T12602   1.485   1.844   5.411 -0.5947  0.1309 -0.1985
  120OSM   C12S12603   1.611   1.731   5.282  0.4507  0.3069  0.1079
  120OSM   H12S12604   1.544   1.643   5.284 -0.3028  0.8819  0.9834
  120OSM   H12T12605   1.717   1.698   5.288  0.4160  0.4351  1.8696
  120OSM   C13S12606   1.591   1.813   5.151  0.0280  0.7432 -0.3649
  120OSM   H13S12607   1.643   1.910   5.159 -0.6641  1.2954 -2.1152
  120OSM   H13T12608   1.482   1.834   5.143 -0.0732  1.2819  1.7396
  120OSM   C14S12609   1.647   1.746   5.019  0.5014 -0.0515  0.2540
  120OSM   H14S12610   1.607   1.645   4.998 -0.3821  0.7661 -2.4027
  120OSM   H14T12611   1.755   1.729   5.039  0.5175  1.3543  1.5778
  120OSM   C15S12612   1.625   1.829   4.887 -0.0690  0.0043 -0.3267
  120OSM   H15S12613   1.689   1.920   4.892  1.7469 -1.2856  2.1260
  120OSM   H15T12614   1.520   1.865   4.883 -0.9142 -2.3083 -0.2204
  120OSM   C16S12615   1.661   1.734   4.776  0.8562 -0.1619 -0.8933
  120OSM   H16S12616   1.608   1.637   4.779  0.4485  0.0663  2.7533
  120OSM   H16T12617   1.771   1.718   4.787  0.8478  0.8196  0.8381
  120OSM   C17S12618   1.648   1.802   4.637  0.3377 -0.0597 -0.7992
  120OSM   H17S12619   1.724   1.883   4.638  2.5367 -1.8970  2.8663
  120OSM   H17T12620   1.549   1.853   4.634  0.1121 -0.3916  0.4614
  120OSM   C18S12621   1.682   1.709   4.516 -0.1753  0.1808 -0.2495
  120OSM   H18S12622   1.592   1.647   4.499  0.1507 -0.3041 -0.2178
  120OSM   H18T12623   1.767   1.643   4.542  2.3546  2.7701 -1.4420
  120OSM   H18U12624   1.692   1.767   4.421 -3.9558 -0.6269 -1.3318
  120OSM    C1F12625   1.495   2.409   6.049  0.1596  0.1315 -0.0674
  120OSM     OF12626   1.611   2.420   6.089 -0.6564 -0.3051 -0.7262
  120OSM    C2F12627   1.425   2.511   5.966 -0.8758 -0.0739  0.3493
  120OSM    H2F12628   1.342   2.547   6.031 -1.5669  0.3260 -0.7291
  120OSM    H2G12629   1.379   2.456   5.881  1.0985  0.5720 -1.2012
  120OSM    C3F12630   1.509   2.631   5.911 -0.1364 -0.1057  0.1205
  120OSM    H3F12631   1.595   2.599   5.848  0.1564  0.4197  0.2388
  120OSM    H3G12632   1.549   2.680   6.002 -0.4111  0.4297 -0.0413
  120OSM    C4F12633   1.419   2.722   5.822 -0.0065  0.5873  0.2925
  120OSM    H4F12634   1.334   2.764   5.880 -0.0462 -0.8087  1.3023
  120OSM    H4G12635   1.383   2.656   5.740 -0.0004  0.3078  0.5138
  120OSM    C5F12636   1.489   2.840   5.756 -0.2031 -0.5038 -0.6521
  120OSM    H5F12637   1.567   2.800   5.687  0.9134 -1.5917  1.1530
  120OSM    H5G12638   1.547   2.882   5.841 -0.1780  2.5114 -2.0129
  120OSM    C6F12639   1.403   2.947   5.689  0.4798  0.0666 -0.0048
  120OSM    H6F12640   1.468   3.032   5.659  0.7326 -0.1926 -0.1976
  120OSM    H6G12641   1.322   2.984   5.756  0.3690  2.0803 -1.1660
  120OSM    C7F12642   1.319   2.888   5.567  0.1597  0.3522 -0.4986
  120OSM    H7F12643   1.247   2.971   5.548 -0.1851  0.2364  0.2815
  120OSM    H7G12644   1.257   2.805   5.606  0.6986  1.5675  3.2922
  120OSM    C8F12645   1.410   2.836   5.455 -0.0690 -0.0849 -0.3945
  120OSM    H8F12646   1.353   2.786   5.373  1.8462 -0.9564 -1.2808
  120OSM    H8G12647   1.484   2.762   5.493  0.7370  1.1100  0.4173
  120OSM    C9F12648   1.495   2.940   5.390 -0.4736 -0.9614  0.1085
  120OSM    H9F12649   1.566   2.985   5.460  1.9973 -2.1947 -1.4417
  120OSM   C10F12650   1.487   2.989   5.259  0.3256  0.4777  0.1356
  120OSM   H10F12651   1.553   3.073   5.233  0.6879  0.6188  1.4245
  120OSM   C11F12652   1.393   2.948   5.146 -0.0280 -0.4850 -0.4964
  120OSM   H11F12653   1.305   3.015   5.154 -0.2394 -1.0125  3.0333
  120OSM   H11G12654   1.354   2.844   5.159 -0.2606 -0.2579  0.7199
  120OSM   C12F12655   1.447   2.951   5.004  0.2788 -0.0759 -0.3174
  120OSM   H12F12656   1.488   3.053   4.987 -1.1626  0.1436 -3.1432
  120OSM   H12G12657   1.361   2.943   4.934 -0.0327 -1.0276  0.1641
  120OSM   C13F12658   1.547   2.842   4.957  0.3753 -0.3150 -0.6173
  120OSM   H13F12659   1.493   2.745   4.955 -0.2533  0.0303 -1.0225
  120OSM   H13G12660   1.626   2.847   5.035 -0.1011  0.8217 -0.1792
  120OSM   C14F12661   1.611   2.862   4.821 -0.1557 -1.0908  0.2405
  120OSM   H14F12662   1.708   2.810   4.808  1.1083  1.5213 -1.4754
  120OSM   H14G12663   1.636   2.970   4.819  1.1395 -1.3790 -0.0420
  120OSM   C15F12664   1.528   2.848   4.690 -0.4526 -0.1993 -0.3093
  120OSM   H15F12665   1.582   2.880   4.598 -2.6266  1.0779 -1.1953
  120OSM   H15G12666   1.440   2.914   4.696  0.3969  0.8312  2.0873
  120OSM   C16F12667   1.477   2.701   4.675 -0.4639  1.3355  0.0112
  120OSM   H16F12668   1.425   2.663   4.766 -1.1384 -1.7872 -1.5193
  120OSM   H16G12669   1.550   2.618   4.661 -0.7395  0.6383  2.3160
  120OSM   C17F12670   1.378   2.686   4.550 -0.5867  0.5515  0.3821
  120OSM   H17F12671   1.430   2.726   4.460  0.5795 -1.6998 -0.0338
  120OSM   H17G12672   1.287   2.737   4.589  0.1449 -0.0421  3.1033
  120OSM   C18F12673   1.323   2.555   4.516  0.2839 -0.5289 -0.0809
  120OSM   H18F12674   1.232   2.554   4.452 -0.3008 -1.2188  0.7256
  120OSM   H18G12675   1.287   2.506   4.610 -2.8197  0.7448 -0.4689
  120OSM   H18H12676   1.389   2.489   4.457 -0.2787  0.0025 -1.3323
  121OSM      N12677   2.662   3.662   7.002  0.0858 -0.5222  0.9246
  121OSM    C1512678   2.724   3.690   6.869 -0.0549  0.1774 -0.6458
  121OSM   H15A12679   2.747   3.594   6.826 -2.2893 -1.3873  1.3507
  121OSM   H15B12680   2.815   3.747   6.878  0.4132 -0.2930 -2.1696
  121OSM   H15C12681   2.656   3.747   6.808 -1.7443 -0.3512  0.6448
  121OSM    C1412682   2.763   3.595   7.094  0.4374 -0.6141  0.2722
  121OSM   H14A12683   2.856   3.650   7.082  0.6168 -0.9468  0.1192
  121OSM   H14B12684   2.775   3.491   7.068  0.6887 -0.1892 -1.5124
  121OSM   H14C12685   2.733   3.599   7.197  2.6183 -0.5998  0.9569
  121OSM    C1312686   2.618   3.793   7.060 -0.7725  0.2242 -0.0315
  121OSM   H13A12687   2.706   3.856   7.065 -0.8161  0.3977 -1.1348
  121OSM   H13B12688   2.570   3.782   7.156  1.4376 -1.3617  0.9891
  121OSM   H13C12689   2.551   3.839   6.988  1.4551  2.8446 -0.5766
  121OSM    C1212690   2.545   3.561   6.983  1.2822 -0.0495  0.6199
  121OSM   H12A12691   2.495   3.556   7.078  1.9717 -0.3648  0.9742
  121OSM   H12B12692   2.574   3.458   6.972  1.2603 -0.0270  0.3323
  121OSM    C1112693   2.446   3.594   6.864 -0.1082 -0.1521  0.0086
  121OSM   H11A12694   2.374   3.509   6.853  1.2278 -1.3664  0.3249
  121OSM   H11B12695   2.502   3.597   6.769 -0.2525 -0.4764 -0.0889
  121OSM      P12696   2.365   3.823   6.783 -0.3627 -0.2418 -0.2189
  121OSM    O1312697   2.286   3.931   6.839  0.2320 -0.0290  0.4212
  121OSM    O1412698   2.498   3.848   6.737 -0.9115 -0.7354  0.4034
  121OSM    O1112699   2.295   3.755   6.668  0.3109 -0.6388 -0.2363
  121OSM    O1212700   2.368   3.712   6.900  0.1544 -0.1004  0.0870
  121OSM    C1S12701   2.223   3.821   6.565 -0.0037  0.7236 -0.2726
  121OSM    H1S12702   2.186   3.918   6.606 -3.7397 -0.9164  0.6555
  121OSM    H1T12703   2.132   3.765   6.532  1.7498 -1.7193 -1.2079
  121OSM     NF12704   2.231   3.907   6.345 -0.6116  0.5364  0.1194
  121OSM    HNF12705   2.175   3.849   6.287 -0.4270 -0.9856  1.3949
  121OSM    C2S12706   2.306   3.837   6.447 -0.0495 -0.9465  0.6971
  121OSM    H2S12707   2.398   3.896   6.469 -0.5961  1.7070 -3.1204
  121OSM    C3S12708   2.360   3.696   6.408  0.5520  0.6809  0.2917
  121OSM    H3S12709   2.277   3.621   6.411 -0.4510  1.7508  0.0163
  121OSM     O312710   2.445   3.634   6.496 -0.5431 -0.1389 -0.5748
  121OSM    HO312711   2.417   3.667   6.582 -2.9923  0.0696 -1.3784
  121OSM    C4S12712   2.428   3.691   6.277  0.4781 -0.0247 -0.8748
  121OSM    H4S12713   2.359   3.669   6.194 -0.9698 -3.9168  1.1471
  121OSM    C5S12714   2.560   3.708   6.251 -0.0669 -0.6637  0.5040
  121OSM    H5S12715   2.633   3.722   6.332 -0.2052  0.3165  0.4707
  121OSM    C6S12716   2.614   3.698   6.110  0.3383 -0.1718  0.7710
  121OSM    H6S12717   2.537   3.641   6.053 -0.1739 -1.1900  2.4229
  121OSM    H6T12718   2.703   3.632   6.107  2.0492  2.0064  1.5650
  121OSM    C7S12719   2.656   3.820   6.026 -0.8245  0.0203 -0.3768
  121OSM    H7S12720   2.738   3.868   6.083 -0.0556 -0.7536 -0.8104
  121OSM    H7T12721   2.577   3.896   6.010 -0.7928  0.6135  1.9366
  121OSM    C8S12722   2.711   3.781   5.887 -0.8090 -0.0058  0.3005
  121OSM    H8S12723   2.796   3.710   5.900 -1.3573 -0.6250  0.5355
  121OSM    H8T12724   2.753   3.871   5.838  0.3610 -0.3741  0.5746
  121OSM    C9S12725   2.616   3.718   5.791  0.3268 -0.2437  0.3762
  121OSM    H9S12726   2.529   3.785   5.776 -0.9776 -2.2323 -1.6414
  121OSM    H9T12727   2.582   3.622   5.836 -0.3016  0.3779  1.2741
  121OSM   C10S12728   2.690   3.695   5.657  0.3775 -0.3659 -0.2736
  121OSM   H10S12729   2.764   3.614   5.678  1.1683  0.1191 -1.1215
  121OSM   H10T12730   2.746   3.784   5.622 -0.5806 -0.0172 -0.9605
  121OSM   C11S12731   2.606   3.636   5.541  0.3816  0.2632 -0.5599
  121OSM   H11S12732   2.524   3.706   5.516 -0.2750  0.7851  2.6361
  121OSM   H11T12733   2.561   3.543   5.584 -0.1107  2.0629  3.2310
  121OSM   C12S12734   2.688   3.614   5.422 -0.2168 -0.3189  0.3780
  121OSM   H12S12735   2.784   3.564   5.445  1.4668  1.7776 -1.5738
  121OSM   H12T12736   2.720   3.708   5.373 -3.0918 -0.0859 -1.2866
  121OSM   C13S12737   2.614   3.540   5.308 -0.2558 -0.2509 -0.4129
  121OSM   H13S12738   2.528   3.599   5.272 -0.4052  1.3480  2.2427
  121OSM   H13T12739   2.573   3.441   5.337  1.4268 -0.6916  0.6650
  121OSM   C14S12740   2.708   3.525   5.182  0.1545 -0.6144 -0.7132
  121OSM   H14S12741   2.791   3.458   5.213  1.9794  0.8345 -2.2105
  121OSM   H14T12742   2.742   3.626   5.151 -2.0835  0.5204  0.2895
  121OSM   C15S12743   2.621   3.470   5.065 -0.0068  0.3360  0.2661
  121OSM   H15S12744   2.527   3.528   5.078 -0.1188  0.8370 -2.2385
  121OSM   H15T12745   2.614   3.366   5.103  2.3406  0.0858  0.1729
  121OSM   C16S12746   2.674   3.487   4.926  0.8039 -0.8144  0.5104
  121OSM   H16S12747   2.668   3.592   4.889  2.6927 -0.1980  1.8225
  121OSM   H16T12748   2.605   3.427   4.863 -0.9584  1.3233  0.2698
  121OSM   C17S12749   2.813   3.434   4.911 -0.0435 -0.0476 -0.0433
  121OSM   H17S12750   2.811   3.338   4.966 -0.8005  0.1325  0.2578
  121OSM   H17T12751   2.884   3.509   4.952  0.0672 -0.4840  0.5693
  121OSM   C18S12752   2.862   3.413   4.760  0.0901  0.2591 -0.3343
  121OSM   H18S12753   2.780   3.362   4.705 -1.5649  1.2910  1.0510
  121OSM   H18T12754   2.954   3.351   4.755  1.1282  1.6556  0.5612
  121OSM   H18U12755   2.882   3.514   4.718 -0.6513  0.9458  0.8966
  121OSM    C1F12756   2.195   4.033   6.356 -0.2799  0.0325  0.6113
  121OSM     OF12757   2.251   4.104   6.433  0.3564  0.0216  0.0102
  121OSM    C2F12758   2.081   4.072   6.271  0.7227 -0.1923 -0.1787
  121OSM    H2F12759   1.998   4.103   6.337  1.4106 -1.3328  1.2869
  121OSM    H2G12760   2.036   3.990   6.211 -0.3313  0.7933 -0.7560
  121OSM    C3F12761   2.121   4.173   6.165 -0.4247 -0.1836  0.3303
  121OSM    H3F12762   2.187   4.118   6.094  0.4467 -0.9086  1.6603
  121OSM    H3G12763   2.179   4.261   6.200  0.5197 -0.8347  0.4788
  121OSM    C4F12764   1.997   4.210   6.089  0.1330 -0.5193  0.5973
  121OSM    H4F12765   2.003   4.316   6.055 -1.6169 -1.2445 -2.3603
  121OSM    H4G12766   1.918   4.212   6.167 -1.0364 -0.2817 -0.5483
  121OSM    C5F12767   1.946   4.113   5.986  0.1392  0.4517  0.0353
  121OSM    H5F12768   1.925   4.014   6.031 -2.9920  1.1421  0.2992
  121OSM    H5G12769   2.022   4.102   5.905 -1.1977 -2.4883 -0.9382
  121OSM    C6F12770   1.818   4.173   5.923 -0.0052 -0.6420 -0.3043
  121OSM    H6F12771   1.833   4.282   5.912  0.4240 -0.8540 -2.1094
  121OSM    H6G12772   1.741   4.163   6.003 -0.7127  0.5381 -0.8045
  121OSM    C7F12773   1.781   4.106   5.790  0.0746 -0.0361  0.4988
  121OSM    H7F12774   1.677   4.142   5.774  0.7184  1.6673 -0.0936
  121OSM    H7G12775   1.780   3.995   5.798  1.4947 -0.1834 -0.9638
  121OSM    C8F12776   1.863   4.132   5.661 -0.5338  0.4749  0.3374
  121OSM    H8F12777   1.964   4.087   5.676  0.0858  2.1095  1.3333
  121OSM    H8G12778   1.890   4.239   5.670 -1.6130  0.5937  3.0137
  121OSM    C9F12779   1.791   4.083   5.534  0.1506  0.3113 -0.4940
  121OSM    H9F12780   1.694   4.135   5.538  0.8773  1.6700  0.7669
  121OSM   C10F12781   1.832   3.994   5.440 -0.0644  0.9628 -0.1711
  121OSM   H10F12782   1.774   3.994   5.346  0.2037  3.4341 -0.4109
  121OSM   C11F12783   1.967   3.930   5.437 -0.7693  0.2269  0.4250
  121OSM   H11F12784   1.974   3.830   5.485 -0.1519  0.7606  1.4896
  121OSM   H11G12785   2.033   3.994   5.499 -2.7392  1.8010  0.9762
  121OSM   C12F12786   2.035   3.929   5.292 -0.6260 -0.2021 -0.0468
  121OSM   H12F12787   2.139   3.896   5.313  0.0520  0.8982 -1.5377
  121OSM   H12G12788   2.037   4.031   5.249  1.6392 -0.4679 -0.6879
  121OSM   C13F12789   1.962   3.827   5.196 -0.3675  0.2722 -0.2082
  121OSM   H13F12790   1.861   3.865   5.168 -0.8958  0.0558  1.2734
  121OSM   H13G12791   1.957   3.727   5.243  2.5946 -0.2879 -0.8997
  121OSM   C14F12792   2.024   3.807   5.055 -0.3108 -0.2963  0.5148
  121OSM   H14F12793   2.132   3.785   5.066 -0.1435 -0.4079 -1.1523
  121OSM   H14G12794   2.012   3.899   4.994 -2.2685 -2.5009 -2.7223
  121OSM   C15F12795   1.954   3.705   4.960 -0.3476  0.5635  0.0703
  121OSM   H15F12796   1.844   3.708   4.980  0.0193 -0.8796  2.8960
  121OSM   H15G12797   1.981   3.599   4.984  1.8294  0.2272 -3.2131
  121OSM   C16F12798   1.990   3.716   4.816 -0.1511  0.0751  0.1164
  121OSM   H16F12799   2.096   3.691   4.797 -0.1160  1.3859 -1.6186
  121OSM   H16G12800   1.992   3.823   4.790 -1.7156  0.2392  0.5693
  121OSM   C17F12801   1.889   3.649   4.723 -0.1940 -0.1026  0.5175
  121OSM   H17F12802   1.786   3.682   4.746 -0.4438 -0.9183  0.6066
  121OSM   H17G12803   1.909   3.542   4.745 -0.0931  0.2221  2.2187
  121OSM   C18F12804   1.936   3.691   4.588 -0.2305  0.5628 -0.0845
  121OSM   H18F12805   2.047   3.701   4.597 -0.1737 -1.1808  2.7174
  121OSM   H18G12806   1.893   3.773   4.527 -1.1700 -0.4534 -0.8222
  121OSM   H18H12807   1.922   3.606   4.519 -2.0728  1.5789 -1.0137
  122OSM      N12808   2.418   0.525   6.815 -0.4414 -0.3202 -0.1962
  122OSM    C1512809   2.440   0.387   6.867 -0.1202  0.3701 -0.6885
  122OSM   H15A12810   2.365   0.372   6.944  0.1349  0.4866 -0.4162
  122OSM   H15B12811   2.537   0.371   6.912 -1.1071 -1.2996  1.0197
  122OSM   H15C12812   2.446   0.314   6.787 -1.0988 -0.6253  0.1030
  122OSM    C1412813   2.279   0.527   6.748  0.7786  0.0393 -0.3943
  122OSM   H14A12814   2.281   0.455   6.667  1.0593 -0.2914 -0.0946
  122OSM   H14B12815   2.248   0.626   6.718  2.8258  0.7698 -0.2762
  122OSM   H14C12816   2.206   0.485   6.816  0.2181  1.3576 -0.1663
  122OSM    C1312817   2.434   0.624   6.925  0.0808 -0.4252 -1.0754
  122OSM   H13A12818   2.406   0.723   6.891  1.9718 -0.4544 -2.9221
  122OSM   H13B12819   2.536   0.631   6.959  0.1311 -1.4948 -0.9845
  122OSM   H13C12820   2.380   0.589   7.012  0.7370  0.2909 -0.3678
  122OSM    C1212821   2.523   0.560   6.713  0.3447 -0.1483  0.7340
  122OSM   H12A12822   2.617   0.580   6.761  1.7475 -2.6847 -0.7184
  122OSM   H12B12823   2.495   0.651   6.663  1.7009  1.4810  2.7720
  122OSM    C1112824   2.560   0.458   6.597  1.0015 -0.1453 -0.1455
  122OSM   H11A12825   2.594   0.517   6.509  0.2661  1.5103  0.6217
  122OSM   H11B12826   2.457   0.426   6.571  0.2400  0.9929  1.2737
  122OSM      P12827   2.625   0.204   6.598 -0.5647  0.2119 -0.0597
  122OSM    O1312828   2.730   0.118   6.645 -0.0721 -0.0410 -0.3178
  122OSM    O1412829   2.492   0.176   6.645  0.4756  0.7046 -0.4832
  122OSM    O1112830   2.629   0.214   6.442 -0.1644 -0.0419  0.4813
  122OSM    O1212831   2.651   0.353   6.639  0.6764  0.0198 -0.0314
  122OSM    C1S12832   2.740   0.280   6.377  0.5798  0.3570  0.3980
  122OSM    H1S12833   2.834   0.222   6.385 -0.3638 -1.1867  0.8394
  122OSM    H1T12834   2.755   0.388   6.399 -1.1366  0.9759 -1.1813
  122OSM     NF12835   2.833   0.304   6.152 -0.4720 -0.5159  0.0379
  122OSM    HNF12836   2.857   0.398   6.130  0.7957 -1.2075 -1.8051
  122OSM    C2S12837   2.711   0.292   6.226  0.4808  0.0734 -0.2512
  122OSM    H2S12838   2.676   0.190   6.202  1.9535 -0.0536 -2.0357
  122OSM    C3S12839   2.591   0.388   6.194  0.3396 -0.3939 -0.2548
  122OSM    H3S12840   2.618   0.494   6.215  0.6126 -0.1455 -1.7564
  122OSM     O312841   2.485   0.371   6.281 -0.1555 -0.4964 -0.1919
  122OSM    HO312842   2.527   0.329   6.356  0.7035  0.2251 -0.2516
  122OSM    C4S12843   2.552   0.384   6.059 -0.4311  0.5860  0.9352
  122OSM    H4S12844   2.510   0.286   6.029 -0.5286  1.5005 -2.3863
  122OSM    C5S12845   2.551   0.489   5.974  0.1794 -0.0752 -0.2648
  122OSM    H5S12846   2.583   0.585   6.017 -1.6138 -0.6965  2.7649
  122OSM    C6S12847   2.496   0.495   5.834  1.2985 -0.0827  0.0288
  122OSM    H6S12848   2.429   0.582   5.820  0.9128 -0.5630 -1.3043
  122OSM    H6T12849   2.427   0.409   5.822  1.4474 -0.0769 -0.9547
  122OSM    C7S12850   2.607   0.498   5.725  0.1726  0.4446  0.0409
  122OSM    H7S12851   2.673   0.412   5.749  2.6115  1.2576 -3.1035
  122OSM    H7T12852   2.669   0.590   5.734 -0.4652  0.7614  1.7236
  122OSM    C8S12853   2.560   0.479   5.580  0.2433 -0.4984 -0.3285
  122OSM    H8S12854   2.488   0.560   5.557  3.1394  2.1474 -0.8187
  122OSM    H8T12855   2.513   0.380   5.565  2.3381 -1.1420 -4.1087
  122OSM    C9S12856   2.678   0.508   5.482  0.0447  0.5561 -0.1774
  122OSM    H9S12857   2.740   0.416   5.490 -2.0740 -0.8996  0.4319
  122OSM    H9T12858   2.738   0.598   5.505  1.0149 -0.5178  1.7492
  122OSM   C10S12859   2.630   0.513   5.337 -0.4091 -0.1129 -0.2853
  122OSM   H10S12860   2.565   0.603   5.326  1.1157  0.8845 -1.7220
  122OSM   H10T12861   2.586   0.417   5.302  0.3070 -0.4014 -0.4084
  122OSM   C11S12862   2.747   0.536   5.238 -0.3034 -0.2395 -0.6019
  122OSM   H11S12863   2.822   0.455   5.226 -0.0887  0.0811 -1.5059
  122OSM   H11T12864   2.797   0.618   5.294 -0.6351 -0.8729  0.6648
  122OSM   C12S12865   2.699   0.581   5.102 -0.1352  0.0312  0.7715
  122OSM   H12S12866   2.777   0.651   5.064 -0.1369  0.4442  1.5049
  122OSM   H12T12867   2.610   0.648   5.106 -1.2813 -1.4121  0.5289
  122OSM   C13S12868   2.677   0.463   5.007 -0.1725  0.2709  0.1513
  122OSM   H13S12869   2.596   0.397   5.044 -1.1847  0.5638 -1.4551
  122OSM   H13T12870   2.770   0.403   5.002  0.0280  0.5011  0.9394
  122OSM   C14S12871   2.649   0.514   4.859  0.0436  0.3369 -0.1859
  122OSM   H14S12872   2.640   0.427   4.791  2.0475  0.5201 -0.7594
  122OSM   H14T12873   2.730   0.577   4.817 -1.0616 -0.6296 -4.1499
  122OSM   C15S12874   2.511   0.577   4.850 -0.2930  0.0267 -0.0842
  122OSM   H15S12875   2.503   0.655   4.929 -0.3002  1.2637 -1.2680
  122OSM   H15T12876   2.430   0.504   4.873  0.2153 -0.3111  0.6809
  122OSM   C16S12877   2.475   0.630   4.707  0.2026  0.1660  0.2946
  122OSM   H16S12878   2.576   0.658   4.668  0.9203 -0.2116  1.7915
  122OSM   H16T12879   2.410   0.719   4.724  0.3759  0.4580 -0.5282
  122OSM   C17S12880   2.417   0.532   4.605 -0.5561 -0.9086 -0.3025
  122OSM   H17S12881   2.385   0.449   4.670  1.8581 -0.9522  0.9162
  122OSM   H17T12882   2.500   0.488   4.546  0.4777  0.0770  0.3697
  122OSM   C18S12883   2.298   0.580   4.525  0.3484  0.8393  0.2030
  122OSM   H18S12884   2.311   0.680   4.479  2.3045 -0.0225 -1.2503
  122OSM   H18T12885   2.201   0.577   4.579  0.4383  0.6458  0.3597
  122OSM   H18U12886   2.289   0.501   4.447  0.0642 -0.3603  1.3989
  122OSM    C1F12887   2.929   0.214   6.137 -0.3026 -0.3736 -0.9604
  122OSM     OF12888   2.921   0.102   6.184  0.3223  0.5030  0.4839
  122OSM    C2F12889   3.054   0.270   6.078 -0.1847  0.1121  0.5182
  122OSM    H2F12890   3.126   0.316   6.149  0.9789 -0.9495  0.0653
  122OSM    H2G12891   3.019   0.347   6.005 -1.9110 -0.1285  1.0450
  122OSM    C3F12892   3.145   0.160   6.001  0.2105 -0.1104 -0.6417
  122OSM    H3F12893   3.086   0.112   5.919  1.6757 -1.3622 -1.0207
  122OSM    H3G12894   3.191   0.086   6.069  0.1331 -0.6559 -1.1733
  122OSM    C4F12895   3.257   0.220   5.924  0.1009  0.1598  0.3793
  122OSM    H4F12896   3.327   0.257   6.002  0.8583 -0.3462 -0.0550
  122OSM    H4G12897   3.221   0.308   5.866 -1.2720  0.0508  1.0196
  122OSM    C5F12898   3.338   0.124   5.837 -0.5367 -0.5541 -0.2192
  122OSM    H5F12899   3.378   0.038   5.894  0.5061  0.6187  0.8821
  122OSM    H5G12900   3.422   0.176   5.788 -1.5699  2.0783  0.6225
  122OSM    C6F12901   3.255   0.070   5.719  0.0714 -0.2779  0.2580
  122OSM    H6F12902   3.204   0.157   5.671  1.0236 -0.2462 -0.7452
  122OSM    H6G12903   3.176   0.016   5.775  0.5708  0.6239  1.9204
  122OSM    C7F12904   3.331  -0.008   5.609  0.8411  0.0559  0.1449
  122OSM    H7F12905   3.256  -0.051   5.539  1.0384  1.1402 -0.7609
  122OSM    H7G12906   3.384  -0.094   5.656 -0.5031 -0.7035  0.3223
  122OSM    C8F12907   3.434   0.067   5.524 -0.7345  0.8968  0.8233
  122OSM    H8F12908   3.520   0.104   5.583  0.7236 -0.4731 -0.3644
  122OSM    H8G12909   3.382   0.160   5.493 -0.2248  0.5845 -1.1167
  122OSM    C9F12910   3.498  -0.004   5.412 -0.0087 -0.0553  0.0223
  122OSM    H9F12911   3.588  -0.064   5.428  0.8508  1.8899  3.4048
  122OSM   C10F12912   3.453  -0.001   5.286 -0.6621 -0.8093 -0.7172
  122OSM   H10F12913   3.498  -0.066   5.209  0.0569  1.0189 -1.9035
  122OSM   C11F12914   3.332   0.075   5.238  0.3812 -0.3784  0.7831
  122OSM   H11F12915   3.265   0.103   5.322  0.7058  1.1687  0.5451
  122OSM   H11G12916   3.265   0.014   5.173 -1.9188  3.0149 -0.2923
  122OSM   C12F12917   3.361   0.211   5.167 -0.1735  0.1351  0.7597
  122OSM   H12F12918   3.430   0.273   5.228  2.5554  0.5736 -2.4619
  122OSM   H12G12919   3.263   0.265   5.164 -0.2825 -0.0779 -0.8932
  122OSM   C13F12920   3.415   0.198   5.026  0.4729 -0.2825  0.2355
  122OSM   H13F12921   3.336   0.158   4.959  1.4577  0.4717 -1.4400
  122OSM   H13G12922   3.499   0.127   5.018  2.0414  1.4382  0.7382
  122OSM   C14F12923   3.440   0.340   4.964  0.3095 -0.7952 -0.5507
  122OSM   H14F12924   3.525   0.382   5.021  2.1821 -1.9199 -2.3709
  122OSM   H14G12925   3.344   0.393   4.981  0.5199 -0.8335  0.8946
  122OSM   C15F12926   3.474   0.340   4.819  0.4219 -0.4343 -0.0342
  122OSM   H15F12927   3.377   0.304   4.780 -0.4310  1.8537 -0.1695
  122OSM   H15G12928   3.552   0.266   4.789 -0.3810 -0.3418 -2.6064
  122OSM   C16F12929   3.506   0.485   4.762  0.9212  0.1533  0.2533
  122OSM   H16F12930   3.606   0.523   4.791  0.0549  1.2717  1.9082
  122OSM   H16G12931   3.427   0.544   4.814 -1.2508 -2.2889 -0.0709
  122OSM   C17F12932   3.478   0.494   4.615  0.7010  0.6302 -0.5617
  122OSM   H17F12933   3.519   0.406   4.561 -0.7136 -1.9918  2.3315
  122OSM   H17G12934   3.520   0.590   4.577  2.1687  0.9326  1.5810
  122OSM   C18F12935   3.328   0.488   4.587  0.4398  0.2589 -0.5332
  122OSM   H18F12936   3.309   0.483   4.477 -1.4210  0.7618 -0.2629
  122OSM   H18G12937   3.268   0.570   4.632 -0.6496 -1.2654  0.9027
  122OSM   H18H12938   3.271   0.399   4.622  1.9050 -0.6287 -0.3181
  123OSM      N12939   4.522   0.655   1.620  0.0660  0.2092 -0.1925
  123OSM    C1512940   4.376   0.681   1.636 -0.5243  0.0073 -0.3174
  123OSM   H15A12941   4.326   0.585   1.639  1.0098 -1.0986 -3.9521
  123OSM   H15B12942   4.336   0.730   1.549 -0.1260 -0.1044 -0.5662
  123OSM   H15C12943   4.357   0.724   1.733  1.0833 -0.1797  0.1082
  123OSM    C1412944   4.548   0.606   1.479  0.0702  0.4511 -0.2910
  123OSM   H14A12945   4.653   0.582   1.468  0.3661  1.5082  0.1474
  123OSM   H14B12946   4.518   0.681   1.407  0.1176  0.3287 -0.4402
  123OSM   H14C12947   4.487   0.518   1.464  0.8735  0.1484 -2.0724
  123OSM    C1312948   4.592   0.784   1.627 -0.2324  0.5845 -0.1778
  123OSM   H13A12949   4.593   0.821   1.728 -2.8091  0.1853  0.0662
  123OSM   H13B12950   4.551   0.858   1.560 -0.6202 -1.2163 -2.0106
  123OSM   H13C12951   4.698   0.773   1.608 -0.4905 -2.8413 -0.2191
  123OSM    C1212952   4.571   0.544   1.719  0.8231 -0.1360  0.4094
  123OSM   H12A12953   4.540   0.578   1.817 -0.3760  0.7092 -0.2351
  123OSM   H12B12954   4.678   0.530   1.710  0.4791 -2.3089 -0.7100
  123OSM    C1112955   4.515   0.403   1.692  0.5689  0.2783 -0.1856
  123OSM   H11A12956   4.572   0.332   1.755 -0.3272 -1.6294 -1.4317
  123OSM   H11B12957   4.536   0.379   1.586 -0.4347  2.3806 -0.9147
  123OSM      P12958   4.319   0.398   1.857  0.1228  0.3184  0.3232
  123OSM    O1312959   4.242   0.522   1.885  0.0785 -0.3664  0.1800
  123OSM    O1412960   4.260   0.271   1.875  0.2430  0.2108 -0.6028
  123OSM    O1112961   4.447   0.410   1.953  1.0371 -0.3072 -0.1390
  123OSM    O1212962   4.373   0.403   1.714 -0.3211 -0.4364  0.0612
  123OSM    C1S12963   4.422   0.435   2.092  0.5178  0.7656 -0.3684
  123OSM    H1S12964   4.337   0.376   2.131 -0.7587  1.8127 -1.4803
  123OSM    H1T12965   4.389   0.539   2.110 -2.5459 -0.2628  0.4985
  123OSM     NF12966   4.549   0.513   2.297  0.0904 -0.0505 -0.1205
  123OSM    HNF12967   4.578   0.608   2.303 -2.1212  0.9580 -2.7960
  123OSM    C2S12968   4.558   0.425   2.175 -0.7098 -0.0605  0.2649
  123OSM    H2S12969   4.581   0.321   2.209  0.4486  0.2628  0.5149
  123OSM    C3S12970   4.683   0.463   2.084  0.9953 -0.0027 -0.5412
  123OSM    H3S12971   4.663   0.570   2.064 -0.0355  0.2591  1.5730
  123OSM     O312972   4.702   0.387   1.966 -0.4219  0.1949  0.3045
  123OSM    HO312973   4.614   0.361   1.939  0.2204 -1.3992 -0.3743
  123OSM    C4S12974   4.805   0.455   2.170  0.1512  0.0289 -0.5900
  123OSM    H4S12975   4.810   0.364   2.231  2.1644  1.4667  1.5651
  123OSM    C5S12976   4.889   0.556   2.207 -0.6073  0.0872  0.1512
  123OSM    H5S12977   4.871   0.652   2.157 -1.2778  0.4234  1.0057
  123OSM    C6S12978   4.993   0.538   2.315  0.8032  0.0472  0.1830
  123OSM    H6S12979   4.969   0.442   2.366 -1.6890  0.0029 -0.9601
  123OSM    H6T12980   4.982   0.624   2.385  0.2810  0.2336 -0.1294
  123OSM    C7S12981   5.142   0.536   2.280 -0.0867  0.2679  0.2173
  123OSM    H7S12982   5.175   0.626   2.224  1.7352 -1.2550 -1.3080
  123OSM    H7T12983   5.156   0.447   2.215  3.0115 -0.7095  2.0252
  123OSM    C8S12984   5.226   0.523   2.408  0.3906  0.1060  0.1566
  123OSM    H8S12985   5.224   0.619   2.464 -0.0666  0.1453  0.0778
  123OSM    H8T12986   5.330   0.503   2.374  0.6831  0.2386  0.9483
  123OSM    C9S12987   5.207   0.409   2.511 -0.7078  0.0212  0.2538
  123OSM    H9S12988   5.108   0.436   2.553 -1.3771 -1.9984  0.0579
  123OSM    H9T12989   5.294   0.419   2.579  1.8836 -2.2252 -2.4553
  123OSM   C10S12990   5.207   0.267   2.449  0.3827  0.6361 -0.4319
  123OSM   H10S12991   5.269   0.274   2.357  2.4315  0.4843  0.8694
  123OSM   H10T12992   5.106   0.231   2.420  0.3262  0.4182  0.0200
  123OSM   C11S12993   5.278   0.175   2.547  0.2408  0.1663  0.6727
  123OSM   H11S12994   5.383   0.213   2.546  1.7040 -3.4479  1.3647
  123OSM   H11T12995   5.286   0.077   2.495  1.8553  0.4797  0.2595
  123OSM   C12S12996   5.205   0.159   2.685  0.5049 -0.1855 -0.1110
  123OSM   H12S12997   5.116   0.093   2.673  0.7216 -1.0002  2.1620
  123OSM   H12T12998   5.182   0.260   2.726 -2.1191 -0.3110 -1.0701
  123OSM   C13S12999   5.297   0.090   2.793  0.1358  0.0129  0.9149
  123OSM   H13S13000   5.379   0.164   2.809  0.7036 -0.7207  1.4245
  123OSM   H13T13001   5.339  -0.005   2.754 -1.4184 -0.3459  0.0085
  123OSM   C14S13002   5.218   0.062   2.921 -0.1555  0.1602  0.4090
  123OSM   H14S13003   5.172  -0.036   2.895 -1.0306  0.7634 -0.3967
  123OSM   H14T13004   5.137   0.135   2.942 -1.2923 -1.3944  1.6615
  123OSM   C15S13005   5.297   0.055   3.050 -0.9096  0.3177 -0.8454
  123OSM   H15S13006   5.322   0.159   3.080  2.9203 -0.2326 -1.6227
  123OSM   H15T13007   5.394   0.002   3.032 -0.3081  0.2315  2.0815
  123OSM   C16S13008   5.215  -0.025   3.158 -0.4198 -0.1328  0.4974
  123OSM   H16S13009   5.232  -0.131   3.129 -0.3660 -0.1342  0.5323
  123OSM   H16T13010   5.109  -0.001   3.137  0.4133  1.7956 -2.0451
  123OSM   C17S13011   5.246   0.010   3.304 -0.0822 -0.4516 -0.0222
  123OSM   H17S13012   5.168  -0.046   3.362  0.5935 -2.3311 -0.8544
  123OSM   H17T13013   5.236   0.119   3.323  1.4900 -0.2311 -0.3843
  123OSM   C18S13014   5.385  -0.032   3.349  0.2721  0.0765 -0.2073
  123OSM   H18S13015   5.416  -0.126   3.299 -2.7520 -0.2824 -1.6015
  123OSM   H18T13016   5.387  -0.045   3.459  1.5332 -3.7681 -0.5588
  123OSM   H18U13017   5.467   0.039   3.323  1.0326 -0.7404 -0.1100
  123OSM    C1F13018   4.468   0.479   2.397  0.2775  0.9598 -0.7687
  123OSM     OF13019   4.389   0.387   2.386  0.5999 -0.3915 -0.5649
  123OSM    C2F13020   4.474   0.548   2.524 -0.6502 -0.0071  0.0866
  123OSM    H2F13021   4.407   0.637   2.529 -1.2167 -0.4531  0.5935
  123OSM    H2G13022   4.579   0.584   2.534 -0.6495 -0.1666  0.6983
  123OSM    C3F13023   4.428   0.456   2.644 -0.0434  0.5965 -0.1594
  123OSM    H3F13024   4.494   0.370   2.667 -0.8115 -0.4937 -1.8218
  123OSM    H3G13025   4.334   0.403   2.618  0.3777 -0.6434  0.7470
  123OSM    C4F13026   4.434   0.527   2.786  0.0511  0.2332 -0.4885
  123OSM    H4F13027   4.348   0.598   2.789 -0.4175 -0.3104 -0.7458
  123OSM    H4G13028   4.522   0.594   2.794 -1.1863  1.9690 -0.8604
  123OSM    C5F13029   4.412   0.431   2.908 -0.1416 -0.8178 -0.2380
  123OSM    H5F13030   4.484   0.348   2.890  0.0005 -1.4398  2.7114
  123OSM    H5G13031   4.307   0.394   2.916 -0.3752  0.2453  2.9538
  123OSM    C6F13032   4.452   0.500   3.041  0.0188 -0.0756  0.5050
  123OSM    H6F13033   4.387   0.589   3.048  0.7275  0.5415 -0.5343
  123OSM    H6G13034   4.560   0.526   3.043 -0.2403  0.9744  1.2665
  123OSM    C7F13035   4.432   0.425   3.171 -0.1034 -0.0042 -0.2485
  123OSM    H7F13036   4.469   0.321   3.156 -0.6865 -0.0487 -1.5055
  123OSM    H7G13037   4.324   0.398   3.170  0.3402 -1.9000 -1.1271
  123OSM    C8F13038   4.471   0.490   3.304  0.2457 -0.9608 -0.4410
  123OSM    H8F13039   4.431   0.593   3.313  0.6741 -0.5650 -2.6129
  123OSM    H8G13040   4.579   0.514   3.315 -0.1711  0.3670  1.1396
  123OSM    C9F13041   4.422   0.412   3.419  0.4110  0.8476 -0.1879
  123OSM    H9F13042   4.322   0.445   3.452  1.0184  1.2485  1.3176
  123OSM   C10F13043   4.491   0.309   3.479 -0.3365 -0.5418 -0.0510
  123OSM   H10F13044   4.439   0.246   3.553 -1.0337 -0.1890 -0.2280
  123OSM   C11F13045   4.624   0.254   3.432  0.2679 -0.0092  0.3633
  123OSM   H11F13046   4.666   0.325   3.357 -0.0989 -1.2148 -1.0286
  123OSM   H11G13047   4.609   0.154   3.387  3.6715 -0.2441 -0.5409
  123OSM   C12F13048   4.735   0.229   3.545 -0.1714  0.1701 -0.0906
  123OSM   H12F13049   4.773   0.324   3.588  3.7124 -1.5776  0.7503
  123OSM   H12G13050   4.813   0.165   3.499  0.0952  1.6300 -1.7735
  123OSM   C13F13051   4.672   0.148   3.659  0.5092 -0.6369  0.0824
  123OSM   H13F13052   4.608   0.074   3.606  0.2106  1.2768 -2.3969
  123OSM   H13G13053   4.604   0.218   3.713 -0.3601 -0.6444 -0.9665
  123OSM   C14F13054   4.768   0.066   3.735  0.5709  0.1748 -0.6978
  123OSM   H14F13055   4.850   0.129   3.775  2.0232 -0.1070 -3.0274
  123OSM   H14G13056   4.835   0.013   3.663  1.4705 -0.3967  0.5371
  123OSM   C15F13057   4.713  -0.038   3.830  0.1551  0.2399  0.0190
  123OSM   H15F13058   4.667  -0.128   3.784  1.7362  0.1687 -1.5611
  123OSM   H15G13059   4.623   0.005   3.878  0.6012  1.3526 -0.1169
  123OSM   C16F13060   4.797  -0.070   3.954 -0.7592  0.2745 -0.9416
  123OSM   H16F13061   4.737  -0.072   4.048  1.7939 -1.8475  0.7864
  123OSM   H16G13062   4.864   0.018   3.964 -1.0139  0.5356 -1.4648
  123OSM   C17F13063   4.884  -0.194   3.932 -0.3460  0.0283 -0.5154
  123OSM   H17F13064   4.945  -0.171   3.842  1.9621 -0.9011  0.7593
  123OSM   H17G13065   4.811  -0.277   3.922  0.8760 -1.1548  0.0931
  123OSM   C18F13066   4.990  -0.228   4.034  0.5701 -0.0920 -0.1413
  123OSM   H18F13067   5.069  -0.151   4.050  1.6986 -1.1704 -0.4338
  123OSM   H18G13068   5.030  -0.329   4.011  0.2120 -0.4268  0.6591
  123OSM   H18H13069   4.957  -0.236   4.140 -0.0168  0.9707 -0.2246
  124OSM      N13070   5.298   2.157   2.125  0.5500  0.0463 -0.1893
  124OSM    C1513071   5.368   2.285   2.137  0.0125 -0.6416  0.3858
  124OSM   H15A13072   5.475   2.279   2.124 -0.0936  0.8036 -1.5450
  124OSM   H15B13073   5.353   2.343   2.227  1.7944 -0.1499  0.3890
  124OSM   H15C13074   5.338   2.356   2.062  1.2017  1.8147  2.1117
  124OSM    C1413075   5.315   2.088   2.254  0.4488  0.1858 -0.6809
  124OSM   H14A13076   5.277   1.987   2.247 -0.6615  0.5767 -0.4259
  124OSM   H14B13077   5.250   2.124   2.332  0.6363 -0.9833  0.0364
  124OSM   H14C13078   5.412   2.066   2.295  0.2925  0.7521 -0.0045
  124OSM    C1313079   5.153   2.183   2.108  0.1816  0.1275  0.3127
  124OSM   H13A13080   5.130   2.241   2.020  0.5104 -0.1178  0.0680
  124OSM   H13B13081   5.104   2.239   2.187 -1.8981  1.0605 -1.5219
  124OSM   H13C13082   5.101   2.089   2.100  0.2013 -0.0562  1.8940
  124OSM    C1213083   5.350   2.064   2.013  0.5164  0.4110 -0.0814
  124OSM   H12A13084   5.334   2.121   1.923 -1.1431 -1.0826 -0.7774
  124OSM   H12B13085   5.282   1.980   2.021  0.3966  0.5129 -0.0173
  124OSM    C1113086   5.495   2.011   2.009  0.0497 -0.1366  0.0830
  124OSM   H11A13087   5.499   1.927   1.936 -1.4378 -2.1052  2.1166
  124OSM   H11B13088   5.519   1.975   2.111  2.8314  0.4050 -0.3111
  124OSM      P13089   5.733   2.109   2.001 -0.1274  0.5163  0.1597
  124OSM    O1313090   5.800   1.997   1.923 -0.1674 -0.6863 -0.1580
  124OSM    O1413091   5.792   2.241   1.980 -0.2851 -0.3545  0.2562
  124OSM    O1113092   5.730   2.081   2.152  0.6770  0.6265 -0.1236
  124OSM    O1213093   5.580   2.116   1.965 -0.0983  0.0949 -0.6979
  124OSM    C1S13094   5.671   2.164   2.250 -1.6331 -0.3169  0.5924
  124OSM    H1S13095   5.564   2.136   2.255 -1.0111 -3.0792  0.2842
  124OSM    H1T13096   5.666   2.272   2.224 -1.7675 -0.4764 -0.0631
  124OSM     NF13097   5.673   2.210   2.499  0.1267 -0.0069 -0.2450
  124OSM    HNF13098   5.717   2.285   2.547 -0.0748 -0.5525  0.8171
  124OSM    C2S13099   5.746   2.142   2.386  0.3426  0.5358  0.2839
  124OSM    H2S13100   5.743   2.031   2.397  0.9563  0.4628 -0.2085
  124OSM    C3S13101   5.895   2.173   2.380  0.1425 -0.4919  0.3194
  124OSM    H3S13102   5.903   2.279   2.347  0.9121 -0.7197 -0.2445
  124OSM     O313103   5.966   2.105   2.280 -0.6280 -0.1774  0.6373
  124OSM    HO313104   5.894   2.073   2.225  0.5016 -0.5277 -0.6691
  124OSM    C4S13105   5.963   2.161   2.515 -0.3431 -0.2513 -0.2178
  124OSM    H4S13106   5.982   2.250   2.578  1.7380 -0.6852 -0.1557
  124OSM    C5S13107   6.020   2.043   2.556 -0.3560  0.6437  0.2896
  124OSM    H5S13108   6.007   1.957   2.490 -1.9395  1.2316 -0.2355
  124OSM    C6S13109   6.102   2.017   2.678 -0.5842 -0.3221  0.4132
  124OSM    H6S13110   6.210   2.037   2.663 -0.8013  0.6571  0.1215
  124OSM    H6T13111   6.090   1.909   2.704 -0.9014 -0.0568  1.3903
  124OSM    C7S13112   6.063   2.098   2.799  0.1253 -0.0225 -0.2075
  124OSM    H7S13113   5.955   2.083   2.817  0.1936  0.1571  0.3667
  124OSM    H7T13114   6.084   2.207   2.790 -1.0590  0.1957 -0.5207
  124OSM    C8S13115   6.116   2.039   2.930 -0.3589 -0.1950  0.0404
  124OSM    H8S13116   6.226   2.030   2.923 -0.5628 -2.0064 -1.8745
  124OSM    H8T13117   6.067   1.939   2.921  0.9180 -0.9932  1.3903
  124OSM    C9S13118   6.081   2.110   3.056  0.1154  0.1033  0.0272
  124OSM    H9S13119   5.970   2.121   3.059 -0.1796 -2.1690 -0.6634
  124OSM    H9T13120   6.131   2.209   3.055  1.6143 -0.6105  0.7215
  124OSM   C10S13121   6.135   2.038   3.180  0.4894 -0.2716 -0.9309
  124OSM   H10S13122   6.246   2.044   3.176  0.5035 -0.5780 -1.0405
  124OSM   H10T13123   6.103   1.931   3.182 -0.3049 -0.2019 -4.2353
  124OSM   C11S13124   6.089   2.101   3.314 -0.2272  0.4836  0.0922
  124OSM   H11S13125   6.111   2.016   3.381  0.2725  2.0450  2.0057
  124OSM   H11T13126   5.980   2.121   3.308 -0.0409  1.2942 -1.0868
  124OSM   C12S13127   6.160   2.235   3.356 -0.5283  0.5384  0.2157
  124OSM   H12S13128   6.154   2.306   3.271 -0.9609  0.6336  0.3208
  124OSM   H12T13129   6.256   2.186   3.380 -0.0107 -0.0975 -2.8381
  124OSM   C13S13130   6.113   2.295   3.483  1.2587 -0.3723  0.4572
  124OSM   H13S13131   6.014   2.342   3.465  0.5136 -1.3234  1.8195
  124OSM   H13T13132   6.174   2.381   3.518 -0.1115  1.0383 -0.4757
  124OSM   C14S13133   6.092   2.196   3.603 -0.8695  0.2993 -0.6128
  124OSM   H14S13134   6.180   2.130   3.587 -1.3058 -1.3173  2.6172
  124OSM   H14T13135   6.007   2.124   3.612  0.1029 -0.8242 -0.1103
  124OSM   C15S13136   6.121   2.277   3.736  0.6051 -0.3046  0.5698
  124OSM   H15S13137   6.045   2.356   3.751  0.5173 -0.3401  0.3180
  124OSM   H15T13138   6.224   2.318   3.739  0.1779  1.2556 -2.3620
  124OSM   C16S13139   6.097   2.189   3.858  0.4502 -0.2972 -0.1222
  124OSM   H16S13140   6.169   2.108   3.833  0.3681 -0.9146  1.5631
  124OSM   H16T13141   5.990   2.163   3.866  0.2433  1.1402  3.9575
  124OSM   C17S13142   6.135   2.261   3.986  0.0736 -0.0643  0.2779
  124OSM   H17S13143   6.059   2.340   3.999  1.1624  1.4005 -1.6010
  124OSM   H17T13144   6.230   2.315   3.965 -0.4996  0.5740 -0.7298
  124OSM   C18S13145   6.145   2.174   4.106  0.3930 -0.2385 -0.3998
  124OSM   H18S13146   6.159   2.229   4.201  0.4925 -0.1258 -0.4792
  124OSM   H18T13147   6.231   2.104   4.105  0.6986  0.0623  1.5350
  124OSM   H18U13148   6.050   2.116   4.106  0.3980 -0.2469  0.0380
  124OSM    C1F13149   5.555   2.169   2.536  0.4415  1.4383 -0.4330
  124OSM     OF13150   5.516   2.063   2.481  0.5785 -0.6999 -0.5324
  124OSM    C2F13151   5.475   2.260   2.627  0.2546  0.0598 -0.0212
  124OSM    H2F13152   5.386   2.299   2.574  1.0420  3.1763  0.7642
  124OSM    H2G13153   5.541   2.344   2.656  0.0664 -0.4531  2.0136
  124OSM    C3F13154   5.430   2.174   2.753 -0.1105 -0.1723 -0.1166
  124OSM    H3F13155   5.518   2.148   2.815  1.8713  1.7373 -2.0020
  124OSM    H3G13156   5.387   2.077   2.717  1.6922 -0.2313 -2.3366
  124OSM    C4F13157   5.325   2.245   2.841 -0.4864  0.5853  0.5236
  124OSM    H4F13158   5.248   2.277   2.767 -1.6551  3.8512  2.9028
  124OSM    H4G13159   5.361   2.339   2.888  1.1677  0.0233  0.4520
  124OSM    C5F13160   5.262   2.159   2.952  0.1183 -0.1656  0.3915
  124OSM    H5F13161   5.257   2.054   2.918  0.0904  1.3640 -5.2032
  124OSM    H5G13162   5.156   2.189   2.961  0.2019  0.7174 -1.1980
  124OSM    C6F13163   5.326   2.163   3.093 -0.6876  0.4500  0.1730
  124OSM    H6F13164   5.325   2.267   3.131 -0.1085  1.4379 -2.3059
  124OSM    H6G13165   5.434   2.139   3.088 -0.9773 -0.8030 -0.5223
  124OSM    C7F13166   5.260   2.061   3.190 -0.0796 -0.3841 -0.9590
  124OSM    H7F13167   5.298   1.961   3.160  0.6154 -0.7714  1.0640
  124OSM    H7G13168   5.152   2.059   3.166 -0.6134 -2.2376  1.3053
  124OSM    C8F13169   5.291   2.076   3.339  0.6233  0.6044 -0.4603
  124OSM    H8F13170   5.284   2.184   3.365  1.1969  0.4144  0.5270
  124OSM    H8G13171   5.399   2.051   3.347  0.8895  1.0087 -2.3823
  124OSM    C9F13172   5.212   1.982   3.430  0.5261  0.3862 -0.6345
  124OSM    H9F13173   5.214   1.876   3.402  1.9899 -0.5586  2.5852
  124OSM   C10F13174   5.140   2.016   3.533 -0.2559  0.6201 -0.6583
  124OSM   H10F13175   5.099   1.931   3.589  1.4831 -0.0630 -0.3513
  124OSM   C11F13176   5.123   2.155   3.597 -0.3725  0.6888 -0.5586
  124OSM   H11F13177   5.017   2.169   3.626 -0.3028  1.3654 -0.6116
  124OSM   H11G13178   5.148   2.233   3.522 -1.0554  3.5719  1.9715
  124OSM   C12F13179   5.222   2.186   3.712 -0.1585 -0.8879 -0.1948
  124OSM   H12F13180   5.202   2.293   3.734  0.3152 -0.7295 -0.5042
  124OSM   H12G13181   5.325   2.172   3.672  0.3243  0.2816  0.5623
  124OSM   C13F13182   5.196   2.100   3.832 -0.2503  0.4137 -0.7608
  124OSM   H13F13183   5.218   1.992   3.819 -1.8893  0.0452 -0.6650
  124OSM   H13G13184   5.085   2.096   3.834 -0.3470  1.4624  2.6093
  124OSM   C14F13185   5.254   2.147   3.973 -0.3494  0.2684 -0.2102
  124OSM   H14F13186   5.270   2.256   3.977  0.6156  0.1213  0.1829
  124OSM   H14G13187   5.351   2.099   3.999 -0.2225  0.8519  0.4211
  124OSM   C15F13188   5.162   2.117   4.092 -0.2641 -0.2641 -0.2219
  124OSM   H15F13189   5.138   2.009   4.100  3.0209 -0.9735  1.8462
  124OSM   H15G13190   5.065   2.171   4.082 -0.1272  0.2420  0.9547
  124OSM   C16F13191   5.229   2.163   4.227  0.0650 -0.1452 -0.1481
  124OSM   H16F13192   5.316   2.097   4.246  0.5261  1.0041  2.0543
  124OSM   H16G13193   5.158   2.148   4.311 -1.3152  2.1040 -0.8189
  124OSM   C17F13194   5.256   2.311   4.229 -0.7828  0.3233 -0.0506
  124OSM   H17F13195   5.174   2.365   4.177  1.8798  1.9911 -2.8796
  124OSM   H17G13196   5.344   2.332   4.164 -0.7495  1.0061  0.2082
  124OSM   C18F13197   5.280   2.384   4.359  0.2808  0.2090 -0.2159
  124OSM   H18F13198   5.383   2.366   4.397  0.5359  0.5198 -0.7520
  124OSM   H18G13199   5.205   2.343   4.430  0.4204  0.6722  0.2055
  124OSM   H18H13200   5.259   2.493   4.362 -0.9486 -0.0383  1.3690
  125OSM      N13201   6.743   6.081   2.225  0.6938 -0.3529  0.1388
  125OSM    C1513202   6.617   5.998   2.252 -0.3582 -0.3551  0.1506
  125OSM   H15A13203   6.641   5.915   2.317 -0.3404  0.4990  1.2630
  125OSM   H15B13204   6.587   5.958   2.156 -0.9559  3.1942 -1.3279
  125OSM   H15C13205   6.533   6.055   2.289 -0.5094 -0.3953 -0.1275
  125OSM    C1413206   6.839   5.992   2.153  0.1237  0.2554 -0.1446
  125OSM   H14A13207   6.877   5.917   2.221 -0.6926  0.6202  0.7298
  125OSM   H14B13208   6.924   6.054   2.127  0.5332 -0.8020 -1.4752
  125OSM   H14C13209   6.786   5.949   2.069 -0.2643  1.0523 -0.3139
  125OSM    C1313210   6.702   6.191   2.123 -0.2983 -0.5407 -0.6497
  125OSM   H13A13211   6.654   6.266   2.184  2.1034 -0.5407  1.4178
  125OSM   H13B13212   6.643   6.151   2.042 -0.7446 -0.0391 -0.5740
  125OSM   H13C13213   6.784   6.247   2.080 -2.1255  0.0762 -3.6178
  125OSM    C1213214   6.784   6.139   2.354  0.5514 -0.0589 -0.5268
  125OSM   H12A13215   6.843   6.228   2.335 -0.1343  0.5696  0.2272
  125OSM   H12B13216   6.846   6.062   2.397  2.3216 -0.1414 -3.0075
  125OSM    C1113217   6.675   6.184   2.451 -0.2664  0.1533  0.5477
  125OSM   H11A13218   6.728   6.241   2.531  1.1523  2.4190 -1.8588
  125OSM   H11B13219   6.633   6.095   2.503  1.8505 -0.5524  1.1757
  125OSM      P13220   6.604   6.433   2.387 -0.3199  0.0544  0.1151
  125OSM    O1313221   6.720   6.468   2.467 -0.0375 -0.1886 -0.4378
  125OSM    O1413222   6.604   6.497   2.256 -0.2207 -0.2518  0.0140
  125OSM    O1113223   6.478   6.486   2.467  0.0498 -0.0626  0.1786
  125OSM    O1213224   6.582   6.272   2.377  0.2832  0.3146  1.0008
  125OSM    C1S13225   6.458   6.453   2.610  0.1579 -0.0872  0.4741
  125OSM    H1S13226   6.550   6.420   2.663  1.5144  4.2821  1.2241
  125OSM    H1T13227   6.382   6.373   2.627  0.4776 -0.0106  2.5747
  125OSM     NF13228   6.428   6.574   2.842 -0.1437  0.8621 -0.1289
  125OSM    HNF13229   6.345   6.536   2.882 -0.3161 -2.0817 -2.8762
  125OSM    C2S13230   6.417   6.585   2.693 -0.3593  0.4560 -0.2543
  125OSM    H2S13231   6.492   6.657   2.654 -0.8332 -0.0715 -2.2719
  125OSM    C3S13232   6.279   6.630   2.645  0.7647 -0.3084  0.9263
  125OSM    H3S13233   6.208   6.565   2.700 -1.8962  0.7777 -0.9902
  125OSM     O313234   6.249   6.594   2.510 -0.0618 -0.2903 -0.4133
  125OSM    HO313235   6.310   6.524   2.487  0.2009 -0.9758  2.0835
  125OSM    C4S13236   6.238   6.764   2.684  0.1076  0.0788  1.0371
  125OSM    H4S13237   6.285   6.838   2.617  0.5661  0.1844  1.4648
  125OSM    C5S13238   6.150   6.802   2.775 -0.2755  0.3664  0.5384
  125OSM    H5S13239   6.096   6.733   2.841  0.0538  1.1920  1.7117
  125OSM    C6S13240   6.112   6.948   2.798  0.0701  0.5583 -0.0525
  125OSM    H6S13241   6.007   6.977   2.778 -0.9095 -1.4019  1.7950
  125OSM    H6T13242   6.173   7.022   2.741  0.9030  0.6123  0.8773
  125OSM    C7S13243   6.152   6.989   2.938 -0.5839 -0.3072 -0.3538
  125OSM    H7S13244   6.262   6.984   2.950 -0.5770  0.7427  0.1472
  125OSM    H7T13245   6.114   6.917   3.014  0.1012 -0.4086 -0.0967
  125OSM    C8S13246   6.099   7.120   2.985  1.2352 -0.2615 -0.3019
  125OSM    H8S13247   5.990   7.112   3.001  0.9609  1.7340 -0.9158
  125OSM    H8T13248   6.109   7.193   2.902  0.4336 -0.8461 -0.9319
  125OSM    C9S13249   6.179   7.179   3.098  0.2009  0.3443  0.2677
  125OSM    H9S13250   6.269   7.226   3.054 -1.1886  3.1779  0.2198
  125OSM    H9T13251   6.206   7.100   3.171 -1.5058 -0.3979  0.1512
  125OSM   C10S13252   6.108   7.297   3.166 -0.7177 -0.6452  0.1842
  125OSM   H10S13253   6.009   7.261   3.199 -0.1197 -3.2140 -0.5892
  125OSM   H10T13254   6.107   7.372   3.084  3.2398 -0.2487  0.2723
  125OSM   C11S13255   6.187   7.348   3.287 -0.2724 -0.4301 -0.6918
  125OSM   H11S13256   6.261   7.422   3.249 -0.4573  0.3442  0.4242
  125OSM   H11T13257   6.249   7.266   3.330  1.3442  0.8216 -0.5250
  125OSM   C12S13258   6.093   7.399   3.390 -0.0995 -0.0201  0.2697
  125OSM   H12S13259   6.016   7.322   3.411  0.3784 -0.3236  0.9684
  125OSM   H12T13260   6.041   7.490   3.352  2.0883  1.1586 -0.0805
  125OSM   C13S13261   6.172   7.441   3.511  0.1340  0.4265 -0.3280
  125OSM   H13S13262   6.227   7.536   3.493  0.1348  0.3851 -0.5514
  125OSM   H13T13263   6.250   7.364   3.533 -2.6638 -2.9238 -1.1809
  125OSM   C14S13264   6.077   7.445   3.635  0.3678 -0.0591 -0.0807
  125OSM   H14S13265   5.990   7.378   3.619 -0.7744  0.3897  3.4103
  125OSM   H14T13266   6.041   7.550   3.635  0.0539 -0.1613 -0.5766
  125OSM   C15S13267   6.151   7.412   3.758  0.0962  0.6936  0.2552
  125OSM   H15S13268   6.239   7.474   3.783  1.0987 -0.5666 -0.0442
  125OSM   H15T13269   6.189   7.309   3.744 -1.7572 -0.0889  0.6236
  125OSM   C16S13270   6.051   7.408   3.875 -0.1867 -0.3500  0.1453
  125OSM   H16S13271   6.093   7.353   3.962  0.9220  0.5155  0.1898
  125OSM   H16T13272   5.958   7.354   3.848 -0.5050 -0.6479  1.7131
  125OSM   C17S13273   5.999   7.541   3.926 -0.3091 -0.3369  0.1358
  125OSM   H17S13274   5.941   7.592   3.845 -0.6958  0.0112  0.6241
  125OSM   H17T13275   6.086   7.602   3.958 -1.1798  0.1903  1.6094
  125OSM   C18S13276   5.906   7.531   4.045  0.2354  0.2345 -0.5951
  125OSM   H18S13277   5.810   7.485   4.014  0.3104  0.4245 -1.1102
  125OSM   H18T13278   5.882   7.633   4.082 -1.1820  0.2196 -1.4293
  125OSM   H18U13279   5.951   7.476   4.130  2.1489 -0.5688 -2.0563
  125OSM    C1F13280   6.543   6.573   2.915 -0.6270  0.6173  0.7960
  125OSM     OF13281   6.643   6.600   2.848  0.1935 -0.2143 -0.3017
  125OSM    C2F13282   6.547   6.535   3.060 -0.2538 -0.5974 -0.0199
  125OSM    H2F13283   6.522   6.427   3.069  2.7310 -1.3513  0.3412
  125OSM    H2G13284   6.475   6.600   3.114 -0.3901  0.7123 -1.7123
  125OSM    C3F13285   6.685   6.560   3.131  0.3194  1.3381  1.0888
  125OSM    H3F13286   6.716   6.665   3.111  1.4542  0.6965 -0.9302
  125OSM    H3G13287   6.769   6.502   3.087  1.4791  1.5222  2.9647
  125OSM    C4F13288   6.676   6.531   3.285 -0.1772 -0.0475  0.3129
  125OSM    H4F13289   6.780   6.532   3.323  0.3786 -0.2296 -1.1110
  125OSM    H4G13290   6.627   6.432   3.293 -0.1556 -0.0143  0.8335
  125OSM    C5F13291   6.616   6.645   3.367  0.0825  0.2575 -0.4458
  125OSM    H5F13292   6.506   6.638   3.348 -0.1086  1.1832  0.2734
  125OSM    H5G13293   6.670   6.733   3.326  1.9495 -1.4834 -1.9794
  125OSM    C6F13294   6.643   6.621   3.512  0.2277  0.3466 -0.0146
  125OSM    H6F13295   6.605   6.707   3.571  0.1337 -0.5858  1.3172
  125OSM    H6G13296   6.752   6.612   3.535  0.8376  0.8044 -2.3814
  125OSM    C7F13297   6.576   6.493   3.565 -0.1254  0.2296  0.3015
  125OSM    H7F13298   6.659   6.421   3.582 -1.7105 -1.7401  0.0653
  125OSM    H7G13299   6.505   6.455   3.489  0.8152  0.0988 -0.5385
  125OSM    C8F13300   6.501   6.508   3.698  0.3982  0.0058 -0.4477
  125OSM    H8F13301   6.572   6.547   3.774 -0.2796  0.9045 -0.2555
  125OSM    H8G13302   6.469   6.408   3.734 -0.6885  0.0446 -1.2613
  125OSM    C9F13303   6.375   6.592   3.697  0.0841  0.2098 -0.1083
  125OSM    H9F13304   6.392   6.674   3.627 -0.0451  1.2547  1.0447
  125OSM   C10F13305   6.257   6.581   3.771  0.5767  0.3279  0.2739
  125OSM   H10F13306   6.169   6.646   3.756 -0.5535 -1.4659 -1.3839
  125OSM   C11F13307   6.232   6.476   3.867 -0.1855  0.0101  0.0784
  125OSM   H11F13308   6.279   6.507   3.963 -1.5404 -0.5668  0.9649
  125OSM   H11G13309   6.288   6.388   3.829  0.3338  0.8170 -1.0753
  125OSM   C12F13310   6.084   6.443   3.883  0.0310  0.1518  0.1046
  125OSM   H12F13311   6.022   6.534   3.899 -0.3707 -0.4782  2.4199
  125OSM   H12G13312   6.074   6.402   3.985 -0.3957 -0.6166 -0.2330
  125OSM   C13F13313   6.038   6.345   3.774  0.1568 -0.4760  0.1762
  125OSM   H13F13314   6.079   6.246   3.804 -0.2214 -0.5044  0.5965
  125OSM   H13G13315   6.081   6.370   3.674  0.9641 -0.2800  0.5592
  125OSM   C14F13316   5.883   6.353   3.754  0.3539  0.4634  0.0846
  125OSM   H14F13317   5.857   6.285   3.670  0.1586 -0.0442  0.5473
  125OSM   H14G13318   5.853   6.458   3.733  2.2313  0.5373 -2.7186
  125OSM   C15F13319   5.804   6.297   3.873 -0.2205 -0.0259  0.6534
  125OSM   H15F13320   5.829   6.346   3.969  0.9876  1.0378 -0.1697
  125OSM   H15G13321   5.825   6.192   3.900 -0.2580 -0.1147  0.3486
  125OSM   C16F13322   5.647   6.306   3.846  0.0521 -0.2852  0.1134
  125OSM   H16F13323   5.635   6.263   3.744  0.2065 -0.0152 -0.0218
  125OSM   H16G13324   5.616   6.413   3.837  0.7268 -0.0379  0.6413
  125OSM   C17F13325   5.558   6.241   3.949 -0.6923  0.4590  0.2523
  125OSM   H17F13326   5.611   6.144   3.960  1.3306  1.5087  0.1894
  125OSM   H17G13327   5.457   6.225   3.906 -0.1258  0.0003 -0.9563
  125OSM   C18F13328   5.548   6.314   4.078  0.4717  0.1798 -0.8393
  125OSM   H18F13329   5.496   6.410   4.061  1.8419  1.1301  0.1736
  125OSM   H18G13330   5.648   6.326   4.125 -1.3461 -0.9153  3.9572
  125OSM   H18H13331   5.485   6.251   4.145  1.6644  0.1652  0.3136
  126OSM      N13332   4.285   0.004   2.113 -0.0459 -0.0820 -0.1237
  126OSM    C1513333   4.308   0.069   2.241 -0.0837 -0.6228 -0.4494
  126OSM   H15A13334   4.225   0.060   2.309 -1.1296  2.7937 -1.0450
  126OSM   H15B13335   4.324   0.176   2.235 -3.5880  0.0507 -0.1359
  126OSM   H15C13336   4.398   0.032   2.287  0.8915  0.4042 -1.4470
  126OSM    C1413337   4.285  -0.150   2.131 -0.5339 -0.8943 -0.7586
  126OSM   H14A13338   4.384  -0.190   2.143 -1.2318 -2.7443 -0.8641
  126OSM   H14B13339   4.246  -0.206   2.047 -0.4875 -1.4464 -0.4146
  126OSM   H14C13340   4.231  -0.171   2.222  0.4025 -3.3912 -0.6899
  126OSM    C1313341   4.153   0.046   2.046 -0.1491  0.5974  0.1419
  126OSM   H13A13342   4.123  -0.023   1.968 -1.0219 -1.2933  2.0301
  126OSM   H13B13343   4.161   0.147   2.009  1.3142  0.0789 -1.0540
  126OSM   H13C13344   4.073   0.038   2.118 -0.2670  2.3381  0.2485
  126OSM    C1213345   4.391   0.053   2.020 -0.5474 -0.1112  0.5776
  126OSM   H12A13346   4.376   0.158   2.001 -0.9861  0.0759  1.8496
  126OSM   H12B13347   4.367   0.011   1.924 -0.2543 -0.8097  0.8001
  126OSM    C1113348   4.540   0.013   2.047  0.2201 -0.3468 -0.8737
  126OSM   H11A13349   4.565   0.048   2.149 -1.4022  1.0895 -0.9168
  126OSM   H11B13350   4.590   0.084   1.979  0.9283  2.9253  2.7087
  126OSM      P13351   4.705  -0.193   2.004 -0.1361 -0.1273  0.2560
  126OSM    O1313352   4.705  -0.340   2.013 -0.1596  0.7260 -0.2698
  126OSM    O1413353   4.772  -0.131   1.886  0.2008 -0.1438 -0.5891
  126OSM    O1113354   4.776  -0.129   2.131  0.2251  0.2358  0.0088
  126OSM    O1213355   4.555  -0.130   2.020 -0.8095 -0.1180  0.0748
  126OSM    C1S13356   4.742  -0.178   2.263 -0.0891  0.1869 -0.1455
  126OSM    H1S13357   4.781  -0.281   2.271 -0.7908 -0.3446 -2.7441
  126OSM    H1T13358   4.633  -0.181   2.282 -0.2757  1.7559 -0.8037
  126OSM     NF13359   4.760  -0.149   2.496  0.2358 -0.4021  0.5294
  126OSM    HNF13360   4.690  -0.097   2.543  1.1726 -0.6095  2.2371
  126OSM    C2S13361   4.808  -0.090   2.367 -0.0634  0.0883  0.1286
  126OSM    H2S13362   4.919  -0.094   2.353 -0.2921 -0.1212 -1.8974
  126OSM    C3S13363   4.771   0.058   2.349 -0.1406  0.6770 -0.3011
  126OSM    H3S13364   4.661   0.075   2.356 -0.1245  0.0874  1.8439
  126OSM     O313365   4.803   0.117   2.222 -0.4459  0.0893  0.3102
  126OSM    HO313366   4.800   0.035   2.172 -1.9301  0.2181  0.1369
  126OSM    C4S13367   4.834   0.140   2.459  0.1442 -0.4415 -0.2335
  126OSM    H4S13368   4.943   0.126   2.459  0.4246  0.9826  2.7805
  126OSM    C5S13369   4.770   0.230   2.544  0.2932 -0.0438  0.3893
  126OSM    H5S13370   4.665   0.259   2.532  0.3373 -0.1830 -0.3671
  126OSM    C6S13371   4.845   0.313   2.637 -1.2097  0.6011 -0.1841
  126OSM    H6S13372   4.820   0.419   2.612 -2.4057  0.5131  0.5430
  126OSM    H6T13373   4.952   0.299   2.610 -1.8721 -2.2035 -1.6599
  126OSM    C7S13374   4.825   0.278   2.786  0.4866 -0.1572 -0.0610
  126OSM    H7S13375   4.857   0.174   2.808  1.5829  0.3894  1.0537
  126OSM    H7T13376   4.719   0.286   2.819  0.4043 -1.3199 -0.0043
  126OSM    C8S13377   4.907   0.369   2.868  0.4276  0.3039  0.5717
  126OSM    H8S13378   4.880   0.476   2.852  0.6238  0.4049  0.9035
  126OSM    H8T13379   5.010   0.344   2.836  0.0980 -1.4195  0.7937
  126OSM    C9S13380   4.898   0.336   3.015 -0.6010 -0.3045 -0.7875
  126OSM    H9S13381   4.919   0.229   3.035  0.1028 -0.6940 -3.2950
  126OSM    H9T13382   4.798   0.361   3.055  0.1812  2.7909 -0.4950
  126OSM   C10S13383   5.015   0.407   3.093 -0.5979 -0.3197  0.7525
  126OSM   H10S13384   5.013   0.517   3.078  1.1625 -0.4778 -1.1067
  126OSM   H10T13385   5.116   0.375   3.058  0.6404  2.2323  1.7687
  126OSM   C11S13386   5.012   0.362   3.238 -0.0405 -0.4886 -0.3799
  126OSM   H11S13387   5.017   0.251   3.240 -0.0838 -0.5001 -0.9578
  126OSM   H11T13388   4.925   0.399   3.297  0.6386 -0.6898  0.7917
  126OSM   C12S13389   5.131   0.411   3.320  0.1159 -0.4060  0.0277
  126OSM   H12S13390   5.156   0.519   3.326  0.2238 -0.4610  0.6730
  126OSM   H12T13391   5.222   0.376   3.266  0.5703 -1.3668  1.3666
  126OSM   C13S13392   5.123   0.354   3.464  0.6342 -0.0933 -0.1854
  126OSM   H13S13393   5.091   0.247   3.468 -0.0889  0.1400  0.9613
  126OSM   H13T13394   5.054   0.409   3.532 -0.1481 -0.7857 -0.3971
  126OSM   C14S13395   5.262   0.353   3.524 -0.2422  0.5925  0.6156
  126OSM   H14S13396   5.317   0.449   3.521  1.4920 -0.3609  0.3393
  126OSM   H14T13397   5.323   0.277   3.472  1.6944  0.8708  2.3502
  126OSM   C15S13398   5.257   0.317   3.676 -0.5111 -0.0487  0.3132
  126OSM   H15S13399   5.203   0.396   3.733  1.4597 -0.4048  2.8787
  126OSM   H15T13400   5.365   0.318   3.702  0.3226 -0.0387 -2.8351
  126OSM   C16S13401   5.194   0.183   3.708  0.9014 -0.6062 -0.2903
  126OSM   H16S13402   5.232   0.107   3.637  0.1093 -0.8311 -0.4718
  126OSM   H16T13403   5.087   0.200   3.686  0.4860  1.3226  2.6617
  126OSM   C17S13404   5.216   0.152   3.855 -0.0609  0.0563  0.2795
  126OSM   H17S13405   5.326   0.140   3.866  0.1564  0.7688 -0.9531
  126OSM   H17T13406   5.177   0.050   3.875  1.7595 -0.8950 -0.7722
  126OSM   C18S13407   5.171   0.254   3.946 -0.2003  0.0763 -0.3756
  126OSM   H18S13408   5.253   0.327   3.965  0.0738 -0.3162 -0.0539
  126OSM   H18T13409   5.143   0.204   4.041  1.6680  1.0726  0.7543
  126OSM   H18U13410   5.091   0.317   3.901  1.2866  1.6245 -0.9683
  126OSM    C1F13411   4.816  -0.264   2.544 -0.2337 -0.4336  0.2169
  126OSM     OF13412   4.907  -0.317   2.481  0.3359  0.3799 -0.9567
  126OSM    C2F13413   4.773  -0.319   2.679  0.1309 -0.4721  0.3381
  126OSM    H2F13414   4.738  -0.425   2.677  0.4848 -0.6240  1.3987
  126OSM    H2G13415   4.690  -0.262   2.727  1.6557 -0.7817  3.6363
  126OSM    C3F13416   4.890  -0.320   2.775 -0.0986  0.1691  0.2215
  126OSM    H3F13417   4.986  -0.353   2.731 -1.1268 -0.7577 -1.4601
  126OSM    H3G13418   4.868  -0.391   2.857  1.6903 -1.8087 -0.9330
  126OSM    C4F13419   4.948  -0.187   2.819 -0.0981 -0.1208  0.0282
  126OSM    H4F13420   4.976  -0.117   2.737 -1.3581 -0.7803 -1.0124
  126OSM    H4G13421   5.039  -0.219   2.873  1.2232  1.5617 -1.0693
  126OSM    C5F13422   4.854  -0.116   2.914 -0.3444 -0.9799 -0.4402
  126OSM    H5F13423   4.759  -0.098   2.859 -0.0824  0.4965 -0.4514
  126OSM    H5G13424   4.906  -0.020   2.936  1.8028 -2.3148  0.6966
  126OSM    C6F13425   4.824  -0.188   3.041 -1.2134 -0.9199 -0.5714
  126OSM    H6F13426   4.922  -0.199   3.093 -1.8483  0.1145  0.8826
  126OSM    H6G13427   4.781  -0.288   3.021 -0.1733 -1.6048  0.4650
  126OSM    C7F13428   4.732  -0.099   3.129  0.0315  0.3479  0.5101
  126OSM    H7F13429   4.636  -0.102   3.073  1.5770 -0.0272 -2.2973
  126OSM    H7G13430   4.781  -0.001   3.142  1.9887 -0.4034 -0.7657
  126OSM    C8F13431   4.704  -0.160   3.271 -0.1361 -0.0670  0.6896
  126OSM    H8F13432   4.652  -0.257   3.255  0.6942 -0.4533  0.2636
  126OSM    H8G13433   4.642  -0.091   3.331 -1.4448  0.6100 -1.3380
  126OSM    C9F13434   4.827  -0.189   3.351 -0.0317 -0.2697  0.1794
  126OSM    H9F13435   4.898  -0.106   3.342 -2.3200  1.8850  0.8546
  126OSM   C10F13436   4.872  -0.303   3.405 -0.3229  0.5745 -0.1670
  126OSM   H10F13437   4.964  -0.300   3.465 -0.9520 -0.0421  0.8584
  126OSM   C11F13438   4.806  -0.437   3.417 -0.5739  0.0156  0.5733
  126OSM   H11F13439   4.884  -0.516   3.403  2.3910  2.8585 -0.2889
  126OSM   H11G13440   4.726  -0.445   3.341 -1.3485  0.4559  1.3331
  126OSM   C12F13441   4.738  -0.474   3.546  0.0146  0.1384 -0.2968
  126OSM   H12F13442   4.811  -0.490   3.629 -1.8250  1.0864  1.6128
  126OSM   H12G13443   4.689  -0.573   3.533  0.8758 -0.1309 -1.6657
  126OSM   C13F13444   4.636  -0.371   3.587  0.8934  0.2106 -0.3283
  126OSM   H13F13445   4.545  -0.386   3.525  0.9829 -1.6902 -0.0446
  126OSM   H13G13446   4.675  -0.267   3.577  1.6057 -0.0000  0.2284
  126OSM   C14F13447   4.578  -0.388   3.731 -0.1059  0.6625  0.4373
  126OSM   H14F13448   4.655  -0.375   3.810 -0.3457 -0.6868  0.9169
  126OSM   H14G13449   4.542  -0.493   3.736 -3.3972  1.6875  1.2787
  126OSM   C15F13450   4.441  -0.316   3.761  0.3523 -0.1954  0.2730
  126OSM   H15F13451   4.374  -0.339   3.675 -0.2568  1.6443  0.2173
  126OSM   H15G13452   4.452  -0.206   3.764  0.7377 -0.2576  2.7053
  126OSM   C16F13453   4.389  -0.353   3.897  0.8225 -0.2970  0.0109
  126OSM   H16F13454   4.387  -0.463   3.910 -1.7959 -0.7571 -3.1422
  126OSM   H16G13455   4.285  -0.313   3.901  0.7207 -0.5956  0.3836
  126OSM   C17F13456   4.465  -0.290   4.019 -0.5591 -0.5639  0.5976
  126OSM   H17F13457   4.453  -0.180   4.006 -0.7562 -0.4671  1.5487
  126OSM   H17G13458   4.573  -0.311   4.000 -0.3467  1.5970 -0.9679
  126OSM   C18F13459   4.409  -0.329   4.158 -0.7800 -0.5542 -0.2133
  126OSM   H18F13460   4.400  -0.440   4.160 -1.8838 -0.5067 -1.3771
  126OSM   H18G13461   4.301  -0.304   4.164 -0.5108  0.8142 -0.7940
  126OSM   H18H13462   4.467  -0.283   4.241 -1.7638  0.1303  0.1069
  127OSM      N13463   3.200   1.236   1.968  0.3127 -0.7219 -0.2874
  127OSM    C1513464   3.145   1.304   2.090  0.3153  0.4527  0.2369
  127OSM   H15A13465   3.226   1.324   2.158 -0.3700  2.1722  0.6078
  127OSM   H15B13466   3.074   1.229   2.122 -0.7609  1.4342  0.2412
  127OSM   H15C13467   3.098   1.398   2.063 -1.9290 -0.8055 -0.5386
  127OSM    C1413468   3.090   1.204   1.873  0.4526  0.2259  0.5570
  127OSM   H14A13469   3.131   1.166   1.780 -1.5922 -0.7020 -0.0227
  127OSM   H14B13470   3.024   1.288   1.866  2.5940  2.1952  2.3282
  127OSM   H14C13471   3.033   1.120   1.911  2.6097 -1.9963 -0.7650
  127OSM    C1313472   3.291   1.326   1.885 -0.2381  0.0457  0.9400
  127OSM   H13A13473   3.375   1.368   1.939 -0.6948  0.3978  1.3995
  127OSM   H13B13474   3.236   1.413   1.851  0.1939  0.2830  0.8484
  127OSM   H13C13475   3.319   1.277   1.794 -0.3885 -0.6409  1.2537
  127OSM    C1213476   3.271   1.108   2.011 -0.5590  0.8750  0.3875
  127OSM   H12A13477   3.319   1.068   1.923 -1.3899  0.5657  0.0643
  127OSM   H12B13478   3.201   1.033   2.045 -0.0451  0.1147 -0.2111
  127OSM    C1113479   3.384   1.115   2.121  0.3550  0.1188 -0.4546
  127OSM   H11A13480   3.417   1.015   2.157  2.3221  0.6124 -0.7773
  127OSM   H11B13481   3.337   1.169   2.206 -0.1992 -1.4758  0.3019
  127OSM      P13482   3.609   1.114   1.991 -0.2685  0.2990 -0.8236
  127OSM    O1313483   3.544   0.991   1.933  0.3667 -0.4330  0.3273
  127OSM    O1413484   3.679   1.207   1.900 -0.1495  0.0711 -0.1333
  127OSM    O1113485   3.708   1.075   2.106  0.5325  0.1526 -0.2969
  127OSM    O1213486   3.496   1.187   2.073 -0.3513  0.0445  0.2061
  127OSM    C1S13487   3.815   1.168   2.164 -0.8735  0.3842  0.2938
  127OSM    H1S13488   3.812   1.266   2.111  3.6018 -1.0911 -3.3213
  127OSM    H1T13489   3.920   1.134   2.151 -0.7486  1.6076 -2.7430
  127OSM     NF13490   3.894   1.282   2.362  0.9989 -0.4953 -0.5253
  127OSM    HNF13491   3.990   1.257   2.364  0.8457 -1.0953 -0.5137
  127OSM    C2S13492   3.802   1.182   2.318 -0.1751  0.4505  0.4589
  127OSM    H2S13493   3.701   1.215   2.352 -0.7571 -0.2344 -0.5321
  127OSM    C3S13494   3.823   1.041   2.387  0.0475  0.1488 -0.5870
  127OSM    H3S13495   3.917   0.995   2.351 -0.8148 -1.0770 -1.3442
  127OSM     O313496   3.725   0.946   2.335  0.6590  0.1099 -0.4245
  127OSM    HO313497   3.703   0.989   2.252  0.3667  0.7118 -0.0412
  127OSM    C4S13498   3.828   1.049   2.540  0.3044 -0.4088 -0.4253
  127OSM    H4S13499   3.929   1.054   2.582 -0.6527  0.9295  1.8836
  127OSM    C5S13500   3.727   1.056   2.622 -0.5427 -0.4627  0.1635
  127OSM    H5S13501   3.626   1.043   2.581 -0.1247 -0.3405 -0.9323
  127OSM    C6S13502   3.747   1.075   2.772 -0.4914  0.2733  0.1633
  127OSM    H6S13503   3.763   1.184   2.787 -1.1634  0.1260  2.1764
  127OSM    H6T13504   3.843   1.028   2.804  0.3600  2.6462  1.3726
  127OSM    C7S13505   3.648   1.008   2.864  0.2874 -0.4678 -0.5561
  127OSM    H7S13506   3.597   0.916   2.829 -0.6224 -0.0269 -0.4306
  127OSM    H7T13507   3.565   1.082   2.876  0.0644 -0.9063  0.8345
  127OSM    C8S13508   3.697   0.992   3.011 -0.2286  0.2828 -0.6687
  127OSM    H8S13509   3.782   0.921   3.019 -0.7904 -0.2075  3.2306
  127OSM    H8T13510   3.609   0.950   3.064  1.4305 -1.8183  0.5972
  127OSM    C9S13511   3.725   1.124   3.077 -0.8648  0.6792 -0.1803
  127OSM    H9S13512   3.627   1.175   3.068 -1.6281 -1.0249 -2.1494
  127OSM    H9T13513   3.802   1.185   3.025  0.5548 -1.6809 -0.9952
  127OSM   C10S13514   3.779   1.123   3.222  0.0947 -0.4536  0.2336
  127OSM   H10S13515   3.886   1.094   3.217  0.0919 -0.2248 -1.7014
  127OSM   H10T13516   3.720   1.045   3.276 -0.3805 -0.0932  0.2409
  127OSM   C11S13517   3.768   1.258   3.277  0.1206  0.9775 -0.1714
  127OSM   H11S13518   3.676   1.314   3.250  0.3088  0.4936 -1.9252
  127OSM   H11T13519   3.847   1.318   3.225  1.6172  0.4653  1.3955
  127OSM   C12S13520   3.807   1.269   3.430  0.3383 -0.4079 -0.5398
  127OSM   H12S13521   3.742   1.199   3.487 -0.2630  0.7718  0.2853
  127OSM   H12T13522   3.769   1.365   3.472 -0.5336 -1.0599  0.1934
  127OSM   C13S13523   3.948   1.253   3.480  0.4119 -0.2820 -0.0170
  127OSM   H13S13524   4.006   1.332   3.427  0.8622 -0.7369 -0.2107
  127OSM   H13T13525   3.981   1.153   3.446  1.5490 -0.3136  1.1049
  127OSM   C14S13526   3.967   1.281   3.629  0.8135 -0.3326  0.5600
  127OSM   H14S13527   3.976   1.183   3.681 -1.5912 -0.5166  0.7483
  127OSM   H14T13528   3.874   1.326   3.671 -0.2034  0.1525 -2.0054
  127OSM   C15S13529   4.081   1.381   3.662 -0.1104 -0.1865  0.6954
  127OSM   H15S13530   4.061   1.478   3.611  0.4914  0.5467  1.8089
  127OSM   H15T13531   4.166   1.335   3.607  0.8775  1.3320  0.8919
  127OSM   C16S13532   4.126   1.410   3.805 -0.1175 -0.0280 -0.2156
  127OSM   H16S13533   4.145   1.318   3.865  0.9178  1.3702  1.7120
  127OSM   H16T13534   4.037   1.460   3.849 -0.4997 -0.4677 -0.4742
  127OSM   C17S13535   4.247   1.500   3.819 -0.1968 -0.2003  0.5154
  127OSM   H17S13536   4.242   1.581   3.743 -1.2185  0.9740  1.7605
  127OSM   H17T13537   4.342   1.445   3.803 -1.1141 -1.2994 -1.5075
  127OSM   C18S13538   4.258   1.575   3.953 -0.2207  0.4983 -0.1246
  127OSM   H18S13539   4.172   1.645   3.960  0.5688  1.5478 -0.6186
  127OSM   H18T13540   4.354   1.631   3.959 -2.2286  4.3184 -0.7940
  127OSM   H18U13541   4.266   1.494   4.029 -0.8560 -0.5595 -1.1555
  127OSM    C1F13542   3.870   1.413   2.364  0.1200  0.0737  0.5144
  127OSM     OF13543   3.760   1.454   2.327 -0.2222  0.2212  0.0881
  127OSM    C2F13544   3.992   1.501   2.389 -0.1595  0.0250  0.4610
  127OSM    H2F13545   3.996   1.569   2.301  0.5015  0.7862  1.0597
  127OSM    H2G13546   4.088   1.446   2.401 -0.9120 -2.1006 -2.3277
  127OSM    C3F13547   3.967   1.586   2.515 -0.0526 -0.4274  0.2035
  127OSM    H3F13548   3.861   1.617   2.527  0.7551  2.5511  0.3288
  127OSM    H3G13549   4.029   1.678   2.511 -1.1495  0.2917 -0.9143
  127OSM    C4F13550   3.990   1.500   2.646  0.2974 -0.5273  0.1384
  127OSM    H4F13551   4.097   1.476   2.660  0.5238  0.4075  0.1056
  127OSM    H4G13552   3.940   1.401   2.637  1.0060 -1.1177  2.2077
  127OSM    C5F13553   3.947   1.577   2.772  0.1016 -0.2534 -0.2621
  127OSM    H5F13554   3.853   1.630   2.745  0.6178  0.0402 -1.6053
  127OSM    H5G13555   4.016   1.661   2.794 -0.8357 -0.2158  3.1146
  127OSM    C6F13556   3.925   1.489   2.888 -0.3014 -0.1536 -0.8368
  127OSM    H6F13557   4.017   1.440   2.926 -0.1919  2.1232  2.2093
  127OSM    H6G13558   3.865   1.401   2.856  0.4183 -0.9758  0.0050
  127OSM    C7F13559   3.847   1.549   3.010 -0.6235  0.2435  0.4109
  127OSM    H7F13560   3.817   1.461   3.071  2.0326  0.5746  2.3535
  127OSM    H7G13561   3.751   1.588   2.968  0.0798  0.2483 -1.2816
  127OSM    C8F13562   3.922   1.653   3.088 -0.3028  0.2883  0.0120
  127OSM    H8F13563   3.847   1.720   3.134 -1.0837 -0.0990 -0.6733
  127OSM    H8G13564   3.982   1.714   3.018 -0.4292  0.4323  0.0285
  127OSM    C9F13565   4.015   1.588   3.190 -0.2838  0.1435  0.1732
  127OSM    H9F13566   4.094   1.535   3.135  0.7404  0.3341  1.4030
  127OSM   C10F13567   4.012   1.576   3.327  0.3077 -0.0257  0.3400
  127OSM   H10F13568   4.097   1.516   3.363 -0.4571 -1.5028 -0.2348
  127OSM   C11F13569   3.915   1.638   3.420 -0.1361  0.4371  0.0833
  127OSM   H11F13570   3.884   1.574   3.505  1.3516  0.7291  0.8817
  127OSM   H11G13571   3.821   1.647   3.362 -1.2556  1.0224  1.9150
  127OSM   C12F13572   3.979   1.780   3.457 -0.1031 -0.0771  0.1910
  127OSM   H12F13573   3.897   1.845   3.494 -1.2641 -1.0040 -0.6671
  127OSM   H12G13574   4.017   1.829   3.364  1.2282 -0.5442  0.4655
  127OSM   C13F13575   4.087   1.760   3.563  0.0783  0.4868 -0.0725
  127OSM   H13F13576   4.166   1.690   3.528  0.9761  0.3382  2.1040
  127OSM   H13G13577   4.047   1.721   3.659 -1.0576 -2.9976 -1.7921
  127OSM   C14F13578   4.172   1.889   3.599  0.5687  0.0243  0.6324
  127OSM   H14F13579   4.094   1.963   3.626 -2.0310 -3.3427  3.2399
  127OSM   H14G13580   4.233   1.911   3.509 -0.6531  1.3424  0.0923
  127OSM   C15F13581   4.276   1.866   3.705  0.1565  0.1863 -0.4391
  127OSM   H15F13582   4.347   1.785   3.678 -2.4402 -2.4200  0.0986
  127OSM   H15G13583   4.223   1.824   3.793  0.2450  0.5121 -0.2281
  127OSM   C16F13584   4.355   2.004   3.730  0.2404  0.4946  0.0406
  127OSM   H16F13585   4.298   2.064   3.804 -1.9483 -2.0652  0.6082
  127OSM   H16G13586   4.343   2.045   3.627 -2.1378 -2.4261 -1.0054
  127OSM   C17F13587   4.502   1.966   3.759 -0.4445 -0.3300 -0.4163
  127OSM   H17F13588   4.560   2.061   3.755 -1.2792  0.2611  0.8796
  127OSM   H17G13589   4.530   1.897   3.677 -1.5794 -1.1670 -0.1285
  127OSM   C18F13590   4.525   1.903   3.902  0.2334  0.6725 -0.2997
  127OSM   H18F13591   4.479   1.802   3.914  1.0965  0.2437 -0.5097
  127OSM   H18G13592   4.482   1.960   3.987  1.1136  0.6309  0.1964
  127OSM   H18H13593   4.633   1.885   3.926 -0.7528 -2.6736  2.5656
  128OSM      N13594   3.004   0.545   1.741  0.5253  0.0118  0.0085
  128OSM    C1513595   2.995   0.414   1.671 -0.5049 -0.4418  0.3959
  128OSM   H15A13596   2.921   0.345   1.710 -0.7665  0.0460  0.7791
  128OSM   H15B13597   3.094   0.372   1.675 -0.1096  0.2104 -1.5940
  128OSM   H15C13598   2.981   0.421   1.564  2.8828 -0.1553 -0.1311
  128OSM    C1413599   3.085   0.641   1.664 -0.2120 -0.5848 -0.1880
  128OSM   H14A13600   3.190   0.618   1.653  0.0418  1.3404 -2.4993
  128OSM   H14B13601   3.084   0.740   1.706  0.8645 -0.1360 -1.1647
  128OSM   H14C13602   3.038   0.647   1.568  0.0864 -0.3653 -0.3212
  128OSM    C1313603   2.864   0.594   1.756 -0.2195 -0.4272 -0.4811
  128OSM   H13A13604   2.808   0.596   1.664 -1.8196 -0.9894  0.4476
  128OSM   H13B13605   2.859   0.696   1.791  2.7368 -0.2951 -0.1379
  128OSM   H13C13606   2.811   0.526   1.821  1.0818  0.3544  1.5006
  128OSM    C1213607   3.065   0.535   1.885  0.2524 -0.1778 -0.1260
  128OSM   H12A13608   2.998   0.474   1.942 -0.4094  0.5058 -0.1532
  128OSM   H12B13609   3.064   0.636   1.925 -1.4183  0.3603 -1.4161
  128OSM    C1113610   3.209   0.478   1.912  0.0934  0.2086  0.0307
  128OSM   H11A13611   3.204   0.372   1.877  2.1666 -0.3876  1.3261
  128OSM   H11B13612   3.227   0.472   2.021  0.2537  0.9866  0.0457
  128OSM      P13613   3.466   0.507   1.866 -0.3885 -0.0279 -0.0989
  128OSM    O1313614   3.482   0.363   1.825 -0.3111 -0.2483 -0.4674
  128OSM    O1413615   3.544   0.611   1.789 -0.0525  0.3376 -0.0606
  128OSM    O1113616   3.493   0.515   2.020 -0.0730  0.0297  0.2274
  128OSM    O1213617   3.313   0.551   1.855 -0.1298 -0.8113 -0.1486
  128OSM    C1S13618   3.501   0.646   2.082 -0.0455 -0.6676 -0.3099
  128OSM    H1S13619   3.398   0.689   2.082  0.7886  1.4745  0.2977
  128OSM    H1T13620   3.566   0.718   2.029  0.4453 -2.3221 -2.0574
  128OSM     NF13621   3.519   0.740   2.317 -0.7568 -0.1721 -0.0612
  128OSM    HNF13622   3.598   0.793   2.344 -0.9645  0.4007 -0.5533
  128OSM    C2S13623   3.555   0.632   2.230 -0.2607 -0.3057 -0.6288
  128OSM    H2S13624   3.505   0.543   2.272  0.2576  0.2661  1.3174
  128OSM    C3S13625   3.708   0.603   2.224 -0.2206  0.3090 -0.3336
  128OSM    H3S13626   3.760   0.699   2.202  0.9121  0.0055  0.8951
  128OSM     O313627   3.740   0.506   2.126  0.1496 -0.0650 -0.4649
  128OSM    HO313628   3.657   0.486   2.082  0.0950 -2.8235  0.7073
  128OSM    C4S13629   3.747   0.554   2.361  0.7359  0.4695  0.7086
  128OSM    H4S13630   3.694   0.462   2.390  1.1107  0.1843  0.4900
  128OSM    C5S13631   3.827   0.618   2.447  0.0630  1.0325 -0.0261
  128OSM    H5S13632   3.868   0.715   2.416  1.7841  0.2566 -0.2903
  128OSM    C6S13633   3.873   0.572   2.587  0.6502  0.8103  0.5752
  128OSM    H6S13634   3.981   0.586   2.607  0.3768  0.0127  2.9017
  128OSM    H6T13635   3.849   0.465   2.603  1.8224  0.6086  1.0379
  128OSM    C7S13636   3.802   0.639   2.709  0.6992 -0.3348  0.5720
  128OSM    H7S13637   3.691   0.631   2.706  0.3977  1.8361  2.8681
  128OSM    H7T13638   3.826   0.747   2.721 -1.9038  0.2249  1.4496
  128OSM    C8S13639   3.851   0.568   2.836  0.1676  0.0300 -0.4452
  128OSM    H8S13640   3.859   0.458   2.823  3.2579 -0.3444  3.0635
  128OSM    H8T13641   3.772   0.596   2.909  1.7564  0.1397  1.2993
  128OSM    C9S13642   3.997   0.609   2.889  0.2432  1.0207  0.5080
  128OSM    H9S13643   3.997   0.716   2.917  1.4973  1.5421 -1.2706
  128OSM    H9T13644   4.075   0.597   2.810  0.6100  2.3053  0.6556
  128OSM   C10S13645   4.038   0.534   3.017 -0.0632  0.1298  0.6059
  128OSM   H10S13646   4.131   0.589   3.041 -0.3714  0.5290  0.9278
  128OSM   H10T13647   4.066   0.434   2.979 -3.0244 -0.4713 -0.3110
  128OSM   C11S13648   3.943   0.533   3.141  0.4828  0.0813 -0.6063
  128OSM   H11S13649   3.857   0.474   3.101  2.5533 -3.5128 -0.1958
  128OSM   H11T13650   3.925   0.641   3.157  1.3413  0.0678  0.5229
  128OSM   C12S13651   4.010   0.469   3.272  0.0296  1.2453 -0.0046
  128OSM   H12S13652   4.115   0.504   3.282  1.6049 -2.2079 -2.2833
  128OSM   H12T13653   4.005   0.361   3.246  0.5027  1.2130  0.0270
  128OSM   C13S13654   3.917   0.503   3.397 -0.6153  0.3103  0.0123
  128OSM   H13S13655   3.827   0.439   3.385  0.0334 -0.6499  0.1983
  128OSM   H13T13656   3.874   0.606   3.393 -0.3135  0.3998 -1.1423
  128OSM   C14S13657   3.980   0.475   3.534 -0.5576 -0.3490  0.3218
  128OSM   H14S13658   3.942   0.545   3.611 -0.6983  0.2505 -0.2878
  128OSM   H14T13659   4.089   0.492   3.518 -0.5318 -0.6090  0.2073
  128OSM   C15S13660   3.968   0.333   3.578 -0.0423 -0.0549 -0.7546
  128OSM   H15S13661   4.072   0.294   3.579  0.7240  1.8753 -0.7837
  128OSM   H15T13662   3.916   0.270   3.503 -0.7246 -2.1072  1.3441
  128OSM   C16S13663   3.890   0.296   3.707  0.3927 -0.3938 -0.6814
  128OSM   H16S13664   3.863   0.188   3.705 -4.1501  0.4671  1.1190
  128OSM   H16T13665   3.797   0.354   3.685  0.3434  0.3816  1.3792
  128OSM   C17S13666   3.961   0.343   3.835  0.6424  0.0080 -0.2222
  128OSM   H17S13667   3.996   0.446   3.815  1.7512 -0.6236 -1.7007
  128OSM   H17T13668   4.040   0.268   3.856 -0.2218 -1.0513 -0.6031
  128OSM   C18S13669   3.852   0.335   3.948  0.9391  1.0097  0.2002
  128OSM   H18S13670   3.765   0.399   3.918  1.1285  1.6800  1.0421
  128OSM   H18T13671   3.892   0.377   4.042 -0.9132 -1.3046  2.1824
  128OSM   H18U13672   3.814   0.232   3.967 -0.4025  1.4374 -0.0569
  128OSM    C1F13673   3.394   0.779   2.349 -0.5264  0.0534  1.0364
  128OSM     OF13674   3.299   0.731   2.295  0.2603  0.8404  0.3822
  128OSM    C2F13675   3.384   0.901   2.443 -0.2979 -0.0101 -0.0999
  128OSM    H2F13676   3.381   0.997   2.387 -0.8543 -0.9327 -1.7153
  128OSM    H2G13677   3.479   0.899   2.500  0.8549 -0.7179 -1.9508
  128OSM    C3F13678   3.264   0.885   2.543 -0.2740 -0.5322  0.4020
  128OSM    H3F13679   3.271   0.786   2.592  3.0549 -0.1200  1.0387
  128OSM    H3G13680   3.163   0.888   2.497 -0.7147  2.2660  1.3190
  128OSM    C4F13681   3.268   0.988   2.655 -0.3016 -0.4181  0.8625
  128OSM    H4F13682   3.227   1.085   2.619 -1.5096 -0.9074  0.8684
  128OSM    H4G13683   3.368   1.022   2.688 -0.1355  1.2473 -1.1812
  128OSM    C5F13684   3.189   0.952   2.784  0.1368 -0.1853  0.5266
  128OSM    H5F13685   3.210   0.846   2.810  0.4412 -0.6265 -1.3662
  128OSM    H5G13686   3.080   0.964   2.765  0.4177  1.7349 -0.0320
  128OSM    C6F13687   3.219   1.050   2.905 -0.1338  0.5467 -0.4691
  128OSM    H6F13688   3.185   1.155   2.891 -2.5605 -0.1483 -0.2371
  128OSM    H6G13689   3.328   1.046   2.926 -0.0055  2.0530 -0.7307
  128OSM    C7F13690   3.152   0.997   3.038 -0.0598  0.3524 -0.2996
  128OSM    H7F13691   3.158   0.886   3.045 -2.4761  0.2053  0.4440
  128OSM    H7G13692   3.042   1.015   3.034 -0.4802 -1.7761  0.0990
  128OSM    C8F13693   3.193   1.059   3.169  0.1145  0.4933  0.5563
  128OSM    H8F13694   3.125   1.026   3.251 -0.2507 -0.5564 -0.1502
  128OSM    H8G13695   3.178   1.168   3.154 -0.2132  0.2360 -1.2386
  128OSM    C9F13696   3.342   1.039   3.205  0.2726  0.3242 -0.2293
  128OSM    H9F13697   3.414   1.032   3.122 -0.3391  0.1591 -0.7614
  128OSM   C10F13698   3.392   1.020   3.331  0.5458 -0.1061  0.4520
  128OSM   H10F13699   3.500   1.011   3.352  0.3360 -0.2258  1.5526
  128OSM   C11F13700   3.311   1.024   3.459  0.7495 -0.1887 -0.9611
  128OSM   H11F13701   3.284   0.918   3.482 -2.0539  0.4058 -1.1620
  128OSM   H11G13702   3.214   1.076   3.448 -1.0413 -2.9475  0.4878
  128OSM   C12F13703   3.392   1.085   3.579  1.0432  0.1615  0.4839
  128OSM   H12F13704   3.405   1.192   3.554  1.6929 -0.0870 -0.2666
  128OSM   H12G13705   3.493   1.039   3.575  1.1746  0.1538  2.5705
  128OSM   C13F13706   3.328   1.072   3.726  0.5678  0.0342  0.0183
  128OSM   H13F13707   3.311   0.967   3.757 -1.0421  1.0309  2.9372
  128OSM   H13G13708   3.236   1.133   3.739  1.3079  1.0143  0.8166
  128OSM   C14F13709   3.422   1.139   3.831 -0.2379  0.3865 -0.5238
  128OSM   H14F13710   3.422   1.250   3.825 -1.6554  0.4924  0.7830
  128OSM   H14G13711   3.527   1.107   3.815 -0.2004  0.4466 -0.4004
  128OSM   C15F13712   3.392   1.078   3.977 -0.7135 -0.4647  0.4585
  128OSM   H15F13713   3.418   0.972   3.956 -0.0918 -0.1881 -0.2093
  128OSM   H15G13714   3.284   1.085   4.002 -1.6702 -0.0348 -3.1006
  128OSM   C16F13715   3.484   1.143   4.082  0.3922  0.0801  0.1247
  128OSM   H16F13716   3.584   1.162   4.037 -0.0659 -0.1495 -1.0181
  128OSM   H16G13717   3.501   1.071   4.166  0.3182 -0.0458  0.0323
  128OSM   C17F13718   3.431   1.276   4.149  0.2801  0.2203  0.7973
  128OSM   H17F13719   3.324   1.263   4.176 -0.0351 -2.2537 -1.1838
  128OSM   H17G13720   3.432   1.354   4.071  2.8429 -1.2418 -0.7701
  128OSM   C18F13721   3.517   1.332   4.258  0.3794 -0.0760 -0.2273
  128OSM   H18F13722   3.520   1.261   4.343 -0.9764  1.0944  0.8468
  128OSM   H18G13723   3.466   1.422   4.299  2.6256  0.4846  1.5104
  128OSM   H18H13724   3.617   1.367   4.225 -0.9588  1.4779 -3.0696
  129OSM      N13725   6.194   0.947   1.678 -0.4142  0.7212 -0.1964
  129OSM    C1513726   6.118   0.827   1.725  0.1953  0.0537  0.1586
  129OSM   H15A13727   6.178   0.754   1.778 -0.9216 -0.4951  0.7131
  129OSM   H15B13728   6.074   0.776   1.641 -2.0077  1.0690  0.6181
  129OSM   H15C13729   6.037   0.868   1.785 -0.6711  1.1567 -1.6757
  129OSM    C1413730   6.292   0.911   1.570 -0.3051 -0.0175 -0.1530
  129OSM   H14A13731   6.357   0.830   1.601 -1.3714 -1.8861 -2.5414
  129OSM   H14B13732   6.365   0.991   1.561 -1.0098  0.3845 -3.0411
  129OSM   H14C13733   6.237   0.888   1.480  1.1459  0.0679 -1.1044
  129OSM    C1313734   6.089   1.037   1.630 -0.7428 -0.1488  0.3257
  129OSM   H13A13735   6.048   1.005   1.535  1.6020  0.1345 -0.8505
  129OSM   H13B13736   6.129   1.135   1.606 -1.6118 -0.0084 -0.6702
  129OSM   H13C13737   6.009   1.048   1.701 -0.6480 -1.4914  0.6543
  129OSM    C1213738   6.268   1.008   1.797  0.8741 -0.1571 -0.7755
  129OSM   H12A13739   6.204   1.071   1.857 -0.2439 -0.7503 -1.2989
  129OSM   H12B13740   6.341   1.081   1.765  1.5205 -0.2959  0.3273
  129OSM    C1113741   6.337   0.909   1.889  0.3391 -0.4044  0.9996
  129OSM   H11A13742   6.383   0.832   1.823  2.0798 -1.0372  2.8154
  129OSM   H11B13743   6.273   0.866   1.969 -1.1023  0.9996  0.6343
  129OSM      P13744   6.532   0.940   2.073  0.7969  0.1332 -0.6024
  129OSM    O1313745   6.504   0.802   2.130  0.1891 -0.2518 -0.1525
  129OSM    O1413746   6.682   0.964   2.040 -0.0380  0.3710 -0.1727
  129OSM    O1113747   6.487   1.053   2.172 -0.0089 -0.3845  0.5263
  129OSM    O1213748   6.446   0.977   1.951  0.4495 -0.3398  0.4223
  129OSM    C1S13749   6.381   1.138   2.133 -0.3269  0.4678 -0.4868
  129OSM    H1S13750   6.284   1.083   2.124 -0.9835  1.3727  0.7338
  129OSM    H1T13751   6.407   1.193   2.041  2.1772 -0.9641 -0.7268
  129OSM     NF13752   6.225   1.295   2.224  0.7548 -0.1289  0.3379
  129OSM    HNF13753   6.232   1.390   2.193 -1.1443 -0.5508 -1.5868
  129OSM    C2S13754   6.350   1.232   2.250  0.2374  0.3892  0.2140
  129OSM    H2S13755   6.332   1.160   2.332 -1.9368 -0.7083 -1.1341
  129OSM    C3S13756   6.468   1.328   2.277 -0.2456 -0.0117 -0.0211
  129OSM    H3S13757   6.474   1.403   2.195  0.7909  2.1170  1.8558
  129OSM     O313758   6.600   1.268   2.266  0.3358  0.0858 -0.4152
  129OSM    HO313759   6.572   1.176   2.261 -2.9822  0.8988  0.7413
  129OSM    C4S13760   6.451   1.394   2.410 -0.5565  0.6936 -0.8199
  129OSM    H4S13761   6.437   1.503   2.405 -2.1129  0.4586 -2.2935
  129OSM    C5S13762   6.452   1.338   2.531 -0.2180  0.3501  0.5984
  129OSM    H5S13763   6.481   1.232   2.540 -1.8585 -0.2339 -0.3562
  129OSM    C6S13764   6.428   1.412   2.659 -0.2236  0.4862 -0.4767
  129OSM    H6S13765   6.377   1.509   2.639 -1.6284  0.0021  0.5549
  129OSM    H6T13766   6.528   1.426   2.704 -0.3351 -1.7900  0.6034
  129OSM    C7S13767   6.354   1.339   2.781  0.1291 -0.0745  0.0125
  129OSM    H7S13768   6.248   1.339   2.748 -0.1931 -3.3642  0.7262
  129OSM    H7T13769   6.371   1.413   2.862  3.9365  0.5997 -1.1800
  129OSM    C8S13770   6.400   1.200   2.812 -0.3282  0.2530 -0.3066
  129OSM    H8S13771   6.399   1.129   2.726 -0.6891 -0.7636  0.5115
  129OSM    H8T13772   6.332   1.172   2.895 -0.8127  3.5886  0.5783
  129OSM    C9S13773   6.551   1.186   2.854 -0.0845  0.5356  0.3846
  129OSM    H9S13774   6.618   1.218   2.771 -1.0093  1.7297  0.0770
  129OSM    H9T13775   6.575   1.082   2.886 -0.7823  0.2229 -0.0823
  129OSM   C10S13776   6.596   1.278   2.970 -0.3590 -0.7305 -0.1247
  129OSM   H10S13777   6.572   1.379   2.929  1.0949 -0.4978 -0.4595
  129OSM   H10T13778   6.707   1.267   2.974 -0.2776 -1.9005 -3.0980
  129OSM   C11S13779   6.521   1.257   3.097 -0.1621  0.4025 -0.6431
  129OSM   H11S13780   6.532   1.149   3.119 -1.7178 -0.0709 -1.9874
  129OSM   H11T13781   6.411   1.260   3.081 -0.6517 -2.0557  1.5726
  129OSM   C12S13782   6.546   1.359   3.208  0.3016  0.4195 -0.5886
  129OSM   H12S13783   6.476   1.444   3.194 -0.6233  0.2377  2.3023
  129OSM   H12T13784   6.649   1.400   3.210  0.6663 -0.4292  2.4609
  129OSM   C13S13785   6.531   1.306   3.351  0.0444 -0.2755 -0.5370
  129OSM   H13S13786   6.612   1.232   3.372 -0.6608 -1.4689 -1.8556
  129OSM   H13T13787   6.432   1.259   3.364 -0.3380  0.3470 -1.0969
  129OSM   C14S13788   6.538   1.427   3.448 -0.1575 -1.0035  0.1882
  129OSM   H14S13789   6.469   1.511   3.426  1.6318  1.2196  2.4493
  129OSM   H14T13790   6.633   1.483   3.438 -1.4693  1.0049 -2.1348
  129OSM   C15S13791   6.530   1.397   3.593  0.0086 -0.5717  1.0437
  129OSM   H15S13792   6.569   1.294   3.606 -0.5722 -0.7227  1.6567
  129OSM   H15T13793   6.424   1.386   3.624 -0.4885 -1.6561 -0.8951
  129OSM   C16S13794   6.598   1.499   3.684  0.2343  0.7879  0.0327
  129OSM   H16S13795   6.569   1.600   3.647 -1.6727 -0.5204 -2.3492
  129OSM   H16T13796   6.708   1.485   3.684  0.7765  3.9661  2.3482
  129OSM   C17S13797   6.554   1.473   3.831 -0.6180  0.0768 -0.2080
  129OSM   H17S13798   6.584   1.371   3.864 -3.5547 -0.4675  1.1377
  129OSM   H17T13799   6.444   1.480   3.843 -0.4980  0.5114  0.7987
  129OSM   C18S13800   6.620   1.573   3.929  0.0977 -0.2664  0.4665
  129OSM   H18S13801   6.603   1.528   4.029  2.3157 -0.2926  0.8829
  129OSM   H18T13802   6.572   1.674   3.934 -1.9604 -1.2275  2.0191
  129OSM   H18U13803   6.731   1.572   3.929  0.1669  1.5623  1.8941
  129OSM    C1F13804   6.103   1.246   2.247 -0.0918 -0.7112  0.1659
  129OSM     OF13805   6.087   1.126   2.257  0.2270  0.2329 -0.3524
  129OSM    C2F13806   6.000   1.350   2.260  0.3576 -0.7729 -0.8523
  129OSM    H2F13807   5.972   1.379   2.157  0.3671  1.8098 -0.1975
  129OSM    H2G13808   6.031   1.445   2.309 -2.2708  0.0598 -0.6570
  129OSM    C3F13809   5.884   1.306   2.352  0.1187  0.4870  0.3430
  129OSM    H3F13810   5.846   1.209   2.314  1.6034  0.2181 -0.5330
  129OSM    H3G13811   5.814   1.392   2.337  0.1667  0.4338 -0.1942
  129OSM    C4F13812   5.911   1.292   2.504  0.5597 -0.4793 -0.3963
  129OSM    H4F13813   5.937   1.391   2.548 -1.9440  0.8099 -1.6033
  129OSM    H4G13814   6.002   1.228   2.511 -0.1601 -1.5544 -0.5656
  129OSM    C5F13815   5.798   1.237   2.595 -0.1141 -0.4597 -0.1166
  129OSM    H5F13816   5.745   1.149   2.555 -0.2202 -0.3858 -0.1383
  129OSM    H5G13817   5.722   1.318   2.593  1.1099  0.9339  2.7199
  129OSM    C6F13818   5.839   1.215   2.743  0.2305  0.2606  0.6152
  129OSM    H6F13819   5.911   1.292   2.778  0.6247  0.6843 -1.0777
  129OSM    H6G13820   5.893   1.118   2.749 -0.1870 -0.0105  0.0122
  129OSM    C7F13821   5.714   1.211   2.830  0.1759 -1.6575  0.2032
  129OSM    H7F13822   5.643   1.133   2.795 -0.7751  0.7565 -3.9248
  129OSM    H7G13823   5.672   1.314   2.822  0.0749 -1.6723  0.5392
  129OSM    C8F13824   5.740   1.178   2.975 -0.4953 -0.6991 -0.4290
  129OSM    H8F13825   5.766   1.070   2.973  2.6750 -0.0149 -0.9852
  129OSM    H8G13826   5.642   1.178   3.027 -1.7154  1.2014 -2.5168
  129OSM    C9F13827   5.848   1.253   3.052 -0.0861 -1.0828 -0.2028
  129OSM    H9F13828   5.949   1.253   3.009  0.4421  4.3543  0.3468
  129OSM   C10F13829   5.831   1.342   3.154  0.2882 -0.1716  0.2221
  129OSM   H10F13830   5.915   1.398   3.197 -2.0086  1.9707  2.2223
  129OSM   C11F13831   5.695   1.365   3.216  0.1562 -0.0288  0.0472
  129OSM   H11F13832   5.635   1.272   3.229  0.1752 -0.1264 -0.5676
  129OSM   H11G13833   5.633   1.436   3.157  1.2428  1.6105  0.8143
  129OSM   C12F13834   5.705   1.428   3.362  0.1509 -0.0434  0.0513
  129OSM   H12F13835   5.779   1.511   3.365 -1.1167  1.1186  0.0799
  129OSM   H12G13836   5.735   1.351   3.436 -0.2522 -0.0678  0.1937
  129OSM   C13F13837   5.573   1.498   3.397  0.1550 -0.1167  0.4524
  129OSM   H13F13838   5.497   1.425   3.362  1.2686 -1.1690  0.1405
  129OSM   H13G13839   5.558   1.594   3.343 -0.9117  0.9414  2.4942
  129OSM   C14F13840   5.562   1.522   3.545  0.0523  0.4904 -0.2920
  129OSM   H14F13841   5.657   1.568   3.579 -0.6693  1.7505  0.0690
  129OSM   H14G13842   5.563   1.426   3.601  0.1989 -0.9236 -2.5439
  129OSM   C15F13843   5.437   1.593   3.590  0.1087  0.7070 -0.1723
  129OSM   H15F13844   5.352   1.524   3.574 -0.9189  1.8122  0.3378
  129OSM   H15G13845   5.413   1.687   3.535 -4.5475  1.0045  1.8592
  129OSM   C16F13846   5.437   1.644   3.735  0.2538  0.0129 -0.3676
  129OSM   H16F13847   5.535   1.693   3.752 -0.0558  1.1056 -1.5306
  129OSM   H16G13848   5.438   1.546   3.787  1.2690  0.0952 -0.2008
  129OSM   C17F13849   5.316   1.727   3.771 -0.9184  0.3965  0.6222
  129OSM   H17F13850   5.220   1.685   3.735 -0.3699 -0.6797  0.3790
  129OSM   H17G13851   5.330   1.830   3.732 -0.5665  0.4403  0.8537
  129OSM   C18F13852   5.291   1.734   3.927 -0.5404 -0.1487 -0.0019
  129OSM   H18F13853   5.291   1.633   3.974 -2.0991 -0.2449 -0.1587
  129OSM   H18G13854   5.188   1.773   3.943 -0.1036  0.5305  1.2841
  129OSM   H18H13855   5.367   1.804   3.967  0.6914  0.3519 -2.9344
  130OSM      N13856   5.906   2.568   1.998 -0.4430 -0.2314 -0.1344
  130OSM    C1513857   5.902   2.719   1.994 -0.0970  0.2218  0.0289
  130OSM   H15A13858   5.800   2.748   1.973 -0.1770 -0.3986 -0.4532
  130OSM   H15B13859   5.970   2.752   1.917  0.8653 -0.0075  0.7597
  130OSM   H15C13860   5.948   2.757   2.084  3.6851 -0.1368 -1.5507
  130OSM    C1413861   5.839   2.516   1.874 -0.4994  0.0147  0.0416
  130OSM   H14A13862   5.844   2.408   1.868  0.6047  0.0631 -0.0786
  130OSM   H14B13863   5.882   2.567   1.789 -0.1213 -0.0986  0.1627
  130OSM   H14C13864   5.738   2.555   1.865  0.4797  3.1341  1.3851
  130OSM    C1313865   6.048   2.518   2.007 -0.2579  0.3998  0.4268
  130OSM   H13A13866   6.107   2.552   1.922  0.8469  0.5050  1.2177
  130OSM   H13B13867   6.032   2.412   2.012  1.5369  0.1251  0.9782
  130OSM   H13C13868   6.096   2.551   2.098  0.6803  1.1448 -0.3146
  130OSM    C1213869   5.832   2.524   2.127  0.2185  1.3603 -0.0959
  130OSM   H12A13870   5.825   2.417   2.115  1.8924  1.5029 -3.6391
  130OSM   H12B13871   5.733   2.568   2.129 -0.1641  0.6878 -2.1933
  130OSM    C1113872   5.898   2.549   2.263 -0.1981 -0.3201  0.3719
  130OSM   H11A13873   5.995   2.496   2.267 -0.0154  0.0730  1.4711
  130OSM   H11B13874   5.837   2.499   2.342  0.4067 -2.3077 -0.3829
  130OSM      P13875   5.822   2.762   2.380 -0.3952 -0.1949  0.3528
  130OSM    O1313876   5.863   2.902   2.398 -0.3712 -0.1938 -0.3827
  130OSM    O1413877   5.689   2.746   2.325 -0.4110  0.5673  0.6616
  130OSM    O1113878   5.835   2.674   2.512 -0.5375 -0.5904  0.1364
  130OSM    O1213879   5.927   2.687   2.292 -0.1910  0.7440  0.6033
  130OSM    C1S13880   5.878   2.723   2.639  0.5273 -0.5197 -0.2131
  130OSM    H1S13881   5.876   2.833   2.647 -0.8096 -0.6599  2.4589
  130OSM    H1T13882   5.983   2.700   2.665  0.3719 -0.3779  0.5446
  130OSM     NF13883   5.790   2.737   2.878 -0.3606 -0.3934  1.4025
  130OSM    HNF13884   5.813   2.691   2.963 -0.3946 -0.2297  1.5021
  130OSM    C2S13885   5.780   2.668   2.745 -0.7978  0.7188  0.3598
  130OSM    H2S13886   5.678   2.665   2.702 -1.5494 -1.1147  2.0812
  130OSM    C3S13887   5.820   2.520   2.763  0.5612 -0.1828 -0.1815
  130OSM    H3S13888   5.921   2.506   2.807  1.0555 -0.5023 -1.3645
  130OSM     O313889   5.821   2.439   2.646 -0.0564  0.2125  1.1229
  130OSM    HO313890   5.797   2.498   2.574 -0.8073 -0.6169  0.6836
  130OSM    C4S13891   5.723   2.444   2.853  0.2109  0.2733  0.0959
  130OSM    H4S13892   5.616   2.455   2.832  0.3193  1.4689  0.0896
  130OSM    C5S13893   5.756   2.367   2.962  0.4586  0.5233  0.3517
  130OSM    H5S13894   5.864   2.348   2.976  0.2910  0.6464  2.1103
  130OSM    C6S13895   5.657   2.303   3.051 -0.1528  0.4361  0.0309
  130OSM    H6S13896   5.651   2.196   3.023 -2.7713  0.5713 -0.1490
  130OSM    H6T13897   5.565   2.364   3.049 -0.4661 -0.0541 -0.8411
  130OSM    C7S13898   5.737   2.320   3.185 -0.7348 -0.2863  0.4091
  130OSM    H7S13899   5.770   2.426   3.196  1.6054 -0.8395 -0.6138
  130OSM    H7T13900   5.833   2.264   3.195 -0.8642 -0.5163  0.3789
  130OSM    C8S13901   5.645   2.292   3.304  0.1896 -0.4667 -0.4377
  130OSM    H8S13902   5.644   2.181   3.314  1.4515 -0.3070  2.3565
  130OSM    H8T13903   5.539   2.323   3.291  0.3545 -0.5632 -2.3752
  130OSM    C9S13904   5.690   2.364   3.438 -0.9639  0.1824  0.1123
  130OSM    H9S13905   5.690   2.474   3.418 -1.4319  0.0553 -0.6238
  130OSM    H9T13906   5.793   2.335   3.467 -1.4155 -2.7863 -0.9340
  130OSM   C10S13907   5.600   2.351   3.558  0.2782  0.4706  0.0823
  130OSM   H10S13908   5.607   2.246   3.593  2.1724  0.6102  0.2311
  130OSM   H10T13909   5.491   2.367   3.539  0.0250 -2.2870 -1.2104
  130OSM   C11S13910   5.624   2.447   3.676 -0.5524  0.2866 -0.0275
  130OSM   H11S13911   5.549   2.430   3.756 -1.2769 -0.2534 -0.7998
  130OSM   H11T13912   5.604   2.552   3.643  1.3572  0.5418 -0.4921
  130OSM   C12S13913   5.766   2.437   3.739  0.0628 -0.6244 -0.3786
  130OSM   H12S13914   5.850   2.453   3.667  3.1500  0.4980  3.1590
  130OSM   H12T13915   5.776   2.343   3.796  0.3422 -0.5740 -0.3451
  130OSM   C13S13916   5.769   2.540   3.854 -1.0204  0.2670  0.0043
  130OSM   H13S13917   5.776   2.642   3.811  0.2991  0.0998 -0.1980
  130OSM   H13T13918   5.867   2.537   3.905 -1.2046 -1.4203  0.3193
  130OSM   C14S13919   5.658   2.545   3.957  0.3055  0.3361 -0.1513
  130OSM   H14S13920   5.639   2.438   3.979 -1.8325  1.0015  1.6305
  130OSM   H14T13921   5.568   2.595   3.914 -0.2795 -1.1601 -0.7386
  130OSM   C15S13922   5.711   2.603   4.093  0.0715 -0.4188 -0.8199
  130OSM   H15S13923   5.792   2.541   4.137  0.0660  2.1098  3.3359
  130OSM   H15T13924   5.628   2.595   4.166  0.8943 -0.5289  0.1423
  130OSM   C16S13925   5.764   2.743   4.091 -0.4980  0.8091 -0.2422
  130OSM   H16S13926   5.675   2.801   4.057 -0.6444  1.1538  0.6922
  130OSM   H16T13927   5.847   2.761   4.019  1.3068 -3.6241  0.4321
  130OSM   C17S13928   5.814   2.805   4.227 -0.0690 -0.0083 -0.2069
  130OSM   H17S13929   5.847   2.910   4.207 -0.6081  0.3454  0.7310
  130OSM   H17T13930   5.911   2.754   4.247  0.3598  0.5062 -0.8952
  130OSM   C18S13931   5.708   2.812   4.341  0.0514  0.2827 -0.0487
  130OSM   H18S13932   5.738   2.871   4.431  2.4816  0.3609 -0.8410
  130OSM   H18T13933   5.678   2.708   4.367  1.8947 -0.2179  0.2006
  130OSM   H18U13934   5.617   2.860   4.299 -0.1734  1.6471  1.8529
  130OSM    C1F13935   5.745   2.865   2.883 -0.6649  0.2906 -0.1690
  130OSM     OF13936   5.707   2.927   2.787 -0.0984 -0.6378  0.3860
  130OSM    C2F13937   5.746   2.931   3.016 -0.0628  0.2154  0.3855
  130OSM    H2F13938   5.814   2.865   3.075 -1.8689  0.8396  3.4074
  130OSM    H2G13939   5.644   2.929   3.059 -1.2946  0.3687 -2.3361
  130OSM    C3F13940   5.788   3.078   2.989  0.2486 -0.3839  0.2076
  130OSM    H3F13941   5.720   3.122   2.912  0.7828 -0.2345 -0.1795
  130OSM    H3G13942   5.888   3.089   2.943  0.1172  4.4635  0.6003
  130OSM    C4F13943   5.788   3.165   3.115  0.7843 -0.6278 -0.0487
  130OSM    H4F13944   5.695   3.152   3.174  1.4001 -1.0948  0.8483
  130OSM    H4G13945   5.810   3.272   3.096  0.4462 -0.5241  0.1406
  130OSM    C5F13946   5.895   3.114   3.215  0.1903  0.3426  0.3096
  130OSM    H5F13947   5.988   3.115   3.154 -1.0263  0.5992 -1.6601
  130OSM    H5G13948   5.871   3.007   3.233  3.0005 -0.8284 -2.0155
  130OSM    C6F13949   5.917   3.204   3.339 -0.0970  0.3360 -0.3976
  130OSM    H6F13950   5.922   3.310   3.308  0.9190  0.0486 -1.2894
  130OSM    H6G13951   6.012   3.172   3.386 -1.0633 -1.0664  0.7037
  130OSM    C7F13952   5.818   3.181   3.454 -0.8891 -0.0099  0.4066
  130OSM    H7F13953   5.830   3.074   3.482  3.0486  0.2181  0.0322
  130OSM    H7G13954   5.712   3.189   3.419 -1.6644 -1.4927  2.2048
  130OSM    C8F13955   5.851   3.285   3.563  0.1286  0.6931  0.3172
  130OSM    H8F13956   5.768   3.294   3.636 -2.2894  1.3174 -2.3203
  130OSM    H8G13957   5.847   3.375   3.499  1.3301 -0.4040 -1.3987
  130OSM    C9F13958   5.980   3.265   3.638 -0.0750  0.8055  0.3759
  130OSM    H9F13959   6.014   3.162   3.654  0.6367  1.2406  1.8602
  130OSM   C10F13960   6.061   3.355   3.692  0.4360  0.0674 -0.3990
  130OSM   H10F13961   6.159   3.324   3.733  0.4357 -0.3507 -0.7073
  130OSM   C11F13962   6.039   3.504   3.687  0.4976  0.1573 -0.7934
  130OSM   H11F13963   6.006   3.535   3.585  0.4911 -0.1320 -0.8791
  130OSM   H11G13964   6.135   3.559   3.702  0.4931  0.4218 -1.6606
  130OSM   C12F13965   5.951   3.572   3.799 -0.4165 -0.0996 -0.2312
  130OSM   H12F13966   5.968   3.531   3.901  0.1599  2.2383  0.6778
  130OSM   H12G13967   5.840   3.569   3.797 -0.3902 -1.7566 -0.9065
  130OSM   C13F13968   5.998   3.724   3.801  0.1312  0.3497  0.3050
  130OSM   H13F13969   5.970   3.772   3.704 -0.0965 -0.5551 -0.0822
  130OSM   H13G13970   6.106   3.730   3.827 -0.0090  0.9938  0.7592
  130OSM   C14F13971   5.909   3.806   3.901  0.3380  1.0416  0.2394
  130OSM   H14F13972   5.809   3.825   3.857  0.0537  0.9847  0.8529
  130OSM   H14G13973   5.957   3.906   3.907 -0.4266  1.3548  1.4410
  130OSM   C15F13974   5.894   3.743   4.040  0.2580 -0.0454 -0.2288
  130OSM   H15F13975   5.992   3.709   4.081 -0.5809  0.0389  1.9778
  130OSM   H15G13976   5.834   3.650   4.033  1.5763 -0.8648 -1.3274
  130OSM   C16F13977   5.832   3.846   4.131  0.0898  0.1775 -0.1690
  130OSM   H16F13978   5.722   3.859   4.117  0.0547  0.1534  0.0685
  130OSM   H16G13979   5.872   3.947   4.108  0.5405 -0.3134 -1.6090
  130OSM   C17F13980   5.853   3.809   4.283 -0.1369 -0.0736  0.6085
  130OSM   H17F13981   5.870   3.699   4.286  3.0786  0.2938 -0.2810
  130OSM   H17G13982   5.762   3.841   4.338 -1.0380  0.3338 -1.0484
  130OSM   C18F13983   5.969   3.872   4.363  0.4635 -0.1903 -0.4873
  130OSM   H18F13984   5.931   3.952   4.429 -2.9611 -1.9932 -0.0670
  130OSM   H18G13985   6.036   3.921   4.290  0.7473 -0.0265 -0.1219
  130OSM   H18H13986   6.023   3.800   4.429  4.0088  1.2102 -1.6363
  131OSM      N13987   3.312   0.017   2.112  0.1635 -0.0963 -0.2718
  131OSM    C1513988   3.197  -0.029   2.029  0.5529 -0.1798  0.4596
  131OSM   H15A13989   3.107   0.024   2.057  0.3455 -0.8940  1.1930
  131OSM   H15B13990   3.176  -0.133   2.049 -0.3882 -0.3375 -1.2295
  131OSM   H15C13991   3.211  -0.019   1.923  2.0662 -0.8403  0.5637
  131OSM    C1413992   3.315   0.166   2.116  0.2411 -0.5917  0.3383
  131OSM   H14A13993   3.402   0.198   2.173  0.6734 -0.1860 -0.5303
  131OSM   H14B13994   3.235   0.212   2.172  1.0133 -0.4546  1.3612
  131OSM   H14C13995   3.335   0.211   2.020  1.2568  0.3529  0.9649
  131OSM    C1313996   3.290  -0.030   2.259 -0.1934  0.0674 -0.7240
  131OSM   H13A13997   3.199   0.005   2.306  0.7861 -1.6890  2.8107
  131OSM   H13B13998   3.378  -0.003   2.316 -0.5645 -1.2840  0.5499
  131OSM   H13C13999   3.295  -0.137   2.266 -0.7460  0.0910  0.2430
  131OSM    C1214000   3.440  -0.024   2.058 -0.2040  0.3957 -0.1897
  131OSM   H12A14001   3.527   0.013   2.111  1.2166 -1.3495 -1.1725
  131OSM   H12B14002   3.459   0.005   1.956 -0.5049  0.4228 -0.2395
  131OSM    C1114003   3.482  -0.176   2.066 -0.0806 -0.4233  0.6166
  131OSM   H11A14004   3.583  -0.180   2.021 -0.4647  1.2424 -0.4432
  131OSM   H11B14005   3.422  -0.233   1.992  2.9839 -1.7619 -1.0187
  131OSM      P14006   3.579  -0.207   2.309  0.1678  0.0384 -0.0104
  131OSM    O1314007   3.711  -0.246   2.251 -0.4720  0.4264  0.3823
  131OSM    O1414008   3.564  -0.063   2.342  0.3608 -0.1602 -0.1960
  131OSM    O1114009   3.537  -0.297   2.434  0.9862 -0.0817  0.0375
  131OSM    O1214010   3.467  -0.238   2.196 -0.5755  0.6704 -0.1314
  131OSM    C1S14011   3.489  -0.433   2.408 -0.6253 -0.5562 -0.5931
  131OSM    H1S14012   3.561  -0.503   2.362 -0.2980 -0.0440 -0.8661
  131OSM    H1T14013   3.388  -0.436   2.362 -0.2688  0.4587 -1.4814
  131OSM     NF14014   3.420  -0.642   2.536 -0.1668  0.0590  0.0739
  131OSM    HNF14015   3.322  -0.660   2.531 -0.0390 -0.8858  0.7955
  131OSM    C2S14016   3.456  -0.502   2.548 -0.4724  0.1523  0.1866
  131OSM    H2S14017   3.549  -0.503   2.609 -1.6489 -1.2163  2.0753
  131OSM    C3S14018   3.350  -0.410   2.616  0.4502  0.6372  0.6766
  131OSM    H3S14019   3.252  -0.411   2.563  0.9155  1.1548 -0.2151
  131OSM     O314020   3.379  -0.269   2.622 -0.2977 -0.4907 -0.3699
  131OSM    HO314021   3.457  -0.259   2.567 -0.4093  0.6376 -0.3329
  131OSM    C4S14022   3.315  -0.445   2.755  0.2406  0.2009 -0.8933
  131OSM    H4S14023   3.395  -0.423   2.827 -1.4006 -0.4757  1.2315
  131OSM    C5S14024   3.212  -0.508   2.804 -0.0670 -0.8344  0.4005
  131OSM    H5S14025   3.143  -0.549   2.729  0.3823 -0.1216 -0.4270
  131OSM    C6S14026   3.200  -0.540   2.949  0.0358  0.1348  0.0741
  131OSM    H6S14027   3.302  -0.571   2.981 -0.3563 -0.2082  1.0341
  131OSM    H6T14028   3.133  -0.627   2.966  0.9110 -0.5096  0.3138
  131OSM    C7S14029   3.157  -0.433   3.049 -0.5407 -0.7565  0.1820
  131OSM    H7S14030   3.062  -0.382   3.022  0.0493  0.0777 -0.3415
  131OSM    H7T14031   3.231  -0.351   3.050 -0.4665 -0.7338 -1.8882
  131OSM    C8S14032   3.129  -0.494   3.186 -0.0556 -0.5368 -0.0355
  131OSM    H8S14033   3.211  -0.541   3.245 -2.5904 -3.2057  1.6458
  131OSM    H8T14034   3.051  -0.571   3.165  1.5822 -2.0445 -0.9015
  131OSM    C9S14035   3.067  -0.400   3.296  0.4202  0.0789  0.7782
  131OSM    H9S14036   3.011  -0.448   3.379 -2.4656  2.0269  0.1140
  131OSM    H9T14037   2.988  -0.344   3.241 -0.8244 -1.0238  1.3772
  131OSM   C10S14038   3.168  -0.311   3.371  0.5447  0.2386  0.1622
  131OSM   H10S14039   3.215  -0.232   3.308  0.8183 -0.0617 -0.0120
  131OSM   H10T14040   3.243  -0.384   3.408 -0.0945 -1.2399 -1.3066
  131OSM   C11S14041   3.106  -0.224   3.488 -0.0195  0.2641 -0.5026
  131OSM   H11S14042   3.041  -0.151   3.436 -0.6753  1.2472  1.5888
  131OSM   H11T14043   3.191  -0.166   3.529  1.1300 -0.9697 -1.0656
  131OSM   C12S14044   3.026  -0.301   3.599 -0.2037 -0.6588  0.5086
  131OSM   H12S14045   3.077  -0.390   3.643  0.5270  0.0177  1.0531
  131OSM   H12T14046   2.937  -0.337   3.543  0.5213  1.4647 -2.1896
  131OSM   C13S14047   2.980  -0.213   3.713  0.4511 -0.6755  0.4199
  131OSM   H13S14048   2.896  -0.269   3.760 -0.1425 -0.3776 -0.2572
  131OSM   H13T14049   2.934  -0.126   3.660  0.5820 -2.5573 -3.1028
  131OSM   C14S14050   3.079  -0.160   3.815  0.3412  0.3557  0.3724
  131OSM   H14S14051   3.157  -0.106   3.756 -0.3814 -0.2950 -1.2347
  131OSM   H14T14052   3.115  -0.254   3.862 -2.6744 -2.6426 -2.7226
  131OSM   C15S14053   3.014  -0.062   3.909 -0.5329  0.1773 -0.8010
  131OSM   H15S14054   2.939  -0.126   3.961  0.6956 -1.0681 -0.4870
  131OSM   H15T14055   2.968   0.023   3.854 -0.5282  0.9535  0.3548
  131OSM   C16S14056   3.106   0.001   4.018  0.7348 -0.5558 -0.4560
  131OSM   H16S14057   3.036   0.069   4.071 -0.4773 -2.1990  0.1481
  131OSM   H16T14058   3.184   0.069   3.978  0.4303 -1.1766 -2.2355
  131OSM   C17S14059   3.163  -0.106   4.118  1.0714  0.6900  0.2359
  131OSM   H17S14060   3.232  -0.050   4.186  0.7500  3.1626 -1.3404
  131OSM   H17T14061   3.229  -0.184   4.075 -0.1308  0.6378 -1.5884
  131OSM   C18S14062   3.054  -0.166   4.204  0.7481  0.0085  0.7507
  131OSM   H18S14063   3.082  -0.187   4.309  2.7595 -0.7219  0.1224
  131OSM   H18T14064   3.016  -0.263   4.163  0.4874  0.6408 -0.5320
  131OSM   H18U14065   2.959  -0.109   4.202  0.2348 -0.8345 -0.8338
  131OSM    C1F14066   3.506  -0.744   2.510  0.5185  0.1452 -0.0252
  131OSM     OF14067   3.624  -0.716   2.510 -0.2268 -0.0217  0.5162
  131OSM    C2F14068   3.456  -0.875   2.459 -0.7080 -0.1854  0.2979
  131OSM    H2F14069   3.489  -0.892   2.354  0.4100 -0.0336  0.6129
  131OSM    H2G14070   3.346  -0.879   2.446 -0.6416 -3.4702  0.0518
  131OSM    C3F14071   3.492  -0.997   2.542 -0.6684  0.0707 -0.3701
  131OSM    H3F14072   3.594  -1.038   2.526 -1.0455 -0.2228 -2.2329
  131OSM    H3G14073   3.427  -1.076   2.499  0.0175  0.0583 -1.4143
  131OSM    C4F14074   3.449  -0.983   2.691  0.3588 -0.2478  0.7912
  131OSM    H4F14075   3.510  -0.923   2.761  1.4164 -0.4571  0.0698
  131OSM    H4G14076   3.460  -1.087   2.729  0.3496  0.0602  1.6621
  131OSM    C5F14077   3.302  -0.942   2.713  0.7622  0.5297 -0.6007
  131OSM    H5F14078   3.229  -0.985   2.641  0.3376  2.1277 -1.1721
  131OSM    H5G14079   3.300  -0.831   2.718 -0.1569  0.4453  1.7999
  131OSM    C6F14080   3.261  -1.004   2.849 -1.4031 -0.3566 -0.4865
  131OSM    H6F14081   3.294  -1.110   2.846 -1.9651 -0.5197 -2.8227
  131OSM    H6G14082   3.150  -1.017   2.853 -1.4777  0.2718 -0.5099
  131OSM    C7F14083   3.307  -0.909   2.962  0.0851 -0.1848 -0.0745
  131OSM    H7F14084   3.287  -0.802   2.937 -2.1783  0.7319  4.6525
  131OSM    H7G14085   3.412  -0.920   2.996 -0.2736  0.1691  1.1749
  131OSM    C8F14086   3.220  -0.938   3.086 -0.8380 -1.2291  0.0690
  131OSM    H8F14087   3.115  -0.921   3.055 -0.2535  0.4325 -1.1527
  131OSM    H8G14088   3.244  -0.857   3.158  0.5966 -0.2350 -1.4362
  131OSM    C9F14089   3.233  -1.078   3.138  0.8126 -0.2752  0.6550
  131OSM    H9F14090   3.255  -1.154   3.062 -3.6281  0.8104 -2.1276
  131OSM   C10F14091   3.252  -1.110   3.267  0.7894 -0.4541 -0.4771
  131OSM   H10F14092   3.277  -1.215   3.283  2.6718 -0.1217 -1.0085
  131OSM   C11F14093   3.239  -1.024   3.390  0.3600  0.7799  0.2729
  131OSM   H11F14094   3.207  -0.923   3.356  0.7771  0.5670 -0.7965
  131OSM   H11G14095   3.344  -1.016   3.425  0.1625  0.3325  0.9753
  131OSM   C12F14096   3.149  -1.074   3.502 -0.2584 -0.1408  0.7516
  131OSM   H12F14097   3.211  -1.157   3.542  1.7986 -0.2150 -2.2591
  131OSM   H12G14098   3.050  -1.109   3.464 -0.1043  1.7336 -1.6625
  131OSM   C13F14099   3.132  -0.960   3.614  0.5436 -0.2999  0.0878
  131OSM   H13F14100   3.092  -0.868   3.566  0.4580 -0.7081 -0.6258
  131OSM   H13G14101   3.230  -0.941   3.662  0.6846  1.2961 -0.7605
  131OSM   C14F14102   3.025  -1.000   3.721 -0.6435  0.0664  0.4138
  131OSM   H14F14103   3.047  -1.104   3.752  1.0411  0.6941  1.4147
  131OSM   H14G14104   2.927  -0.999   3.669 -1.2808  1.0876  1.5624
  131OSM   C15F14105   3.018  -0.897   3.836 -0.2406 -0.0993 -0.2271
  131OSM   H15F14106   2.987  -0.799   3.794  0.1934 -0.3008 -1.0319
  131OSM   H15G14107   3.121  -0.887   3.877 -0.4900  2.3570 -0.0802
  131OSM   C16F14108   2.929  -0.946   3.950 -0.6075 -0.3310 -0.4585
  131OSM   H16F14109   2.923  -1.057   3.947 -1.7454 -0.3221  0.5827
  131OSM   H16G14110   2.826  -0.903   3.951 -0.2336  0.6150  1.5129
  131OSM   C17F14111   2.990  -0.904   4.084 -0.0335  0.3200 -0.5031
  131OSM   H17F14112   3.005  -0.795   4.090 -1.5457  0.4708  2.0722
  131OSM   H17G14113   3.095  -0.937   4.095  0.1658  1.7081  2.7637
  131OSM   C18F14114   2.895  -0.949   4.198 -0.1554 -0.2002  0.3842
  131OSM   H18F14115   2.802  -0.888   4.196  0.1266  0.2155 -1.4313
  131OSM   H18G14116   2.945  -0.932   4.296  0.3841  1.9482 -0.2194
  131OSM   H18H14117   2.871  -1.058   4.198  0.7810 -0.4152  0.5788
  132OSM      N14118   2.481   2.253   1.249  0.0883 -0.3099 -0.5495
  132OSM    C1514119   2.630   2.280   1.244  0.1607  0.4401 -0.6508
  132OSM   H15A14120   2.656   2.373   1.195 -0.3727 -0.7625 -3.4512
  132OSM   H15B14121   2.683   2.209   1.183 -1.4232 -0.7090 -0.7393
  132OSM   H15C14122   2.674   2.276   1.342  0.6030  0.4821 -0.8432
  132OSM    C1414123   2.424   2.273   1.114 -0.6137  0.2347 -0.2314
  132OSM   H14A14124   2.318   2.252   1.107 -0.8848  0.4424  2.2844
  132OSM   H14B14125   2.469   2.211   1.038 -2.1067 -1.3834  0.1401
  132OSM   H14C14126   2.441   2.376   1.087 -2.5620  1.5755  3.0367
  132OSM    C1314127   2.462   2.119   1.289  0.3308  0.5126 -0.4989
  132OSM   H13A14128   2.502   2.104   1.388 -0.1918 -1.6277 -0.5566
  132OSM   H13B14129   2.521   2.045   1.237  0.7625 -0.6378  1.5311
  132OSM   H13C14130   2.359   2.089   1.299  0.7592 -1.0105 -0.4011
  132OSM    C1214131   2.413   2.340   1.356 -0.0921  0.0093 -0.2811
  132OSM   H12A14132   2.312   2.344   1.319  0.0092 -0.8327 -0.6693
  132OSM   H12B14133   2.445   2.443   1.351 -1.1267  0.3131 -1.0767
  132OSM    C1114134   2.417   2.291   1.504  0.2776 -0.9172 -0.2659
  132OSM   H11A14135   2.357   2.199   1.519 -0.6982  0.1874  3.6588
  132OSM   H11B14136   2.366   2.368   1.565 -1.4150  0.2087 -2.9395
  132OSM      P14137   2.632   2.376   1.619  0.2362 -0.1003  0.0964
  132OSM    O1314138   2.775   2.355   1.602 -0.6568 -0.3069 -0.5271
  132OSM    O1414139   2.583   2.512   1.587 -0.1913  0.1690  0.5747
  132OSM    O1114140   2.593   2.340   1.768 -0.1196 -0.6809 -0.3965
  132OSM    O1214141   2.554   2.264   1.540  0.4520  0.1096  0.0951
  132OSM    C1S14142   2.614   2.211   1.822 -0.5181 -0.0962  0.5944
  132OSM    H1S14143   2.716   2.174   1.797 -0.5161  1.2764 -1.6785
  132OSM    H1T14144   2.540   2.139   1.780 -3.0148  2.8094 -0.3575
  132OSM     NF14145   2.602   2.054   2.010 -0.2165 -0.3323  0.1514
  132OSM    HNF14146   2.516   2.008   1.991 -2.2567  3.8621 -2.1888
  132OSM    C2S14147   2.589   2.194   1.976  0.6981  0.0891  0.5286
  132OSM    H2S14148   2.660   2.259   2.030  2.2434 -0.0968 -1.1558
  132OSM    C3S14149   2.445   2.250   2.008  0.0679  0.5073  0.4491
  132OSM    H3S14150   2.375   2.182   1.956  2.4136 -1.2970 -0.5145
  132OSM     O314151   2.419   2.382   1.958  0.1237  0.0976 -0.4183
  132OSM    HO314152   2.497   2.392   1.903  0.2748 -1.1481 -0.4796
  132OSM    C4S14153   2.409   2.254   2.156 -0.0435  0.8002 -0.1834
  132OSM    H4S14154   2.405   2.355   2.200  3.0148  0.9915 -0.1303
  132OSM    C5S14155   2.379   2.155   2.243  0.1733 -0.1397  0.9675
  132OSM    H5S14156   2.370   2.049   2.214  1.0450 -0.1804  0.8115
  132OSM    C6S14157   2.341   2.182   2.380  0.9072  0.2301  0.0179
  132OSM    H6S14158   2.250   2.122   2.403  1.2349 -0.7560 -1.1477
  132OSM    H6T14159   2.322   2.291   2.393 -0.8309  0.3031 -2.4114
  132OSM    C7S14160   2.461   2.156   2.477  0.9686 -0.2495 -0.2721
  132OSM    H7S14161   2.513   2.254   2.479 -1.7390  1.3927 -3.0582
  132OSM    H7T14162   2.530   2.076   2.440  0.9908 -0.3305 -0.0622
  132OSM    C8S14163   2.403   2.119   2.620 -0.2919  0.1078  0.6408
  132OSM    H8S14164   2.339   2.029   2.608  0.9419 -0.7203  0.0309
  132OSM    H8T14165   2.340   2.203   2.655 -2.9429 -1.5088  0.0428
  132OSM    C9S14166   2.509   2.098   2.728  0.0570 -0.7060 -0.4179
  132OSM    H9S14167   2.589   2.174   2.711 -0.2123  0.3034  2.2165
  132OSM    H9T14168   2.548   1.995   2.719 -2.9602 -1.9992  0.0778
  132OSM   C10S14169   2.445   2.106   2.864 -0.0062 -0.1978  0.0807
  132OSM   H10S14170   2.365   2.030   2.859  1.6632 -1.9355 -1.5266
  132OSM   H10T14171   2.416   2.210   2.892  2.6684  0.1016  2.2161
  132OSM   C11S14172   2.557   2.074   2.973 -0.5351 -0.4458 -0.1867
  132OSM   H11S14173   2.645   2.141   2.965 -0.5433 -0.5166 -0.9579
  132OSM   H11T14174   2.583   1.966   2.967 -0.3285 -0.3442 -1.3107
  132OSM   C12S14175   2.498   2.088   3.120  0.9797 -0.2566  0.1613
  132OSM   H12S14176   2.403   2.030   3.125  0.6860  0.1748 -0.2952
  132OSM   H12T14177   2.479   2.196   3.136 -0.0124 -0.4054  0.0197
  132OSM   C13S14178   2.596   2.054   3.237 -1.1263  0.8074  0.0614
  132OSM   H13S14179   2.700   2.091   3.224 -0.8665  0.2198  0.4187
  132OSM   H13T14180   2.588   1.945   3.259  0.2930  0.7418  0.3563
  132OSM   C14S14181   2.544   2.123   3.370 -0.8376 -0.2187  0.1658
  132OSM   H14S14182   2.445   2.082   3.398 -1.3407  1.8538  1.7490
  132OSM   H14T14183   2.525   2.229   3.340 -1.0952 -1.1208 -3.2762
  132OSM   C15S14184   2.649   2.119   3.486 -0.0103  0.3168  0.3672
  132OSM   H15S14185   2.754   2.122   3.452 -0.9444  0.6808 -2.8156
  132OSM   H15T14186   2.632   2.018   3.529  1.7613  0.5215  1.6208
  132OSM   C16S14187   2.613   2.223   3.591 -0.4780 -0.9244 -0.2705
  132OSM   H16S14188   2.503   2.222   3.602 -0.7455 -1.0534 -2.5139
  132OSM   H16T14189   2.645   2.326   3.564  0.7304 -0.8771  1.1930
  132OSM   C17S14190   2.666   2.185   3.733  0.7887 -0.5388 -0.6499
  132OSM   H17S14191   2.776   2.174   3.727  0.7562 -1.8008  0.6295
  132OSM   H17T14192   2.627   2.082   3.749 -0.6108  0.1000  0.3137
  132OSM   C18S14193   2.627   2.283   3.845 -0.1156 -0.4315  0.3557
  132OSM   H18S14194   2.516   2.289   3.854 -0.2092 -1.0879 -0.2716
  132OSM   H18T14195   2.679   2.379   3.829 -0.5574 -0.0995  0.8554
  132OSM   H18U14196   2.661   2.249   3.946 -2.8325 -2.1640  0.7874
  132OSM    C1F14197   2.725   2.004   2.020 -0.1458  0.0741  0.1119
  132OSM     OF14198   2.830   2.068   2.001  0.2677 -0.2606  0.4347
  132OSM    C2F14199   2.741   1.857   2.047  1.0944 -0.5274  0.6915
  132OSM    H2F14200   2.806   1.801   1.978  2.4850 -1.0621  2.3553
  132OSM    H2G14201   2.637   1.818   2.036  0.5228  0.7605  1.2701
  132OSM    C3F14202   2.813   1.826   2.182  0.1017  0.0339  0.1665
  132OSM    H3F14203   2.919   1.861   2.182  0.2308 -0.3562 -0.6298
  132OSM    H3G14204   2.808   1.715   2.186  2.4530 -0.1608 -0.8487
  132OSM    C4F14205   2.756   1.883   2.313  0.2160 -0.0206  0.1883
  132OSM    H4F14206   2.654   1.843   2.333  0.9694 -1.8429  0.6659
  132OSM    H4G14207   2.743   1.993   2.309 -0.5679 -0.1325 -1.0548
  132OSM    C5F14208   2.848   1.857   2.438 -0.2462 -0.3514  1.3980
  132OSM    H5F14209   2.829   1.934   2.516 -0.2025  1.4932 -0.3197
  132OSM    H5G14210   2.954   1.860   2.403 -0.4671  0.4624  0.7816
  132OSM    C6F14211   2.825   1.716   2.500 -0.8370  0.4472 -0.5498
  132OSM    H6F14212   2.842   1.636   2.425  1.0646 -1.3764  1.6777
  132OSM    H6G14213   2.725   1.712   2.546 -0.1131 -1.3472  1.0073
  132OSM    C7F14214   2.934   1.691   2.604 -0.3305  0.2375 -0.5907
  132OSM    H7F14215   2.947   1.772   2.680 -0.6075  0.2524 -0.5584
  132OSM    H7G14216   3.029   1.691   2.547  0.3497 -3.4718  0.2830
  132OSM    C8F14217   2.922   1.560   2.679  0.3793  0.5540 -0.7594
  132OSM    H8F14218   3.011   1.548   2.745 -1.3486  0.4393  1.6928
  132OSM    H8G14219   2.928   1.476   2.607  1.6535 -0.0523  0.0183
  132OSM    C9F14220   2.793   1.550   2.758 -0.2357 -0.1208 -0.1808
  132OSM    H9F14221   2.711   1.499   2.704 -0.8127 -0.4467  0.9735
  132OSM   C10F14222   2.778   1.583   2.882 -0.0812  0.1617 -0.5367
  132OSM   H10F14223   2.670   1.581   2.904 -0.5679  0.5774 -2.6404
  132OSM   C11F14224   2.875   1.663   2.968 -0.2578 -0.2043 -0.5943
  132OSM   H11F14225   2.850   1.770   2.950 -1.9882 -0.3841  0.5009
  132OSM   H11G14226   2.983   1.646   2.945 -0.8758 -2.8927 -1.8535
  132OSM   C12F14227   2.857   1.629   3.119  0.3927 -0.1012 -0.3910
  132OSM   H12F14228   2.901   1.537   3.164  1.5138  1.1485  1.1739
  132OSM   H12G14229   2.752   1.603   3.146  0.6266  0.9822  1.7948
  132OSM   C13F14230   2.888   1.737   3.223  0.1324  0.0688  0.1005
  132OSM   H13F14231   2.834   1.831   3.197 -0.0892 -0.6909 -2.3724
  132OSM   H13G14232   2.994   1.767   3.210  0.1564  0.0645  0.2776
  132OSM   C14F14233   2.860   1.709   3.369 -0.0668 -0.5278 -0.0116
  132OSM   H14F14234   2.933   1.630   3.395 -1.0512 -1.0667  1.2204
  132OSM   H14G14235   2.754   1.680   3.390 -1.9002  3.1708 -2.8366
  132OSM   C15F14236   2.899   1.828   3.464 -0.0666 -0.7608 -0.0432
  132OSM   H15F14237   2.808   1.890   3.451  1.4956  1.4396 -1.1526
  132OSM   H15G14238   2.995   1.868   3.425  0.3564 -0.7125  1.0126
  132OSM   C16F14239   2.919   1.770   3.603  0.2188 -0.0494  0.3204
  132OSM   H16F14240   2.991   1.685   3.600 -0.3406 -0.5280  0.2136
  132OSM   H16G14241   2.827   1.719   3.638  0.5245 -0.7224  0.1603
  132OSM   C17F14242   2.957   1.877   3.711 -0.4119  0.0437  0.4270
  132OSM   H17F14243   2.897   1.970   3.702 -0.4833 -0.1267 -1.3188
  132OSM   H17G14244   3.063   1.910   3.704 -0.6734  1.6190  2.8125
  132OSM   C18F14245   2.930   1.826   3.858  0.0501  0.6137  0.2534
  132OSM   H18F14246   2.823   1.815   3.884  0.3296  0.7199  1.5458
  132OSM   H18G14247   2.974   1.900   3.929  1.3497  1.3990 -1.3051
  132OSM   H18H14248   2.969   1.724   3.878 -0.5775  0.2480 -0.3400
  133OSM      N14249   1.691   1.040   1.525  0.1898  0.4872 -0.0244
  133OSM    C1514250   1.699   1.073   1.380  0.1568  0.1461  0.4523
  133OSM   H15A14251   1.689   0.980   1.325  2.0675  0.6084 -0.7672
  133OSM   H15B14252   1.796   1.105   1.345  0.5706  1.0624  2.3313
  133OSM   H15C14253   1.627   1.143   1.340 -1.6638 -2.9512 -2.2553
  133OSM    C1414254   1.759   0.908   1.540 -0.3280 -0.6019 -0.4516
  133OSM   H14A14255   1.716   0.835   1.473  1.9649  0.7440 -3.6293
  133OSM   H14B14256   1.742   0.872   1.641 -0.4835 -1.4693 -0.7765
  133OSM   H14C14257   1.867   0.918   1.535 -0.1798 -1.6837  0.2224
  133OSM    C1314258   1.763   1.124   1.621  0.6796  0.0220 -0.3803
  133OSM   H13A14259   1.860   1.147   1.579  0.6457 -1.8358 -1.6179
  133OSM   H13B14260   1.773   1.073   1.716  1.0548  1.3273  0.3015
  133OSM   H13C14261   1.713   1.217   1.642 -0.0188 -0.7011  1.3633
  133OSM    C1214262   1.545   1.035   1.577  0.5211  0.7605 -0.3269
  133OSM   H12A14263   1.495   0.949   1.533 -1.1688  2.4083 -1.8260
  133OSM   H12B14264   1.488   1.123   1.552  1.5909  1.8406  0.9266
  133OSM    C1114265   1.511   1.014   1.726  0.3430  0.6554  0.8907
  133OSM   H11A14266   1.402   1.029   1.737 -0.3116 -1.4094 -1.7657
  133OSM   H11B14267   1.563   1.097   1.779  1.6071 -0.0818  0.8482
  133OSM      P14268   1.590   0.871   1.910  0.3411 -0.1410 -0.2432
  133OSM    O1314269   1.657   0.743   1.923 -0.1013 -0.1669  0.2213
  133OSM    O1414270   1.673   0.991   1.950  0.8597 -0.1893 -0.1080
  133OSM    O1114271   1.446   0.862   1.982 -0.1439 -0.1426  0.3759
  133OSM    O1214272   1.542   0.882   1.757 -0.6572 -0.1098 -0.5873
  133OSM    C1S14273   1.442   0.859   2.124  0.1919  0.1996 -0.0412
  133OSM    H1S14274   1.503   0.778   2.170 -0.5754 -0.9362 -0.9551
  133OSM    H1T14275   1.337   0.839   2.156 -0.4373  0.3353 -1.9357
  133OSM     NF14276   1.496   0.949   2.342  0.5296 -0.3356  0.1181
  133OSM    HNF14277   1.420   0.959   2.406 -0.0341 -0.4925 -0.5245
  133OSM    C2S14278   1.474   0.988   2.206  0.9921 -0.1036  0.0319
  133OSM    H2S14279   1.563   1.035   2.159 -0.0775  1.2065 -0.7826
  133OSM    C3S14280   1.350   1.092   2.191 -0.0305 -0.6584  0.0190
  133OSM    H3S14281   1.256   1.036   2.214 -1.0050 -0.2965 -2.7362
  133OSM     O314282   1.333   1.135   2.057 -0.2317 -0.0948 -0.1430
  133OSM    HO314283   1.403   1.100   2.001 -0.4727  1.5642 -1.5788
  133OSM    C4S14284   1.365   1.204   2.290  0.4325 -0.5273  0.8128
  133OSM    H4S14285   1.294   1.191   2.372 -2.0245 -0.9676 -1.2482
  133OSM    C5S14286   1.452   1.311   2.274  0.1960 -0.0052 -0.3827
  133OSM    H5S14287   1.522   1.309   2.189  1.9364 -2.7291  0.9780
  133OSM    C6S14288   1.466   1.422   2.380 -0.4571  0.0611 -0.3091
  133OSM    H6S14289   1.421   1.513   2.335 -1.0546  1.2302  2.4272
  133OSM    H6T14290   1.575   1.438   2.390 -0.6498  1.6081 -0.3800
  133OSM    C7S14291   1.398   1.411   2.519 -0.1206  0.6442 -0.3047
  133OSM    H7S14292   1.290   1.386   2.515  0.3531 -2.0179  1.0615
  133OSM    H7T14293   1.383   1.507   2.573 -2.2744  1.5344 -2.3162
  133OSM    C8S14294   1.468   1.314   2.618  0.4896  0.5603  0.8081
  133OSM    H8S14295   1.575   1.345   2.612  0.1774  1.5817 -3.8996
  133OSM    H8T14296   1.466   1.209   2.580 -0.6767  0.8848 -0.0898
  133OSM    C9S14297   1.398   1.316   2.752 -0.1766 -0.4868  0.1138
  133OSM    H9S14298   1.427   1.216   2.790  0.0824 -0.4908 -0.0927
  133OSM    H9T14299   1.287   1.321   2.754 -0.3426 -2.8888 -0.0735
  133OSM   C10S14300   1.449   1.421   2.851 -0.0933 -0.0168  0.0581
  133OSM   H10S14301   1.436   1.521   2.804  2.7622  0.0805 -0.7062
  133OSM   H10T14302   1.559   1.411   2.864 -0.2672 -1.8151  0.3987
  133OSM   C11S14303   1.385   1.413   2.990  0.0035 -0.4737 -0.3521
  133OSM   H11S14304   1.384   1.308   3.026  3.0113 -0.0624  1.2957
  133OSM   H11T14305   1.276   1.432   2.984  0.1134  0.1047 -0.6292
  133OSM   C12S14306   1.451   1.497   3.096 -0.1327  0.1369  0.2534
  133OSM   H12S14307   1.443   1.604   3.067  2.7091 -0.2644 -2.6802
  133OSM   H12T14308   1.556   1.461   3.100  0.5308  2.0500  1.5125
  133OSM   C13S14309   1.387   1.475   3.241 -0.4707  0.0118  0.5730
  133OSM   H13S14310   1.368   1.367   3.261  0.6166 -0.3478 -0.2229
  133OSM   H13T14311   1.286   1.518   3.224 -0.2543  0.2524 -0.1526
  133OSM   C14S14312   1.470   1.535   3.355 -0.2268 -0.7282  0.4090
  133OSM   H14S14313   1.485   1.641   3.329 -1.8889 -0.1346  1.6811
  133OSM   H14T14314   1.569   1.484   3.361 -0.0802 -0.3804  1.0125
  133OSM   C15S14315   1.411   1.535   3.498 -0.2919 -0.2000 -0.1251
  133OSM   H15S14316   1.313   1.585   3.514  0.2430  0.6819  0.5321
  133OSM   H15T14317   1.483   1.600   3.553  1.3703 -2.1501  0.1179
  133OSM   C16S14318   1.412   1.402   3.580  0.1775 -0.2822  1.0005
  133OSM   H16S14319   1.519   1.371   3.576 -0.2573 -1.8226 -1.5176
  133OSM   H16T14320   1.347   1.327   3.529 -1.3961 -1.6086  4.6146
  133OSM   C17S14321   1.361   1.418   3.727  0.5652  0.4572  0.3868
  133OSM   H17S14322   1.349   1.318   3.774 -0.7727 -0.6361 -2.0786
  133OSM   H17T14323   1.258   1.460   3.721  1.0876  1.5355 -2.6565
  133OSM   C18S14324   1.451   1.503   3.818  0.5697  0.6647  0.8401
  133OSM   H18S14325   1.557   1.493   3.787 -0.0360  0.0079 -1.1973
  133OSM   H18T14326   1.435   1.479   3.925 -1.0009 -1.8266  0.1478
  133OSM   H18U14327   1.421   1.609   3.802 -1.2465  0.0307 -0.4067
  133OSM    C1F14328   1.612   0.888   2.373  0.4438  0.4634  0.1614
  133OSM     OF14329   1.698   0.860   2.286  0.5278  0.4530 -0.4291
  133OSM    C2F14330   1.618   0.847   2.515  0.2131  0.7673  0.0540
  133OSM    H2F14331   1.518   0.813   2.551 -0.4388  1.3521 -1.1669
  133OSM    H2G14332   1.656   0.932   2.575  1.2890 -0.7234  1.5980
  133OSM    C3F14333   1.716   0.736   2.537 -0.5592  0.1580 -0.2906
  133OSM    H3F14334   1.817   0.755   2.496 -1.1013 -1.0347 -2.2942
  133OSM    H3G14335   1.681   0.642   2.490 -1.8614 -1.0068  2.7334
  133OSM    C4F14336   1.729   0.673   2.683 -0.0223  0.0638 -0.1354
  133OSM    H4F14337   1.815   0.603   2.690  0.9613  1.2019 -0.4286
  133OSM    H4G14338   1.634   0.618   2.696  0.4234 -0.6182  0.2452
  133OSM    C5F14339   1.745   0.778   2.797 -0.4826  1.0120 -0.0452
  133OSM    H5F14340   1.653   0.841   2.798 -0.5693  0.9376  2.3007
  133OSM    H5G14341   1.832   0.846   2.781  1.5422 -1.0564  1.4751
  133OSM    C6F14342   1.765   0.704   2.935 -0.1452  0.2646 -0.0830
  133OSM    H6F14343   1.862   0.649   2.929 -0.9835 -1.1838 -1.0350
  133OSM    H6G14344   1.692   0.623   2.956 -0.2148  0.2676 -0.3144
  133OSM    C7F14345   1.774   0.796   3.057  0.4020 -0.4027  0.3192
  133OSM    H7F14346   1.675   0.843   3.075  1.4076  1.4402  1.4149
  133OSM    H7G14347   1.822   0.892   3.029  1.2488 -0.3610  1.7887
  133OSM    C8F14348   1.846   0.726   3.168 -0.6037  0.3163 -0.0212
  133OSM    H8F14349   1.871   0.808   3.239  0.3038  1.1302 -1.2302
  133OSM    H8G14350   1.949   0.701   3.133 -0.5298  1.0376 -0.3406
  133OSM    C9F14351   1.774   0.607   3.233 -0.7868 -0.7434  0.3528
  133OSM    H9F14352   1.669   0.638   3.218  0.0080  1.4575 -1.0637
  133OSM   C10F14353   1.822   0.489   3.270  0.3837  0.0867 -0.0233
  133OSM   H10F14354   1.754   0.415   3.313  1.2761 -0.3067  0.7573
  133OSM   C11F14355   1.968   0.453   3.270 -0.3689 -0.1550 -0.2100
  133OSM   H11F14356   2.035   0.527   3.222  1.4633 -2.3792 -1.3176
  133OSM   H11G14357   1.975   0.358   3.212 -1.4579 -1.3581  1.5199
  133OSM   C12F14358   2.028   0.429   3.415 -1.4182  0.0338 -0.7845
  133OSM   H12F14359   2.131   0.395   3.394 -0.8127 -1.7894  3.9718
  133OSM   H12G14360   1.971   0.351   3.470  2.3487 -3.5706 -1.4974
  133OSM   C13F14361   2.032   0.541   3.518  0.2848 -0.3622  0.4252
  133OSM   H13F14362   1.928   0.552   3.556  0.4107  0.6448  0.5210
  133OSM   H13G14363   2.059   0.632   3.459 -3.8972  0.4790 -0.5339
  133OSM   C14F14364   2.122   0.512   3.637 -0.1880 -0.9190  0.4998
  133OSM   H14F14365   2.218   0.489   3.586 -1.1278 -1.1574 -1.2417
  133OSM   H14G14366   2.090   0.417   3.684 -1.4831  0.0361  1.6078
  133OSM   C15F14367   2.136   0.631   3.736 -0.0064  0.1812  0.0788
  133OSM   H15F14368   2.049   0.647   3.802 -0.0214  1.8587 -0.2923
  133OSM   H15G14369   2.164   0.720   3.675  1.3977 -0.4711 -0.2902
  133OSM   C16F14370   2.265   0.611   3.822 -0.3314 -0.4152 -0.4011
  133OSM   H16F14371   2.342   0.589   3.744  0.5024 -0.7688  0.5066
  133OSM   H16G14372   2.254   0.524   3.890  0.8149 -0.8417 -0.7380
  133OSM   C17F14373   2.316   0.740   3.885  0.8050 -0.5300  0.4576
  133OSM   H17F14374   2.241   0.793   3.949  0.0763 -1.5875  0.4980
  133OSM   H17G14375   2.324   0.812   3.801 -1.7249 -0.4641  0.1797
  133OSM   C18F14376   2.445   0.712   3.964  0.0451  0.7982  0.1772
  133OSM   H18F14377   2.473   0.784   4.044 -0.9826  0.9287  0.4308
  133OSM   H18G14378   2.526   0.706   3.888  1.0804 -0.5310  1.3185
  133OSM   H18H14379   2.441   0.611   4.011 -0.4410  1.3057  1.2752
  134OSM      N14380   5.573   3.723   1.973  0.1143  0.7170  0.2036
  134OSM    C1514381   5.481   3.745   1.857 -0.1288 -0.4006  0.0377
  134OSM   H15A14382   5.381   3.755   1.897  0.2569 -1.1996  1.2329
  134OSM   H15B14383   5.471   3.663   1.787 -2.0755 -0.1400 -0.0456
  134OSM   H15C14384   5.502   3.837   1.804 -2.9500  0.9652  1.0859
  134OSM    C1414385   5.719   3.760   1.929 -0.0833  0.2869  0.6579
  134OSM   H14A14386   5.743   3.686   1.853 -1.8379  0.3160  0.0206
  134OSM   H14B14387   5.790   3.758   2.010  0.4214 -2.2400  0.2385
  134OSM   H14C14388   5.709   3.851   1.873  0.2214  0.3958  0.7793
  134OSM    C1314389   5.545   3.829   2.077  0.7218  0.8009  0.9418
  134OSM   H13A14390   5.446   3.821   2.121 -0.2504  0.6017 -1.1352
  134OSM   H13B14391   5.549   3.931   2.041  1.3240  0.9601  1.4352
  134OSM   H13C14392   5.614   3.821   2.160  1.5219  3.6082  0.6318
  134OSM    C1214393   5.572   3.579   2.025  0.9877 -0.0981  0.6887
  134OSM   H12A14394   5.477   3.561   2.072  1.4566 -0.6489  1.4612
  134OSM   H12B14395   5.647   3.560   2.100  1.6230 -1.7548 -0.3179
  134OSM    C1114396   5.603   3.477   1.911 -0.2534  0.9650 -0.2868
  134OSM   H11A14397   5.523   3.477   1.834  1.4252  0.2830 -2.1297
  134OSM   H11B14398   5.584   3.372   1.944 -2.1125  1.3848  0.1022
  134OSM      P14399   5.866   3.429   1.942  0.4675 -0.1186 -0.4671
  134OSM    O1314400   5.901   3.297   1.888  0.6676  0.3412  0.2019
  134OSM    O1414401   5.970   3.535   1.952  0.2976  0.1791 -0.0699
  134OSM    O1114402   5.807   3.411   2.085 -0.0172  0.0020  0.2925
  134OSM    O1214403   5.740   3.482   1.858 -0.0641 -0.2498  0.3870
  134OSM    C1S14404   5.884   3.362   2.193  0.3047 -0.3346 -0.2142
  134OSM    H1S14405   5.962   3.439   2.212  0.8858 -0.9358 -0.1017
  134OSM    H1T14406   5.921   3.258   2.176  0.6265 -0.1285 -0.7935
  134OSM     NF14407   5.923   3.330   2.429  0.4358  0.7244 -0.4675
  134OSM    HNF14408   5.915   3.241   2.474 -1.0576  0.6858 -0.7457
  134OSM    C2S14409   5.823   3.365   2.335  0.0035 -0.1299 -0.9216
  134OSM    H2S14410   5.798   3.470   2.363 -2.4375 -0.6036 -1.1359
  134OSM    C3S14411   5.698   3.277   2.337  0.1934 -0.0434 -0.0045
  134OSM    H3S14412   5.728   3.171   2.322  0.8719  0.1651 -0.1587
  134OSM     O314413   5.606   3.293   2.231 -0.4634  0.4079  1.3496
  134OSM    HO314414   5.660   3.336   2.164  0.5455  0.2957  2.0729
  134OSM    C4S14415   5.618   3.270   2.469 -0.0531 -0.6494 -0.0730
  134OSM    H4S14416   5.644   3.184   2.533 -3.9861 -1.1852  1.0307
  134OSM    C5S14417   5.531   3.361   2.514 -0.5200  0.6393 -0.4616
  134OSM    H5S14418   5.507   3.457   2.466 -0.9661  1.6555  1.7008
  134OSM    C6S14419   5.459   3.343   2.646 -0.2326  0.3006  0.1644
  134OSM    H6S14420   5.444   3.234   2.665  0.4637  0.4807  1.9823
  134OSM    H6T14421   5.355   3.379   2.630  0.0090  0.1931 -1.9145
  134OSM    C7S14422   5.524   3.385   2.781 -0.0512  0.6175  0.4509
  134OSM    H7S14423   5.529   3.496   2.780 -0.4068  0.6323 -0.5174
  134OSM    H7T14424   5.630   3.354   2.797 -0.3404 -0.4820  0.2880
  134OSM    C8S14425   5.430   3.358   2.904 -0.4137  0.4109 -0.1098
  134OSM    H8S14426   5.329   3.399   2.882 -0.1732  2.3015  1.9535
  134OSM    H8T14427   5.454   3.418   2.994 -2.5193  1.7338 -0.3713
  134OSM    C9S14428   5.421   3.215   2.969 -0.1408 -0.3438  0.1716
  134OSM    H9S14429   5.524   3.181   2.995  0.0499 -0.8093 -1.1106
  134OSM    H9T14430   5.370   3.152   2.893 -2.0237 -1.3335  2.1647
  134OSM   C10S14431   5.334   3.216   3.101  0.4491 -0.3033 -0.0974
  134OSM   H10S14432   5.230   3.247   3.078  1.5086  1.8088 -2.5662
  134OSM   H10T14433   5.378   3.291   3.170 -1.6753 -0.4550  1.5300
  134OSM   C11S14434   5.340   3.083   3.181  0.3639 -0.1890 -0.4554
  134OSM   H11S14435   5.445   3.054   3.201  0.3937  1.4755  2.4626
  134OSM   H11T14436   5.283   3.012   3.118 -0.1348 -0.0694 -0.1483
  134OSM   C12S14437   5.263   3.110   3.313 -0.7187 -0.1011 -0.9805
  134OSM   H12S14438   5.235   3.013   3.359  2.2542  0.1029  1.5366
  134OSM   H12T14439   5.173   3.171   3.291 -0.6873  0.8759  1.2854
  134OSM   C13S14440   5.350   3.190   3.415  0.4390  0.5276 -0.1446
  134OSM   H13S14441   5.371   3.294   3.383 -0.6148  0.5147 -0.9417
  134OSM   H13T14442   5.452   3.144   3.416 -0.4258 -1.5263 -0.0880
  134OSM   C14S14443   5.297   3.195   3.561  0.4345 -0.5325 -0.1085
  134OSM   H14S14444   5.376   3.144   3.620  1.1558  0.4713 -0.1871
  134OSM   H14T14445   5.209   3.126   3.561  0.7634 -1.0581  2.4629
  134OSM   C15S14446   5.275   3.337   3.607  0.3668  0.5802 -0.0191
  134OSM   H15S14447   5.208   3.395   3.541  1.5603  2.3713  0.2835
  134OSM   H15T14448   5.373   3.388   3.607  1.0796 -0.7334  0.1837
  134OSM   C16S14449   5.220   3.348   3.754  0.1980 -0.1457 -0.8860
  134OSM   H16S14450   5.184   3.450   3.776 -0.7904 -0.5305 -0.6630
  134OSM   H16T14451   5.303   3.332   3.826 -1.9848  1.2859  2.2014
  134OSM   C17S14452   5.119   3.235   3.791 -0.0258  0.0531 -0.4895
  134OSM   H17S14453   5.157   3.132   3.783 -1.7951 -0.5741 -1.6127
  134OSM   H17T14454   5.034   3.241   3.719 -1.0714 -1.3056  0.5939
  134OSM   C18S14455   5.071   3.248   3.932 -0.1831 -0.3603 -0.6240
  134OSM   H18S14456   5.145   3.227   4.012 -1.7131 -1.7984  0.5141
  134OSM   H18T14457   4.987   3.175   3.942 -1.5252  1.3310  1.6016
  134OSM   H18U14458   5.031   3.350   3.950  1.5146  0.4296 -1.1569
  134OSM    C1F14459   6.023   3.396   2.480  0.4296 -0.7868 -0.8393
  134OSM     OF14460   6.032   3.520   2.449 -0.9707  0.5968  0.1826
  134OSM    C2F14461   6.109   3.322   2.577  0.4373 -0.2046 -0.3325
  134OSM    H2F14462   6.174   3.252   2.520 -0.0727 -1.1935  0.2630
  134OSM    H2G14463   6.037   3.265   2.639 -1.0601  3.5544  1.6946
  134OSM    C3F14464   6.202   3.406   2.665 -0.3248  0.9346  0.0327
  134OSM    H3F14465   6.283   3.464   2.617 -1.8197  1.4543 -2.0294
  134OSM    H3G14466   6.260   3.333   2.725 -0.1699  0.2799 -0.8832
  134OSM    C4F14467   6.119   3.489   2.756 -0.6300 -0.0282 -0.5810
  134OSM    H4F14468   6.055   3.434   2.828  3.2966 -2.8668  1.1425
  134OSM    H4G14469   6.049   3.560   2.706  0.3348  2.3850  1.2564
  134OSM    C5F14470   6.211   3.581   2.832  0.5531  0.4891  0.1968
  134OSM    H5F14471   6.230   3.675   2.775 -0.1007  1.1856  1.0992
  134OSM    H5G14472   6.310   3.539   2.858 -0.4455 -0.5698  2.5872
  134OSM    C6F14473   6.147   3.629   2.957  0.0408 -0.2750  0.8966
  134OSM    H6F14474   6.141   3.555   3.040 -1.8085 -1.7227 -0.4230
  134OSM    H6G14475   6.040   3.653   2.938 -0.6048 -1.9765  2.1252
  134OSM    C7F14476   6.225   3.751   3.006 -0.0261  0.9928  0.0028
  134OSM    H7F14477   6.206   3.839   2.941 -1.1883  2.0261  1.6713
  134OSM    H7G14478   6.333   3.727   3.012 -0.1396  0.6121  0.6178
  134OSM    C8F14479   6.201   3.795   3.154  0.2954  0.1306 -0.4471
  134OSM    H8F14480   6.270   3.879   3.173  0.6165 -0.3986  0.7775
  134OSM    H8G14481   6.227   3.712   3.223  1.3005 -0.3370 -1.3499
  134OSM    C9F14482   6.053   3.837   3.168 -0.3150 -0.0781 -0.7223
  134OSM    H9F14483   5.993   3.860   3.078 -2.4141  1.3771  0.9549
  134OSM   C10F14484   5.985   3.851   3.282 -0.9397  0.2449  0.3126
  134OSM   H10F14485   5.875   3.858   3.279 -0.8794  1.6711  0.8857
  134OSM   C11F14486   6.041   3.821   3.421 -0.3527 -0.1613  0.1497
  134OSM   H11F14487   6.151   3.800   3.422 -0.3953 -0.4260  1.4754
  134OSM   H11G14488   6.001   3.741   3.487  0.4964  1.6827  3.0797
  134OSM   C12F14489   6.025   3.946   3.493 -0.3731 -0.4338 -0.8250
  134OSM   H12F14490   6.080   4.026   3.439 -1.7002 -1.0433 -3.2218
  134OSM   H12G14491   6.077   3.937   3.591 -2.8691 -2.2213  0.4474
  134OSM   C13F14492   5.883   4.002   3.513  0.6908 -0.2738 -0.3067
  134OSM   H13F14493   5.824   3.919   3.557 -1.2536  1.2881  0.1785
  134OSM   H13G14494   5.829   4.021   3.418  0.2274 -0.3606 -0.0659
  134OSM   C14F14495   5.879   4.130   3.602  0.1225 -0.6960  0.8796
  134OSM   H14F14496   5.932   4.209   3.543 -1.0218  0.4651  1.3616
  134OSM   H14G14497   5.940   4.113   3.693  2.7209 -1.6606 -0.9322
  134OSM   C15F14498   5.734   4.172   3.622  0.1550 -0.1291 -0.3048
  134OSM   H15F14499   5.675   4.087   3.663 -2.4867  0.5407 -2.3845
  134OSM   H15G14500   5.681   4.195   3.526  0.4514  0.4348 -0.3406
  134OSM   C16F14501   5.715   4.291   3.725  0.0064 -0.2218  0.8189
  134OSM   H16F14502   5.724   4.255   3.830 -0.3798  0.0789  0.9533
  134OSM   H16G14503   5.610   4.319   3.707  0.8119  1.7364 -1.2524
  134OSM   C17F14504   5.808   4.412   3.695 -0.3029  0.6773 -0.2421
  134OSM   H17F14505   5.792   4.453   3.593  0.3429 -0.5963 -0.8796
  134OSM   H17G14506   5.914   4.390   3.720  0.7816  1.5228 -3.5977
  134OSM   C18F14507   5.767   4.526   3.787  0.6209  0.0088 -0.7956
  134OSM   H18F14508   5.790   4.521   3.896  0.5529  2.0321 -0.6497
  134OSM   H18G14509   5.656   4.532   3.778  0.5498 -0.6972 -0.4083
  134OSM   H18H14510   5.809   4.625   3.758  0.7330  0.2877  0.2585
  135OSM      N14511   1.933   2.938   1.514 -0.1602 -0.6508 -0.0934
  135OSM    C1514512   1.989   3.064   1.455  0.3572  0.2551 -0.6062
  135OSM   H15A14513   1.929   3.152   1.471 -0.1142 -0.0997 -0.4151
  135OSM   H15B14514   1.986   3.065   1.347 -1.6377  4.0244 -0.6775
  135OSM   H15C14515   2.091   3.080   1.487  0.2126 -1.4305  0.9305
  135OSM    C1414516   1.789   2.934   1.475  0.2094 -0.9894 -0.2833
  135OSM   H14A14517   1.742   2.845   1.514 -2.3301 -0.7932 -2.5776
  135OSM   H14B14518   1.774   2.931   1.368 -2.6318  2.0592 -0.1287
  135OSM   H14C14519   1.742   3.022   1.517 -1.3562 -0.4304 -2.9665
  135OSM    C1314520   2.013   2.827   1.457  0.2817 -0.1326 -0.1340
  135OSM   H13A14521   1.999   2.730   1.504 -0.6315 -0.6995 -1.5047
  135OSM   H13B14522   2.115   2.857   1.441  0.3631 -0.7345 -0.8399
  135OSM   H13C14523   1.989   2.799   1.355  0.4501  0.4475 -0.3401
  135OSM    C1214524   1.946   2.942   1.667 -0.4775  0.1353  0.2177
  135OSM   H12A14525   1.890   2.859   1.708  0.5655 -0.5877  0.2387
  135OSM   H12B14526   1.905   3.030   1.713 -0.2268  0.6094 -0.4341
  135OSM    C1114527   2.088   2.934   1.726  0.1525  0.4824 -0.2449
  135OSM   H11A14528   2.135   2.840   1.691  0.2162  1.0109 -1.6374
  135OSM   H11B14529   2.078   2.932   1.837 -0.9691 -0.1514 -0.3449
  135OSM      P14530   2.167   3.182   1.745 -0.3123  0.2937 -0.0395
  135OSM    O1314531   2.199   3.286   1.647  0.0688 -0.5640  0.4600
  135OSM    O1414532   2.041   3.194   1.817 -0.2804  0.2000 -0.0385
  135OSM    O1114533   2.279   3.181   1.854 -0.8763  0.0516 -0.3081
  135OSM    O1214534   2.168   3.038   1.683 -0.3130 -0.1286 -0.3414
  135OSM    C1S14535   2.249   3.099   1.976 -0.1216 -0.1933  0.2681
  135OSM    H1S14536   2.279   2.994   1.956  0.6566  0.0654  0.0549
  135OSM    H1T14537   2.144   3.097   2.011  0.0715  0.3073  0.8855
  135OSM     NF14538   2.335   3.061   2.199 -0.0286  0.1206 -0.1153
  135OSM    HNF14539   2.288   3.076   2.286 -1.4372 -1.6719 -0.5212
  135OSM    C2S14540   2.335   3.155   2.096 -0.1397  0.2365  0.1037
  135OSM    H2S14541   2.438   3.160   2.056 -0.9664  0.4358 -2.1633
  135OSM    C3S14542   2.299   3.301   2.130  0.3372  0.8028 -0.0172
  135OSM    H3S14543   2.192   3.301   2.160  0.6078 -1.0781  1.1423
  135OSM     O314544   2.297   3.385   2.013  0.3313  0.1125  0.3276
  135OSM    HO314545   2.287   3.317   1.946  3.5995 -0.1545 -0.0352
  135OSM    C4S14546   2.371   3.369   2.244 -0.2918 -0.4186  0.4183
  135OSM    H4S14547   2.332   3.345   2.344  0.1613 -1.3453  0.3806
  135OSM    C5S14548   2.483   3.447   2.242 -0.1035 -0.6184  0.4319
  135OSM    H5S14549   2.524   3.474   2.144  0.1575  0.0748  0.7336
  135OSM    C6S14550   2.553   3.504   2.365  0.1103 -0.0301  0.6883
  135OSM    H6S14551   2.570   3.612   2.348  0.0691  0.0537  1.1742
  135OSM    H6T14552   2.648   3.447   2.360  0.0269 -0.4645  3.1338
  135OSM    C7S14553   2.478   3.473   2.498 -0.4117 -0.0844 -0.4142
  135OSM    H7S14554   2.460   3.365   2.513 -0.2334 -0.0746 -0.1171
  135OSM    H7T14555   2.376   3.515   2.503  0.1295  1.2211  0.1055
  135OSM    C8S14556   2.555   3.519   2.619 -0.6904 -0.5554  0.3294
  135OSM    H8S14557   2.543   3.628   2.637  0.9865 -0.2084 -0.4329
  135OSM    H8T14558   2.663   3.496   2.609 -0.5294  0.6237 -0.9454
  135OSM    C9S14559   2.509   3.450   2.746  0.0338  0.8543 -0.1262
  135OSM    H9S14560   2.532   3.343   2.723  1.0621  1.3435 -1.5190
  135OSM    H9T14561   2.400   3.456   2.768  0.4780 -1.4527  3.6660
  135OSM   C10S14562   2.577   3.496   2.875 -0.9541 -0.5487 -0.0482
  135OSM   H10S14563   2.570   3.606   2.886 -0.4121 -0.3587 -1.3869
  135OSM   H10T14564   2.684   3.466   2.872 -1.0059 -0.8309  0.6617
  135OSM   C11S14565   2.524   3.433   3.004 -0.5536  0.6358  0.5361
  135OSM   H11S14566   2.536   3.322   3.011  0.9490  0.7766  0.5379
  135OSM   H11T14567   2.413   3.438   3.004 -0.8382 -2.3012 -2.2529
  135OSM   C12S14568   2.578   3.495   3.136  0.5739  0.1594 -0.8850
  135OSM   H12S14569   2.570   3.604   3.117  1.2270  0.2219 -0.8256
  135OSM   H12T14570   2.687   3.475   3.145  0.7067  1.4679  0.9500
  135OSM   C13S14571   2.493   3.451   3.253 -0.0935  0.2206 -0.0944
  135OSM   H13S14572   2.473   3.342   3.255 -4.0692  0.7668 -2.0031
  135OSM   H13T14573   2.396   3.504   3.255  0.9298  2.1881  0.0130
  135OSM   C14S14574   2.566   3.502   3.383  0.4178  0.2523 -0.5068
  135OSM   H14S14575   2.587   3.611   3.386 -0.7776  0.5974 -2.7822
  135OSM   H14T14576   2.663   3.450   3.393  2.3306  3.6268 -0.1323
  135OSM   C15S14577   2.485   3.475   3.509  0.2970 -0.5420 -0.6248
  135OSM   H15S14578   2.445   3.372   3.524 -2.2157  0.2614 -1.3937
  135OSM   H15T14579   2.403   3.550   3.506  1.8677  1.4324  1.5530
  135OSM   C16S14580   2.573   3.513   3.630  0.5283  0.0582 -0.3667
  135OSM   H16S14581   2.621   3.612   3.611  2.8076 -0.3266  2.5409
  135OSM   H16T14582   2.667   3.455   3.630  0.1185 -0.6152 -1.1941
  135OSM   C17S14583   2.487   3.506   3.760 -0.5479 -0.8218  0.3334
  135OSM   H17S14584   2.433   3.414   3.789 -2.6489  0.1014 -0.4368
  135OSM   H17T14585   2.406   3.580   3.744  0.3085  0.2286  0.7458
  135OSM   C18S14586   2.565   3.562   3.875 -0.1338  0.0966  0.0809
  135OSM   H18S14587   2.629   3.647   3.844 -0.3485  0.1758 -0.1441
  135OSM   H18T14588   2.633   3.482   3.911  0.9255  0.8034 -0.2919
  135OSM   H18U14589   2.496   3.586   3.958  0.6452  1.4238  0.3754
  135OSM    C1F14590   2.383   2.933   2.176 -0.2473 -0.4971  0.5409
  135OSM     OF14591   2.468   2.911   2.089 -0.2747 -0.0241  0.3735
  135OSM    C2F14592   2.323   2.822   2.256 -0.8244  1.1180 -0.1723
  135OSM    H2F14593   2.226   2.780   2.221  1.3977 -2.4662 -2.7443
  135OSM    H2G14594   2.312   2.863   2.358 -1.0672  0.1776  0.1917
  135OSM    C3F14595   2.423   2.707   2.270  0.0394 -0.0113  0.2507
  135OSM    H3F14596   2.527   2.743   2.288  0.2319 -0.7573  0.6941
  135OSM    H3G14597   2.435   2.667   2.167 -0.2176  0.5255  0.0093
  135OSM    C4F14598   2.373   2.585   2.351 -0.1921  0.2152  0.1754
  135OSM    H4F14599   2.459   2.515   2.337 -0.0776  0.5829 -1.1148
  135OSM    H4G14600   2.281   2.548   2.300 -1.8894  3.1504  0.8683
  135OSM    C5F14601   2.332   2.613   2.499  0.5465  0.5222  0.0195
  135OSM    H5F14602   2.293   2.513   2.529 -1.9539  0.5949 -2.5475
  135OSM    H5G14603   2.248   2.685   2.495 -0.3724 -0.4645  0.6828
  135OSM    C6F14604   2.445   2.660   2.593  0.2080  0.3938 -0.6823
  135OSM    H6F14605   2.470   2.768   2.590  3.3551 -0.2188 -0.2173
  135OSM    H6G14606   2.526   2.593   2.555  1.2394  0.8391  0.6284
  135OSM    C7F14607   2.422   2.627   2.742  0.3116  0.4086  0.0894
  135OSM    H7F14608   2.380   2.527   2.765 -0.7032  1.1056  1.4340
  135OSM    H7G14609   2.346   2.698   2.783 -0.2665  0.5998 -1.2526
  135OSM    C8F14610   2.555   2.649   2.819 -0.2419 -0.6589 -0.3441
  135OSM    H8F14611   2.541   2.702   2.915 -0.8847  0.2759 -0.9403
  135OSM    H8G14612   2.619   2.718   2.760 -0.7743 -0.4870 -0.7310
  135OSM    C9F14613   2.634   2.520   2.834  0.1584 -0.0059  0.9282
  135OSM    H9F14614   2.702   2.500   2.750 -2.0799  0.9385 -1.2368
  135OSM   C10F14615   2.659   2.449   2.946 -0.7567  0.0772 -0.4548
  135OSM   H10F14616   2.724   2.360   2.948 -2.7809 -1.4850 -0.7054
  135OSM   C11F14617   2.616   2.491   3.083  0.4321  0.0042 -0.4094
  135OSM   H11F14618   2.589   2.398   3.138  2.6581 -0.1004  0.5918
  135OSM   H11G14619   2.517   2.542   3.073  0.5894  0.0633 -1.9160
  135OSM   C12F14620   2.724   2.569   3.167  0.2869 -0.3197  0.3772
  135OSM   H12F14621   2.762   2.663   3.120 -2.3628  0.0406 -1.2503
  135OSM   H12G14622   2.810   2.501   3.181 -0.0566 -1.6023 -2.7608
  135OSM   C13F14623   2.668   2.612   3.300 -1.0043 -0.5029  0.2927
  135OSM   H13F14624   2.622   2.527   3.355 -2.0918 -0.5259 -0.6279
  135OSM   H13G14625   2.596   2.693   3.274 -0.4272 -0.6939 -2.1667
  135OSM   C14F14626   2.779   2.672   3.390  0.5169 -0.2606  0.3868
  135OSM   H14F14627   2.822   2.763   3.343 -2.2383 -0.6452 -3.2556
  135OSM   H14G14628   2.849   2.585   3.394 -0.5711 -1.2235 -0.9571
  135OSM   C15F14629   2.735   2.686   3.532  0.0401 -0.4672 -0.0415
  135OSM   H15F14630   2.698   2.591   3.576 -1.6086 -0.6861 -1.7435
  135OSM   H15G14631   2.650   2.757   3.536  1.1186  1.2987 -3.8592
  135OSM   C16F14632   2.841   2.756   3.614 -1.1094  0.5211 -0.7770
  135OSM   H16F14633   2.878   2.855   3.580  2.3098  0.1551  1.3090
  135OSM   H16G14634   2.930   2.689   3.623 -0.9299  0.8461 -0.0748
  135OSM   C17F14635   2.788   2.799   3.748 -0.3251 -0.1566 -0.5205
  135OSM   H17F14636   2.706   2.873   3.740  1.3501  2.1050  1.7038
  135OSM   H17G14637   2.869   2.856   3.797  1.0362  0.6193 -3.4489
  135OSM   C18F14638   2.742   2.680   3.841  0.1885  0.3564  0.4584
  135OSM   H18F14639   2.829   2.611   3.839  2.2931  2.8385  1.2137
  135OSM   H18G14640   2.653   2.637   3.789  1.6163 -1.5505 -0.5479
  135OSM   H18H14641   2.713   2.720   3.941 -1.8484  0.1377  0.0112
  136OSM      N14642   3.519   3.673   1.602 -0.4944 -0.3421 -0.8100
  136OSM    C1514643   3.369   3.684   1.575  0.8170 -0.2687 -0.3190
  136OSM   H15A14644   3.306   3.613   1.627 -1.6667  0.8708 -1.6046
  136OSM   H15B14645   3.356   3.661   1.470 -1.8207  1.9291 -0.5794
  136OSM   H15C14646   3.335   3.783   1.601 -1.1657 -1.4316  1.9773
  136OSM    C1414647   3.574   3.538   1.566  0.1268 -0.8488 -0.0297
  136OSM   H14A14648   3.550   3.513   1.463 -2.3120  1.7684 -0.2196
  136OSM   H14B14649   3.518   3.467   1.625 -0.9852  0.3404  0.3987
  136OSM   H14C14650   3.679   3.526   1.585  0.1659  0.7477  0.8685
  136OSM    C1314651   3.599   3.779   1.523  0.6771 -0.0046 -0.1712
  136OSM   H13A14652   3.578   3.879   1.557  1.8351 -0.2548  1.3868
  136OSM   H13B14653   3.573   3.766   1.419  3.7805  0.6354 -1.1411
  136OSM   H13C14654   3.707   3.767   1.526  0.6453 -0.2870 -0.1180
  136OSM    C1214655   3.539   3.693   1.757  0.4678  0.0250 -0.1097
  136OSM   H12A14656   3.491   3.611   1.809  0.7775 -0.8495 -1.1659
  136OSM   H12B14657   3.489   3.787   1.775  0.0082 -0.5565  1.8028
  136OSM    C1114658   3.688   3.702   1.788 -0.1006  0.5914 -0.4933
  136OSM   H11A14659   3.755   3.650   1.716  1.3003  2.0314 -0.2997
  136OSM   H11B14660   3.704   3.656   1.888  1.1706 -0.6132 -1.2114
  136OSM      P14661   3.700   3.924   1.917  0.3259  0.1850  0.1112
  136OSM    O1314662   3.774   4.051   1.900  0.2065  0.0348  0.7002
  136OSM    O1414663   3.550   3.927   1.921 -0.0389  0.3834  0.6338
  136OSM    O1114664   3.761   3.857   2.052 -0.5679 -0.1526  0.0452
  136OSM    O1214665   3.739   3.830   1.788 -0.1023 -0.8708  0.4139
  136OSM    C1S14666   3.883   3.779   2.046 -0.0620 -0.2322  0.6152
  136OSM    H1S14667   3.978   3.836   2.033  0.3590 -0.8085  1.1247
  136OSM    H1T14668   3.878   3.707   1.962 -2.1806 -0.7185  1.1179
  136OSM     NF14669   4.034   3.613   2.159  0.9321 -0.5706 -0.1102
  136OSM    HNF14670   4.038   3.528   2.106 -1.3391 -1.0575  0.3573
  136OSM    C2S14671   3.895   3.675   2.161 -0.1859 -0.3924 -0.2346
  136OSM    H2S14672   3.891   3.732   2.256  0.4026 -2.6176  1.2102
  136OSM    C3S14673   3.778   3.572   2.161  0.3450  0.5470  0.7929
  136OSM    H3S14674   3.794   3.518   2.066 -0.6890  2.6947 -0.6710
  136OSM     O314675   3.646   3.627   2.145 -0.1687 -0.3288 -0.4824
  136OSM    HO314676   3.660   3.717   2.115  0.6351 -0.5382 -0.7652
  136OSM    C4S14677   3.786   3.466   2.277 -0.3365  0.2270 -0.2187
  136OSM    H4S14678   3.823   3.367   2.245 -1.8638  0.5012 -3.1353
  136OSM    C5S14679   3.751   3.484   2.403  0.1140  0.1190  0.2953
  136OSM    H5S14680   3.706   3.579   2.435 -0.4434  0.0249 -0.2075
  136OSM    C6S14681   3.765   3.375   2.505  0.0418 -0.4717  0.0098
  136OSM    H6S14682   3.845   3.301   2.486  0.0391 -0.3049 -0.6710
  136OSM    H6T14683   3.671   3.320   2.524  0.1483 -0.7877 -0.3769
  136OSM    C7S14684   3.786   3.434   2.653 -0.4542  0.1499  0.3336
  136OSM    H7S14685   3.698   3.500   2.671  0.8348  1.9494  0.2762
  136OSM    H7T14686   3.882   3.488   2.654 -1.3305  2.1844 -3.3813
  136OSM    C8S14687   3.779   3.325   2.759 -0.6390  0.3285  0.3896
  136OSM    H8S14688   3.850   3.244   2.734 -1.8042 -1.0715  1.4498
  136OSM    H8T14689   3.678   3.279   2.754  0.1797 -1.4892 -0.1994
  136OSM    C9S14690   3.805   3.376   2.902  0.3175 -0.7598  0.0902
  136OSM    H9S14691   3.732   3.460   2.910 -0.7832 -1.4875 -1.5690
  136OSM    H9T14692   3.911   3.406   2.916 -0.1623  1.0041  0.1689
  136OSM   C10S14693   3.776   3.277   3.014  0.0316 -0.1350  0.2581
  136OSM   H10S14694   3.858   3.201   3.013  1.6104  1.4967 -0.0899
  136OSM   H10T14695   3.683   3.219   2.998 -0.0034  0.5191 -2.1829
  136OSM   C11S14696   3.776   3.353   3.155 -0.9293 -0.4850 -0.2943
  136OSM   H11S14697   3.690   3.423   3.163  0.2698  0.9635  0.4608
  136OSM   H11T14698   3.874   3.405   3.158  1.0444 -3.8779 -0.5185
  136OSM   C12S14699   3.774   3.256   3.276 -0.2987  0.0618 -1.1596
  136OSM   H12S14700   3.849   3.177   3.260  0.9769  1.2156 -1.0773
  136OSM   H12T14701   3.674   3.212   3.257 -1.5854  1.7149  1.2026
  136OSM   C13S14702   3.786   3.318   3.419 -0.2662  0.4281 -0.7785
  136OSM   H13S14703   3.704   3.389   3.441 -2.5326 -2.5998  1.3871
  136OSM   H13T14704   3.886   3.364   3.430 -0.7233  1.0306  1.3378
  136OSM   C14S14705   3.753   3.214   3.535  0.1267 -0.3180  0.4995
  136OSM   H14S14706   3.828   3.132   3.523  0.5880  0.0352  0.8839
  136OSM   H14T14707   3.651   3.171   3.532  0.0866 -0.2655  0.9627
  136OSM   C15S14708   3.774   3.270   3.677  0.7268 -0.1065 -0.0936
  136OSM   H15S14709   3.730   3.371   3.677 -2.1543 -1.2170  2.2988
  136OSM   H15T14710   3.882   3.275   3.705  0.2082  0.5627  1.9492
  136OSM   C16S14711   3.691   3.192   3.780  0.9346 -0.3739 -1.4664
  136OSM   H16S14712   3.754   3.101   3.791  0.2390 -0.8732 -1.5602
  136OSM   H16T14713   3.588   3.161   3.753  0.4191 -1.2649  1.2296
  136OSM   C17S14714   3.684   3.267   3.916 -0.4964  0.3985 -1.0210
  136OSM   H17S14715   3.770   3.337   3.920 -0.3369  0.1809 -0.5007
  136OSM   H17T14716   3.683   3.187   3.993  1.7843  0.2962 -1.0260
  136OSM   C18S14717   3.553   3.339   3.926  0.2299 -0.3538 -0.4942
  136OSM   H18S14718   3.478   3.258   3.921  2.7541 -3.1920  2.7651
  136OSM   H18T14719   3.535   3.413   3.844 -0.4015 -0.7318 -0.7011
  136OSM   H18U14720   3.541   3.403   4.016 -0.8834 -2.0663  0.6313
  136OSM    C1F14721   4.140   3.681   2.196 -0.2678 -0.2398  0.4332
  136OSM     OF14722   4.125   3.793   2.237 -0.0507  0.4268  0.0239
  136OSM    C2F14723   4.275   3.614   2.183 -0.2130  0.6632  0.4727
  136OSM    H2F14724   4.324   3.666   2.098 -0.9819  0.4514 -0.1111
  136OSM    H2G14725   4.271   3.507   2.152  1.8143  0.2113  1.6244
  136OSM    C3F14726   4.370   3.629   2.299  0.4922  0.2818  0.7748
  136OSM    H3F14727   4.375   3.733   2.338 -1.4742  1.1835 -1.2019
  136OSM    H3G14728   4.464   3.583   2.261 -0.0966 -1.2173  1.0434
  136OSM    C4F14729   4.328   3.543   2.412  0.1021 -0.4051 -0.6681
  136OSM    H4F14730   4.351   3.435   2.397  0.8071 -0.6355  1.5855
  136OSM    H4G14731   4.218   3.537   2.421 -0.1155 -1.1415 -3.1097
  136OSM    C5F14732   4.381   3.586   2.548  0.2566  0.5265 -0.0783
  136OSM    H5F14733   4.363   3.691   2.579  2.4598  1.2940 -1.1543
  136OSM    H5G14734   4.492   3.576   2.549  0.1072 -1.6754  0.8714
  136OSM    C6F14735   4.359   3.478   2.655 -0.0445  0.3270  0.3664
  136OSM    H6F14736   4.417   3.389   2.624 -0.5531 -0.2859  1.1441
  136OSM    H6G14737   4.253   3.447   2.663 -0.4150  0.9405 -1.4530
  136OSM    C7F14738   4.420   3.527   2.786 -0.4772  0.8140 -0.5742
  136OSM    H7F14739   4.391   3.634   2.792  1.8641  1.4512  0.8877
  136OSM    H7G14740   4.531   3.531   2.780 -0.4191  0.3841  0.0479
  136OSM    C8F14741   4.371   3.447   2.909 -0.3382 -0.1596 -0.2853
  136OSM    H8F14742   4.434   3.356   2.895  2.0084  1.5228 -1.4537
  136OSM    H8G14743   4.261   3.433   2.899 -0.1875 -0.4642 -1.8757
  136OSM    C9F14744   4.414   3.531   3.033  0.5887 -0.1726 -0.2687
  136OSM    H9F14745   4.522   3.554   3.036  0.2600  1.4552  1.5530
  136OSM   C10F14746   4.353   3.556   3.153  0.2249 -0.1868 -0.1133
  136OSM   H10F14747   4.409   3.615   3.227  1.0706 -1.1534  0.0478
  136OSM   C11F14748   4.209   3.517   3.180 -0.1504 -0.1611 -0.0123
  136OSM   H11F14749   4.196   3.489   3.287 -1.7728 -2.3736 -0.7202
  136OSM   H11G14750   4.165   3.428   3.131 -0.4010  0.4370 -0.8956
  136OSM   C12F14751   4.105   3.632   3.147 -0.4295  0.7485 -0.7132
  136OSM   H12F14752   4.136   3.720   3.208  0.3683 -0.9779  1.4988
  136OSM   H12G14753   4.007   3.616   3.197  1.2155 -2.0770  1.9354
  136OSM   C13F14754   4.087   3.669   3.005  0.8824  0.0206  0.2899
  136OSM   H13F14755   4.063   3.579   2.945  2.4109 -1.4397  1.7650
  136OSM   H13G14756   4.172   3.721   2.956 -0.7720  1.7394 -0.9122
  136OSM   C14F14757   3.961   3.771   2.989  0.0566 -0.0575  0.0413
  136OSM   H14F14758   3.975   3.873   3.029 -2.8354  0.5968 -0.3680
  136OSM   H14G14759   3.883   3.721   3.050 -0.5280  2.4017  1.4005
  136OSM   C15F14760   3.915   3.783   2.839 -0.4119 -0.0427  0.0860
  136OSM   H15F14761   3.816   3.833   2.835 -0.4780 -0.2413 -0.9488
  136OSM   H15G14762   3.899   3.681   2.800  1.0810  0.6198 -2.4270
  136OSM   C16F14763   4.024   3.843   2.748  0.1001  0.6137  0.2341
  136OSM   H16F14764   4.125   3.798   2.762 -0.7198 -0.7254  2.1215
  136OSM   H16G14765   4.041   3.952   2.758  2.4863  0.6155 -2.4800
  136OSM   C17F14766   3.986   3.831   2.601  0.2619 -0.6671 -0.4021
  136OSM   H17F14767   3.970   3.726   2.572  0.4067 -1.3602  1.8506
  136OSM   H17G14768   4.071   3.872   2.541 -0.3317  0.8706 -0.2570
  136OSM   C18F14769   3.856   3.906   2.562 -0.2852 -0.1178  0.1319
  136OSM   H18F14770   3.828   3.883   2.457  0.5513 -1.4818  0.1768
  136OSM   H18G14771   3.874   4.015   2.563 -0.3812 -0.0878 -0.6252
  136OSM   H18H14772   3.774   3.884   2.634 -0.4848 -3.3688 -0.9178
  137OSM      N14773   2.464   3.628   1.646  0.1478  0.2178  0.5564
  137OSM    C1514774   2.333   3.673   1.580  0.2439 -0.4022 -0.2602
  137OSM   H15A14775   2.319   3.597   1.505 -3.0425  0.9668 -1.2132
  137OSM   H15B14776   2.349   3.769   1.533  0.5768  1.0842  2.6557
  137OSM   H15C14777   2.241   3.681   1.635 -0.6804 -1.0093 -1.6478
  137OSM    C1414778   2.562   3.597   1.539  0.7582  0.0023  0.2261
  137OSM   H14A14779   2.646   3.546   1.583  1.0990 -0.8817 -1.3609
  137OSM   H14B14780   2.593   3.687   1.488  1.1284 -0.2366  0.0229
  137OSM   H14C14781   2.512   3.523   1.479 -0.1110 -0.9367  2.0376
  137OSM    C1314782   2.510   3.741   1.725 -0.5139 -0.0740 -0.5042
  137OSM   H13A14783   2.528   3.830   1.667  1.9207  0.3556  0.7819
  137OSM   H13B14784   2.606   3.720   1.770  0.2736 -1.1419 -2.5210
  137OSM   H13C14785   2.429   3.764   1.792 -0.1341  0.8892 -0.3674
  137OSM    C1214786   2.442   3.502   1.734 -0.0765  0.4315  0.2483
  137OSM   H12A14787   2.401   3.419   1.679  0.0134  0.9724 -0.6749
  137OSM   H12B14788   2.358   3.526   1.796 -0.8949 -0.6604 -0.4058
  137OSM    C1114789   2.567   3.450   1.814  0.0851  0.4407 -0.1008
  137OSM   H11A14790   2.531   3.360   1.869  1.9201 -0.1199  0.2331
  137OSM   H11B14791   2.594   3.528   1.889 -0.0731  0.3979  0.0032
  137OSM      P14792   2.720   3.293   1.672  0.4257 -0.2877 -0.4008
  137OSM    O1314793   2.590   3.217   1.650 -0.6570  0.2545 -0.1297
  137OSM    O1414794   2.818   3.308   1.559 -0.1845  0.5666  0.0095
  137OSM    O1114795   2.789   3.237   1.800  0.2054  0.6825 -0.0605
  137OSM    O1214796   2.682   3.436   1.730 -0.7692  0.0722  0.8899
  137OSM    C1S14797   2.883   3.303   1.887 -0.1877 -0.0105 -0.0211
  137OSM    H1S14798   2.904   3.405   1.850  1.2121 -0.8060 -1.5733
  137OSM    H1T14799   2.982   3.252   1.883 -0.3777 -0.8634  3.3551
  137OSM     NF14800   2.929   3.389   2.119  0.5162  0.0098  0.0014
  137OSM    HNF14801   3.018   3.354   2.146  1.3270  0.4552 -1.9488
  137OSM    C2S14802   2.845   3.296   2.039 -0.4343 -0.2008  0.3221
  137OSM    H2S14803   2.741   3.334   2.041 -0.2385  1.2864 -4.3929
  137OSM    C3S14804   2.850   3.148   2.076 -0.1407 -0.4736  0.1030
  137OSM    H3S14805   2.954   3.114   2.093 -1.5199 -4.4071  1.7614
  137OSM     O314806   2.780   3.054   1.987  0.3566  0.1239  0.3409
  137OSM    HO314807   2.786   3.110   1.909 -0.0488  0.8532  0.8144
  137OSM    C4S14808   2.796   3.135   2.216  0.2258 -0.1763 -0.4141
  137OSM    H4S14809   2.857   3.185   2.293  1.0359  0.5134 -1.4788
  137OSM    C5S14810   2.674   3.106   2.262 -0.0352  0.0568 -0.1312
  137OSM    H5S14811   2.584   3.091   2.201  1.8169  1.0169 -3.3553
  137OSM    C6S14812   2.627   3.109   2.409  0.4353  0.0849  0.6205
  137OSM    H6S14813   2.565   3.017   2.424 -1.5011  0.8012 -2.1365
  137OSM    H6T14814   2.546   3.185   2.411 -0.5583 -0.8956 -0.3940
  137OSM    C7S14815   2.732   3.138   2.516  0.3432  0.3827  0.4173
  137OSM    H7S14816   2.743   3.248   2.514  1.2802  0.3051  0.8515
  137OSM    H7T14817   2.831   3.094   2.491  0.6331  2.4625 -2.5002
  137OSM    C8S14818   2.686   3.103   2.660  0.4788 -0.0129 -0.1488
  137OSM    H8S14819   2.654   2.997   2.670 -1.7134  0.6312  0.3005
  137OSM    H8T14820   2.590   3.154   2.682 -0.9945 -3.5690  2.5687
  137OSM    C9S14821   2.802   3.119   2.756 -0.5556  0.6049  0.4728
  137OSM    H9S14822   2.837   3.225   2.760  0.9239  0.1035  2.4717
  137OSM    H9T14823   2.888   3.058   2.720 -2.3411 -1.6442 -0.1504
  137OSM   C10S14824   2.787   3.068   2.903 -0.0462 -0.4364 -0.5436
  137OSM   H10S14825   2.798   2.958   2.900  0.4652 -0.4542  1.0393
  137OSM   H10T14826   2.692   3.108   2.947  0.9987 -0.6630  2.1149
  137OSM   C11S14827   2.913   3.116   2.988  0.5779  0.2740 -0.0792
  137OSM   H11S14828   2.912   3.227   2.995  0.8967  0.1707  2.4753
  137OSM   H11T14829   3.005   3.090   2.931  0.7010  0.0391  0.2197
  137OSM   C12S14830   2.920   3.065   3.126 -0.0825  0.4433 -0.4917
  137OSM   H12S14831   3.016   3.093   3.175 -0.3288  0.1233  0.1878
  137OSM   H12T14832   2.912   2.954   3.131  1.8820  0.1976 -2.0094
  137OSM   C13S14833   2.805   3.121   3.212 -0.3870 -0.1279 -0.7777
  137OSM   H13S14834   2.708   3.079   3.176 -0.3964  0.4836 -1.4776
  137OSM   H13T14835   2.806   3.230   3.192 -2.3088  0.3878  1.5039
  137OSM   C14S14836   2.835   3.087   3.362 -0.3677  0.4220 -0.5768
  137OSM   H14S14837   2.915   3.160   3.389 -0.2850 -0.5111  1.9819
  137OSM   H14T14838   2.871   2.982   3.373 -0.8170 -0.0767 -3.2392
  137OSM   C15S14839   2.720   3.123   3.459  0.0002  0.1954 -0.1488
  137OSM   H15S14840   2.641   3.045   3.457 -0.7102  0.9221 -0.7960
  137OSM   H15T14841   2.668   3.217   3.431  0.0807  0.2864  0.0057
  137OSM   C16S14842   2.759   3.136   3.613 -0.2754 -0.7388  0.4255
  137OSM   H16S14843   2.824   3.225   3.630 -2.2685  0.5731  1.4767
  137OSM   H16T14844   2.821   3.048   3.639  0.3125 -0.2718  0.6462
  137OSM   C17S14845   2.640   3.159   3.704  0.4785 -0.6644 -0.4146
  137OSM   H17S14846   2.564   3.088   3.666 -0.8983  0.7819 -0.4188
  137OSM   H17T14847   2.598   3.262   3.702  0.7677 -0.5483 -0.7362
  137OSM   C18S14848   2.642   3.127   3.852  0.1167 -0.2247 -0.4350
  137OSM   H18S14849   2.749   3.138   3.879  0.8874 -0.0690 -3.2370
  137OSM   H18T14850   2.613   3.021   3.869  0.0207 -0.0447  0.6200
  137OSM   H18U14851   2.587   3.204   3.910 -0.0343 -0.8240  0.2408
  137OSM    C1F14852   2.913   3.518   2.093 -0.5059 -0.3489 -0.0540
  137OSM     OF14853   2.816   3.564   2.040  0.4863  0.0320  0.2481
  137OSM    C2F14854   3.037   3.602   2.124 -0.4968  0.7538 -0.2653
  137OSM    H2F14855   3.063   3.662   2.034  1.1615  1.6630  0.7777
  137OSM    H2G14856   3.118   3.529   2.147  0.3279  0.1431 -4.3281
  137OSM    C3F14857   3.012   3.703   2.235  0.4686  0.3622 -0.4172
  137OSM    H3F14858   2.935   3.773   2.197 -0.1456 -0.0884 -0.0179
  137OSM    H3G14859   3.102   3.764   2.258  0.1882  0.6730 -0.1402
  137OSM    C4F14860   2.966   3.641   2.371  0.6113 -0.7279 -0.1325
  137OSM    H4F14861   3.022   3.546   2.389 -0.9999 -1.7531 -0.2793
  137OSM    H4G14862   2.862   3.604   2.360 -0.6819  2.8344 -1.3502
  137OSM    C5F14863   2.965   3.738   2.480  0.7461  0.2796 -0.2533
  137OSM    H5F14864   2.931   3.839   2.448  1.5606  1.2924  1.8836
  137OSM    H5G14865   3.066   3.739   2.525  1.7719 -2.0719 -2.2787
  137OSM    C6F14866   2.863   3.687   2.583  0.0039 -0.1370  0.7444
  137OSM    H6F14867   2.881   3.582   2.616 -1.6701 -0.7699 -0.2323
  137OSM    H6G14868   2.764   3.695   2.533  0.1494  0.9423  0.6049
  137OSM    C7F14869   2.845   3.766   2.714  0.2470 -0.1839  0.0154
  137OSM    H7F14870   2.777   3.706   2.778  0.0498 -0.0890 -0.1059
  137OSM    H7G14871   2.798   3.865   2.696 -1.0851 -0.7842  0.1366
  137OSM    C8F14872   2.978   3.774   2.789 -0.9847 -0.2677 -0.1659
  137OSM    H8F14873   2.954   3.816   2.889  0.0500 -1.0073  0.4052
  137OSM    H8G14874   3.044   3.844   2.734  0.8282 -1.5301  0.2977
  137OSM    C9F14875   3.058   3.643   2.796 -0.6054  0.1269 -0.3669
  137OSM    H9F14876   3.127   3.625   2.712  0.2858  0.4306  0.2940
  137OSM   C10F14877   3.042   3.556   2.892  0.4302 -0.8546 -0.6207
  137OSM   H10F14878   3.103   3.464   2.892  0.3899 -0.9371  1.9742
  137OSM   C11F14879   2.946   3.555   3.013 -0.5458 -0.7516  0.4197
  137OSM   H11F14880   2.940   3.457   3.065 -1.4813  0.1231  2.0403
  137OSM   H11G14881   2.845   3.573   2.971 -0.1784  0.4879  0.0207
  137OSM   C12F14882   2.975   3.662   3.115 -0.4131 -0.6919 -0.2124
  137OSM   H12F14883   2.999   3.762   3.074  1.5177 -1.6916 -1.6455
  137OSM   H12G14884   3.060   3.634   3.180 -0.2022 -0.7124 -0.4991
  137OSM   C13F14885   2.864   3.691   3.213  0.1196  0.7960  0.0243
  137OSM   H13F14886   2.823   3.590   3.238 -0.6056  1.6543  2.6252
  137OSM   H13G14887   2.778   3.747   3.170 -0.4570  0.7116  1.0391
  137OSM   C14F14888   2.912   3.771   3.334  0.8397  0.2792  0.6385
  137OSM   H14F14889   2.902   3.877   3.301 -0.6747  0.1802  0.7013
  137OSM   H14G14890   3.013   3.734   3.361  1.2805  1.4932  0.7136
  137OSM   C15F14891   2.827   3.760   3.461  0.0156 -0.6056  0.0628
  137OSM   H15F14892   2.843   3.664   3.515  0.2377 -1.1013 -0.8609
  137OSM   H15G14893   2.721   3.777   3.435 -0.1585 -1.1977  0.3534
  137OSM   C16F14894   2.846   3.872   3.568 -0.2137  0.4460  0.2067
  137OSM   H16F14895   2.832   3.976   3.531 -1.0828  0.6546  1.0835
  137OSM   H16G14896   2.950   3.864   3.608  0.2612 -1.1464 -1.2222
  137OSM   C17F14897   2.746   3.854   3.686  0.0846  0.4226 -0.5926
  137OSM   H17F14898   2.771   3.754   3.727  0.9785  0.7558 -0.3039
  137OSM   H17G14899   2.646   3.853   3.636  0.1504 -1.0186 -0.7391
  137OSM   C18F14900   2.769   3.956   3.799  0.3767 -0.0884 -0.2471
  137OSM   H18F14901   2.757   4.064   3.773 -1.8129 -0.5424 -1.4623
  137OSM   H18G14902   2.875   3.970   3.828  0.2153 -3.2432  2.3456
  137OSM   H18H14903   2.699   3.940   3.884  0.2609 -0.2916 -0.3788
  138OSM      N14904   1.095   3.728   1.430 -0.1055  0.4383 -0.3154
  138OSM    C1514905   0.958   3.679   1.475  0.0040  0.0677 -0.1792
  138OSM   H15A14906   0.919   3.740   1.555  0.2245  1.4791 -1.0920
  138OSM   H15B14907   0.972   3.576   1.504  1.2125  0.0202 -0.8515
  138OSM   H15C14908   0.884   3.685   1.396 -0.7789 -0.8907  0.4681
  138OSM    C1414909   1.147   3.625   1.332  0.2507  0.5227 -0.4147
  138OSM   H14A14910   1.169   3.528   1.375  3.0359  1.6109  0.8394
  138OSM   H14B14911   1.246   3.650   1.297  0.8818 -0.5190  0.5242
  138OSM   H14C14912   1.082   3.619   1.247  0.7271 -0.8430 -0.7170
  138OSM    C1314913   1.083   3.859   1.373 -0.2149 -0.4033 -0.0170
  138OSM   H13A14914   1.167   3.884   1.310  1.8569  0.6615  2.9511
  138OSM   H13B14915   1.070   3.943   1.439  0.6792  2.3331 -3.0406
  138OSM   H13C14916   1.003   3.861   1.299  0.0317  0.1327 -0.2744
  138OSM    C1214917   1.189   3.728   1.553 -0.5974 -0.1803  0.4304
  138OSM   H12A14918   1.290   3.741   1.516 -1.4826  0.4905 -1.8937
  138OSM   H12B14919   1.200   3.625   1.584  1.0336 -0.8460 -2.0418
  138OSM    C1114920   1.170   3.836   1.670 -0.3670  0.4363 -0.5484
  138OSM   H11A14921   1.256   3.822   1.740 -1.8792  1.1609  1.5694
  138OSM   H11B14922   1.073   3.818   1.721  1.3995 -1.8079  2.3937
  138OSM      P14923   1.302   4.047   1.587 -0.2150 -0.0360 -0.4200
  138OSM    O1314924   1.407   3.950   1.546  0.1132 -0.4182 -0.2865
  138OSM    O1414925   1.270   4.161   1.498  0.4305 -0.0279  0.1911
  138OSM    O1114926   1.353   4.102   1.727 -0.0727  0.2800  0.4771
  138OSM    O1214927   1.171   3.968   1.615 -0.0083  0.2451  0.3333
  138OSM    C1S14928   1.253   4.170   1.815 -0.8282 -0.6968 -0.1626
  138OSM    H1S14929   1.150   4.156   1.776 -1.2979  0.2710  0.6953
  138OSM    H1T14930   1.269   4.280   1.815 -0.2875 -0.7686 -0.6716
  138OSM     NF14931   1.167   4.200   2.035  0.7560 -0.9072 -0.1217
  138OSM    HNF14932   1.201   4.251   2.114  2.4508 -2.0599 -0.0555
  138OSM    C2S14933   1.251   4.115   1.955 -0.5081 -0.2402  0.1823
  138OSM    H2S14934   1.211   4.011   1.958  1.2188 -0.9143  2.3932
  138OSM    C3S14935   1.396   4.096   2.013  0.2740 -0.1723  0.1746
  138OSM    H3S14936   1.439   4.197   2.033 -0.6357 -0.0698  1.7095
  138OSM     O314937   1.483   4.031   1.927 -0.1132  0.1353  0.5514
  138OSM    HO314938   1.437   4.020   1.844 -1.4978 -0.1839  1.3279
  138OSM    C4S14939   1.385   4.019   2.138 -0.1599 -0.0346  0.6054
  138OSM    H4S14940   1.396   3.912   2.118  2.9067  0.1400  0.8466
  138OSM    C5S14941   1.392   4.072   2.261  0.3712  0.9254 -0.3890
  138OSM    H5S14942   1.407   4.181   2.270 -1.4905  1.1719  0.2265
  138OSM    C6S14943   1.388   4.001   2.399  0.0564 -0.3836  0.2334
  138OSM    H6S14944   1.290   4.021   2.445 -0.1116 -0.0601 -0.2538
  138OSM    H6T14945   1.468   4.050   2.459  1.7965 -0.4544 -1.8839
  138OSM    C7S14946   1.388   3.851   2.392  0.0942  0.1624 -0.4756
  138OSM    H7S14947   1.483   3.807   2.356 -0.9092 -1.1129 -1.6705
  138OSM    H7T14948   1.302   3.819   2.329  1.1914 -2.1472 -0.8980
  138OSM    C8S14949   1.382   3.770   2.535 -0.0606 -0.3610  0.5059
  138OSM    H8S14950   1.370   3.662   2.513  2.2266 -1.6092  4.2674
  138OSM    H8T14951   1.287   3.807   2.580 -0.7563 -0.7161 -0.6446
  138OSM    C9S14952   1.500   3.796   2.634  0.2987  0.1299  0.4511
  138OSM    H9S14953   1.517   3.903   2.657  2.0967 -0.3519  1.5369
  138OSM    H9T14954   1.589   3.757   2.581 -0.1230  0.9060 -0.8865
  138OSM   C10S14955   1.482   3.704   2.759 -0.1568 -0.5422 -0.5980
  138OSM   H10S14956   1.456   3.604   2.718 -2.3777  1.1618 -3.8374
  138OSM   H10T14957   1.398   3.751   2.814  0.1200 -1.0427  0.2737
  138OSM   C11S14958   1.583   3.727   2.865  0.0301 -0.1648 -0.2381
  138OSM   H11S14959   1.601   3.833   2.893 -3.0829  0.7413 -1.3111
  138OSM   H11T14960   1.685   3.686   2.848  0.9975  1.9956 -0.0011
  138OSM   C12S14961   1.544   3.651   2.997  0.2964  0.0087  0.1374
  138OSM   H12S14962   1.508   3.548   2.973 -0.6190  0.1220  0.9530
  138OSM   H12T14963   1.463   3.709   3.046  0.0821 -0.4591  0.3480
  138OSM   C13S14964   1.663   3.639   3.092 -0.0338  0.4982  0.0559
  138OSM   H13S14965   1.711   3.737   3.110 -1.0848  0.9102  0.7090
  138OSM   H13T14966   1.724   3.556   3.051  0.0516  0.4256  0.3263
  138OSM   C14S14967   1.632   3.601   3.237 -0.8860 -0.1680  0.5771
  138OSM   H14S14968   1.724   3.558   3.282 -0.4674 -0.1468 -0.2391
  138OSM   H14T14969   1.565   3.513   3.238  1.6424 -2.2066 -0.4915
  138OSM   C15S14970   1.576   3.716   3.321 -0.7384  0.4699 -0.0750
  138OSM   H15S14971   1.468   3.737   3.305 -1.5209  0.5535  4.0462
  138OSM   H15T14972   1.633   3.809   3.303 -2.0491  1.4747  0.7266
  138OSM   C16S14973   1.596   3.694   3.476  0.6533 -0.1771 -0.1148
  138OSM   H16S14974   1.698   3.657   3.502  0.6470 -0.4050 -0.4128
  138OSM   H16T14975   1.537   3.600   3.490 -0.0444  0.2204 -0.3728
  138OSM   C17S14976   1.554   3.811   3.567 -0.0655 -1.2001 -0.2690
  138OSM   H17S14977   1.634   3.885   3.546 -0.6263 -0.9196 -1.4707
  138OSM   H17T14978   1.558   3.785   3.675 -0.1333  1.2956  0.3933
  138OSM   C18S14979   1.408   3.851   3.541  0.3633  0.4098  0.1238
  138OSM   H18S14980   1.342   3.772   3.582  3.5901 -1.1064  2.9270
  138OSM   H18T14981   1.377   3.878   3.438  1.5173 -1.5392 -0.7640
  138OSM   H18U14982   1.380   3.935   3.610  2.3182  0.1986  1.2396
  138OSM    C1F14983   1.035   4.215   2.019  0.2056  0.2134  0.0215
  138OSM     OF14984   0.966   4.142   1.942 -0.5158 -0.4137 -0.3480
  138OSM    C2F14985   0.977   4.331   2.088 -0.4450  0.3838  1.3269
  138OSM    H2F14986   0.955   4.411   2.015  1.4829  1.5940  2.0112
  138OSM    H2G14987   1.060   4.372   2.149 -0.6748  2.0010  0.6054
  138OSM    C3F14988   0.852   4.305   2.169 -0.3573 -0.5850 -0.1341
  138OSM    H3F14989   0.781   4.240   2.114 -0.9086 -0.4673  0.4295
  138OSM    H3G14990   0.798   4.401   2.188  2.8351  1.3931 -0.3021
  138OSM    C4F14991   0.892   4.239   2.302 -0.0940  0.1874  0.5462
  138OSM    H4F14992   0.958   4.154   2.274  0.8726  1.0719  0.0620
  138OSM    H4G14993   0.796   4.220   2.354  0.0161 -1.8561  0.0721
  138OSM    C5F14994   0.987   4.327   2.389  0.0895  0.1535 -0.7321
  138OSM    H5F14995   0.940   4.426   2.376 -0.5229 -0.0376 -0.0722
  138OSM    H5G14996   1.091   4.329   2.350  1.1291 -1.9660  1.5871
  138OSM    C6F14997   0.978   4.303   2.538 -0.2064  0.0782  0.2552
  138OSM    H6F14998   0.900   4.364   2.589  2.0307  1.5259  2.1696
  138OSM    H6G14999   1.073   4.347   2.576  1.2728 -0.0897 -2.8890
  138OSM    C7F15000   0.963   4.153   2.578  0.4678  0.5706  0.1682
  138OSM    H7F15001   1.054   4.104   2.537 -0.8548 -1.6078 -0.3073
  138OSM    H7G15002   0.875   4.099   2.538 -0.2238  2.0120 -0.3408
  138OSM    C8F15003   0.958   4.106   2.729  0.1797  0.1988  0.1569
  138OSM    H8F15004   0.946   3.996   2.724 -1.3443  0.3468  0.1749
  138OSM    H8G15005   0.857   4.143   2.756  0.0664 -0.3018  0.4179
  138OSM    C9F15006   1.062   4.152   2.829  0.8520 -0.3996  0.0120
  138OSM    H9F15007   1.156   4.095   2.830  2.1289  1.5081 -1.8676
  138OSM   C10F15008   1.051   4.269   2.896  0.2686 -0.0258 -0.5430
  138OSM   H10F15009   1.142   4.298   2.950  0.6760 -0.7194 -0.8420
  138OSM   C11F15010   0.928   4.356   2.911 -0.7169  0.4749 -0.8683
  138OSM   H11F15011   0.839   4.300   2.875  0.4723 -0.5800 -2.3094
  138OSM   H11G15012   0.935   4.446   2.847 -1.0877  1.4441  0.4035
  138OSM   C12F15013   0.909   4.393   3.059  0.3773 -0.7533  0.3124
  138OSM   H12F15014   0.998   4.452   3.092  0.6003  0.3502 -2.0654
  138OSM   H12G15015   0.887   4.306   3.124 -2.8436 -0.4724 -0.2412
  138OSM   C13F15016   0.788   4.482   3.080  0.0744  0.3153 -0.1224
  138OSM   H13F15017   0.698   4.418   3.068 -0.3841  0.6700  1.2378
  138OSM   H13G15018   0.787   4.561   3.002 -1.0905  0.5950  0.1642
  138OSM   C14F15019   0.783   4.569   3.214 -0.5296 -0.1247  0.0656
  138OSM   H14F15020   0.704   4.647   3.208 -3.9872 -3.1439  1.7718
  138OSM   H14G15021   0.880   4.622   3.218 -0.6444 -0.0041  2.5678
  138OSM   C15F15022   0.763   4.476   3.339 -0.7443  0.3854  0.2531
  138OSM   H15F15023   0.818   4.501   3.432  0.3550 -0.7225 -0.0749
  138OSM   H15G15024   0.796   4.375   3.308 -2.2901 -0.2046  0.4183
  138OSM   C16F15025   0.609   4.473   3.378  0.3095 -0.8904  0.3255
  138OSM   H16F15026   0.553   4.447   3.285 -1.4910 -1.4997  1.5272
  138OSM   H16G15027   0.576   4.575   3.407  3.0881  0.4188 -0.7323
  138OSM   C17F15028   0.557   4.378   3.492 -0.4384  0.1703 -0.2451
  138OSM   H17F15029   0.608   4.284   3.460 -0.4278 -0.3002  1.0466
  138OSM   H17G15030   0.448   4.372   3.475 -0.6409 -0.4657  1.0833
  138OSM   C18F15031   0.606   4.419   3.632  0.2370 -0.0929  0.2474
  138OSM   H18F15032   0.602   4.331   3.699 -0.9300  1.1773  1.9463
  138OSM   H18G15033   0.544   4.501   3.674 -0.4633  0.4922 -1.8115
  138OSM   H18H15034   0.714   4.444   3.624  0.1786 -0.0758 -0.5856
  139OSM      N15035   1.808   1.762   1.199 -0.9070  0.5126 -0.1828
  139OSM    C1515036   1.902   1.852   1.123  0.4116  0.0661 -1.4878
  139OSM   H15A15037   1.855   1.947   1.103 -0.8851 -0.3627 -0.5668
  139OSM   H15B15038   1.936   1.812   1.029  2.9716  1.1831 -1.1369
  139OSM   H15C15039   1.992   1.863   1.183 -0.2147  0.8758 -0.6600
  139OSM    C1415040   1.687   1.734   1.116  0.0850 -0.2818  0.0490
  139OSM   H14A15041   1.635   1.827   1.096 -1.0781 -0.8408  0.4441
  139OSM   H14B15042   1.617   1.673   1.171  1.7031  0.2935  2.9574
  139OSM   H14C15043   1.711   1.703   1.015  2.8482  3.5092 -0.7015
  139OSM    C1315044   1.883   1.630   1.232 -0.4647  0.2571 -0.8697
  139OSM   H13A15045   1.804   1.566   1.269 -2.1420  1.3410 -2.4073
  139OSM   H13B15046   1.959   1.641   1.307  0.8311 -0.7647 -1.9723
  139OSM   H13C15047   1.923   1.582   1.144 -3.0498 -0.6188 -1.6727
  139OSM    C1215048   1.770   1.821   1.331  0.8315 -0.2322  0.6568
  139OSM   H12A15049   1.730   1.745   1.396 -0.3317 -1.7767 -1.7427
  139OSM   H12B15050   1.696   1.897   1.311  0.9592 -0.5886 -1.3770
  139OSM    C1115051   1.868   1.901   1.419  0.2962  0.1028 -0.2853
  139OSM   H11A15052   1.805   1.917   1.508  1.9520  1.7888  0.6487
  139OSM   H11B15053   1.876   1.996   1.363 -3.4131 -0.3806 -1.9129
  139OSM      P15054   2.129   1.884   1.410  0.0789 -0.3893 -0.1607
  139OSM    O1315055   2.223   1.773   1.418 -0.2715 -0.8592 -0.3571
  139OSM    O1415056   2.126   1.968   1.288 -0.3344 -0.4496 -0.1073
  139OSM    O1115057   2.148   1.983   1.543  0.4352  0.0247  0.1595
  139OSM    O1215058   1.983   1.831   1.437  0.3578  0.1827  0.2501
  139OSM    C1S15059   2.149   1.916   1.671 -0.5481 -0.4726 -0.2597
  139OSM    H1S15060   2.239   1.850   1.673  1.4032  1.9951 -1.3866
  139OSM    H1T15061   2.055   1.862   1.693 -3.2387  3.8926 -0.0903
  139OSM     NF15062   2.136   1.952   1.914 -0.0735  0.2319 -0.1610
  139OSM    HNF15063   2.057   1.965   1.973 -0.2989  1.4152 -0.6962
  139OSM    C2S15064   2.147   2.027   1.782 -0.0042  0.4834 -0.7654
  139OSM    H2S15065   2.247   2.076   1.785  1.4594 -2.3762  0.2034
  139OSM    C3S15066   2.040   2.137   1.769  0.2254  0.5961 -0.6599
  139OSM    H3S15067   1.943   2.083   1.764  0.3783 -0.1793  2.7178
  139OSM     O315068   2.063   2.225   1.659 -0.4251 -0.4422 -0.0535
  139OSM    HO315069   2.113   2.161   1.608 -1.1076 -1.5355  0.5990
  139OSM    C4S15070   2.048   2.217   1.900  0.1521  0.1085  0.2348
  139OSM    H4S15071   2.150   2.253   1.916  0.4900 -1.0788  0.8951
  139OSM    C5S15072   1.948   2.242   1.997 -0.4936  0.4975  0.0111
  139OSM    H5S15073   1.847   2.203   1.980 -1.2448  2.1420  0.5380
  139OSM    C6S15074   1.973   2.328   2.119  0.2198  0.3629  0.3992
  139OSM    H6S15075   1.896   2.407   2.129 -1.9272 -1.5151 -0.3462
  139OSM    H6T15076   2.069   2.383   2.120  0.5718 -0.2112 -0.3101
  139OSM    C7S15077   1.954   2.222   2.233 -0.1913 -0.1368 -0.2720
  139OSM    H7S15078   2.038   2.151   2.216  1.1261  1.7835 -2.2090
  139OSM    H7T15079   1.854   2.173   2.239 -1.7820  2.6903 -1.6490
  139OSM    C8S15080   1.958   2.294   2.374  0.0500 -0.2760 -0.2953
  139OSM    H8S15081   1.867   2.355   2.393 -0.0447 -0.6730  0.5689
  139OSM    H8T15082   2.057   2.343   2.385  0.4508 -1.4460  1.8889
  139OSM    C9S15083   1.941   2.194   2.490 -0.1188  0.8729  0.2958
  139OSM    H9S15084   1.996   2.100   2.467  1.2528  1.4466  1.0432
  139OSM    H9T15085   1.836   2.169   2.513 -0.2629  0.2105 -0.9957
  139OSM   C10S15086   2.016   2.244   2.620 -0.0799 -0.0576 -0.0431
  139OSM   H10S15087   1.956   2.323   2.670 -0.6498  0.9292 -2.1761
  139OSM   H10T15088   2.111   2.287   2.583 -1.1991  1.5666 -1.1458
  139OSM   C11S15089   2.042   2.124   2.723 -0.3948  0.1845  0.3297
  139OSM   H11S15090   2.118   2.050   2.690  1.5954  2.9994 -1.9717
  139OSM   H11T15091   1.948   2.065   2.721  0.7537 -1.6969 -1.4359
  139OSM   C12S15092   2.069   2.186   2.864 -0.3150 -0.0480 -0.0131
  139OSM   H12S15093   1.990   2.261   2.890  0.7181  1.6526 -1.5671
  139OSM   H12T15094   2.167   2.238   2.862 -0.5469  0.4564  1.0525
  139OSM   C13S15095   2.079   2.075   2.968  0.1325 -0.4413 -0.3009
  139OSM   H13S15096   2.165   2.011   2.938  0.4079  0.6168 -1.8910
  139OSM   H13T15097   1.988   2.011   2.977 -0.1236 -0.0803 -0.2937
  139OSM   C14S15098   2.104   2.144   3.109  0.1073  0.7083  0.7240
  139OSM   H14S15099   2.020   2.215   3.122  0.5902  1.4568 -0.1478
  139OSM   H14T15100   2.196   2.205   3.093  1.7606 -2.0615 -1.4198
  139OSM   C15S15101   2.111   2.063   3.231 -0.0233  0.9743 -0.6301
  139OSM   H15S15102   2.187   1.981   3.222  0.9911  1.8443 -0.2615
  139OSM   H15T15103   2.009   2.022   3.241  0.6978 -1.4174 -2.1702
  139OSM   C16S15104   2.160   2.138   3.353  0.7428 -0.2558  0.2778
  139OSM   H16S15105   2.073   2.204   3.370  0.2590 -0.2601 -1.8690
  139OSM   H16T15106   2.259   2.183   3.327  1.8770 -3.7079 -2.1318
  139OSM   C17S15107   2.171   2.042   3.473 -0.2137 -1.0563  0.4768
  139OSM   H17S15108   2.246   1.963   3.450  1.2951  0.3459  0.4401
  139OSM   H17T15109   2.071   1.997   3.495 -1.3089  1.9635  2.2222
  139OSM   C18S15110   2.194   2.095   3.609 -1.1254  0.6160  0.4208
  139OSM   H18S15111   2.301   2.119   3.624 -1.4102  0.5749  2.9471
  139OSM   H18T15112   2.167   2.038   3.700  0.0235  2.0244  1.6963
  139OSM   H18U15113   2.142   2.192   3.622 -0.3975  1.4030 -1.9876
  139OSM    C1F15114   2.237   1.879   1.948  0.2902 -0.6328  0.1138
  139OSM     OF15115   2.352   1.907   1.909  0.3023  0.4963 -0.0496
  139OSM    C2F15116   2.213   1.776   2.050 -0.4789 -0.5005  0.2322
  139OSM    H2F15117   2.149   1.701   1.998 -0.7828  1.3830 -2.2735
  139OSM    H2G15118   2.143   1.817   2.126  0.0818 -1.3432  1.2328
  139OSM    C3F15119   2.346   1.715   2.113  0.4913  0.6078 -0.2020
  139OSM    H3F15120   2.425   1.793   2.121  4.4857 -2.9962 -1.0497
  139OSM    H3G15121   2.382   1.634   2.046 -2.1618 -0.8786  0.0444
  139OSM    C4F15122   2.318   1.655   2.255 -0.3145  0.2753  0.2623
  139OSM    H4F15123   2.409   1.595   2.276 -0.0173  0.3389 -0.8008
  139OSM    H4G15124   2.233   1.585   2.239  0.1404 -0.2645  0.1572
  139OSM    C5F15125   2.302   1.756   2.365  0.7328 -0.1964 -0.9585
  139OSM    H5F15126   2.210   1.812   2.337  1.2996  1.3372  0.1240
  139OSM    H5G15127   2.380   1.834   2.357 -1.9238  2.6810 -0.8696
  139OSM    C6F15128   2.286   1.705   2.513  0.5144 -0.1605  0.1822
  139OSM    H6F15129   2.236   1.792   2.561 -1.2234 -0.8846 -0.2226
  139OSM    H6G15130   2.390   1.699   2.552  0.2032 -2.0699  0.8113
  139OSM    C7F15131   2.194   1.586   2.547  0.0548 -0.5905 -0.5288
  139OSM    H7F15132   2.220   1.503   2.477 -0.6709 -1.5200  0.2703
  139OSM    H7G15133   2.093   1.619   2.517  0.2043  1.1392  0.7458
  139OSM    C8F15134   2.195   1.550   2.694  0.8399 -0.0613  0.5458
  139OSM    H8F15135   2.114   1.475   2.707  0.4714  0.1397 -0.5170
  139OSM    H8G15136   2.169   1.629   2.767  3.0311  1.2963 -0.0578
  139OSM    C9F15137   2.323   1.478   2.723  0.2835 -0.7044  0.4462
  139OSM    H9F15138   2.375   1.452   2.630 -0.0696  1.8737 -0.5553
  139OSM   C10F15139   2.371   1.433   2.848  0.3829 -0.1613 -0.5927
  139OSM   H10F15140   2.456   1.363   2.852 -0.2280 -0.8550  0.9354
  139OSM   C11F15141   2.303   1.466   2.979 -0.1142 -0.3771 -0.4422
  139OSM   H11F15142   2.279   1.374   3.037  1.0934 -1.5946 -1.8123
  139OSM   H11G15143   2.207   1.523   2.975 -0.1315 -0.3938 -0.2882
  139OSM   C12F15144   2.413   1.535   3.062 -0.5205  0.2216 -0.0230
  139OSM   H12F15145   2.432   1.637   3.022  1.2948 -0.7169 -1.7428
  139OSM   H12G15146   2.508   1.478   3.059 -0.3017  0.5721  0.1290
  139OSM   C13F15147   2.370   1.531   3.209  0.0779 -0.3716 -0.1491
  139OSM   H13F15148   2.406   1.432   3.242 -0.7288 -1.1540 -1.5412
  139OSM   H13G15149   2.259   1.526   3.216  0.0403 -1.5329 -1.2315
  139OSM   C14F15150   2.435   1.642   3.295  0.0855  0.4628  0.1905
  139OSM   H14F15151   2.393   1.744   3.284  0.9588  0.8998  0.7895
  139OSM   H14G15152   2.545   1.651   3.277 -0.0635  4.4244  0.5039
  139OSM   C15F15153   2.452   1.597   3.439  1.1746 -0.1988  0.6228
  139OSM   H15F15154   2.540   1.529   3.447  0.7236 -0.5473  5.2125
  139OSM   H15G15155   2.364   1.537   3.471  1.5377 -0.9052  0.3072
  139OSM   C16F15156   2.474   1.723   3.527  0.4255  0.0005  0.4836
  139OSM   H16F15157   2.397   1.800   3.502  0.3370 -0.3552 -0.3986
  139OSM   H16G15158   2.573   1.767   3.501  0.9439 -1.3887  0.0023
  139OSM   C17F15159   2.477   1.691   3.680 -0.0722 -0.5120  0.4550
  139OSM   H17F15160   2.566   1.628   3.702  1.8711  1.8567 -0.1497
  139OSM   H17G15161   2.384   1.635   3.706  0.3046 -1.8091 -0.8529
  139OSM   C18F15162   2.475   1.809   3.775 -0.2834  0.1016  0.3520
  139OSM   H18F15163   2.543   1.883   3.729  0.9761 -2.2820 -1.8627
  139OSM   H18G15164   2.501   1.791   3.882 -1.1308  0.1931  0.5890
  139OSM   H18H15165   2.374   1.856   3.780  0.2310  1.2274  0.3164
  140OSM      N15166   2.263   5.526   1.917  0.1067  0.1594 -0.2718
  140OSM    C1515167   2.161   5.612   1.865  0.7163 -0.0489 -0.0623
  140OSM   H15A15168   2.177   5.655   1.768  0.0176 -4.1766 -2.2677
  140OSM   H15B15169   2.159   5.695   1.934  2.9708  1.8240 -2.1049
  140OSM   H15C15170   2.069   5.555   1.874  2.2533 -2.3428  3.6812
  140OSM    C1415171   2.295   5.411   1.831  0.7279 -0.0435 -0.0110
  140OSM   H14A15172   2.333   5.449   1.738  2.6642  2.6989  1.7453
  140OSM   H14B15173   2.202   5.360   1.808  0.5124  0.6335 -0.6870
  140OSM   H14C15174   2.368   5.342   1.870  0.8914 -0.0455 -0.3210
  140OSM    C1315175   2.389   5.604   1.942 -0.2699 -0.8122  0.4081
  140OSM   H13A15176   2.364   5.679   2.017 -2.0923  0.4120 -1.3217
  140OSM   H13B15177   2.423   5.657   1.855  1.2661 -1.1019  0.7922
  140OSM   H13C15178   2.455   5.531   1.987 -2.4524 -1.9294  2.0159
  140OSM    C1215179   2.223   5.467   2.056  0.1720  0.0992 -0.1693
  140OSM   H12A15180   2.294   5.392   2.090  0.9947  0.7646 -0.3849
  140OSM   H12B15181   2.133   5.409   2.039  0.1126 -0.0350  0.5526
  140OSM    C1115182   2.189   5.565   2.167  0.1645  0.5018  0.2486
  140OSM   H11A15183   2.284   5.616   2.197 -0.1698  1.5402 -0.4078
  140OSM   H11B15184   2.156   5.504   2.254 -0.5558  0.5048 -0.0180
  140OSM      P15185   2.059   5.785   2.231 -0.2692 -0.0626  0.1554
  140OSM    O1315186   2.167   5.887   2.224 -0.1874 -0.2415 -0.2811
  140OSM    O1415187   1.921   5.825   2.211 -0.1839 -0.2065  0.2695
  140OSM    O1115188   2.060   5.727   2.376  0.2662 -0.2432 -0.0413
  140OSM    O1215189   2.095   5.668   2.141  0.1400  0.3776 -0.4763
  140OSM    C1S15190   2.054   5.825   2.487 -0.8320 -0.1054 -0.1101
  140OSM    H1S15191   1.984   5.908   2.464  0.2608  0.4809 -1.4400
  140OSM    H1T15192   2.153   5.871   2.509 -1.2545  1.8229 -1.9178
  140OSM     NF15193   1.973   5.844   2.723 -0.0270  0.4056  0.7336
  140OSM    HNF15194   2.023   5.824   2.807 -0.5446  0.3070  1.0237
  140OSM    C2S15195   1.990   5.756   2.608  0.4819  0.5131  0.3760
  140OSM    H2S15196   1.886   5.737   2.572  0.7933  2.7059 -1.9841
  140OSM    C3S15197   2.075   5.621   2.648 -0.2471 -0.4227 -0.5265
  140OSM    H3S15198   2.171   5.661   2.688  0.1851 -1.0362 -0.9284
  140OSM     O315199   2.120   5.533   2.540  0.3667  0.2660  0.7928
  140OSM    HO315200   2.108   5.584   2.460  0.3015 -0.8905  0.0430
  140OSM    C4S15201   2.008   5.544   2.765 -0.5216  0.2835 -0.1690
  140OSM    H4S15202   2.031   5.593   2.860  1.4269  1.0739 -0.9836
  140OSM    C5S15203   1.923   5.438   2.750  0.0742  0.2685 -0.7772
  140OSM    H5S15204   1.892   5.394   2.654 -2.3317  1.0052 -0.4009
  140OSM    C6S15205   1.854   5.367   2.865 -0.4723 -0.4169  0.2588
  140OSM    H6S15206   1.919   5.279   2.886  1.1701  0.7997  0.4199
  140OSM    H6T15207   1.756   5.340   2.819 -0.5831  0.7873 -0.2385
  140OSM    C7S15208   1.819   5.452   2.987  0.3919  0.0848 -0.7511
  140OSM    H7S15209   1.759   5.542   2.960 -1.7339 -1.2250 -0.6061
  140OSM    H7T15210   1.907   5.488   3.045 -1.9196  0.0387  3.1397
  140OSM    C8S15211   1.740   5.373   3.093 -0.4859  0.3131 -0.4499
  140OSM    H8S15212   1.672   5.303   3.040 -0.8197  0.4286 -0.1756
  140OSM    H8T15213   1.683   5.452   3.145  1.9242  1.0105  1.3143
  140OSM    C9S15214   1.833   5.297   3.196  0.4506  0.3965  0.5235
  140OSM    H9S15215   1.888   5.365   3.265 -0.5320  0.0781  1.6599
  140OSM    H9T15216   1.908   5.251   3.128 -0.2262  1.9492 -1.3723
  140OSM   C10S15217   1.771   5.173   3.279 -0.3990 -0.6211 -0.3227
  140OSM   H10S15218   1.845   5.091   3.271  0.1466 -0.2917  1.1921
  140OSM   H10T15219   1.685   5.132   3.222  0.0421 -1.3696 -0.4565
  140OSM   C11S15220   1.733   5.209   3.423  0.5434 -0.8677  0.6266
  140OSM   H11S15221   1.692   5.116   3.468  0.8723 -1.2664  0.1359
  140OSM   H11T15222   1.655   5.287   3.422  2.0932  0.7708 -0.9339
  140OSM   C12S15223   1.843   5.277   3.508  0.4666  0.1224 -0.4315
  140OSM   H12S15224   1.812   5.288   3.614 -0.6950 -0.3106 -0.7052
  140OSM   H12T15225   1.861   5.379   3.470 -0.3497 -0.6493 -3.0914
  140OSM   C13S15226   1.978   5.198   3.505  0.1511  0.2059 -0.1119
  140OSM   H13S15227   2.039   5.238   3.421  0.5533 -0.2681 -0.0470
  140OSM   H13T15228   1.964   5.089   3.485  1.1757  0.4029 -2.1556
  140OSM   C14S15229   2.066   5.209   3.632  0.1284 -0.0204  0.3632
  140OSM   H14S15230   2.021   5.177   3.728  0.0605 -2.9275 -0.5664
  140OSM   H14T15231   2.095   5.317   3.628  2.1310 -0.5458 -0.8893
  140OSM   C15S15232   2.202   5.132   3.608 -0.1050 -0.1811 -0.0667
  140OSM   H15S15233   2.216   5.156   3.501 -1.0234 -0.4515 -0.2572
  140OSM   H15T15234   2.191   5.024   3.631 -0.4201 -0.0201  0.5680
  140OSM   C16S15235   2.325   5.172   3.694 -0.1396  0.1212 -0.2579
  140OSM   H16S15236   2.301   5.157   3.802  1.2670 -0.0558  0.0489
  140OSM   H16T15237   2.357   5.277   3.680 -0.0929  0.2850  0.9438
  140OSM   C17S15238   2.438   5.074   3.666 -0.2888  0.4253 -0.6073
  140OSM   H17S15239   2.459   5.058   3.558 -1.1496  0.3710 -0.7693
  140OSM   H17T15240   2.413   4.967   3.681  3.8634 -0.5481  0.6393
  140OSM   C18S15241   2.573   5.111   3.730  0.0108 -0.2445 -0.2055
  140OSM   H18S15242   2.662   5.051   3.699  1.1156  1.5679 -0.6971
  140OSM   H18T15243   2.577   5.108   3.841  2.0181 -0.0086 -0.2300
  140OSM   H18U15244   2.589   5.216   3.697 -2.0452 -0.3166 -1.5488
  140OSM    C1F15245   1.899   5.949   2.731 -0.7629 -0.7567 -0.0755
  140OSM     OF15246   1.827   5.976   2.641  0.5907 -0.4305  0.2412
  140OSM    C2F15247   1.912   6.031   2.857  0.1759  0.1538 -0.2422
  140OSM    H2F15248   2.016   6.069   2.869 -0.3276  1.3740  0.5237
  140OSM    H2G15249   1.876   5.978   2.948  0.7436 -0.9527 -0.6481
  140OSM    C3F15250   1.830   6.161   2.848 -0.0806  0.3730 -0.4168
  140OSM    H3F15251   1.724   6.129   2.853  0.1498 -0.4517 -0.6834
  140OSM    H3G15252   1.855   6.224   2.759  0.7553  0.6355 -0.0072
  140OSM    C4F15253   1.855   6.248   2.971 -0.7858 -1.3730 -0.0912
  140OSM    H4F15254   1.957   6.285   2.950 -0.7133 -1.4772  0.0781
  140OSM    H4G15255   1.869   6.189   3.064  2.1561 -1.2185 -0.3539
  140OSM    C5F15256   1.762   6.362   2.973  0.1253  0.1213 -0.4607
  140OSM    H5F15257   1.659   6.321   2.972  0.3218 -0.4197  0.5416
  140OSM    H5G15258   1.768   6.416   2.876 -0.2325 -1.2283 -1.2556
  140OSM    C6F15259   1.796   6.452   3.087 -0.1875 -0.7904 -0.3557
  140OSM    H6F15260   1.903   6.435   3.111 -0.0713 -2.5427 -1.8838
  140OSM    H6G15261   1.733   6.427   3.175 -0.2957 -0.4952 -0.3442
  140OSM    C7F15262   1.786   6.605   3.056  0.4047  0.6555 -0.2592
  140OSM    H7F15263   1.844   6.641   2.968 -0.6587  0.7211 -0.9531
  140OSM    H7G15264   1.824   6.652   3.150  1.3755 -3.1194  1.4116
  140OSM    C8F15265   1.631   6.651   3.048 -0.2954 -0.2888 -0.3884
  140OSM    H8F15266   1.577   6.603   3.132  0.6270  1.6372  1.3919
  140OSM    H8G15267   1.587   6.608   2.955  0.3008 -0.4433 -0.6073
  140OSM    C9F15268   1.604   6.800   3.051  0.4309 -0.2587 -0.7794
  140OSM    H9F15269   1.544   6.838   2.967 -0.3516 -0.6227 -0.3955
  140OSM   C10F15270   1.629   6.879   3.161 -0.2732 -0.4217  0.5226
  140OSM   H10F15271   1.588   6.981   3.169  0.3436 -0.0796 -0.5264
  140OSM   C11F15272   1.679   6.845   3.296 -0.4058  0.0701  0.0004
  140OSM   H11F15273   1.784   6.876   3.314 -0.3370 -0.2501  0.1573
  140OSM   H11G15274   1.668   6.737   3.319 -0.8424  0.3660  1.2446
  140OSM   C12F15275   1.615   6.914   3.411 -0.7303  0.1147 -0.6431
  140OSM   H12F15276   1.505   6.924   3.403 -0.7822 -0.7181 -0.9573
  140OSM   H12G15277   1.648   7.020   3.418 -1.1080  0.1426  2.0210
  140OSM   C13F15278   1.650   6.850   3.547  0.0335  0.5627  0.5425
  140OSM   H13F15279   1.760   6.845   3.529  0.0757  0.4848  0.8218
  140OSM   H13G15280   1.620   6.743   3.550  1.6262  0.0883  0.7663
  140OSM   C14F15281   1.627   6.921   3.675 -0.2380  0.3570 -0.2540
  140OSM   H14F15282   1.525   6.965   3.672 -0.1331  0.6298  0.1408
  140OSM   H14G15283   1.693   7.010   3.686 -0.2864  0.2070  1.5466
  140OSM   C15F15284   1.634   6.833   3.805  0.0425 -0.7744  0.0026
  140OSM   H15F15285   1.733   6.782   3.813  1.1222  1.0404 -1.0461
  140OSM   H15G15286   1.561   6.750   3.800 -0.4004 -0.4184  0.4828
  140OSM   C16F15287   1.591   6.912   3.928  0.1829 -0.4016 -0.6829
  140OSM   H16F15288   1.648   7.007   3.928 -1.1889  0.4338 -0.5655
  140OSM   H16G15289   1.630   6.875   4.025  2.0434  0.7212 -0.9456
  140OSM   C17F15290   1.442   6.945   3.935 -0.5884  0.3095 -0.1082
  140OSM   H17F15291   1.385   6.850   3.932  2.7105 -1.8647  0.3945
  140OSM   H17G15292   1.408   7.009   3.852  1.3118  1.8258  0.2090
  140OSM   C18F15293   1.399   7.020   4.058  0.1490  0.4259 -0.0705
  140OSM   H18F15294   1.426   7.126   4.040  2.3248 -0.0804 -0.0148
  140OSM   H18G15295   1.438   6.983   4.155 -0.9827  0.1970  0.3072
  140OSM   H18H15296   1.290   7.027   4.076  0.4703  0.7255  2.0005
  141OSM      N15297   4.135   3.107   1.442  0.4850 -0.3401 -0.3362
  141OSM    C1515298   4.114   3.025   1.557 -0.3374  0.1095  0.5646
  141OSM   H15A15299   4.069   2.928   1.538  0.0402 -0.0783  0.6087
  141OSM   H15B15300   4.048   3.075   1.626  1.4377  0.9563  1.7175
  141OSM   H15C15301   4.206   3.013   1.612 -0.3395 -0.4064  0.4608
  141OSM    C1415302   4.020   3.099   1.352  0.0133  0.1153  0.6084
  141OSM   H14A15303   4.015   2.998   1.315 -1.3232  0.4012 -0.0860
  141OSM   H14B15304   4.047   3.156   1.264  0.7037  0.5367  1.0836
  141OSM   H14C15305   3.922   3.117   1.393 -0.8997  0.6390 -1.6520
  141OSM    C1315306   4.147   3.255   1.483  0.1152  0.2602  0.1792
  141OSM   H13A15307   4.247   3.282   1.513  0.7047 -0.5419 -0.9788
  141OSM   H13B15308   4.080   3.276   1.565  1.5481 -0.3299  1.5597
  141OSM   H13C15309   4.125   3.322   1.401 -0.0909  3.2175  2.4998
  141OSM    C1215310   4.265   3.062   1.372 -0.7068 -0.6948 -0.6913
  141OSM   H12A15311   4.268   3.111   1.275 -0.9647  0.8090  0.0286
  141OSM   H12B15312   4.260   2.958   1.344  2.5257 -1.2041  0.1623
  141OSM    C1115313   4.395   3.077   1.455  0.4096 -0.0004  0.9245
  141OSM   H11A15314   4.391   3.167   1.520  1.1604  1.6459 -1.1777
  141OSM   H11B15315   4.481   3.092   1.387 -0.0581  0.0891  0.3431
  141OSM      P15316   4.540   2.889   1.579  0.0810 -0.2167 -0.5703
  141OSM    O1315317   4.567   2.779   1.491 -0.3843  0.1589 -0.1146
  141OSM    O1415318   4.638   2.995   1.614 -0.4921 -0.4012 -0.2977
  141OSM    O1115319   4.496   2.825   1.719  0.2792  0.1557  0.1034
  141OSM    O1215320   4.409   2.959   1.542 -0.4113 -0.3181 -0.5853
  141OSM    C1S15321   4.384   2.883   1.790  0.0731 -0.1791 -0.4457
  141OSM    H1S15322   4.292   2.874   1.728 -1.0242  2.3692  0.6495
  141OSM    H1T15323   4.397   2.991   1.812 -0.4936 -0.6957  2.8707
  141OSM     NF15324   4.212   2.860   1.974 -0.4109 -0.8123  1.0518
  141OSM    HNF15325   4.217   2.925   2.050  1.8784 -2.7287  2.7057
  141OSM    C2S15326   4.340   2.811   1.925 -0.1011  0.7755 -0.3473
  141OSM    H2S15327   4.326   2.703   1.902  0.7650  0.3856  0.8203
  141OSM    C3S15328   4.450   2.820   2.031  0.5276  0.7162 -0.2349
  141OSM    H3S15329   4.475   2.925   2.060 -0.8642  0.8624  0.4998
  141OSM     O315330   4.572   2.774   1.981 -0.0506 -0.5323 -0.3151
  141OSM    HO315331   4.556   2.765   1.887  0.1632 -0.4440 -0.3623
  141OSM    C4S15332   4.411   2.734   2.142 -0.7106 -0.9798 -0.1524
  141OSM    H4S15333   4.437   2.628   2.137 -0.4481 -1.0175  1.3028
  141OSM    C5S15334   4.343   2.770   2.251 -0.4437 -0.2429 -0.4912
  141OSM    H5S15335   4.311   2.875   2.257 -1.7121 -0.5941 -0.8622
  141OSM    C6S15336   4.293   2.690   2.370  0.5006 -0.0681  0.1889
  141OSM    H6S15337   4.256   2.589   2.342 -0.6083  0.1964  0.6331
  141OSM    H6T15338   4.203   2.743   2.408  0.5583 -0.5140  0.9794
  141OSM    C7S15339   4.396   2.683   2.492 -0.2295  0.2663  0.2652
  141OSM    H7S15340   4.422   2.789   2.513 -0.1566  0.3429 -0.1976
  141OSM    H7T15341   4.482   2.629   2.449 -0.3231 -0.0716  0.5028
  141OSM    C8S15342   4.339   2.621   2.623 -0.4561  0.2985  0.0433
  141OSM    H8S15343   4.313   2.515   2.603 -2.5185  1.0361 -1.5284
  141OSM    H8T15344   4.246   2.679   2.640 -0.8534 -0.2561 -0.2361
  141OSM    C9S15345   4.444   2.630   2.738  0.3331 -0.1130  0.1182
  141OSM    H9S15346   4.469   2.737   2.756  2.9521 -0.8491  1.2320
  141OSM    H9T15347   4.544   2.592   2.710  2.0533  3.5655  0.7414
  141OSM   C10S15348   4.402   2.572   2.868  0.0860 -0.0781 -0.5981
  141OSM   H10S15349   4.409   2.461   2.859 -2.1397 -0.4689  1.3756
  141OSM   H10T15350   4.297   2.604   2.886  0.3345 -0.2657  1.3054
  141OSM   C11S15351   4.489   2.632   2.982 -0.5163  0.4332  0.8435
  141OSM   H11S15352   4.468   2.741   2.975 -1.2361  0.2057 -0.9873
  141OSM   H11T15353   4.593   2.614   2.947 -0.9770  0.5521 -0.6597
  141OSM   C12S15354   4.455   2.572   3.116 -0.2918 -0.0216  0.1162
  141OSM   H12S15355   4.465   2.463   3.098  0.3487 -0.2347  1.6613
  141OSM   H12T15356   4.347   2.578   3.139 -0.9679  0.4977 -2.7728
  141OSM   C13S15357   4.554   2.603   3.232  0.2238 -0.6664  0.1009
  141OSM   H13S15358   4.562   2.714   3.237 -2.9489 -0.0263 -3.5671
  141OSM   H13T15359   4.649   2.558   3.197  1.8146  2.5519 -0.0336
  141OSM   C14S15360   4.504   2.553   3.369 -0.2154 -0.2216 -0.0141
  141OSM   H14S15361   4.470   2.448   3.358 -0.3281 -0.3298  1.2093
  141OSM   H14T15362   4.411   2.610   3.391 -0.1871 -0.0417 -0.3556
  141OSM   C15S15363   4.597   2.562   3.483 -0.2382 -0.0578 -0.0580
  141OSM   H15S15364   4.624   2.660   3.527  1.2520  0.3323 -1.7409
  141OSM   H15T15365   4.689   2.508   3.453 -0.6478 -0.7249 -0.1390
  141OSM   C16S15366   4.558   2.466   3.599 -0.4289  0.2077 -0.0965
  141OSM   H16S15367   4.527   2.367   3.560 -1.4576  0.0699  1.0100
  141OSM   H16T15368   4.475   2.517   3.653  0.0348 -1.1926  2.0568
  141OSM   C17S15369   4.679   2.444   3.697  0.9451 -0.0987 -0.4287
  141OSM   H17S15370   4.736   2.540   3.704 -1.2333  1.3713 -1.6900
  141OSM   H17T15371   4.753   2.369   3.664  1.0975  0.5863 -1.6993
  141OSM   C18S15372   4.619   2.406   3.836 -0.4444  0.0048  0.5373
  141OSM   H18S15373   4.547   2.481   3.875 -2.0628 -1.2590  0.0859
  141OSM   H18T15374   4.692   2.397   3.919 -0.0485 -0.5610  0.1360
  141OSM   H18U15375   4.562   2.311   3.839 -1.1438  0.4249  0.6019
  141OSM    C1F15376   4.098   2.820   1.916  0.7220  0.1989  0.3383
  141OSM     OF15377   4.100   2.732   1.830  0.6988 -0.2375  0.2073
  141OSM    C2F15378   3.972   2.879   1.960  0.0322 -0.3632 -0.1481
  141OSM    H2F15379   3.943   2.949   1.879  0.4365 -1.0381 -0.8850
  141OSM    H2G15380   3.980   2.940   2.053 -1.3332  1.1694 -0.9818
  141OSM    C3F15381   3.864   2.778   1.989 -0.0119  1.0254  0.2726
  141OSM    H3F15382   3.900   2.726   2.081 -1.0710 -0.1672  0.0352
  141OSM    H3G15383   3.843   2.704   1.909 -0.7783  1.7568 -0.2187
  141OSM    C4F15384   3.726   2.831   2.017 -0.1028  0.3223 -0.3347
  141OSM    H4F15385   3.658   2.742   2.020  1.7365 -1.1468 -0.3250
  141OSM    H4G15386   3.705   2.884   1.921 -1.1435  0.4991 -0.0195
  141OSM    C5F15387   3.708   2.938   2.130  0.1615 -0.0517  0.3423
  141OSM    H5F15388   3.603   2.970   2.114  0.6258  1.2708 -0.2064
  141OSM    H5G15389   3.768   3.029   2.109 -1.4614  0.6562 -1.4999
  141OSM    C6F15390   3.741   2.883   2.270  0.2001 -0.6022  0.2237
  141OSM    H6F15391   3.849   2.858   2.284  0.6205 -0.7040 -2.6559
  141OSM    H6G15392   3.668   2.800   2.284  0.6841 -1.1431 -0.3992
  141OSM    C7F15393   3.707   2.989   2.378  0.4967  0.5469  0.0199
  141OSM    H7F15394   3.611   3.036   2.351  1.5525  1.9773 -1.4377
  141OSM    H7G15395   3.789   3.062   2.391  0.8430  0.2141 -0.2497
  141OSM    C8F15396   3.688   2.918   2.515  0.6682 -0.3931  0.0241
  141OSM    H8F15397   3.786   2.875   2.544  1.4233  1.9275  1.1761
  141OSM    H8G15398   3.616   2.835   2.501 -0.7509  1.0159 -1.4033
  141OSM    C9F15399   3.636   3.018   2.618 -0.2072  0.4266 -0.1770
  141OSM    H9F15400   3.617   3.120   2.583 -2.6020  0.0221 -0.2599
  141OSM   C10F15401   3.607   2.977   2.742  0.2954 -0.6673 -0.1995
  141OSM   H10F15402   3.590   3.054   2.819 -0.6955 -1.3119  0.2496
  141OSM   C11F15403   3.612   2.836   2.798 -0.2128  0.1498 -0.8707
  141OSM   H11F15404   3.699   2.787   2.748  0.4689  0.0473  0.3704
  141OSM   H11G15405   3.518   2.782   2.772 -0.0675 -0.1510 -0.7762
  141OSM   C12F15406   3.621   2.827   2.956 -0.3063 -0.1232  0.0039
  141OSM   H12F15407   3.623   2.718   2.976  0.2593 -0.9272 -3.6646
  141OSM   H12G15408   3.543   2.885   3.009 -0.7732 -0.8713  0.1475
  141OSM   C13F15409   3.752   2.880   3.017  0.8684 -0.1386 -0.3334
  141OSM   H13F15410   3.757   2.988   2.992 -2.5709  0.8817  2.5090
  141OSM   H13G15411   3.839   2.823   2.977 -0.3069 -1.0096 -1.7788
  141OSM   C14F15412   3.753   2.862   3.169 -0.8731  0.0231 -0.4963
  141OSM   H14F15413   3.662   2.890   3.226 -1.0843 -1.1107 -0.2596
  141OSM   H14G15414   3.810   2.948   3.210 -0.8676  0.8054 -2.0532
  141OSM   C15F15415   3.796   2.720   3.210 -0.5297  0.1545 -0.3407
  141OSM   H15F15416   3.897   2.707   3.165 -0.7849  0.1734 -0.9295
  141OSM   H15G15417   3.728   2.647   3.161 -0.8160  0.3161 -0.1873
  141OSM   C16F15418   3.806   2.701   3.356 -0.0125 -0.3204 -1.1034
  141OSM   H16F15419   3.841   2.597   3.373 -2.8670 -1.4512 -1.6939
  141OSM   H16G15420   3.712   2.693   3.415  0.3892  1.9137 -0.0481
  141OSM   C17F15421   3.923   2.781   3.416  0.1457 -0.5297 -0.2384
  141OSM   H17F15422   3.893   2.886   3.397 -0.5945 -0.6992 -0.0714
  141OSM   H17G15423   4.016   2.761   3.360  0.3298  0.3515 -0.2500
  141OSM   C18F15424   3.942   2.764   3.568 -0.1410 -0.0451 -0.2754
  141OSM   H18F15425   3.870   2.805   3.642  0.7514  1.1296 -0.0257
  141OSM   H18G15426   4.037   2.818   3.592 -2.0734  2.4691  2.4695
  141OSM   H18H15427   3.954   2.657   3.593  1.6636 -1.1260 -4.7659
  142OSM      N15428   5.087   4.218   1.841 -0.5267  0.0242  0.2123
  142OSM    C1515429   5.219   4.160   1.785  0.5312 -0.8221 -0.9172
  142OSM   H15A15430   5.280   4.235   1.737  0.2318  1.1995  1.6567
  142OSM   H15B15431   5.196   4.084   1.711 -0.7486  0.1706 -1.5833
  142OSM   H15C15432   5.267   4.117   1.871 -0.4779  0.1872  0.2017
  142OSM    C1415433   4.995   4.239   1.729 -0.0568 -0.4525 -0.4457
  142OSM   H14A15434   4.948   4.146   1.697 -0.4359 -0.3258 -0.2683
  142OSM   H14B15435   5.047   4.277   1.642  1.6586 -1.5796  0.0372
  142OSM   H14C15436   4.914   4.308   1.747  1.3616  1.0162  0.5164
  142OSM    C1315437   5.016   4.116   1.928 -0.5793  0.7139 -0.4702
  142OSM   H13A15438   4.953   4.173   1.995  0.9845  1.3885  0.4543
  142OSM   H13B15439   5.080   4.061   1.994 -1.5954  0.6682  0.5114
  142OSM   H13C15440   4.961   4.043   1.869  0.8133 -0.3957 -0.4380
  142OSM    C1215441   5.102   4.351   1.914  0.0019  0.0629  0.0175
  142OSM   H12A15442   5.148   4.419   1.843  0.3443  0.8808  0.9984
  142OSM   H12B15443   5.180   4.337   1.987 -0.9055  0.5964  1.1068
  142OSM    C1115444   4.989   4.417   1.985 -0.2351 -0.3046  0.4194
  142OSM   H11A15445   4.896   4.417   1.924 -0.3224 -0.2041  0.5516
  142OSM   H11B15446   5.014   4.524   1.996  1.2970 -0.5171 -0.7726
  142OSM      P15447   5.046   4.367   2.227  0.2909 -0.3844 -0.1331
  142OSM    O1315448   5.005   4.274   2.335 -0.1863  0.8076 -0.2063
  142OSM    O1415449   5.187   4.358   2.182  0.2536  0.1743  0.1496
  142OSM    O1115450   5.016   4.515   2.278 -0.0821  0.1014  0.6544
  142OSM    O1215451   4.947   4.353   2.100 -0.2685 -0.2905 -0.3768
  142OSM    C1S15452   4.889   4.541   2.350 -0.1232 -0.7298 -0.3606
  142OSM    H1S15453   4.812   4.462   2.343 -0.7615 -0.4439  2.4776
  142OSM    H1T15454   4.841   4.631   2.304 -0.2665 -1.6814 -2.1766
  142OSM     NF15455   4.780   4.588   2.569 -0.6644  0.4648 -0.2886
  142OSM    HNF15456   4.765   4.675   2.615  3.2138  1.5346 -0.6958
  142OSM    C2S15457   4.908   4.570   2.499  0.1831 -0.9377 -0.2920
  142OSM    H2S15458   4.960   4.485   2.549 -0.4150 -0.6787  0.7983
  142OSM    C3S15459   4.996   4.690   2.515  0.3617 -0.2330  0.0346
  142OSM    H3S15460   4.939   4.780   2.484  1.8527  0.6922 -0.1304
  142OSM     O315461   5.122   4.691   2.449 -0.1741  0.4092 -0.0672
  142OSM    HO315462   5.110   4.629   2.376 -4.0651  1.3784 -0.4776
  142OSM    C4S15463   5.025   4.695   2.663 -0.5991 -0.4228 -0.3279
  142OSM    H4S15464   5.107   4.630   2.699  0.1772  0.8562  0.2877
  142OSM    C5S15465   4.978   4.790   2.749 -0.1239 -0.1073  0.7389
  142OSM    H5S15466   4.913   4.866   2.703  1.5287 -0.2645 -2.0620
  142OSM    C6S15467   5.016   4.806   2.890 -0.1139 -0.3095 -0.3411
  142OSM    H6S15468   5.052   4.908   2.914 -1.4656  0.5641 -1.8890
  142OSM    H6T15469   5.082   4.725   2.929 -0.7101 -1.3474 -1.4069
  142OSM    C7S15470   4.894   4.791   2.975  0.2713 -0.3032  0.7267
  142OSM    H7S15471   4.863   4.685   2.965 -3.2439  0.8220 -4.0124
  142OSM    H7T15472   4.811   4.850   2.931 -0.7125 -1.1540  1.3960
  142OSM    C8S15473   4.910   4.837   3.124 -0.1672  0.0895 -0.0581
  142OSM    H8S15474   4.923   4.947   3.132 -0.6766  0.3205 -1.9000
  142OSM    H8T15475   5.007   4.806   3.169 -0.1854 -0.3559 -0.3172
  142OSM    C9S15476   4.799   4.793   3.227  0.4935  0.2832  0.0942
  142OSM    H9S15477   4.759   4.694   3.196 -2.0741  1.5872 -1.1176
  142OSM    H9T15478   4.713   4.862   3.213  1.0122  1.5242  2.4547
  142OSM   C10S15479   4.830   4.791   3.375  0.0477 -0.4296 -0.8678
  142OSM   H10S15480   4.838   4.899   3.397  1.9484 -0.7034 -0.0010
  142OSM   H10T15481   4.929   4.742   3.390 -0.7259 -1.7850  0.1129
  142OSM   C11S15482   4.723   4.720   3.458  0.3898 -0.7283  0.2797
  142OSM   H11S15483   4.712   4.617   3.420 -1.7688  0.1765 -1.7960
  142OSM   H11T15484   4.626   4.772   3.440  1.2649 -0.0157 -3.2049
  142OSM   C12S15485   4.755   4.710   3.610  0.1768 -0.6104 -1.2330
  142OSM   H12S15486   4.853   4.663   3.632 -0.4821 -1.3252  0.4138
  142OSM   H12T15487   4.675   4.647   3.655 -0.4629  1.6912  1.0713
  142OSM   C13S15488   4.776   4.843   3.686 -0.0411 -0.2696 -0.4345
  142OSM   H13S15489   4.690   4.907   3.655  1.2635 -0.0727 -4.0776
  142OSM   H13T15490   4.874   4.878   3.649 -1.1810  2.9502 -0.7871
  142OSM   C14S15491   4.779   4.820   3.834  0.6274 -0.2403  0.3468
  142OSM   H14S15492   4.868   4.758   3.856  0.8921 -0.8700 -2.1106
  142OSM   H14T15493   4.688   4.763   3.864  0.5240 -0.2995 -0.0612
  142OSM   C15S15494   4.781   4.958   3.903 -0.0897  0.5013  0.2002
  142OSM   H15S15495   4.706   5.025   3.856  0.4138  0.5656 -0.5176
  142OSM   H15T15496   4.874   5.005   3.866 -1.0226  2.0301 -0.2917
  142OSM   C16S15497   4.764   4.940   4.054 -0.2423 -0.5078 -0.0811
  142OSM   H16S15498   4.850   4.876   4.083 -1.0039 -2.2942 -1.5219
  142OSM   H16T15499   4.676   4.881   4.085  0.1884 -2.5772 -2.4827
  142OSM   C17S15500   4.766   5.077   4.129  0.8216 -0.2026 -0.0412
  142OSM   H17S15501   4.663   5.117   4.135  0.3281 -1.4173 -0.2187
  142OSM   H17T15502   4.829   5.141   4.063 -1.4794  0.4204 -1.7533
  142OSM   C18S15503   4.829   5.090   4.266 -0.0172 -0.8707  0.6198
  142OSM   H18S15504   4.848   5.195   4.294  0.8889 -1.0943  0.8709
  142OSM   H18T15505   4.923   5.034   4.285  0.2335 -0.1663  1.4617
  142OSM   H18U15506   4.752   5.052   4.336 -1.0663 -2.7256 -1.3913
  142OSM    C1F15507   4.679   4.500   2.582 -0.4053  0.4021  0.0023
  142OSM     OF15508   4.688   4.380   2.555  0.0063 -0.1133  0.5890
  142OSM    C2F15509   4.554   4.550   2.653  0.4356 -0.2398 -0.2485
  142OSM    H2F15510   4.506   4.629   2.592  0.0778 -0.4592 -0.2487
  142OSM    H2G15511   4.581   4.586   2.755  1.6270  0.2396 -0.7123
  142OSM    C3F15512   4.452   4.438   2.667  0.0979  0.1301  0.3913
  142OSM    H3F15513   4.500   4.347   2.710 -1.5630  0.3360  2.8829
  142OSM    H3G15514   4.424   4.414   2.562  0.8636  0.1851  0.1661
  142OSM    C4F15515   4.321   4.477   2.742 -0.7032 -0.1960  0.2398
  142OSM    H4F15516   4.268   4.380   2.753 -0.5721 -0.4504 -1.1607
  142OSM    H4G15517   4.255   4.540   2.678  0.3357  0.6418 -0.0296
  142OSM    C5F15518   4.333   4.527   2.882 -0.3194 -0.0977  0.2235
  142OSM    H5F15519   4.226   4.518   2.910 -0.8833 -1.9819 -2.1441
  142OSM    H5G15520   4.372   4.631   2.875  4.4976 -1.5646  1.0583
  142OSM    C6F15521   4.413   4.441   2.979 -0.1795 -0.2119  0.1490
  142OSM    H6F15522   4.516   4.426   2.941  1.0595  1.0372  2.8252
  142OSM    H6G15523   4.367   4.340   2.987  1.5311 -1.4318 -3.3923
  142OSM    C7F15524   4.447   4.516   3.116 -0.8948  0.1353  0.3894
  142OSM    H7F15525   4.508   4.606   3.093  3.5933 -2.6922  0.0249
  142OSM    H7G15526   4.526   4.453   3.163 -2.2886 -3.2719 -1.4075
  142OSM    C8F15527   4.330   4.543   3.210  0.0968  0.5618 -0.0743
  142OSM    H8F15528   4.274   4.451   3.235  1.7887 -0.8490 -1.2468
  142OSM    H8G15529   4.246   4.594   3.158 -1.7418  0.8961  3.0121
  142OSM    C9F15530   4.378   4.617   3.336 -0.3694  0.1052 -0.0672
  142OSM    H9F15531   4.411   4.721   3.319 -1.0665  0.2664 -0.4809
  142OSM   C10F15532   4.355   4.567   3.459 -0.3957 -0.6652  0.4719
  142OSM   H10F15533   4.394   4.625   3.544  0.8501 -1.2836  0.3498
  142OSM   C11F15534   4.285   4.440   3.499 -0.5473 -0.2834 -0.0456
  142OSM   H11F15535   4.302   4.357   3.426  1.2572  1.0502 -1.2353
  142OSM   H11G15536   4.179   4.470   3.494 -0.2619  1.1138  1.5035
  142OSM   C12F15537   4.322   4.387   3.638 -0.1051  0.1983 -0.2975
  142OSM   H12F15538   4.292   4.462   3.714  2.5955 -1.0938  2.2167
  142OSM   H12G15539   4.433   4.382   3.636 -0.1676 -1.4639 -0.9904
  142OSM   C13F15540   4.253   4.256   3.674  0.8955  0.1280 -0.0315
  142OSM   H13F15541   4.299   4.183   3.604  1.0366  0.6742 -0.5190
  142OSM   H13G15542   4.147   4.277   3.649  1.7372  3.4511 -1.3411
  142OSM   C14F15543   4.284   4.219   3.817  0.0204  0.0479  0.0284
  142OSM   H14F15544   4.252   4.304   3.880 -2.9538  0.4117 -1.7775
  142OSM   H14G15545   4.393   4.211   3.837 -0.1452  1.4514  1.6638
  142OSM   C15F15546   4.226   4.079   3.858 -0.1362 -1.4549  0.6278
  142OSM   H15F15547   4.276   3.993   3.808  2.5152  0.3560 -0.0791
  142OSM   H15G15548   4.119   4.076   3.829  0.5842  2.2693 -3.4955
  142OSM   C16F15549   4.247   4.046   4.014 -0.1281 -0.5692  0.0650
  142OSM   H16F15550   4.196   3.950   4.035 -0.0996 -0.6625 -0.2862
  142OSM   H16G15551   4.184   4.124   4.062 -2.4956 -0.9751 -2.1718
  142OSM   C17F15552   4.391   4.054   4.064  0.0511  0.3959  0.1166
  142OSM   H17F15553   4.384   4.067   4.174 -2.2336  1.0067 -0.0486
  142OSM   H17G15554   4.438   4.148   4.027 -2.1288  1.0943 -1.0255
  142OSM   C18F15555   4.469   3.925   4.045 -0.2117 -0.4955 -0.5301
  142OSM   H18F15556   4.471   3.905   3.936 -2.3671 -0.7602 -0.5620
  142OSM   H18G15557   4.418   3.846   4.105 -0.3513 -0.6293 -0.8230
  142OSM   H18H15558   4.574   3.935   4.078 -0.5734 -0.5151  0.6825
  143OSM      N15559   3.787   4.721   1.762 -0.0454 -0.1031  0.1605
  143OSM    C1515560   3.686   4.702   1.656  0.4786 -0.0668  0.0186
  143OSM   H15A15561   3.586   4.731   1.685  0.1704 -1.3086  0.2867
  143OSM   H15B15562   3.669   4.598   1.629 -3.0930  0.4790 -0.3043
  143OSM   H15C15563   3.717   4.756   1.568 -1.4614 -0.6474 -1.0920
  143OSM    C1415564   3.917   4.673   1.715 -1.1284 -0.6366 -0.7708
  143OSM   H14A15565   3.915   4.566   1.697  0.6628 -0.8029 -0.2390
  143OSM   H14B15566   3.991   4.693   1.791 -1.7901 -1.2134  0.0430
  143OSM   H14C15567   3.941   4.715   1.618 -1.5036 -1.1308 -1.0840
  143OSM    C1315568   3.799   4.873   1.770 -0.6531  0.3936  0.1693
  143OSM   H13A15569   3.782   4.929   1.679  0.3771 -1.5797 -1.3236
  143OSM   H13B15570   3.896   4.903   1.807  0.2732 -3.7798  1.7818
  143OSM   H13C15571   3.731   4.912   1.844  0.5253  0.4131  1.2741
  143OSM    C1215572   3.744   4.666   1.892  0.1321 -0.1116  0.7884
  143OSM   H12A15573   3.652   4.720   1.911  0.4058  0.1128  1.5190
  143OSM   H12B15574   3.804   4.688   1.979 -0.5671 -3.6258  2.3526
  143OSM    C1115575   3.723   4.513   1.899 -0.3588 -0.4248  0.3270
  143OSM   H11A15576   3.716   4.491   2.007 -2.9205  0.1768  0.3407
  143OSM   H11B15577   3.814   4.455   1.872 -1.5447 -1.5359 -1.4742
  143OSM      P15578   3.475   4.487   1.854 -0.4325 -0.0115 -0.3935
  143OSM    O1315579   3.456   4.635   1.859 -0.0428  0.1027  0.0946
  143OSM    O1415580   3.383   4.406   1.770 -0.5288  0.4479  0.3323
  143OSM    O1115581   3.463   4.435   2.006  0.3164  0.0091  0.8229
  143OSM    O1215582   3.626   4.450   1.817  0.3710  0.7276  1.3489
  143OSM    C1S15583   3.474   4.292   2.037 -0.6037 -0.2633  0.7922
  143OSM    H1S15584   3.578   4.257   2.051 -1.3143 -2.4880  0.9555
  143OSM    H1T15585   3.434   4.223   1.960 -1.7636  0.6901  0.5144
  143OSM     NF15586   3.431   4.127   2.223 -0.0600  0.4322  0.1756
  143OSM    HNF15587   3.362   4.055   2.216 -0.1325  0.4402  0.7419
  143OSM    C2S15588   3.400   4.263   2.175 -1.0524  0.6604 -0.3736
  143OSM    H2S15589   3.440   4.337   2.248 -0.0227  2.6813 -2.8219
  143OSM    C3S15590   3.248   4.298   2.168 -0.4778 -0.5911 -0.0291
  143OSM    H3S15591   3.202   4.228   2.094  0.2619 -0.4148 -0.6705
  143OSM     O315592   3.221   4.436   2.121 -0.0825  0.1015 -0.2393
  143OSM    HO315593   3.307   4.471   2.094  0.3805  0.4764  1.6086
  143OSM    C4S15594   3.194   4.286   2.302 -0.1880  0.3331 -0.2063
  143OSM    H4S15595   3.226   4.362   2.375 -0.6882 -0.3801  0.7796
  143OSM    C5S15596   3.104   4.197   2.346  0.6359  0.5269  0.0374
  143OSM    H5S15597   3.050   4.129   2.278 -1.0689  0.3868  1.4547
  143OSM    C6S15598   3.059   4.182   2.494  0.2032 -0.2579  0.8502
  143OSM    H6S15599   3.010   4.086   2.520  0.9301 -0.7889  0.3256
  143OSM    H6T15600   2.992   4.268   2.518  0.2270  0.1787 -0.5536
  143OSM    C7S15601   3.180   4.189   2.593 -0.1647 -0.6503 -0.3562
  143OSM    H7S15602   3.234   4.286   2.589 -0.2252 -0.6065 -0.1160
  143OSM    H7T15603   3.257   4.115   2.564  1.8073  0.8570  0.8278
  143OSM    C8S15604   3.122   4.152   2.736  0.0149  0.2381  0.0861
  143OSM    H8S15605   3.069   4.055   2.725 -0.7284  0.6528  0.0149
  143OSM    H8T15606   3.046   4.223   2.774  0.5521  1.2599 -0.6752
  143OSM    C9S15607   3.226   4.139   2.844 -0.0220  0.1181 -0.2356
  143OSM    H9S15608   3.291   4.228   2.839 -0.7874  0.6282 -1.4959
  143OSM    H9T15609   3.288   4.046   2.838 -0.6466 -0.3111 -0.2000
  143OSM   C10S15610   3.158   4.133   2.981  0.2238 -1.2558  0.2928
  143OSM   H10S15611   3.125   4.027   2.987  0.0311 -1.1264  2.0275
  143OSM   H10T15612   3.069   4.192   3.014 -0.6843 -2.9235  0.9236
  143OSM   C11S15613   3.253   4.155   3.106  0.8357 -0.1766 -0.2025
  143OSM   H11S15614   3.272   4.263   3.123  1.6962 -0.2689 -0.5525
  143OSM   H11T15615   3.349   4.099   3.097  0.9627  0.0284 -0.1263
  143OSM   C12S15616   3.180   4.107   3.230  0.0578  0.0772 -0.1381
  143OSM   H12S15617   3.142   4.005   3.211  0.0294 -0.6087  2.9583
  143OSM   H12T15618   3.092   4.168   3.258  0.5563  1.4380 -1.4624
  143OSM   C13S15619   3.269   4.089   3.353  0.5917 -0.1347 -0.2222
  143OSM   H13S15620   3.330   4.180   3.369 -2.1622  2.0683 -1.3565
  143OSM   H13T15621   3.337   4.003   3.334 -0.4026 -0.7909 -0.9277
  143OSM   C14S15622   3.179   4.062   3.482  0.7323 -0.4703  0.3607
  143OSM   H14S15623   3.099   3.990   3.454  0.4025  1.0090 -3.0024
  143OSM   H14T15624   3.115   4.152   3.490  1.6467  0.0804  1.8218
  143OSM   C15S15625   3.260   4.032   3.597 -0.2520  0.5015 -0.7743
  143OSM   H15S15626   3.209   4.066   3.690  1.1133 -1.6232  0.8620
  143OSM   H15T15627   3.348   4.101   3.597  0.5721 -0.4811  1.1240
  143OSM   C16S15628   3.307   3.890   3.612 -0.9248  0.0320  0.2131
  143OSM   H16S15629   3.390   3.868   3.542 -0.1427  1.2083  0.7426
  143OSM   H16T15630   3.224   3.818   3.592 -0.5355 -0.5662  0.7179
  143OSM   C17S15631   3.365   3.846   3.746  0.7144  0.3173  0.6044
  143OSM   H17S15632   3.403   3.743   3.736  2.0732  0.7258  1.3287
  143OSM   H17T15633   3.280   3.841   3.817  1.3281 -1.7308  1.2379
  143OSM   C18S15634   3.482   3.926   3.801 -0.2934 -0.4915  0.0896
  143OSM   H18S15635   3.563   3.927   3.726  0.3888  0.7267  0.8169
  143OSM   H18T15636   3.524   3.888   3.897 -2.0636 -0.3622  0.9606
  143OSM   H18U15637   3.472   4.036   3.811  2.2437 -0.1233 -0.7494
  143OSM    C1F15638   3.554   4.086   2.258  0.1819 -0.8629  0.0772
  143OSM     OF15639   3.649   4.160   2.256 -0.8161 -0.1113 -0.5913
  143OSM    C2F15640   3.570   3.944   2.306  0.0108 -0.3215  0.1455
  143OSM    H2F15641   3.678   3.922   2.315 -0.1765 -1.3957 -0.1158
  143OSM    H2G15642   3.530   3.876   2.227 -0.3050 -1.8266  1.5594
  143OSM    C3F15643   3.496   3.928   2.437 -0.1413 -0.3571  0.4739
  143OSM    H3F15644   3.387   3.940   2.416 -0.7704 -2.3824  2.2089
  143OSM    H3G15645   3.535   4.007   2.504  1.4464  0.3025 -1.1604
  143OSM    C4F15646   3.508   3.791   2.501 -0.1335 -0.0042 -0.8264
  143OSM    H4F15647   3.613   3.771   2.530  0.4438  3.3369 -0.2902
  143OSM    H4G15648   3.490   3.709   2.428  0.9926 -2.4930  1.5140
  143OSM    C5F15649   3.414   3.767   2.620  0.2508 -0.0509 -0.0310
  143OSM    H5F15650   3.370   3.665   2.615 -0.2891  0.2237 -3.3045
  143OSM    H5G15651   3.336   3.845   2.620  0.6766  0.3856 -0.3755
  143OSM    C6F15652   3.479   3.780   2.759 -0.5681  0.5666 -0.3535
  143OSM    H6F15653   3.498   3.890   2.766 -2.2538  0.9358 -1.2122
  143OSM    H6G15654   3.576   3.725   2.764 -0.0624  1.4663  0.0381
  143OSM    C7F15655   3.410   3.735   2.891  0.4683  0.2633 -0.1450
  143OSM    H7F15656   3.398   3.627   2.910 -0.0368  0.5828  1.5030
  143OSM    H7G15657   3.305   3.770   2.903  0.3008 -0.1300 -0.4452
  143OSM    C8F15658   3.477   3.808   3.010 -0.1349  0.4526 -0.6033
  143OSM    H8F15659   3.489   3.913   2.974 -1.7225  0.5095 -1.0295
  143OSM    H8G15660   3.573   3.752   3.004 -1.4337 -1.8179 -1.7431
  143OSM    C9F15661   3.407   3.793   3.144  0.0047  0.0462  0.1397
  143OSM    H9F15662   3.301   3.822   3.146 -0.3170 -0.8927 -1.6438
  143OSM   C10F15663   3.469   3.747   3.259  0.6300  0.1029 -0.6254
  143OSM   H10F15664   3.421   3.754   3.357  3.5736 -0.5173  0.9696
  143OSM   C11F15665   3.610   3.706   3.271 -0.9509  0.1360 -0.1665
  143OSM   H11F15666   3.680   3.730   3.189 -0.0226 -0.5619  0.4102
  143OSM   H11G15667   3.616   3.595   3.277 -0.1170  0.1801 -0.1337
  143OSM   C12F15668   3.683   3.762   3.408 -0.4210 -0.0355 -0.0654
  143OSM   H12F15669   3.638   3.712   3.497  0.1655 -0.2429  0.1185
  143OSM   H12G15670   3.660   3.871   3.405  0.9756  0.2846  0.1048
  143OSM   C13F15671   3.837   3.739   3.415  0.3035  0.0816 -0.1378
  143OSM   H13F15672   3.877   3.773   3.318 -2.3472 -1.6334 -1.9849
  143OSM   H13G15673   3.854   3.629   3.423 -0.6873 -0.0518  0.2962
  143OSM   C14F15674   3.904   3.810   3.538 -0.1530  0.3907  0.1929
  143OSM   H14F15675   3.886   3.918   3.518 -1.4600  0.1903  0.2246
  143OSM   H14G15676   4.011   3.779   3.535 -0.0432  0.8513 -1.9105
  143OSM   C15F15677   3.847   3.760   3.679 -0.3453  0.3740 -0.5145
  143OSM   H15F15678   3.850   3.649   3.666  0.6210  0.6924 -4.1907
  143OSM   H15G15679   3.737   3.777   3.678 -0.2986  0.7326 -1.9585
  143OSM   C16F15680   3.916   3.826   3.790  0.0343 -0.0654 -1.3964
  143OSM   H16F15681   3.903   3.937   3.787 -1.2925 -0.0535  1.3369
  143OSM   H16G15682   4.025   3.809   3.779  0.6975  2.4099  0.2704
  143OSM   C17F15683   3.877   3.781   3.929 -0.2001  0.1010 -0.3457
  143OSM   H17F15684   3.768   3.797   3.934 -0.4730 -0.5828 -2.8882
  143OSM   H17G15685   3.920   3.852   4.004 -0.1001  0.8394 -1.0885
  143OSM   C18F15686   3.904   3.633   3.956  0.3045  0.2308 -0.1223
  143OSM   H18F15687   3.853   3.565   3.884 -1.4532  1.6508 -0.3044
  143OSM   H18G15688   3.864   3.612   4.057  3.4249 -0.8167  0.9844
  143OSM   H18H15689   4.012   3.610   3.951  0.4468  0.5030  1.4388
  144OSM      N15690   3.024   4.346   1.733  0.1358 -0.0746  0.2289
  144OSM    C1515691   2.891   4.287   1.695  0.2472  0.0474  0.6065
  144OSM   H15A15692   2.823   4.282   1.779 -1.0168 -2.2238 -0.4680
  144OSM   H15B15693   2.911   4.194   1.644 -0.2587  0.6866 -0.7810
  144OSM   H15C15694   2.848   4.355   1.623 -0.3385  1.3312  2.1039
  144OSM    C1415695   3.101   4.237   1.801 -0.0999  1.3700 -0.9030
  144OSM   H14A15696   3.047   4.211   1.891  1.5751 -1.8440 -0.6877
  144OSM   H14B15697   3.202   4.271   1.818 -0.6334  2.7837 -0.3622
  144OSM   H14C15698   3.106   4.145   1.745 -2.0690  1.0168 -0.5776
  144OSM    C1315699   3.103   4.378   1.608 -0.0853  0.1028  0.1056
  144OSM   H13A15700   3.049   4.455   1.555  1.0202 -0.3718 -1.8176
  144OSM   H13B15701   3.112   4.294   1.541  0.9724 -0.4430  0.8967
  144OSM   H13C15702   3.202   4.413   1.632  0.1577  1.6240 -2.6815
  144OSM    C1215703   3.012   4.464   1.821 -0.1108 -0.9678 -0.5563
  144OSM   H12A15704   2.955   4.536   1.763  0.3977 -1.6791 -1.9829
  144OSM   H12B15705   3.108   4.513   1.835 -0.0955 -1.1220 -0.1201
  144OSM    C1115706   2.937   4.445   1.953  0.3193 -0.7217  0.4456
  144OSM   H11A15707   2.953   4.537   2.013  2.8253 -0.2956 -0.7507
  144OSM   H11B15708   2.977   4.354   2.003  0.6057 -0.8906 -0.0812
  144OSM      P15709   2.695   4.528   1.887 -0.1164  0.1830  0.4477
  144OSM    O1315710   2.760   4.659   1.867  0.3209 -0.1501 -0.3491
  144OSM    O1415711   2.624   4.466   1.778 -0.1857 -0.0974 -0.2624
  144OSM    O1115712   2.591   4.544   2.004 -0.5889 -0.3323  0.1452
  144OSM    O1215713   2.801   4.423   1.935 -0.3369 -0.1794  0.5931
  144OSM    C1S15714   2.574   4.438   2.104 -0.7989 -0.0627  0.4537
  144OSM    H1S15715   2.600   4.341   2.056 -0.0440  1.4786 -2.5502
  144OSM    H1T15716   2.471   4.432   2.145 -0.7849 -2.6206  0.2758
  144OSM     NF15717   2.667   4.324   2.308 -0.4666 -0.0695  0.0868
  144OSM    HNF15718   2.624   4.330   2.397  1.1527 -2.3967  1.1350
  144OSM    C2S15719   2.675   4.442   2.220 -0.2059 -0.3915 -0.3778
  144OSM    H2S15720   2.781   4.441   2.185 -0.3609 -2.6298 -0.9049
  144OSM    C3S15721   2.668   4.584   2.298  0.3646  0.4788  0.6963
  144OSM    H3S15722   2.558   4.593   2.312 -0.0438 -2.8488  0.5562
  144OSM     O315723   2.709   4.703   2.225 -0.3486  0.3288  0.4521
  144OSM    HO315724   2.720   4.677   2.133  0.5545 -1.2201  0.9606
  144OSM    C4S15725   2.752   4.573   2.422 -0.0599  0.3386  0.1183
  144OSM    H4S15726   2.699   4.534   2.511  1.3873 -1.0090  0.4241
  144OSM    C5S15727   2.885   4.576   2.442 -0.1077  0.4500  0.2746
  144OSM    H5S15728   2.955   4.583   2.358 -1.1982 -1.1994 -0.8214
  144OSM    C6S15729   2.958   4.570   2.573 -0.3279  0.3294 -0.3727
  144OSM    H6S15730   3.044   4.640   2.566 -0.8193  0.8429 -1.5887
  144OSM    H6T15731   3.016   4.475   2.580  0.0715  0.6628  1.2304
  144OSM    C7S15732   2.887   4.583   2.714 -1.2409 -0.3939  0.2126
  144OSM    H7S15733   2.793   4.525   2.728 -1.7637  1.0262  3.1005
  144OSM    H7T15734   2.853   4.687   2.733 -1.9348 -0.1737 -1.9377
  144OSM    C8S15735   2.980   4.549   2.829  0.2509 -0.0868 -0.1844
  144OSM    H8S15736   3.067   4.618   2.826  0.5338 -0.4286  0.1327
  144OSM    H8T15737   3.018   4.448   2.802  0.4540  0.0738 -0.4957
  144OSM    C9S15738   2.911   4.542   2.966 -0.2358  1.2513 -0.2315
  144OSM    H9S15739   2.848   4.452   2.951 -0.4474  0.8611  2.5154
  144OSM    H9T15740   2.842   4.625   2.992 -0.8122  0.7794 -0.2229
  144OSM   C10S15741   3.011   4.527   3.085 -0.0103 -0.0607  0.1769
  144OSM   H10S15742   3.073   4.619   3.088 -0.0179 -0.0906  1.5703
  144OSM   H10T15743   3.072   4.435   3.074  0.0800  0.1839 -1.9420
  144OSM   C11S15744   2.945   4.508   3.220  0.0630  0.5556 -0.5040
  144OSM   H11S15745   2.895   4.410   3.207  0.3066  0.3106  0.3073
  144OSM   H11T15746   2.873   4.592   3.234  0.3538  1.0633 -1.8963
  144OSM   C12S15747   3.043   4.491   3.334  0.0604 -0.0435 -0.0134
  144OSM   H12S15748   3.094   4.582   3.372  0.3262 -0.2517  0.1272
  144OSM   H12T15749   3.112   4.411   3.302 -0.9016 -1.8288  2.0559
  144OSM   C13S15750   2.956   4.422   3.445  0.1278  0.1810 -0.3356
  144OSM   H13S15751   3.014   4.350   3.507 -0.6555  0.0192  0.2421
  144OSM   H13T15752   2.875   4.358   3.404 -0.7412  0.3847  0.9921
  144OSM   C14S15753   2.888   4.528   3.543  0.0671 -0.4503 -0.0421
  144OSM   H14S15754   2.791   4.560   3.498  0.0986 -2.0262 -1.3066
  144OSM   H14T15755   2.957   4.615   3.541  1.6148 -1.6337 -0.1506
  144OSM   C15S15756   2.855   4.484   3.685 -0.1051 -0.0569  0.1501
  144OSM   H15S15757   2.930   4.408   3.717  0.3719  0.3495  0.0121
  144OSM   H15T15758   2.756   4.433   3.680 -0.7971  1.3539 -1.2343
  144OSM   C16S15759   2.835   4.605   3.779  0.4973  0.2349  0.2095
  144OSM   H16S15760   2.911   4.682   3.753 -0.2973  0.8531 -0.3254
  144OSM   H16T15761   2.848   4.562   3.880 -1.6330 -2.9445 -0.7252
  144OSM   C17S15762   2.698   4.670   3.765  0.5974  0.0406  0.7084
  144OSM   H17S15763   2.639   4.576   3.759 -1.2941  0.8062  4.3907
  144OSM   H17T15764   2.683   4.720   3.667 -1.1770  0.5139  1.1785
  144OSM   C18S15765   2.655   4.761   3.880  0.0746 -0.1878 -0.1015
  144OSM   H18S15766   2.650   4.696   3.970  2.8883  0.1121  0.3612
  144OSM   H18T15767   2.561   4.818   3.865  0.6942  0.9476  0.2185
  144OSM   H18U15768   2.733   4.838   3.898 -0.9480  1.1334 -1.0967
  144OSM    C1F15769   2.689   4.201   2.261  0.0119  0.0735  0.5797
  144OSM     OF15770   2.725   4.180   2.147 -0.5480 -0.2256 -0.6710
  144OSM    C2F15771   2.663   4.097   2.359  0.1891  0.5123 -0.5908
  144OSM    H2F15772   2.619   4.147   2.448  1.6107  0.0391  0.4002
  144OSM    H2G15773   2.754   4.039   2.386  0.0167  0.4007 -0.2419
  144OSM    C3F15774   2.564   4.006   2.301  0.4199 -0.6482 -0.0448
  144OSM    H3F15775   2.583   3.975   2.197  3.3276  1.0643 -0.1260
  144OSM    H3G15776   2.466   4.056   2.286  0.6410  0.1427  1.0433
  144OSM    C4F15777   2.533   3.882   2.392  0.3558  0.3835  0.7847
  144OSM    H4F15778   2.622   3.851   2.450  0.7850 -0.4755 -0.2805
  144OSM    H4G15779   2.503   3.808   2.314  1.1507  0.1661  0.6755
  144OSM    C5F15780   2.421   3.895   2.491  0.6699 -0.4472  0.1093
  144OSM    H5F15781   2.396   3.793   2.526 -1.2368  0.3102  1.0967
  144OSM    H5G15782   2.334   3.931   2.432  0.4004 -1.7216 -0.3052
  144OSM    C6F15783   2.461   3.973   2.621  0.6988  0.0902  0.6808
  144OSM    H6F15784   2.418   4.075   2.607 -0.2169  0.0454  2.8435
  144OSM    H6G15785   2.571   3.973   2.631  0.9612  0.4295 -1.5921
  144OSM    C7F15786   2.393   3.921   2.748  0.9041  0.3373  0.4044
  144OSM    H7F15787   2.421   3.814   2.746  2.1260  0.6425 -0.6865
  144OSM    H7G15788   2.283   3.934   2.751  1.1368  2.4839  1.8356
  144OSM    C8F15789   2.442   3.967   2.890 -1.0895 -0.0581  0.0786
  144OSM    H8F15790   2.362   3.944   2.963  0.3570 -0.6633  1.5373
  144OSM    H8G15791   2.453   4.078   2.892 -2.2843  0.0823 -0.3784
  144OSM    C9F15792   2.561   3.885   2.941 -0.6440 -0.2606  0.5726
  144OSM    H9F15793   2.533   3.785   2.977 -3.1250 -0.2353 -1.0890
  144OSM   C10F15794   2.686   3.929   2.958  0.2350 -0.8351  0.3254
  144OSM   H10F15795   2.756   3.849   2.983  0.5694 -0.9984 -1.0391
  144OSM   C11F15796   2.733   4.070   2.924 -0.1620 -0.0795 -0.3980
  144OSM   H11F15797   2.650   4.126   2.875  0.5587  0.3970 -1.1096
  144OSM   H11G15798   2.803   4.063   2.837 -0.1153 -2.0448 -0.2393
  144OSM   C12F15799   2.797   4.161   3.041  0.2031 -0.1196 -0.5134
  144OSM   H12F15800   2.836   4.251   2.989  0.4230  1.1608  1.7649
  144OSM   H12G15801   2.889   4.119   3.085  1.2138  1.7907 -0.7148
  144OSM   C13F15802   2.695   4.210   3.145 -0.1621  0.2949  0.1555
  144OSM   H13F15803   2.589   4.224   3.115 -0.2266 -1.1625 -0.3841
  144OSM   H13G15804   2.724   4.314   3.172  3.1021 -1.1528  2.9811
  144OSM   C14F15805   2.708   4.128   3.274  0.6562 -0.0201 -0.0057
  144OSM   H14F15806   2.814   4.146   3.303 -0.2396  1.8839  2.4577
  144OSM   H14G15807   2.693   4.019   3.267  0.1811 -0.0181  0.8674
  144OSM   C15F15808   2.613   4.177   3.390  0.2094  0.1823  0.2427
  144OSM   H15F15809   2.611   4.288   3.393 -1.0507  0.2537 -1.8224
  144OSM   H15G15810   2.646   4.134   3.487  1.6142 -0.6682 -0.5667
  144OSM   C16F15811   2.473   4.121   3.383  0.2023 -0.6542 -0.0758
  144OSM   H16F15812   2.469   4.010   3.376 -1.6439 -0.6638  0.4434
  144OSM   H16G15813   2.431   4.146   3.283  2.0575 -2.3159 -1.3624
  144OSM   C17F15814   2.389   4.168   3.494  0.1422  0.4379 -0.0500
  144OSM   H17F15815   2.282   4.143   3.478  0.6946 -1.8638 -0.4580
  144OSM   H17G15816   2.407   4.277   3.506  0.4002  0.3365  0.4966
  144OSM   C18F15817   2.419   4.086   3.619  0.4996 -0.5907  0.0607
  144OSM   H18F15818   2.325   4.073   3.676 -0.7617 -1.0255 -1.9981
  144OSM   H18G15819   2.489   4.139   3.687  1.5746 -0.4103 -1.1355
  144OSM   H18H15820   2.462   3.985   3.602  2.2630  0.4205 -2.0971
  145SAPE     N15821   3.975   0.120   6.621  0.0498  0.3333  0.3873
  145SAPE   HN115822   4.070   0.163   6.619 -0.3479  1.4372  2.5253
  145SAPE   HN215823   3.980   0.033   6.563  0.4593 -1.4923  2.9760
  145SAPE   HN315824   3.915   0.178   6.559  0.5557 -0.2366 -0.6718
  145SAPE   C1215825   3.936   0.087   6.757 -0.0888  0.5414 -0.4636
  145SAPE  H12A15826   3.858   0.008   6.765  0.0701  0.5526  2.7256
  145SAPE  H12B15827   3.899   0.178   6.809 -0.5995  1.7273 -2.7600
  145SAPE   C1115828   4.077   0.051   6.818 -0.0584 -0.1327  0.3066
  145SAPE  H11A15829   4.070   0.022   6.925  0.4089  1.4134  0.7821
  145SAPE  H11B15830   4.132   0.147   6.814 -0.7033  0.3031  1.4758
  145SAPE     P15831   4.293  -0.066   6.747 -0.7094  0.4776 -0.2097
  145SAPE   O1315832   4.349   0.019   6.849 -0.5246  0.8665  0.3016
  145SAPE   O1415833   4.323  -0.206   6.761 -0.4409 -0.4198  1.1036
  145SAPE   O1215834   4.139  -0.053   6.740 -1.0319  0.4759 -0.1668
  145SAPE   O1115835   4.344  -0.016   6.614  0.0264 -0.5593 -0.1680
  145SAPE    C115836   4.279  -0.024   6.491  0.8632 -0.1722 -1.1226
  145SAPE    HA15837   4.169  -0.031   6.504  1.0036 -2.1518 -0.7246
  145SAPE    HB15838   4.293   0.069   6.432 -0.3933  1.1926  0.6161
  145SAPE    C215839   4.328  -0.142   6.401 -0.6409 -0.0353  0.6178
  145SAPE    HS15840   4.346  -0.227   6.470  3.1000 -0.5565 -0.7817
  145SAPE   O2115841   4.448  -0.087   6.340 -0.8785 -0.6745  0.1657
  145SAPE   C2115842   4.527  -0.181   6.292  0.1655 -0.3546  0.0509
  145SAPE   O2215843   4.502  -0.302   6.302 -0.5073 -0.3821 -0.8115
  145SAPE   C2215844   4.654  -0.116   6.222 -0.6038 -0.7106 -0.2700
  145SAPE   H2R15845   4.656  -0.006   6.208 -0.8732 -0.7406 -0.5686
  145SAPE   H2S15846   4.743  -0.132   6.286 -0.0832  0.5227 -0.6509
  145SAPE    C315847   4.217  -0.160   6.296 -0.7968 -0.0552 -0.0592
  145SAPE    HX15848   4.194  -0.059   6.256 -0.5881 -0.3183 -0.8736
  145SAPE    HY15849   4.124  -0.198   6.345 -0.0416 -2.2732 -0.2229
  145SAPE   O3115850   4.250  -0.233   6.177 -0.0509  0.2660 -0.0557
  145SAPE   C3115851   4.238  -0.364   6.186  0.0791 -0.0241 -0.4112
  145SAPE   O3215852   4.184  -0.419   6.279  0.2661  0.3336 -0.5517
  145SAPE   C3215853   4.300  -0.435   6.060  0.2232  0.2878 -1.0332
  145SAPE   H2X15854   4.356  -0.524   6.095 -1.2015 -0.4384 -0.5273
  145SAPE   H2Y15855   4.377  -0.369   6.016  0.4984  0.4912 -0.2638
  145SAPE   C2315856   4.682  -0.177   6.085 -0.3274 -0.3888 -0.2811
  145SAPE   H3R15857   4.722  -0.097   6.019  2.1135 -0.9264  0.4486
  145SAPE   H3S15858   4.589  -0.204   6.030 -0.5091 -0.1023 -0.1178
  145SAPE   C2415859   4.784  -0.295   6.081 -0.0179 -0.0213  0.2021
  145SAPE   H4R15860   4.782  -0.339   5.979  0.9862 -0.9019  0.5492
  145SAPE   H4S15861   4.751  -0.375   6.151  1.8468 -1.4647 -0.4688
  145SAPE   C2515862   4.930  -0.253   6.118 -0.2097 -0.7542 -0.3938
  145SAPE   H5R15863   4.936  -0.226   6.224 -1.7396 -1.2472 -0.1544
  145SAPE   C2615864   5.041  -0.262   6.046  0.1583  0.0307  0.5010
  145SAPE   H6R15865   5.134  -0.241   6.101  0.2776  2.9412 -0.6200
  145SAPE   C2715866   5.041  -0.296   5.898 -0.5861  0.5772 -0.5875
  145SAPE   H7R15867   5.078  -0.210   5.837  1.2565 -0.7047 -1.3795
  145SAPE   H7S15868   4.942  -0.327   5.861 -0.8017  1.0324 -0.4063
  145SAPE   C2815869   5.143  -0.409   5.872  0.2026 -0.0597 -0.1704
  145SAPE   H8R15870   5.232  -0.417   5.936 -0.9722 -1.0744  1.4039
  145SAPE   C2915871   5.120  -0.504   5.775  0.4142  0.0579  0.1198
  145SAPE   H9R15872   5.189  -0.589   5.766  1.3497  1.0007 -2.2029
  145SAPE  C21015873   5.010  -0.514   5.680 -0.2412  0.5404 -0.2194
  145SAPE  H10R15874   4.915  -0.489   5.732  0.0106  1.9794 -0.3891
  145SAPE  H10S15875   4.988  -0.622   5.669  1.5734  0.2360 -1.3654
  145SAPE  C21115876   5.013  -0.436   5.556  0.1508  0.1248  0.6025
  145SAPE  H11R15877   5.001  -0.328   5.569  1.9472  0.2747  1.2771
  145SAPE  C21215878   5.020  -0.493   5.434  0.4319 -0.2367 -0.1873
  145SAPE  H12R15879   5.031  -0.415   5.357 -2.9572  1.5204  0.9123
  145SAPE  C21315880   5.059  -0.635   5.411  0.1349 -0.0291  0.1923
  145SAPE  H13R15881   4.980  -0.675   5.344  0.7623 -0.2020 -0.4504
  145SAPE  H13S15882   5.063  -0.696   5.504  0.5544  0.9446  0.8292
  145SAPE  C21415883   5.195  -0.637   5.343 -0.1919  0.1232 -0.1302
  145SAPE  H14R15884   5.249  -0.542   5.348 -1.2927  0.8792 -1.7048
  145SAPE  C21515885   5.243  -0.733   5.261 -0.4749  0.0366 -0.0027
  145SAPE  H15R15886   5.343  -0.708   5.221 -0.4005 -1.2849 -0.6995
  145SAPE  C21615887   5.176  -0.856   5.203 -0.6467  0.4734 -0.0904
  145SAPE  H16R15888   5.068  -0.862   5.230 -0.9311  2.7980 -0.5237
  145SAPE  H16S15889   5.234  -0.947   5.230  1.9341  2.1501  0.3595
  145SAPE  C21715890   5.182  -0.843   5.051 -0.1557 -0.8742  0.4185
  145SAPE  H17R15891   5.116  -0.756   5.032  1.2276 -0.2785 -2.0979
  145SAPE  H17S15892   5.113  -0.921   5.014 -0.3770 -1.7500  2.5003
  145SAPE  C21815893   5.324  -0.827   4.982  0.5278  0.1411  0.5484
  145SAPE  H18R15894   5.368  -0.926   5.006 -0.9277 -0.1987  1.9922
  145SAPE  H18S15895   5.377  -0.745   5.037  1.3767 -0.1965  0.2473
  145SAPE  C21915896   5.312  -0.782   4.835 -0.1761  0.1421  0.0157
  145SAPE  H19R15897   5.411  -0.771   4.785  0.3317 -1.0825  0.6905
  145SAPE  H19S15898   5.256  -0.687   4.824  1.8991  1.8020  2.5787
  145SAPE  C22015899   5.240  -0.887   4.756  0.4122  0.5345 -1.0026
  145SAPE  H20R15900   5.264  -0.885   4.647  1.5913 -2.6895 -0.8943
  145SAPE  H20S15901   5.130  -0.873   4.770  0.5524 -1.2724  3.8954
  145SAPE  H20T15902   5.266  -0.989   4.791  1.7818  1.4480  0.7875
  145SAPE   C3315903   4.198  -0.479   5.953  0.0532 -0.1817 -0.1679
  145SAPE   H3X15904   4.130  -0.395   5.928  0.3531  0.3336  0.6691
  145SAPE   H3Y15905   4.138  -0.558   6.003 -0.0694 -0.7313 -1.1632
  145SAPE   C3415906   4.275  -0.515   5.823  0.3805  0.7401  0.0487
  145SAPE   H4X15907   4.353  -0.585   5.859  0.7199  0.0166 -1.9382
  145SAPE   H4Y15908   4.327  -0.429   5.777  0.6795  0.9675  0.8025
  145SAPE   C3515909   4.191  -0.595   5.723 -0.6568 -0.3302  1.2880
  145SAPE   H5X15910   4.090  -0.550   5.711 -0.1861  0.5896  0.6280
  145SAPE   H5Y15911   4.178  -0.700   5.757 -2.2957 -0.3880  0.5609
  145SAPE   C3615912   4.261  -0.618   5.592  0.7455 -0.3648  0.1013
  145SAPE   H6X15913   4.346  -0.689   5.602 -0.4980 -1.6620  2.2313
  145SAPE   H6Y15914   4.292  -0.527   5.536  0.3614  0.2714  0.9032
  145SAPE   C3715915   4.167  -0.696   5.490  0.6542 -0.3258 -0.3655
  145SAPE   H7X15916   4.096  -0.625   5.442  0.4783 -0.6232 -0.5431
  145SAPE   H7Y15917   4.119  -0.777   5.548 -0.2786  0.6962  0.3353
  145SAPE   C3815918   4.246  -0.766   5.378 -0.0036  0.1785 -0.4988
  145SAPE   H8X15919   4.303  -0.845   5.430 -3.0817 -0.8316  1.6064
  145SAPE   H8Y15920   4.307  -0.694   5.318 -1.9581  0.7956 -1.8849
  145SAPE   C3915921   4.152  -0.851   5.285 -0.4533 -0.0804 -0.5973
  145SAPE   H9X15922   4.054  -0.800   5.274 -1.2041 -0.6387  2.5328
  145SAPE   H9Y15923   4.125  -0.944   5.339  1.7750 -1.0471 -0.9883
  145SAPE  C31015924   4.212  -0.858   5.143  0.0567  0.3988  0.2186
  145SAPE  H10X15925   4.312  -0.906   5.154  0.0563 -0.4503 -2.5432
  145SAPE  H10Y15926   4.231  -0.760   5.094  1.8896 -0.3960 -0.8047
  145SAPE  C31115927   4.138  -0.955   5.056 -0.1537  0.0752  1.0746
  145SAPE  H11X15928   4.035  -0.915   5.041  0.5588  1.4008 -0.7138
  145SAPE  H11Y15929   4.131  -1.053   5.107 -1.0903 -1.1397 -1.2266
  145SAPE  C31215930   4.202  -0.975   4.914  0.7288 -0.2256  0.0541
  145SAPE  H12X15931   4.310  -0.962   4.933  0.7430  1.3285 -0.9404
  145SAPE  H12Y15932   4.177  -0.888   4.849  1.1976 -0.6678 -0.7283
  145SAPE  C31315933   4.171  -1.113   4.849 -0.4277  0.1361 -0.3390
  145SAPE  H13X15934   4.222  -1.193   4.907 -0.5453  0.6397  0.4771
  145SAPE  H13Y15935   4.203  -1.114   4.743  1.3871 -0.2739  0.1836
  145SAPE  C31415936   4.020  -1.148   4.849 -0.0725  0.1407 -0.4648
  145SAPE  H14X15937   3.953  -1.073   4.803 -2.6007 -0.1605  2.3799
  145SAPE  H14Y15938   3.984  -1.144   4.954  0.2575 -0.6319 -0.3193
  145SAPE  C31515939   3.992  -1.287   4.793 -0.3000  0.4855  0.2224
  145SAPE  H15X15940   4.014  -1.374   4.858 -3.6329 -2.1771 -1.8191
  145SAPE  H15Y15941   4.055  -1.293   4.701 -1.1344 -2.1090 -0.2671
  145SAPE  C31615942   3.843  -1.295   4.762 -0.2129 -0.2711 -0.1545
  145SAPE  H16X15943   3.816  -1.200   4.712  0.4768  0.0549  0.0842
  145SAPE  H16Y15944   3.790  -1.289   4.859 -0.8940 -0.2200 -0.5180
  145SAPE  C31715945   3.790  -1.410   4.682 -0.0334 -0.4739 -0.0082
  145SAPE  H17X15946   3.679  -1.411   4.689  0.0012 -0.2602  0.6856
  145SAPE  H17Y15947   3.831  -1.507   4.717  1.0601  0.7121  2.2595
  145SAPE  C31815948   3.825  -1.394   4.531 -0.7160  0.0509 -0.2412
  145SAPE  H18X15949   3.767  -1.465   4.468 -3.1911  1.6058  0.1531
  145SAPE  H18Y15950   3.935  -1.409   4.522 -0.9420 -1.1919 -1.2476
  145SAPE  H18Z15951   3.820  -1.292   4.488  2.0913  1.6604  2.7943
  146SAPE     N15952   4.960   4.076   6.482 -1.4372  0.5177  0.1891
  146SAPE   HN115953   4.978   4.090   6.380  2.0062  0.2505  0.6437
  146SAPE   HN215954   4.967   4.176   6.507 -1.2985  0.9829 -1.5817
  146SAPE   HN315955   5.037   4.016   6.518 -1.5542 -0.8711 -1.6897
  146SAPE   C1215956   4.830   4.014   6.520 -0.1776  0.4285 -0.5048
  146SAPE  H12A15957   4.845   4.005   6.629  1.6435  0.4525 -0.7143
  146SAPE  H12B15958   4.824   3.911   6.477  1.4093  0.5485 -1.1021
  146SAPE   C1115959   4.716   4.108   6.472 -0.6931  0.4291  0.0137
  146SAPE  H11A15960   4.623   4.059   6.507 -0.4851 -0.7731 -1.0144
  146SAPE  H11B15961   4.710   4.109   6.361  0.6951  1.9741 -0.0942
  146SAPE     P15962   4.637   4.358   6.499  0.7143 -0.3090  0.1219
  146SAPE   O1315963   4.498   4.319   6.523  0.8038 -0.3738  0.1800
  146SAPE   O1415964   4.695   4.469   6.584  0.1546 -0.3457 -0.0082
  146SAPE   O1215965   4.735   4.238   6.528 -0.0541  0.2267 -0.6891
  146SAPE   O1115966   4.655   4.412   6.354 -0.0368  0.1571 -0.2734
  146SAPE    C115967   4.788   4.418   6.305 -0.1647 -0.0054  0.5238
  146SAPE    HA15968   4.843   4.510   6.333 -0.5490  0.2481  0.4594
  146SAPE    HB15969   4.844   4.325   6.329  0.8294  0.4782  0.1086
  146SAPE    C215970   4.797   4.436   6.145 -0.0356  0.1367  0.3666
  146SAPE    HS15971   4.902   4.414   6.117  0.4286  1.5397  0.9430
  146SAPE   O2115972   4.734   4.561   6.105  0.1617  0.0359  0.2074
  146SAPE   C2115973   4.785   4.633   6.005  0.4340  0.4436 -0.5063
  146SAPE   O2215974   4.890   4.607   5.956  0.5397 -0.7528 -0.1106
  146SAPE   C2215975   4.689   4.740   5.955 -0.7988  0.4171 -0.0099
  146SAPE   H2R15976   4.611   4.679   5.903  1.2039 -1.3643 -1.0617
  146SAPE   H2S15977   4.654   4.797   6.044  1.7110 -0.8415  1.8814
  146SAPE    C315978   4.706   4.323   6.093  0.1563  0.2341 -0.2466
  146SAPE    HX15979   4.602   4.332   6.132  0.5450 -0.3587  0.9807
  146SAPE    HY15980   4.727   4.226   6.143 -0.3397 -0.8043 -1.9583
  146SAPE   O3115981   4.723   4.309   5.950  0.3508 -0.0742  0.2099
  146SAPE   C3115982   4.630   4.356   5.865  0.4792 -0.6807 -0.2321
  146SAPE   O3215983   4.526   4.406   5.900  0.0514  0.4223  0.5232
  146SAPE   C3215984   4.681   4.341   5.727  0.4855 -0.5753 -0.3086
  146SAPE   H2X15985   4.730   4.242   5.718 -1.4887 -1.5572 -0.6992
  146SAPE   H2Y15986   4.756   4.421   5.706  0.3347 -0.0276  1.1267
  146SAPE   C2315987   4.762   4.838   5.855  0.6667 -0.1646  0.2200
  146SAPE   H3R15988   4.787   4.774   5.768 -1.6156 -0.5768 -0.1876
  146SAPE   H3S15989   4.850   4.886   5.903  1.9307 -0.5042 -1.6807
  146SAPE   C2415990   4.675   4.961   5.821  0.2481  0.2886  0.2402
  146SAPE   H4R15991   4.732   5.017   5.744  0.0686  0.4615  0.2340
  146SAPE   H4S15992   4.679   5.031   5.907  1.9845  1.6959 -0.9113
  146SAPE   C2515993   4.535   4.939   5.764  0.0950  0.0132 -0.2373
  146SAPE   H5R15994   4.462   4.910   5.842  0.7534  0.2450  0.4716
  146SAPE   C2615995   4.499   4.925   5.637  0.1760 -0.3686  0.7934
  146SAPE   H6R15996   4.399   4.884   5.615  0.1793  0.7777 -1.6968
  146SAPE   C2715997   4.589   4.934   5.511  0.1557 -0.8409 -0.6542
  146SAPE   H7R15998   4.672   5.008   5.514 -0.1343 -0.5385  0.4116
  146SAPE   H7S15999   4.528   4.955   5.421 -0.1568  1.5262  0.0465
  146SAPE   C2816000   4.650   4.799   5.486  0.0071  0.4824  0.2097
  146SAPE   H8R16001   4.657   4.746   5.581 -0.6474  0.8340  0.4636
  146SAPE   C2916002   4.707   4.758   5.372 -0.0959 -0.5828  0.3366
  146SAPE   H9R16003   4.743   4.654   5.369 -0.9928 -0.8901 -0.0540
  146SAPE  C21016004   4.711   4.835   5.241 -0.4906 -0.2826  0.7406
  146SAPE  H10R16005   4.731   4.942   5.260  3.2828 -1.1385  2.3930
  146SAPE  H10S16006   4.612   4.837   5.190 -0.3519  1.4696  0.4677
  146SAPE  C21116007   4.809   4.793   5.140 -0.3833 -0.3746 -0.4856
  146SAPE  H11R16008   4.839   4.688   5.146 -0.3994 -0.3329  0.6173
  146SAPE  C21216009   4.862   4.868   5.044  0.0512 -0.2023  0.0724
  146SAPE  H12R16010   4.941   4.836   4.975 -0.2736 -0.6821 -0.0781
  146SAPE  C21316011   4.846   5.013   5.022  0.1827 -0.0202  0.3143
  146SAPE  H13R16012   4.945   5.060   5.039  0.5076 -1.3514  2.3443
  146SAPE  H13S16013   4.782   5.062   5.099  0.7225  0.4219  0.4839
  146SAPE  C21416014   4.788   5.054   4.885 -0.3800  0.0806  0.1470
  146SAPE  H14R16015   4.685   5.022   4.864 -0.5862 -0.1068  1.3551
  146SAPE  C21516016   4.843   5.136   4.796  0.0932  0.0054 -0.2542
  146SAPE  H15R16017   4.794   5.148   4.698 -1.1372 -0.5163  0.2734
  146SAPE  C21616018   4.993   5.170   4.792 -0.8463  0.0308  0.5592
  146SAPE  H16R16019   5.049   5.107   4.864  0.0791  0.2852  0.0820
  146SAPE  H16S16020   4.992   5.264   4.851  0.6169 -0.4652  1.4334
  146SAPE  C21716021   5.073   5.191   4.666 -0.2679  0.0178  0.2063
  146SAPE  H17R16022   5.157   5.257   4.696 -0.0619 -1.0385  2.1138
  146SAPE  H17S16023   5.010   5.243   4.591  0.6229 -1.9442 -2.0679
  146SAPE  C21816024   5.117   5.064   4.591  1.1454 -0.1951 -0.3533
  146SAPE  H18R16025   5.027   5.002   4.573 -0.1190  1.2780  0.6006
  146SAPE  H18S16026   5.176   5.007   4.666 -0.3359  0.2602  1.2529
  146SAPE  C21916027   5.190   5.097   4.459 -0.0082 -0.2495  0.2867
  146SAPE  H19R16028   5.285   5.141   4.497 -1.8241  2.6187  1.8941
  146SAPE  H19S16029   5.120   5.164   4.405 -2.1833  1.0018  4.2381
  146SAPE  C22016030   5.223   4.971   4.381  0.0877  0.0947  0.5288
  146SAPE  H20R16031   5.125   4.941   4.339 -0.7806  1.4292  1.4877
  146SAPE  H20S16032   5.259   4.884   4.439  0.6035 -1.5023 -2.0261
  146SAPE  H20T16033   5.310   4.992   4.316  0.8025 -1.8532  0.8102
  146SAPE   C3316034   4.575   4.345   5.617 -0.2476  0.2426  1.5742
  146SAPE   H3X16035   4.537   4.449   5.612  1.2592  0.7761 -0.0282
  146SAPE   H3Y16036   4.492   4.273   5.637 -1.6979  1.8703  1.6190
  146SAPE   C3416037   4.631   4.310   5.476 -0.3310 -0.3523 -0.8636
  146SAPE   H4X16038   4.695   4.220   5.484 -0.7256 -0.5525  0.3698
  146SAPE   H4Y16039   4.694   4.399   5.453  0.0517 -0.3442  0.1505
  146SAPE   C3516040   4.532   4.297   5.367  0.0533  1.0458  0.2957
  146SAPE   H5X16041   4.525   4.389   5.305 -1.2686 -0.2510 -1.5828
  146SAPE   H5Y16042   4.437   4.270   5.418  0.6735  0.3584  1.1093
  146SAPE   C3616043   4.561   4.184   5.272 -0.5584  0.0344 -0.4108
  146SAPE   H6X16044   4.475   4.172   5.202 -0.1592  0.0355 -0.9132
  146SAPE   H6Y16045   4.583   4.084   5.315  0.2808  1.0057  1.5052
  146SAPE   C3716046   4.680   4.217   5.179  0.7097  0.0155 -0.1061
  146SAPE   H7X16047   4.768   4.230   5.247 -0.4047  2.2151  1.0507
  146SAPE   H7Y16048   4.664   4.318   5.135  2.9655 -0.1647 -1.4680
  146SAPE   C3816049   4.689   4.109   5.073 -0.3596  0.1717  0.0436
  146SAPE   H8X16050   4.658   4.011   5.115  1.7332 -1.0905 -1.1476
  146SAPE   H8Y16051   4.793   4.103   5.034  0.1717 -1.1900  1.5482
  146SAPE   C3916052   4.594   4.142   4.955 -0.1135  0.5317 -0.3908
  146SAPE   H9X16053   4.638   4.218   4.887 -0.0520  0.8000 -0.0573
  146SAPE   H9Y16054   4.502   4.189   4.997  0.3303  0.9445  0.1271
  146SAPE  C31016055   4.551   4.014   4.880  0.1253  0.3614 -0.0745
  146SAPE  H10X16056   4.477   3.963   4.946 -1.0303  0.7064 -1.0708
  146SAPE  H10Y16057   4.643   3.951   4.878 -0.0612  0.0871 -0.1195
  146SAPE  C31116058   4.502   4.039   4.739 -0.1465  0.6865  1.4801
  146SAPE  H11X16059   4.589   4.089   4.691 -0.3726 -0.3661 -0.0912
  146SAPE  H11Y16060   4.412   4.104   4.743 -0.6500  0.3013 -1.2712
  146SAPE  C31216061   4.475   3.906   4.662  0.1467  0.0038 -0.3090
  146SAPE  H12X16062   4.405   3.855   4.732  0.2501 -0.5775 -0.6164
  146SAPE  H12Y16063   4.558   3.834   4.676  0.6280  0.0309 -2.6326
  146SAPE  C31316064   4.428   3.914   4.514 -0.0224 -0.2837 -0.4876
  146SAPE  H13X16065   4.483   4.000   4.470  0.0730  0.9801  1.9357
  146SAPE  H13Y16066   4.320   3.942   4.506 -0.7662 -1.0738  4.0109
  146SAPE  C31416067   4.446   3.792   4.432 -0.0113  1.3835 -0.0509
  146SAPE  H14X16068   4.551   3.763   4.409 -0.9296 -0.4435 -2.3761
  146SAPE  H14Y16069   4.396   3.814   4.334  0.6944  1.1544 -0.4674
  146SAPE  C31516070   4.364   3.663   4.464 -0.9347 -0.1708  0.3276
  146SAPE  H15X16071   4.255   3.681   4.478 -0.8892 -1.2871  2.5613
  146SAPE  H15Y16072   4.391   3.623   4.564 -2.8216  1.5450  1.6058
  146SAPE  C31616073   4.362   3.555   4.362 -0.2846  0.0350  0.1156
  146SAPE  H16X16074   4.342   3.610   4.267  1.6194 -0.6200 -0.7294
  146SAPE  H16Y16075   4.278   3.489   4.392  0.6115 -1.7358 -1.0943
  146SAPE  C31716076   4.489   3.465   4.335 -0.0822 -0.2611  0.1387
  146SAPE  H17X16077   4.537   3.429   4.429 -0.4876 -1.1125  0.0334
  146SAPE  H17Y16078   4.564   3.534   4.292 -0.1791 -1.3623 -1.8993
  146SAPE  C31816079   4.464   3.357   4.233 -0.2091  0.8553 -0.3109
  146SAPE  H18X16080   4.436   3.399   4.134 -0.7344  1.6934  0.1886
  146SAPE  H18Y16081   4.393   3.280   4.269  1.0594 -0.2153 -0.0031
  146SAPE  H18Z16082   4.555   3.296   4.212  0.7176  2.6264 -1.7283
  147SAPE     N16083   0.491   2.441   6.641 -0.8991 -0.1581 -0.0995
  147SAPE   HN116084   0.568   2.410   6.704 -0.6819  0.8192  0.1325
  147SAPE   HN216085   0.478   2.543   6.652  1.3379  0.1225  0.6294
  147SAPE   HN316086   0.411   2.387   6.678 -1.4532 -1.8845 -3.3748
  147SAPE   C1216087   0.514   2.399   6.498 -0.1303 -0.3274  0.4808
  147SAPE  H12A16088   0.420   2.425   6.445 -1.4720  0.0327  2.8865
  147SAPE  H12B16089   0.513   2.288   6.496 -0.6333 -0.3223 -1.2931
  147SAPE   C1116090   0.635   2.461   6.426 -0.3874 -0.0579  0.0443
  147SAPE  H11A16091   0.617   2.569   6.406  0.6872  0.3845  1.2781
  147SAPE  H11B16092   0.643   2.393   6.339 -1.5706 -0.3636  0.1516
  147SAPE     P16093   0.849   2.327   6.495  0.0177  0.3182  0.3310
  147SAPE   O1316094   0.977   2.369   6.549 -1.0113 -0.1257 -0.0424
  147SAPE   O1416095   0.786   2.202   6.551 -0.2560 -0.1279  0.0844
  147SAPE   O1216096   0.756   2.454   6.495 -0.3240  0.0223 -0.6530
  147SAPE   O1116097   0.866   2.296   6.335 -0.1535  0.4728 -0.3695
  147SAPE    C116098   0.986   2.256   6.272 -0.3813  0.2176  0.4840
  147SAPE    HA16099   0.999   2.332   6.191 -0.3252  1.6314  1.7778
  147SAPE    HB16100   1.077   2.272   6.334  1.2463 -0.9688 -1.4535
  147SAPE    C216101   0.980   2.108   6.221 -0.1885  0.8390 -0.2220
  147SAPE    HS16102   1.062   2.084   6.150 -0.8144  1.9469 -1.3591
  147SAPE   O2116103   0.860   2.073   6.147 -0.0614  0.0032 -0.4049
  147SAPE   C2116104   0.839   2.151   6.039  0.2151 -0.0206  0.6744
  147SAPE   O2216105   0.922   2.221   5.985  0.7608  0.2819  0.0688
  147SAPE   C2216106   0.686   2.136   6.010 -0.1551 -0.6100 -0.4236
  147SAPE   H2R16107   0.655   2.049   6.072  1.9069 -0.3233  1.1316
  147SAPE   H2S16108   0.648   2.224   6.066  0.8256 -0.8900  0.7209
  147SAPE    C316109   0.980   2.009   6.341  0.0534  0.3201 -0.3483
  147SAPE    HX16110   0.899   2.025   6.415  0.0657  4.3049 -1.0059
  147SAPE    HY16111   1.074   2.031   6.396  0.0772  1.8978 -0.9742
  147SAPE   O3116112   0.990   1.872   6.303  0.5108 -0.3984 -0.2757
  147SAPE   C3116113   0.879   1.807   6.271 -0.1451  0.7364  0.0503
  147SAPE   O3216114   0.765   1.845   6.302  0.4554 -0.0028  0.1605
  147SAPE   C3216115   0.914   1.676   6.206 -0.3623  1.0768 -0.9121
  147SAPE   H2X16116   0.842   1.597   6.236 -1.4868  2.1459 -0.7635
  147SAPE   H2Y16117   1.016   1.645   6.240 -0.4506  0.7161 -0.9695
  147SAPE   C2316118   0.649   2.150   5.861 -0.1701  1.0012 -0.3954
  147SAPE   H3R16119   0.679   2.254   5.836 -0.0395  1.2266  0.6489
  147SAPE   H3S16120   0.540   2.131   5.849  0.1058  0.4701 -2.5801
  147SAPE   C2416121   0.712   2.038   5.780 -0.1613  0.1079  0.2560
  147SAPE   H4R16122   0.680   1.937   5.814 -0.0119  0.2373  0.7797
  147SAPE   H4S16123   0.822   2.038   5.794  0.2590  2.2695 -2.0917
  147SAPE   C2516124   0.683   2.068   5.635  0.0326 -0.9913  0.5476
  147SAPE   H5R16125   0.704   2.170   5.601  0.7625 -1.3510 -0.1081
  147SAPE   C2616126   0.660   1.978   5.534 -0.6973 -0.4933 -0.5495
  147SAPE   H6R16127   0.655   2.008   5.428 -0.2951 -2.1950 -1.0754
  147SAPE   C2716128   0.636   1.834   5.562  0.0977  0.1750  0.0250
  147SAPE   H7R16129   0.648   1.814   5.671 -0.2012 -0.9707 -0.1388
  147SAPE   H7S16130   0.719   1.776   5.516 -1.6145 -0.4831 -2.4051
  147SAPE   C2816131   0.503   1.780   5.506 -0.2605  0.0458 -0.2449
  147SAPE   H8R16132   0.418   1.818   5.565  0.7169  0.0514  1.2124
  147SAPE   C2916133   0.481   1.692   5.409 -0.7020  0.2804 -0.1711
  147SAPE   H9R16134   0.383   1.656   5.375 -2.1594 -0.7982  4.5292
  147SAPE  C21016135   0.592   1.619   5.330  0.3286  0.0453 -0.9543
  147SAPE  H10R16136   0.670   1.584   5.402  1.4686  0.0452 -2.1359
  147SAPE  H10S16137   0.641   1.690   5.259 -0.4717 -0.1019 -1.6607
  147SAPE  C21116138   0.536   1.505   5.245 -0.2517 -0.3352  0.5718
  147SAPE  H11R16139   0.533   1.417   5.310 -3.3996 -1.8788 -1.3942
  147SAPE  C21216140   0.476   1.507   5.123 -0.6290  0.4750 -0.4924
  147SAPE  H12R16141   0.431   1.413   5.088  1.1189 -1.1300  1.3067
  147SAPE  C21316142   0.463   1.613   5.022  0.6669  0.0543  0.1480
  147SAPE  H13R16143   0.431   1.702   5.079  2.7871  0.1476  1.2794
  147SAPE  H13S16144   0.381   1.587   4.952  1.0086 -1.2413  0.1983
  147SAPE  C21416145   0.591   1.638   4.949 -0.6221 -0.2804  1.0717
  147SAPE  H14R16146   0.673   1.684   5.006 -0.0379  0.6930 -0.4937
  147SAPE  C21516147   0.618   1.609   4.824 -0.3544 -0.3310  0.2363
  147SAPE  H15R16148   0.721   1.611   4.786 -0.7988  1.7652 -1.0445
  147SAPE  C21616149   0.523   1.546   4.722  0.6978 -0.0339  0.0239
  147SAPE  H16R16150   0.415   1.559   4.745  0.9577 -0.5712  1.6664
  147SAPE  H16S16151   0.550   1.440   4.705  1.3743  0.4233 -2.0249
  147SAPE  C21716152   0.539   1.602   4.577  0.4532  0.8659 -0.0502
  147SAPE  H17R16153   0.646   1.597   4.548  1.1911 -1.8965  2.6636
  147SAPE  H17S16154   0.518   1.710   4.588  1.1132  1.0660 -0.6554
  147SAPE  C21816155   0.437   1.538   4.482 -0.3354 -0.0129 -0.0133
  147SAPE  H18R16156   0.335   1.543   4.526 -1.3583  0.2810 -2.2962
  147SAPE  H18S16157   0.457   1.429   4.470 -0.1450  0.0690 -0.4789
  147SAPE  C21916158   0.443   1.595   4.338 -0.5837  0.0822  0.3480
  147SAPE  H19R16159   0.540   1.565   4.294 -1.0906  0.8923 -1.4049
  147SAPE  H19S16160   0.442   1.706   4.346  2.1449  0.0236  4.9953
  147SAPE  C22016161   0.332   1.533   4.256 -0.2533 -0.1236  0.0219
  147SAPE  H20R16162   0.232   1.542   4.303 -0.0189  0.4703  0.4254
  147SAPE  H20S16163   0.347   1.430   4.219  0.5614  0.3519 -1.0176
  147SAPE  H20T16164   0.328   1.589   4.160 -1.4961  0.9538  0.6659
  147SAPE   C3316165   0.927   1.678   6.049  0.6462  0.2489 -0.3267
  147SAPE   H3X16166   0.831   1.721   6.012  0.5055  2.3886  2.2056
  147SAPE   H3Y16167   0.953   1.575   6.019  2.0205  0.5730 -0.3139
  147SAPE   C3416168   1.038   1.774   6.001  0.0254 -0.3777 -0.2247
  147SAPE   H4X16169   1.130   1.714   6.016 -1.1714 -2.1300  0.4262
  147SAPE   H4Y16170   1.059   1.866   6.060  2.7142 -1.3407  0.4475
  147SAPE   C3516171   1.009   1.820   5.853  0.0153 -0.2951  0.0608
  147SAPE   H5X16172   1.084   1.898   5.827 -0.3419  0.2173  0.5467
  147SAPE   H5Y16173   0.906   1.861   5.848  0.3506  0.4700 -0.7441
  147SAPE   C3616174   1.008   1.704   5.754 -0.2605  0.1336 -0.7850
  147SAPE   H6X16175   0.920   1.637   5.765  0.2357 -0.3888  0.0276
  147SAPE   H6Y16176   1.099   1.643   5.767  1.0185  2.1024  0.0044
  147SAPE   C3716177   1.007   1.770   5.621 -0.0419 -0.3110 -0.3271
  147SAPE   H7X16178   1.097   1.834   5.630 -0.4474  0.0657  1.2827
  147SAPE   H7Y16179   0.919   1.838   5.621  0.1040 -0.1246  0.3321
  147SAPE   C3816180   1.005   1.671   5.510  0.4473 -0.4208 -0.2053
  147SAPE   H8X16181   0.903   1.629   5.522  0.2313  0.5962  1.8298
  147SAPE   H8Y16182   1.088   1.598   5.521  1.2350  0.4016 -0.5255
  147SAPE   C3916183   1.022   1.740   5.373 -0.2853 -0.0499 -0.1588
  147SAPE   H9X16184   1.129   1.768   5.368 -0.3088 -0.0027 -0.4661
  147SAPE   H9Y16185   0.964   1.835   5.366 -0.4341  0.0804  2.1848
  147SAPE  C31016186   0.971   1.645   5.267 -0.6223  0.5306  0.7456
  147SAPE  H10X16187   0.872   1.611   5.305 -0.4526 -1.0183 -0.0773
  147SAPE  H10Y16188   1.036   1.555   5.266  1.7727  2.1285 -1.7451
  147SAPE  C31116189   0.973   1.696   5.125 -0.0884  0.1836  0.0702
  147SAPE  H11X16190   0.939   1.801   5.132  2.9606  1.3757 -1.2323
  147SAPE  H11Y16191   0.902   1.637   5.064 -0.6424  1.2863 -0.3759
  147SAPE  C31216192   1.105   1.683   5.056 -0.4624 -0.0559  0.8054
  147SAPE  H12X16193   1.156   1.589   5.086  2.5705  1.2454  0.0717
  147SAPE  H12Y16194   1.176   1.762   5.089 -1.6690  0.4425  2.3278
  147SAPE  C31316195   1.096   1.675   4.899 -0.4659  0.5262 -0.2976
  147SAPE  H13X16196   1.055   1.772   4.864  1.1249  1.0967 -0.6314
  147SAPE  H13Y16197   1.026   1.589   4.887 -0.2474  0.4366 -0.9720
  147SAPE  C31416198   1.225   1.629   4.821  0.1266  0.2288  0.3592
  147SAPE  H14X16199   1.270   1.539   4.868  1.2268  0.4018 -0.3116
  147SAPE  H14Y16200   1.288   1.721   4.827 -1.0380  1.1501 -0.7798
  147SAPE  C31516201   1.203   1.597   4.676  0.6912 -0.1196  0.1315
  147SAPE  H15X16202   1.143   1.683   4.638  0.8799  0.5071  1.2255
  147SAPE  H15Y16203   1.134   1.512   4.659 -1.5681  1.8310 -0.9455
  147SAPE  C31616204   1.322   1.574   4.590 -0.1341  0.4585 -0.2295
  147SAPE  H16X16205   1.409   1.552   4.656 -1.0847 -0.3611  0.7803
  147SAPE  H16Y16206   1.356   1.659   4.527  0.6067 -0.6393 -1.3853
  147SAPE  C31716207   1.303   1.459   4.493  0.7749  0.1568  0.0691
  147SAPE  H17X16208   1.210   1.479   4.436 -0.1656 -1.1009  1.1033
  147SAPE  H17Y16209   1.281   1.359   4.538  0.8576 -0.9206 -2.1585
  147SAPE  C31816210   1.415   1.438   4.394 -0.0046 -0.4347 -0.3711
  147SAPE  H18X16211   1.449   1.531   4.344  2.9219 -1.3729 -0.3451
  147SAPE  H18Y16212   1.377   1.358   4.326 -2.5189  1.5255 -1.4326
  147SAPE  H18Z16213   1.501   1.397   4.451 -0.5330 -0.5354  0.3719
  148SAPE     N16214   5.478   4.287   6.758 -0.0700  0.0106  0.8235
  148SAPE   HN116215   5.439   4.190   6.758  0.4497 -0.2149 -0.4021
  148SAPE   HN216216   5.496   4.297   6.656 -1.3218 -3.2811  0.1385
  148SAPE   HN316217   5.567   4.297   6.811  0.5637  0.0835 -0.2154
  148SAPE   C1216218   5.371   4.389   6.809 -0.2203  0.4328 -0.6275
  148SAPE  H12A16219   5.413   4.491   6.797 -0.3809  0.6262  0.3644
  148SAPE  H12B16220   5.356   4.359   6.915  0.0302  0.5756 -0.5511
  148SAPE   C1116221   5.247   4.366   6.731  0.0345 -0.2276  0.0160
  148SAPE  H11A16222   5.162   4.428   6.769  0.9719  2.0009 -1.3205
  148SAPE  H11B16223   5.219   4.259   6.733  1.4776 -0.6827 -2.1157
  148SAPE     P16224   5.165   4.416   6.488  0.0884  0.2316 -0.3567
  148SAPE   O1316225   5.055   4.319   6.509 -0.2303  0.4416 -0.1850
  148SAPE   O1416226   5.113   4.556   6.489  0.1501  0.3409  0.3717
  148SAPE   O1216227   5.268   4.396   6.598  0.0692 -0.5364 -0.7090
  148SAPE   O1116228   5.248   4.385   6.364  0.1366 -0.0599  0.4677
  148SAPE    C116229   5.382   4.336   6.352  0.7330  0.1525  0.5968
  148SAPE    HA16230   5.468   4.391   6.395  0.8268  0.1301  0.4404
  148SAPE    HB16231   5.378   4.235   6.398 -2.0740  0.4147  1.1252
  148SAPE    C216232   5.420   4.329   6.206  0.7152 -0.5549 -0.2302
  148SAPE    HS16233   5.444   4.435   6.184  0.4486 -0.5878 -0.6889
  148SAPE   O2116234   5.314   4.285   6.122  0.4180 -0.1014  0.2602
  148SAPE   C2116235   5.225   4.372   6.071  0.3467 -0.5934 -0.6250
  148SAPE   O2216236   5.223   4.492   6.097 -0.2983 -0.3666 -0.7844
  148SAPE   C2216237   5.135   4.310   5.961 -0.6409  0.0204 -0.2252
  148SAPE   H2R16238   5.107   4.210   6.000 -0.6694  0.5686  1.2582
  148SAPE   H2S16239   5.037   4.363   5.955 -0.4667  0.6098  1.4842
  148SAPE    C316240   5.554   4.259   6.171  0.7288  0.4809  0.0447
  148SAPE    HX16241   5.544   4.151   6.195  0.7847  0.6615  0.9114
  148SAPE    HY16242   5.626   4.312   6.237 -0.8323  0.0293  2.2274
  148SAPE   O3116243   5.593   4.278   6.036 -0.0604 -0.5248 -0.0273
  148SAPE   C3116244   5.631   4.402   6.007 -0.5681 -0.0283 -0.0309
  148SAPE   O3216245   5.625   4.498   6.081 -0.3236 -0.2918  0.8656
  148SAPE   C3216246   5.662   4.412   5.853  0.2953 -0.9484  0.3639
  148SAPE   H2X16247   5.596   4.336   5.806  0.6888 -0.5308 -0.9112
  148SAPE   H2Y16248   5.766   4.375   5.843  0.1062 -1.8031  1.3378
  148SAPE   C2316249   5.216   4.302   5.830  0.3092 -0.6339 -0.5717
  148SAPE   H3R16250   5.164   4.246   5.750 -0.6015  0.8165 -1.0294
  148SAPE   H3S16251   5.311   4.244   5.837  0.0455 -1.0270 -0.1621
  148SAPE   C2416252   5.263   4.435   5.764  0.6265 -0.7287  0.5246
  148SAPE   H4R16253   5.323   4.414   5.673 -0.7716  0.4966 -0.7253
  148SAPE   H4S16254   5.325   4.486   5.841 -1.3451  2.2436  0.2827
  148SAPE   C2516255   5.149   4.526   5.743 -0.2108 -0.1778 -0.1093
  148SAPE   H5R16256   5.101   4.566   5.834 -0.6150  0.0582 -0.4263
  148SAPE   C2616257   5.105   4.579   5.628  0.4995 -0.6554  0.0984
  148SAPE   H6R16258   5.013   4.640   5.635 -0.5947 -2.2706  0.3792
  148SAPE   C2716259   5.161   4.549   5.493 -0.0132  0.2743 -0.1876
  148SAPE   H7R16260   5.270   4.533   5.505  0.1129  1.6615  0.7181
  148SAPE   H7S16261   5.150   4.629   5.417 -1.1838 -0.1999 -0.5475
  148SAPE   C2816262   5.090   4.420   5.446  0.2508  0.8135  0.3889
  148SAPE   H8R16263   5.097   4.338   5.518 -2.0744  1.1530  1.0733
  148SAPE   C2916264   5.029   4.392   5.333  0.0768 -0.0514  0.0163
  148SAPE   H9R16265   4.972   4.299   5.319  1.6106 -0.8491 -1.4142
  148SAPE  C21016266   5.007   4.484   5.214 -0.0422  0.0075  0.2998
  148SAPE  H10R16267   5.022   4.588   5.248 -0.9493 -0.5438  2.5755
  148SAPE  H10S16268   4.898   4.465   5.197  0.6554 -3.7717 -0.7385
  148SAPE  C21116269   5.101   4.454   5.107  0.4170  0.2114 -0.6145
  148SAPE  H11R16270   5.204   4.489   5.124  0.8482 -1.2550 -0.0168
  148SAPE  C21216271   5.067   4.405   4.988 -0.7024 -0.0686  0.3510
  148SAPE  H12R16272   5.151   4.378   4.923 -0.4964 -0.1666  0.6596
  148SAPE  C21316273   4.932   4.368   4.929  1.1821 -0.0634 -0.9724
  148SAPE  H13R16274   4.850   4.384   5.003 -2.2574 -3.3089 -3.6868
  148SAPE  H13S16275   4.932   4.257   4.923 -0.1001 -0.0445 -1.6788
  148SAPE  C21416276   4.901   4.421   4.792  0.3792  0.2965 -1.2984
  148SAPE  H14R16277   4.910   4.530   4.780  2.7148  0.6231  2.2254
  148SAPE  C21516278   4.880   4.347   4.679  0.6780 -0.0897  0.2399
  148SAPE  H15R16279   4.861   4.402   4.585 -0.6748  1.6713  1.4790
  148SAPE  C21616280   4.870   4.197   4.673 -0.7043 -0.8306 -0.1225
  148SAPE  H16R16281   4.782   4.167   4.734 -0.3367  0.9398  1.3451
  148SAPE  H16S16282   4.953   4.157   4.734 -1.2609 -3.3892 -0.9201
  148SAPE  C21716283   4.871   4.147   4.532 -0.2030 -0.2802  0.7535
  148SAPE  H17R16284   4.860   4.037   4.544  2.5728 -0.8081 -0.8269
  148SAPE  H17S16285   4.974   4.162   4.495 -0.5719  0.6998  0.0892
  148SAPE  C21816286   4.748   4.200   4.442 -0.3697 -0.2354 -0.5004
  148SAPE  H18R16287   4.750   4.307   4.415 -0.3786 -0.5399 -1.7854
  148SAPE  H18S16288   4.658   4.194   4.506 -0.3615  1.7447 -0.2432
  148SAPE  C21916289   4.727   4.116   4.323 -0.1181  0.7024 -0.5597
  148SAPE  H19R16290   4.622   4.142   4.300 -0.2832  2.1719  1.5717
  148SAPE  H19S16291   4.740   4.009   4.349  2.6900  1.0708 -0.1060
  148SAPE  C22016292   4.825   4.145   4.206 -1.1445 -1.1245 -0.2423
  148SAPE  H20R16293   4.804   4.246   4.165  0.3484 -1.5122 -2.1054
  148SAPE  H20S16294   4.829   4.058   4.137 -1.0229 -0.8993 -0.5187
  148SAPE  H20T16295   4.932   4.147   4.236 -1.1482  1.3306 -0.2168
  148SAPE   C3316296   5.636   4.559   5.809  0.3200 -0.2603 -0.0144
  148SAPE   H3X16297   5.718   4.626   5.844  0.0693 -0.4280  0.9083
  148SAPE   H3Y16298   5.543   4.594   5.858 -0.5080 -1.9986 -0.2821
  148SAPE   C3416299   5.617   4.578   5.657 -0.6079 -0.0675 -0.1447
  148SAPE   H4X16300   5.540   4.505   5.623 -0.0088  0.2271 -2.2630
  148SAPE   H4Y16301   5.710   4.546   5.606  0.2172  0.1814  1.1503
  148SAPE   C3516302   5.576   4.714   5.606 -0.2960 -0.4015  0.1391
  148SAPE   H5X16303   5.634   4.798   5.651 -0.5082 -0.3886  0.3902
  148SAPE   H5Y16304   5.467   4.725   5.623 -0.2511 -1.0874  0.9511
  148SAPE   C3616305   5.606   4.731   5.453  0.1540  0.4678  0.5342
  148SAPE   H6X16306   5.714   4.755   5.442  0.3677 -0.2329  1.0712
  148SAPE   H6Y16307   5.550   4.817   5.411 -1.9636 -1.1051 -0.0367
  148SAPE   C3716308   5.558   4.611   5.370 -1.0457 -0.0850 -0.1028
  148SAPE   H7X16309   5.453   4.581   5.392 -0.5978 -1.6652  0.0177
  148SAPE   H7Y16310   5.613   4.516   5.387  0.2156  0.4196 -1.1941
  148SAPE   C3816311   5.569   4.641   5.219 -0.3373 -0.4178 -0.3528
  148SAPE   H8X16312   5.670   4.660   5.179 -1.3735 -1.1803 -3.6772
  148SAPE   H8Y16313   5.513   4.731   5.186  2.4259  1.0596 -1.2879
  148SAPE   C3916314   5.517   4.529   5.129  0.3669 -0.4871 -0.4743
  148SAPE   H9X16315   5.409   4.526   5.155  0.8383 -0.8321  1.6160
  148SAPE   H9Y16316   5.553   4.424   5.142  1.0182 -0.3855 -1.3984
  148SAPE  C31016317   5.521   4.561   4.981  0.1197  0.3008  0.1998
  148SAPE  H10X16318   5.479   4.663   4.969  1.1746  1.0115  2.1351
  148SAPE  H10Y16319   5.455   4.493   4.925  0.9163 -0.4045  0.0968
  148SAPE  C31116320   5.651   4.539   4.916  0.1038 -0.5970  0.0925
  148SAPE  H11X16321   5.696   4.445   4.953 -1.3134 -1.0233  0.8163
  148SAPE  H11Y16322   5.725   4.617   4.947 -0.6400  1.0412 -1.9903
  148SAPE  C31216323   5.648   4.525   4.766  0.1877  0.3773  0.4331
  148SAPE  H12X16324   5.590   4.611   4.726  0.5345  1.0312  1.2915
  148SAPE  H12Y16325   5.584   4.440   4.737 -0.0761  0.4727  0.7256
  148SAPE  C31316326   5.787   4.503   4.702  0.5002 -0.1879  0.6095
  148SAPE  H13X16327   5.827   4.406   4.739  1.4680 -0.3885 -0.8800
  148SAPE  H13Y16328   5.856   4.585   4.733 -0.1018  0.4365  0.3090
  148SAPE  C31416329   5.782   4.485   4.547  0.2272 -0.0171 -0.5736
  148SAPE  H14X16330   5.731   4.390   4.522 -0.7740  0.8569 -2.0518
  148SAPE  H14Y16331   5.888   4.474   4.515 -0.1980  0.0547 -2.0818
  148SAPE  C31516332   5.716   4.599   4.464  0.2986  0.1723 -0.0078
  148SAPE  H15X16333   5.760   4.695   4.498  1.5477 -0.8957  1.5172
  148SAPE  H15Y16334   5.614   4.609   4.506  0.0577  1.0066 -0.7448
  148SAPE  C31616335   5.710   4.577   4.311 -0.4898 -0.5223  0.4326
  148SAPE  H16X16336   5.791   4.506   4.285  0.8313  1.1915 -0.2954
  148SAPE  H16Y16337   5.727   4.674   4.261 -0.6490 -0.7655 -0.1062
  148SAPE  C31716338   5.583   4.504   4.276 -0.5487 -0.2413 -0.1619
  148SAPE  H17X16339   5.506   4.584   4.278  0.1946  0.4691  0.5875
  148SAPE  H17Y16340   5.557   4.435   4.359  0.5892  0.0606  0.4689
  148SAPE  C31816341   5.576   4.441   4.136  0.0018  0.0176 -0.0018
  148SAPE  H18X16342   5.652   4.361   4.137  0.0880  0.1026  0.8080
  148SAPE  H18Y16343   5.595   4.516   4.056 -1.1551 -0.2506 -0.5641
  148SAPE  H18Z16344   5.475   4.397   4.119  0.0631  0.3356 -1.3345
  149SAPE     N16345   5.226   1.383   6.543 -0.0165  0.4621  0.2688
  149SAPE   HN116346   5.251   1.476   6.581  0.8641  0.1564  0.4654
  149SAPE   HN216347   5.315   1.330   6.535 -0.7967 -0.8783  0.1513
  149SAPE   HN316348   5.195   1.393   6.444 -0.2302 -0.9375  0.1675
  149SAPE   C1216349   5.136   1.305   6.635  0.0391 -0.7940  0.6052
  149SAPE  H12A16350   5.048   1.372   6.648  0.0409  0.2504 -3.4130
  149SAPE  H12B16351   5.182   1.296   6.735 -1.2325 -0.6815  1.2142
  149SAPE   C1116352   5.098   1.170   6.578 -0.0414  0.1038  0.1476
  149SAPE  H11A16353   5.061   1.175   6.473  2.8371 -0.3453 -0.9840
  149SAPE  H11B16354   5.014   1.128   6.637 -0.7370 -1.1224 -1.6487
  149SAPE     P16355   5.221   0.930   6.571 -0.1828  0.1582 -0.1054
  149SAPE   O1316356   5.360   0.885   6.542 -0.1266 -0.9071  0.0428
  149SAPE   O1416357   5.166   0.879   6.694 -0.0107  0.3772 -0.4050
  149SAPE   O1216358   5.220   1.088   6.568  0.0039 -0.3416 -0.2720
  149SAPE   O1116359   5.123   0.903   6.450 -0.1462  1.0573  0.7603
  149SAPE    C116360   5.166   0.942   6.316 -0.0905 -0.5010  0.1099
  149SAPE    HA16361   5.107   1.020   6.263 -0.6640 -2.6025 -2.5424
  149SAPE    HB16362   5.270   0.980   6.309  0.0218 -0.7309  0.5263
  149SAPE    C216363   5.161   0.812   6.215 -0.3957  0.8962  0.3007
  149SAPE    HS16364   5.229   0.735   6.258 -0.6473 -0.1366 -1.0773
  149SAPE   O2116365   5.192   0.830   6.071 -0.0553 -0.5223  0.0309
  149SAPE   C2116366   5.311   0.871   6.044  0.1206  0.1450  0.0259
  149SAPE   O2216367   5.392   0.926   6.116  0.6041  0.4852 -0.0270
  149SAPE   C2216368   5.338   0.851   5.895  0.9190 -0.3825  0.2563
  149SAPE   H2R16369   5.289   0.756   5.866 -2.5873  1.3915 -0.0998
  149SAPE   H2S16370   5.289   0.929   5.833  2.4046 -1.6037 -2.6938
  149SAPE    C316371   5.018   0.730   6.210 -0.2101 -0.8201 -0.0928
  149SAPE    HX16372   4.934   0.797   6.181  0.9703  1.5154  1.5374
  149SAPE    HY16373   5.005   0.701   6.317  0.7048 -1.0903 -0.0471
  149SAPE   O3116374   5.033   0.615   6.121 -0.3403 -0.6374 -0.4532
  149SAPE   C3116375   4.954   0.513   6.147 -0.3115  0.3507  0.0631
  149SAPE   O3216376   4.882   0.503   6.245 -0.5789 -0.4854 -0.1631
  149SAPE   C3216377   4.984   0.407   6.047 -0.2491 -0.2909  0.2525
  149SAPE   H2X16378   5.084   0.361   6.061 -0.3897 -1.4196 -1.9680
  149SAPE   H2Y16379   4.983   0.456   5.947  2.2913 -0.0219  0.2904
  149SAPE   C2316380   5.487   0.836   5.853 -0.0043  0.2143  0.1142
  149SAPE   H3R16381   5.539   0.762   5.917 -0.0986  0.4293  0.4412
  149SAPE   H3S16382   5.546   0.930   5.853 -0.0631  0.3083 -2.0032
  149SAPE   C2416383   5.500   0.784   5.710  0.1366  0.7020 -0.0645
  149SAPE   H4R16384   5.438   0.692   5.710  1.3523 -0.1463 -1.4158
  149SAPE   H4S16385   5.603   0.743   5.703 -0.4312 -1.0207  1.1415
  149SAPE   C2516386   5.465   0.874   5.594 -0.6904 -0.2473 -0.0937
  149SAPE   H5R16387   5.383   0.943   5.620 -0.1838  1.0850 -1.8326
  149SAPE   C2616388   5.501   0.852   5.466 -0.1857  0.0742  0.2888
  149SAPE   H6R16389   5.468   0.926   5.391  1.7465 -0.0752 -0.7861
  149SAPE   C2716390   5.598   0.742   5.423  0.1143  0.5631 -0.3305
  149SAPE   H7R16391   5.548   0.676   5.349 -1.5948 -0.1469  1.3697
  149SAPE   H7S16392   5.619   0.666   5.501 -0.9566 -0.8130 -1.3378
  149SAPE   C2816393   5.731   0.796   5.380 -0.4668  0.4215 -0.4807
  149SAPE   H8R16394   5.771   0.863   5.457 -2.7829 -0.5286  1.6749
  149SAPE   C2916395   5.819   0.742   5.294  0.1817  0.2292 -0.0724
  149SAPE   H9R16396   5.912   0.796   5.273  1.5924 -1.4843  1.4862
  149SAPE  C21016397   5.787   0.630   5.194  0.0336  0.0777  0.2847
  149SAPE  H10R16398   5.705   0.668   5.129 -0.6761  0.0260  1.1399
  149SAPE  H10S16399   5.743   0.545   5.250 -0.6389 -0.0749 -0.4529
  149SAPE  C21116400   5.910   0.576   5.123 -0.3655  0.0720  0.1512
  149SAPE  H11R16401   5.981   0.520   5.185 -0.4805 -0.8279 -0.5065
  149SAPE  C21216402   5.921   0.551   4.996  0.1888  0.0897 -1.0467
  149SAPE  H12R16403   6.025   0.525   4.969  1.6254 -2.6574  5.3651
  149SAPE  C21316404   5.828   0.580   4.885 -0.2899  0.8097 -0.2959
  149SAPE  H13R16405   5.814   0.690   4.875  1.6259  0.9235 -2.9317
  149SAPE  H13S16406   5.733   0.538   4.925  1.4292 -2.7141  0.4773
  149SAPE  C21416407   5.852   0.512   4.752 -0.1602 -0.2972 -0.1661
  149SAPE  H14R16408   5.884   0.407   4.757  0.9797 -0.1724 -2.8199
  149SAPE  C21516409   5.876   0.569   4.631 -0.1441  0.3515  0.1533
  149SAPE  H15R16410   5.897   0.493   4.554 -0.8549  0.3413 -0.0389
  149SAPE  C21616411   5.889   0.718   4.597 -0.4099  0.5584  0.1713
  149SAPE  H16R16412   5.829   0.779   4.668 -0.4529 -1.5443  2.0454
  149SAPE  H16S16413   5.845   0.729   4.495  0.5205 -1.5827 -0.5239
  149SAPE  C21716414   6.030   0.767   4.583  0.4032 -0.0486  0.7150
  149SAPE  H17R16415   6.064   0.759   4.689  1.2744 -2.9655  0.3128
  149SAPE  H17S16416   6.040   0.872   4.547 -0.2198 -0.0054  0.6513
  149SAPE  C21816417   6.127   0.685   4.495  0.1170  0.2453  0.0920
  149SAPE  H18R16418   6.141   0.578   4.523  2.9018  0.5451  0.0883
  149SAPE  H18S16419   6.219   0.743   4.516  0.8697 -0.7432 -0.4077
  149SAPE  C21916420   6.102   0.695   4.344 -0.4449  0.3388  0.4800
  149SAPE  H19R16421   6.098   0.801   4.310  1.4574  0.2666 -0.0610
  149SAPE  H19S16422   6.001   0.650   4.335  0.2474 -0.9640 -1.4130
  149SAPE  C22016423   6.204   0.618   4.268  0.2778  0.3384 -0.4852
  149SAPE  H20R16424   6.302   0.671   4.273  0.4025  0.7727 -4.4847
  149SAPE  H20S16425   6.177   0.619   4.160 -1.7066  1.4349 -0.0332
  149SAPE  H20T16426   6.218   0.513   4.299 -0.5410  0.7135  1.2764
  149SAPE   C3316427   4.880   0.294   6.028 -0.6819  0.5715 -0.8976
  149SAPE   H3X16428   4.784   0.327   5.984 -1.2648 -0.6102 -0.5775
  149SAPE   H3Y16429   4.857   0.251   6.128 -0.2018 -1.3481 -1.5660
  149SAPE   C3416430   4.936   0.175   5.949  0.0920 -0.1226  0.1741
  149SAPE   H4X16431   4.857   0.097   5.947 -1.8626  1.6783  2.3259
  149SAPE   H4Y16432   5.028   0.140   6.002 -1.0596 -0.0080  2.3696
  149SAPE   C3516433   4.959   0.215   5.804 -0.5036 -0.4040 -0.1086
  149SAPE   H5X16434   5.035   0.293   5.784 -1.9659  0.6936 -1.6838
  149SAPE   H5Y16435   4.870   0.270   5.766  0.9629  0.5034 -2.4373
  149SAPE   C3616436   4.994   0.101   5.709  0.0721  0.4688  0.1109
  149SAPE   H6X16437   4.915   0.024   5.706 -0.3791  0.9436 -0.9856
  149SAPE   H6Y16438   5.087   0.050   5.744 -2.4532 -3.0558  2.2689
  149SAPE   C3716439   5.013   0.150   5.569  0.2810 -0.1326 -0.6774
  149SAPE   H7X16440   5.064   0.065   5.519  1.2733 -0.2328  0.4640
  149SAPE   H7Y16441   5.082   0.238   5.570 -2.9803  2.6644  0.7553
  149SAPE   C3816442   4.882   0.188   5.498 -0.4863  0.0768  0.1009
  149SAPE   H8X16443   4.832   0.268   5.557 -1.2353  0.6927 -1.3277
  149SAPE   H8Y16444   4.822   0.095   5.493  1.4432 -1.1700 -1.4537
  149SAPE   C3916445   4.905   0.243   5.353 -0.0926 -0.6080  0.3942
  149SAPE   H9X16446   4.980   0.324   5.362 -0.8005  0.0917  0.1329
  149SAPE   H9Y16447   4.814   0.294   5.315  0.1203  0.0206  0.7245
  149SAPE  C31016448   4.938   0.128   5.267 -0.0859 -0.3801 -0.3526
  149SAPE  H10X16449   4.847   0.065   5.258 -0.7882  0.4831  0.5112
  149SAPE  H10Y16450   5.013   0.069   5.323  0.1828  2.0255  1.9939
  149SAPE  C31116451   4.986   0.185   5.131  0.3923 -0.4377 -0.2774
  149SAPE  H11X16452   5.091   0.156   5.109 -0.3922 -1.8105 -2.7014
  149SAPE  H11Y16453   4.990   0.295   5.138  3.4065 -0.5934  2.1413
  149SAPE  C31216454   4.895   0.154   5.007  0.1732 -0.1656 -0.5188
  149SAPE  H12X16455   4.803   0.212   5.026  0.9564  0.0833  3.2605
  149SAPE  H12Y16456   4.872   0.046   5.013 -1.0203 -0.0491 -2.1430
  149SAPE  C31316457   4.945   0.195   4.876 -0.0813  0.0144  0.3479
  149SAPE  H13X16458   5.034   0.136   4.844  0.2448 -0.2506  1.6730
  149SAPE  H13Y16459   4.964   0.305   4.884  3.6434 -0.4185 -0.6871
  149SAPE  C31416460   4.841   0.175   4.759  0.7051  0.1694  0.7633
  149SAPE  H14X16461   4.748   0.231   4.783  0.3286 -0.2421  0.2905
  149SAPE  H14Y16462   4.812   0.068   4.749  0.3053  0.3619 -0.2255
  149SAPE  C31516463   4.890   0.219   4.619 -0.1557 -0.0409  0.2392
  149SAPE  H15X16464   4.998   0.199   4.633 -0.2772 -0.4055  0.6920
  149SAPE  H15Y16465   4.867   0.328   4.613 -0.8630 -0.2210 -0.4464
  149SAPE  C31616466   4.825   0.149   4.502 -0.4480 -0.2956  0.3114
  149SAPE  H16X16467   4.839   0.042   4.526  0.1182 -0.1839  0.4953
  149SAPE  H16Y16468   4.898   0.178   4.423  0.6454 -2.6929  0.3735
  149SAPE  C31716469   4.679   0.180   4.480 -0.1127  0.0583  0.0646
  149SAPE  H17X16470   4.666   0.288   4.457 -0.9199  0.1221  0.7572
  149SAPE  H17Y16471   4.615   0.142   4.563  0.6436 -0.9284  0.2129
  149SAPE  C31816472   4.626   0.102   4.358 -0.1489 -0.2482  0.3006
  149SAPE  H18X16473   4.517   0.119   4.349 -0.1378  0.6628  1.6478
  149SAPE  H18Y16474   4.648  -0.007   4.356 -0.3414 -0.2908  0.4908
  149SAPE  H18Z16475   4.672   0.151   4.269 -0.1793 -0.6004  0.0865
  150SAPE     N16476   1.076   5.494   7.031  0.0488 -0.1284 -0.1341
  150SAPE   HN116477   1.167   5.541   7.046 -0.5488  1.2647 -0.7214
  150SAPE   HN216478   1.001   5.566   7.026 -1.4599 -1.2013  3.4495
  150SAPE   HN316479   1.040   5.430   7.106 -2.2472 -1.6785 -2.3880
  150SAPE   C1216480   1.077   5.429   6.899 -0.5709 -1.0200 -0.0664
  150SAPE  H12A16481   0.984   5.368   6.896 -0.2383 -1.5167 -0.2772
  150SAPE  H12B16482   1.172   5.372   6.896  0.1361  0.1595 -0.9925
  150SAPE   C1116483   1.083   5.536   6.792 -0.4953  0.5642 -0.0077
  150SAPE  H11A16484   1.067   5.483   6.696  1.5101 -2.7470  1.3085
  150SAPE  H11B16485   1.187   5.575   6.783  0.1258 -1.3062 -1.6360
  150SAPE     P16486   0.839   5.624   6.741  0.3252  0.1272 -0.1942
  150SAPE   O1316487   0.791   5.490   6.793  0.3531  0.2638 -0.0275
  150SAPE   O1416488   0.753   5.743   6.780 -0.3635 -0.6254 -0.1611
  150SAPE   O1216489   0.987   5.642   6.810 -0.0917 -0.4673  0.4435
  150SAPE   O1116490   0.864   5.633   6.585 -0.8371  0.1037 -0.2287
  150SAPE    C116491   0.921   5.746   6.523  0.2290  0.5148  0.1691
  150SAPE    HA16492   0.847   5.829   6.530  1.3413  1.3836  3.5638
  150SAPE    HB16493   1.010   5.786   6.575 -1.2322  1.7362  1.8515
  150SAPE    C216494   0.952   5.719   6.379  0.3429  0.0762  1.1813
  150SAPE    HS16495   0.982   5.820   6.342 -0.1073 -0.4130 -0.6581
  150SAPE   O2116496   0.831   5.676   6.315  0.0810 -0.4716  0.1439
  150SAPE   C2116497   0.751   5.780   6.280  0.9622  0.6206 -0.3115
  150SAPE   O2216498   0.763   5.895   6.311  0.1267 -0.5436  0.1007
  150SAPE   C2216499   0.636   5.724   6.192 -0.2512  0.4486 -0.4041
  150SAPE   H2R16500   0.658   5.616   6.182  0.0622  0.0923  3.0463
  150SAPE   H2S16501   0.541   5.730   6.249  0.1454 -0.1990  0.3436
  150SAPE    C316502   1.070   5.621   6.345 -0.0247  0.3827 -0.1838
  150SAPE    HX16503   1.043   5.531   6.403  0.9463 -0.3384 -0.8140
  150SAPE    HY16504   1.157   5.671   6.393  0.1754  0.2536 -0.4096
  150SAPE   O3116505   1.120   5.592   6.212  0.0439 -0.1515  0.3141
  150SAPE   C3116506   1.204   5.498   6.200  0.0673 -0.3219  0.2923
  150SAPE   O3216507   1.262   5.444   6.290 -0.5108  0.0733 -0.0731
  150SAPE   C3216508   1.221   5.459   6.056  0.1725 -0.4787  0.6582
  150SAPE   H2X16509   1.277   5.538   6.000  0.2702 -1.6202 -0.9098
  150SAPE   H2Y16510   1.123   5.440   6.008  0.0166 -1.4968  1.3726
  150SAPE   C2316511   0.630   5.809   6.063 -0.5404 -0.0020  0.7375
  150SAPE   H3R16512   0.620   5.918   6.082 -0.7696 -0.0074  0.6564
  150SAPE   H3S16513   0.538   5.784   6.006  1.3479 -1.6615 -1.8226
  150SAPE   C2416514   0.747   5.781   5.965  0.0062 -0.0614 -0.1190
  150SAPE   H4R16515   0.746   5.670   5.958  1.2691 -0.3468  2.6264
  150SAPE   H4S16516   0.840   5.795   6.025 -0.8210 -3.2529  2.1814
  150SAPE   C2516517   0.738   5.874   5.845 -0.6792  0.6193  0.3118
  150SAPE   H5R16518   0.745   5.981   5.866  0.9285  0.5168  0.4585
  150SAPE   C2616519   0.732   5.827   5.721  0.0941 -0.9012  0.1086
  150SAPE   H6R16520   0.704   5.898   5.642 -1.2750 -1.4384  0.0910
  150SAPE   C2716521   0.729   5.681   5.684 -0.4345  0.3188  0.7169
  150SAPE   H7R16522   0.657   5.678   5.600 -0.0651 -0.9071  0.4215
  150SAPE   H7S16523   0.685   5.623   5.768 -1.7415 -0.1002 -0.2345
  150SAPE   C2816524   0.873   5.636   5.649  0.0059  0.3173  0.1080
  150SAPE   H8R16525   0.942   5.602   5.728  2.2570  1.2340 -1.3636
  150SAPE   C2916526   0.907   5.596   5.522 -0.1844 -0.9545 -0.5025
  150SAPE   H9R16527   1.009   5.558   5.508  2.0759  3.0652  2.7641
  150SAPE  C21016528   0.833   5.623   5.389  0.1469  0.0792 -0.4442
  150SAPE  H10R16529   0.830   5.734   5.380  1.2042  0.5143  2.8493
  150SAPE  H10S16530   0.732   5.582   5.405  1.6051 -2.8151  2.6395
  150SAPE  C21116531   0.914   5.564   5.276 -0.4275  0.6012  0.6706
  150SAPE  H11R16532   0.967   5.632   5.208 -1.2615 -0.4360 -1.0696
  150SAPE  C21216533   0.922   5.433   5.248  0.3340  0.1984  0.0943
  150SAPE  H12R16534   0.972   5.401   5.155 -0.4456 -0.9076  0.0421
  150SAPE  C21316535   0.840   5.332   5.321 -0.0603 -0.2247  0.4145
  150SAPE  H13R16536   0.739   5.332   5.274 -0.1257 -0.3686  0.5539
  150SAPE  H13S16537   0.818   5.350   5.428 -0.1686  1.6560  0.1042
  150SAPE  C21416538   0.901   5.190   5.314 -0.8973 -0.7225 -0.0722
  150SAPE  H14R16539   0.978   5.169   5.389  0.4057  0.4635 -1.0212
  150SAPE  C21516540   0.865   5.104   5.224  0.3256  0.5653 -0.5147
  150SAPE  H15R16541   0.923   5.011   5.212 -1.9665 -1.1442  0.8423
  150SAPE  C21616542   0.776   5.126   5.107 -1.0320  0.8688 -0.1763
  150SAPE  H16R16543   0.756   5.234   5.094  0.6549  1.5612  2.2399
  150SAPE  H16S16544   0.679   5.073   5.116 -0.5145 -0.1486 -0.4114
  150SAPE  C21716545   0.845   5.075   4.983  0.5903 -0.4849  0.1278
  150SAPE  H17R16546   0.889   4.974   4.998 -0.3312 -0.8712  0.2859
  150SAPE  H17S16547   0.930   5.145   4.966  0.3798  0.3587  2.2067
  150SAPE  C21816548   0.759   5.076   4.856  0.0667  0.0095 -0.3711
  150SAPE  H18R16549   0.655   5.038   4.866  0.1280  0.2443  1.3984
  150SAPE  H18S16550   0.811   5.021   4.775  0.1281  0.0661 -0.3698
  150SAPE  C21916551   0.736   5.223   4.810  0.1951 -0.0835 -0.1264
  150SAPE  H19R16552   0.680   5.288   4.880  0.2337 -0.8650  0.6467
  150SAPE  H19S16553   0.687   5.215   4.710 -2.2866  2.3712  0.7828
  150SAPE  C22016554   0.865   5.298   4.760 -0.0754  0.2134  0.1024
  150SAPE  H20R16555   0.839   5.381   4.692  2.7833 -0.9588 -2.6764
  150SAPE  H20S16556   0.923   5.223   4.701 -1.3943 -1.6197  1.0559
  150SAPE  H20T16557   0.915   5.341   4.850 -1.8395 -3.7520  3.3119
  150SAPE   C3316558   1.307   5.329   6.042  0.1520 -0.3641  0.4027
  150SAPE   H3X16559   1.270   5.244   6.104  4.6427 -2.4829  0.5882
  150SAPE   H3Y16560   1.414   5.339   6.071  0.9794  0.2459 -2.5136
  150SAPE   C3416561   1.301   5.282   5.892 -0.4399 -0.1324 -0.8486
  150SAPE   H4X16562   1.194   5.257   5.876  0.2300 -2.2459 -2.4430
  150SAPE   H4Y16563   1.355   5.185   5.887  0.5359  0.3652 -0.3803
  150SAPE   C3516564   1.360   5.377   5.776 -0.7556 -0.4691  0.3700
  150SAPE   H5X16565   1.471   5.387   5.787 -0.3672 -2.3028 -1.3037
  150SAPE   H5Y16566   1.321   5.479   5.795 -1.1495 -0.1394 -1.9172
  150SAPE   C3616567   1.333   5.332   5.631 -0.1955 -0.1098  0.3095
  150SAPE   H6X16568   1.230   5.290   5.626  0.5549 -1.8799 -2.1983
  150SAPE   H6Y16569   1.402   5.257   5.589 -2.5391 -0.8402 -2.5391
  150SAPE   C3716570   1.352   5.442   5.526 -0.1539  0.0358  0.6004
  150SAPE   H7X16571   1.463   5.451   5.526  0.0009 -1.4344 -0.8590
  150SAPE   H7Y16572   1.323   5.540   5.570 -1.6873  0.4700 -1.2447
  150SAPE   C3816573   1.283   5.403   5.394  0.5074  0.6737  0.1832
  150SAPE   H8X16574   1.302   5.491   5.328  0.9590  0.8070  0.4823
  150SAPE   H8Y16575   1.174   5.413   5.409  0.4037  2.3396 -1.3474
  150SAPE   C3916576   1.338   5.281   5.330 -1.1457  0.3670  0.3462
  150SAPE   H9X16577   1.333   5.192   5.396 -1.4514  1.0481  1.2563
  150SAPE   H9Y16578   1.447   5.297   5.321 -0.9601 -0.5606  0.7900
  150SAPE  C31016579   1.266   5.247   5.196 -0.2571  0.3423  0.3098
  150SAPE  H10X16580   1.159   5.241   5.225 -0.3005 -2.6518 -0.1135
  150SAPE  H10Y16581   1.283   5.143   5.162 -0.0163 -0.1704  1.8730
  150SAPE  C31116582   1.290   5.337   5.080  0.0153 -0.2267 -0.9394
  150SAPE  H11X16583   1.396   5.370   5.087  0.3383 -1.2090 -1.0328
  150SAPE  H11Y16584   1.215   5.418   5.087  0.9545  0.5213  2.6323
  150SAPE  C31216585   1.286   5.285   4.943  0.5044  0.2039  0.3979
  150SAPE  H12X16586   1.201   5.213   4.943  1.4150 -1.0679  3.8200
  150SAPE  H12Y16587   1.384   5.241   4.918  0.4271  1.5647 -2.6733
  150SAPE  C31316588   1.245   5.393   4.836  0.0526  0.2310  0.1438
  150SAPE  H13X16589   1.307   5.483   4.854 -1.2196  1.1821 -0.0869
  150SAPE  H13Y16590   1.143   5.429   4.859  0.1199  0.5574 -0.0666
  150SAPE  C31416591   1.261   5.335   4.690 -0.0826 -0.8469 -0.6880
  150SAPE  H14X16592   1.202   5.242   4.676  0.4771 -1.0852 -1.5440
  150SAPE  H14Y16593   1.366   5.313   4.659  1.2167  1.2873  1.8629
  150SAPE  C31516594   1.211   5.436   4.573 -0.2267  0.3295  0.3068
  150SAPE  H15X16595   1.273   5.526   4.592  1.1396  0.0070 -2.1656
  150SAPE  H15Y16596   1.102   5.452   4.585  0.0046  0.4031  3.2100
  150SAPE  C31616597   1.258   5.371   4.442 -0.3423 -0.1562 -0.0060
  150SAPE  H16X16598   1.261   5.261   4.454 -0.7807 -0.0734  0.9174
  150SAPE  H16Y16599   1.362   5.399   4.414 -0.0450 -2.9488 -2.0542
  150SAPE  C31716600   1.166   5.405   4.327 -0.0620 -0.0675  0.3504
  150SAPE  H17X16601   1.182   5.513   4.304  2.0698 -0.2622  0.6428
  150SAPE  H17Y16602   1.067   5.375   4.366  0.8682 -1.3708  1.8391
  150SAPE  C31816603   1.198   5.328   4.198 -0.5600  0.2258 -0.1240
  150SAPE  H18X16604   1.120   5.312   4.120  2.5362 -2.7731 -2.9459
  150SAPE  H18Y16605   1.224   5.226   4.230 -1.3287 -0.1567 -0.6809
  150SAPE  H18Z16606   1.284   5.371   4.141 -1.8885  1.1539 -1.5179
  151SAPE     N16607   1.007   6.278   6.463  0.3730  0.2349  0.2739
  151SAPE   HN116608   1.085   6.230   6.512 -1.3926  0.0903  3.1202
  151SAPE   HN216609   1.035   6.357   6.402  1.0388  0.1220  0.4293
  151SAPE   HN316610   0.952   6.327   6.536 -2.1767  0.3130 -1.5402
  151SAPE   C1216611   0.926   6.185   6.370  0.0298 -0.2194 -0.5465
  151SAPE  H12A16612   0.857   6.242   6.304 -0.9960 -0.3034  0.4121
  151SAPE  H12B16613   0.865   6.129   6.444  0.8200 -0.0422  0.2465
  151SAPE   C1116614   1.028   6.106   6.287 -0.2174  0.5538 -0.5249
  151SAPE  H11A16615   1.093   6.176   6.231 -0.2103  0.4259 -0.6772
  151SAPE  H11B16616   0.974   6.050   6.207 -0.3467  0.2614 -0.2356
  151SAPE     P16617   1.253   6.009   6.373 -0.0818 -0.2722  0.0355
  151SAPE   O1316618   1.315   6.134   6.412 -0.2753 -0.0220  0.3607
  151SAPE   O1416619   1.303   5.882   6.434  0.2550  0.5003 -0.0389
  151SAPE   O1216620   1.100   6.018   6.375  0.3020 -0.7760 -0.8970
  151SAPE   O1116621   1.272   5.990   6.219 -0.4346 -0.2740 -0.1498
  151SAPE    C116622   1.284   5.866   6.149  0.4184  1.1193  0.2599
  151SAPE    HA16623   1.387   5.836   6.175  0.0673 -0.5711 -0.1557
  151SAPE    HB16624   1.206   5.791   6.177  0.4513  1.5078  1.4410
  151SAPE    C216625   1.281   5.890   5.997  1.2862  0.1388  0.2779
  151SAPE    HS16626   1.357   5.831   5.941 -0.9917 -2.3404 -0.4283
  151SAPE   O2116627   1.301   6.025   5.963 -0.0392  0.6508  0.4101
  151SAPE   C2116628   1.418   6.078   5.997  0.1911 -0.3108 -0.4233
  151SAPE   O2216629   1.522   6.015   6.020 -0.2603 -0.2601  0.4519
  151SAPE   C2216630   1.393   6.219   6.030  0.8500 -0.3115  0.3257
  151SAPE   H2R16631   1.363   6.276   5.939 -0.6425 -1.1012  0.2928
  151SAPE   H2S16632   1.321   6.228   6.113  1.4256 -2.8568  1.1880
  151SAPE    C316633   1.135   5.860   5.932  0.3907  0.2295  0.6888
  151SAPE    HX16634   1.064   5.921   5.991  1.9024  3.0333 -0.2160
  151SAPE    HY16635   1.113   5.752   5.942 -1.4869  0.7159  2.4364
  151SAPE   O3116636   1.126   5.908   5.797 -0.3007  0.1030  0.4829
  151SAPE   C3116637   1.197   5.842   5.713  0.5721 -0.5984  0.4681
  151SAPE   O3216638   1.259   5.740   5.734  0.2431  0.0454 -0.2168
  151SAPE   C3216639   1.195   5.904   5.574 -0.5759 -0.2930  1.5677
  151SAPE   H2X16640   1.242   6.005   5.578 -0.9225 -0.0888  0.7847
  151SAPE   H2Y16641   1.088   5.906   5.542  0.2526 -2.3406 -1.8740
  151SAPE   C2316642   1.518   6.290   6.088  0.2924  0.1421 -0.4938
  151SAPE   H3R16643   1.586   6.243   6.163 -2.0683 -2.7458  0.0594
  151SAPE   H3S16644   1.476   6.371   6.151  0.8553 -2.1533  3.1359
  151SAPE   C2416645   1.603   6.357   5.976  0.0482  0.1339 -0.1475
  151SAPE   H4R16646   1.671   6.433   6.019  1.4987 -0.0312 -2.0185
  151SAPE   H4S16647   1.535   6.414   5.909  0.3628 -0.3611 -0.9070
  151SAPE   C2516648   1.698   6.271   5.896 -0.4463  0.4890  0.3211
  151SAPE   H5R16649   1.792   6.239   5.943 -1.9409 -3.1687  1.1969
  151SAPE   C2616650   1.671   6.215   5.774 -0.3702 -0.3203 -0.2215
  151SAPE   H6R16651   1.761   6.167   5.732  0.1369 -1.2991  1.8064
  151SAPE   C2716652   1.545   6.231   5.695  0.2420 -0.1797 -0.0772
  151SAPE   H7R16653   1.456   6.219   5.760  1.7470  0.3202  2.1693
  151SAPE   H7S16654   1.535   6.142   5.628  1.1558  0.9079 -1.7408
  151SAPE   C2816655   1.538   6.355   5.605 -0.4073 -0.2914 -0.1200
  151SAPE   H8R16656   1.492   6.443   5.651  0.4284 -0.3865  0.9346
  151SAPE   C2916657   1.593   6.360   5.484  0.2886 -0.4547  0.2755
  151SAPE   H9R16658   1.579   6.453   5.427 -0.4289 -1.3506 -1.0783
  151SAPE  C21016659   1.656   6.243   5.407 -0.1995 -0.1690 -0.9292
  151SAPE  H10R16660   1.598   6.228   5.314 -1.6120 -0.5958 -0.0028
  151SAPE  H10S16661   1.666   6.147   5.461  1.3793  0.5111  0.0799
  151SAPE  C21116662   1.805   6.293   5.383  0.1720  0.4633 -0.4571
  151SAPE  H11R16663   1.869   6.296   5.472 -1.2117  1.6971  0.5432
  151SAPE  C21216664   1.865   6.311   5.262 -0.1309 -0.1019  0.8363
  151SAPE  H12R16665   1.970   6.343   5.271 -0.8544  2.6583  0.4231
  151SAPE  C21316666   1.807   6.309   5.123  0.0255  0.0818 -0.6116
  151SAPE  H13R16667   1.830   6.402   5.066 -1.0347  0.4751 -0.4052
  151SAPE  H13S16668   1.696   6.303   5.124 -0.0553  0.3089  2.4423
  151SAPE  C21416669   1.861   6.193   5.052 -0.0604  0.1512  0.2582
  151SAPE  H14R16670   1.935   6.132   5.105 -0.4548  0.1682  0.8401
  151SAPE  C21516671   1.796   6.138   4.944 -0.3535 -0.0161 -0.2749
  151SAPE  H15R16672   1.842   6.049   4.899 -0.0980  0.7171 -1.5322
  151SAPE  C21616673   1.677   6.189   4.861 -0.0881  0.3827  0.5540
  151SAPE  H16R16674   1.647   6.293   4.886 -1.5868  0.5877 -1.7099
  151SAPE  H16S16675   1.587   6.128   4.886 -0.2409  0.1724 -0.4419
  151SAPE  C21716676   1.704   6.180   4.708 -0.1818 -0.0150  0.0731
  151SAPE  H17R16677   1.802   6.221   4.675  0.1981  0.2500  1.4364
  151SAPE  H17S16678   1.633   6.258   4.676  0.6229  1.3440  1.4419
  151SAPE  C21816679   1.686   6.045   4.638 -0.1085  0.1470  0.3452
  151SAPE  H18R16680   1.580   6.021   4.662 -0.5332  2.5477  1.0719
  151SAPE  H18S16681   1.757   5.978   4.692  0.3849  0.2431 -0.1805
  151SAPE  C21916682   1.711   6.046   4.485  0.0349 -0.5896 -0.4072
  151SAPE  H19R16683   1.653   5.957   4.451  0.2925 -1.4233  1.2477
  151SAPE  H19S16684   1.819   6.039   4.460  0.6341 -0.2673  1.8775
  151SAPE  C22016685   1.660   6.164   4.397 -0.9194  0.3969 -0.4833
  151SAPE  H20R16686   1.702   6.154   4.295  0.3540 -1.2378  0.1562
  151SAPE  H20S16687   1.677   6.265   4.442 -1.2665  0.2982 -0.1203
  151SAPE  H20T16688   1.550   6.164   4.385 -0.9756  0.3240 -0.0175
  151SAPE   C3316689   1.285   5.818   5.471  1.0648 -0.7785 -0.1015
  151SAPE   H3X16690   1.230   5.733   5.425 -0.9210 -0.0629  0.8400
  151SAPE   H3Y16691   1.377   5.779   5.518  1.6818 -0.1722 -0.7698
  151SAPE   C3416692   1.332   5.903   5.352 -0.6353  0.3368  0.4073
  151SAPE   H4X16693   1.405   5.981   5.382  1.8527 -1.8128  0.2565
  151SAPE   H4Y16694   1.243   5.939   5.297 -1.3749 -1.6576  0.2301
  151SAPE   C3516695   1.409   5.822   5.245 -0.2112  0.4246 -0.1394
  151SAPE   H5X16696   1.336   5.754   5.197 -0.2083 -1.2578  2.1040
  151SAPE   H5Y16697   1.481   5.759   5.302 -1.7720  1.7131  3.5532
  151SAPE   C3616698   1.471   5.917   5.144 -0.2509  0.1387 -0.1513
  151SAPE   H6X16699   1.513   6.005   5.197  2.4152  0.5118 -2.5823
  151SAPE   H6Y16700   1.394   5.952   5.072 -0.5937  0.4136  0.3517
  151SAPE   C3716701   1.585   5.847   5.072  0.3677  0.6862  0.0514
  151SAPE   H7X16702   1.643   5.799   5.153  0.9475 -1.5769 -1.5989
  151SAPE   H7Y16703   1.647   5.923   5.021  1.7356  1.0579  2.1612
  151SAPE   C3816704   1.531   5.735   4.977 -0.4649 -0.3396  0.0713
  151SAPE   H8X16705   1.432   5.762   4.934 -0.1823 -0.9701 -1.0134
  151SAPE   H8Y16706   1.532   5.644   5.040 -0.0420 -2.1360 -2.3865
  151SAPE   C3916707   1.627   5.714   4.861  0.2398 -0.3577  0.7045
  151SAPE   H9X16708   1.727   5.681   4.895 -0.1900 -1.7207  0.7217
  151SAPE   H9Y16709   1.630   5.810   4.805 -1.4812 -0.0121  1.1565
  151SAPE  C31016710   1.580   5.605   4.758 -0.2043 -0.3048  0.0672
  151SAPE  H10X16711   1.470   5.611   4.744 -0.5613  0.2994  2.6376
  151SAPE  H10Y16712   1.604   5.508   4.806  1.3799  0.3999  0.8002
  151SAPE  C31116713   1.660   5.617   4.626  0.9660 -0.2546 -0.2659
  151SAPE  H11X16714   1.769   5.623   4.649  1.2767 -0.6504 -1.5566
  151SAPE  H11Y16715   1.633   5.716   4.584  1.9327  0.4284  0.6748
  151SAPE  C31216716   1.642   5.500   4.532 -0.4766 -1.1869 -0.5320
  151SAPE  H12X16717   1.534   5.478   4.520 -0.3628 -1.6238 -0.7734
  151SAPE  H12Y16718   1.701   5.415   4.573  0.6801  0.3790  1.1811
  151SAPE  C31316719   1.705   5.522   4.387 -0.0892 -0.2156 -0.0753
  151SAPE  H13X16720   1.815   5.523   4.380  0.0632 -1.7716  1.4326
  151SAPE  H13Y16721   1.668   5.617   4.343  1.1841  1.0190  1.4344
  151SAPE  C31416722   1.652   5.402   4.295 -0.1677  0.5361  0.0870
  151SAPE  H14X16723   1.541   5.401   4.305 -0.3510  3.0655 -0.8207
  151SAPE  H14Y16724   1.692   5.315   4.350 -0.6823  0.4653  0.3565
  151SAPE  C31516725   1.680   5.412   4.145 -0.0266 -0.4875 -1.1813
  151SAPE  H15X16726   1.785   5.393   4.116  0.8190  2.7370 -0.6301
  151SAPE  H15Y16727   1.661   5.515   4.108  0.2995  1.2221  2.8790
  151SAPE  C31616728   1.602   5.329   4.047 -0.2607  0.4559  0.2930
  151SAPE  H16X16729   1.624   5.334   3.938 -2.0253 -1.2311 -0.1935
  151SAPE  H16Y16730   1.496   5.361   4.057  0.0484  1.4610  0.4979
  151SAPE  C31716731   1.590   5.179   4.089 -0.9217  0.2184 -0.0564
  151SAPE  H17X16732   1.543   5.168   4.189  0.0556  0.9993  0.5139
  151SAPE  H17Y16733   1.695   5.143   4.081 -0.7732  0.8172 -0.9070
  151SAPE  C31816734   1.504   5.100   3.991 -0.1146 -0.4305 -0.6252
  151SAPE  H18X16735   1.404   5.149   3.985 -0.0946 -0.4147 -0.8315
  151SAPE  H18Y16736   1.491   5.002   4.041 -0.4904 -0.4771 -0.8046
  151SAPE  H18Z16737   1.550   5.091   3.891  1.2924 -0.4281 -0.0049
  152SAPE     N16738   3.814   0.569   6.341  0.7143  0.7937  0.0078
  152SAPE   HN116739   3.879   0.489   6.341  1.6776  1.4615 -2.6661
  152SAPE   HN216740   3.714   0.540   6.331  0.1750  0.5694  4.2299
  152SAPE   HN316741   3.851   0.621   6.258  2.4413 -0.8549 -0.2973
  152SAPE   C1216742   3.838   0.658   6.459 -0.1238 -0.6180 -0.2792
  152SAPE  H12A16743   3.944   0.688   6.440  0.7616 -2.7678  1.0309
  152SAPE  H12B16744   3.828   0.610   6.558 -1.4861  0.6204  0.2159
  152SAPE   C1116745   3.761   0.789   6.445  0.0802 -0.3892  0.0176
  152SAPE  H11A16746   3.799   0.844   6.357  0.8598 -3.7594 -1.9048
  152SAPE  H11B16747   3.774   0.852   6.536 -2.9192  0.0129  0.2983
  152SAPE     P16748   3.525   0.748   6.563  0.2303  0.0986  0.4608
  152SAPE   O1316749   3.537   0.610   6.623  0.1770  0.5795 -0.6174
  152SAPE   O1416750   3.554   0.854   6.662 -0.1578 -0.0101  0.0424
  152SAPE   O1216751   3.621   0.759   6.440  0.3379  0.1956 -0.0039
  152SAPE   O1116752   3.379   0.769   6.511  0.1174 -0.4680  0.3223
  152SAPE    C116753   3.327   0.677   6.416 -0.5609  0.4669 -0.1209
  152SAPE    HA16754   3.393   0.602   6.368 -0.2487  0.8789 -0.3491
  152SAPE    HB16755   3.252   0.615   6.470 -1.4260  3.1631  2.0211
  152SAPE    C216756   3.262   0.758   6.301 -0.1211  0.2993 -0.1436
  152SAPE    HS16757   3.208   0.688   6.234 -2.2045  3.4316 -1.9971
  152SAPE   O2116758   3.372   0.829   6.240  0.5577  0.0668  0.5597
  152SAPE   C2116759   3.425   0.765   6.141 -0.0628 -0.2040 -0.0181
  152SAPE   O2216760   3.398   0.652   6.105  0.2331 -0.2750  0.5864
  152SAPE   C2216761   3.544   0.848   6.088  0.3571  0.9057  0.2452
  152SAPE   H2R16762   3.564   0.937   6.150 -0.7470  0.9781  0.5109
  152SAPE   H2S16763   3.628   0.776   6.082 -1.1294 -0.8108 -2.3656
  152SAPE    C316764   3.154   0.860   6.337  0.6416 -0.3580  0.5278
  152SAPE    HX16765   3.195   0.934   6.409 -0.0060  0.6120 -0.0784
  152SAPE    HY16766   3.078   0.800   6.393 -0.2723 -1.5010 -1.8117
  152SAPE   O3116767   3.099   0.917   6.218  0.0688 -0.0475  0.2440
  152SAPE   C3116768   3.110   1.045   6.209 -0.0444 -0.0411  0.2443
  152SAPE   O3216769   3.170   1.117   6.291  0.6213 -0.1435 -0.1197
  152SAPE   C3216770   3.065   1.097   6.078  0.5944  0.6314  0.5169
  152SAPE   H2X16771   2.961   1.129   6.100  0.7748 -0.6268  3.8883
  152SAPE   H2Y16772   3.069   1.017   6.000  0.4997  2.5329 -1.5150
  152SAPE   C2316773   3.538   0.895   5.938  0.2753  0.1020  0.7955
  152SAPE   H3R16774   3.638   0.924   5.900  0.0125 -0.0823 -0.0728
  152SAPE   H3S16775   3.471   0.984   5.935  0.9891  0.6328 -0.8743
  152SAPE   C2416776   3.486   0.789   5.842  0.0219  0.3731 -0.4193
  152SAPE   H4R16777   3.468   0.828   5.740  4.2888 -0.7785 -1.8536
  152SAPE   H4S16778   3.389   0.749   5.877 -0.3157 -0.4657 -2.2079
  152SAPE   C2516779   3.587   0.675   5.815  0.2110  0.1624  0.4880
  152SAPE   H5R16780   3.663   0.650   5.891 -0.0827 -0.6378  0.5354
  152SAPE   C2616781   3.609   0.624   5.690  0.6325  0.8305 -0.3148
  152SAPE   H6R16782   3.702   0.568   5.678 -1.0287 -2.2805  0.2932
  152SAPE   C2716783   3.522   0.650   5.566  0.4902  0.1486  1.0120
  152SAPE   H7R16784   3.553   0.746   5.518 -0.3202  0.0133  0.2064
  152SAPE   H7S16785   3.417   0.673   5.594  0.7531  0.8549  1.4590
  152SAPE   C2816786   3.508   0.535   5.470  0.2167 -0.8011  0.1848
  152SAPE   H8R16787   3.426   0.462   5.482 -0.0947 -0.4087  0.4557
  152SAPE   C2916788   3.588   0.512   5.367 -0.1652  0.3761  0.3664
  152SAPE   H9R16789   3.566   0.424   5.304 -1.0337  0.8309  0.0096
  152SAPE  C21016790   3.707   0.600   5.325  0.1332  0.9904 -0.4162
  152SAPE  H10R16791   3.796   0.550   5.369 -1.2312 -1.1444  0.1111
  152SAPE  H10S16792   3.710   0.704   5.364 -0.6770  1.4122 -1.4325
  152SAPE  C21116793   3.710   0.602   5.172  0.0430 -0.2139  0.0570
  152SAPE  H11R16794   3.654   0.677   5.114 -1.0537 -0.5723  0.6281
  152SAPE  C21216795   3.782   0.521   5.099 -0.3872 -0.7281 -0.4756
  152SAPE  H12R16796   3.797   0.545   4.993 -0.2255  0.2347 -0.2524
  152SAPE  C21316797   3.867   0.407   5.146  0.0512 -0.4664  0.2072
  152SAPE  H13R16798   3.844   0.383   5.252 -1.7498 -3.2557 -0.7299
  152SAPE  H13S16799   3.977   0.423   5.141  0.4900 -3.0679  0.1033
  152SAPE  C21416800   3.837   0.289   5.053  0.6012 -0.3544  0.6605
  152SAPE  H14R16801   3.787   0.204   5.102  0.7689 -1.1380 -0.5002
  152SAPE  C21516802   3.880   0.264   4.928 -0.3985 -1.0492 -0.3453
  152SAPE  H15R16803   3.857   0.171   4.874  2.6012 -1.7050 -0.6271
  152SAPE  C21616804   3.966   0.355   4.840 -0.1185 -0.0939 -0.0166
  152SAPE  H16R16805   4.058   0.300   4.810 -0.5566  0.1440 -1.9087
  152SAPE  H16S16806   3.996   0.450   4.890  0.4473  0.5581 -1.5389
  152SAPE  C21716807   3.898   0.401   4.712  0.1589  0.2241 -0.3119
  152SAPE  H17R16808   3.967   0.465   4.653 -0.8571  1.2860 -0.3924
  152SAPE  H17S16809   3.811   0.465   4.738 -0.1274 -0.4803  0.5105
  152SAPE  C21816810   3.841   0.281   4.634  0.5202 -0.3209 -0.0646
  152SAPE  H18R16811   3.742   0.241   4.663 -0.3568  2.2226  0.7436
  152SAPE  H18S16812   3.906   0.192   4.649  0.4153 -0.7121 -1.7341
  152SAPE  C21916813   3.844   0.304   4.482 -0.2913 -0.4769  0.2191
  152SAPE  H19R16814   3.949   0.319   4.450 -0.4390 -0.6532 -0.3712
  152SAPE  H19S16815   3.787   0.397   4.461  0.6611 -0.3202 -1.8999
  152SAPE  C22016816   3.798   0.175   4.409 -0.1945  0.0253 -0.0742
  152SAPE  H20R16817   3.859   0.088   4.442 -1.7686 -1.1656 -0.1983
  152SAPE  H20S16818   3.804   0.182   4.298 -2.6876 -2.6850 -0.4815
  152SAPE  H20T16819   3.700   0.134   4.442  0.6517 -2.6737 -0.6666
  152SAPE   C3316820   3.159   1.206   6.016 -0.1468 -0.6244  0.4985
  152SAPE   H3X16821   3.266   1.184   6.035  0.7665  1.8606 -1.2475
  152SAPE   H3Y16822   3.128   1.305   6.057 -1.3472 -0.7843  0.0202
  152SAPE   C3416823   3.126   1.214   5.863  0.7303 -0.0860 -0.2200
  152SAPE   H4X16824   3.157   1.314   5.826  0.5235  0.0748  0.0293
  152SAPE   H4Y16825   3.018   1.195   5.841  0.8208 -1.5230  0.4634
  152SAPE   C3516826   3.207   1.106   5.781  0.0189  0.1519  1.0551
  152SAPE   H5X16827   3.170   1.003   5.799 -1.9711  0.5134 -0.5071
  152SAPE   H5Y16828   3.309   1.111   5.823  0.5777  0.4346 -0.2807
  152SAPE   C3616829   3.202   1.136   5.630 -0.5138 -0.1918 -0.1160
  152SAPE   H6X16830   3.235   1.242   5.622 -1.5625  0.2392  0.9613
  152SAPE   H6Y16831   3.093   1.139   5.606 -0.2470 -1.2983 -1.6182
  152SAPE   C3716832   3.271   1.024   5.549  0.4471 -0.1138  0.7235
  152SAPE   H7X16833   3.219   0.932   5.584  0.2362 -0.4090 -0.3175
  152SAPE   H7Y16834   3.371   1.004   5.591  0.6107 -0.3124  0.2493
  152SAPE   C3816835   3.268   1.029   5.403 -0.8111 -0.2063  0.0067
  152SAPE   H8X16836   3.274   1.135   5.372 -0.8624 -0.7398 -1.9491
  152SAPE   H8Y16837   3.175   1.004   5.348 -0.0749  0.2300 -1.4688
  152SAPE   C3916838   3.382   0.942   5.345  0.3318 -0.1555  0.1922
  152SAPE   H9X16839   3.349   0.837   5.358 -1.6249 -0.0421 -2.7752
  152SAPE   H9Y16840   3.473   0.975   5.399 -0.0710  0.9632  0.2180
  152SAPE  C31016841   3.394   0.967   5.202  0.0309  1.0044  1.0522
  152SAPE  H10X16842   3.418   1.075   5.190 -1.7873  1.6107  2.3172
  152SAPE  H10Y16843   3.299   0.941   5.152  1.5345 -1.9970 -0.4592
  152SAPE  C31116844   3.502   0.893   5.121 -0.2847 -0.2627  0.3656
  152SAPE  H11X16845   3.493   0.784   5.140 -0.7813 -0.0966  1.1740
  152SAPE  H11Y16846   3.603   0.918   5.159 -0.1865  0.8449 -0.5842
  152SAPE  C31216847   3.487   0.929   4.977 -0.1895 -0.3619  0.5181
  152SAPE  H12X16848   3.497   1.040   4.971 -0.5730 -0.1355  3.0492
  152SAPE  H12Y16849   3.390   0.897   4.934  0.8987  0.1283 -2.5549
  152SAPE  C31316850   3.597   0.848   4.907 -0.0703 -0.2830  0.1701
  152SAPE  H13X16851   3.568   0.741   4.907 -1.7919  0.1469 -1.1510
  152SAPE  H13Y16852   3.693   0.860   4.962 -0.4311  1.1872  0.5280
  152SAPE  C31416853   3.616   0.895   4.758  0.2097  0.4843 -1.0452
  152SAPE  H14X16854   3.688   0.827   4.708  0.4197 -0.0208 -0.0907
  152SAPE  H14Y16855   3.661   0.996   4.746  0.4146  0.5087 -0.1609
  152SAPE  C31516856   3.492   0.880   4.667 -0.3435 -0.8085  0.2610
  152SAPE  H15X16857   3.413   0.955   4.688 -0.4273 -0.9795  0.5552
  152SAPE  H15Y16858   3.434   0.787   4.683 -1.3081 -0.0913  1.0486
  152SAPE  C31616859   3.518   0.911   4.521 -0.4344 -0.3321  0.0278
  152SAPE  H16X16860   3.607   0.855   4.486  0.6680  1.1305  0.4413
  152SAPE  H16Y16861   3.542   1.019   4.509  0.0575 -0.1555  2.2399
  152SAPE  C31716862   3.396   0.870   4.432 -0.3528  0.5168  0.2936
  152SAPE  H17X16863   3.353   0.772   4.463 -0.1197  0.1628 -0.4837
  152SAPE  H17Y16864   3.434   0.855   4.330  0.9168  0.4298  0.7691
  152SAPE  C31816865   3.291   0.976   4.435 -0.2601 -0.6800 -0.5157
  152SAPE  H18X16866   3.240   0.984   4.533 -1.0716 -0.3401 -0.9563
  152SAPE  H18Y16867   3.219   0.947   4.356 -1.3325  0.2838  0.0760
  152SAPE  H18Z16868   3.335   1.078   4.421 -2.0079  0.2871  0.6990
  153SAPE     N16869   2.085   5.493   6.308 -0.2068  1.2717  0.0461
  153SAPE   HN116870   2.057   5.574   6.249  3.8671  2.2438 -0.8196
  153SAPE   HN216871   2.162   5.442   6.262  0.1896 -0.7665  2.7174
  153SAPE   HN316872   2.008   5.427   6.332  0.1753  0.6643 -0.3943
  153SAPE   C1216873   2.158   5.546   6.433 -0.1136 -0.2006 -0.5359
  153SAPE  H12A16874   2.263   5.570   6.407  0.4161 -1.3261  0.4557
  153SAPE  H12B16875   2.144   5.467   6.510 -0.8987  0.3334 -0.1170
  153SAPE   C1116876   2.093   5.670   6.489 -1.2821 -0.1952  0.1062
  153SAPE  H11A16877   2.142   5.699   6.585  1.2611  1.8733 -1.6790
  153SAPE  H11B16878   1.984   5.659   6.506 -1.3347 -1.1182 -0.7550
  153SAPE     P16879   2.184   5.915   6.409 -0.1186  0.1314 -0.1856
  153SAPE   O1316880   2.087   6.028   6.398 -0.2910 -0.7478  0.0331
  153SAPE   O1416881   2.270   5.911   6.528 -0.4147  0.3860  0.8216
  153SAPE   O1216882   2.108   5.776   6.397 -0.0925  0.2340  0.1460
  153SAPE   O1116883   2.283   5.923   6.285 -0.2568  0.4285 -0.0540
  153SAPE    C116884   2.307   5.810   6.192  0.3102  0.3073 -0.1717
  153SAPE    HA16885   2.415   5.791   6.172  0.5232  0.3299  0.8929
  153SAPE    HB16886   2.269   5.714   6.232  0.2895  0.8403  1.1248
  153SAPE    C216887   2.243   5.835   6.053 -0.1591  0.3830  0.4438
  153SAPE    HS16888   2.134   5.815   6.061  0.0606 -0.3195  2.1450
  153SAPE   O2116889   2.295   5.753   5.949 -0.3852 -0.5198 -0.1080
  153SAPE   C2116890   2.271   5.621   5.966  0.1831  0.1882 -0.0975
  153SAPE   O2216891   2.196   5.575   6.051 -0.4110 -0.2826 -0.2444
  153SAPE   C2216892   2.325   5.541   5.849 -0.0442  0.1318  0.0505
  153SAPE   H2R16893   2.328   5.604   5.757  1.2413  1.6009  1.0465
  153SAPE   H2S16894   2.428   5.516   5.883 -0.0300  0.3913  0.1978
  153SAPE    C316895   2.260   5.986   6.010 -0.6571 -0.5744  0.1664
  153SAPE    HX16896   2.369   6.004   6.013 -0.7867  0.9703 -1.9935
  153SAPE    HY16897   2.231   6.063   6.085 -0.3744  1.3602 -1.6186
  153SAPE   O3116898   2.230   6.019   5.876  0.1737  0.2476 -0.3662
  153SAPE   C3116899   2.103   6.047   5.863  0.2004 -0.3275  0.1968
  153SAPE   O3216900   2.021   6.050   5.949  0.5130  0.2172  0.2914
  153SAPE   C3216901   2.077   6.073   5.716  0.0678  0.1149  0.4605
  153SAPE   H2X16902   2.084   6.182   5.697  2.7059 -0.3789 -2.0566
  153SAPE   H2Y16903   1.971   6.047   5.698 -0.7887  2.6517  1.5066
  153SAPE   C2316904   2.264   5.409   5.800  0.9192 -0.8310 -0.7539
  153SAPE   H3R16905   2.174   5.434   5.740  0.8735 -3.0148 -1.7078
  153SAPE   H3S16906   2.232   5.361   5.895 -0.0413  0.8572 -0.1836
  153SAPE   C2416907   2.364   5.317   5.738  0.2692  0.8749  0.0062
  153SAPE   H4R16908   2.455   5.312   5.802 -0.3820 -0.7899  0.8730
  153SAPE   H4S16909   2.391   5.358   5.638  1.8780 -1.6811 -0.7202
  153SAPE   C2516910   2.335   5.169   5.721 -0.0338 -0.0541 -0.3986
  153SAPE   H5R16911   2.346   5.099   5.806 -0.4659  1.6619  1.1217
  153SAPE   C2616912   2.276   5.114   5.613  0.2249  0.1390  0.0573
  153SAPE   H6R16913   2.248   5.008   5.607 -1.8162  0.6510 -0.3102
  153SAPE   C2716914   2.251   5.189   5.483 -0.1507  0.0491  0.0861
  153SAPE   H7R16915   2.353   5.208   5.446  2.0067 -3.1812  3.5853
  153SAPE   H7S16916   2.204   5.288   5.502  1.1448  0.1537  3.3643
  153SAPE   C2816917   2.153   5.111   5.397 -0.2057  0.3278 -0.1640
  153SAPE   H8R16918   2.051   5.104   5.436 -1.9341 -0.2750 -4.2596
  153SAPE   C2916919   2.174   5.063   5.274 -0.3407  0.5123 -0.0170
  153SAPE   H9R16920   2.088   5.015   5.224 -1.7924 -0.3901  3.1023
  153SAPE  C21016921   2.296   5.078   5.195  0.0163  0.1065  0.1580
  153SAPE  H10R16922   2.343   4.979   5.209  0.7921  0.6651  1.6995
  153SAPE  H10S16923   2.370   5.157   5.221  1.7812 -0.2187 -3.2481
  153SAPE  C21116924   2.269   5.099   5.048 -0.7219  0.0964  0.1198
  153SAPE  H11R16925   2.267   5.203   5.013 -0.3072  0.5217  1.3183
  153SAPE  C21216926   2.233   4.997   4.962 -0.6912 -0.7373 -0.5777
  153SAPE  H12R16927   2.221   5.017   4.854 -1.2992  2.5764 -0.0133
  153SAPE  C21316928   2.215   4.852   4.989  0.7725  0.0835  0.7616
  153SAPE  H13R16929   2.274   4.824   5.079  1.5625 -0.4798  0.0889
  153SAPE  H13S16930   2.259   4.789   4.908 -0.2284  0.8384 -0.4024
  153SAPE  C21416931   2.065   4.825   4.999  0.3078 -0.0442 -0.0749
  153SAPE  H14R16932   2.024   4.860   5.095 -0.7966 -2.0740  0.2564
  153SAPE  C21516933   1.989   4.753   4.914  0.7409  0.2066  0.3333
  153SAPE  H15R16934   1.881   4.753   4.930  0.5111 -2.3888 -0.6226
  153SAPE  C21616935   2.039   4.678   4.790 -0.3371 -0.1176 -0.7299
  153SAPE  H16R16936   2.041   4.568   4.805  2.0227 -0.1732 -1.0939
  153SAPE  H16S16937   2.146   4.707   4.780 -0.8464  1.6152 -1.5761
  153SAPE  C21716938   1.963   4.717   4.659 -0.3915 -0.1351  0.0855
  153SAPE  H17R16939   1.984   4.825   4.645 -1.0706 -0.1107 -0.7998
  153SAPE  H17S16940   1.855   4.692   4.662 -0.1076 -1.3318  1.1292
  153SAPE  C21816941   2.034   4.653   4.539  0.2196  0.1045  0.3219
  153SAPE  H18R16942   2.050   4.544   4.547 -0.4394 -0.0754 -0.5937
  153SAPE  H18S16943   2.134   4.698   4.523  0.1724  0.2743  0.5052
  153SAPE  C21916944   1.957   4.691   4.405  0.2908  0.2817 -0.3564
  153SAPE  H19R16945   1.854   4.652   4.421  1.4450 -2.1454  1.8630
  153SAPE  H19S16946   2.008   4.628   4.330  1.7951 -1.9786  2.3552
  153SAPE  C22016947   1.954   4.840   4.361 -0.0505 -0.2035  0.4569
  153SAPE  H20R16948   1.889   4.892   4.434  1.5800 -0.6851  2.3219
  153SAPE  H20S16949   1.903   4.872   4.268 -1.5433  0.3096  1.4148
  153SAPE  H20T16950   2.057   4.881   4.370 -0.8455  2.6175 -1.7613
  153SAPE   C3316951   2.169   6.000   5.620 -0.1349 -0.7748  0.1024
  153SAPE   H3X16952   2.152   5.891   5.605 -0.1707 -0.9771  1.5146
  153SAPE   H3Y16953   2.275   6.023   5.643  0.0519 -0.7745 -0.7289
  153SAPE   C3416954   2.130   6.054   5.480 -0.5247 -0.0236  0.2146
  153SAPE   H4X16955   2.162   6.158   5.457 -1.8918  0.3291 -0.1568
  153SAPE   H4Y16956   2.020   6.063   5.466 -0.7134  1.5608  2.2380
  153SAPE   C3516957   2.203   5.976   5.371 -0.1802  0.3508 -1.5652
  153SAPE   H5X16958   2.183   5.869   5.390  0.9996  0.3053 -0.4480
  153SAPE   H5Y16959   2.312   5.998   5.371 -0.4732  2.4730  1.0627
  153SAPE   C3616960   2.150   6.028   5.238 -0.1621  0.0967 -0.3805
  153SAPE   H6X16961   2.137   6.138   5.245 -0.9823 -0.0078 -0.1529
  153SAPE   H6Y16962   2.052   5.985   5.209  0.2489 -1.3374  0.2797
  153SAPE   C3716963   2.251   6.012   5.117  0.0915 -0.2822 -0.0533
  153SAPE   H7X16964   2.342   6.071   5.139  0.3183  0.0287 -1.7148
  153SAPE   H7Y16965   2.199   6.056   5.029  0.7245  0.3538 -0.1142
  153SAPE   C3816966   2.299   5.869   5.114 -0.1689  0.5843  0.1994
  153SAPE   H8X16967   2.214   5.804   5.144  1.3891 -1.5081  0.2697
  153SAPE   H8Y16968   2.380   5.858   5.189 -0.8350 -1.2609  0.6916
  153SAPE   C3916969   2.347   5.829   4.971  0.2238 -0.0779 -0.4567
  153SAPE   H9X16970   2.415   5.909   4.934  2.3730 -0.6408  1.9888
  153SAPE   H9Y16971   2.254   5.832   4.910  0.6464  1.0976 -1.0563
  153SAPE  C31016972   2.421   5.690   4.949  0.2010 -0.1173 -0.2405
  153SAPE  H10X16973   2.363   5.607   4.994  1.1508 -0.3592  0.5682
  153SAPE  H10Y16974   2.519   5.694   5.000 -0.9085  1.4577  1.9008
  153SAPE  C31116975   2.452   5.661   4.804  0.3452 -0.0027  1.1703
  153SAPE  H11X16976   2.536   5.722   4.763  1.6657 -2.7595 -0.4679
  153SAPE  H11Y16977   2.362   5.691   4.746  2.0747 -2.1184 -3.0390
  153SAPE  C31216978   2.482   5.517   4.768  0.2622 -0.2905  0.3712
  153SAPE  H12X16979   2.406   5.446   4.808  1.0919 -0.7119  1.2550
  153SAPE  H12Y16980   2.576   5.486   4.819  0.4388 -1.8167 -0.8132
  153SAPE  C31316981   2.506   5.478   4.627  1.0412  0.1984 -0.0544
  153SAPE  H13X16982   2.511   5.368   4.615  2.0152  0.3062 -0.7475
  153SAPE  H13Y16983   2.607   5.520   4.607  1.1471 -0.1616 -0.2730
  153SAPE  C31416984   2.399   5.533   4.533  0.0258 -0.2183 -0.6509
  153SAPE  H14X16985   2.408   5.643   4.548 -1.0427 -0.4618  2.6637
  153SAPE  H14Y16986   2.294   5.516   4.566 -0.2680  1.9484 -0.3229
  153SAPE  C31516987   2.428   5.492   4.388  0.0057  0.4707 -0.3317
  153SAPE  H15X16988   2.408   5.383   4.391  1.2768  0.2551  1.0563
  153SAPE  H15Y16989   2.538   5.502   4.374  0.4381 -2.9984 -0.2415
  153SAPE  C31616990   2.348   5.567   4.284  0.4838  0.6843  1.1571
  153SAPE  H16X16991   2.363   5.677   4.277  0.3698  0.5862 -1.1295
  153SAPE  H16Y16992   2.244   5.554   4.322  0.9302 -0.4059  2.0834
  153SAPE  C31716993   2.368   5.514   4.146 -0.6853 -0.0729 -0.0085
  153SAPE  H17X16994   2.292   5.562   4.080  1.2820 -0.1400 -2.4813
  153SAPE  H17Y16995   2.354   5.404   4.147 -2.2324  0.0889 -0.8591
  153SAPE  C31816996   2.510   5.537   4.089 -0.7340 -0.8234 -0.0643
  153SAPE  H18X16997   2.517   5.479   3.994 -0.0349  0.0991 -0.5852
  153SAPE  H18Y16998   2.592   5.508   4.159  1.9317  1.9747 -1.8092
  153SAPE  H18Z16999   2.539   5.644   4.084  0.6529 -0.9652  2.7549
  154SAPE     N17000   6.333   3.687   6.582  0.2903  0.1326  0.3421
  154SAPE   HN117001   6.317   3.617   6.507 -4.1391  1.6476 -0.4612
  154SAPE   HN217002   6.431   3.719   6.576  0.6279 -0.9684 -0.2086
  154SAPE   HN317003   6.327   3.639   6.674  0.9043 -2.2064 -0.7878
  154SAPE   C1217004   6.235   3.801   6.573 -0.9545  0.1347  0.4089
  154SAPE  H12A17005   6.296   3.891   6.547 -0.2669 -0.2552  0.6353
  154SAPE  H12B17006   6.192   3.813   6.674  0.7151  2.7511  0.9381
  154SAPE   C1117007   6.127   3.780   6.471 -0.4333  0.2460  0.0566
  154SAPE  H11A17008   6.170   3.797   6.370 -2.3456 -0.5943 -0.9539
  154SAPE  H11B17009   6.043   3.852   6.483 -0.3991  0.3527 -0.3259
  154SAPE     P17010   5.938   3.602   6.550  0.2074 -0.0140  0.1206
  154SAPE   O1317011   5.904   3.461   6.530  0.0552  0.1817  0.4714
  154SAPE   O1417012   5.945   3.643   6.691 -0.5462 -0.1373  0.2287
  154SAPE   O1217013   6.068   3.648   6.478  0.1228  0.7031  0.6297
  154SAPE   O1117014   5.833   3.686   6.483 -0.2771 -0.7096  0.7128
  154SAPE    C117015   5.765   3.657   6.359 -0.4127  0.2669  0.7842
  154SAPE    HA17016   5.741   3.551   6.337 -1.7027  1.1299 -2.5833
  154SAPE    HB17017   5.667   3.709   6.364 -0.1875  0.5310  3.6299
  154SAPE    C217018   5.839   3.721   6.242  0.2353 -0.0970  0.0051
  154SAPE    HS17019   5.935   3.665   6.231  1.7419  2.2621  0.3374
  154SAPE   O2117020   5.861   3.863   6.274  0.1150 -0.3306 -0.2271
  154SAPE   C2117021   5.971   3.910   6.214 -0.0008 -0.2637  1.1925
  154SAPE   O2217022   6.048   3.845   6.148 -0.1788  0.2319  0.2854
  154SAPE   C2217023   5.973   4.061   6.237  0.4838 -0.5911 -0.1384
  154SAPE   H2R17024   5.948   4.078   6.343  0.2962 -0.6147 -0.1798
  154SAPE   H2S17025   6.077   4.093   6.214 -0.1956  0.7984 -1.4790
  154SAPE    C317026   5.764   3.716   6.106  0.2741 -1.0946 -0.0293
  154SAPE    HX17027   5.826   3.768   6.030 -1.7606  1.0457 -0.3334
  154SAPE    HY17028   5.674   3.779   6.123  1.2745 -0.1662  2.2168
  154SAPE   O3117029   5.712   3.586   6.073  0.5574 -0.0895 -0.1756
  154SAPE   C3117030   5.788   3.523   5.983 -0.0223 -1.0404 -0.2155
  154SAPE   O3217031   5.891   3.559   5.943 -0.1148 -0.5129 -0.3541
  154SAPE   C3217032   5.726   3.393   5.942 -0.2663  0.0726 -0.1210
  154SAPE   H2X17033   5.636   3.358   5.997 -0.2782 -1.3398 -0.9887
  154SAPE   H2Y17034   5.815   3.328   5.959 -0.3541 -0.0569 -0.1569
  154SAPE   C2317035   5.875   4.139   6.136  0.1614  0.0765 -0.9422
  154SAPE   H3R17036   5.879   4.245   6.169 -0.4468  0.0596 -0.7891
  154SAPE   H3S17037   5.774   4.102   6.164  0.2704 -0.1208 -0.8149
  154SAPE   C2417038   5.886   4.118   5.983 -0.2017  0.1665 -0.5805
  154SAPE   H4R17039   5.804   4.168   5.928 -1.7198 -0.9576  0.5657
  154SAPE   H4S17040   5.878   4.008   5.968 -1.9548  0.4004 -1.6478
  154SAPE   C2517041   6.018   4.155   5.922 -0.2318 -0.3514  0.0331
  154SAPE   H5R17042   6.084   4.222   5.980  0.1586  0.2046 -1.0378
  154SAPE   C2617043   6.070   4.104   5.812 -0.1260 -0.2953  0.3898
  154SAPE   H6R17044   6.177   4.118   5.792 -0.3459  1.7210  0.4587
  154SAPE   C2717045   6.007   3.989   5.738 -0.1212  0.5932 -0.4931
  154SAPE   H7R17046   6.036   3.988   5.631 -0.6486 -1.4141 -0.6716
  154SAPE   H7S17047   5.897   4.003   5.735 -0.3396 -0.7024  0.4903
  154SAPE   C2817048   6.036   3.848   5.790  0.3489 -0.1290  0.4849
  154SAPE   H8R17049   6.052   3.837   5.899  2.6241  3.5826  0.6963
  154SAPE   C2917050   6.042   3.742   5.710 -0.8531 -0.3040 -0.5626
  154SAPE   H9R17051   6.066   3.643   5.753  3.1007  0.5638 -0.4580
  154SAPE  C21017052   6.030   3.737   5.562  0.0003  0.0206 -0.0743
  154SAPE  H10R17053   6.083   3.648   5.522  1.1420  1.3726 -1.7136
  154SAPE  H10S17054   6.079   3.829   5.522 -0.9849 -0.2346 -1.9812
  154SAPE  C21117055   5.877   3.732   5.529 -0.4642 -1.0389  0.8944
  154SAPE  H11R17056   5.809   3.690   5.604  0.7253 -0.7699  2.1485
  154SAPE  C21217057   5.814   3.771   5.414 -0.5994  0.0527  0.7077
  154SAPE  H12R17058   5.705   3.755   5.409 -0.4104 -1.0884 -0.1097
  154SAPE  C21317059   5.888   3.834   5.299  0.1766  0.8634 -0.0703
  154SAPE  H13R17060   5.828   3.828   5.206  0.4739  1.4860 -0.3057
  154SAPE  H13S17061   5.983   3.776   5.292  0.7992  1.7499  0.7086
  154SAPE  C21417062   5.926   3.981   5.326  0.0812  0.1121 -0.4997
  154SAPE  H14R17063   5.860   4.034   5.397  1.0507 -0.0103  0.5075
  154SAPE  C21517064   6.029   4.042   5.274 -0.3297 -0.1718 -0.2678
  154SAPE  H15R17065   6.035   4.150   5.294  0.4050 -0.3807  0.6841
  154SAPE  C21617066   6.125   3.983   5.170  0.5812 -0.5769 -0.0281
  154SAPE  H16R17067   6.129   3.873   5.156  0.6694 -0.4965 -0.6753
  154SAPE  H16S17068   6.226   4.021   5.196 -0.1363  3.6299 -2.5277
  154SAPE  C21717069   6.094   4.037   5.029  0.2122 -0.3541 -0.3326
  154SAPE  H17R17070   6.102   4.147   5.045  1.8428 -0.7415  2.0542
  154SAPE  H17S17071   5.994   4.004   4.994  0.1319 -0.1439 -0.3055
  154SAPE  C21817072   6.209   4.007   4.928 -0.0376 -0.2901  0.5057
  154SAPE  H18R17073   6.202   3.896   4.918  0.1313 -0.4123  1.6119
  154SAPE  H18S17074   6.312   4.042   4.950 -0.3050  0.6637  0.3099
  154SAPE  C21917075   6.183   4.072   4.792 -0.0359 -0.2065  0.1532
  154SAPE  H19R17076   6.268   4.033   4.732 -1.1367 -0.5979 -1.2063
  154SAPE  H19S17077   6.187   4.182   4.799 -0.6404 -0.1929  0.3357
  154SAPE  C22017078   6.044   4.034   4.727 -0.8204  0.0253 -0.8168
  154SAPE  H20R17079   6.050   4.062   4.620 -0.8907  1.4361 -0.4804
  154SAPE  H20S17080   5.961   4.088   4.778 -0.9468  0.0923 -1.0969
  154SAPE  H20T17081   6.026   3.925   4.735 -0.8030  0.0925  0.4271
  154SAPE   C3317082   5.690   3.404   5.792 -0.3564 -0.3757  0.2281
  154SAPE   H3X17083   5.695   3.299   5.757 -0.9396 -1.0149  1.9553
  154SAPE   H3Y17084   5.771   3.457   5.737 -0.3881 -0.3726  0.1839
  154SAPE   C3417085   5.557   3.474   5.780 -0.0601 -0.1663 -0.0141
  154SAPE   H4X17086   5.570   3.573   5.827  1.6752 -0.0230 -0.7213
  154SAPE   H4Y17087   5.491   3.403   5.835  0.5954 -0.7868  0.0008
  154SAPE   C3517088   5.507   3.478   5.639  0.3914 -0.6863  0.0078
  154SAPE   H5X17089   5.505   3.375   5.599 -1.7445  0.1423 -2.2387
  154SAPE   H5Y17090   5.582   3.542   5.587  1.9130  0.3154  3.1754
  154SAPE   C3617091   5.369   3.549   5.620  0.7839  0.5766 -0.2246
  154SAPE   H6X17092   5.353   3.644   5.676  0.7597  0.1908  0.4303
  154SAPE   H6Y17093   5.295   3.474   5.655  0.3879  1.3220  0.5835
  154SAPE   C3717094   5.351   3.585   5.470 -0.8003  0.0547 -0.6417
  154SAPE   H7X17095   5.442   3.637   5.434 -0.6507  0.9283  0.8942
  154SAPE   H7Y17096   5.265   3.653   5.453 -1.5016 -0.6630 -0.0423
  154SAPE   C3817097   5.307   3.465   5.382 -0.5616 -0.1457 -0.1509
  154SAPE   H8X17098   5.213   3.429   5.429 -0.4841  0.1228  0.2154
  154SAPE   H8Y17099   5.387   3.387   5.381  0.2140  0.6374 -0.9995
  154SAPE   C3917100   5.268   3.499   5.240  0.4381 -0.0025 -0.1719
  154SAPE   H9X17101   5.343   3.563   5.189  0.5384  0.1075  0.1154
  154SAPE   H9Y17102   5.182   3.570   5.246 -0.2940 -0.7015 -1.6693
  154SAPE  C31017103   5.243   3.378   5.161  0.1613  1.0304  0.0986
  154SAPE  H10X17104   5.193   3.308   5.231  1.0135  0.3549  0.0536
  154SAPE  H10Y17105   5.332   3.330   5.116  0.1824  1.9849 -0.9116
  154SAPE  C31117106   5.157   3.404   5.039  0.2483  0.0263 -0.1207
  154SAPE  H11X17107   5.212   3.475   4.974  1.1686 -1.5737 -1.1599
  154SAPE  H11Y17108   5.065   3.457   5.072 -0.7113 -0.8765 -1.2518
  154SAPE  C31217109   5.100   3.289   4.958  0.1662  0.1824 -0.0688
  154SAPE  H12X17110   5.009   3.239   4.999 -0.0803  0.8475  0.2157
  154SAPE  H12Y17111   5.179   3.211   4.953  1.9102  1.8421  0.3522
  154SAPE  C31317112   5.062   3.331   4.815 -0.6549  0.2030  0.3063
  154SAPE  H13X17113   5.146   3.390   4.774 -0.6188 -0.1182 -0.0862
  154SAPE  H13Y17114   4.965   3.385   4.811 -1.4397 -1.1967 -0.5609
  154SAPE  C31417115   5.037   3.216   4.717  0.1800  0.6636 -0.7817
  154SAPE  H14X17116   4.940   3.177   4.754  1.4278  1.7417  4.4555
  154SAPE  H14Y17117   5.108   3.132   4.729 -1.8814 -0.8655  1.7681
  154SAPE  C31517118   5.022   3.258   4.570 -0.5979  0.2103 -0.4034
  154SAPE  H15X17119   5.113   3.316   4.542  0.0026 -1.0947 -1.2803
  154SAPE  H15Y17120   4.934   3.324   4.553  0.1959  0.7684 -2.8153
  154SAPE  C31617121   5.031   3.143   4.470 -0.5175  0.5415 -0.5226
  154SAPE  H16X17122   4.964   3.068   4.517  0.4777 -0.4619 -0.6607
  154SAPE  H16Y17123   5.132   3.097   4.475 -1.3265 -1.2165  0.7414
  154SAPE  C31717124   5.009   3.159   4.320  0.3273  0.5421  0.5824
  154SAPE  H17X17125   5.013   3.058   4.274  0.5852  0.7992  0.0287
  154SAPE  H17Y17126   5.087   3.225   4.276 -0.5461  3.4669  3.0479
  154SAPE  C31817127   4.866   3.214   4.294 -0.8550 -0.4067 -0.9654
  154SAPE  H18X17128   4.798   3.179   4.375  0.5402 -0.2708  0.3282
  154SAPE  H18Y17129   4.826   3.190   4.194 -1.2177  0.3174 -0.9963
  154SAPE  H18Z17130   4.866   3.324   4.310 -0.4044 -0.6815  1.2325
  155SAPE     N17131   0.243   4.421   6.157  0.5162 -0.6604  0.4223
  155SAPE   HN117132   0.255   4.346   6.227  0.2604 -0.2854  0.8763
  155SAPE   HN217133   0.147   4.413   6.116  0.5722 -0.0931  0.1659
  155SAPE   HN317134   0.308   4.390   6.082 -2.8244 -4.8872 -1.1146
  155SAPE   C1217135   0.266   4.563   6.207  0.1791 -0.2459  0.6878
  155SAPE  H12A17136   0.244   4.631   6.122 -0.5228 -0.6781  0.5205
  155SAPE  H12B17137   0.373   4.554   6.238 -0.1079  2.0642  2.7427
  155SAPE   C1117138   0.183   4.599   6.334 -0.4358  0.5024  0.1829
  155SAPE  H11A17139   0.225   4.700   6.353  2.3886 -0.2480 -1.5199
  155SAPE  H11B17140   0.207   4.530   6.417  1.0310  2.3200  1.3326
  155SAPE     P17141  -0.057   4.647   6.409  0.7022  0.3199  0.4833
  155SAPE   O1317142  -0.045   4.554   6.520  0.4143 -0.0252 -0.1748
  155SAPE   O1417143  -0.058   4.791   6.439  0.0568 -0.2363 -0.1622
  155SAPE   O1217144   0.048   4.601   6.300 -0.0663  0.2162  0.0942
  155SAPE   O1117145  -0.196   4.618   6.325  0.5331  0.3193  0.0386
  155SAPE    C117146  -0.206   4.687   6.193  0.4159  0.1899 -0.4152
  155SAPE    HA17147  -0.311   4.723   6.193  0.3891  0.1141 -1.2265
  155SAPE    HB17148  -0.137   4.774   6.187 -0.1271  0.8555  1.8795
  155SAPE    C217149  -0.185   4.583   6.082 -0.4972 -0.4529 -0.4310
  155SAPE    HS17150  -0.077   4.560   6.075 -0.5591 -2.0629  2.3745
  155SAPE   O2117151  -0.233   4.638   5.953 -0.0040  0.4135 -0.2321
  155SAPE   C2117152  -0.148   4.725   5.894  0.3148  0.5868 -0.1668
  155SAPE   O2217153  -0.047   4.760   5.944 -0.2115 -0.4420 -0.4696
  155SAPE   C2217154  -0.209   4.774   5.759  0.2999  0.4891 -0.3878
  155SAPE   H2R17155  -0.278   4.692   5.729 -1.1645  1.6428 -0.2427
  155SAPE   H2S17156  -0.262   4.869   5.777 -1.0166 -0.5083  1.2182
  155SAPE    C317157  -0.259   4.448   6.104 -0.2264 -0.0603 -0.7295
  155SAPE    HX17158  -0.365   4.481   6.115  0.7972  3.4954 -0.1367
  155SAPE    HY17159  -0.235   4.399   6.201 -1.0747  0.9745  0.0366
  155SAPE   O3117160  -0.258   4.358   5.997 -0.4670  0.4424 -0.0173
  155SAPE   C3117161  -0.136   4.306   5.968  0.3147 -0.1712  0.4741
  155SAPE   O3217162  -0.031   4.330   6.024 -0.1372 -0.2726  0.1535
  155SAPE   C3217163  -0.142   4.224   5.844  1.0820 -0.3819  0.6160
  155SAPE   H2X17164  -0.184   4.129   5.884 -0.2641  0.5347  1.4561
  155SAPE   H2Y17165  -0.039   4.196   5.815  1.0990 -1.0370  1.2878
  155SAPE   C2317166  -0.094   4.803   5.655 -0.0039  0.3668 -0.1178
  155SAPE   H3R17167  -0.018   4.722   5.659 -0.5499 -0.1215  0.4695
  155SAPE   H3S17168  -0.051   4.901   5.685  2.5875 -1.0559  1.1633
  155SAPE   C2417169  -0.146   4.822   5.512  0.5285 -0.1671  0.0085
  155SAPE   H4R17170  -0.062   4.858   5.448  0.0512  1.1618  0.1089
  155SAPE   H4S17171  -0.207   4.915   5.510  1.1685  0.2845  0.6628
  155SAPE   C2517172  -0.209   4.699   5.453  0.3825  0.4788 -0.0556
  155SAPE   H5R17173  -0.176   4.605   5.498 -2.6168 -0.7529 -0.1789
  155SAPE   C2617174  -0.299   4.692   5.360  0.5510 -0.0892 -0.3741
  155SAPE   H6R17175  -0.339   4.595   5.326  1.0600 -0.5262  0.2458
  155SAPE   C2717176  -0.367   4.808   5.289  0.2875 -0.0792 -0.2205
  155SAPE   H7R17177  -0.299   4.892   5.262 -1.0591  0.9303 -0.5551
  155SAPE   H7S17178  -0.443   4.859   5.351  0.8680 -0.3747  0.7587
  155SAPE   C2817179  -0.439   4.769   5.166 -0.3735 -0.1088  0.9946
  155SAPE   H8R17180  -0.524   4.701   5.185 -0.8021 -0.5644 -1.9485
  155SAPE   C2917181  -0.425   4.821   5.041  0.2714  0.7885  0.3182
  155SAPE   H9R17182  -0.508   4.795   4.974  0.4193  0.8685  0.1056
  155SAPE  C21017183  -0.338   4.935   4.987  0.9824 -0.1363 -0.6344
  155SAPE  H10R17184  -0.315   4.993   5.079 -0.1541 -0.3562 -0.1905
  155SAPE  H10S17185  -0.403   5.013   4.941  0.2997 -0.2974  0.0407
  155SAPE  C21117186  -0.227   4.899   4.892  0.0849  0.5778  0.2746
  155SAPE  H11R17187  -0.128   4.896   4.940 -0.7608 -1.9473  2.0432
  155SAPE  C21217188  -0.245   4.870   4.766  0.0138  0.3242  0.7352
  155SAPE  H12R17189  -0.154   4.856   4.705 -0.2673  2.3509 -0.2157
  155SAPE  C21317190  -0.366   4.879   4.676  0.3186 -0.2967  0.0401
  155SAPE  H13R17191  -0.370   4.984   4.641  1.3012 -0.2614 -0.0173
  155SAPE  H13S17192  -0.457   4.868   4.738  1.3282  0.2743  1.6876
  155SAPE  C21417193  -0.358   4.794   4.555  0.0055 -0.2824  0.4770
  155SAPE  H14R17194  -0.259   4.754   4.529  0.1831  1.3207 -1.5108
  155SAPE  C21517195  -0.467   4.766   4.482  0.2535 -0.2108  0.0580
  155SAPE  H15R17196  -0.431   4.696   4.405  1.0381 -1.7539  1.7463
  155SAPE  C21617197  -0.608   4.807   4.508  0.5644 -0.7101 -0.2510
  155SAPE  H16R17198  -0.615   4.891   4.581 -0.5256  0.3611 -1.5315
  155SAPE  H16S17199  -0.671   4.722   4.542 -1.6218  0.4343 -1.2410
  155SAPE  C21717200  -0.681   4.859   4.383 -0.0518 -0.2347 -0.4298
  155SAPE  H17R17201  -0.616   4.919   4.315 -0.0910 -0.8762 -1.0443
  155SAPE  H17S17202  -0.763   4.927   4.413 -1.5811 -1.5470 -1.4847
  155SAPE  C21817203  -0.722   4.749   4.292  0.1257  0.3074  0.1142
  155SAPE  H18R17204  -0.804   4.692   4.340 -0.6145  0.6326 -0.7381
  155SAPE  H18S17205  -0.637   4.681   4.268 -1.1348 -0.7362 -1.6053
  155SAPE  C21917206  -0.761   4.798   4.151 -0.4930  0.0992  0.5744
  155SAPE  H19R17207  -0.672   4.849   4.107 -1.1043  0.1012 -0.6958
  155SAPE  H19S17208  -0.844   4.869   4.169 -0.6546  0.2345 -0.6145
  155SAPE  C22017209  -0.798   4.688   4.055 -0.4684  0.2456  0.4527
  155SAPE  H20R17210  -0.714   4.635   4.005  0.3203  1.1967  0.7502
  155SAPE  H20S17211  -0.869   4.720   3.975 -2.4123 -1.2628  1.4951
  155SAPE  H20T17212  -0.854   4.610   4.112  0.4193 -1.5115 -0.9581
  155SAPE   C3317213  -0.236   4.279   5.735 -0.9881  0.2995 -0.4810
  155SAPE   H3X17214  -0.228   4.390   5.732  2.1781  0.1936  0.5073
  155SAPE   H3Y17215  -0.339   4.238   5.750  0.6641 -3.9291  0.5994
  155SAPE   C3417216  -0.201   4.236   5.593 -0.7662  0.2573 -0.0132
  155SAPE   H4X17217  -0.183   4.128   5.578  1.8010  0.6634 -0.2919
  155SAPE   H4Y17218  -0.101   4.279   5.574 -0.9927  1.5167  1.3858
  155SAPE   C3517219  -0.315   4.279   5.507  0.0833 -0.3624 -0.0099
  155SAPE   H5X17220  -0.342   4.385   5.528 -0.5465 -0.4009 -0.5830
  155SAPE   H5Y17221  -0.407   4.218   5.517  2.3551 -3.9034  0.9394
  155SAPE   C3617222  -0.276   4.270   5.364 -0.4985 -0.1311  0.7034
  155SAPE   H6X17223  -0.218   4.181   5.332 -1.1298 -0.2624 -0.0946
  155SAPE   H6Y17224  -0.210   4.359   5.351 -0.4159 -0.5530 -2.5074
  155SAPE   C3717225  -0.397   4.298   5.275 -0.0963  0.3213 -0.4577
  155SAPE   H7X17226  -0.447   4.394   5.303 -2.3765 -0.7519 -0.6203
  155SAPE   H7Y17227  -0.470   4.218   5.299 -0.2774  0.9861  1.4311
  155SAPE   C3817228  -0.362   4.302   5.120  0.2846 -0.1107 -0.5459
  155SAPE   H8X17229  -0.451   4.296   5.054 -0.6353  2.0637  0.4141
  155SAPE   H8Y17230  -0.297   4.213   5.104 -0.9777 -1.0107 -0.8368
  155SAPE   C3917231  -0.290   4.420   5.083  0.3807  0.6618  0.3066
  155SAPE   H9X17232  -0.190   4.427   5.131  0.1825 -2.2401  1.3916
  155SAPE   H9Y17233  -0.356   4.507   5.100 -1.6271 -0.7717  0.2194
  155SAPE  C31017234  -0.265   4.430   4.930  0.3217 -0.0809 -0.4670
  155SAPE  H10X17235  -0.182   4.501   4.908 -0.0624  0.1903 -1.0723
  155SAPE  H10Y17236  -0.357   4.473   4.886 -0.0851 -1.0349 -0.5585
  155SAPE  C31117237  -0.229   4.299   4.866 -0.6552  0.2550 -0.6587
  155SAPE  H11X17238  -0.321   4.239   4.876  0.3740 -1.5814 -1.5703
  155SAPE  H11Y17239  -0.138   4.252   4.909 -0.4509 -0.1856 -1.5449
  155SAPE  C31217240  -0.182   4.323   4.720 -0.0626  0.3774  0.7538
  155SAPE  H12X17241  -0.153   4.225   4.676  1.7443  0.3216  1.9563
  155SAPE  H12Y17242  -0.096   4.394   4.725  1.0737 -0.7408 -1.3068
  155SAPE  C31317243  -0.278   4.393   4.625 -0.3188 -0.2545 -0.1596
  155SAPE  H13X17244  -0.222   4.410   4.531 -2.2813  1.4127 -1.1104
  155SAPE  H13Y17245  -0.312   4.495   4.654  0.0691 -0.3138  0.5191
  155SAPE  C31417246  -0.406   4.305   4.588  0.0762 -0.0023 -0.5613
  155SAPE  H14X17247  -0.461   4.307   4.684  3.3174  0.8195  1.4551
  155SAPE  H14Y17248  -0.377   4.201   4.563 -0.6018 -0.5616  0.9163
  155SAPE  C31517249  -0.480   4.367   4.473  0.0889  0.5716  0.0536
  155SAPE  H15X17250  -0.414   4.380   4.385  2.9141 -2.0852  1.5792
  155SAPE  H15Y17251  -0.514   4.466   4.511 -0.6915  0.6844 -0.9032
  155SAPE  C31617252  -0.599   4.281   4.421 -0.6771 -0.0522 -0.3253
  155SAPE  H16X17253  -0.658   4.250   4.510  0.3668  1.2427  0.8740
  155SAPE  H16Y17254  -0.567   4.185   4.375 -0.7451 -1.1709  1.7993
  155SAPE  C31717255  -0.690   4.351   4.320  0.2667 -0.0828  0.0243
  155SAPE  H17X17256  -0.633   4.377   4.228  1.2549 -0.3826  0.5285
  155SAPE  H17Y17257  -0.717   4.449   4.365 -1.5431 -0.6693  0.2789
  155SAPE  C31817258  -0.812   4.264   4.288 -0.0406  0.5725  0.3746
  155SAPE  H18X17259  -0.782   4.159   4.269  0.1104  0.8580 -1.1750
  155SAPE  H18Y17260  -0.870   4.294   4.198  1.0568 -0.7972 -0.8314
  155SAPE  H18Z17261  -0.875   4.269   4.379 -2.2884  2.1038 -1.1554
  156SAPE     N17262   2.736   6.077   6.323 -0.1139 -0.4778  0.2570
  156SAPE   HN117263   2.767   6.149   6.255 -0.3876  1.8290  2.4321
  156SAPE   HN217264   2.694   6.124   6.405 -2.0890 -0.5404 -0.6581
  156SAPE   HN317265   2.817   6.020   6.352  0.0085 -0.6971 -0.4799
  156SAPE   C1217266   2.640   5.998   6.253 -0.0729  0.7678  0.2954
  156SAPE  H12A17267   2.560   6.064   6.213 -0.5068  0.2555  0.2998
  156SAPE  H12B17268   2.592   5.929   6.327 -3.1064  2.8092  0.4370
  156SAPE   C1117269   2.702   5.930   6.130 -0.7530 -1.1869  0.0775
  156SAPE  H11A17270   2.736   6.005   6.055  1.2317 -1.8054  0.3036
  156SAPE  H11B17271   2.637   5.853   6.085  0.3108 -1.5560 -0.8747
  156SAPE     P17272   2.840   5.719   6.202 -0.5233  0.1228  0.1441
  156SAPE   O1317273   2.978   5.669   6.214 -0.5843 -0.2222  0.7083
  156SAPE   O1417274   2.752   5.698   6.314  0.5626  0.4521 -0.7191
  156SAPE   O1217275   2.826   5.869   6.173 -0.3791 -0.0852 -0.2953
  156SAPE   O1117276   2.779   5.652   6.069 -0.0372 -0.1081 -0.0007
  156SAPE    C117277   2.858   5.642   5.953 -0.0018 -0.6690 -0.0215
  156SAPE    HA17278   2.933   5.722   5.938 -1.0105  0.0342 -1.5092
  156SAPE    HB17279   2.929   5.557   5.958 -0.6935 -1.2410  0.3200
  156SAPE    C217280   2.772   5.628   5.816 -0.6426 -0.0926  0.0126
  156SAPE    HS17281   2.750   5.521   5.801 -0.5135  0.0712 -1.4899
  156SAPE   O2117282   2.849   5.681   5.705  0.4744 -0.5685 -0.1308
  156SAPE   C2117283   2.957   5.611   5.668  0.0925  0.6251  0.2250
  156SAPE   O2217284   2.995   5.511   5.727 -0.0665 -0.1825  0.4107
  156SAPE   C2217285   3.022   5.673   5.546 -0.4014  0.9828  0.1072
  156SAPE   H2R17286   2.974   5.618   5.462  1.1803  0.4923 -0.5265
  156SAPE   H2S17287   2.992   5.779   5.532  0.6944  1.4166  0.8886
  156SAPE    C317288   2.638   5.706   5.826 -0.3177 -0.4270  0.2183
  156SAPE    HX17289   2.663   5.809   5.859  2.5905 -1.3171  1.1799
  156SAPE    HY17290   2.586   5.649   5.906 -2.0005 -0.4672 -0.8540
  156SAPE   O3117291   2.577   5.686   5.701 -0.2731 -0.1520  0.1485
  156SAPE   C3117292   2.562   5.803   5.634  0.0685 -0.0637 -0.5818
  156SAPE   O3217293   2.575   5.914   5.681  0.1906 -0.0019 -0.2147
  156SAPE   C3217294   2.515   5.766   5.501  0.0772  0.6696  0.9976
  156SAPE   H2X17295   2.488   5.848   5.432  0.5478 -0.6301 -0.7995
  156SAPE   H2Y17296   2.422   5.704   5.506 -0.5989  1.5111 -0.4613
  156SAPE   C2317297   3.170   5.652   5.538 -0.2597 -1.0518  1.4882
  156SAPE   H3R17298   3.205   5.552   5.571 -0.1605 -0.6399  2.6799
  156SAPE   H3S17299   3.214   5.721   5.613 -2.1904  1.5490  0.3989
  156SAPE   C2417300   3.219   5.689   5.397 -0.6044 -0.1505  0.3069
  156SAPE   H4R17301   3.330   5.688   5.408 -0.7444 -0.9585  1.7938
  156SAPE   H4S17302   3.179   5.792   5.385  0.7597  0.1403 -2.5486
  156SAPE   C2517303   3.166   5.592   5.287  0.4600  0.2117  0.7617
  156SAPE   H5R17304   3.226   5.500   5.290  0.4178  0.1422 -0.2799
  156SAPE   C2617305   3.059   5.606   5.204 -0.2619  0.6336  0.3378
  156SAPE   H6R17306   3.042   5.538   5.120  1.6920 -1.1031  1.2348
  156SAPE   C2717307   2.983   5.731   5.195  0.5130  0.4532  0.1123
  156SAPE   H7R17308   3.038   5.813   5.144  2.1115 -0.9384 -0.5016
  156SAPE   H7S17309   2.947   5.762   5.296 -2.3467 -1.8098 -0.0661
  156SAPE   C2817310   2.846   5.726   5.131 -0.1440  0.1809 -0.1357
  156SAPE   H8R17311   2.764   5.712   5.203  0.9460 -1.1501  0.8992
  156SAPE   C2917312   2.816   5.758   5.008  0.2262 -0.8314  0.8927
  156SAPE   H9R17313   2.708   5.764   4.989  0.3212 -1.3889  0.1029
  156SAPE  C21017314   2.913   5.811   4.906  0.2854  0.2051 -0.6044
  156SAPE  H10R17315   2.987   5.731   4.884  0.6224  0.4391 -0.3476
  156SAPE  H10S17316   2.964   5.896   4.955 -1.1279 -0.2939  1.9128
  156SAPE  C21117317   2.847   5.864   4.776 -0.7091  0.6052  0.7582
  156SAPE  H11R17318   2.742   5.897   4.783 -1.7947 -2.4639  0.6125
  156SAPE  C21217319   2.921   5.876   4.657 -0.1756 -0.8083 -0.1889
  156SAPE  H12R17320   2.854   5.895   4.572 -0.6398 -3.3095 -0.4632
  156SAPE  C21317321   3.066   5.837   4.640  0.3694 -0.2091 -0.1657
  156SAPE  H13R17322   3.074   5.727   4.622 -0.1760 -0.6351  1.9168
  156SAPE  H13S17323   3.115   5.866   4.736  1.2133 -0.8948 -0.3749
  156SAPE  C21417324   3.132   5.911   4.517 -0.3976  0.8775 -0.3950
  156SAPE  H14R17325   3.133   5.853   4.423  1.6409  0.6439 -0.2901
  156SAPE  C21517326   3.156   6.041   4.507  0.0356 -0.2547 -1.2719
  156SAPE  H15R17327   3.192   6.070   4.407 -0.0118 -0.9885 -1.5039
  156SAPE  C21617328   3.169   6.141   4.620 -0.5027 -0.3207 -0.1086
  156SAPE  H16R17329   3.255   6.115   4.686 -2.0288  0.1474  2.1777
  156SAPE  H16S17330   3.076   6.151   4.680 -0.1752  2.6495  0.0466
  156SAPE  C21717331   3.186   6.280   4.559  0.2568 -0.4963 -1.0193
  156SAPE  H17R17332   3.180   6.348   4.646 -2.1238  1.1872 -2.3700
  156SAPE  H17S17333   3.092   6.290   4.501 -2.1711 -3.1454  2.0991
  156SAPE  C21817334   3.323   6.298   4.484 -0.0608  0.5592 -0.4620
  156SAPE  H18R17335   3.327   6.225   4.400 -1.1898  0.2197 -0.2424
  156SAPE  H18S17336   3.404   6.274   4.555 -0.2022 -1.0074 -0.7887
  156SAPE  C21917337   3.330   6.440   4.432  0.4073  0.0323 -0.7225
  156SAPE  H19R17338   3.310   6.504   4.520  0.7610 -0.6294 -0.1574
  156SAPE  H19S17339   3.259   6.462   4.349 -0.0229 -1.2303 -0.7049
  156SAPE  C22017340   3.469   6.484   4.394  0.4712 -0.2864  0.1117
  156SAPE  H20R17341   3.534   6.470   4.483  0.3711 -2.5421 -0.1286
  156SAPE  H20S17342   3.461   6.592   4.369  0.7446 -0.7700 -2.2567
  156SAPE  H20T17343   3.506   6.423   4.309 -0.0298 -0.1741 -0.1959
  156SAPE   C3317344   2.607   5.658   5.438 -0.5728 -0.2290  0.0763
  156SAPE   H3X17345   2.618   5.575   5.512 -0.0603 -0.7807 -0.6032
  156SAPE   H3Y17346   2.707   5.705   5.430 -0.0132 -0.8957  2.4966
  156SAPE   C3417347   2.543   5.591   5.313  1.0565 -0.1633  0.0260
  156SAPE   H4X17348   2.534   5.656   5.224 -0.0381  0.4332  0.5588
  156SAPE   H4Y17349   2.438   5.562   5.332  1.4179 -1.0428  0.7721
  156SAPE   C3517350   2.623   5.464   5.278 -0.5333 -0.9491 -0.5317
  156SAPE   H5X17351   2.605   5.393   5.362  0.7346  0.0636  0.6622
  156SAPE   H5Y17352   2.723   5.513   5.276 -1.0805  0.2805  0.6505
  156SAPE   C3617353   2.582   5.395   5.153 -0.1284  0.9483 -0.1987
  156SAPE   H6X17354   2.599   5.470   5.073 -0.8224 -2.7231 -4.1233
  156SAPE   H6Y17355   2.472   5.387   5.168  0.1172 -0.3463  1.0635
  156SAPE   C3717356   2.663   5.263   5.126  0.5816 -0.0894 -0.0589
  156SAPE   H7X17357   2.614   5.203   5.046 -0.7559 -1.2988  1.5915
  156SAPE   H7Y17358   2.660   5.206   5.221  2.1323 -0.9486 -0.5069
  156SAPE   C3817359   2.814   5.279   5.080 -0.4970 -0.3112  0.7817
  156SAPE   H8X17360   2.856   5.178   5.061  0.5887  0.6933 -3.0207
  156SAPE   H8Y17361   2.873   5.326   5.162 -1.4392 -0.8949  1.8244
  156SAPE   C3917362   2.834   5.350   4.951  0.0892 -0.3157 -0.7441
  156SAPE   H9X17363   2.808   5.457   4.959  0.3725 -0.3686  2.3146
  156SAPE   H9Y17364   2.760   5.299   4.885 -1.5512  0.0600  0.7271
  156SAPE  C31017365   2.975   5.331   4.902  0.1260 -0.8098  0.7357
  156SAPE  H10X17366   3.011   5.232   4.938  0.4500 -0.4764  1.3379
  156SAPE  H10Y17367   3.045   5.413   4.928 -2.7504  1.9322  0.4127
  156SAPE  C31117368   2.987   5.314   4.745  0.3909  0.5161 -0.2327
  156SAPE  H11X17369   2.926   5.227   4.714 -0.9377  0.9663  1.0099
  156SAPE  H11Y17370   3.088   5.274   4.724  0.2484 -0.2626  0.5246
  156SAPE  C31217371   2.950   5.439   4.666  0.5498  0.4107 -0.3250
  156SAPE  H12X17372   2.990   5.528   4.718 -1.9669 -0.0084  2.6246
  156SAPE  H12Y17373   2.839   5.447   4.664  0.2860 -2.3792 -1.9482
  156SAPE  C31317374   3.003   5.440   4.524 -0.1483  0.5379  0.7717
  156SAPE  H13X17375   3.112   5.419   4.514 -0.2826 -0.0467  0.4691
  156SAPE  H13Y17376   2.974   5.539   4.484  2.9337  0.1837 -2.8630
  156SAPE  C31417377   2.936   5.340   4.425 -0.2450  1.3487 -0.1728
  156SAPE  H14X17378   2.827   5.338   4.448 -0.2426 -0.9891 -0.1239
  156SAPE  H14Y17379   2.966   5.233   4.434 -0.9199  1.3122  2.1298
  156SAPE  C31517380   2.957   5.394   4.276  0.1116 -0.0743 -0.1357
  156SAPE  H15X17381   3.059   5.437   4.264  0.5968 -0.9165  0.7667
  156SAPE  H15Y17382   2.873   5.466   4.267 -0.2155 -0.2763  1.0741
  156SAPE  C31617383   2.937   5.281   4.182 -0.7513  0.0223 -0.3165
  156SAPE  H16X17384   2.866   5.198   4.203 -2.0889  1.0514 -0.6065
  156SAPE  H16Y17385   3.027   5.218   4.195  0.3434  1.0325 -2.5047
  156SAPE  C31717386   2.933   5.337   4.035 -0.2005  0.2556 -0.0626
  156SAPE  H17X17387   2.841   5.398   4.019 -0.7792 -0.9365 -1.6158
  156SAPE  H17Y17388   2.920   5.248   3.969 -1.1092  0.4006 -0.0995
  156SAPE  C31817389   3.062   5.408   4.002  0.1813  0.0360 -0.2224
  156SAPE  H18X17390   3.094   5.403   3.896 -1.6112  2.2825 -0.9516
  156SAPE  H18Y17391   3.142   5.369   4.069  0.5191 -0.8999 -1.1416
  156SAPE  H18Z17392   3.052   5.516   4.028 -1.0112 -0.0259 -0.3628
  157SAPE     N17393   3.313   3.474   6.426  0.6066 -0.1004 -0.3257
  157SAPE   HN117394   3.297   3.575   6.413 -0.5206 -0.5025 -2.4051
  157SAPE   HN217395   3.257   3.444   6.509 -0.7397 -2.0749 -1.8472
  157SAPE   HN317396   3.412   3.447   6.442  0.3874 -0.3293  0.7867
  157SAPE   C1217397   3.257   3.386   6.313 -0.1493 -0.0244  0.6793
  157SAPE  H12A17398   3.308   3.432   6.225 -0.2753 -2.6447 -0.8610
  157SAPE  H12B17399   3.147   3.389   6.294  0.1038 -0.7320 -1.0950
  157SAPE   C1117400   3.291   3.234   6.338 -0.2312 -0.5364 -0.1847
  157SAPE  H11A17401   3.230   3.172   6.270 -1.4447  0.8372 -0.3879
  157SAPE  H11B17402   3.264   3.207   6.442  1.2558  0.4660  0.5025
  157SAPE     P17403   3.552   3.224   6.381 -0.2987 -0.0606 -0.1626
  157SAPE   O1317404   3.533   3.344   6.461 -0.8374  0.0081  0.3221
  157SAPE   O1417405   3.596   3.102   6.459 -0.0398  0.3033 -0.2903
  157SAPE   O1217406   3.423   3.197   6.295 -0.0179  0.7378 -0.1448
  157SAPE   O1117407   3.654   3.269   6.266 -0.5675 -0.3162 -0.4255
  157SAPE    C117408   3.638   3.392   6.195  0.1737 -0.1082  0.5732
  157SAPE    HA17409   3.579   3.475   6.240 -1.2408  0.2035 -1.7145
  157SAPE    HB17410   3.739   3.438   6.187 -1.0571  2.7754  0.5802
  157SAPE    C217411   3.583   3.369   6.055 -0.5923 -0.4201  0.1425
  157SAPE    HS17412   3.476   3.346   6.069 -0.7162  0.4828  0.7517
  157SAPE   O2117413   3.665   3.277   5.981 -0.0103  0.2917 -0.2133
  157SAPE   C2117414   3.596   3.206   5.896 -0.1500 -0.1922  0.0914
  157SAPE   O2217415   3.479   3.218   5.862 -0.0759  0.0047  0.1031
  157SAPE   C2217416   3.694   3.095   5.854 -0.0674 -0.1506  0.3123
  157SAPE   H2R17417   3.795   3.136   5.833 -0.0767 -0.7945 -1.0959
  157SAPE   H2S17418   3.702   3.039   5.950  0.6946  1.4138  1.1973
  157SAPE    C317419   3.602   3.508   5.980  0.1594 -0.7684  0.0676
  157SAPE    HX17420   3.710   3.518   5.958  0.3329 -3.1189 -0.4616
  157SAPE    HY17421   3.558   3.584   6.048 -0.3712  0.0919 -1.2074
  157SAPE   O3117422   3.516   3.500   5.862 -0.9486  0.3383 -0.2276
  157SAPE   C3117423   3.576   3.493   5.744 -0.7839 -0.7577 -0.3956
  157SAPE   O3217424   3.696   3.498   5.727  0.4187  0.1286  0.3957
  157SAPE   C3217425   3.485   3.484   5.633 -0.1963 -0.1837 -0.5516
  157SAPE   H2X17426   3.399   3.550   5.656  2.6820  3.3678  0.9896
  157SAPE   H2Y17427   3.448   3.380   5.624  0.0069 -0.3086  0.0124
  157SAPE   C2317428   3.647   3.006   5.734  0.2322 -0.5385 -0.2312
  157SAPE   H3R17429   3.612   3.074   5.653  0.8690  1.8094  1.3488
  157SAPE   H3S17430   3.557   2.955   5.774 -1.2351  0.2271 -2.4091
  157SAPE   C2417431   3.755   2.920   5.675  0.6620  0.2663 -0.4318
  157SAPE   H4R17432   3.823   2.868   5.745  0.8004 -0.1046 -0.8374
  157SAPE   H4S17433   3.822   2.988   5.617 -0.5664  2.5749  0.7302
  157SAPE   C2517434   3.682   2.818   5.592  0.1382 -0.3077  0.1220
  157SAPE   H5R17435   3.619   2.864   5.514  1.3021 -0.9820 -1.2739
  157SAPE   C2617436   3.697   2.684   5.584 -0.6662  0.0669 -0.1686
  157SAPE   H6R17437   3.638   2.627   5.511 -0.1988  0.4649 -0.8671
  157SAPE   C2717438   3.781   2.605   5.680  0.7249  0.0975  0.7304
  157SAPE   H7R17439   3.877   2.661   5.685  0.4342  0.9616 -1.7077
  157SAPE   H7S17440   3.806   2.515   5.621  0.9224  0.3289  0.4567
  157SAPE   C2817441   3.717   2.586   5.814 -0.4088 -0.8669 -0.1738
  157SAPE   H8R17442   3.719   2.687   5.857 -0.3649 -0.8841 -0.1348
  157SAPE   C2917443   3.681   2.476   5.881 -0.5331 -0.8820 -0.7298
  157SAPE   H9R17444   3.639   2.483   5.983 -1.1116 -0.4790 -0.9939
  157SAPE  C21017445   3.693   2.336   5.832 -0.1634 -1.0248 -0.3474
  157SAPE  H10R17446   3.798   2.307   5.814  0.1641  0.5890 -1.2515
  157SAPE  H10S17447   3.640   2.333   5.734  0.8153  0.7225 -0.9856
  157SAPE  C21117448   3.631   2.240   5.933 -0.4899  0.7684  0.1942
  157SAPE  H11R17449   3.526   2.244   5.965 -0.0300  0.0735  1.8842
  157SAPE  C21217450   3.688   2.138   6.005 -0.3377  0.2457  0.2289
  157SAPE  H12R17451   3.615   2.075   6.057 -1.0531  0.1493 -0.8683
  157SAPE  C21317452   3.829   2.071   6.009  0.8531 -0.2685 -0.3762
  157SAPE  H13R17453   3.853   2.056   6.116  1.8049 -0.2517 -0.5801
  157SAPE  H13S17454   3.906   2.138   5.964  0.2493  0.3228 -0.5407
  157SAPE  C21417455   3.823   1.931   5.945 -0.2787 -0.5207  0.5374
  157SAPE  H14R17456   3.819   1.850   6.019  0.0974 -0.2363  0.8774
  157SAPE  C21517457   3.844   1.897   5.811  0.4259  0.8415 -0.9828
  157SAPE  H15R17458   3.841   1.789   5.790  1.8387  0.3053  1.2339
  157SAPE  C21617459   3.879   1.983   5.702  0.2963 -0.3001  0.4931
  157SAPE  H16R17460   3.957   1.934   5.639  1.5235 -0.3471  2.0100
  157SAPE  H16S17461   3.929   2.077   5.731  0.3531 -0.0830 -0.2776
  157SAPE  C21717462   3.745   2.012   5.625 -0.3597  1.0233  0.7614
  157SAPE  H17R17463   3.687   2.067   5.702  0.8627  2.2854  0.8146
  157SAPE  H17S17464   3.692   1.919   5.598 -0.6172  1.5124 -0.4541
  157SAPE  C21817465   3.776   2.099   5.503 -0.0676 -0.1783  0.3360
  157SAPE  H18R17466   3.859   2.053   5.445 -2.0633 -1.2772 -1.8591
  157SAPE  H18S17467   3.808   2.200   5.535  1.5249 -0.4390 -0.3541
  157SAPE  C21917468   3.650   2.133   5.410  0.2288 -0.2404  0.4848
  157SAPE  H19R17469   3.573   2.182   5.473  0.9852  0.7649  0.6689
  157SAPE  H19S17470   3.619   2.034   5.371  2.9100 -0.9714 -0.0433
  157SAPE  C22017471   3.695   2.220   5.296  0.9743  0.5029  0.0785
  157SAPE  H20R17472   3.755   2.305   5.333  1.1673  1.1718 -1.6686
  157SAPE  H20S17473   3.597   2.253   5.254  0.4743 -1.6309 -0.5939
  157SAPE  H20T17474   3.759   2.161   5.226 -1.8885 -1.2841 -1.2267
  157SAPE   C3317475   3.563   3.524   5.502  0.1562  0.0469  0.0532
  157SAPE   H3X17476   3.634   3.443   5.472  0.3173 -0.0352  0.6373
  157SAPE   H3Y17477   3.625   3.616   5.512  0.2915 -0.1551  1.2438
  157SAPE   C3417478   3.467   3.555   5.381  0.1834  0.1288 -0.4328
  157SAPE   H4X17479   3.418   3.654   5.389 -2.2869 -1.0444 -0.0009
  157SAPE   H4Y17480   3.390   3.475   5.386 -1.1561  1.3407 -1.0783
  157SAPE   C3517481   3.554   3.535   5.254  0.1857 -1.0856  0.4991
  157SAPE   H5X17482   3.587   3.429   5.247 -2.5007 -2.0201  0.7816
  157SAPE   H5Y17483   3.644   3.598   5.272 -0.0052 -0.2760 -1.2421
  157SAPE   C3617484   3.473   3.571   5.119 -0.0516  0.3000 -0.5384
  157SAPE   H6X17485   3.551   3.556   5.042  2.2130 -2.3251  1.9846
  157SAPE   H6Y17486   3.439   3.675   5.135 -0.8926  0.0243 -0.4535
  157SAPE   C3717487   3.349   3.492   5.106 -0.2733  0.4645  0.5037
  157SAPE   H7X17488   3.289   3.505   5.198 -0.2350 -3.7276  1.3231
  157SAPE   H7Y17489   3.379   3.386   5.116 -1.2905  0.3466  2.9024
  157SAPE   C3817490   3.261   3.512   4.981 -0.5332  0.2925 -0.6211
  157SAPE   H8X17491   3.227   3.618   4.983 -1.3122  0.0337  0.8159
  157SAPE   H8Y17492   3.175   3.442   4.992  0.6429 -0.9811  0.6945
  157SAPE   C3917493   3.345   3.483   4.858 -0.0547 -0.5908 -0.4132
  157SAPE   H9X17494   3.353   3.372   4.850 -0.6308 -0.6014 -0.9580
  157SAPE   H9Y17495   3.452   3.509   4.853  0.3563 -1.9493  0.6539
  157SAPE  C31017496   3.251   3.533   4.743  0.1177 -0.6767 -0.0455
  157SAPE  H10X17497   3.287   3.633   4.711 -1.3705  0.1392  0.7549
  157SAPE  H10Y17498   3.149   3.541   4.785  0.9523  0.0107  1.9855
  157SAPE  C31117499   3.251   3.427   4.623  0.2317 -0.8247 -0.3408
  157SAPE  H11X17500   3.184   3.345   4.655 -1.0561  0.6981  1.0876
  157SAPE  H11Y17501   3.357   3.398   4.607  0.9745  1.5317 -0.1815
  157SAPE  C31217502   3.190   3.503   4.507  0.1111 -0.2808 -0.5010
  157SAPE  H12X17503   3.260   3.586   4.482  1.8867 -1.9962 -1.5166
  157SAPE  H12Y17504   3.096   3.547   4.546  1.3009 -0.0764  2.4237
  157SAPE  C31317505   3.178   3.414   4.387  0.0243 -0.0082  0.3943
  157SAPE  H13X17506   3.202   3.311   4.420 -1.3516 -1.2193 -2.1102
  157SAPE  H13Y17507   3.260   3.439   4.315  0.1501 -1.7704 -0.1133
  157SAPE  C31417508   3.035   3.425   4.334  1.0305  0.4999  0.2631
  157SAPE  H14X17509   3.018   3.404   4.226  1.0281  1.7837 -0.0079
  157SAPE  H14Y17510   2.987   3.524   4.349 -1.3091 -0.1906 -1.9186
  157SAPE  C31517511   2.940   3.323   4.404  0.5331 -1.0451  0.0903
  157SAPE  H15X17512   2.947   3.340   4.514  2.1489 -1.5825  0.0953
  157SAPE  H15Y17513   2.976   3.220   4.388  2.1215 -0.6328  0.7585
  157SAPE  C31617514   2.791   3.338   4.371  0.0051  0.0008  0.1964
  157SAPE  H16X17515   2.761   3.444   4.363  1.2711  0.3167 -0.4914
  157SAPE  H16Y17516   2.739   3.279   4.450  0.1991 -2.5002 -1.4181
  157SAPE  C31717517   2.759   3.267   4.240 -0.1964 -0.6990  0.5453
  157SAPE  H17X17518   2.810   3.168   4.243  1.7653  0.2867  2.6167
  157SAPE  H17Y17519   2.812   3.318   4.157 -0.0220 -0.9491  0.5014
  157SAPE  C31817520   2.611   3.261   4.215 -0.4496  0.4353 -0.3857
  157SAPE  H18X17521   2.580   3.201   4.126 -2.3245 -0.8416  1.0469
  157SAPE  H18Y17522   2.560   3.360   4.209 -0.7266  0.5019  2.0156
  157SAPE  H18Z17523   2.573   3.214   4.308  3.0540  2.0135  2.0508
  158SAPE     N17524   6.263   2.429   6.954 -0.2632  0.3244  0.2846
  158SAPE   HN117525   6.215   2.352   6.904  0.5840 -0.8063  1.1448
  158SAPE   HN217526   6.343   2.390   7.009  0.0250 -0.0206 -0.3609
  158SAPE   HN317527   6.194   2.477   7.015  0.9900  0.7607  1.4227
  158SAPE   C1217528   6.318   2.526   6.852 -0.5489  0.6600 -0.1879
  158SAPE  H12A17529   6.401   2.474   6.798  0.7963  0.2430  2.1044
  158SAPE  H12B17530   6.376   2.611   6.895 -0.3878  0.9613 -0.9796
  158SAPE   C1117531   6.209   2.573   6.762  0.8293  0.2125  0.4932
  158SAPE  H11A17532   6.160   2.493   6.703 -0.9837  1.4772  0.1919
  158SAPE  H11B17533   6.242   2.633   6.675 -0.3216  1.2228  0.7258
  158SAPE     P17534   6.118   2.812   6.855  0.3395  0.5761 -0.0156
  158SAPE   O1317535   5.997   2.850   6.929 -0.2467 -0.2350  0.3058
  158SAPE   O1417536   6.250   2.847   6.919  0.3355 -0.5085  0.0289
  158SAPE   O1217537   6.112   2.648   6.835 -0.0488 -0.4419 -0.0921
  158SAPE   O1117538   6.122   2.871   6.707 -0.2007 -0.5833  0.2675
  158SAPE    C117539   6.007   2.866   6.622 -0.6697  0.4290  0.7199
  158SAPE    HA17540   5.916   2.825   6.672 -1.3829 -1.0233 -1.5700
  158SAPE    HB17541   5.978   2.964   6.578  2.2419  0.6895 -0.8626
  158SAPE    C217542   6.033   2.785   6.489  0.5157 -0.1644  0.3977
  158SAPE    HS17543   6.057   2.681   6.523  0.0691 -0.2916  0.3341
  158SAPE   O2117544   6.154   2.841   6.428 -0.1498  0.5159 -0.0921
  158SAPE   C2117545   6.254   2.763   6.392  0.2211 -0.1037 -0.8144
  158SAPE   O2217546   6.257   2.643   6.410 -0.3202  0.1639  0.1022
  158SAPE   C2217547   6.363   2.849   6.330 -0.6749  0.4560  0.0578
  158SAPE   H2R17548   6.380   2.937   6.395 -0.0774 -0.2749  0.9100
  158SAPE   H2S17549   6.455   2.787   6.339  0.0689  1.4465 -0.4427
  158SAPE    C317550   5.920   2.779   6.381  0.2810  0.1347  0.0982
  158SAPE    HX17551   5.912   2.868   6.315 -1.1820 -0.8939 -1.1942
  158SAPE    HY17552   5.829   2.784   6.444  0.5023 -0.6509  0.4910
  158SAPE   O3117553   5.927   2.668   6.293  0.3017  0.0500 -0.2094
  158SAPE   C3117554   5.978   2.686   6.173  0.2070 -0.8333  0.3001
  158SAPE   O3217555   6.009   2.790   6.119 -0.0916  0.0574  0.0930
  158SAPE   C3217556   5.989   2.554   6.104 -0.3971  0.4798  0.3655
  158SAPE   H2X17557   5.914   2.488   6.152 -1.0428  1.0894  0.2170
  158SAPE   H2Y17558   6.094   2.521   6.118 -0.0638  1.3863  0.0948
  158SAPE   C2317559   6.332   2.872   6.178  0.4313 -0.4473 -0.0673
  158SAPE   H3R17560   6.252   2.949   6.183  2.3697  1.7047 -0.6900
  158SAPE   H3S17561   6.293   2.773   6.145 -0.8737 -0.7012  2.0028
  158SAPE   C2417562   6.442   2.909   6.086 -0.1076 -0.7166 -0.7432
  158SAPE   H4R17563   6.506   2.989   6.128 -0.6284  0.2525 -1.7529
  158SAPE   H4S17564   6.393   2.972   6.009 -1.0543  0.3313  0.6446
  158SAPE   C2517565   6.527   2.797   6.031 -0.8990  0.5057 -0.0854
  158SAPE   H5R17566   6.575   2.737   6.109 -1.8069 -1.8834 -1.2616
  158SAPE   C2617567   6.515   2.743   5.906 -0.1727  0.8683  0.0805
  158SAPE   H6R17568   6.600   2.690   5.861  1.1634  2.3769  0.7258
  158SAPE   C2717569   6.429   2.807   5.799  0.6887 -0.4580  0.4830
  158SAPE   H7R17570   6.325   2.824   5.834  0.9342  2.9767 -0.0250
  158SAPE   H7S17571   6.424   2.731   5.718  2.7441 -0.4288  0.2800
  158SAPE   C2817572   6.465   2.937   5.736 -0.1006  0.0101 -0.6581
  158SAPE   H8R17573   6.444   3.023   5.801 -3.0000  0.9023 -2.5636
  158SAPE   C2917574   6.501   2.952   5.609  0.8978 -0.0881  0.2561
  158SAPE   H9R17575   6.537   3.051   5.579  0.0599  0.0051 -0.4791
  158SAPE  C21017576   6.517   2.849   5.507  0.4021  0.4132  0.1593
  158SAPE  H10R17577   6.418   2.842   5.457  1.4229 -0.1272 -1.8844
  158SAPE  H10S17578   6.524   2.745   5.545  1.7830  0.8869  1.2936
  158SAPE  C21117579   6.620   2.878   5.407 -0.3922  0.2979  1.0124
  158SAPE  H11R17580   6.715   2.823   5.416  0.6450  0.8169 -3.6400
  158SAPE  C21217581   6.611   2.960   5.299  0.4861  0.0734 -0.6504
  158SAPE  H12R17582   6.700   2.957   5.235  0.9034  1.1491 -0.1578
  158SAPE  C21317583   6.485   3.033   5.252  0.4906  0.3646  0.0889
  158SAPE  H13R17584   6.503   3.128   5.197 -0.7633  0.4298 -0.2263
  158SAPE  H13S17585   6.423   3.070   5.336 -0.3903  2.2844 -1.3283
  158SAPE  C21417586   6.398   2.943   5.162  0.4172  0.4768  0.0826
  158SAPE  H14R17587   6.417   2.835   5.159 -0.4469  0.3016  0.5167
  158SAPE  C21517588   6.314   2.992   5.063  0.7080  0.0136 -0.7874
  158SAPE  H15R17589   6.266   2.920   4.995 -1.2729  0.5034  0.0359
  158SAPE  C21617590   6.272   3.139   5.035  0.2767 -0.2169  0.0152
  158SAPE  H16R17591   6.346   3.211   5.075 -0.6308  1.4629 -1.2532
  158SAPE  H16S17592   6.167   3.155   5.069 -0.2615  0.4907 -1.8579
  158SAPE  C21717593   6.278   3.158   4.882 -0.8209 -0.2878  0.6979
  158SAPE  H17R17594   6.239   3.259   4.858  1.0551  0.3242  0.0293
  158SAPE  H17S17595   6.214   3.081   4.834 -0.3974 -0.7301  0.8308
  158SAPE  C21817596   6.419   3.156   4.817  0.0590 -0.5405 -1.2312
  158SAPE  H18R17597   6.442   3.048   4.812  1.8858 -0.1709 -1.6052
  158SAPE  H18S17598   6.491   3.207   4.885 -0.8304 -1.1362  0.2157
  158SAPE  C21917599   6.411   3.217   4.679  0.1553  0.1775 -0.3861
  158SAPE  H19R17600   6.380   3.322   4.666  0.3720  0.4098  0.8286
  158SAPE  H19S17601   6.334   3.164   4.619  0.6643  0.7432 -1.5672
  158SAPE  C22017602   6.549   3.217   4.605  0.2608 -0.1721 -0.3399
  158SAPE  H20R17603   6.526   3.242   4.499 -0.3919 -1.4922 -0.5336
  158SAPE  H20S17604   6.596   3.116   4.601  0.3596 -0.1025 -1.1692
  158SAPE  H20T17605   6.613   3.293   4.655  2.8915 -2.8921  0.7898
  158SAPE   C3317606   5.970   2.556   5.949  0.7316 -0.0429  0.5135
  158SAPE   H3X17607   5.882   2.622   5.934  0.1988 -1.4557 -3.6989
  158SAPE   H3Y17608   5.934   2.458   5.912  3.2912 -0.4285 -1.2486
  158SAPE   C3417609   6.087   2.599   5.869  0.5465  0.6222  0.1260
  158SAPE   H4X17610   6.158   2.514   5.872 -1.0851 -1.1339 -3.9424
  158SAPE   H4Y17611   6.119   2.696   5.913 -2.6040  1.7956  0.0479
  158SAPE   C3517612   6.046   2.606   5.720 -0.1135 -0.1648 -0.3858
  158SAPE   H5X17613   5.956   2.670   5.706  0.4467  0.5634 -0.7151
  158SAPE   H5Y17614   6.009   2.505   5.691  0.7503 -0.4541 -0.5328
  158SAPE   C3617615   6.148   2.646   5.614 -0.4808  0.2710  0.4936
  158SAPE   H6X17616   6.245   2.593   5.626  1.1237  2.3006 -2.3055
  158SAPE   H6Y17617   6.170   2.754   5.626  0.1625  0.3471 -1.1572
  158SAPE   C3717618   6.086   2.628   5.472 -0.1055 -0.2788 -0.7003
  158SAPE   H7X17619   5.979   2.657   5.477  0.2136  0.7650  0.4700
  158SAPE   H7Y17620   6.085   2.519   5.446 -0.8779 -0.4434 -0.0215
  158SAPE   C3817621   6.158   2.706   5.371  0.3268  0.3665 -0.9229
  158SAPE   H8X17622   6.259   2.659   5.367 -0.1975 -0.9318  0.4116
  158SAPE   H8Y17623   6.160   2.811   5.407  0.6479 -0.5492  1.9874
  158SAPE   C3917624   6.090   2.697   5.232 -0.4527  0.1810 -0.2604
  158SAPE   H9X17625   6.101   2.592   5.197  0.7058 -0.2466  1.2815
  158SAPE   H9Y17626   6.157   2.761   5.171  1.7193  0.7010  2.4641
  158SAPE  C31017627   5.948   2.758   5.238  0.4972  0.4579 -0.4629
  158SAPE  H10X17628   5.953   2.845   5.307  1.1494  0.5295 -0.5960
  158SAPE  H10Y17629   5.886   2.693   5.304  1.7297  0.9145  1.2030
  158SAPE  C31117630   5.895   2.800   5.099 -0.2476 -0.4749  0.1299
  158SAPE  H11X17631   5.787   2.779   5.109 -0.6524  1.5610  0.3869
  158SAPE  H11Y17632   5.943   2.740   5.018 -0.6573  1.5173 -1.6703
  158SAPE  C31217633   5.921   2.944   5.073 -0.1640  0.0937  0.6380
  158SAPE  H12X17634   6.028   2.971   5.083  1.0254 -4.0324  0.8356
  158SAPE  H12Y17635   5.868   3.000   5.153 -1.1145 -0.9363  0.7606
  158SAPE  C31317636   5.873   2.994   4.935 -0.1465  0.3244 -0.2889
  158SAPE  H13X17637   5.869   3.104   4.923 -2.0591  0.2574 -0.6189
  158SAPE  H13Y17638   5.774   2.951   4.911 -0.2564  0.6296 -0.3861
  158SAPE  C31417639   5.964   2.935   4.831 -0.7706  0.2594  0.5740
  158SAPE  H14X17640   5.983   2.826   4.830  1.0283  0.4733 -3.0367
  158SAPE  H14Y17641   6.069   2.967   4.851 -0.7578  0.4525  0.2035
  158SAPE  C31517642   5.919   2.968   4.684 -0.8044  0.0186 -0.8394
  158SAPE  H15X17643   5.926   3.079   4.675 -0.0863 -0.0792 -1.5523
  158SAPE  H15Y17644   5.812   2.944   4.665 -1.2081  1.4313 -0.4655
  158SAPE  C31617645   6.015   2.904   4.577  0.3683 -0.1162 -0.8658
  158SAPE  H16X17646   5.968   2.909   4.477  1.3670 -1.2651 -1.4229
  158SAPE  H16Y17647   6.034   2.797   4.600 -0.3452 -0.2387 -0.8235
  158SAPE  C31717648   6.153   2.974   4.574  0.1614  0.1075  0.0080
  158SAPE  H17X17649   6.202   2.956   4.672  0.8203  1.4823 -0.0553
  158SAPE  H17Y17650   6.126   3.081   4.563  0.3207  0.1392 -0.0765
  158SAPE  C31817651   6.241   2.932   4.458 -0.7974  0.1294 -0.4881
  158SAPE  H18X17652   6.229   2.824   4.433  1.3569 -0.3974  0.4406
  158SAPE  H18Y17653   6.348   2.952   4.482 -0.7619  0.3800 -0.8484
  158SAPE  H18Z17654   6.219   2.996   4.371 -0.6163  2.2802  0.9794
  159SAPE     N17655   0.657   1.689   2.023  0.2040 -0.2588 -0.7891
  159SAPE   HN117656   0.649   1.761   1.949 -2.2125  0.2692 -0.0905
  159SAPE   HN217657   0.707   1.613   1.972 -2.2023 -1.8231 -0.9609
  159SAPE   HN317658   0.567   1.654   2.061  0.8456 -0.5991  0.5067
  159SAPE   C1217659   0.747   1.723   2.143 -0.7996 -0.1922 -0.3881
  159SAPE  H12A17660   0.748   1.639   2.215 -1.8488 -0.0265 -0.1597
  159SAPE  H12B17661   0.699   1.804   2.201  0.4752  1.0993 -1.0651
  159SAPE   C1117662   0.881   1.781   2.106  0.7234 -0.2153  0.3891
  159SAPE  H11A17663   0.915   1.860   2.176  1.2063  0.5310 -0.6545
  159SAPE  H11B17664   0.871   1.827   2.005 -3.0883  1.7623  1.4751
  159SAPE     P17665   1.127   1.685   2.094 -0.4481 -0.4067  0.1914
  159SAPE   O1317666   1.177   1.570   2.019 -0.0006  0.0965 -0.3748
  159SAPE   O1417667   1.161   1.817   2.036  0.0748  0.3784 -0.1469
  159SAPE   O1217668   0.973   1.671   2.104 -0.4819 -0.5826  0.2589
  159SAPE   O1117669   1.169   1.683   2.245 -0.3959 -0.2180  0.1465
  159SAPE    C117670   1.106   1.589   2.339  0.2311  0.3411  0.4279
  159SAPE    HA17671   1.002   1.556   2.319  0.6648 -1.6788  1.1906
  159SAPE    HB17672   1.166   1.496   2.349 -0.1398 -0.1907 -1.7694
  159SAPE    C217673   1.098   1.657   2.483 -0.5425 -0.4874  0.3703
  159SAPE    HS17674   1.038   1.749   2.462  0.3404  0.0202  0.0140
  159SAPE   O2117675   1.227   1.688   2.538 -0.1705  0.3796 -0.0469
  159SAPE   C2117676   1.270   1.810   2.527 -0.3704  0.9262 -0.2553
  159SAPE   O2217677   1.220   1.906   2.474  0.5099  0.3371 -0.0612
  159SAPE   C2217678   1.389   1.824   2.622 -0.1457 -0.2711  0.3856
  159SAPE   H2R17679   1.410   1.737   2.688  1.3181 -1.6375 -1.7631
  159SAPE   H2S17680   1.465   1.832   2.542 -1.3158  0.8045 -0.6475
  159SAPE    C317681   1.033   1.554   2.577  0.0203  0.3154  0.4489
  159SAPE    HX17682   1.091   1.459   2.577 -1.2942 -0.5361 -0.5903
  159SAPE    HY17683   0.935   1.528   2.532  0.6114  0.0025 -0.7076
  159SAPE   O3117684   1.027   1.588   2.709  0.2641 -0.1619 -0.3465
  159SAPE   C3117685   0.933   1.676   2.738  0.0025  0.3624 -0.1659
  159SAPE   O3217686   0.847   1.708   2.656  0.3915 -0.9914  0.1049
  159SAPE   C3217687   0.923   1.715   2.889  0.4220 -0.0321 -0.4000
  159SAPE   H2X17688   0.998   1.796   2.903  0.2476  0.5079 -2.3704
  159SAPE   H2Y17689   0.951   1.620   2.940 -1.9359 -1.0828 -0.9329
  159SAPE   C2317690   1.387   1.950   2.714 -0.2240  0.7836  0.4636
  159SAPE   H3R17691   1.360   2.030   2.642 -0.6827 -0.0730 -0.3370
  159SAPE   H3S17692   1.485   1.982   2.755  0.0669  0.9601 -0.3305
  159SAPE   C2417693   1.273   1.945   2.813 -0.0890 -0.4867  0.3119
  159SAPE   H4R17694   1.285   1.842   2.853  1.6373 -0.5476 -0.2704
  159SAPE   H4S17695   1.178   1.942   2.755  1.3908 -1.1703 -2.2244
  159SAPE   C2517696   1.279   2.059   2.912 -0.0156 -0.3744  0.6156
  159SAPE   H5R17697   1.257   2.159   2.870 -1.3980 -0.8892  0.0675
  159SAPE   C2617698   1.329   2.054   3.038  0.6653 -0.2617 -0.4193
  159SAPE   H6R17699   1.344   2.148   3.093  1.0761 -0.6261  0.0924
  159SAPE   C2717700   1.366   1.932   3.112 -0.4281  0.7759  0.0682
  159SAPE   H7R17701   1.417   1.966   3.205 -1.2519 -1.4484  1.4126
  159SAPE   H7S17702   1.443   1.883   3.049 -0.8124 -3.9275  2.7919
  159SAPE   C2817703   1.262   1.827   3.142 -0.0720  0.1819 -0.4888
  159SAPE   H8R17704   1.223   1.784   3.049 -2.0261 -2.4405  1.3802
  159SAPE   C2917705   1.201   1.788   3.254 -0.0336  0.3735 -0.6162
  159SAPE   H9R17706   1.128   1.705   3.255  0.7653 -0.3782  1.7272
  159SAPE  C21017707   1.234   1.847   3.391 -0.8137 -0.4865 -0.5982
  159SAPE  H10R17708   1.282   1.947   3.390 -0.3061 -0.7320 -0.9464
  159SAPE  H10S17709   1.307   1.776   3.435  2.2131  2.2466 -0.8767
  159SAPE  C21117710   1.111   1.848   3.484  0.9336 -1.1475 -0.1794
  159SAPE  H11R17711   1.016   1.819   3.437  1.6283 -2.1747 -0.9951
  159SAPE  C21217712   1.111   1.847   3.618  0.2208  0.4648  0.2652
  159SAPE  H12R17713   1.014   1.855   3.670 -0.6720  0.6779 -1.3935
  159SAPE  C21317714   1.231   1.849   3.713  0.1266 -0.1736  0.1715
  159SAPE  H13R17715   1.325   1.871   3.657 -0.6023 -0.3763 -1.1754
  159SAPE  H13S17716   1.242   1.753   3.768 -0.2359 -1.2639 -1.5820
  159SAPE  C21417717   1.208   1.961   3.811 -0.4850 -0.4589  0.8505
  159SAPE  H14R17718   1.124   1.946   3.881 -1.7572  0.8707 -0.3377
  159SAPE  C21517719   1.262   2.087   3.819 -0.8793  0.6920 -0.3949
  159SAPE  H15R17720   1.239   2.147   3.909 -0.1241 -0.2191  0.4296
  159SAPE  C21617721   1.367   2.149   3.728 -0.7236  0.0294 -0.2546
  159SAPE  H16R17722   1.433   2.084   3.665  1.4397  1.8536  0.0262
  159SAPE  H16S17723   1.429   2.202   3.802 -1.3716 -0.9215  1.0126
  159SAPE  C21717724   1.297   2.239   3.622 -0.2798 -0.2148 -0.1423
  159SAPE  H17R17725   1.241   2.312   3.684 -1.5721 -2.1715  1.1226
  159SAPE  H17S17726   1.232   2.167   3.569 -0.2864 -0.2093 -0.1415
  159SAPE  C21817727   1.395   2.322   3.537  0.4947 -0.1390 -0.0396
  159SAPE  H18R17728   1.501   2.313   3.568  0.5683 -0.1252 -0.2858
  159SAPE  H18S17729   1.367   2.428   3.553 -0.5164 -0.4861  0.5700
  159SAPE  C21917730   1.377   2.299   3.385  0.2240 -0.8024 -0.4539
  159SAPE  H19R17731   1.413   2.196   3.365  0.6017 -1.5429  3.3038
  159SAPE  H19S17732   1.430   2.382   3.333 -2.2241  1.1092 -0.1141
  159SAPE  C22017733   1.235   2.305   3.327 -0.4348 -0.3741  0.3700
  159SAPE  H20R17734   1.188   2.390   3.381 -0.2505  0.0688 -0.1513
  159SAPE  H20S17735   1.185   2.210   3.355 -1.6077  0.2803  0.6062
  159SAPE  H20T17736   1.238   2.308   3.216  3.4756  1.9985  0.3400
  159SAPE   C3317737   0.786   1.769   2.937 -0.8695  0.6375  0.3919
  159SAPE   H3X17738   0.710   1.698   2.898  0.5840 -0.5288 -0.4128
  159SAPE   H3Y17739   0.768   1.873   2.902 -0.1001  0.2573 -1.2451
  159SAPE   C3417740   0.768   1.759   3.088 -0.5159 -0.3746  0.6453
  159SAPE   H4X17741   0.847   1.827   3.124 -0.2255  0.6374 -1.6834
  159SAPE   H4Y17742   0.814   1.661   3.110  1.9967  0.9241  1.5616
  159SAPE   C3517743   0.625   1.781   3.144  0.0765  0.5066 -0.1896
  159SAPE   H5X17744   0.568   1.697   3.100  1.3627 -0.0608 -0.8138
  159SAPE   H5Y17745   0.581   1.870   3.094 -3.8898 -1.5036 -0.7373
  159SAPE   C3617746   0.624   1.787   3.294 -0.2736  0.7612 -0.5557
  159SAPE   H6X17747   0.683   1.698   3.327  0.3492  0.5893 -2.0066
  159SAPE   H6Y17748   0.522   1.795   3.337 -0.1685 -2.7706  0.7129
  159SAPE   C3717749   0.698   1.908   3.349 -0.4055  0.1250  0.0955
  159SAPE   H7X17750   0.660   1.997   3.294  1.3054  0.0467 -1.3358
  159SAPE   H7Y17751   0.806   1.903   3.321 -0.8748  0.4787 -1.9136
  159SAPE   C3817752   0.683   1.927   3.493  0.4272  0.2224  0.0447
  159SAPE   H8X17753   0.713   1.839   3.555 -2.8823 -0.6226  0.6443
  159SAPE   H8Y17754   0.574   1.938   3.513  0.0776 -1.2929 -0.8440
  159SAPE   C3917755   0.743   2.057   3.543 -0.6742  0.2075 -0.2477
  159SAPE   H9X17756   0.721   2.140   3.472  0.6490 -0.1067 -1.0616
  159SAPE   H9Y17757   0.854   2.054   3.539 -0.3484 -0.0784  3.9784
  159SAPE  C31017758   0.705   2.098   3.685  0.9462 -0.5982 -0.3551
  159SAPE  H10X17759   0.594   2.109   3.686  1.1513  2.5756 -1.1997
  159SAPE  H10Y17760   0.754   2.197   3.686  0.2099 -0.2201  0.3906
  159SAPE  C31117761   0.765   2.010   3.797 -0.6633  0.0508 -0.7237
  159SAPE  H11X17762   0.869   1.980   3.776 -0.6692 -1.5643  1.2635
  159SAPE  H11Y17763   0.703   1.918   3.795  1.6368 -1.6677  1.1017
  159SAPE  C31217764   0.760   2.076   3.933  0.1798 -0.0724 -0.0426
  159SAPE  H12X17765   0.724   2.180   3.915  1.2551  0.0233 -1.9387
  159SAPE  H12Y17766   0.860   2.083   3.980  0.0460 -0.4096  0.2901
  159SAPE  C31317767   0.680   2.008   4.034 -0.2777 -0.3180  0.2505
  159SAPE  H13X17768   0.713   1.902   4.043  1.3362 -0.0911 -2.0969
  159SAPE  H13Y17769   0.575   2.004   3.999  0.1643  2.3259 -1.6615
  159SAPE  C31417770   0.676   2.066   4.183  0.3188  0.4414  0.2591
  159SAPE  H14X17771   0.782   2.066   4.217  0.3060  1.8939  0.3781
  159SAPE  H14Y17772   0.620   1.993   4.246  0.1282  0.4781  0.1329
  159SAPE  C31517773   0.619   2.205   4.196  0.1686 -0.4444 -0.4499
  159SAPE  H15X17774   0.530   2.213   4.131 -0.4796  1.0601  0.5690
  159SAPE  H15Y17775   0.688   2.280   4.152  0.5023  0.9969  2.3171
  159SAPE  C31617776   0.584   2.236   4.337  0.1351  0.5786 -0.5292
  159SAPE  H16X17777   0.671   2.271   4.396 -0.5909 -0.4948  1.2398
  159SAPE  H16Y17778   0.543   2.152   4.397 -1.8783  1.6768 -0.2770
  159SAPE  C31717779   0.478   2.347   4.357  0.1227  0.3635  0.6947
  159SAPE  H17X17780   0.389   2.316   4.297 -0.1760 -0.3281  1.4798
  159SAPE  H17Y17781   0.519   2.442   4.316 -2.8346  0.4872 -2.4334
  159SAPE  C31817782   0.454   2.368   4.508 -0.0947 -0.8082 -0.2901
  159SAPE  H18X17783   0.451   2.266   4.552 -0.4018 -0.6322  0.1042
  159SAPE  H18Y17784   0.356   2.416   4.531 -0.1796 -1.3160  0.4416
  159SAPE  H18Z17785   0.526   2.421   4.574 -2.1114 -0.9568  2.2047
  160SAPE     N17786   1.859   0.631   2.199  0.0352 -0.3291 -0.5550
  160SAPE   HN117787   1.782   0.699   2.217 -0.3494 -1.6146  3.9813
  160SAPE   HN217788   1.929   0.639   2.275  0.1415 -1.8737 -0.4498
  160SAPE   HN317789   1.915   0.651   2.114 -0.5477 -1.1192 -1.1480
  160SAPE   C1217790   1.796   0.494   2.170 -0.2686 -0.0645 -0.0587
  160SAPE  H12A17791   1.869   0.410   2.172  0.9800  0.9789 -0.6325
  160SAPE  H12B17792   1.768   0.506   2.063  0.4987 -1.4057 -0.4319
  160SAPE   C1117793   1.693   0.452   2.276  0.2076  0.5906  0.4930
  160SAPE  H11A17794   1.732   0.451   2.380 -0.2277  1.1441  0.6667
  160SAPE  H11B17795   1.669   0.347   2.251  0.0056  0.6094  0.6000
  160SAPE     P17796   1.437   0.492   2.203 -0.4474  0.0658 -0.3902
  160SAPE   O1317797   1.330   0.591   2.242  0.1962 -0.0388 -0.3748
  160SAPE   O1417798   1.448   0.450   2.062  0.8227 -0.1580  0.0384
  160SAPE   O1217799   1.577   0.530   2.261 -0.0948 -0.3109  0.4327
  160SAPE   O1117800   1.414   0.357   2.285  0.0089 -0.4294 -0.2756
  160SAPE    C117801   1.287   0.296   2.299  0.1116  0.1229  0.5084
  160SAPE    HA17802   1.224   0.317   2.209  1.0296  1.7424  0.2065
  160SAPE    HB17803   1.287   0.185   2.296 -4.5751 -0.1067  1.4647
  160SAPE    C217804   1.215   0.333   2.432  0.2377 -0.1570 -0.4267
  160SAPE    HS17805   1.189   0.441   2.440 -1.0886 -0.6162  2.8610
  160SAPE   O2117806   1.304   0.299   2.545  0.3302  0.0246 -0.3175
  160SAPE   C2117807   1.330   0.395   2.634  0.7343 -0.1972  0.3315
  160SAPE   O2217808   1.290   0.513   2.619  0.0869  0.3302 -0.2438
  160SAPE   C2217809   1.384   0.335   2.764 -0.0539  0.9527 -0.2854
  160SAPE   H2R17810   1.327   0.240   2.775 -0.2047  0.9115 -1.3273
  160SAPE   H2S17811   1.491   0.312   2.749 -0.2952  0.8439 -1.9796
  160SAPE    C317812   1.075   0.263   2.426  0.6765 -0.5841 -0.4504
  160SAPE    HX17813   1.072   0.153   2.408  0.1348 -0.6675  0.1487
  160SAPE    HY17814   1.038   0.310   2.332 -0.6330 -0.6710 -0.0023
  160SAPE   O3117815   0.995   0.291   2.538 -0.1808 -0.5540 -0.3130
  160SAPE   C3117816   0.920   0.406   2.542 -0.2766 -0.3158  0.0758
  160SAPE   O3217817   0.913   0.481   2.449  0.2979 -0.3101  0.6166
  160SAPE   C3217818   0.855   0.422   2.677  0.6025 -0.5687  0.7479
  160SAPE   H2X17819   0.764   0.358   2.677  0.9318 -1.2689 -2.8760
  160SAPE   H2Y17820   0.830   0.530   2.684  1.1726 -0.4821  1.5406
  160SAPE   C2317821   1.373   0.425   2.887  0.3590  0.0827  0.2263
  160SAPE   H3R17822   1.266   0.450   2.903  0.8482  2.3655  0.3217
  160SAPE   H3S17823   1.416   0.520   2.848  2.6546 -0.3581  1.5397
  160SAPE   C2417824   1.439   0.372   3.011  0.5091  0.1621 -0.3980
  160SAPE   H4R17825   1.541   0.334   2.989  1.5211 -0.3816  4.1646
  160SAPE   H4S17826   1.380   0.285   3.050 -1.3387  0.6082 -2.0663
  160SAPE   C2517827   1.458   0.469   3.124  0.1107  0.0848 -0.1631
  160SAPE   H5R17828   1.503   0.562   3.086  2.8580 -1.2709 -0.5025
  160SAPE   C2617829   1.429   0.458   3.255  0.0305 -0.4778 -0.2483
  160SAPE   H6R17830   1.461   0.537   3.325  0.1725  0.0695 -0.9266
  160SAPE   C2717831   1.369   0.337   3.328 -0.1389 -0.4042 -0.3776
  160SAPE   H7R17832   1.416   0.322   3.428 -0.3329 -0.9494 -0.3643
  160SAPE   H7S17833   1.381   0.242   3.271 -0.6316 -0.5218 -0.2853
  160SAPE   C2817834   1.220   0.338   3.344 -0.5042  0.5416 -0.4708
  160SAPE   H8R17835   1.160   0.299   3.260 -1.6721  3.1992 -0.9633
  160SAPE   C2917836   1.154   0.372   3.458 -0.6470  0.2693 -1.0534
  160SAPE   H9R17837   1.044   0.361   3.460 -0.5472 -0.7780 -0.3865
  160SAPE  C21017838   1.207   0.418   3.592 -0.0410  0.4623 -0.0917
  160SAPE  H10R17839   1.284   0.344   3.625  0.2641  0.6269 -0.4359
  160SAPE  H10S17840   1.122   0.404   3.662  0.5097 -0.2470  0.4603
  160SAPE  C21117841   1.260   0.554   3.609 -0.1782  0.2167 -0.7849
  160SAPE  H11R17842   1.184   0.633   3.617 -2.2757 -1.5543 -2.1027
  160SAPE  C21217843   1.379   0.587   3.658  0.5011  0.4810 -0.3975
  160SAPE  H12R17844   1.400   0.693   3.676  1.7084  0.2716 -0.4639
  160SAPE  C21317845   1.492   0.489   3.702 -0.7353 -0.3083 -0.1387
  160SAPE  H13R17846   1.485   0.398   3.639 -0.4264  0.5239 -1.4158
  160SAPE  H13S17847   1.463   0.448   3.801  0.0921  0.8964  0.6322
  160SAPE  C21417848   1.633   0.547   3.703  0.2317  0.2989 -0.1678
  160SAPE  H14R17849   1.670   0.566   3.601 -2.5242 -0.6988 -1.4681
  160SAPE  C21517850   1.708   0.599   3.806  0.7835  0.1377 -0.3901
  160SAPE  H15R17851   1.810   0.636   3.788  1.0237  1.2121  2.6427
  160SAPE  C21617852   1.663   0.599   3.948 -0.1666  0.0085  0.2491
  160SAPE  H16R17853   1.564   0.555   3.967 -1.0904  2.0795  0.5119
  160SAPE  H16S17854   1.650   0.707   3.970 -1.3800 -0.3874  1.5553
  160SAPE  C21717855   1.772   0.545   4.052 -0.3843 -0.2466 -0.2315
  160SAPE  H17R17856   1.821   0.471   3.985 -1.4706  0.2613 -1.6504
  160SAPE  H17S17857   1.725   0.503   4.144 -1.1657  0.8070 -0.1336
  160SAPE  C21817858   1.882   0.645   4.091 -0.4478 -0.1190 -0.0241
  160SAPE  H18R17859   1.859   0.705   4.181 -0.7561  0.5456 -0.5407
  160SAPE  H18S17860   1.873   0.712   4.003 -0.7492 -1.1027 -0.7704
  160SAPE  C21917861   2.016   0.578   4.116  0.2728  0.1820 -0.0798
  160SAPE  H19R17862   2.054   0.546   4.016 -1.2343  0.7439 -0.8591
  160SAPE  H19S17863   2.003   0.491   4.183 -0.1689 -0.3793 -0.8859
  160SAPE  C22017864   2.113   0.671   4.189 -0.0984  0.2474 -0.4959
  160SAPE  H20R17865   2.120   0.762   4.125  2.2546 -1.6384 -3.1650
  160SAPE  H20S17866   2.218   0.635   4.198 -0.2097 -0.4417 -1.7783
  160SAPE  H20T17867   2.077   0.695   4.291 -1.4130 -0.2081 -0.8421
  160SAPE   C3317868   0.940   0.388   2.797 -0.4130  0.3887 -0.2087
  160SAPE   H3X17869   1.046   0.417   2.781 -0.4028  1.4706  1.5533
  160SAPE   H3Y17870   0.934   0.277   2.801 -1.8997  0.4087 -1.0906
  160SAPE   C3417871   0.880   0.446   2.924 -0.2676  0.1185 -1.8876
  160SAPE   H4X17872   0.776   0.408   2.922  0.7860 -3.0682 -2.7610
  160SAPE   H4Y17873   0.888   0.556   2.909  0.6519  0.2410 -0.6495
  160SAPE   C3517874   0.943   0.406   3.060 -0.6467  0.0688  0.0149
  160SAPE   H5X17875   1.050   0.428   3.040 -0.9787  0.2949 -1.6315
  160SAPE   H5Y17876   0.927   0.298   3.085 -2.4906 -0.3221 -2.5212
  160SAPE   C3617877   0.893   0.484   3.180  0.2883  0.3250  0.0886
  160SAPE   H6X17878   0.825   0.569   3.156 -0.1393 -0.1157 -0.2793
  160SAPE   H6Y17879   0.986   0.527   3.223 -0.1976  1.9896 -0.4294
  160SAPE   C3717880   0.829   0.406   3.297  0.0993 -0.3856 -0.3372
  160SAPE   H7X17881   0.895   0.322   3.326  0.9889 -0.6116 -2.7668
  160SAPE   H7Y17882   0.733   0.362   3.263 -0.3933 -0.9945  1.6905
  160SAPE   C3817883   0.798   0.500   3.417  0.3968 -0.5435  0.1524
  160SAPE   H8X17884   0.716   0.572   3.394 -0.2575 -0.8349  1.4533
  160SAPE   H8Y17885   0.884   0.567   3.437  0.2098  0.1515 -1.2806
  160SAPE   C3917886   0.754   0.422   3.540 -0.3133 -0.3527  0.5932
  160SAPE   H9X17887   0.831   0.345   3.563  1.2809  0.5641 -1.4269
  160SAPE   H9Y17888   0.655   0.378   3.513 -0.5019  1.0064 -1.0283
  160SAPE  C31017889   0.726   0.494   3.674 -0.5131 -0.1940 -0.1011
  160SAPE  H10X17890   0.653   0.577   3.670 -0.7938 -0.4547 -0.4063
  160SAPE  H10Y17891   0.821   0.547   3.696 -1.7475  1.1022  2.5547
  160SAPE  C31117892   0.690   0.397   3.790 -0.0414  0.2538 -0.0937
  160SAPE  H11X17893   0.761   0.312   3.780 -1.0476 -0.8293  1.4886
  160SAPE  H11Y17894   0.593   0.348   3.767  0.4111 -0.0712 -1.4322
  160SAPE  C31217895   0.701   0.465   3.922 -0.1064 -0.6454 -0.4196
  160SAPE  H12X17896   0.804   0.503   3.934 -1.3281  3.1777 -0.6268
  160SAPE  H12Y17897   0.677   0.390   4.001 -2.9122  1.0731  0.5004
  160SAPE  C31317898   0.614   0.588   3.941  0.9447  0.4861  0.1633
  160SAPE  H13X17899   0.507   0.561   3.926  0.4468  2.0939  0.6015
  160SAPE  H13Y17900   0.645   0.663   3.865  0.4508  0.1716 -0.3518
  160SAPE  C31417901   0.621   0.658   4.084 -0.1285  0.0890  0.2489
  160SAPE  H14X17902   0.728   0.677   4.107  0.0156 -0.0760 -0.2522
  160SAPE  H14Y17903   0.594   0.579   4.157 -0.3285  0.3925  0.5035
  160SAPE  C31517904   0.537   0.791   4.098  0.0656  0.1990 -0.6902
  160SAPE  H15X17905   0.429   0.765   4.106 -0.0260  1.0245  1.5909
  160SAPE  H15Y17906   0.550   0.852   4.006 -4.4918  0.6840 -1.2623
  160SAPE  C31617907   0.569   0.872   4.219  0.2925  0.1342  0.2422
  160SAPE  H16X17908   0.679   0.892   4.217  0.2020  0.6067 -0.3484
  160SAPE  H16Y17909   0.538   0.809   4.304 -1.2999 -1.8085 -1.6583
  160SAPE  C31717910   0.489   1.002   4.244  0.0300 -0.7695 -0.5790
  160SAPE  H17X17911   0.381   0.989   4.268  0.0859 -0.5155 -0.1683
  160SAPE  H17Y17912   0.482   1.059   4.149  0.5623  0.7589  0.2628
  160SAPE  C31817913   0.567   1.101   4.334 -0.5174 -0.1696  0.4003
  160SAPE  H18X17914   0.518   1.200   4.321 -0.8890 -0.2191  1.3742
  160SAPE  H18Y17915   0.670   1.115   4.296 -1.4811 -0.0762 -2.4222
  160SAPE  H18Z17916   0.576   1.073   4.441 -0.3855  2.6962  1.2228
  161SAPE     N17917   6.267   3.602   2.311  0.1158 -0.7213  0.2944
  161SAPE   HN117918   6.187   3.539   2.328 -0.7969  0.5915  0.9882
  161SAPE   HN217919   6.327   3.544   2.248 -0.4397 -2.3007  1.1582
  161SAPE   HN317920   6.325   3.625   2.394 -0.1315 -3.3522  1.2787
  161SAPE   C1217921   6.225   3.728   2.243  0.0694 -0.4269 -0.3905
  161SAPE  H12A17922   6.178   3.802   2.311  1.2427  0.1295 -0.1682
  161SAPE  H12B17923   6.140   3.702   2.175 -0.6901  0.5206  0.1657
  161SAPE   C1117924   6.338   3.789   2.162 -0.0760  0.0179  0.5987
  161SAPE  H11A17925   6.295   3.880   2.116 -0.7368 -0.1353  0.8963
  161SAPE  H11B17926   6.365   3.701   2.101  1.8031 -0.1147  1.5412
  161SAPE     P17927   6.568   3.917   2.214  0.7837  0.0512 -0.3559
  161SAPE   O1317928   6.624   3.875   2.083 -0.2769 -0.4979  0.0352
  161SAPE   O1417929   6.520   4.054   2.235 -0.2903 -0.2888  0.3579
  161SAPE   O1217930   6.448   3.827   2.250 -0.1293  0.3386  0.1459
  161SAPE   O1117931   6.677   3.879   2.316  0.1778 -0.5605 -0.1363
  161SAPE    C117932   6.675   3.767   2.405 -0.4787  0.2703 -0.2129
  161SAPE    HA17933   6.606   3.687   2.369 -3.2831  1.9710  1.0682
  161SAPE    HB17934   6.775   3.718   2.395 -0.3056  0.3703  0.9032
  161SAPE    C217935   6.650   3.812   2.551 -0.0975  0.5600 -1.4488
  161SAPE    HS17936   6.645   3.724   2.619 -0.5324  1.6713 -0.0031
  161SAPE   O2117937   6.525   3.879   2.571  0.3184  0.3113  0.0642
  161SAPE   C2117938   6.411   3.808   2.561 -0.2884  0.5159 -0.7230
  161SAPE   O2217939   6.407   3.692   2.524  0.2255 -0.3397  0.0046
  161SAPE   C2217940   6.299   3.908   2.588 -0.3769 -1.1053  0.7565
  161SAPE   H2R17941   6.211   3.844   2.566 -1.4838  0.5546  0.1465
  161SAPE   H2S17942   6.285   3.938   2.694  2.1128  1.3743  0.4883
  161SAPE    C317943   6.769   3.904   2.602 -0.2957  0.9233  0.0716
  161SAPE    HX17944   6.764   4.000   2.547 -0.3172  1.0862  0.3566
  161SAPE    HY17945   6.867   3.856   2.579 -0.2979  0.1648  1.5210
  161SAPE   O3117946   6.769   3.927   2.747 -0.0253  0.3030 -0.2123
  161SAPE   C3117947   6.677   4.013   2.786 -0.0264  0.3091 -0.7613
  161SAPE   O3217948   6.636   4.109   2.716 -0.6224  0.1190 -0.2201
  161SAPE   C3217949   6.633   3.986   2.934  0.3288 -0.8225  0.0599
  161SAPE   H2X17950   6.718   3.945   2.993  1.8511 -1.2927 -2.2796
  161SAPE   H2Y17951   6.561   3.901   2.935  0.9811 -1.3982  1.6678
  161SAPE   C2317952   6.297   4.029   2.489 -0.3166 -0.4435  0.2858
  161SAPE   H3R17953   6.323   3.987   2.390  0.2072  1.2643 -0.3489
  161SAPE   H3S17954   6.368   4.108   2.522 -1.1322  1.1220 -1.4650
  161SAPE   C2417955   6.155   4.105   2.483 -0.1317 -0.3451  0.4197
  161SAPE   H4R17956   6.077   4.042   2.436 -0.4960 -1.4834  2.4276
  161SAPE   H4S17957   6.172   4.203   2.433  0.1902 -0.0864  1.0198
  161SAPE   C2517958   6.101   4.136   2.615  0.1236  0.6838  0.3554
  161SAPE   H5R17959   6.013   4.077   2.645  1.8695 -0.7881  2.9077
  161SAPE   C2617960   6.134   4.236   2.692 -0.0687 -0.4396 -0.0686
  161SAPE   H6R17961   6.073   4.254   2.782 -1.7792 -1.5901 -0.9369
  161SAPE   C2717962   6.245   4.341   2.670  0.6574  0.2211 -0.1343
  161SAPE   H7R17963   6.311   4.336   2.581  0.7116 -1.7963 -0.0363
  161SAPE   H7S17964   6.307   4.326   2.761  0.4522  0.9137  0.1251
  161SAPE   C2817965   6.204   4.485   2.678 -0.1478  0.1738 -0.2720
  161SAPE   H8R17966   6.152   4.532   2.593  0.7024 -0.7423 -1.3213
  161SAPE   C2917967   6.231   4.569   2.784  0.3213 -0.8760 -0.2898
  161SAPE   H9R17968   6.207   4.674   2.760  0.8131 -0.6339  0.2465
  161SAPE  C21017969   6.305   4.541   2.914  0.2454 -0.4194  0.4451
  161SAPE  H10R17970   6.406   4.498   2.892  0.0554  0.1747 -1.8501
  161SAPE  H10S17971   6.248   4.462   2.968  0.8987 -4.3704 -3.9442
  161SAPE  C21117972   6.321   4.676   2.994  0.2248  0.8741  0.5703
  161SAPE  H11R17973   6.337   4.762   2.927 -2.9450  0.9413 -0.3119
  161SAPE  C21217974   6.307   4.705   3.122  0.3710 -0.7697 -1.0551
  161SAPE  H12R17975   6.341   4.807   3.146 -1.9256 -0.1730 -0.1221
  161SAPE  C21317976   6.274   4.607   3.232  0.3473  0.4020  0.2617
  161SAPE  H13R17977   6.375   4.580   3.269  1.2851  2.8727 -0.2617
  161SAPE  H13S17978   6.218   4.522   3.190  0.0587  1.1515 -0.9267
  161SAPE  C21417979   6.194   4.681   3.337 -1.0678  0.3051  0.5193
  161SAPE  H14R17980   6.237   4.778   3.363  0.2602 -0.1948  0.2932
  161SAPE  C21517981   6.097   4.626   3.415 -0.2546 -0.1679 -0.9069
  161SAPE  H15R17982   6.063   4.684   3.503  0.9841 -2.4518  1.2224
  161SAPE  C21617983   6.044   4.489   3.398  0.2037 -0.0295  0.4483
  161SAPE  H16R17984   6.033   4.433   3.493  1.5248 -0.5726  0.3111
  161SAPE  H16S17985   6.123   4.430   3.346 -2.8468 -3.8107 -0.3569
  161SAPE  C21717986   5.910   4.495   3.333 -0.0296 -0.0977  0.2881
  161SAPE  H17R17987   5.915   4.558   3.241 -2.5066  1.3169  1.0555
  161SAPE  H17S17988   5.837   4.537   3.405 -0.6044  0.0905 -0.3896
  161SAPE  C21817989   5.865   4.361   3.281 -1.0937 -0.3392 -0.7830
  161SAPE  H18R17990   5.859   4.302   3.375  0.5423  1.3995  0.4856
  161SAPE  H18S17991   5.947   4.315   3.221 -1.7167  0.8459 -2.6123
  161SAPE  C21917992   5.732   4.350   3.216 -1.0629 -0.2298  0.4394
  161SAPE  H19R17993   5.732   4.409   3.122 -0.7009  1.0813  1.2276
  161SAPE  H19S17994   5.653   4.396   3.280 -0.0190  1.5063  0.5396
  161SAPE  C22017995   5.698   4.207   3.194  0.0653  0.3733  0.3423
  161SAPE  H20R17996   5.701   4.144   3.285 -0.0787 -3.4813 -2.0708
  161SAPE  H20S17997   5.767   4.152   3.126 -1.5639 -1.1317 -0.1762
  161SAPE  H20T17998   5.597   4.198   3.148 -1.2377  2.4691  2.5437
  161SAPE   C3317999   6.570   4.108   3.000 -0.2479 -0.0743 -0.3197
  161SAPE   H3X18000   6.532   4.178   2.924  2.2881 -0.4887 -2.0999
  161SAPE   H3Y18001   6.651   4.168   3.047 -0.7327  0.2931  0.0591
  161SAPE   C3418002   6.465   4.063   3.101 -0.3195  0.1723 -0.6752
  161SAPE   H4X18003   6.507   3.974   3.153  1.9119  2.6598  2.1239
  161SAPE   H4Y18004   6.370   4.034   3.052 -2.0232  0.0348  2.4792
  161SAPE   C3518005   6.437   4.177   3.206 -0.3816 -0.4673  0.2965
  161SAPE   H5X18006   6.378   4.263   3.168  1.5303  0.9381  0.4005
  161SAPE   H5Y18007   6.530   4.209   3.256  0.5765  0.8818 -2.1788
  161SAPE   C3618008   6.336   4.144   3.312 -0.2234  0.7364  0.3524
  161SAPE   H6X18009   6.340   4.041   3.354 -2.8175 -0.0039 -0.9831
  161SAPE   H6Y18010   6.234   4.129   3.270 -0.0540  1.9901 -0.5568
  161SAPE   C3718011   6.305   4.255   3.417  0.1737  0.1383  0.1216
  161SAPE   H7X18012   6.195   4.257   3.431  0.2584  1.6589  0.7731
  161SAPE   H7Y18013   6.338   4.357   3.387  1.0663 -0.5567 -1.4091
  161SAPE   C3818014   6.346   4.214   3.564  0.0976 -0.3055 -0.5072
  161SAPE   H8X18015   6.450   4.177   3.576  0.3505  0.0389 -1.5557
  161SAPE   H8Y18016   6.284   4.126   3.592  1.8411 -0.7460  2.4262
  161SAPE   C3918017   6.314   4.332   3.653  0.3574 -0.3372  0.4621
  161SAPE   H9X18018   6.225   4.379   3.607  1.0300 -1.2600 -1.9571
  161SAPE   H9Y18019   6.405   4.396   3.643 -0.4478  1.0447  1.6020
  161SAPE  C31018020   6.293   4.289   3.800 -0.0569 -0.2330  0.1750
  161SAPE  H10X18021   6.281   4.384   3.857 -2.4521 -0.9881  1.0560
  161SAPE  H10Y18022   6.388   4.243   3.834  0.2431 -0.7775 -1.3172
  161SAPE  C31118023   6.169   4.209   3.850 -0.3892  0.5548 -0.4192
  161SAPE  H11X18024   6.164   4.122   3.782  3.4572  2.1614 -3.1325
  161SAPE  H11Y18025   6.082   4.275   3.830  0.0534  0.9341 -1.1586
  161SAPE  C31218026   6.192   4.160   3.995  0.5728  0.2161 -0.2880
  161SAPE  H12X18027   6.099   4.107   4.021 -1.2927  3.1759 -0.3876
  161SAPE  H12Y18028   6.204   4.248   4.062 -1.2428 -1.1946  2.0196
  161SAPE  C31318029   6.297   4.055   4.016 -0.1879 -0.2360 -0.4978
  161SAPE  H13X18030   6.400   4.095   4.022 -0.3393 -0.0372  1.7071
  161SAPE  H13Y18031   6.289   3.979   3.935  1.5541 -1.3913  0.3392
  161SAPE  C31418032   6.283   3.982   4.149  0.2342  0.4026 -0.5170
  161SAPE  H14X18033   6.198   3.911   4.145 -0.1760  0.8039  0.7227
  161SAPE  H14Y18034   6.256   4.060   4.223 -0.7603 -1.3329  1.0225
  161SAPE  C31518035   6.406   3.909   4.196 -0.0878  0.3701 -0.2105
  161SAPE  H15X18036   6.481   3.977   4.242 -1.3617  0.6093  1.6045
  161SAPE  H15Y18037   6.458   3.866   4.108  0.2728 -1.0535  0.6661
  161SAPE  C31618038   6.373   3.793   4.296  0.0300 -0.1114 -0.6312
  161SAPE  H16X18039   6.453   3.716   4.290 -0.8812 -1.4583  2.2894
  161SAPE  H16Y18040   6.283   3.739   4.258 -0.1486  1.2518 -2.2452
  161SAPE  C31718041   6.366   3.841   4.440 -0.0931 -0.2114  0.0447
  161SAPE  H17X18042   6.306   3.935   4.439  0.9505  0.4786 -0.2282
  161SAPE  H17Y18043   6.462   3.879   4.481 -0.4577  0.6813  0.1072
  161SAPE  C31818044   6.313   3.727   4.523 -0.1744  0.1798  0.2415
  161SAPE  H18X18045   6.232   3.674   4.469  0.0379  0.1280 -0.0312
  161SAPE  H18Y18046   6.279   3.766   4.621 -0.6514 -0.2717  0.2604
  161SAPE  H18Z18047   6.393   3.652   4.542 -2.0705 -1.7693  0.8943
  162SAPE     N18048   4.447   5.245   1.620  0.4384  0.8849 -0.2101
  162SAPE   HN118049   4.481   5.272   1.526  1.5126  1.7304  0.3902
  162SAPE   HN218050   4.370   5.176   1.609  1.2212 -0.0276 -0.0893
  162SAPE   HN318051   4.405   5.326   1.671  0.8799  1.5959 -0.9560
  162SAPE   C1218052   4.567   5.190   1.695 -0.0627  0.7060  0.3988
  162SAPE  H12A18053   4.661   5.247   1.680  0.4820 -0.4065 -0.4963
  162SAPE  H12B18054   4.584   5.093   1.645  0.8273  0.8180  0.4742
  162SAPE   C1118055   4.539   5.172   1.844  0.0875  0.5424 -0.0941
  162SAPE  H11A18056   4.617   5.115   1.900 -0.5675  1.6830  2.1183
  162SAPE  H11B18057   4.451   5.106   1.859  0.7913  0.0020  2.1606
  162SAPE     P18058   4.643   5.366   1.984  0.3725  0.4166 -0.2849
  162SAPE   O1318059   4.754   5.371   1.885  0.0917  0.0150  0.1195
  162SAPE   O1418060   4.598   5.488   2.047 -0.2889  0.6065 -0.5437
  162SAPE   O1218061   4.521   5.301   1.906 -0.2061  0.8063  0.1360
  162SAPE   O1118062   4.684   5.257   2.098  0.6292 -0.0208 -0.2802
  162SAPE    C118063   4.586   5.225   2.194  0.1830 -0.3252 -0.7280
  162SAPE    HA18064   4.482   5.251   2.163  0.0567  1.0592  0.6775
  162SAPE    HB18065   4.579   5.118   2.222 -1.1081 -0.4712 -1.5158
  162SAPE    C218066   4.594   5.315   2.326  0.3504 -0.3189 -0.3043
  162SAPE    HS18067   4.614   5.417   2.287  1.0889 -0.5007 -0.4164
  162SAPE   O2118068   4.693   5.271   2.418 -0.5220  0.7608  0.1286
  162SAPE   C2118069   4.803   5.341   2.436  0.4197 -0.2002 -0.0265
  162SAPE   O2218070   4.810   5.461   2.420  0.6495 -0.1757  0.2562
  162SAPE   C2218071   4.908   5.243   2.474  0.1387  0.0687 -0.3396
  162SAPE   H2R18072   4.930   5.190   2.379 -1.5600  1.4054 -1.5441
  162SAPE   H2S18073   5.002   5.299   2.493  0.9880 -1.1165 -0.8769
  162SAPE    C318074   4.460   5.308   2.399 -0.1588  0.4731 -1.1647
  162SAPE    HX18075   4.448   5.200   2.422 -0.6188  0.2633 -2.3306
  162SAPE    HY18076   4.377   5.340   2.333 -1.8394  1.9218  1.4733
  162SAPE   O3118077   4.474   5.396   2.518 -0.0381 -0.0597 -0.1314
  162SAPE   C3118078   4.452   5.519   2.494  0.5417  0.2702 -0.7434
  162SAPE   O3218079   4.408   5.569   2.389 -0.4642 -0.0216 -0.2385
  162SAPE   C3218080   4.487   5.603   2.619 -0.4451 -0.1800  0.7505
  162SAPE   H2X18081   4.550   5.686   2.580 -1.7665  0.6547  0.3198
  162SAPE   H2Y18082   4.556   5.539   2.679 -1.8658 -1.5279  1.0104
  162SAPE   C2318083   4.881   5.164   2.607  0.3837 -0.1987 -0.0745
  162SAPE   H3R18084   4.976   5.116   2.637  1.1472  1.3365  0.0401
  162SAPE   H3S18085   4.803   5.086   2.589  0.3728  0.0299 -1.1391
  162SAPE   C2418086   4.851   5.258   2.728  0.0953  0.2680 -0.2515
  162SAPE   H4R18087   4.757   5.316   2.711 -0.4062 -0.0572  1.2790
  162SAPE   H4S18088   4.935   5.330   2.726 -0.0562  0.4358 -0.9768
  162SAPE   C2518089   4.842   5.189   2.858  0.0727 -0.0831 -0.0564
  162SAPE   H5R18090   4.807   5.085   2.869 -2.7094  0.8188  0.3527
  162SAPE   C2618091   4.858   5.247   2.979  0.4857 -0.7193 -0.9312
  162SAPE   H6R18092   4.839   5.187   3.070 -0.8492  1.7940  0.5578
  162SAPE   C2718093   4.886   5.396   3.009  0.3327 -0.0829  0.6749
  162SAPE   H7R18094   4.818   5.443   3.083 -1.5615 -0.2998 -0.8429
  162SAPE   H7S18095   4.862   5.445   2.912  1.0421 -1.1618 -0.0658
  162SAPE   C2818096   5.033   5.418   3.050  0.0869 -0.0835 -0.0391
  162SAPE   H8R18097   5.100   5.456   2.972  0.5876  2.4657  1.5128
  162SAPE   C2918098   5.069   5.424   3.181 -0.7542  0.4137  0.4669
  162SAPE   H9R18099   5.179   5.431   3.190 -0.6425 -0.7490  0.2008
  162SAPE  C21018100   4.978   5.382   3.296  0.2083 -0.2761  0.2158
  162SAPE  H10R18101   5.048   5.345   3.374 -1.1586  0.2499  1.7504
  162SAPE  H10S18102   4.915   5.297   3.259  2.3882 -1.8711 -0.0075
  162SAPE  C21118103   4.899   5.498   3.344 -0.0785 -0.1094 -0.2415
  162SAPE  H11R18104   4.863   5.554   3.257 -0.5559  0.6336  0.4219
  162SAPE  C21218105   4.901   5.567   3.462 -0.3070 -0.1410  0.2034
  162SAPE  H12R18106   4.818   5.638   3.475 -1.1732 -1.1144  0.1046
  162SAPE  C21318107   4.976   5.527   3.589  0.6848  0.2210  0.6708
  162SAPE  H13R18108   4.970   5.416   3.598 -0.2284  0.1631 -0.3203
  162SAPE  H13S18109   4.926   5.557   3.683  0.6673 -0.7102  0.9710
  162SAPE  C21418110   5.119   5.572   3.587 -0.0365 -0.1829  0.4586
  162SAPE  H14R18111   5.184   5.535   3.507  0.8996 -0.8893  1.5129
  162SAPE  C21518112   5.185   5.632   3.685 -0.5090  0.1837 -0.5335
  162SAPE  H15R18113   5.285   5.672   3.665  0.1271 -0.3158  1.4053
  162SAPE  C21618114   5.128   5.680   3.818 -0.2585 -0.5958  0.1121
  162SAPE  H16R18115   5.198   5.635   3.892 -0.4499 -0.8926  0.1146
  162SAPE  H16S18116   5.022   5.648   3.825  0.2508 -2.5311 -0.2401
  162SAPE  C21718117   5.146   5.828   3.842  0.9885  0.3925  0.1715
  162SAPE  H17R18118   5.063   5.867   3.780  1.6758  0.1206 -0.9366
  162SAPE  H17S18119   5.243   5.871   3.810  1.3111  0.8977  1.7213
  162SAPE  C21818120   5.106   5.877   3.982 -0.2315  0.0549 -0.2160
  162SAPE  H18R18121   5.157   5.821   4.063 -2.2608  1.7859  2.4137
  162SAPE  H18S18122   4.996   5.870   3.997 -0.5281  2.0649 -1.0741
  162SAPE  C21918123   5.150   6.017   4.005 -0.4092  0.4662  0.4763
  162SAPE  H19R18124   5.061   6.076   4.037 -1.8225 -0.4975 -1.4997
  162SAPE  H19S18125   5.198   6.053   3.912 -2.3053 -1.4889 -1.3530
  162SAPE  C22018126   5.252   6.045   4.121 -0.5274  0.3584 -0.2234
  162SAPE  H20R18127   5.270   6.154   4.112 -1.6761  0.5236 -0.7046
  162SAPE  H20S18128   5.347   5.990   4.101 -1.6258 -1.7879  0.1967
  162SAPE  H20T18129   5.205   6.026   4.220 -1.4089  2.9487 -0.0735
  162SAPE   C3318130   4.366   5.648   2.708  0.2143  0.5153  0.5693
  162SAPE   H3X18131   4.314   5.560   2.751 -1.2534  1.1096  0.0637
  162SAPE   H3Y18132   4.293   5.707   2.649 -1.0518 -0.4120  1.1695
  162SAPE   C3418133   4.404   5.732   2.838  0.8816 -0.2748  0.7207
  162SAPE   H4X18134   4.453   5.824   2.799 -0.3138  0.0052 -0.1759
  162SAPE   H4Y18135   4.468   5.665   2.900  1.6723 -1.6843 -1.5233
  162SAPE   C3518136   4.287   5.755   2.929 -0.3586  0.3363  0.0407
  162SAPE   H5X18137   4.214   5.671   2.925 -0.5585  0.5418 -1.1694
  162SAPE   H5Y18138   4.227   5.839   2.890  1.5834  1.0417 -1.6265
  162SAPE   C3618139   4.325   5.784   3.072  0.0429 -0.4548  0.3120
  162SAPE   H6X18140   4.362   5.888   3.081 -0.6680 -0.0374 -1.1301
  162SAPE   H6Y18141   4.401   5.708   3.098  0.8073  0.6389  1.4055
  162SAPE   C3718142   4.203   5.769   3.175  0.0347  0.0181 -0.2495
  162SAPE   H7X18143   4.132   5.696   3.129  1.5679  0.2886 -3.3029
  162SAPE   H7Y18144   4.149   5.865   3.186  3.3431  1.8076  2.0061
  162SAPE   C3818145   4.257   5.723   3.306  0.1685 -0.0658 -0.2508
  162SAPE   H8X18146   4.335   5.793   3.342  0.7119 -0.1156 -1.2759
  162SAPE   H8Y18147   4.293   5.621   3.281 -3.0516 -1.5360  0.5617
  162SAPE   C3918148   4.156   5.715   3.418 -0.3034 -0.1496 -0.6605
  162SAPE   H9X18149   4.076   5.647   3.379 -0.0292 -1.3336  0.7640
  162SAPE   H9Y18150   4.118   5.817   3.439  2.9254  1.0111  0.1113
  162SAPE  C31018151   4.215   5.660   3.556 -0.4640 -0.0224  1.2625
  162SAPE  H10X18152   4.293   5.735   3.581 -0.0843 -0.3391  1.0315
  162SAPE  H10Y18153   4.268   5.566   3.530  0.2631  0.9091 -0.9195
  162SAPE  C31118154   4.121   5.655   3.676  0.4114  0.1729  0.4422
  162SAPE  H11X18155   4.032   5.588   3.664  0.3538 -0.3629  3.1738
  162SAPE  H11Y18156   4.079   5.757   3.679 -1.2946 -0.4403 -0.7984
  162SAPE  C31218157   4.178   5.620   3.818  0.0285  0.1635  0.9304
  162SAPE  H12X18158   4.256   5.690   3.854  0.2974 -1.4875  3.8580
  162SAPE  H12Y18159   4.223   5.523   3.785  1.2739  1.1343 -0.3472
  162SAPE  C31318160   4.077   5.604   3.933  0.3099  0.4624 -0.0536
  162SAPE  H13X18161   4.010   5.517   3.920 -0.6192  0.9631  1.1646
  162SAPE  H13Y18162   4.015   5.695   3.949  0.3490  0.4256  0.3140
  162SAPE  C31418163   4.145   5.600   4.063 -0.5971 -0.0012 -0.7671
  162SAPE  H14X18164   4.191   5.700   4.072 -0.9461  0.4376 -3.0792
  162SAPE  H14Y18165   4.225   5.525   4.081 -2.2698 -0.8925  4.7120
  162SAPE  C31518166   4.051   5.575   4.185 -0.9044 -0.6889  0.6342
  162SAPE  H15X18167   4.030   5.466   4.191 -0.6935 -0.7548  0.2232
  162SAPE  H15Y18168   3.948   5.614   4.175 -0.8274 -0.4969  0.5791
  162SAPE  C31618169   4.115   5.622   4.315 -0.2012 -0.4051 -0.2167
  162SAPE  H16X18170   4.191   5.551   4.352 -0.0271  0.1212  0.4536
  162SAPE  H16Y18171   4.024   5.608   4.378 -1.8414  1.2375 -2.0578
  162SAPE  C31718172   4.161   5.763   4.336 -0.0500 -0.1127 -0.1713
  162SAPE  H17X18173   4.111   5.823   4.257 -1.8418 -0.5163  0.6068
  162SAPE  H17Y18174   4.269   5.786   4.325  0.2641 -1.5288 -0.1473
  162SAPE  C31818175   4.119   5.826   4.475 -0.2700  0.3575 -0.2321
  162SAPE  H18X18176   4.013   5.799   4.492  0.0790 -1.6225 -0.9309
  162SAPE  H18Y18177   4.134   5.936   4.483  1.9620  0.1730 -1.0574
  162SAPE  H18Z18178   4.182   5.778   4.553  0.3053 -0.6817 -1.2808
  163SAPE     N18179   3.770   1.584   1.798  0.5686  0.3065 -0.4621
  163SAPE   HN118180   3.860   1.612   1.753  0.5735 -1.8231 -1.9378
  163SAPE   HN218181   3.710   1.517   1.747 -2.7802  1.3587  1.7374
  163SAPE   HN318182   3.710   1.667   1.819  0.7676 -0.0881  1.8944
  163SAPE   C1218183   3.796   1.522   1.935 -0.0125 -0.2671 -0.0457
  163SAPE  H12A18184   3.809   1.413   1.920 -0.4666 -0.6711  2.1550
  163SAPE  H12B18185   3.710   1.533   2.004  0.1812 -1.4225  0.4072
  163SAPE   C1118186   3.913   1.597   2.010 -0.8336 -0.3495 -0.2985
  163SAPE  H11A18187   3.935   1.564   2.114 -0.3029  3.1576  0.8452
  163SAPE  H11B18188   3.893   1.705   2.027 -1.0216 -0.5675  1.0259
  163SAPE     P18189   4.140   1.471   1.974  0.2422 -0.1900 -0.3178
  163SAPE   O1318190   4.075   1.336   1.977 -0.1141  0.3047  0.1769
  163SAPE   O1418191   4.269   1.472   1.891  0.1269 -0.8063  0.8468
  163SAPE   O1218192   4.035   1.586   1.936 -0.1980  0.4618 -0.1166
  163SAPE   O1118193   4.184   1.518   2.118  0.0006  0.3385 -0.4066
  163SAPE    C118194   4.234   1.657   2.125 -0.8076  0.3822  0.0846
  163SAPE    HA18195   4.274   1.696   2.030  0.1972  2.0374  1.1475
  163SAPE    HB18196   4.158   1.730   2.158  0.5851  1.7976  0.2517
  163SAPE    C218197   4.345   1.669   2.226  0.3709  0.5494  0.9225
  163SAPE    HS18198   4.430   1.624   2.170  0.1951  0.6118  0.5982
  163SAPE   O2118199   4.317   1.595   2.346  0.9632  0.2253 -0.8402
  163SAPE   C2118200   4.419   1.561   2.415 -0.7464  0.3085  0.2471
  163SAPE   O2218201   4.535   1.576   2.378 -0.5242  0.1919  0.3055
  163SAPE   C2218202   4.387   1.482   2.545  0.5905  0.8079  0.1438
  163SAPE   H2R18203   4.276   1.480   2.556  0.1327 -0.9467 -3.3806
  163SAPE   H2S18204   4.416   1.376   2.533  1.8483  1.1156  0.2948
  163SAPE    C318205   4.373   1.818   2.258 -0.2040 -0.7710 -0.5537
  163SAPE    HX18206   4.383   1.870   2.160 -0.4052  2.2200  0.8999
  163SAPE    HY18207   4.465   1.847   2.312 -1.3239  1.8200  0.1524
  163SAPE   O3118208   4.258   1.866   2.337  0.5832  0.5284  0.3121
  163SAPE   C3118209   4.222   1.988   2.301  0.0294  0.1335  0.3048
  163SAPE   O3218210   4.272   2.055   2.212  0.5443 -0.3968 -0.0312
  163SAPE   C3218211   4.102   2.036   2.386  0.5825 -0.9106  0.1839
  163SAPE   H2X18212   4.055   1.943   2.424  0.6163 -0.8926  0.2706
  163SAPE   H2Y18213   4.032   2.087   2.316  0.3097  2.0899  2.4525
  163SAPE   C2318214   4.460   1.538   2.670  0.2911 -0.0635 -0.0596
  163SAPE   H3R18215   4.566   1.514   2.651  0.3383  0.2143 -0.1582
  163SAPE   H3S18216   4.429   1.493   2.767  1.7920 -1.3665 -0.1566
  163SAPE   C2418217   4.435   1.689   2.699 -0.0777 -0.2601 -0.1690
  163SAPE   H4R18218   4.327   1.695   2.723  0.2249  3.0141  0.8778
  163SAPE   H4S18219   4.443   1.750   2.606 -2.7904  0.2491 -0.1294
  163SAPE   C2518220   4.534   1.732   2.804  0.0217  0.1650 -0.3879
  163SAPE   H5R18221   4.624   1.781   2.763 -0.2669  1.7064  0.7188
  163SAPE   C2618222   4.515   1.717   2.937 -0.4148 -0.0667 -0.5572
  163SAPE   H6R18223   4.586   1.755   3.012 -2.6507 -0.0606  1.6850
  163SAPE   C2718224   4.387   1.662   2.996 -0.0962 -0.0370 -0.9225
  163SAPE   H7R18225   4.416   1.632   3.099 -1.3243 -1.6325 -1.0017
  163SAPE   H7S18226   4.356   1.569   2.942 -0.7943  0.6053 -1.6522
  163SAPE   C2818227   4.266   1.757   2.990  0.3670 -0.7721  0.1928
  163SAPE   H8R18228   4.183   1.732   2.922 -0.5957  1.5484  0.4113
  163SAPE   C2918229   4.255   1.872   3.061  0.7323 -0.5046 -0.5915
  163SAPE   H9R18230   4.154   1.916   3.058  0.7258 -0.5600 -1.6810
  163SAPE  C21018231   4.354   1.927   3.161 -0.6798  0.2825 -0.2080
  163SAPE  H10R18232   4.444   1.864   3.174  1.6998  3.4115 -0.3535
  163SAPE  H10S18233   4.305   1.940   3.260  0.2707 -0.2276  0.3427
  163SAPE  C21118234   4.413   2.063   3.133  1.0554  0.0977  0.3972
  163SAPE  H11R18235   4.338   2.128   3.086  2.5262  1.4671 -0.1271
  163SAPE  C21218236   4.538   2.103   3.148  0.9733 -0.0226 -0.2820
  163SAPE  H12R18237   4.571   2.199   3.106 -1.2426  0.3768 -1.2343
  163SAPE  C21318238   4.649   2.022   3.219  0.1211 -0.1294 -0.7050
  163SAPE  H13R18239   4.737   2.041   3.155  0.5963 -0.1912 -0.0808
  163SAPE  H13S18240   4.625   1.913   3.212 -1.5546  0.1684 -0.1817
  163SAPE  C21418241   4.670   2.072   3.366  0.0547  0.3566  0.4085
  163SAPE  H14R18242   4.633   2.175   3.379  0.3132  0.3587  1.2174
  163SAPE  C21518243   4.732   2.000   3.458 -0.2086  0.6772 -0.3322
  163SAPE  H15R18244   4.731   2.039   3.561 -0.6516  0.7333 -0.3548
  163SAPE  C21618245   4.794   1.863   3.439 -0.3855 -0.0224  0.3294
  163SAPE  H16R18246   4.901   1.869   3.468 -1.0821 -2.2536  4.0675
  163SAPE  H16S18247   4.797   1.834   3.332 -0.5687  0.1813  0.2681
  163SAPE  C21718248   4.727   1.750   3.524 -0.3399 -0.0818 -0.3602
  163SAPE  H17R18249   4.718   1.786   3.629  0.8108 -0.6553 -0.0471
  163SAPE  H17S18250   4.797   1.665   3.525  0.0461  0.0949 -3.4279
  163SAPE  C21818251   4.595   1.703   3.469  0.5219 -0.2265  0.1126
  163SAPE  H18R18252   4.626   1.668   3.369 -2.1998  1.1185 -1.3212
  163SAPE  H18S18253   4.524   1.787   3.457  2.1682  1.4459  1.5138
  163SAPE  C21918254   4.533   1.581   3.549  0.2819 -0.8403  0.2341
  163SAPE  H19R18255   4.508   1.621   3.650  1.3403  0.7771 -0.1207
  163SAPE  H19S18256   4.614   1.505   3.549 -0.3040 -1.4901 -0.9382
  163SAPE  C22018257   4.406   1.531   3.479 -0.0925  0.4332  0.4445
  163SAPE  H20R18258   4.334   1.472   3.539 -0.6469  1.2152  0.5726
  163SAPE  H20S18259   4.430   1.473   3.387  0.5717 -0.2771  1.0488
  163SAPE  H20T18260   4.348   1.617   3.438 -1.8050 -1.0883 -0.4480
  163SAPE   C3318261   4.143   2.133   2.495 -0.4331 -0.0115 -0.5129
  163SAPE   H3X18262   4.051   2.177   2.540  0.9834  2.1045  0.4639
  163SAPE   H3Y18263   4.200   2.216   2.450  2.8358 -1.9202 -0.1635
  163SAPE   C3418264   4.227   2.065   2.606 -0.3883 -0.0240 -0.0693
  163SAPE   H4X18265   4.313   2.018   2.553  0.7108  1.1913  0.5681
  163SAPE   H4Y18266   4.166   1.984   2.653 -0.9448  1.0019  1.0227
  163SAPE   C3518267   4.278   2.159   2.712  0.2832 -0.0710  0.1559
  163SAPE   H5X18268   4.222   2.182   2.806 -0.9224 -0.7099 -0.3835
  163SAPE   H5Y18269   4.292   2.260   2.669  0.8757 -0.6538 -1.0587
  163SAPE   C3618270   4.411   2.119   2.770  0.4406 -0.3620  0.7012
  163SAPE   H6X18271   4.401   2.020   2.818 -0.1626  0.2640  1.9104
  163SAPE   H6Y18272   4.450   2.185   2.850  1.1485  0.3964 -0.2473
  163SAPE   C3718273   4.521   2.124   2.664 -0.8614 -0.1447 -0.1010
  163SAPE   H7X18274   4.501   2.203   2.588  0.1768 -0.0366 -0.2752
  163SAPE   H7Y18275   4.524   2.036   2.596 -1.7095  0.2857 -0.7191
  163SAPE   C3818276   4.667   2.136   2.721  0.2648  0.2919  0.0457
  163SAPE   H8X18277   4.695   2.057   2.795  2.6129  1.0662  0.0436
  163SAPE   H8Y18278   4.674   2.235   2.770  1.1348 -0.7088  2.0582
  163SAPE   C3918279   4.771   2.134   2.615 -0.2064  0.2649 -0.3467
  163SAPE   H9X18280   4.757   2.217   2.542  1.4056  0.7529 -0.1446
  163SAPE   H9Y18281   4.751   2.037   2.564 -1.4683  0.7530 -0.8253
  163SAPE  C31018282   4.911   2.144   2.669 -0.0763 -0.6825  0.3043
  163SAPE  H10X18283   4.916   2.217   2.752  2.0103  2.8109 -2.5636
  163SAPE  H10Y18284   4.980   2.198   2.601 -2.8749  2.0818 -0.5457
  163SAPE  C31118285   4.989   2.015   2.686 -0.0226  0.2273 -0.1291
  163SAPE  H11X18286   5.093   2.044   2.713  0.2631  0.2774 -1.2607
  163SAPE  H11Y18287   4.984   1.954   2.594  1.3538 -0.6346  0.3329
  163SAPE  C31218288   4.943   1.937   2.806 -0.4720 -0.0935 -0.7061
  163SAPE  H12X18289   4.837   1.906   2.797 -0.2251 -0.4512 -3.0086
  163SAPE  H12Y18290   4.943   1.997   2.900  1.6934 -0.5159 -0.3632
  163SAPE  C31318291   5.016   1.808   2.850 -0.6229 -0.1438  0.6774
  163SAPE  H13X18292   5.125   1.833   2.853 -0.6255 -0.1963  1.4123
  163SAPE  H13Y18293   4.996   1.727   2.777 -1.5673  0.7889 -0.1401
  163SAPE  C31418294   4.971   1.769   2.993 -0.1344  0.0065 -0.9154
  163SAPE  H14X18295   4.862   1.748   2.995  0.1874 -1.9834 -1.7265
  163SAPE  H14Y18296   4.996   1.858   3.054 -0.7728 -1.2468  1.3049
  163SAPE  C31518297   5.052   1.649   3.054  0.1615 -0.0942  0.2144
  163SAPE  H15X18298   5.161   1.673   3.060  0.7859 -2.9534  2.1371
  163SAPE  H15Y18299   5.040   1.556   2.996  0.6448 -0.5294  0.8028
  163SAPE  C31618300   4.990   1.627   3.189 -0.1833 -0.1622  0.3103
  163SAPE  H16X18301   4.890   1.582   3.173  0.9150 -2.9664  0.6495
  163SAPE  H16Y18302   4.976   1.722   3.245 -0.5239 -0.7829  1.3091
  163SAPE  C31718303   5.070   1.526   3.264 -0.1915  0.7297  0.6140
  163SAPE  H17X18304   5.165   1.497   3.214  0.1837  2.6311  0.1496
  163SAPE  H17Y18305   5.016   1.429   3.268 -0.8012  0.9136 -1.6809
  163SAPE  C31818306   5.099   1.574   3.405 -0.0046 -0.2520 -0.4374
  163SAPE  H18X18307   5.015   1.617   3.462 -0.2892 -0.8470 -0.4025
  163SAPE  H18Y18308   5.189   1.639   3.410 -1.7135  2.2078 -0.0989
  163SAPE  H18Z18309   5.113   1.482   3.464 -1.0535  0.4825  1.0076
  164SAPE     N18310   6.173   4.326   1.851  0.2753  0.5261 -0.3608
  164SAPE   HN118311   6.180   4.318   1.954 -1.2946 -1.8110 -0.3571
  164SAPE   HN218312   6.080   4.360   1.817 -0.3721 -0.9194 -0.0929
  164SAPE   HN318313   6.181   4.229   1.815  0.0504  0.3053  0.1730
  164SAPE   C1218314   6.265   4.426   1.798 -0.0940  0.1709 -0.0220
  164SAPE  H12A18315   6.243   4.524   1.844  1.6920  0.5100  0.1942
  164SAPE  H12B18316   6.256   4.430   1.688 -0.7851  0.6364  0.0472
  164SAPE   C1118317   6.411   4.390   1.834  0.2827 -0.1262 -0.3873
  164SAPE  H11A18318   6.407   4.390   1.945 -1.7671  0.6801 -0.4001
  164SAPE  H11B18319   6.483   4.469   1.805  0.8833 -0.0770  1.1573
  164SAPE     P18320   6.589   4.230   1.727  0.2821 -0.0335  0.2717
  164SAPE   O1318321   6.608   4.088   1.712  0.6053  0.6448 -0.0195
  164SAPE   O1418322   6.592   4.308   1.597  0.3642  1.0655 -0.3890
  164SAPE   O1218323   6.446   4.261   1.780 -0.3511  0.6015 -0.3284
  164SAPE   O1118324   6.692   4.299   1.822 -0.1985 -0.2243  0.0918
  164SAPE    C118325   6.706   4.238   1.947 -0.5049 -0.0622  0.5821
  164SAPE    HA18326   6.603   4.223   1.988 -1.6637 -0.6113 -2.3000
  164SAPE    HB18327   6.757   4.140   1.942 -0.5001 -0.0761  0.8867
  164SAPE    C218328   6.773   4.324   2.059 -0.0934  0.1428  0.4936
  164SAPE    HS18329   6.701   4.407   2.075  0.1187  0.3484  0.3946
  164SAPE   O2118330   6.892   4.382   2.017 -0.1950  0.2368  0.1136
  164SAPE   C2118331   7.002   4.299   2.011 -0.1181 -1.3272  0.3573
  164SAPE   O2218332   7.005   4.181   2.009  0.0656  0.0868  1.0292
  164SAPE   C2218333   7.124   4.381   1.984  0.4947 -0.0421  0.4467
  164SAPE   H2R18334   7.145   4.381   1.875  1.8940  0.1822  0.6988
  164SAPE   H2S18335   7.105   4.487   2.013 -0.0219 -0.2804  0.9960
  164SAPE    C318336   6.787   4.253   2.196  0.1940  0.2452  0.3293
  164SAPE    HX18337   6.829   4.153   2.175  0.7008  0.3850  0.6657
  164SAPE    HY18338   6.688   4.231   2.241 -0.3903  0.3727 -0.8617
  164SAPE   O3118339   6.867   4.324   2.293 -0.4530  0.3491 -0.6048
  164SAPE   C3118340   6.947   4.243   2.376 -0.0608 -0.1478 -0.2510
  164SAPE   O3218341   6.970   4.129   2.353 -0.2947  0.5465  0.1564
  164SAPE   C3218342   6.987   4.317   2.509 -0.1300  0.2994 -0.0193
  164SAPE   H2X18343   6.933   4.414   2.515 -0.5289  0.0616  0.2910
  164SAPE   H2Y18344   7.094   4.344   2.504  0.3550 -1.0860  1.9228
  164SAPE   C2318345   7.240   4.317   2.062  0.1715 -0.9783  0.4210
  164SAPE   H3R18346   7.340   4.338   2.020 -0.3940 -1.0618 -1.0219
  164SAPE   H3S18347   7.232   4.207   2.066 -2.0468 -0.8177  2.4486
  164SAPE   C2418348   7.245   4.370   2.213  0.4115  0.2067  0.3727
  164SAPE   H4R18349   7.145   4.413   2.235  0.8125  1.4858 -0.2230
  164SAPE   H4S18350   7.319   4.453   2.218 -0.9924  1.4350  2.7159
  164SAPE   C2518351   7.282   4.256   2.302 -0.0468 -0.3622 -0.2197
  164SAPE   H5R18352   7.273   4.151   2.273  0.2916 -0.5603  0.3918
  164SAPE   C2618353   7.340   4.273   2.428  0.4899 -0.8412  0.2127
  164SAPE   H6R18354   7.353   4.188   2.495  0.3038 -2.0810 -1.2645
  164SAPE   C2718355   7.370   4.404   2.498  0.1887 -0.7279  0.5309
  164SAPE   H7R18356   7.288   4.476   2.475  0.4738 -0.4845  0.2719
  164SAPE   H7S18357   7.448   4.452   2.436 -1.1689 -1.3371 -1.7700
  164SAPE   C2818358   7.405   4.392   2.645 -0.0748  0.5435 -0.3008
  164SAPE   H8R18359   7.447   4.291   2.659 -1.8457 -0.4788 -1.9887
  164SAPE   C2918360   7.415   4.488   2.737  0.0635  0.4058  0.3381
  164SAPE   H9R18361   7.440   4.473   2.843 -1.3830  0.6964  0.7405
  164SAPE  C21018362   7.383   4.634   2.715 -0.2712 -0.0761  0.5047
  164SAPE  H10R18363   7.398   4.665   2.609  2.0156 -1.4689  0.3509
  164SAPE  H10S18364   7.456   4.700   2.767  1.3210 -0.5394 -1.0551
  164SAPE  C21118365   7.240   4.678   2.752  0.2066  0.3469  0.2528
  164SAPE  H11R18366   7.167   4.642   2.678  0.7174 -1.4541  0.5778
  164SAPE  C21218367   7.200   4.743   2.864 -0.5005 -0.0815 -0.8998
  164SAPE  H12R18368   7.096   4.777   2.880  0.0126  1.2330 -0.2274
  164SAPE  C21318369   7.280   4.788   2.982 -0.8309  0.6710  0.7771
  164SAPE  H13R18370   7.272   4.896   3.004 -0.0807  0.6173  1.3414
  164SAPE  H13S18371   7.387   4.765   2.963 -0.3720  1.2508  2.5426
  164SAPE  C21418372   7.240   4.716   3.109  0.1632  0.4070 -0.1335
  164SAPE  H14R18373   7.276   4.612   3.119 -0.9064 -0.0555 -0.8001
  164SAPE  C21518374   7.151   4.750   3.196  0.0581  0.5727 -0.1529
  164SAPE  H15R18375   7.138   4.686   3.284  0.1678 -0.2329 -0.7056
  164SAPE  C21618376   7.066   4.871   3.183 -0.2559 -0.0102 -0.3225
  164SAPE  H16R18377   6.969   4.844   3.231 -0.0080 -1.6101 -0.6469
  164SAPE  H16S18378   7.037   4.881   3.077  1.0366  0.8367 -0.6124
  164SAPE  C21718379   7.139   4.994   3.242 -0.6207  0.0752  0.9247
  164SAPE  H17R18380   7.080   5.088   3.234 -3.0697 -1.1674  2.9458
  164SAPE  H17S18381   7.239   4.999   3.193 -1.5135 -1.7201 -1.2832
  164SAPE  C21818382   7.155   4.975   3.395 -0.2140  0.1206  0.6121
  164SAPE  H18R18383   7.197   4.876   3.425  0.5772  0.0083 -0.8085
  164SAPE  H18S18384   7.051   4.976   3.434 -0.4981  0.7195 -0.1492
  164SAPE  C21918385   7.234   5.074   3.471  0.4169  0.4703 -1.4599
  164SAPE  H19R18386   7.340   5.072   3.440  0.7457  1.2218 -0.4326
  164SAPE  H19S18387   7.238   5.035   3.576 -0.0488  1.1513 -1.1862
  164SAPE  C22018388   7.175   5.215   3.466 -0.0035 -0.2002  0.2976
  164SAPE  H20R18389   7.198   5.270   3.560  0.4023 -3.4766  2.2835
  164SAPE  H20S18390   7.067   5.194   3.454  0.1526 -0.6034 -0.4835
  164SAPE  H20T18391   7.201   5.273   3.375  1.6618 -2.0349 -0.4934
  164SAPE   C3318392   6.954   4.234   2.638  0.5858  0.7244  0.1759
  164SAPE   H3X18393   6.988   4.131   2.617 -0.5404  0.2857  0.4279
  164SAPE   H3Y18394   6.844   4.236   2.654  0.8010  2.0860  1.8333
  164SAPE   C3418395   7.028   4.286   2.761  0.2541  0.2992 -0.1867
  164SAPE   H4X18396   7.017   4.396   2.768 -3.2979  0.0346  0.4694
  164SAPE   H4Y18397   7.136   4.268   2.746 -0.1148 -2.5770 -0.0218
  164SAPE   C3518398   6.985   4.208   2.890 -0.5620  0.1134 -0.0825
  164SAPE   H5X18399   6.997   4.099   2.871  3.1436  0.5387 -0.9569
  164SAPE   H5Y18400   6.879   4.214   2.922 -0.1334 -1.0628  1.6881
  164SAPE   C3618401   7.067   4.238   3.016 -0.2660 -0.2550 -0.5527
  164SAPE   H6X18402   7.043   4.341   3.048  2.3650  0.1601  0.3197
  164SAPE   H6Y18403   7.174   4.234   2.985 -0.7382 -0.5340 -2.2473
  164SAPE   C3718404   7.048   4.139   3.131 -0.9947 -0.0549 -0.0181
  164SAPE   H7X18405   7.141   4.139   3.191 -1.0099  0.9452  0.0270
  164SAPE   H7Y18406   7.032   4.041   3.082  0.0932 -0.0018 -0.4946
  164SAPE   C3818407   6.926   4.173   3.211  1.1247  0.3997 -0.6164
  164SAPE   H8X18408   6.843   4.105   3.184 -0.4550  2.5767 -1.5581
  164SAPE   H8Y18409   6.887   4.272   3.177  0.6525  0.4022 -0.0888
  164SAPE   C3918410   6.956   4.180   3.357 -0.5902  0.6613 -0.2429
  164SAPE   H9X18411   7.040   4.247   3.385  0.6365 -0.5351 -0.9899
  164SAPE   H9Y18412   6.989   4.081   3.394 -1.2902  0.0267 -1.2541
  164SAPE  C31018413   6.829   4.216   3.438  0.2317 -0.6062  0.3939
  164SAPE  H10X18414   6.749   4.142   3.416  0.0337 -0.5577  0.9229
  164SAPE  H10Y18415   6.795   4.318   3.413  1.2673 -0.4126 -0.2950
  164SAPE  C31118416   6.859   4.228   3.586  0.2316  0.1505  0.4475
  164SAPE  H11X18417   6.942   4.300   3.603  0.5524  0.4873 -2.0937
  164SAPE  H11Y18418   6.910   4.133   3.613 -0.5812  0.5162  3.6915
  164SAPE  C31218419   6.740   4.248   3.681 -0.3090 -0.2158  0.0790
  164SAPE  H12X18420   6.652   4.190   3.648 -0.6358  0.4520 -0.2382
  164SAPE  H12Y18421   6.700   4.352   3.680  1.7922  0.6662 -0.6974
  164SAPE  C31318422   6.780   4.189   3.821 -0.2879  0.0446 -0.2057
  164SAPE  H13X18423   6.810   4.082   3.817  2.8990  0.6517  2.4280
  164SAPE  H13Y18424   6.687   4.188   3.881 -1.2152 -1.4558 -1.6026
  164SAPE  C31418425   6.888   4.275   3.898 -0.1716  0.2826  0.9703
  164SAPE  H14X18426   6.854   4.286   4.003  0.5100 -2.0723  1.4817
  164SAPE  H14Y18427   6.900   4.367   3.836  0.1727 -1.0661 -1.0547
  164SAPE  C31518428   7.031   4.220   3.921  0.1405  0.4808 -0.4648
  164SAPE  H15X18429   7.089   4.197   3.829  0.8972 -0.9369  0.3255
  164SAPE  H15Y18430   7.026   4.118   3.966 -0.2462 -0.8626 -3.2942
  164SAPE  C31618431   7.113   4.307   4.010 -0.5657 -0.5201 -0.4572
  164SAPE  H16X18432   7.116   4.277   4.117 -1.8923  0.4181 -0.1424
  164SAPE  H16Y18433   7.077   4.412   4.009  2.4575  0.6090 -0.6602
  164SAPE  C31718434   7.265   4.317   3.965 -0.5249  0.8333  0.8327
  164SAPE  H17X18435   7.259   4.339   3.856  0.0759  0.0162  0.6201
  164SAPE  H17Y18436   7.304   4.213   3.970 -0.8037  0.7121  0.5787
  164SAPE  C31818437   7.346   4.413   4.046 -0.1045 -0.4139 -0.3314
  164SAPE  H18X18438   7.320   4.520   4.032 -0.2794 -0.3782  0.2168
  164SAPE  H18Y18439   7.453   4.390   4.026  0.5938  1.8663  0.3422
  164SAPE  H18Z18440   7.322   4.400   4.154 -3.9845  3.5373 -0.4090
  165SAPE     N18441   4.968   5.709   1.780  0.2235  0.5730  0.3448
  165SAPE   HN118442   4.884   5.724   1.839  0.2206  0.1536  0.4429
  165SAPE   HN218443   5.040   5.784   1.792  1.2599 -0.5376  1.3804
  165SAPE   HN318444   4.934   5.715   1.681  1.9330 -1.3557 -0.4284
  165SAPE   C1218445   5.013   5.564   1.797 -0.5421 -1.1318  0.3854
  165SAPE  H12A18446   5.100   5.546   1.729 -1.8764 -0.9153 -1.4667
  165SAPE  H12B18447   4.925   5.500   1.778 -2.1707  1.3631 -1.0548
  165SAPE   C1118448   5.055   5.545   1.943 -0.8681 -0.3213  0.1156
  165SAPE  H11A18449   5.088   5.439   1.956  0.8684 -0.0488 -1.6498
  165SAPE  H11B18450   4.968   5.557   2.011 -2.1151  1.6294 -1.7409
  165SAPE     P18451   5.261   5.589   2.097 -0.2689  0.6897 -0.3191
  165SAPE   O1318452   5.360   5.498   2.035  0.0552  0.2928  0.2010
  165SAPE   O1418453   5.310   5.712   2.157  0.2962  0.2041 -0.6051
  165SAPE   O1218454   5.161   5.620   1.979 -0.1298  0.4206 -0.3359
  165SAPE   O1118455   5.174   5.513   2.205  0.4205  0.3718  0.2621
  165SAPE    C118456   5.123   5.573   2.323  0.7363 -0.1705  0.7178
  165SAPE    HA18457   5.088   5.674   2.290  0.4045 -0.8855 -1.3074
  165SAPE    HB18458   5.025   5.529   2.353 -0.5557  1.2986 -1.0691
  165SAPE    C218459   5.221   5.571   2.438 -0.3746  0.5057  0.1809
  165SAPE    HS18460   5.319   5.582   2.387 -0.7379  1.5923 -0.3198
  165SAPE   O2118461   5.207   5.437   2.501  0.0022  0.6966 -0.2162
  165SAPE   C2118462   5.305   5.411   2.588 -0.4669 -0.6098 -0.3958
  165SAPE   O2218463   5.411   5.474   2.599  0.7144  0.0159  0.0632
  165SAPE   C2218464   5.268   5.293   2.677  0.4442 -0.6410  0.2927
  165SAPE   H2R18465   5.160   5.294   2.704  0.0174  1.8014 -1.2444
  165SAPE   H2S18466   5.282   5.201   2.616  0.6391  0.5760 -1.5675
  165SAPE    C318467   5.184   5.688   2.535 -0.6660  0.1611  0.5523
  165SAPE    HX18468   5.235   5.774   2.486 -1.4755  0.4546  0.2199
  165SAPE    HY18469   5.243   5.671   2.628  0.3580  0.5145 -0.0068
  165SAPE   O3118470   5.050   5.708   2.560  0.6579  0.0973  0.3210
  165SAPE   C3118471   4.992   5.639   2.655 -0.3458  0.2282 -0.2855
  165SAPE   O3218472   5.054   5.574   2.738 -0.0330  0.2435 -0.1906
  165SAPE   C3218473   4.844   5.664   2.655 -0.3563  0.2583 -0.4330
  165SAPE   H2X18474   4.803   5.567   2.690  1.8938 -0.6910 -0.2771
  165SAPE   H2Y18475   4.811   5.686   2.551  1.7737  0.2074 -1.1631
  165SAPE   C2318476   5.351   5.289   2.814 -0.1024  0.5111  0.5897
  165SAPE   H3R18477   5.321   5.370   2.884 -0.8819 -1.4922  2.6999
  165SAPE   H3S18478   5.454   5.323   2.789 -0.3176  0.9546  0.2791
  165SAPE   C2418479   5.358   5.159   2.886 -0.1238 -0.4436 -0.0949
  165SAPE   H4R18480   5.445   5.157   2.955  0.1198 -1.4295 -0.4173
  165SAPE   H4S18481   5.384   5.081   2.811  2.3706  0.2128  0.0062
  165SAPE   C2518482   5.233   5.128   2.958 -0.0843  0.4995  0.3375
  165SAPE   H5R18483   5.149   5.095   2.896  0.6757 -0.3939 -0.2464
  165SAPE   C2618484   5.211   5.121   3.091  0.2348 -0.6936  0.1740
  165SAPE   H6R18485   5.113   5.099   3.136 -0.0605 -3.2587 -1.5371
  165SAPE   C2718486   5.309   5.147   3.207  0.1261 -0.3616  0.2235
  165SAPE   H7R18487   5.265   5.233   3.261  1.0121  0.3713 -0.1965
  165SAPE   H7S18488   5.404   5.187   3.167 -1.7686  3.9889 -0.5046
  165SAPE   C2818489   5.327   5.038   3.302  0.8884  0.1827  0.7078
  165SAPE   H8R18490   5.413   4.973   3.278  0.4890  0.1431 -0.7361
  165SAPE   C2918491   5.259   5.008   3.420 -0.1038  0.5322  0.4909
  165SAPE   H9R18492   5.284   4.914   3.471  0.3047 -0.0552 -0.7585
  165SAPE  C21018493   5.147   5.094   3.474 -0.2627  0.2107  0.2028
  165SAPE  H10R18494   5.062   5.081   3.403  0.7901  3.1070 -1.7937
  165SAPE  H10S18495   5.180   5.199   3.484 -1.4210  0.8959 -2.3665
  165SAPE  C21118496   5.087   5.042   3.600 -0.1641  0.1149 -0.1528
  165SAPE  H11R18497   5.030   4.949   3.589 -1.4209  0.8574 -0.0651
  165SAPE  C21218498   5.118   5.082   3.727  0.2588  0.4601  0.3244
  165SAPE  H12R18499   5.077   5.024   3.811  0.3694  1.1010  0.8272
  165SAPE  C21318500   5.206   5.197   3.773  0.5435  0.4936  0.5487
  165SAPE  H13R18501   5.137   5.282   3.789 -0.2622  0.2054 -1.1750
  165SAPE  H13S18502   5.263   5.229   3.683  0.3287 -1.8450 -0.5037
  165SAPE  C21418503   5.304   5.180   3.880 -0.0414  0.3495  0.4343
  165SAPE  H14R18504   5.408   5.149   3.859 -0.7566 -1.2226 -0.9105
  165SAPE  C21518505   5.263   5.181   4.009 -0.6809  0.5517  0.7829
  165SAPE  H15R18506   5.340   5.166   4.086  1.2910 -0.4793 -1.2702
  165SAPE  C21618507   5.133   5.226   4.069  0.2702 -0.6391  0.3255
  165SAPE  H16R18508   5.103   5.151   4.145 -0.1163 -2.0544 -1.1822
  165SAPE  H16S18509   5.052   5.214   3.994 -0.1761  0.5828  0.5756
  165SAPE  C21718510   5.144   5.378   4.109  0.4050  0.1531 -0.0537
  165SAPE  H17R18511   5.156   5.437   4.015 -0.1116  2.0700  1.0342
  165SAPE  H17S18512   5.231   5.398   4.175 -0.7316  0.9563  1.2585
  165SAPE  C21818513   5.015   5.431   4.192 -0.6601 -0.0553 -0.1133
  165SAPE  H18R18514   5.000   5.369   4.282  1.4661  0.8832  0.9450
  165SAPE  H18S18515   4.919   5.427   4.135 -0.2274 -0.4144 -0.8397
  165SAPE  C21918516   5.013   5.579   4.248  0.2418  0.3954  0.6949
  165SAPE  H19R18517   4.924   5.607   4.309 -0.8178  0.5875 -0.8717
  165SAPE  H19S18518   5.016   5.655   4.167  2.7507  0.1331  0.4768
  165SAPE  C22018519   5.123   5.600   4.353  0.1760  0.2663 -0.3518
  165SAPE  H20R18520   5.103   5.553   4.452  0.2254 -0.2343 -0.5799
  165SAPE  H20S18521   5.135   5.709   4.370 -2.7463  0.8785 -1.5801
  165SAPE  H20T18522   5.221   5.560   4.321  0.3471 -0.0193  0.4928
  165SAPE   C3318523   4.795   5.774   2.754  0.1996 -0.3025  0.4282
  165SAPE   H3X18524   4.692   5.809   2.731  0.8753  0.8972 -0.9398
  165SAPE   H3Y18525   4.852   5.869   2.741  0.3931 -0.4138  0.4601
  165SAPE   C3418526   4.787   5.732   2.902  0.0768  0.2710 -0.0009
  165SAPE   H4X18527   4.886   5.695   2.934 -0.9990 -1.1006  1.9639
  165SAPE   H4Y18528   4.716   5.648   2.919  1.1062 -0.3983  1.1072
  165SAPE   C3518529   4.748   5.848   2.996 -0.9375 -0.3666  0.4235
  165SAPE   H5X18530   4.644   5.871   2.967 -0.3952  0.0707 -1.2462
  165SAPE   H5Y18531   4.818   5.930   2.970 -0.0348 -1.3550 -0.3987
  165SAPE   C3618532   4.753   5.813   3.144  0.6580  0.1851 -0.7933
  165SAPE   H6X18533   4.852   5.776   3.178 -0.1528 -1.2265  0.1304
  165SAPE   H6Y18534   4.666   5.745   3.157 -2.1473  3.5822 -0.0624
  165SAPE   C3718535   4.713   5.938   3.233 -0.3996 -0.0309  0.2280
  165SAPE   H7X18536   4.623   5.996   3.206  2.0083  4.2786  0.5415
  165SAPE   H7Y18537   4.795   6.011   3.217  0.5344 -1.7482 -4.5401
  165SAPE   C3818538   4.726   5.900   3.380  0.0702  0.1822 -0.3409
  165SAPE   H8X18539   4.739   5.993   3.440  1.4295 -0.6813  0.7545
  165SAPE   H8Y18540   4.820   5.842   3.393  0.1114 -0.1076 -1.8015
  165SAPE   C3918541   4.602   5.828   3.436 -0.2670  0.4005  0.9370
  165SAPE   H9X18542   4.615   5.719   3.419  1.2865  0.7029 -0.0532
  165SAPE   H9Y18543   4.522   5.858   3.366  0.2697  0.7153  0.4458
  165SAPE  C31018544   4.551   5.854   3.583 -0.1072 -0.4154  0.2080
  165SAPE  H10X18545   4.486   5.768   3.610  0.6874 -0.7952  0.9658
  165SAPE  H10Y18546   4.489   5.945   3.589 -1.2991 -1.2991  2.7272
  165SAPE  C31118547   4.664   5.834   3.692  0.4688  0.4191  0.9408
  165SAPE  H11X18548   4.729   5.758   3.643 -1.2757  0.6577 -1.9703
  165SAPE  H11Y18549   4.624   5.780   3.780 -0.2346 -1.5266 -0.5041
  165SAPE  C31218550   4.738   5.962   3.731  0.0464  0.2196  0.6814
  165SAPE  H12X18551   4.765   6.037   3.653  2.4607 -1.6726 -0.4499
  165SAPE  H12Y18552   4.840   5.931   3.761 -0.0527  0.5719  1.3867
  165SAPE  C31318553   4.685   6.021   3.863  0.4678  0.0125  0.3127
  165SAPE  H13X18554   4.646   5.936   3.923 -0.9327  0.6341  0.3207
  165SAPE  H13Y18555   4.587   6.069   3.840  1.3323  2.1325  0.8283
  165SAPE  C31418556   4.780   6.097   3.948  0.0467  0.1191  0.2777
  165SAPE  H14X18557   4.839   6.177   3.899 -0.3616  1.8440  2.4225
  165SAPE  H14Y18558   4.855   6.021   3.976  0.9277  1.2581  1.1135
  165SAPE  C31518559   4.722   6.155   4.073  0.8543 -0.0920 -0.0164
  165SAPE  H15X18560   4.690   6.069   4.136  1.6089 -0.7348 -0.4873
  165SAPE  H15Y18561   4.638   6.224   4.051 -0.9821 -2.3483 -0.5132
  165SAPE  C31618562   4.818   6.248   4.153  0.2433  0.1687 -0.4483
  165SAPE  H16X18563   4.849   6.324   4.079 -2.2951  0.8809 -0.8652
  165SAPE  H16Y18564   4.908   6.196   4.193  0.1699  1.3325  1.3949
  165SAPE  C31718565   4.750   6.308   4.281 -0.2387 -0.1844  1.2328
  165SAPE  H17X18566   4.659   6.361   4.246  0.6938  0.4118 -0.3689
  165SAPE  H17Y18567   4.825   6.382   4.317  0.0138  2.3240 -3.6368
  165SAPE  C31818568   4.695   6.211   4.386  0.3338  0.3974 -0.2878
  165SAPE  H18X18569   4.663   6.112   4.345  2.3916 -0.6454  0.4750
  165SAPE  H18Y18570   4.611   6.262   4.438  1.7740  0.9382  1.6161
  165SAPE  H18Z18571   4.766   6.189   4.469 -2.0854 -0.2376  1.7531
  166SAPE     N18572   0.667   4.923   1.752  0.4211 -0.7749  0.6640
  166SAPE   HN118573   0.674   4.821   1.734  0.5913 -0.6464 -0.0211
  166SAPE   HN218574   0.565   4.939   1.765 -0.3138 -2.8571 -1.7283
  166SAPE   HN318575   0.704   4.979   1.672  3.2107 -2.7954  0.3919
  166SAPE   C1218576   0.744   4.949   1.880 -0.0086  0.0046 -0.0455
  166SAPE  H12A18577   0.851   4.923   1.861 -0.4209  0.2940 -3.5048
  166SAPE  H12B18578   0.704   4.877   1.954  3.3372 -1.3904  0.5943
  166SAPE   C1118579   0.730   5.096   1.919  0.4793  0.2107  0.5822
  166SAPE  H11A18580   0.746   5.125   2.025 -0.1410  1.5797  0.3305
  166SAPE  H11B18581   0.623   5.127   1.911  0.0046 -1.6381 -1.4229
  166SAPE     P18582   0.944   5.222   1.848  0.4247  0.2958  0.2248
  166SAPE   O1318583   1.029   5.100   1.867 -0.1536 -0.3754 -0.4772
  166SAPE   O1418584   0.979   5.307   1.726 -0.1093  0.2497  0.2874
  166SAPE   O1218585   0.796   5.173   1.824  0.1921 -0.2203 -0.3284
  166SAPE   O1118586   0.928   5.307   1.979 -0.0229 -0.1409 -0.3502
  166SAPE    C118587   0.860   5.442   1.982  0.0578  0.1632  0.1349
  166SAPE    HA18588   0.922   5.528   1.950 -0.4115  1.4521  2.4289
  166SAPE    HB18589   0.770   5.441   1.916 -0.3466 -2.1358  0.6502
  166SAPE    C218590   0.828   5.485   2.128 -0.0422 -0.1303  0.7046
  166SAPE    HS18591   0.775   5.582   2.128 -0.9995 -0.5602 -1.9474
  166SAPE   O2118592   0.956   5.506   2.184 -0.3121 -0.5190 -0.0601
  166SAPE   C2118593   0.950   5.598   2.283 -0.2129 -0.3031 -0.5702
  166SAPE   O2218594   0.856   5.663   2.323 -0.0467 -0.0856 -0.1872
  166SAPE   C2218595   1.089   5.616   2.344 -0.0503  0.0612 -0.0124
  166SAPE   H2R18596   1.162   5.639   2.263  0.0243 -0.3205 -0.0556
  166SAPE   H2S18597   1.082   5.716   2.393  1.2331  1.5621 -2.6561
  166SAPE    C318598   0.741   5.377   2.191 -0.1021 -0.2463  0.4526
  166SAPE    HX18599   0.800   5.285   2.211  1.1192  0.7573  1.6567
  166SAPE    HY18600   0.663   5.354   2.115 -0.0883  0.1536  0.3190
  166SAPE   O3118601   0.693   5.414   2.319 -0.1600 -0.5270 -0.1739
  166SAPE   C3118602   0.598   5.496   2.328 -0.9644  0.7635 -0.6191
  166SAPE   O3218603   0.533   5.546   2.244 -0.2119  0.3584  0.5900
  166SAPE   C3218604   0.559   5.504   2.479  0.5291  0.8269 -0.1123
  166SAPE   H2X18605   0.565   5.406   2.530 -2.4870  1.6667  2.1322
  166SAPE   H2Y18606   0.452   5.533   2.480 -0.0232 -0.8393  3.4165
  166SAPE   C2318607   1.138   5.490   2.418 -0.2447 -0.0324 -0.4670
  166SAPE   H3R18608   1.240   5.516   2.451 -0.0838  0.1674 -1.1050
  166SAPE   H3S18609   1.150   5.405   2.347 -1.8509 -0.9097  0.2398
  166SAPE   C2418610   1.047   5.457   2.532 -0.1531  0.0289  0.3939
  166SAPE   H4R18611   0.948   5.434   2.488 -0.5672  1.9038  0.2325
  166SAPE   H4S18612   1.031   5.543   2.600 -1.8502  0.3789 -0.4052
  166SAPE   C2518613   1.089   5.332   2.597  0.3117 -0.1548 -0.8803
  166SAPE   H5R18614   1.046   5.242   2.550  0.8997 -0.3755 -1.0053
  166SAPE   C2618615   1.142   5.328   2.716 -0.5592  0.2832 -0.8325
  166SAPE   H6R18616   1.156   5.227   2.758 -1.7151 -0.6952 -2.6554
  166SAPE   C2718617   1.197   5.441   2.800 -0.4470 -0.7383 -0.1045
  166SAPE   H7R18618   1.119   5.500   2.851 -1.1695 -1.2733 -0.5671
  166SAPE   H7S18619   1.233   5.518   2.728  0.3899 -0.7266  0.3063
  166SAPE   C2818620   1.323   5.409   2.892 -0.5201  0.0020 -0.5380
  166SAPE   H8R18621   1.405   5.365   2.833  0.1828  0.6633 -0.0680
  166SAPE   C2918622   1.321   5.405   3.028 -0.6127 -0.0059 -1.1952
  166SAPE   H9R18623   1.415   5.372   3.075 -0.2858 -0.5564 -2.2014
  166SAPE  C21018624   1.207   5.430   3.123  0.2550  0.1449 -0.6219
  166SAPE  H10R18625   1.121   5.462   3.060  0.9320  0.6725 -1.2908
  166SAPE  H10S18626   1.224   5.519   3.187 -0.5018 -0.4253  0.4109
  166SAPE  C21118627   1.174   5.312   3.212 -0.0836  0.1738 -0.0594
  166SAPE  H11R18628   1.115   5.236   3.158  1.6658 -1.1466 -0.1903
  166SAPE  C21218629   1.203   5.300   3.342  0.1452 -0.6131 -0.2583
  166SAPE  H12R18630   1.166   5.215   3.400 -1.2525 -1.1477 -1.8456
  166SAPE  C21318631   1.277   5.397   3.432 -0.4611 -0.5052 -0.1984
  166SAPE  H13R18632   1.319   5.475   3.365  1.2723  0.4191  1.8665
  166SAPE  H13S18633   1.369   5.343   3.465 -0.3046  0.7473  1.5197
  166SAPE  C21418634   1.200   5.454   3.551 -0.0170  0.1362 -0.6029
  166SAPE  H14R18635   1.126   5.529   3.521  0.9784  0.9963 -1.0003
  166SAPE  C21518636   1.216   5.413   3.681 -0.1694  0.4016 -0.2118
  166SAPE  H15R18637   1.151   5.466   3.752 -0.4164  1.5456 -1.2608
  166SAPE  C21618638   1.295   5.294   3.729  0.1872  0.3815 -0.4352
  166SAPE  H16R18639   1.337   5.316   3.829  0.9557  0.1983 -0.7060
  166SAPE  H16S18640   1.384   5.280   3.663 -0.0140  1.3432 -0.9253
  166SAPE  C21718641   1.226   5.161   3.726  0.2972  0.6265  0.6792
  166SAPE  H17R18642   1.292   5.080   3.761 -0.8958 -0.6577  0.0798
  166SAPE  H17S18643   1.200   5.148   3.618 -0.2261  2.2160  0.5837
  166SAPE  C21818644   1.103   5.143   3.819 -0.5144  0.0839  0.8854
  166SAPE  H18R18645   1.019   5.175   3.752  0.7110 -0.3748 -0.9436
  166SAPE  H18S18646   1.106   5.210   3.907  2.0046  0.9905  0.1910
  166SAPE  C21918647   1.080   5.000   3.867 -0.2339 -0.4232  0.1570
  166SAPE  H19R18648   1.059   4.928   3.785 -1.6709 -0.2056  0.3072
  166SAPE  H19S18649   0.979   4.997   3.914 -0.8386 -2.6958 -1.1183
  166SAPE  C22018650   1.179   4.951   3.961 -0.7260  0.1259 -0.3320
  166SAPE  H20R18651   1.277   4.939   3.908 -0.8001 -1.9189 -0.1161
  166SAPE  H20S18652   1.157   4.847   3.993  1.0740  0.0957  0.9319
  166SAPE  H20T18653   1.192   5.016   4.050 -0.8730  1.2891 -1.1399
  166SAPE   C3318654   0.656   5.589   2.556 -0.2288  0.0000  0.5766
  166SAPE   H3X18655   0.691   5.679   2.500 -2.8692  0.5473 -0.3669
  166SAPE   H3Y18656   0.745   5.527   2.577 -0.3455 -0.1149  0.7389
  166SAPE   C3418657   0.611   5.622   2.700  0.0031 -0.0487 -0.0155
  166SAPE   H4X18658   0.601   5.532   2.764  2.4932 -0.2975  0.1293
  166SAPE   H4Y18659   0.512   5.673   2.696 -0.4489 -0.7184  1.8059
  166SAPE   C3518660   0.715   5.710   2.772  0.2203 -0.4524  0.7277
  166SAPE   H5X18661   0.754   5.784   2.699  0.1687 -0.8965  0.2492
  166SAPE   H5Y18662   0.792   5.657   2.831  0.5095 -0.6586  0.1699
  166SAPE   C3618663   0.638   5.797   2.880 -0.6390 -0.4197 -1.3116
  166SAPE   H6X18664   0.535   5.821   2.847 -1.5348 -1.1208  0.7806
  166SAPE   H6Y18665   0.688   5.896   2.889 -1.7272  0.0422 -0.1633
  166SAPE   C3718666   0.652   5.735   3.018  0.4371  0.6859  0.3683
  166SAPE   H7X18667   0.756   5.705   3.044 -0.4672 -1.0450  2.3138
  166SAPE   H7Y18668   0.593   5.640   3.018 -0.1494  1.0445  0.5574
  166SAPE   C3818669   0.604   5.835   3.125  0.1341 -0.1956  0.2821
  166SAPE   H8X18670   0.498   5.854   3.097  0.8012 -0.2374 -2.5711
  166SAPE   H8Y18671   0.659   5.931   3.113  0.7742 -0.7112 -1.2239
  166SAPE   C3918672   0.624   5.779   3.259  0.1005  0.2681 -0.5097
  166SAPE   H9X18673   0.730   5.754   3.277  0.0732  0.4342 -0.1179
  166SAPE   H9Y18674   0.574   5.682   3.282 -0.4274  0.2315 -1.7194
  166SAPE  C31018675   0.596   5.869   3.378 -0.0696  0.0459 -0.1648
  166SAPE  H10X18676   0.487   5.889   3.386  0.3698  2.0992  1.5636
  166SAPE  H10Y18677   0.645   5.966   3.358  2.1139 -0.4055  2.3950
  166SAPE  C31118678   0.627   5.804   3.515 -0.5568 -0.1557 -0.2588
  166SAPE  H11X18679   0.737   5.786   3.522 -0.3674 -0.8924 -3.4186
  166SAPE  H11Y18680   0.570   5.710   3.517 -1.0786  0.1780  1.5664
  166SAPE  C31218681   0.585   5.888   3.633 -0.0503  0.8614  0.6916
  166SAPE  H12X18682   0.478   5.914   3.619  0.1365  0.0754 -3.3614
  166SAPE  H12Y18683   0.643   5.982   3.640 -2.2893  2.2090  2.5884
  166SAPE  C31318684   0.599   5.810   3.763 -0.0163  0.2369 -0.1960
  166SAPE  H13X18685   0.697   5.759   3.779 -0.6928 -1.2710 -0.6721
  166SAPE  H13Y18686   0.519   5.733   3.764 -2.3698  2.4931  2.4232
  166SAPE  C31418687   0.571   5.907   3.881  0.1884 -0.0709 -0.3426
  166SAPE  H14X18688   0.642   5.993   3.884 -0.2832  0.3041  0.8067
  166SAPE  H14Y18689   0.595   5.850   3.974 -0.2617  1.2621  0.6227
  166SAPE  C31518690   0.425   5.963   3.879 -0.3396  0.0806 -0.3660
  166SAPE  H15X18691   0.350   5.882   3.868 -0.1674 -0.8805  3.9056
  166SAPE  H15Y18692   0.392   6.027   3.794 -1.1068 -0.1657 -0.2682
  166SAPE  C31618693   0.384   6.037   4.007 -0.0778  0.2370 -0.3217
  166SAPE  H16X18694   0.443   6.127   4.032 -0.0291 -0.2439  1.3752
  166SAPE  H16Y18695   0.403   5.972   4.095  0.0547  0.3573 -0.2612
  166SAPE  C31718696   0.232   6.065   4.020 -0.0557 -0.2726 -0.0737
  166SAPE  H17X18697   0.178   5.990   3.958 -0.6722 -1.5752  1.9338
  166SAPE  H17Y18698   0.218   6.171   3.991  0.7195  0.0051  0.5354
  166SAPE  C31818699   0.176   6.051   4.160 -0.4702 -0.5827 -0.0728
  166SAPE  H18X18700   0.207   6.145   4.210 -1.5035 -0.2552 -0.0200
  166SAPE  H18Y18701   0.211   5.963   4.218 -1.2398 -0.7554  0.1375
  166SAPE  H18Z18702   0.066   6.056   4.145 -0.5433  0.7457  0.8327
  167SAPE     N18703   0.242   1.910   1.867 -0.0180 -0.7724 -0.6996
  167SAPE   HN118704   0.186   1.969   1.802 -0.9772  1.2683  1.8181
  167SAPE   HN218705   0.337   1.894   1.826  0.2275 -1.4798  0.1256
  167SAPE   HN318706   0.201   1.817   1.888  0.0051 -0.5321  0.4291
  167SAPE   C1218707   0.257   1.984   1.996  0.3118  1.4287  0.4195
  167SAPE  H12A18708   0.164   1.977   2.057  1.8332  1.1495  2.8594
  167SAPE  H12B18709   0.276   2.089   1.964 -0.1201  1.2354 -0.5190
  167SAPE   C1118710   0.379   1.924   2.077  0.2080 -0.1572 -0.5533
  167SAPE  H11A18711   0.354   1.829   2.130 -1.2092 -1.2230 -2.9931
  167SAPE  H11B18712   0.395   1.998   2.158  0.7890  0.2561 -1.0407
  167SAPE     P18713   0.568   2.036   1.930 -0.0705 -0.5417  0.5309
  167SAPE   O1318714   0.705   1.994   1.893 -0.6737 -0.0434  0.5574
  167SAPE   O1418715   0.483   2.091   1.828 -0.1776  0.2579 -0.2880
  167SAPE   O1218716   0.495   1.914   1.993  0.2736  0.1340 -0.3382
  167SAPE   O1118717   0.573   2.135   2.054 -0.6466 -0.0101 -0.1888
  167SAPE    C118718   0.663   2.094   2.163  0.1348 -0.2578  0.5423
  167SAPE    HA18719   0.606   2.013   2.214 -1.4306  0.1049 -0.5414
  167SAPE    HB18720   0.761   2.071   2.118 -0.6915  0.1757 -1.5863
  167SAPE    C218721   0.687   2.202   2.270 -0.2940 -0.7061 -0.2145
  167SAPE    HS18722   0.723   2.291   2.214 -2.9630 -0.6554 -1.9986
  167SAPE   O2118723   0.773   2.135   2.357 -0.7225 -0.2313 -0.0389
  167SAPE   C2118724   0.873   2.213   2.408  0.4600 -0.8274 -0.3146
  167SAPE   O2218725   0.892   2.328   2.372 -0.1620  0.0975  0.6723
  167SAPE   C2218726   0.960   2.133   2.503 -0.4504 -0.5921 -0.2030
  167SAPE   H2R18727   0.896   2.101   2.589  0.7793  1.5741  1.6314
  167SAPE   H2S18728   0.985   2.039   2.450 -0.9128 -0.3483 -0.8557
  167SAPE    C318729   0.550   2.234   2.336  0.1372  0.8363  0.6913
  167SAPE    HX18730   0.533   2.144   2.399  1.2592  0.0750 -0.0599
  167SAPE    HY18731   0.468   2.231   2.261  0.5924 -0.3635  0.2233
  167SAPE   O3118732   0.546   2.351   2.420 -0.2552  0.0836  0.0920
  167SAPE   C3118733   0.547   2.469   2.351  0.0003 -0.7055 -0.4326
  167SAPE   O3218734   0.547   2.480   2.227  0.2022 -0.8314 -0.4516
  167SAPE   C3218735   0.540   2.590   2.448  0.3269  0.6321  0.0116
  167SAPE   H2X18736   0.465   2.571   2.528  0.7155 -0.3335  0.1615
  167SAPE   H2Y18737   0.504   2.673   2.383 -0.3613 -0.2907 -0.7989
  167SAPE   C2318738   1.092   2.194   2.570 -1.1542 -0.6470 -0.2786
  167SAPE   H3R18739   1.156   2.221   2.484  0.8099 -0.1177  1.2804
  167SAPE   H3S18740   1.151   2.128   2.637 -1.6111  0.1672  0.9634
  167SAPE   C2418741   1.068   2.322   2.653  0.2558  0.1285 -0.2341
  167SAPE   H4R18742   1.021   2.399   2.589  0.1003  0.3563  0.1591
  167SAPE   H4S18743   1.172   2.362   2.659  0.3105 -0.2316  1.6069
  167SAPE   C2518744   0.991   2.295   2.781 -0.3440 -0.2580  0.4263
  167SAPE   H5R18745   0.891   2.254   2.758  0.0855 -0.7260 -0.6611
  167SAPE   C2618746   1.027   2.333   2.905 -0.8089 -0.5652 -0.3753
  167SAPE   H6R18747   0.959   2.321   2.990 -2.1164  3.4392 -0.6464
  167SAPE   C2718748   1.154   2.400   2.946  0.3317  0.3106 -0.1505
  167SAPE   H7R18749   1.240   2.341   2.908 -0.7958 -1.2802 -0.3135
  167SAPE   H7S18750   1.162   2.394   3.057  0.6333  0.8947 -0.1324
  167SAPE   C2818751   1.162   2.548   2.915  0.0992  0.4850  0.3159
  167SAPE   H8R18752   1.103   2.578   2.827 -2.5419  1.9934  2.4517
  167SAPE   C2918753   1.213   2.641   3.002 -0.3894 -0.7473  0.3972
  167SAPE   H9R18754   1.196   2.746   2.974  0.5071 -0.3326  1.3545
  167SAPE  C21018755   1.275   2.620   3.135 -0.0647 -0.1965 -0.7512
  167SAPE  H10R18756   1.355   2.695   3.154 -1.5465  1.0901  0.7163
  167SAPE  H10S18757   1.323   2.521   3.151 -0.5833 -0.4150 -0.5216
  167SAPE  C21118758   1.172   2.648   3.246  0.2421 -0.7166  0.5783
  167SAPE  H11R18759   1.077   2.594   3.233 -0.1793 -0.0364  0.8117
  167SAPE  C21218760   1.188   2.730   3.359 -0.5890  0.3918  0.9988
  167SAPE  H12R18761   1.101   2.750   3.424 -0.4511  0.9808  1.0134
  167SAPE  C21318762   1.305   2.818   3.390 -0.3656  0.5155  0.8178
  167SAPE  H13R18763   1.348   2.848   3.292  0.1612  2.5408  1.6133
  167SAPE  H13S18764   1.383   2.759   3.443 -0.4345 -1.3333 -1.0277
  167SAPE  C21418765   1.275   2.934   3.482 -0.0509  0.0738  0.1890
  167SAPE  H14R18766   1.269   3.031   3.431  1.2798 -1.2469 -2.7289
  167SAPE  C21518767   1.269   2.930   3.614 -0.7213  0.5951  0.3962
  167SAPE  H15R18768   1.248   3.023   3.668 -2.7696  0.0751  0.5922
  167SAPE  C21618769   1.290   2.802   3.700  0.0071  0.6571  0.6214
  167SAPE  H16R18770   1.262   2.705   3.652  2.3294 -0.8566  2.1310
  167SAPE  H16S18771   1.224   2.799   3.790  0.4817 -4.1611  1.0858
  167SAPE  C21718772   1.435   2.791   3.733  0.5838  0.3631  0.0733
  167SAPE  H17R18773   1.462   2.864   3.811  2.2104 -1.7430  1.6198
  167SAPE  H17S18774   1.503   2.800   3.645 -0.7562 -1.5836 -1.2721
  167SAPE  C21818775   1.476   2.656   3.805  0.3637  0.3363 -0.0574
  167SAPE  H18R18776   1.587   2.646   3.801  0.4042  0.1460  1.3349
  167SAPE  H18S18777   1.434   2.578   3.737  0.3288 -0.3735  0.7721
  167SAPE  C21918778   1.411   2.631   3.945  0.9157 -0.1646 -0.4811
  167SAPE  H19R18779   1.322   2.696   3.956 -0.7229 -2.3598  0.0300
  167SAPE  H19S18780   1.487   2.654   4.022  0.1682 -0.2122  0.2845
  167SAPE  C22018781   1.373   2.478   3.969  0.1205  0.4525  0.4068
  167SAPE  H20R18782   1.462   2.414   3.959 -0.9893 -1.3848  1.6668
  167SAPE  H20S18783   1.300   2.445   3.891 -1.8465  4.1097  0.4585
  167SAPE  H20T18784   1.324   2.469   4.068  1.6932 -2.0007  1.0412
  167SAPE   C3318785   0.676   2.626   2.513  0.2940  0.6550  0.0199
  167SAPE   H3X18786   0.725   2.663   2.421 -0.8251  0.5648 -0.6312
  167SAPE   H3Y18787   0.727   2.535   2.552  0.8976  0.3630 -1.4081
  167SAPE   C3418788   0.662   2.727   2.623  0.2091  0.8126 -0.7211
  167SAPE   H4X18789   0.597   2.684   2.702 -0.9701  0.8328 -1.6449
  167SAPE   H4Y18790   0.613   2.817   2.580 -0.5091  0.6393 -0.2912
  167SAPE   C3518791   0.799   2.764   2.672 -1.0242 -0.6389 -0.2678
  167SAPE   H5X18792   0.856   2.789   2.580 -1.4373 -0.4884 -0.4845
  167SAPE   H5Y18793   0.855   2.678   2.714 -1.1834  0.1302  1.5777
  167SAPE   C3618794   0.818   2.874   2.777  1.0267 -0.0065 -0.3551
  167SAPE   H6X18795   0.746   2.854   2.858 -0.5073  0.8508 -1.4565
  167SAPE   H6Y18796   0.776   2.971   2.741  0.3443 -0.4335 -0.7389
  167SAPE   C3718797   0.954   2.893   2.844  0.0378 -0.3037  0.3918
  167SAPE   H7X18798   1.022   2.948   2.775  3.1089 -1.9927  1.8633
  167SAPE   H7Y18799   1.000   2.792   2.843 -0.9085 -0.8098 -2.6931
  167SAPE   C3818800   0.958   2.965   2.982  0.3344  0.0623  0.3070
  167SAPE   H8X18801   0.897   3.057   2.966  1.4105  0.6423 -0.5817
  167SAPE   H8Y18802   1.064   2.996   2.989 -0.0040  1.6241 -0.9461
  167SAPE   C3918803   0.909   2.894   3.103  0.1132  0.0377  0.1089
  167SAPE   H9X18804   0.957   2.798   3.134 -0.2797 -0.5269 -0.9994
  167SAPE   H9Y18805   0.803   2.871   3.081 -0.5655  0.8873  2.2275
  167SAPE  C31018806   0.914   2.985   3.226 -0.6983 -0.3719 -0.7888
  167SAPE  H10X18807   0.865   3.084   3.212  0.9355  0.6501  0.3149
  167SAPE  H10Y18808   1.023   3.004   3.236 -0.7442  0.5594 -1.8799
  167SAPE  C31118809   0.871   2.924   3.350  0.0369  0.1370 -0.1265
  167SAPE  H11X18810   0.920   2.826   3.365  2.7100  1.5606  1.1407
  167SAPE  H11Y18811   0.764   2.894   3.342  0.5911 -2.2194  0.6457
  167SAPE  C31218812   0.892   3.019   3.465  0.1957 -0.8059  0.0842
  167SAPE  H12X18813   0.817   3.101   3.462 -0.0804 -1.0724 -0.3234
  167SAPE  H12Y18814   0.985   3.076   3.446 -1.2685  1.3909 -0.8899
  167SAPE  C31318815   0.880   2.964   3.614 -0.1771 -0.2869  0.6439
  167SAPE  H13X18816   0.924   3.046   3.674  0.2738  0.7250 -0.9860
  167SAPE  H13Y18817   0.934   2.867   3.613 -1.3832 -1.0128 -1.4641
  167SAPE  C31418818   0.737   2.948   3.660 -0.9103 -0.1011 -0.3398
  167SAPE  H14X18819   0.664   3.028   3.635  0.0531 -0.0048 -3.1348
  167SAPE  H14Y18820   0.741   2.952   3.771 -1.2527  0.3603 -0.3419
  167SAPE  C31518821   0.673   2.816   3.628  0.5893  0.3876  0.1878
  167SAPE  H15X18822   0.750   2.737   3.639 -0.3811 -0.6470 -0.2817
  167SAPE  H15Y18823   0.634   2.814   3.524 -0.6555  1.8229  0.5915
  167SAPE  C31618824   0.541   2.791   3.703  0.3130 -0.7430 -0.0712
  167SAPE  H16X18825   0.487   2.888   3.715 -0.6158 -1.4504  1.9348
  167SAPE  H16Y18826   0.576   2.771   3.807  2.1970 -1.5014 -0.8251
  167SAPE  C31718827   0.459   2.670   3.660 -1.5345 -0.4277  0.3588
  167SAPE  H17X18828   0.411   2.702   3.565  2.3016  0.5836 -1.4804
  167SAPE  H17Y18829   0.372   2.659   3.728 -2.1693  1.1531 -0.1312
  167SAPE  C31818830   0.546   2.547   3.642  0.2209  0.4234  1.0894
  167SAPE  H18X18831   0.599   2.546   3.544 -0.1912  0.5115  0.8625
  167SAPE  H18Y18832   0.482   2.458   3.627  0.9640  0.2484 -1.7447
  167SAPE  H18Z18833   0.606   2.523   3.732 -0.0999 -2.8495  0.5503
  168SAPE     N18834   5.563   4.907   2.324  0.2768  0.2056  0.1401
  168SAPE   HN118835   5.666   4.903   2.341  0.3928 -0.2952 -0.6378
  168SAPE   HN218836   5.524   5.000   2.346 -1.0174  0.2353 -2.0655
  168SAPE   HN318837   5.513   4.834   2.378 -0.2645 -1.6009 -2.6123
  168SAPE   C1218838   5.543   4.881   2.173 -0.4394 -0.0626 -0.2030
  168SAPE  H12A18839   5.627   4.926   2.116  1.3728 -1.6259  1.0804
  168SAPE  H12B18840   5.440   4.910   2.144 -0.4719  0.7967  0.7143
  168SAPE   C1118841   5.561   4.725   2.154 -0.4971 -0.3094 -0.0433
  168SAPE  H11A18842   5.552   4.693   2.048  0.4730 -1.9805  0.3507
  168SAPE  H11B18843   5.467   4.685   2.198  0.1338 -1.2791  0.4656
  168SAPE     P18844   5.717   4.519   2.180 -0.3384  0.2886 -0.0750
  168SAPE   O1318845   5.595   4.438   2.186  0.3478 -0.2190  0.4624
  168SAPE   O1418846   5.799   4.509   2.056  0.4741  0.6142  0.0701
  168SAPE   O1218847   5.685   4.675   2.201  0.6042 -0.0017  0.0198
  168SAPE   O1118848   5.809   4.465   2.301 -0.3508  0.3974  0.2741
  168SAPE    C118849   5.865   4.564   2.389  0.2096 -0.2784  0.2648
  168SAPE    HA18850   5.959   4.525   2.434  0.1141 -0.3015  0.4447
  168SAPE    HB18851   5.892   4.662   2.345 -2.3918  0.8429  1.0046
  168SAPE    C218852   5.782   4.578   2.521 -0.0020 -0.2099 -0.1396
  168SAPE    HS18853   5.675   4.600   2.500  0.6244  1.5387 -1.8482
  168SAPE   O2118854   5.841   4.670   2.616 -0.3221  0.1584  0.4506
  168SAPE   C2118855   5.816   4.799   2.598 -0.1411  0.8804  0.4191
  168SAPE   O2218856   5.772   4.846   2.496 -0.4665  0.5117  0.0292
  168SAPE   C2218857   5.848   4.871   2.728  0.4839 -0.4350  0.4222
  168SAPE   H2R18858   5.929   4.815   2.779 -2.1662 -2.6198  2.5730
  168SAPE   H2S18859   5.880   4.973   2.698  0.1651 -0.3801  0.2563
  168SAPE    C318860   5.783   4.431   2.579 -0.1657 -0.0620 -0.8033
  168SAPE    HX18861   5.887   4.397   2.598 -1.3558 -3.3192  0.7216
  168SAPE    HY18862   5.735   4.360   2.508  2.0219 -1.3722 -1.0670
  168SAPE   O3118863   5.728   4.423   2.716 -0.4601  0.1191  0.1220
  168SAPE   C3118864   5.605   4.447   2.735  0.9286 -0.8805 -0.6472
  168SAPE   O3218865   5.521   4.472   2.652 -0.1901 -0.6234  0.0675
  168SAPE   C3218866   5.578   4.439   2.884  0.0795 -0.3192  0.0470
  168SAPE   H2X18867   5.665   4.483   2.936 -1.1797  2.5741 -0.1300
  168SAPE   H2Y18868   5.575   4.338   2.930  0.5072  0.0382  0.8852
  168SAPE   C2318869   5.722   4.883   2.830  0.3044  0.7600 -0.6544
  168SAPE   H3R18870   5.630   4.873   2.768 -0.3204 -0.4343  0.4127
  168SAPE   H3S18871   5.717   4.980   2.883  1.3496  1.2270 -1.3793
  168SAPE   C2418872   5.723   4.766   2.938  0.3502 -0.1947  0.0783
  168SAPE   H4R18873   5.735   4.666   2.892 -0.0919  0.5676 -1.7826
  168SAPE   H4S18874   5.627   4.771   2.994  2.1598 -1.8785  3.6042
  168SAPE   C2518875   5.826   4.775   3.042 -0.3917  0.5018  1.0472
  168SAPE   H5R18876   5.923   4.730   3.018 -0.2528  2.3732 -2.5295
  168SAPE   C2618877   5.814   4.799   3.169 -0.5627 -0.1933 -0.7497
  168SAPE   H6R18878   5.902   4.770   3.227 -1.5464 -4.2517 -1.0232
  168SAPE   C2718879   5.685   4.855   3.240 -0.4198  0.3381 -0.2622
  168SAPE   H7R18880   5.669   4.786   3.325 -0.7892  0.2616 -0.3898
  168SAPE   H7S18881   5.593   4.846   3.177 -0.3870 -0.6737 -0.1723
  168SAPE   C2818882   5.726   4.998   3.276  0.3513  0.2236 -1.0815
  168SAPE   H8R18883   5.726   5.065   3.189  0.8584  2.7329  0.7359
  168SAPE   C2918884   5.730   5.057   3.402 -0.0384 -0.4120  0.3281
  168SAPE   H9R18885   5.753   5.164   3.405  0.9873 -0.5593 -1.1284
  168SAPE  C21018886   5.723   4.987   3.542  0.1975  0.5368  0.0307
  168SAPE  H10R18887   5.796   5.030   3.615  1.0988  1.5200 -1.3944
  168SAPE  H10S18888   5.768   4.886   3.530 -2.1680 -0.8884  2.1912
  168SAPE  C21118889   5.580   4.967   3.596  0.4725  0.5949 -0.3652
  168SAPE  H11R18890   5.505   5.000   3.523  0.8764 -2.0702 -2.1624
  168SAPE  C21218891   5.548   4.916   3.717 -0.5464  0.1815 -0.1446
  168SAPE  H12R18892   5.443   4.910   3.749 -0.7576  1.4030 -0.5773
  168SAPE  C21318893   5.651   4.895   3.823  1.2724  0.0286 -0.1759
  168SAPE  H13R18894   5.690   4.991   3.863  1.0943 -1.1232  3.0850
  168SAPE  H13S18895   5.742   4.845   3.783  2.1705  0.5514  1.1481
  168SAPE  C21418896   5.596   4.804   3.929  0.0723  0.1699  0.8457
  168SAPE  H14R18897   5.556   4.714   3.881  1.2888  0.3715 -0.6454
  168SAPE  C21518898   5.607   4.828   4.058  0.7769 -0.4625 -0.1980
  168SAPE  H15R18899   5.566   4.753   4.128 -1.6019  0.7158 -0.2317
  168SAPE  C21618900   5.674   4.945   4.124  0.0362 -0.7353  0.5471
  168SAPE  H16R18901   5.754   4.991   4.063  0.5696  1.3399  2.6679
  168SAPE  H16S18902   5.732   4.915   4.214  3.3193  1.4907 -0.6456
  168SAPE  C21718903   5.565   5.057   4.159  0.6143  0.0129 -0.0919
  168SAPE  H17R18904   5.479   5.003   4.205 -0.4400  2.6755  1.2747
  168SAPE  H17S18905   5.534   5.102   4.062  1.1154 -0.9368 -0.7114
  168SAPE  C21818906   5.621   5.157   4.259  0.2844 -0.0552  0.1520
  168SAPE  H18R18907   5.629   5.102   4.355 -0.1077 -1.2817 -0.4955
  168SAPE  H18S18908   5.542   5.233   4.273  0.3142  0.1244 -0.6017
  168SAPE  C21918909   5.745   5.237   4.216  0.3976 -0.0747 -0.5647
  168SAPE  H19R18910   5.716   5.292   4.124  2.6315  4.4687  1.1268
  168SAPE  H19S18911   5.830   5.165   4.209  3.2417  3.0125 -0.3116
  168SAPE  C22018912   5.779   5.340   4.327  0.8988 -0.6256  0.1993
  168SAPE  H20R18913   5.808   5.290   4.422 -2.1641 -0.3050  1.4118
  168SAPE  H20S18914   5.689   5.403   4.341  1.7921  0.3764  1.8930
  168SAPE  H20T18915   5.859   5.407   4.287  0.1880  0.0298 -0.1457
  168SAPE   C3318916   5.439   4.506   2.910  0.1210  0.1524  0.4409
  168SAPE   H3X18917   5.351   4.445   2.883 -0.6050  1.8059 -1.1295
  168SAPE   H3Y18918   5.424   4.611   2.879  3.0443  0.8660  1.1574
  168SAPE   C3418919   5.434   4.511   3.066  0.2046  0.0734 -0.0331
  168SAPE   H4X18920   5.524   4.564   3.105 -0.3693  0.5045  0.7482
  168SAPE   H4Y18921   5.442   4.405   3.098  1.1417 -0.8214 -2.9993
  168SAPE   C3518922   5.297   4.566   3.100  0.0227 -0.3342 -0.6083
  168SAPE   H5X18923   5.215   4.517   3.042 -2.2636  3.4750 -0.8997
  168SAPE   H5Y18924   5.275   4.672   3.076 -0.1052  0.0521  1.0618
  168SAPE   C3618925   5.261   4.571   3.245  0.5158  0.0785 -0.2646
  168SAPE   H6X18926   5.259   4.469   3.290 -1.3500  1.0132  1.9806
  168SAPE   H6Y18927   5.157   4.607   3.261  1.0545  1.4428  0.3272
  168SAPE   C3718928   5.355   4.661   3.332  0.0208 -0.2826  0.0025
  168SAPE   H7X18929   5.331   4.768   3.314 -2.3260 -0.3541  2.2308
  168SAPE   H7Y18930   5.463   4.635   3.321  1.1988  2.0761  3.8989
  168SAPE   C3818931   5.329   4.630   3.481 -1.1384  0.3132  0.4587
  168SAPE   H8X18932   5.406   4.690   3.533  2.5140 -1.6135 -2.2717
  168SAPE   H8Y18933   5.369   4.529   3.500  2.3191  1.2116 -1.2771
  168SAPE   C3918934   5.185   4.640   3.532  0.3933 -0.0839 -0.2137
  168SAPE   H9X18935   5.125   4.553   3.498  1.9737 -1.4636  0.4196
  168SAPE   H9Y18936   5.138   4.723   3.475 -1.2978 -1.8744 -1.6057
  168SAPE  C31018937   5.176   4.666   3.686  0.7503  0.0286  1.1433
  168SAPE  H10X18938   5.071   4.693   3.711  0.3338 -2.2676  2.1302
  168SAPE  H10Y18939   5.232   4.761   3.698 -0.3193  1.0355 -1.0851
  168SAPE  C31118940   5.218   4.541   3.768 -0.5482  0.6323 -0.1230
  168SAPE  H11X18941   5.308   4.506   3.713 -1.0882 -2.7597  0.9469
  168SAPE  H11Y18942   5.132   4.471   3.760 -1.8596  2.1569  0.0433
  168SAPE  C31218943   5.256   4.571   3.917  0.0295  0.2465 -0.2231
  168SAPE  H12X18944   5.353   4.625   3.915  0.7351 -1.0119 -1.2778
  168SAPE  H12Y18945   5.277   4.475   3.968  0.0231 -0.2378 -1.1208
  168SAPE  C31318946   5.151   4.652   3.989 -0.4953  0.4828 -0.3814
  168SAPE  H13X18947   5.056   4.597   3.978  0.0054 -0.9832  1.9515
  168SAPE  H13Y18948   5.147   4.750   3.937  0.0638 -0.3253 -2.0055
  168SAPE  C31418949   5.178   4.669   4.141 -0.1524 -0.6413 -0.5687
  168SAPE  H14X18950   5.098   4.738   4.176 -1.5880 -0.8295 -3.1735
  168SAPE  H14Y18951   5.273   4.723   4.158 -1.1033  1.0027 -0.2291
  168SAPE  C31518952   5.168   4.541   4.229 -0.5349  0.8566  0.1710
  168SAPE  H15X18953   5.252   4.473   4.204 -0.3302  1.1161  0.1418
  168SAPE  H15Y18954   5.065   4.510   4.202 -0.5221 -2.0765  2.9351
  168SAPE  C31618955   5.183   4.581   4.379  0.0021  0.2017  0.7296
  168SAPE  H16X18956   5.109   4.662   4.394  2.0333  1.9621  1.8177
  168SAPE  H16Y18957   5.286   4.620   4.393  0.0934  0.8677 -1.4122
  168SAPE  C31718958   5.161   4.466   4.478 -0.9430  0.7634  0.1305
  168SAPE  H17X18959   5.229   4.378   4.474 -2.1267 -0.5879  4.4909
  168SAPE  H17Y18960   5.058   4.424   4.478 -0.2195 -1.1370  0.7453
  168SAPE  C31818961   5.195   4.508   4.624  0.3172 -0.1101 -0.1441
  168SAPE  H18X18962   5.300   4.539   4.642 -0.2081  1.2596  0.7597
  168SAPE  H18Y18963   5.165   4.428   4.695 -0.5526  0.5204  0.2203
  168SAPE  H18Z18964   5.126   4.589   4.655 -0.5679 -1.2856  1.0429
  169SAPE     N18965   1.781   3.277   1.740 -0.5132  0.4941  0.2174
  169SAPE   HN118966   1.732   3.234   1.659 -0.8556  1.5311 -0.1308
  169SAPE   HN218967   1.791   3.377   1.715  2.5539  0.3840  0.6064
  169SAPE   HN318968   1.872   3.228   1.758 -2.2264 -2.8864  0.5997
  169SAPE   C1218969   1.685   3.276   1.862 -0.5007  0.1085  0.2744
  169SAPE  H12A18970   1.581   3.280   1.824 -1.1001 -1.5051  1.6015
  169SAPE  H12B18971   1.696   3.364   1.928 -2.7519  0.6366  0.0146
  169SAPE   C1118972   1.691   3.160   1.959  0.2082 -0.2087 -0.6761
  169SAPE  H11A18973   1.603   3.154   2.026  1.2230 -0.8113  0.6552
  169SAPE  H11B18974   1.781   3.187   2.020  0.9048 -0.0316 -1.7537
  169SAPE     P18975   1.590   2.939   1.851  0.1145 -0.3833  0.3589
  169SAPE   O1318976   1.478   3.016   1.785  0.1795 -0.0386 -0.7271
  169SAPE   O1418977   1.628   2.810   1.794 -0.3138 -0.2419 -0.8626
  169SAPE   O1218978   1.717   3.041   1.880  0.3757  0.4893 -0.5362
  169SAPE   O1118979   1.539   2.907   1.989 -0.3697  0.6272 -0.4071
  169SAPE    C118980   1.626   2.836   2.084  0.2263 -0.0085  0.1816
  169SAPE    HA18981   1.706   2.781   2.030 -0.6840 -0.5176 -0.6764
  169SAPE    HB18982   1.669   2.897   2.166  0.2690 -0.1300  0.2494
  169SAPE    C218983   1.539   2.723   2.162 -0.2754  0.0317 -0.0487
  169SAPE    HS18984   1.511   2.659   2.075  3.2716  1.8761 -2.8400
  169SAPE   O2118985   1.426   2.783   2.225 -0.1859 -0.2345 -0.2130
  169SAPE   C2118986   1.316   2.710   2.240  0.3805 -0.4118 -0.6153
  169SAPE   O2218987   1.290   2.602   2.188  0.3078 -0.2259  0.4394
  169SAPE   C2218988   1.215   2.780   2.339  0.0687 -0.8447 -0.3430
  169SAPE   H2R18989   1.233   2.889   2.331 -0.7628 -0.3253  3.1561
  169SAPE   H2S18990   1.110   2.766   2.308  0.6239 -1.8393 -1.9291
  169SAPE    C318991   1.630   2.651   2.261 -0.7601  0.1106  0.0899
  169SAPE    HX18992   1.718   2.604   2.212 -1.1491 -0.2239 -0.2969
  169SAPE    HY18993   1.582   2.562   2.308  0.5983 -0.6064  0.1916
  169SAPE   O3118994   1.697   2.738   2.366  0.4137  0.2063  0.3336
  169SAPE   C3118995   1.827   2.773   2.350  0.4819 -0.0847 -0.2482
  169SAPE   O3218996   1.894   2.751   2.253  0.0533  0.2238 -0.1266
  169SAPE   C3218997   1.875   2.852   2.468 -0.1503 -0.6754  0.3210
  169SAPE   H2X18998   1.827   2.952   2.469  1.5294  0.1744  0.7739
  169SAPE   H2Y18999   1.986   2.863   2.460 -0.1814  0.3419  1.0615
  169SAPE   C2319000   1.230   2.723   2.478  0.4734  0.1689  0.2459
  169SAPE   H3R19001   1.205   2.615   2.480  0.8726  0.0552 -0.6082
  169SAPE   H3S19002   1.154   2.783   2.532 -1.9154 -2.3854 -0.0766
  169SAPE   C2419003   1.368   2.742   2.545 -0.5996  0.4873  0.2858
  169SAPE   H4R19004   1.448   2.680   2.499 -2.5340 -0.7954 -1.5470
  169SAPE   H4S19005   1.355   2.701   2.647  0.4800 -0.0582  0.2187
  169SAPE   C2519006   1.416   2.886   2.555 -0.2687  0.2176  0.1060
  169SAPE   H5R19007   1.455   2.922   2.459  2.1933 -0.1046  0.9187
  169SAPE   C2619008   1.427   2.961   2.670 -0.3890  0.3420 -0.0675
  169SAPE   H6R19009   1.478   3.058   2.664  1.9906 -0.8522 -0.3003
  169SAPE   C2719010   1.392   2.907   2.807 -0.1918 -0.8156  0.0548
  169SAPE   H7R19011   1.438   2.806   2.813 -1.6327 -1.4257  1.8675
  169SAPE   H7S19012   1.282   2.888   2.813 -0.1323 -0.7853  1.9553
  169SAPE   C2819013   1.442   2.983   2.928 -0.0885  0.3216 -0.3376
  169SAPE   H8R19014   1.392   3.076   2.959  0.7893  1.2559 -1.5930
  169SAPE   C2919015   1.545   2.945   3.007  0.3534 -0.0417  0.4253
  169SAPE   H9R19016   1.562   3.000   3.101  0.4004  1.5482 -0.4970
  169SAPE  C21019017   1.636   2.833   2.978 -0.2261  0.4630 -0.2276
  169SAPE  H10R19018   1.648   2.833   2.868  0.9754  0.1627 -0.1107
  169SAPE  H10S19019   1.590   2.735   3.003 -1.3500  1.0262 -0.0157
  169SAPE  C21119020   1.766   2.833   3.055 -0.7607 -0.1131  0.4032
  169SAPE  H11R19021   1.842   2.896   3.006 -0.6732 -1.2381 -0.9612
  169SAPE  C21219022   1.792   2.781   3.171 -0.5082  0.2973 -0.0742
  169SAPE  H12R19023   1.897   2.781   3.205 -0.7604 -2.0474  0.9019
  169SAPE  C21319024   1.690   2.704   3.254  0.2560  0.2420 -0.3237
  169SAPE  H13R19025   1.725   2.599   3.256 -0.6093 -0.0567 -0.5619
  169SAPE  H13S19026   1.590   2.708   3.206  0.8826 -2.0558 -2.0135
  169SAPE  C21419027   1.684   2.757   3.397  0.7461 -0.4766  0.2703
  169SAPE  H14R19028   1.613   2.840   3.408  3.0768  1.3962  2.2928
  169SAPE  C21519029   1.756   2.726   3.512  0.0138 -0.5743 -0.4432
  169SAPE  H15R19030   1.732   2.785   3.602 -0.4579 -1.1175 -0.2091
  169SAPE  C21619031   1.871   2.628   3.515  0.3115  0.4424 -0.0344
  169SAPE  H16R19032   1.950   2.662   3.586 -0.1044  1.5720 -0.0931
  169SAPE  H16S19033   1.915   2.616   3.414 -1.6452 -0.3009 -0.8625
  169SAPE  C21719034   1.843   2.481   3.553  0.0958  0.3782 -0.4438
  169SAPE  H17R19035   1.932   2.415   3.561  1.0350  1.5996 -0.4847
  169SAPE  H17S19036   1.776   2.438   3.475 -0.6994  0.4637  0.1798
  169SAPE  C21819037   1.760   2.457   3.682  0.0238 -0.8336  0.0540
  169SAPE  H18R19038   1.716   2.356   3.665  0.3419 -0.7943 -1.1297
  169SAPE  H18S19039   1.679   2.532   3.668 -0.1462 -1.3270 -1.9625
  169SAPE  C21919040   1.835   2.466   3.818 -0.2166 -0.7342  0.7709
  169SAPE  H19R19041   1.772   2.442   3.907 -2.6505  2.0083 -0.0479
  169SAPE  H19S19042   1.863   2.573   3.828  1.3039 -0.9339 -0.8705
  169SAPE  C22019043   1.959   2.378   3.836 -0.1021 -0.1123  0.1446
  169SAPE  H20R19044   1.926   2.273   3.823  1.1233 -0.3624 -1.2494
  169SAPE  H20S19045   2.005   2.394   3.936  2.2794  0.2614 -0.9418
  169SAPE  H20T19046   2.035   2.398   3.757  0.6127  2.4453  1.3730
  169SAPE   C3319047   1.849   2.795   2.614  0.3482 -0.0363  0.2760
  169SAPE   H3X19048   1.756   2.734   2.609 -0.5490  1.3932 -1.4737
  169SAPE   H3Y19049   1.842   2.877   2.688 -1.0718  0.4964 -0.3927
  169SAPE   C3419050   1.960   2.698   2.662 -0.3070  0.5297  0.0515
  169SAPE   H4X19051   2.050   2.763   2.667  0.4501 -0.4556 -0.4434
  169SAPE   H4Y19052   1.995   2.625   2.586 -1.8225  1.6994 -1.8552
  169SAPE   C3519053   1.937   2.635   2.796  0.3346  0.0843  0.5201
  169SAPE   H5X19054   1.852   2.564   2.809 -0.0970  0.3727 -0.5565
  169SAPE   H5Y19055   1.907   2.717   2.864 -1.8692 -1.6623  1.8034
  169SAPE   C3619056   2.065   2.575   2.860 -0.2678  0.4708 -0.5348
  169SAPE   H6X19057   2.154   2.637   2.835 -0.4883  0.5248 -1.1949
  169SAPE   H6Y19058   2.093   2.477   2.817 -0.6473 -0.8220  1.9407
  169SAPE   C3719059   2.058   2.560   3.010 -0.1608 -0.4044 -0.0978
  169SAPE   H7X19060   2.006   2.465   3.034 -0.1000 -1.4487 -3.4900
  169SAPE   H7Y19061   1.981   2.633   3.042  0.5944  0.7563 -0.8685
  169SAPE   C3819062   2.189   2.575   3.087  0.4301 -0.4525  0.3762
  169SAPE   H8X19063   2.235   2.674   3.067  0.5691 -0.7509 -0.8406
  169SAPE   H8Y19064   2.257   2.498   3.045 -0.2281 -1.2406  0.7184
  169SAPE   C3919065   2.183   2.549   3.235  0.0826  0.8910 -0.3245
  169SAPE   H9X19066   2.123   2.463   3.269  0.1757  0.2393 -1.7274
  169SAPE   H9Y19067   2.144   2.640   3.286 -0.1776  1.1604 -0.9903
  169SAPE  C31019068   2.323   2.526   3.295 -0.2242  1.0467  0.4319
  169SAPE  H10X19069   2.386   2.614   3.272 -2.1310  2.0987 -1.1941
  169SAPE  H10Y19070   2.365   2.443   3.233 -2.4103  0.7722 -0.7980
  169SAPE  C31119071   2.313   2.475   3.439  0.7631 -0.7319 -0.4304
  169SAPE  H11X19072   2.410   2.436   3.475  1.6136  0.5165 -1.2790
  169SAPE  H11Y19073   2.240   2.394   3.461 -0.9480  1.3214  2.0449
  169SAPE  C31219074   2.276   2.587   3.529  0.2266 -0.1084 -0.0362
  169SAPE  H12X19075   2.175   2.626   3.501  0.1083 -0.8839 -0.7192
  169SAPE  H12Y19076   2.355   2.665   3.528 -1.0112  1.2158  0.8884
  169SAPE  C31319077   2.289   2.541   3.675 -0.5596  0.7361 -0.7722
  169SAPE  H13X19078   2.394   2.505   3.677 -1.1516 -1.0835  1.4373
  169SAPE  H13Y19079   2.230   2.457   3.718 -1.0160  1.7335  0.6230
  169SAPE  C31419080   2.284   2.664   3.769  0.1013  0.1837  0.0518
  169SAPE  H14X19081   2.183   2.703   3.791  0.7503  0.7274  2.3269
  169SAPE  H14Y19082   2.346   2.744   3.723 -0.1335  0.3435  0.0146
  169SAPE  C31519083   2.346   2.632   3.910 -0.0633  0.2008  0.3001
  169SAPE  H15X19084   2.454   2.604   3.904 -0.4204 -1.0396 -0.8127
  169SAPE  H15Y19085   2.296   2.548   3.963 -0.1039 -0.6771 -1.0972
  169SAPE  C31619086   2.328   2.749   4.012  0.3826  0.0863  0.7191
  169SAPE  H16X19087   2.361   2.720   4.114  0.0937 -0.0990  0.7603
  169SAPE  H16Y19088   2.222   2.776   4.025 -0.3520 -2.0023 -0.4323
  169SAPE  C31719089   2.395   2.882   3.971  0.2503 -0.3540  0.0821
  169SAPE  H17X19090   2.355   2.918   3.874 -0.0883 -1.4179 -0.1821
  169SAPE  H17Y19091   2.503   2.861   3.956  0.5370 -0.2646  1.7729
  169SAPE  C31819092   2.361   3.005   4.061  0.0860 -0.1283 -0.7997
  169SAPE  H18X19093   2.408   2.984   4.159  0.7594 -0.3980 -1.1738
  169SAPE  H18Y19094   2.253   3.027   4.072 -0.4245 -2.2065 -1.2125
  169SAPE  H18Z19095   2.408   3.098   4.024  0.4937  0.4688  1.1122
  170SAPE     N19096   3.382   3.067   1.507  0.7371 -0.5170 -0.3646
  170SAPE   HN119097   3.437   3.049   1.421  2.7585  0.9106  0.5516
  170SAPE   HN219098   3.452   3.070   1.583 -0.1790 -0.4193  0.5001
  170SAPE   HN319099   3.318   2.987   1.523 -0.2585  0.1587 -0.8190
  170SAPE   C1219100   3.332   3.204   1.469 -0.3923  0.4188 -0.0786
  170SAPE  H12A19101   3.267   3.195   1.379 -0.1759  1.1947 -0.3192
  170SAPE  H12B19102   3.418   3.263   1.429 -0.1766  0.8229  0.9537
  170SAPE   C1119103   3.265   3.274   1.585 -0.1325  0.1961 -0.1967
  170SAPE  H11A19104   3.171   3.225   1.619  0.0043 -2.7946 -3.5155
  170SAPE  H11B19105   3.241   3.367   1.529  0.8813  0.9821  0.6284
  170SAPE     P19106   3.302   3.380   1.815 -0.2425 -0.1824 -0.0895
  170SAPE   O1319107   3.421   3.427   1.896 -0.2859  0.0327  0.8884
  170SAPE   O1419108   3.206   3.484   1.777  0.0438  0.2461  0.1243
  170SAPE   O1219109   3.358   3.298   1.692  0.9902 -0.4390  0.3807
  170SAPE   O1119110   3.224   3.264   1.892 -0.1206 -0.2373 -0.5318
  170SAPE    C119111   3.268   3.131   1.908 -0.1594 -0.1961  0.3370
  170SAPE    HA19112   3.195   3.069   1.852  1.7451 -0.0184 -2.5542
  170SAPE    HB19113   3.367   3.110   1.863 -0.0552  0.9436 -0.0114
  170SAPE    C219114   3.269   3.084   2.051 -0.8056 -0.0262 -0.3395
  170SAPE    HS19115   3.166   3.085   2.091 -1.5091 -0.6537 -2.0349
  170SAPE   O2119116   3.356   3.165   2.132  0.6874 -0.2398 -0.0003
  170SAPE   C2119117   3.295   3.258   2.209 -0.2560 -0.5339  0.0477
  170SAPE   O2219118   3.173   3.264   2.230 -0.0032  0.2687  1.2673
  170SAPE   C2219119   3.411   3.334   2.282  0.9039 -0.1564  0.1327
  170SAPE   H2R19120   3.462   3.262   2.349  0.1987 -1.4122 -0.6334
  170SAPE   H2S19121   3.478   3.374   2.203  0.6048 -0.2586 -0.1771
  170SAPE    C319122   3.308   2.933   2.070  0.4210  0.2484  0.2969
  170SAPE    HX19123   3.416   2.922   2.050  0.0279 -3.8632 -0.3755
  170SAPE    HY19124   3.264   2.869   1.991  0.2569 -0.4653  0.9473
  170SAPE   O3119125   3.275   2.882   2.201 -0.8612  0.4837 -0.5341
  170SAPE   C3119126   3.354   2.783   2.246 -0.5224  0.1981  0.4706
  170SAPE   O3219127   3.451   2.738   2.190  0.1219 -0.0413  0.2697
  170SAPE   C3219128   3.301   2.732   2.381 -0.6715  0.1560  0.7365
  170SAPE   H2X19129   3.211   2.670   2.364 -1.0036 -0.0229  2.8987
  170SAPE   H2Y19130   3.249   2.818   2.429  1.3446  0.4029  2.6676
  170SAPE   C2319131   3.355   3.446   2.367  0.4033  0.1676 -0.1747
  170SAPE   H3R19132   3.297   3.521   2.309  0.5242 -1.8957 -3.1929
  170SAPE   H3S19133   3.444   3.496   2.410  0.4521 -2.0301  2.5726
  170SAPE   C2419134   3.280   3.410   2.497 -0.4954  0.6189 -0.6473
  170SAPE   H4R19135   3.219   3.318   2.484  0.0413 -0.0209  1.0730
  170SAPE   H4S19136   3.209   3.492   2.521 -2.3880 -1.2917  0.6323
  170SAPE   C2519137   3.375   3.385   2.614 -0.1823 -0.6690  0.1683
  170SAPE   H5R19138   3.464   3.448   2.604 -0.1700 -0.8247 -0.7856
  170SAPE   C2619139   3.364   3.293   2.716  0.6192 -0.0923 -0.1894
  170SAPE   H6R19140   3.446   3.295   2.789  0.1187  1.2826  0.3834
  170SAPE   C2719141   3.251   3.198   2.749  0.4606 -0.2164  0.2930
  170SAPE   H7R19142   3.208   3.142   2.663  0.5009  1.8661 -1.1390
  170SAPE   H7S19143   3.169   3.258   2.792 -1.0335 -1.6837 -0.3841
  170SAPE   C2819144   3.295   3.100   2.861  0.2032 -0.3760  0.0285
  170SAPE   H8R19145   3.342   3.006   2.831  0.1353 -0.6767  0.8364
  170SAPE   C2919146   3.300   3.120   2.990  0.5820  0.2065  0.0085
  170SAPE   H9R19147   3.327   3.033   3.053  1.7122 -0.0109 -0.7389
  170SAPE  C21019148   3.251   3.231   3.076 -0.4842 -0.9068 -0.2142
  170SAPE  H10R19149   3.233   3.193   3.179 -0.8062  1.7378  0.7905
  170SAPE  H10S19150   3.160   3.268   3.024 -0.4287  0.5713  0.6994
  170SAPE  C21119151   3.344   3.347   3.095  0.7114  0.2181 -0.0042
  170SAPE  H11R19152   3.411   3.377   3.013 -0.7622  1.9275 -0.6511
  170SAPE  C21219153   3.348   3.423   3.202 -0.0897 -0.1913 -0.4446
  170SAPE  H12R19154   3.434   3.490   3.211 -1.5864  2.0765 -1.9360
  170SAPE  C21319155   3.252   3.412   3.325 -0.1818  0.2611 -0.0291
  170SAPE  H13R19156   3.169   3.341   3.308 -1.2358  0.6927  2.7253
  170SAPE  H13S19157   3.201   3.509   3.346 -2.0545 -0.5697 -0.5906
  170SAPE  C21419158   3.328   3.361   3.445 -0.3423 -0.6443 -0.2931
  170SAPE  H14R19159   3.416   3.297   3.428 -0.6118 -0.9934 -0.3920
  170SAPE  C21519160   3.299   3.388   3.574 -0.1044 -0.0500 -1.1876
  170SAPE  H15R19161   3.351   3.339   3.659 -1.2957 -0.6820 -0.8065
  170SAPE  C21619162   3.180   3.476   3.611 -0.2576  0.8649  0.6502
  170SAPE  H16R19163   3.089   3.429   3.567  1.3086 -1.1322 -0.7007
  170SAPE  H16S19164   3.189   3.580   3.574  4.7626  0.5678  0.3118
  170SAPE  C21719165   3.153   3.476   3.761  0.3109  0.1407  0.2527
  170SAPE  H17R19166   3.222   3.536   3.824 -0.0499  0.5932  0.2173
  170SAPE  H17S19167   3.159   3.375   3.807  1.5477 -0.4187 -1.0475
  170SAPE  C21819168   3.006   3.526   3.782 -0.0501  0.8010  0.0248
  170SAPE  H18R19169   2.934   3.447   3.751 -1.5654  1.8669  0.6806
  170SAPE  H18S19170   2.968   3.620   3.737  0.1850  0.7561 -0.2661
  170SAPE  C21919171   2.967   3.543   3.928 -0.2899  0.0347 -0.1237
  170SAPE  H19R19172   3.011   3.459   3.986  1.3815 -0.1754 -1.6109
  170SAPE  H19S19173   2.857   3.558   3.936 -0.4132 -0.3219 -1.0162
  170SAPE  C22019174   3.026   3.676   3.983  0.5321 -0.4428  0.0037
  170SAPE  H20R19175   3.135   3.662   3.997  1.1021  2.6006 -0.6708
  170SAPE  H20S19176   2.986   3.702   4.084  0.2060  1.5069 -0.5786
  170SAPE  H20T19177   2.997   3.759   3.915  2.8131 -1.4787 -2.3854
  170SAPE   C3319178   3.403   2.657   2.472  0.5137  0.0431  0.0428
  170SAPE   H3X19179   3.429   2.725   2.555  3.0784 -0.0517 -0.5711
  170SAPE   H3Y19180   3.506   2.639   2.434  0.2368  0.5580 -0.9955
  170SAPE   C3419181   3.344   2.534   2.541  0.6045  0.5003  0.3634
  170SAPE   H4X19182   3.302   2.455   2.475  0.3912  0.2972  0.7354
  170SAPE   H4Y19183   3.261   2.570   2.605 -0.7695 -0.6735 -0.6911
  170SAPE   C3519184   3.452   2.463   2.630  0.8460  0.1994 -0.1192
  170SAPE   H5X19185   3.502   2.532   2.701  0.9080  0.3708 -0.3271
  170SAPE   H5Y19186   3.526   2.430   2.554 -0.2658 -0.6148 -0.8833
  170SAPE   C3619187   3.410   2.332   2.687  0.3588  0.0139  0.3846
  170SAPE   H6X19188   3.384   2.264   2.603  1.9007 -0.9228  0.6146
  170SAPE   H6Y19189   3.321   2.352   2.750  2.2678  2.5519  2.5310
  170SAPE   C3719190   3.520   2.278   2.769 -0.1651  0.4929 -0.0800
  170SAPE   H7X19191   3.614   2.254   2.715  0.1858 -2.2675  1.5991
  170SAPE   H7Y19192   3.482   2.179   2.801 -0.6421  0.9156  0.6893
  170SAPE   C3819193   3.554   2.360   2.893  0.1831 -0.1772  0.1797
  170SAPE   H8X19194   3.579   2.463   2.861 -0.1231  0.0805  0.7603
  170SAPE   H8Y19195   3.645   2.315   2.936  0.1492  0.9173  1.4652
  170SAPE   C3919196   3.455   2.360   3.013 -0.5731  0.1837 -0.4560
  170SAPE   H9X19197   3.425   2.255   3.032  0.0907 -0.0807 -0.8464
  170SAPE   H9Y19198   3.363   2.421   2.998 -1.0503  0.2116  2.0589
  170SAPE  C31019199   3.522   2.414   3.132 -0.8187 -0.4399  0.8439
  170SAPE  H10X19200   3.541   2.522   3.114 -0.7862 -0.3713  1.2978
  170SAPE  H10Y19201   3.620   2.368   3.154 -1.0042 -1.4922 -0.4056
  170SAPE  C31119202   3.434   2.411   3.263 -0.5725  0.0220 -0.6402
  170SAPE  H11X19203   3.405   2.304   3.276 -1.1447  0.2293 -0.2058
  170SAPE  H11Y19204   3.346   2.474   3.238 -0.4884 -0.0963 -1.2674
  170SAPE  C31219205   3.508   2.459   3.391 -0.3656 -0.4206  0.1542
  170SAPE  H12X19206   3.543   2.564   3.385  2.9037 -1.4920 -2.2741
  170SAPE  H12Y19207   3.597   2.398   3.415  0.6772 -0.4162 -3.2588
  170SAPE  C31319208   3.410   2.443   3.511 -0.2516 -0.1772  0.1511
  170SAPE  H13X19209   3.376   2.338   3.514 -0.2691 -0.1666  0.3794
  170SAPE  H13Y19210   3.334   2.521   3.488  2.0473  1.8714 -1.0199
  170SAPE  C31419211   3.482   2.475   3.650  0.0560 -0.4019 -0.6584
  170SAPE  H14X19212   3.571   2.410   3.658  1.6454  1.6075 -1.3311
  170SAPE  H14Y19213   3.411   2.439   3.728 -0.9951  0.6093 -1.1241
  170SAPE  C31519214   3.527   2.622   3.676  0.0543  0.5557 -0.4499
  170SAPE  H15X19215   3.436   2.687   3.673  0.4502  1.1222 -0.4424
  170SAPE  H15Y19216   3.602   2.647   3.598  2.2524  1.2774  1.7673
  170SAPE  C31619217   3.596   2.633   3.815  0.4896 -0.0071  0.0286
  170SAPE  H16X19218   3.690   2.575   3.822  2.0451  2.5670  2.0907
  170SAPE  H16Y19219   3.536   2.585   3.896  2.8602 -1.3018  1.1161
  170SAPE  C31719220   3.625   2.779   3.860 -0.0946  0.4785 -0.4712
  170SAPE  H17X19221   3.537   2.828   3.906  0.7941  0.0679  1.7871
  170SAPE  H17Y19222   3.671   2.842   3.780  3.5121 -1.2762 -0.0185
  170SAPE  C31819223   3.710   2.782   3.982 -0.1124  0.1306  0.6823
  170SAPE  H18X19224   3.806   2.730   3.962 -0.4091 -0.2493  0.2474
  170SAPE  H18Y19225   3.667   2.726   4.068 -2.0480 -0.9526 -0.9058
  170SAPE  H18Z19226   3.730   2.886   4.017 -1.4600  0.1495  1.4698
  171SAPE     N19227   1.026   3.559   1.961  0.6640  0.0354  0.0575
  171SAPE   HN119228   1.064   3.518   1.873  1.8985 -0.7364  0.9185
  171SAPE   HN219229   0.933   3.518   1.980  0.8013  0.9525  3.3881
  171SAPE   HN319230   1.018   3.663   1.951  1.4123  0.0332 -0.7847
  171SAPE   C1219231   1.114   3.512   2.070  0.0129 -0.1542 -0.0273
  171SAPE  H12A19232   1.146   3.409   2.046 -1.9635 -0.9508  0.5105
  171SAPE  H12B19233   1.062   3.524   2.168  0.0106 -0.7926  0.0551
  171SAPE   C1119234   1.244   3.596   2.078  0.1700 -0.2786 -0.3135
  171SAPE  H11A19235   1.322   3.540   2.134  1.0390 -1.3728 -2.4868
  171SAPE  H11B19236   1.209   3.682   2.139  1.9724  1.9614 -2.2284
  171SAPE     P19237   1.401   3.533   1.880 -0.0341 -0.2916  0.1504
  171SAPE   O1319238   1.358   3.390   1.878 -0.6862  0.1552  0.1847
  171SAPE   O1419239   1.445   3.592   1.751 -0.0518  0.1356  0.3596
  171SAPE   O1219240   1.287   3.627   1.946 -0.2561 -0.0170 -0.0586
  171SAPE   O1119241   1.513   3.541   1.989 -0.1009  0.1974  0.1261
  171SAPE    C119242   1.555   3.660   2.050  0.8253  0.5591 -0.2381
  171SAPE    HA19243   1.592   3.733   1.974 -2.3279  1.7503 -0.8041
  171SAPE    HB19244   1.473   3.720   2.095  0.7001  1.1997 -1.2708
  171SAPE    C219245   1.659   3.619   2.161  0.2687 -0.0145  0.5688
  171SAPE    HS19246   1.721   3.537   2.118  0.3030 -0.3440  1.2266
  171SAPE   O2119247   1.593   3.583   2.282  0.1724  0.2437  0.1566
  171SAPE   C2119248   1.653   3.496   2.347 -0.2354  0.1802  0.0054
  171SAPE   O2219249   1.753   3.430   2.313 -0.8689 -0.0424  0.3187
  171SAPE   C2219250   1.567   3.467   2.471 -0.7175 -0.0695 -0.0649
  171SAPE   H2R19251   1.581   3.551   2.543  3.1591 -0.9496  0.4469
  171SAPE   H2S19252   1.463   3.474   2.433 -0.5081  1.5582 -0.4168
  171SAPE    C319253   1.753   3.743   2.197 -0.0574 -0.5059  0.0364
  171SAPE    HX19254   1.688   3.826   2.230 -0.4961 -0.2724 -1.3445
  171SAPE    HY19255   1.799   3.767   2.099 -0.7650 -1.7023 -0.6128
  171SAPE   O3119256   1.862   3.721   2.290  0.1315 -0.0280  0.3771
  171SAPE   C3119257   1.952   3.636   2.254 -0.1894  0.2601 -0.0715
  171SAPE   O3219258   1.956   3.571   2.154  0.1053  0.6467  0.0324
  171SAPE   C3219259   2.040   3.610   2.377 -0.2649  0.3743  0.2609
  171SAPE   H2X19260   2.109   3.697   2.383 -1.9629  1.7086  1.5961
  171SAPE   H2Y19261   2.106   3.525   2.350 -0.1328  0.8910 -1.1340
  171SAPE   C2319262   1.582   3.330   2.533 -0.7065  0.4930  0.1687
  171SAPE   H3R19263   1.556   3.252   2.458 -1.7962  0.5383  0.4886
  171SAPE   H3S19264   1.507   3.335   2.614  0.4908 -0.4943  1.3817
  171SAPE   C2419265   1.721   3.310   2.598  0.2136 -0.5214  0.7665
  171SAPE   H4R19266   1.744   3.404   2.653  0.8632  0.3914 -0.9767
  171SAPE   H4S19267   1.796   3.307   2.515 -1.4240  2.9975 -1.0481
  171SAPE   C2519268   1.730   3.186   2.685  0.3054 -0.2144  0.7984
  171SAPE   H5R19269   1.715   3.092   2.631  3.0948  0.8760 -2.1503
  171SAPE   C2619270   1.745   3.175   2.818  0.2806 -0.5202 -0.1668
  171SAPE   H6R19271   1.737   3.075   2.862 -2.1182  0.2242  1.2809
  171SAPE   C2719272   1.756   3.286   2.918 -0.3138 -0.1911  0.0847
  171SAPE   H7R19273   1.765   3.388   2.875  0.5653 -0.4455 -0.3614
  171SAPE   H7S19274   1.851   3.278   2.976  0.5320 -0.1123 -1.2520
  171SAPE   C2819275   1.636   3.288   3.002  0.4329  0.4295 -0.2435
  171SAPE   H8R19276   1.540   3.316   2.956  0.4737  1.6263  0.3732
  171SAPE   C2919277   1.624   3.262   3.138  0.0397  0.5859  0.0354
  171SAPE   H9R19278   1.525   3.270   3.187 -0.1147 -0.2889 -0.1151
  171SAPE  C21019279   1.729   3.208   3.230 -0.1976 -0.3362  0.0040
  171SAPE  H10R19280   1.775   3.298   3.275 -0.3994 -1.4321  2.6098
  171SAPE  H10S19281   1.814   3.161   3.174  0.7179 -1.4184  2.1764
  171SAPE  C21119282   1.670   3.126   3.341 -0.2038  0.4555  0.0645
  171SAPE  H11R19283   1.652   3.022   3.312 -0.7750  0.5603  0.0480
  171SAPE  C21219284   1.617   3.172   3.454 -0.4025  0.1079 -0.6064
  171SAPE  H12R19285   1.582   3.095   3.524 -0.1281 -0.9291 -1.5887
  171SAPE  C21319286   1.632   3.313   3.510 -1.4931 -0.1524  0.4927
  171SAPE  H13R19287   1.547   3.338   3.576 -1.7526 -1.0578  0.5093
  171SAPE  H13S19288   1.620   3.377   3.420 -2.4112  0.3862  0.9890
  171SAPE  C21419289   1.773   3.337   3.562  0.2300  0.5056 -0.3477
  171SAPE  H14R19290   1.850   3.307   3.489 -0.8605 -1.4363 -0.7513
  171SAPE  C21519291   1.811   3.405   3.671  0.1996  0.3633 -0.5582
  171SAPE  H15R19292   1.920   3.417   3.680  0.3150  2.3954 -3.1510
  171SAPE  C21619293   1.713   3.469   3.767  0.4719 -0.7465 -0.5285
  171SAPE  H16R19294   1.605   3.459   3.744  0.3041  0.2946 -0.2452
  171SAPE  H16S19295   1.722   3.580   3.772 -0.2719 -0.7515  1.5247
  171SAPE  C21719296   1.740   3.426   3.912 -0.1828  0.1069  0.0593
  171SAPE  H17R19297   1.733   3.315   3.921  0.9176 -0.7445 -5.5623
  171SAPE  H17S19298   1.655   3.466   3.971 -0.1201  0.9473 -0.4017
  171SAPE  C21819299   1.877   3.473   3.977  0.4617  0.1925  0.1125
  171SAPE  H18R19300   1.952   3.470   3.895  1.0362 -1.2178  0.6552
  171SAPE  H18S19301   1.919   3.398   4.047  0.3468 -0.2606 -0.2963
  171SAPE  C21919302   1.882   3.611   4.036 -0.1790 -0.2734 -0.0698
  171SAPE  H19R19303   1.777   3.623   4.071 -0.5060 -0.3888 -0.9723
  171SAPE  H19S19304   1.912   3.690   3.964 -0.5200  0.1018  0.1928
  171SAPE  C22019305   1.976   3.613   4.157  0.3774 -0.1673  0.1134
  171SAPE  H20R19306   1.967   3.714   4.203 -1.2886 -0.6163  0.8265
  171SAPE  H20S19307   2.080   3.582   4.134 -0.6410 -4.3747  0.3942
  171SAPE  H20T19308   1.945   3.540   4.235  1.9225  0.0519  0.9794
  171SAPE   C3319309   1.972   3.611   2.511 -0.1028 -0.5285 -0.1534
  171SAPE   H3X19310   1.902   3.526   2.522 -0.1119 -0.3786  1.0451
  171SAPE   H3Y19311   1.912   3.703   2.526 -0.9129 -1.1561  0.5568
  171SAPE   C3419312   2.072   3.616   2.620 -0.2839  0.1298 -0.7540
  171SAPE   H4X19313   2.136   3.707   2.617 -0.3786  0.2013 -0.5919
  171SAPE   H4Y19314   2.132   3.523   2.612  0.3602  0.4868 -0.1881
  171SAPE   C3519315   2.003   3.605   2.755 -0.7207 -0.2496 -0.3119
  171SAPE   H5X19316   1.974   3.498   2.767 -1.2385  0.1544  2.8761
  171SAPE   H5Y19317   1.911   3.668   2.753 -0.8811 -0.5029 -1.5870
  171SAPE   C3619318   2.100   3.629   2.875  0.4111 -0.1815  0.4346
  171SAPE   H6X19319   2.125   3.737   2.871  1.1081 -0.3588 -0.0841
  171SAPE   H6Y19320   2.199   3.586   2.850 -0.2697 -0.5908 -1.8005
  171SAPE   C3719321   2.050   3.594   3.009 -0.8157  0.2608 -0.1681
  171SAPE   H7X19322   2.047   3.486   3.035 -1.0468  0.6886  1.6809
  171SAPE   H7Y19323   1.947   3.627   3.035 -0.8072 -0.7836  1.2956
  171SAPE   C3819324   2.142   3.662   3.112  0.2011  0.0046 -0.0540
  171SAPE   H8X19325   2.156   3.772   3.098  1.2675 -0.2011 -0.7510
  171SAPE   H8Y19326   2.244   3.618   3.103  1.0623  1.8365  0.1640
  171SAPE   C3919327   2.097   3.648   3.263 -0.3929 -0.1142 -0.5700
  171SAPE   H9X19328   2.102   3.539   3.283  1.6763  0.3474  1.7567
  171SAPE   H9Y19329   1.992   3.684   3.271 -0.2274  1.3677 -3.6391
  171SAPE  C31019330   2.179   3.732   3.361  0.9200 -0.2829  0.0206
  171SAPE  H10X19331   2.200   3.829   3.311  0.7872 -1.0443 -1.5884
  171SAPE  H10Y19332   2.271   3.676   3.386  1.8886  2.1742  2.3775
  171SAPE  C31119333   2.099   3.740   3.485  0.4607  0.4579 -0.4089
  171SAPE  H11X19334   2.054   3.643   3.515 -0.8067  0.4943 -2.1044
  171SAPE  H11Y19335   2.010   3.805   3.471 -1.1183 -1.6304 -0.4117
  171SAPE  C31219336   2.182   3.785   3.605  0.1413  0.4747 -0.1856
  171SAPE  H12X19337   2.261   3.855   3.570  0.1017 -0.5186 -2.4825
  171SAPE  H12Y19338   2.241   3.697   3.638  0.6887  0.8643 -0.1164
  171SAPE  C31319339   2.101   3.852   3.718 -0.7559 -0.0739  0.3794
  171SAPE  H13X19340   1.994   3.822   3.716 -0.1612 -2.7100  2.4570
  171SAPE  H13Y19341   2.096   3.961   3.699 -1.0491 -0.2940 -0.9467
  171SAPE  C31419342   2.151   3.813   3.854 -0.2022  0.8969 -0.2347
  171SAPE  H14X19343   2.169   3.704   3.865  0.6507  0.7492 -2.3995
  171SAPE  H14Y19344   2.075   3.837   3.931  0.5716  1.5196  0.3586
  171SAPE  C31519345   2.291   3.861   3.886  0.5055  0.8404  0.1170
  171SAPE  H15X19346   2.293   3.972   3.878 -1.3841  0.8719 -0.5042
  171SAPE  H15Y19347   2.362   3.826   3.809  0.6610  2.4915 -0.5429
  171SAPE  C31619348   2.330   3.824   4.031  0.1718 -0.4315  0.8477
  171SAPE  H16X19349   2.318   3.715   4.049  1.6235 -0.5117  1.4584
  171SAPE  H16Y19350   2.272   3.870   4.114  0.8663 -0.9416  1.6367
  171SAPE  C31719351   2.480   3.855   4.070 -0.1762  0.1794  0.1735
  171SAPE  H17X19352   2.545   3.804   3.997  1.6918  3.4858 -0.6609
  171SAPE  H17Y19353   2.497   3.796   4.163 -0.0007 -0.0343  0.0064
  171SAPE  C31819354   2.510   3.999   4.088  0.2803 -0.6196 -0.1024
  171SAPE  H18X19355   2.489   4.056   3.995 -1.1905 -0.1538  0.4886
  171SAPE  H18Y19356   2.615   4.021   4.115  0.7583  1.6463 -3.2377
  171SAPE  H18Z19357   2.439   4.045   4.161 -1.3719  0.4747 -2.3003
  172SAPE     N19358   1.637   4.454   2.062  0.6263 -0.1252 -0.5197
  172SAPE   HN119359   1.706   4.530   2.046 -1.2980  2.1812  1.5002
  172SAPE   HN219360   1.566   4.461   1.987  2.0255 -0.9961 -2.0038
  172SAPE   HN319361   1.590   4.475   2.153 -1.0734 -1.1888 -1.1136
  172SAPE   C1219362   1.703   4.323   2.056 -0.9372 -0.2128  0.2723
  172SAPE  H12A19363   1.641   4.242   2.012  0.2551 -1.0632  0.1249
  172SAPE  H12B19364   1.726   4.297   2.162  0.5413  0.8783  0.2614
  172SAPE   C1119365   1.842   4.331   1.989  0.2638 -0.1658 -0.0408
  172SAPE  H11A19366   1.825   4.356   1.883 -0.0464 -0.9703 -0.1834
  172SAPE  H11B19367   1.901   4.237   1.980  1.9886  0.8873 -0.2629
  172SAPE     P19368   2.026   4.535   1.987 -0.5014  0.0223 -0.1926
  172SAPE   O1319369   2.011   4.542   1.837  0.2986  0.0904 -0.7314
  172SAPE   O1419370   2.016   4.655   2.066 -0.1869 -0.0785 -0.4608
  172SAPE   O1219371   1.929   4.431   2.051  0.2504  0.2558  0.2403
  172SAPE   O1119372   2.172   4.466   2.022 -0.0800 -0.3942 -0.2001
  172SAPE    C119373   2.191   4.366   2.128  0.5940  1.0082 -0.3819
  172SAPE    HA19374   2.119   4.281   2.126  2.3508 -0.5544  0.0569
  172SAPE    HB19375   2.286   4.317   2.097  0.7103 -0.2896  1.8010
  172SAPE    C219376   2.203   4.412   2.269 -0.4824 -0.2548  0.1191
  172SAPE    HS19377   2.100   4.427   2.309 -1.0306 -2.8290 -0.2007
  172SAPE   O2119378   2.281   4.530   2.259 -0.3754 -0.4145  0.7481
  172SAPE   C2119379   2.243   4.638   2.331  0.0677 -0.9650 -0.3222
  172SAPE   O2219380   2.152   4.635   2.411 -0.0231  0.2503 -0.2233
  172SAPE   C2219381   2.330   4.762   2.298  0.1183  0.1106 -0.6405
  172SAPE   H2R19382   2.438   4.743   2.283  0.3699  0.5810  0.4780
  172SAPE   H2S19383   2.294   4.783   2.195  3.5011  1.0839 -1.7418
  172SAPE    C319384   2.276   4.308   2.354 -0.2975 -0.3619 -0.0602
  172SAPE    HX19385   2.382   4.294   2.324 -0.7413 -2.5532 -0.8544
  172SAPE    HY19386   2.239   4.203   2.341 -1.7239 -0.4618  3.4909
  172SAPE   O3119387   2.260   4.343   2.496 -0.1274  0.4242  0.6855
  172SAPE   C3119388   2.362   4.409   2.557 -0.2955  0.3468  1.0036
  172SAPE   O3219389   2.472   4.431   2.510 -0.6733  0.2158 -0.6328
  172SAPE   C3219390   2.308   4.456   2.690 -0.6532  0.1389  0.3248
  172SAPE   H2X19391   2.264   4.367   2.740 -0.2145 -0.9915 -1.2316
  172SAPE   H2Y19392   2.249   4.549   2.677  0.5650  0.6719 -2.0535
  172SAPE   C2319393   2.321   4.881   2.389  0.3382  0.5587 -0.6333
  172SAPE   H3R19394   2.228   4.940   2.373  0.0149  0.3140  0.2749
  172SAPE   H3S19395   2.402   4.947   2.352 -0.7899  1.1409 -2.2031
  172SAPE   C2419396   2.344   4.854   2.537 -0.5282  0.0704 -0.2880
  172SAPE   H4R19397   2.276   4.772   2.569  1.0654 -0.8875  0.8039
  172SAPE   H4S19398   2.311   4.939   2.599  1.5183  0.0277  0.9781
  172SAPE   C2519399   2.490   4.817   2.569  0.1689 -0.5210 -0.3147
  172SAPE   H5R19400   2.527   4.735   2.505  0.2931 -1.1759  0.5862
  172SAPE   C2619401   2.569   4.865   2.667 -0.5107  0.6889  0.5846
  172SAPE   H6R19402   2.677   4.849   2.656 -0.9434 -1.0572 -1.8169
  172SAPE   C2719403   2.516   4.960   2.776  0.0923  0.4688  0.6792
  172SAPE   H7R19404   2.526   4.894   2.865 -1.3973 -2.9536 -1.4906
  172SAPE   H7S19405   2.407   4.978   2.771 -0.2265 -1.5399 -2.5198
  172SAPE   C2819406   2.583   5.097   2.787  0.3322  0.8540 -0.1440
  172SAPE   H8R19407   2.667   5.125   2.721  3.8448 -2.8107  2.2290
  172SAPE   C2919408   2.531   5.191   2.863  0.2896  0.2060 -0.1979
  172SAPE   H9R19409   2.580   5.289   2.864 -1.1342  0.9707 -1.5252
  172SAPE  C21019410   2.428   5.183   2.974 -0.0558 -0.0828  0.4290
  172SAPE  H10R19411   2.463   5.212   3.076 -1.3039  1.0068  0.5763
  172SAPE  H10S19412   2.397   5.077   2.987  1.7462 -0.6062  0.6920
  172SAPE  C21119413   2.301   5.253   2.939 -0.7018 -0.5343  0.3968
  172SAPE  H11R19414   2.255   5.215   2.846 -3.3380  1.0603  0.9423
  172SAPE  C21219415   2.244   5.355   3.002 -0.0400 -0.0634 -0.6246
  172SAPE  H12R19416   2.150   5.401   2.967 -0.8269  0.7002  2.1607
  172SAPE  C21319417   2.306   5.435   3.119  0.8173  0.3539  0.1264
  172SAPE  H13R19418   2.278   5.542   3.111 -1.9353 -0.3104 -0.0855
  172SAPE  H13S19419   2.416   5.442   3.104  0.8656  0.4066  0.4895
  172SAPE  C21419420   2.270   5.372   3.255 -0.3949  0.4912 -0.9332
  172SAPE  H14R19421   2.213   5.278   3.256 -0.8069  0.7324 -1.4017
  172SAPE  C21519422   2.344   5.409   3.365 -0.8449 -0.6313 -0.6420
  172SAPE  H15R19423   2.311   5.379   3.466 -2.4631  0.1320 -0.9087
  172SAPE  C21619424   2.431   5.536   3.373 -0.0226 -0.4386 -0.3947
  172SAPE  H16R19425   2.375   5.617   3.322  3.3196 -0.2586 -4.2894
  172SAPE  H16S19426   2.517   5.538   3.303  0.2933  0.4615  0.0040
  172SAPE  C21719427   2.469   5.581   3.515  0.3234 -0.1418  0.9046
  172SAPE  H17R19428   2.370   5.593   3.564 -0.4568  0.3968 -0.7327
  172SAPE  H17S19429   2.516   5.681   3.506  1.6578 -0.8649 -0.6349
  172SAPE  C21819430   2.561   5.482   3.591 -0.1846 -0.2286 -0.4085
  172SAPE  H18R19431   2.636   5.453   3.515 -0.6769 -1.3353 -0.4909
  172SAPE  H18S19432   2.507   5.391   3.626 -0.6344 -0.0965 -0.7464
  172SAPE  C21919433   2.642   5.546   3.707  0.0424 -0.0942 -0.7201
  172SAPE  H19R19434   2.564   5.560   3.785 -0.7980 -0.8895 -1.3904
  172SAPE  H19S19435   2.680   5.646   3.677  0.4873 -0.2182 -0.5823
  172SAPE  C22019436   2.763   5.464   3.760  0.4866  0.5923  0.7921
  172SAPE  H20R19437   2.811   5.517   3.844  0.5598 -1.1636  1.9082
  172SAPE  H20S19438   2.838   5.451   3.679 -1.1765 -1.6991 -0.5282
  172SAPE  H20T19439   2.729   5.361   3.785 -2.0362  0.3952 -2.6248
  172SAPE   C3319440   2.427   4.486   2.776  0.4160  0.3454  0.2764
  172SAPE   H3X19441   2.483   4.577   2.746  0.4152  1.0805  2.3223
  172SAPE   H3Y19442   2.498   4.401   2.777  0.5264  0.2802 -3.1884
  172SAPE   C3419443   2.382   4.506   2.920  0.6182 -0.0002  0.3384
  172SAPE   H4X19444   2.332   4.413   2.953  0.7900  0.5789  2.3756
  172SAPE   H4Y19445   2.313   4.592   2.912  1.4594  0.9661  2.6541
  172SAPE   C3519446   2.492   4.522   3.022  0.0615  0.5263 -0.2899
  172SAPE   H5X19447   2.560   4.600   2.983  2.3814 -2.1758 -2.0434
  172SAPE   H5Y19448   2.553   4.429   3.026 -2.1187 -1.1775 -2.8640
  172SAPE   C3619449   2.434   4.559   3.159  0.0646 -0.0765  0.3648
  172SAPE   H6X19450   2.393   4.469   3.209  2.2997 -2.7047 -2.1318
  172SAPE   H6Y19451   2.352   4.630   3.137  1.2182  0.5479 -2.3671
  172SAPE   C3719452   2.536   4.632   3.235  0.0274  0.7886  0.1557
  172SAPE   H7X19453   2.584   4.704   3.165  1.7598  0.7566  1.2382
  172SAPE   H7Y19454   2.614   4.560   3.266 -0.0158 -0.4244 -2.3335
  172SAPE   C3819455   2.483   4.695   3.365  0.1104 -0.4458 -0.2204
  172SAPE   H8X19456   2.410   4.771   3.329 -0.5735 -1.4886 -1.0787
  172SAPE   H8Y19457   2.561   4.752   3.420  1.7422  1.0630 -3.7474
  172SAPE   C3919458   2.403   4.604   3.459  0.3360  0.0796  0.0240
  172SAPE   H9X19459   2.469   4.518   3.485  1.3649  1.3632  1.9104
  172SAPE   H9Y19460   2.316   4.574   3.396 -0.0726  1.0792  0.0928
  172SAPE  C31019461   2.364   4.681   3.594 -0.7293  0.1387  0.5339
  172SAPE  H10X19462   2.305   4.766   3.554 -0.4281  0.1741  0.1531
  172SAPE  H10Y19463   2.454   4.721   3.646 -0.3684 -2.1366  1.8080
  172SAPE  C31119464   2.282   4.593   3.681 -0.2321  0.0720  0.1473
  172SAPE  H11X19465   2.325   4.491   3.670  1.0528  0.7200 -1.2347
  172SAPE  H11Y19466   2.181   4.606   3.637 -0.3383 -0.7375  0.1355
  172SAPE  C31219467   2.281   4.626   3.831 -0.5608 -0.0343  0.2459
  172SAPE  H12X19468   2.390   4.635   3.850 -0.4345  0.8907 -0.8144
  172SAPE  H12Y19469   2.228   4.538   3.874 -0.6838  0.7859  1.8369
  172SAPE  C31319470   2.204   4.744   3.868  0.4088  0.1256 -1.2878
  172SAPE  H13X19471   2.094   4.733   3.865  0.3297 -0.6383  1.4073
  172SAPE  H13Y19472   2.241   4.833   3.813  3.4583 -0.6620 -0.7240
  172SAPE  C31419473   2.230   4.797   4.012 -0.4704 -0.1087 -0.3269
  172SAPE  H14X19474   2.340   4.782   4.025 -0.1150  0.8352 -1.9603
  172SAPE  H14Y19475   2.169   4.732   4.078  0.4122 -0.7065 -0.0772
  172SAPE  C31519476   2.203   4.944   4.055 -0.0833 -0.0880 -0.4543
  172SAPE  H15X19477   2.293   5.004   4.026  1.2852  0.2231  3.7057
  172SAPE  H15Y19478   2.211   4.945   4.166 -1.6243 -0.9251 -0.3188
  172SAPE  C31619479   2.072   4.991   3.995 -0.3359 -0.3887 -0.6389
  172SAPE  H16X19480   2.002   4.905   3.998  0.2637 -0.9127 -1.2481
  172SAPE  H16Y19481   2.097   5.021   3.891  0.1829  1.9206  0.0940
  172SAPE  C31719482   2.012   5.100   4.074  0.0702 -0.5418  0.3603
  172SAPE  H17X19483   1.985   5.076   4.179  0.9910  4.9237  2.1635
  172SAPE  H17Y19484   1.914   5.139   4.039  0.3502  0.7420  0.9446
  172SAPE  C31819485   2.099   5.228   4.081  0.2701 -0.2495  0.1723
  172SAPE  H18X19486   2.036   5.308   4.123  2.0342  0.7037  1.1277
  172SAPE  H18Y19487   2.136   5.249   3.978  1.4794 -1.7220  0.2580
  172SAPE  H18Z19488   2.190   5.219   4.145  0.9793  4.0767  0.0713
  173SLPC     N19489   0.216   5.196   6.528 -0.0423 -0.2962 -0.2998
  173SLPC   C1319490   0.175   5.288   6.415 -0.4291  0.7728  0.2919
  173SLPC  H13A19491   0.241   5.272   6.330 -1.2261 -1.3717  0.0124
  173SLPC  H13B19492   0.074   5.258   6.394 -1.3452  2.3513  2.1858
  173SLPC  H13C19493   0.173   5.391   6.446  0.1150  0.6634  0.7226
  173SLPC   C1419494   0.109   5.173   6.620 -0.2066 -0.0180 -0.2766
  173SLPC  H14A19495   0.076   5.261   6.673  0.0719  0.3757 -0.7549
  173SLPC  H14B19496   0.026   5.127   6.569  0.3089  0.4636 -1.5998
  173SLPC  H14C19497   0.140   5.112   6.704 -2.1679  0.9091  1.2009
  173SLPC   C1519498   0.330   5.261   6.612  0.4460  0.1347  0.0814
  173SLPC  H15A19499   0.304   5.359   6.649 -1.1859 -0.3625  0.3377
  173SLPC  H15B19500   0.352   5.197   6.695 -1.4288  0.9238  1.2531
  173SLPC  H15C19501   0.423   5.264   6.557 -0.5628  1.5487 -1.7147
  173SLPC   C1219502   0.268   5.067   6.465 -0.3344 -0.5693 -0.3083
  173SLPC  H12A19503   0.352   5.094   6.402 -0.4172  3.1052  0.8723
  173SLPC  H12B19504   0.198   5.021   6.397  2.3697 -1.8411 -2.4114
  173SLPC   C1119505   0.316   4.941   6.546  0.5807 -0.4919 -0.1302
  173SLPC  H11A19506   0.346   4.866   6.470  1.6054 -0.6703  0.4293
  173SLPC  H11B19507   0.223   4.896   6.586  0.7648 -0.8921 -0.1458
  173SLPC     P19508   0.551   4.971   6.644 -0.2076  0.0742 -0.3794
  173SLPC   O1319509   0.592   5.099   6.706 -0.0059  0.0618  0.4900
  173SLPC   O1419510   0.611   4.846   6.696  0.3357  0.2105 -0.1844
  173SLPC   O1219511   0.398   4.964   6.663  0.2382  0.3174 -0.1195
  173SLPC   O1119512   0.573   4.980   6.491 -0.0079 -0.3948  0.1400
  173SLPC    C119513   0.687   4.919   6.434 -0.7370  0.0165  0.2074
  173SLPC    HA19514   0.782   4.945   6.486  0.3650  1.0024 -2.1046
  173SLPC    HB19515   0.674   4.809   6.440 -2.4300  0.0582 -1.7401
  173SLPC    C219516   0.698   4.946   6.283 -0.8266 -0.3863  0.3532
  173SLPC    HS19517   0.764   4.867   6.242 -0.5214  0.2737 -0.4599
  173SLPC   O2119518   0.756   5.076   6.257  0.1453  0.1213  0.2162
  173SLPC   C2119519   0.874   5.105   6.302 -0.2493  0.5468 -0.3735
  173SLPC   O2219520   0.956   5.019   6.335 -0.1194 -0.0438 -0.3255
  173SLPC   C2219521   0.899   5.251   6.282  0.7596 -0.7753  0.4482
  173SLPC   H2R19522   0.866   5.301   6.376 -3.2726 -2.3128  0.0661
  173SLPC   H2S19523   1.009   5.262   6.268  0.4320  0.3740 -1.6970
  173SLPC    C319524   0.566   4.938   6.204 -0.1308  1.0302  0.4181
  173SLPC    HX19525   0.491   5.009   6.245 -1.9912 -0.0722 -0.9574
  173SLPC    HY19526   0.509   4.847   6.230  0.2121  0.3859 -0.9902
  173SLPC   O3119527   0.571   4.965   6.061  0.0821 -0.1776 -0.2208
  173SLPC   C3119528   0.622   4.861   5.991  0.3735  0.4685  0.0249
  173SLPC   O3219529   0.637   4.748   6.036  0.5992 -0.0072  0.5008
  173SLPC   C3219530   0.640   4.901   5.845  0.2714 -0.4902 -0.2662
  173SLPC   H2X19531   0.723   4.974   5.830 -0.6661  0.4876 -0.8160
  173SLPC   H2Y19532   0.550   4.964   5.826 -0.0146 -0.2796  1.5197
  173SLPC   C2319533   0.820   5.311   6.172 -0.0711 -0.1659 -0.4820
  173SLPC   H3R19534   0.838   5.421   6.175  0.2060 -0.1975 -0.9829
  173SLPC   H3S19535   0.711   5.301   6.190  0.0416  0.1352  0.4275
  173SLPC   C2419536   0.862   5.274   6.031 -0.8365  0.2857 -0.4587
  173SLPC   H4R19537   0.844   5.164   6.029  0.6190  0.0096  0.5166
  173SLPC   H4S19538   0.970   5.282   6.007 -0.5545 -1.7591 -0.0298
  173SLPC   C2519539   0.799   5.356   5.911 -0.2944  0.4961  0.4336
  173SLPC   H5R19540   0.817   5.297   5.819  0.7917  1.4568  0.0155
  173SLPC   H5S19541   0.849   5.453   5.892 -0.2733  0.6149  1.0815
  173SLPC   C2619542   0.651   5.374   5.916 -0.1563 -0.6764 -0.4279
  173SLPC   H6R19543   0.640   5.463   5.851  1.5684  1.5670  2.1185
  173SLPC   H6S19544   0.616   5.406   6.016  0.8957  1.2213 -0.6034
  173SLPC   C2719545   0.562   5.254   5.873 -0.2281 -0.1190  0.2655
  173SLPC   H7R19546   0.546   5.191   5.963 -0.6235  1.7090  1.5284
  173SLPC   H7S19547   0.620   5.194   5.800 -0.6583 -2.0486  1.4360
  173SLPC   C2819548   0.432   5.295   5.820 -0.1215  0.0654  0.1419
  173SLPC   H8R19549   0.454   5.350   5.726  0.3218 -0.4737 -0.0808
  173SLPC   H8S19550   0.381   5.368   5.886  1.9919  1.2407  0.5525
  173SLPC   C2919551   0.340   5.178   5.806  0.1958 -0.1976  0.2002
  173SLPC   H9R19552   0.310   5.129   5.900 -0.8121 -0.1524 -0.0919
  173SLPC  C21019553   0.287   5.134   5.690 -0.1165  0.0854 -0.5234
  173SLPC  H10R19554   0.216   5.049   5.689 -2.2173  1.7006  1.0987
  173SLPC  C21119555   0.313   5.191   5.555 -0.7409 -0.3954  0.5864
  173SLPC  H11R19556   0.331   5.299   5.575  1.3204 -0.5686 -0.0319
  173SLPC  H11S19557   0.224   5.188   5.489  1.0968 -1.4764 -2.0020
  173SLPC  C21219558   0.430   5.125   5.483  0.0159  0.4558  0.5226
  173SLPC  H12R19559   0.495   5.064   5.548 -0.2481 -0.5210 -0.1098
  173SLPC  C21319560   0.461   5.147   5.356 -0.1121 -0.1488 -0.4270
  173SLPC  H13R19561   0.540   5.084   5.313 -0.3682 -0.5096 -0.3753
  173SLPC  C21419562   0.377   5.242   5.267 -0.0505 -1.0848  0.4135
  173SLPC  H14R19563   0.376   5.333   5.330 -1.2600 -2.1913  2.0588
  173SLPC  H14S19564   0.276   5.200   5.249 -0.4854  0.5347 -1.1648
  173SLPC  C21519565   0.430   5.281   5.123 -0.6961  0.1422 -0.4355
  173SLPC  H15R19566   0.453   5.186   5.071  2.2957  0.9242 -0.7009
  173SLPC  H15S19567   0.525   5.339   5.127 -0.0530 -0.9265  0.3499
  173SLPC  C21619568   0.326   5.356   5.030 -0.5443  0.0241 -0.3042
  173SLPC  H16R19569   0.286   5.445   5.085  1.9760  1.1889 -0.2321
  173SLPC  H16S19570   0.246   5.282   5.006 -0.2217 -0.6045  0.5423
  173SLPC  C21719571   0.382   5.419   4.901  0.9178  0.7802  0.0370
  173SLPC  H17R19572   0.436   5.337   4.850 -0.1309  0.0496  0.0768
  173SLPC  H17S19573   0.459   5.497   4.920  0.7964  1.0919 -0.6908
  173SLPC  C21819574   0.285   5.465   4.791  1.0354 -0.2797  0.5201
  173SLPC  H18R19575   0.236   5.559   4.824 -0.4571 -1.2775  1.2537
  173SLPC  H18S19576   0.199   5.395   4.792 -0.7250  1.7919  0.1188
  173SLPC  H18T19577   0.329   5.485   4.691 -0.9669  2.3215  0.0432
  173SLPC   C3319578   0.677   4.799   5.744  0.0827  0.1899 -0.7642
  173SLPC   H3X19579   0.599   4.721   5.738  0.1117  0.0621  0.2921
  173SLPC   H3Y19580   0.773   4.753   5.777  0.5624 -0.2009 -2.6153
  173SLPC   C3419581   0.707   4.841   5.598 -0.0326  0.0698  0.2194
  173SLPC   H4X19582   0.790   4.915   5.597  0.2141 -0.2006  0.4683
  173SLPC   H4Y19583   0.614   4.888   5.558  0.6833  2.1824  0.9199
  173SLPC   C3519584   0.742   4.726   5.509 -0.3822  0.3982 -0.2184
  173SLPC   H5X19585   0.680   4.640   5.543  2.2336 -0.5226  2.5636
  173SLPC   H5Y19586   0.846   4.695   5.532  0.2324  1.8830 -0.8748
  173SLPC   C3619587   0.721   4.761   5.366 -0.3153 -0.2119 -0.0795
  173SLPC   H6X19588   0.786   4.842   5.327 -1.6832  0.5886 -0.7891
  173SLPC   H6Y19589   0.618   4.801   5.356 -0.4192  0.1617  2.1337
  173SLPC   C3719590   0.742   4.631   5.275  0.0765 -0.0800  0.6530
  173SLPC   H7X19591   0.674   4.551   5.313 -0.4324  0.6403  1.2724
  173SLPC   H7Y19592   0.844   4.590   5.288  0.3529  0.4390  0.1726
  173SLPC   C3819593   0.695   4.652   5.124 -0.0865  0.1169  0.2041
  173SLPC   H8X19594   0.734   4.749   5.086 -0.8528  0.6370  0.7168
  173SLPC   H8Y19595   0.587   4.678   5.125  0.2927  1.9600 -1.0345
  173SLPC   C3919596   0.725   4.543   5.022  0.4983 -0.2517  0.0334
  173SLPC   H9X19597   0.684   4.445   5.053  1.0011 -0.6858 -0.6507
  173SLPC   H9Y19598   0.836   4.539   5.018  0.5162  0.0260  0.2299
  173SLPC  C31019599   0.652   4.570   4.892  0.6351  0.3762  0.6786
  173SLPC  H10X19600   0.685   4.666   4.847  0.5069  0.2176  0.2387
  173SLPC  H10Y19601   0.544   4.576   4.919  1.1051  1.8493  2.3626
  173SLPC  C31119602   0.681   4.457   4.787 -0.2345 -0.2625 -0.9285
  173SLPC  H11X19603   0.627   4.372   4.834  0.3690  0.9537  2.1910
  173SLPC  H11Y19604   0.787   4.427   4.771  0.4664  0.4887  1.7938
  173SLPC  C31219605   0.627   4.490   4.642 -0.1441 -0.9959  0.0315
  173SLPC  H12X19606   0.651   4.405   4.575 -0.5497  0.4300 -1.9916
  173SLPC  H12Y19607   0.668   4.587   4.607 -0.7249 -0.1039  1.6893
  173SLPC  C31319608   0.472   4.517   4.639 -0.3953  0.3193  0.2244
  173SLPC  H13X19609   0.438   4.592   4.713 -1.3401  1.2173 -1.0715
  173SLPC  H13Y19610   0.430   4.417   4.664 -0.0536  0.4666  1.4283
  173SLPC  C31419611   0.435   4.554   4.490  0.1482  0.1944 -0.6565
  173SLPC  H14X19612   0.500   4.503   4.416  0.8770  0.2427 -0.0632
  173SLPC  H14Y19613   0.454   4.663   4.482  0.6281  0.1751  0.1890
  173SLPC  C31519614   0.286   4.523   4.459  0.0481 -0.4853  0.4140
  173SLPC  H15X19615   0.215   4.570   4.531  1.4516  0.2919  1.3481
  173SLPC  H15Y19616   0.273   4.414   4.477  2.3146 -0.9215 -0.2543
  173SLPC  C31619617   0.250   4.571   4.321 -0.4526 -0.6709 -0.2182
  173SLPC  H16X19618   0.283   4.504   4.239 -1.3030 -2.8501  1.1349
  173SLPC  H16Y19619   0.282   4.674   4.296 -0.8207 -0.9228 -1.8164
  173SLPC  C31719620   0.097   4.568   4.316  0.3227 -0.1744 -0.2548
  173SLPC  H17X19621   0.065   4.642   4.392 -0.6828 -0.9027  0.0484
  173SLPC  H17Y19622   0.060   4.467   4.347  1.2090 -0.6563 -0.7164
  173SLPC  C31819623   0.034   4.604   4.183 -0.5367 -0.8954 -0.2552
  173SLPC  H18X19624   0.041   4.525   4.106 -2.1856 -0.2495 -1.1170
  173SLPC  H18Y19625   0.090   4.688   4.136  0.8975 -2.2205 -0.9762
  173SLPC  H18Z19626  -0.072   4.630   4.204  0.0335  0.6609  0.9791
  174SLPC     N19627   6.326   0.333   6.610  0.4080 -0.0511 -0.0810
  174SLPC   C1319628   6.471   0.327   6.648 -0.4186  0.2166  1.0313
  174SLPC  H13A19629   6.529   0.275   6.573  0.8938 -0.6327  2.5618
  174SLPC  H13B19630   6.508   0.426   6.669  2.0778 -0.7219  1.3115
  174SLPC  H13C19631   6.483   0.276   6.743  2.7451  1.4713  1.4174
  174SLPC   C1419632   6.253   0.424   6.710  0.3277  0.3017  0.0202
  174SLPC  H14A19633   6.289   0.525   6.698 -0.4296  0.4099 -1.6984
  174SLPC  H14B19634   6.146   0.415   6.699  0.2328 -1.1008  1.6351
  174SLPC  H14C19635   6.272   0.386   6.809 -0.1055  0.9712  0.3711
  174SLPC   C1519636   6.267   0.197   6.624 -0.4194 -0.0278  0.6727
  174SLPC  H15A19637   6.160   0.198   6.614 -0.4861 -2.3171  0.6399
  174SLPC  H15B19638   6.308   0.129   6.550 -0.0972  0.4943  0.3636
  174SLPC  H15C19639   6.296   0.160   6.721  0.3340  1.9072  1.2301
  174SLPC   C1219640   6.310   0.402   6.481 -0.0734  0.3867 -0.4599
  174SLPC  H12A19641   6.360   0.345   6.404  0.6092 -0.0251  0.2780
  174SLPC  H12B19642   6.369   0.491   6.486 -0.8698  0.9253 -0.4422
  174SLPC   C1119643   6.162   0.432   6.446 -0.1158 -0.2371  0.1543
  174SLPC  H11A19644   6.170   0.466   6.340  0.4767 -0.3430  0.1644
  174SLPC  H11B19645   6.121   0.518   6.503  2.4223  2.2788 -1.5360
  174SLPC     P19646   5.926   0.306   6.482 -0.0645  0.2864  0.1384
  174SLPC   O1319647   5.905   0.165   6.512 -0.0389  0.5226 -0.3464
  174SLPC   O1419648   5.885   0.403   6.592 -0.0051  0.3062 -0.1707
  174SLPC   O1219649   6.080   0.319   6.464  0.1018  0.2116 -0.5890
  174SLPC   O1119650   5.855   0.346   6.347  0.1651  0.3230 -0.1124
  174SLPC    C119651   5.896   0.312   6.213  0.1780 -0.6067  0.3289
  174SLPC    HA19652   5.877   0.396   6.144 -1.1336 -0.0312  1.3669
  174SLPC    HB19653   6.007   0.311   6.208  0.3044  2.8385  0.1988
  174SLPC    C219654   5.845   0.180   6.154  0.3144  0.1333  0.1865
  174SLPC    HS19655   5.872   0.099   6.225  0.3395  2.0443  2.4518
  174SLPC   O2119656   5.923   0.159   6.031 -0.1126 -0.2917 -0.7189
  174SLPC   C2119657   5.934   0.028   5.990  0.0091  0.1572  0.1681
  174SLPC   O2219658   5.900  -0.066   6.062 -0.2745  0.0505  0.6548
  174SLPC   C2219659   6.005   0.013   5.862  0.1401 -0.0115  0.3740
  174SLPC   H2R19660   5.994   0.097   5.790 -0.3299  0.6874  1.2338
  174SLPC   H2S19661   6.109  -0.000   5.897  1.9017  4.1915 -2.5078
  174SLPC    C319662   5.689   0.176   6.138 -0.4035  0.4108 -0.2894
  174SLPC    HX19663   5.652   0.168   6.242  2.4105  1.9501  0.9310
  174SLPC    HY19664   5.665   0.083   6.082  1.0371 -0.9926  1.3393
  174SLPC   O3119665   5.648   0.300   6.074 -0.5264  0.1908  0.3594
  174SLPC   C3119666   5.532   0.348   6.105 -0.0905  0.0248 -0.6829
  174SLPC   O3219667   5.461   0.296   6.197 -0.2560  0.8057  0.4022
  174SLPC   C3219668   5.500   0.464   6.014  0.9841  0.4151  0.4505
  174SLPC   H2X19669   5.587   0.510   5.963  0.7329 -0.6636 -1.0031
  174SLPC   H2Y19670   5.453   0.539   6.081  0.3497  0.8089 -0.4142
  174SLPC   C2319671   5.966  -0.118   5.795  0.6323  0.9850  0.2343
  174SLPC   H3R19672   5.856  -0.118   5.783  0.5398  1.9573  0.9971
  174SLPC   H3S19673   5.996  -0.203   5.860 -0.7579  0.2096 -0.0986
  174SLPC   C2419674   6.021  -0.133   5.656 -0.2424  0.4937 -0.0048
  174SLPC   H4R19675   6.129  -0.160   5.657 -0.0376  1.2967  1.5457
  174SLPC   H4S19676   6.021  -0.033   5.607  1.4271  0.9564  0.8515
  174SLPC   C2519677   5.944  -0.240   5.577 -0.0249 -0.2949 -1.1627
  174SLPC   H5R19678   5.836  -0.216   5.573 -0.0883 -0.4103 -0.3023
  174SLPC   H5S19679   5.952  -0.329   5.644  1.2453 -0.3396 -1.3389
  174SLPC   C2619680   6.004  -0.261   5.442  1.0276 -0.6710  0.2495
  174SLPC   H6R19681   6.103  -0.311   5.435  0.0432 -2.7650  0.4353
  174SLPC   H6S19682   6.022  -0.159   5.402 -0.9286 -0.1210  0.6852
  174SLPC   C2719683   5.904  -0.337   5.352 -0.0757  0.9165  0.5195
  174SLPC   H7R19684   5.806  -0.298   5.384 -0.0982  0.4029  1.1106
  174SLPC   H7S19685   5.901  -0.444   5.382 -0.1735  1.2391  1.6979
  174SLPC   C2819686   5.925  -0.300   5.200  0.5924 -0.8819 -0.6152
  174SLPC   H8R19687   5.914  -0.190   5.204  1.4225 -0.8028 -0.4151
  174SLPC   H8S19688   5.841  -0.345   5.142  1.6012 -1.6253 -1.5329
  174SLPC   C2919689   6.069  -0.336   5.153 -0.3516  0.1887 -0.4367
  174SLPC   H9R19690   6.145  -0.279   5.207  1.5007 -2.5853  0.1239
  174SLPC  C21019691   6.097  -0.439   5.075  0.7803 -0.7905 -0.5694
  174SLPC  H10R19692   6.202  -0.451   5.045  1.0718 -1.2617  0.5685
  174SLPC  C21119693   5.997  -0.538   5.011 -0.2760 -0.1780 -0.2606
  174SLPC  H11R19694   5.958  -0.506   4.911  1.3696  1.2365 -0.5127
  174SLPC  H11S19695   5.922  -0.549   5.091  1.4865 -0.1541  1.4759
  174SLPC  C21219696   6.052  -0.677   5.011 -0.5077 -0.0742 -0.1175
  174SLPC  H12R19697   6.035  -0.722   5.110 -0.3116 -1.4123 -0.6702
  174SLPC  C21319698   6.090  -0.756   4.905  0.4646  0.4595  0.0456
  174SLPC  H13R19699   6.114  -0.861   4.927 -0.9876 -0.2078 -1.3600
  174SLPC  C21419700   6.121  -0.715   4.764 -0.3065 -0.7789  0.0670
  174SLPC  H14R19701   6.138  -0.607   4.743  0.4128 -1.0306 -0.6784
  174SLPC  H14S19702   6.037  -0.741   4.696  0.2332 -0.2154 -0.8283
  174SLPC  C21519703   6.249  -0.781   4.703  0.3096  0.1366 -0.2970
  174SLPC  H15R19704   6.234  -0.890   4.693 -1.0914  0.2556  0.2806
  174SLPC  H15S19705   6.334  -0.765   4.773  0.6629 -1.4057 -0.3483
  174SLPC  C21619706   6.288  -0.729   4.562 -0.6089  0.0588 -0.1527
  174SLPC  H16R19707   6.301  -0.619   4.572  0.1959 -0.0026 -0.5099
  174SLPC  H16S19708   6.207  -0.739   4.487  0.3917  0.2138 -1.2653
  174SLPC  C21719709   6.419  -0.801   4.509  0.2492 -0.8648 -0.2681
  174SLPC  H17R19710   6.397  -0.910   4.504  0.1605 -0.8032 -1.4978
  174SLPC  H17S19711   6.499  -0.793   4.586 -0.5628 -2.5905  0.8236
  174SLPC  C21819712   6.469  -0.728   4.383 -0.6203  0.0724  0.1204
  174SLPC  H18R19713   6.415  -0.755   4.290 -2.1440  0.8146  0.7670
  174SLPC  H18S19714   6.578  -0.744   4.364 -0.6101 -0.6561  0.7622
  174SLPC  H18T19715   6.457  -0.618   4.399  2.9136  0.5123  0.6239
  174SLPC   C3319716   5.404   0.416   5.900  0.4590 -0.2280 -0.3963
  174SLPC   H3X19717   5.354   0.512   5.872 -0.4561 -0.7972 -0.7548
  174SLPC   H3Y19718   5.328   0.342   5.933  0.4869  0.1128  0.4768
  174SLPC   C3419719   5.472   0.360   5.768 -1.2019  0.0881 -0.2166
  174SLPC   H4X19720   5.524   0.263   5.780  0.1480  0.7785 -0.2453
  174SLPC   H4Y19721   5.558   0.429   5.750 -0.1830 -0.6439  1.5405
  174SLPC   C3519722   5.378   0.353   5.655 -0.1335 -0.1330  0.7514
  174SLPC   H5X19723   5.317   0.447   5.654  0.8113  0.5016 -0.5471
  174SLPC   H5Y19724   5.319   0.259   5.657  0.7935 -0.7212  2.2308
  174SLPC   C3619725   5.458   0.355   5.519 -0.4657 -0.1627  0.3250
  174SLPC   H6X19726   5.535   0.275   5.527  2.1075  2.2728  1.7890
  174SLPC   H6Y19727   5.512   0.452   5.509  1.9607 -1.4085  0.5673
  174SLPC   C3719728   5.371   0.316   5.392  0.3222 -0.1498  0.4260
  174SLPC   H7X19729   5.302   0.402   5.379  1.8209  1.0724  0.3188
  174SLPC   H7Y19730   5.297   0.233   5.403 -0.1579  0.2731  0.3944
  174SLPC   C3819731   5.450   0.298   5.260 -0.4806 -0.2436 -0.6343
  174SLPC   H8X19732   5.511   0.208   5.282  1.5978  0.8854 -1.4411
  174SLPC   H8Y19733   5.525   0.380   5.254 -0.6234 -0.1515 -1.2937
  174SLPC   C3919734   5.357   0.283   5.141 -0.0934  0.2054  0.7206
  174SLPC   H9X19735   5.301   0.379   5.134  0.3468  0.3336 -2.3381
  174SLPC   H9Y19736   5.282   0.205   5.165  0.6693 -0.9572 -0.5461
  174SLPC  C31019737   5.414   0.249   5.003 -0.5682 -0.9243 -0.2104
  174SLPC  H10X19738   5.423   0.139   5.009 -2.0031 -0.9789  2.7858
  174SLPC  H10Y19739   5.517   0.290   5.002 -0.6646 -0.1810  3.9301
  174SLPC  C31119740   5.321   0.313   4.897  0.6227  0.4245 -0.1543
  174SLPC  H11X19741   5.339   0.421   4.876  2.5935 -0.3330 -2.8902
  174SLPC  H11Y19742   5.216   0.316   4.932  1.0501  5.1884  1.5804
  174SLPC  C31219743   5.350   0.240   4.765 -0.0301  0.4433  0.0722
  174SLPC  H12X19744   5.323   0.132   4.759 -0.5762  0.6149 -0.7285
  174SLPC  H12Y19745   5.461   0.246   4.761 -0.0123 -0.6245 -2.1670
  174SLPC  C31319746   5.288   0.311   4.646 -0.1946 -0.7905  0.1043
  174SLPC  H13X19747   5.180   0.320   4.668 -0.0554 -0.0459  0.5025
  174SLPC  H13Y19748   5.316   0.238   4.566 -0.5775 -0.6197 -0.1901
  174SLPC  C31419749   5.346   0.451   4.621 -0.3579 -0.0822  0.0092
  174SLPC  H14X19750   5.437   0.463   4.683 -0.0454  0.9622 -0.6221
  174SLPC  H14Y19751   5.272   0.531   4.644  0.0086  0.5896 -1.0417
  174SLPC  C31519752   5.386   0.472   4.469 -0.2343  0.2331 -0.3530
  174SLPC  H15X19753   5.294   0.470   4.407 -0.8321  2.5820  0.3666
  174SLPC  H15Y19754   5.454   0.389   4.439 -0.2208  0.7402 -1.7789
  174SLPC  C31619755   5.464   0.600   4.447  0.0703  0.0411  0.3309
  174SLPC  H16X19756   5.555   0.600   4.511  0.8791 -0.7472 -0.7846
  174SLPC  H16Y19757   5.404   0.690   4.474  0.3875 -0.1300  1.6709
  174SLPC  C31719758   5.516   0.624   4.306  1.2006  0.7927 -0.4743
  174SLPC  H17X19759   5.434   0.653   4.237 -0.1219  0.6645  1.0013
  174SLPC  H17Y19760   5.571   0.532   4.276 -0.0931  0.0923 -0.7610
  174SLPC  C31819761   5.613   0.741   4.301  0.4268  0.2219 -0.4364
  174SLPC  H18X19762   5.706   0.710   4.354 -0.3213 -2.5429 -0.6033
  174SLPC  H18Y19763   5.560   0.831   4.338 -0.3361  0.2087 -1.4866
  174SLPC  H18Z19764   5.649   0.762   4.199 -1.6569 -0.4030 -1.3472
  175SLPC     N19765   1.881   0.160   6.875 -0.0037 -0.6618  0.0897
  175SLPC   C1319766   1.756   0.166   6.957  0.5514 -1.2128  0.0005
  175SLPC  H13A19767   1.676   0.218   6.907 -0.7459 -0.5315  2.6323
  175SLPC  H13B19768   1.728   0.064   6.978 -2.1166 -0.4494  0.5165
  175SLPC  H13C19769   1.780   0.219   7.048 -0.7087 -0.5863 -0.0223
  175SLPC   C1419770   1.974   0.067   6.942  0.4862  0.9594 -0.1514
  175SLPC  H14A19771   1.999   0.086   7.045  0.9811 -1.2724  0.1680
  175SLPC  H14B19772   1.940  -0.034   6.926 -1.6544  1.6934 -0.6139
  175SLPC  H14C19773   2.072   0.069   6.896  0.7490  0.5766  0.3842
  175SLPC   C1519774   1.938   0.300   6.864 -0.5742  0.5882 -0.8786
  175SLPC  H15A19775   2.020   0.306   6.795  1.2421 -3.1326  0.6702
  175SLPC  H15B19776   1.860   0.374   6.853 -1.3467 -0.3369 -1.8507
  175SLPC  H15C19777   1.977   0.330   6.960  0.4855 -1.1889 -0.7244
  175SLPC   C1219778   1.854   0.104   6.734 -0.6002  0.1787 -0.3276
  175SLPC  H12A19779   1.784   0.171   6.687  0.1345  2.6012  1.7927
  175SLPC  H12B19780   1.807   0.007   6.744  1.0488 -1.0302 -3.0941
  175SLPC   C1119781   1.982   0.074   6.652 -0.0031 -1.4291 -0.3129
  175SLPC  H11A19782   1.945   0.019   6.563  0.6597 -0.3339 -1.2898
  175SLPC  H11B19783   2.035   0.001   6.717 -1.0769 -0.3566  1.8994
  175SLPC     P19784   2.019   0.253   6.476 -0.0264  0.1231  0.2781
  175SLPC   O1319785   1.873   0.231   6.449 -0.1073 -0.0625 -0.2019
  175SLPC   O1419786   2.065   0.396   6.474  0.0383  0.0286 -0.1221
  175SLPC   O1219787   2.055   0.193   6.613  0.0588 -0.1753  0.0458
  175SLPC   O1119788   2.108   0.165   6.377  0.1137 -0.0677  0.3189
  175SLPC    C119789   2.248   0.146   6.395 -0.4946 -0.7841 -0.6251
  175SLPC    HA19790   2.309   0.200   6.320  1.9298 -3.9089 -1.1199
  175SLPC    HB19791   2.278   0.172   6.499 -1.6253 -1.9987  0.0239
  175SLPC    C219792   2.280   0.002   6.376 -0.2561  0.1671 -0.1011
  175SLPC    HS19793   2.385  -0.018   6.405 -0.7504 -3.9693 -0.5109
  175SLPC   O2119794   2.274  -0.040   6.231 -0.2397 -0.1644  0.0825
  175SLPC   C2119795   2.362   0.013   6.148  0.1031  0.5431  0.1635
  175SLPC   O2219796   2.455   0.088   6.182 -0.0930  0.6366 -0.3417
  175SLPC   C2219797   2.313  -0.026   6.010  0.1224  0.3485  0.2929
  175SLPC   H2R19798   2.312  -0.137   6.011  2.9475  0.2018  2.6373
  175SLPC   H2S19799   2.207   0.004   6.000 -0.2781 -0.4863  1.7666
  175SLPC    C319800   2.197  -0.097   6.460 -0.2234  0.4265 -0.1499
  175SLPC    HX19801   2.087  -0.082   6.457 -0.2013  0.7478  0.4739
  175SLPC    HY19802   2.236  -0.083   6.563  3.0380  0.5199 -1.2546
  175SLPC   O3119803   2.229  -0.236   6.432 -0.2916 -0.2811  0.0013
  175SLPC   C3119804   2.141  -0.297   6.346  0.4683 -0.6709  0.6773
  175SLPC   O3219805   2.047  -0.239   6.292 -0.4195  0.1079 -0.0299
  175SLPC   C3219806   2.195  -0.442   6.323  0.7109 -0.9383 -0.2651
  175SLPC   H2X19807   2.114  -0.486   6.261 -0.1710 -1.5157  1.2486
  175SLPC   H2Y19808   2.180  -0.490   6.422  0.3489  0.4265  0.3660
  175SLPC   C2319809   2.410   0.030   5.907 -0.0106 -0.3550 -0.5904
  175SLPC   H3R19810   2.510  -0.018   5.914 -0.2275 -1.1261 -2.3492
  175SLPC   H3S19811   2.418   0.139   5.923 -0.9353 -0.5133  1.2599
  175SLPC   C2419812   2.362   0.003   5.765  0.4117  0.2011  0.4171
  175SLPC   H4R19813   2.257   0.038   5.759  0.1477 -0.7196 -0.5145
  175SLPC   H4S19814   2.370  -0.108   5.770  0.0902  0.2206  4.1056
  175SLPC   C2519815   2.447   0.064   5.655  0.0012 -0.6325 -0.1836
  175SLPC   H5R19816   2.555   0.055   5.680  0.1828 -1.0063 -1.0593
  175SLPC   H5S19817   2.430   0.174   5.656 -1.9898 -0.8782 -1.5072
  175SLPC   C2619818   2.418   0.010   5.516 -0.0056  0.2890  0.3463
  175SLPC   H6R19819   2.309  -0.003   5.506  0.2598 -0.7041 -1.6886
  175SLPC   H6S19820   2.454  -0.094   5.507 -2.9863 -0.7239 -1.0186
  175SLPC   C2719821   2.467   0.096   5.401  0.2624 -0.0184 -0.3172
  175SLPC   H7R19822   2.578   0.086   5.407  0.1773 -0.6791  0.2908
  175SLPC   H7S19823   2.449   0.206   5.411  1.0294  0.1177 -0.3534
  175SLPC   C2819824   2.407   0.049   5.268  0.2099 -0.4819 -0.1517
  175SLPC   H8R19825   2.299   0.024   5.273 -0.2161  1.1857 -0.3377
  175SLPC   H8S19826   2.469  -0.038   5.236  1.3396  0.6753 -1.2838
  175SLPC   C2919827   2.431   0.160   5.163 -0.4885 -0.0999 -0.5460
  175SLPC   H9R19828   2.459   0.260   5.199 -1.5234  0.0902 -0.2520
  175SLPC  C21019829   2.433   0.131   5.029 -0.5139 -0.7638 -0.3208
  175SLPC  H10R19830   2.439   0.213   4.956 -1.2663 -0.2832  0.1485
  175SLPC  C21119831   2.423  -0.010   4.973  0.0881  0.1245 -0.3589
  175SLPC  H11R19832   2.371  -0.079   5.043  0.1379  0.2692 -0.1784
  175SLPC  H11S19833   2.524  -0.052   4.955  0.4628  0.3701  1.0439
  175SLPC  C21219834   2.337  -0.016   4.851 -0.2828 -0.7413  0.5296
  175SLPC  H12R19835   2.231  -0.036   4.872 -0.2424  0.5809  2.3299
  175SLPC  C21319836   2.372   0.029   4.730  0.2579  0.5001  0.5759
  175SLPC  H13R19837   2.299   0.019   4.648  0.5256 -0.9269  0.4772
  175SLPC  C21419838   2.512   0.076   4.696  0.0513 -0.3069  0.3328
  175SLPC  H14R19839   2.584   0.077   4.782  0.5403  0.0491 -0.0753
  175SLPC  H14S19840   2.504   0.185   4.674  1.7752 -0.3821 -0.8384
  175SLPC  C21519841   2.568   0.021   4.562 -0.3557 -0.2135  0.3686
  175SLPC  H15R19842   2.656   0.083   4.536  0.3533 -1.3648 -0.0953
  175SLPC  H15S19843   2.493   0.027   4.480  0.2444  3.2117 -0.0783
  175SLPC  C21619844   2.616  -0.123   4.577 -0.2729  0.6513 -0.2568
  175SLPC  H16R19845   2.518  -0.169   4.599 -0.0905  1.5111  2.7278
  175SLPC  H16S19846   2.675  -0.135   4.671 -1.2675  0.7026  0.3884
  175SLPC  C21719847   2.699  -0.176   4.462 -0.2370  0.0028 -0.3860
  175SLPC  H17R19848   2.798  -0.128   4.473  0.0408 -0.7493  0.5065
  175SLPC  H17S19849   2.651  -0.141   4.368 -1.2936  0.5485  0.3335
  175SLPC  C21819850   2.710  -0.329   4.467  0.4961 -0.2972 -0.1549
  175SLPC  H18R19851   2.745  -0.370   4.370  0.0495  2.6660 -1.6760
  175SLPC  H18S19852   2.611  -0.375   4.489 -0.5635  1.9646  0.1493
  175SLPC  H18T19853   2.777  -0.365   4.547  0.5639 -0.3777 -0.2478
  175SLPC   C3319854   2.339  -0.451   6.278 -0.0132  0.2188 -0.1533
  175SLPC   H3X19855   2.392  -0.547   6.297  0.7731  0.9398  1.5306
  175SLPC   H3Y19856   2.402  -0.374   6.328 -1.0891  2.2415 -1.7842
  175SLPC   C3419857   2.344  -0.419   6.127  0.8753 -0.2114 -0.0169
  175SLPC   H4X19858   2.299  -0.318   6.117  0.7588 -0.4268 -2.0236
  175SLPC   H4Y19859   2.281  -0.490   6.070  2.1400  0.8428 -2.9340
  175SLPC   C3519860   2.479  -0.403   6.073  0.2023 -0.4573 -0.1954
  175SLPC   H5X19861   2.544  -0.493   6.072  0.2521 -0.4355 -1.6857
  175SLPC   H5Y19862   2.546  -0.328   6.121 -0.5188 -0.1611  0.3716
  175SLPC   C3619863   2.466  -0.381   5.917  0.0883 -0.5195 -0.2303
  175SLPC   H6X19864   2.563  -0.359   5.867 -0.6723 -0.4456 -1.7459
  175SLPC   H6Y19865   2.400  -0.296   5.890 -0.5626 -1.1820 -0.7900
  175SLPC   C3719866   2.419  -0.502   5.843 -0.3753 -0.3455  0.9304
  175SLPC   H7X19867   2.310  -0.522   5.843 -0.3030 -0.7791  0.1163
  175SLPC   H7Y19868   2.461  -0.596   5.886  0.4317  0.0344  0.9832
  175SLPC   C3819869   2.453  -0.518   5.696  0.9105  0.3096  0.0703
  175SLPC   H8X19870   2.428  -0.623   5.669  2.3588 -0.3782  1.2088
  175SLPC   H8Y19871   2.561  -0.499   5.682  0.5064  1.5166 -1.6479
  175SLPC   C3919872   2.382  -0.425   5.597 -1.1377 -0.6115 -0.2896
  175SLPC   H9X19873   2.396  -0.319   5.627 -0.5037 -0.7961  0.0956
  175SLPC   H9Y19874   2.272  -0.434   5.602 -1.3655 -0.3615 -3.1342
  175SLPC  C31019875   2.430  -0.446   5.456  0.0022 -0.0817  0.5146
  175SLPC  H10X19876   2.412  -0.548   5.417 -0.1457  0.3912 -0.6950
  175SLPC  H10Y19877   2.538  -0.422   5.454  0.1763 -0.8164  0.8541
  175SLPC  C31119878   2.371  -0.340   5.361 -0.0462 -0.1341  0.6271
  175SLPC  H11X19879   2.428  -0.342   5.265 -0.5468 -0.2810  0.3277
  175SLPC  H11Y19880   2.392  -0.236   5.394  0.9081  0.6235 -2.1029
  175SLPC  C31219881   2.223  -0.351   5.321  0.1969 -0.9057  0.0372
  175SLPC  H12X19882   2.167  -0.285   5.391  0.8183 -0.1433 -0.1733
  175SLPC  H12Y19883   2.186  -0.455   5.334 -0.9769 -0.2361  3.2442
  175SLPC  C31319884   2.181  -0.303   5.176 -0.4747 -0.8819 -0.1519
  175SLPC  H13X19885   2.219  -0.200   5.162  1.2487 -1.5181 -0.3359
  175SLPC  H13Y19886   2.071  -0.291   5.167 -0.4107  1.1893  1.1731
  175SLPC  C31419887   2.239  -0.394   5.066  0.1627 -0.3407 -0.1351
  175SLPC  H14X19888   2.237  -0.500   5.100  0.2990 -0.0067  0.9372
  175SLPC  H14Y19889   2.347  -0.371   5.062  0.2362 -0.1696  1.8159
  175SLPC  C31519890   2.164  -0.374   4.936  0.8431  0.0581  0.6157
  175SLPC  H15X19891   2.164  -0.266   4.911 -2.3688 -0.6529 -3.5737
  175SLPC  H15Y19892   2.056  -0.395   4.951  1.3766 -2.6060  1.2114
  175SLPC  C31619893   2.207  -0.465   4.818 -0.3792 -0.2159 -0.3555
  175SLPC  H16X19894   2.180  -0.569   4.846  0.5665 -0.6011 -0.8454
  175SLPC  H16Y19895   2.317  -0.463   4.812 -0.2371 -0.4706  1.5404
  175SLPC  C31719896   2.141  -0.421   4.689  0.0257 -0.2837 -0.0089
  175SLPC  H17X19897   2.120  -0.312   4.694 -3.1582 -0.8619  1.2799
  175SLPC  H17Y19898   2.043  -0.470   4.675 -0.1153 -0.7545  2.3191
  175SLPC  C31819899   2.222  -0.456   4.558  0.3561 -0.0533  0.2331
  175SLPC  H18X19900   2.158  -0.432   4.471  0.5038 -3.7120 -1.0915
  175SLPC  H18Y19901   2.242  -0.566   4.562 -1.2888 -0.4091 -0.3835
  175SLPC  H18Z19902   2.318  -0.401   4.548  0.1630  0.1242 -0.8305
  176SLPC     N19903   2.171   5.020   6.788  0.0274  0.4754 -0.1220
  176SLPC   C1319904   2.125   4.900   6.861 -0.0583  0.1827  0.2840
  176SLPC  H13A19905   2.187   4.811   6.862 -0.6165 -0.2154 -0.1814
  176SLPC  H13B19906   2.105   4.920   6.966 -0.8780  0.4618  0.0847
  176SLPC  H13C19907   2.033   4.867   6.815  0.6103 -0.3780 -0.6722
  176SLPC   C1419908   2.186   4.981   6.645  0.2041  0.1976  0.0268
  176SLPC  H14A19909   2.264   4.908   6.632 -1.3612 -1.9296  1.8015
  176SLPC  H14B19910   2.092   4.944   6.608  0.4269 -0.2708 -0.0774
  176SLPC  H14C19911   2.207   5.061   6.575  0.2140 -1.0930 -1.4829
  176SLPC   C1519912   2.296   5.070   6.849  0.2042 -0.3327 -0.3869
  176SLPC  H15A19913   2.339   5.154   6.798  2.6118 -0.2719  1.5468
  176SLPC  H15B19914   2.273   5.108   6.948 -1.3167 -1.0390 -0.4366
  176SLPC  H15C19915   2.370   4.992   6.860  0.1548 -0.2041  1.2146
  176SLPC   C1219916   2.058   5.119   6.791  0.5313 -0.4472  0.4420
  176SLPC  H12A19917   2.023   5.131   6.892  0.6030  1.0585  0.3045
  176SLPC  H12B19918   1.968   5.075   6.749  0.9446 -0.6442 -0.2476
  176SLPC   C1119919   2.075   5.251   6.714 -0.0255 -0.1103 -0.1488
  176SLPC  H11A19920   2.178   5.285   6.734  0.4693 -0.3754 -2.0635
  176SLPC  H11B19921   2.002   5.328   6.747 -1.0950 -0.7271 -0.9938
  176SLPC     P19922   1.917   5.226   6.503 -0.5880 -0.1853  0.2445
  176SLPC   O1319923   1.812   5.210   6.606  0.1377 -0.6662 -0.9019
  176SLPC   O1419924   1.886   5.333   6.408 -0.5113 -0.1887  0.1947
  176SLPC   O1219925   2.065   5.246   6.571 -0.0757 -0.2328  0.4923
  176SLPC   O1119926   1.935   5.086   6.439  0.5526 -0.5936 -0.4190
  176SLPC    C119927   2.022   5.052   6.331  0.4059  0.6309  0.8139
  176SLPC    HA19928   2.101   5.129   6.316 -0.2142  1.1208 -0.0283
  176SLPC    HB19929   2.078   4.959   6.356 -0.7215 -0.6623 -1.1984
  176SLPC    C219930   1.949   5.021   6.194  0.2838  0.1499  0.7268
  176SLPC    HS19931   2.034   4.987   6.131 -1.4601 -0.2767 -1.5027
  176SLPC   O2119932   1.889   5.134   6.121 -0.2076  0.0201 -0.0959
  176SLPC   C2119933   1.951   5.238   6.103 -0.4459  0.4666  0.1185
  176SLPC   O2219934   2.064   5.264   6.146 -0.0173  0.0143  0.4464
  176SLPC   C2219935   1.854   5.345   6.048  0.0787  0.0529 -0.1119
  176SLPC   H2R19936   1.797   5.380   6.137 -0.9155 -0.6193 -0.4676
  176SLPC   H2S19937   1.916   5.427   6.008  0.3350  0.7524  1.6385
  176SLPC    C319938   1.838   4.910   6.204 -0.3683 -0.1485 -0.1440
  176SLPC    HX19939   1.775   4.943   6.290  0.0097  0.7652 -0.2041
  176SLPC    HY19940   1.881   4.816   6.246 -2.5618 -1.0266  0.3211
  176SLPC   O3119941   1.760   4.888   6.087  0.1759  0.4086 -0.0391
  176SLPC   C3119942   1.687   4.775   6.088  0.9073 -0.8836  0.7346
  176SLPC   O3219943   1.680   4.693   6.177 -0.3792 -1.1002  0.2175
  176SLPC   C3219944   1.604   4.778   5.956 -0.1657  0.6624 -0.1306
  176SLPC   H2X19945   1.635   4.869   5.900  1.0272 -0.3291 -1.1457
  176SLPC   H2Y19946   1.499   4.799   5.986  0.6319  1.8555  2.1070
  176SLPC   C2319947   1.755   5.308   5.937 -0.5481  0.1654  0.2830
  176SLPC   H3R19948   1.680   5.389   5.924 -0.0275  0.5375 -0.4832
  176SLPC   H3S19949   1.711   5.213   5.973  0.9828 -0.9018 -0.5395
  176SLPC   C2419950   1.816   5.264   5.808  0.5282 -0.3606  0.4545
  176SLPC   H4R19951   1.881   5.176   5.827  0.2689 -0.5720  0.3690
  176SLPC   H4S19952   1.879   5.348   5.773 -0.6628  0.9647  1.3655
  176SLPC   C2519953   1.725   5.225   5.694 -0.1156  0.2622  0.0700
  176SLPC   H5R19954   1.674   5.309   5.644 -1.5043  0.1050  1.1437
  176SLPC   H5S19955   1.640   5.160   5.724 -0.6193  0.3181 -1.1993
  176SLPC   C2619956   1.792   5.138   5.594 -0.3416 -0.2158  0.2274
  176SLPC   H6R19957   1.821   5.038   5.632 -1.7899 -0.6876  0.1575
  176SLPC   H6S19958   1.888   5.194   5.585  0.1388 -1.2662 -1.7371
  176SLPC   C2719959   1.731   5.120   5.457  0.4240  0.0372  0.4723
  176SLPC   H7R19960   1.804   5.067   5.392  0.5990  2.6483 -1.6643
  176SLPC   H7S19961   1.734   5.228   5.429  0.9169 -0.4576 -1.5404
  176SLPC   C2819962   1.593   5.049   5.444 -0.2545  0.7767  0.3144
  176SLPC   H8R19963   1.557   5.070   5.341  1.0396  0.7359 -0.1664
  176SLPC   H8S19964   1.515   5.092   5.511  0.3061  1.9015  0.2662
  176SLPC   C2919965   1.601   4.896   5.447  0.1825 -0.5653 -0.6430
  176SLPC   H9R19966   1.551   4.857   5.536 -0.5497  0.5985 -0.5234
  176SLPC  C21019967   1.651   4.812   5.363 -0.3393 -0.9596 -0.4110
  176SLPC  H10R19968   1.648   4.704   5.380  0.2757 -0.6514  2.1264
  176SLPC  C21119969   1.728   4.858   5.234 -0.2741  0.1145 -0.7543
  176SLPC  H11R19970   1.835   4.834   5.255 -0.9495 -0.9506  1.9033
  176SLPC  H11S19971   1.726   4.967   5.211  0.2207  0.4412  0.6232
  176SLPC  C21219972   1.690   4.782   5.113  0.1486 -0.5969  0.0288
  176SLPC  H12R19973   1.703   4.673   5.120 -1.4668 -0.9301 -1.4319
  176SLPC  C21319974   1.621   4.834   5.009  0.2625 -0.1286  0.7120
  176SLPC  H13R19975   1.601   4.764   4.926 -0.2649  1.4235 -0.5237
  176SLPC  C21419976   1.581   4.976   4.978  0.0243  0.9751  0.1381
  176SLPC  H14R19977   1.592   5.045   5.064  0.6580  0.2382  0.6672
  176SLPC  H14S19978   1.470   4.982   4.971 -0.0159  2.6849  1.6351
  176SLPC  C21519979   1.650   5.035   4.854  0.2780  0.7796  0.2607
  176SLPC  H15R19980   1.760   5.018   4.858  0.4657  1.6838 -0.5765
  176SLPC  H15S19981   1.633   5.145   4.858  0.8346  0.8869 -0.1991
  176SLPC  C21619982   1.602   4.984   4.713  0.3707 -1.0846 -0.4612
  176SLPC  H16R19983   1.494   5.006   4.697  1.3241  2.1161 -3.7070
  176SLPC  H16S19984   1.597   4.873   4.709 -0.0006 -1.0448 -1.3350
  176SLPC  C21719985   1.680   5.051   4.604 -1.2811  0.7857  0.3547
  176SLPC  H17R19986   1.773   4.990   4.595 -2.7321 -1.4808 -0.1180
  176SLPC  H17S19987   1.698   5.155   4.640  2.7631  0.2918  0.3120
  176SLPC  C21819988   1.615   5.031   4.470 -0.3094 -0.1689  0.2017
  176SLPC  H18R19989   1.533   5.103   4.446 -2.2074 -1.9576  0.9530
  176SLPC  H18S19990   1.564   4.932   4.476 -2.4254  0.6981 -1.8656
  176SLPC  H18T19991   1.685   5.031   4.384 -0.3992 -1.9086  0.0857
  176SLPC   C3319992   1.626   4.648   5.876  0.6317  0.0374 -0.3485
  176SLPC   H3X19993   1.562   4.642   5.785  1.5861 -0.5220 -0.9962
  176SLPC   H3Y19994   1.604   4.566   5.947 -0.0121 -1.2945 -2.0189
  176SLPC   C3419995   1.766   4.632   5.826  0.2820 -0.4964  0.2352
  176SLPC   H4X19996   1.779   4.529   5.787 -1.5760 -1.1416  1.1895
  176SLPC   H4Y19997   1.841   4.642   5.907 -1.3367  1.0177  1.6342
  176SLPC   C3519998   1.808   4.744   5.730  0.0650  0.1970  0.4913
  176SLPC   H5X19999   1.788   4.843   5.777  0.1726 -0.2368  1.4716
  176SLPC   H5Y20000   1.734   4.740   5.646  0.9987 -0.6888 -0.3126
  176SLPC   C3620001   1.961   4.744   5.674 -0.3047 -0.2621 -0.2499
  176SLPC   H6X20002   2.027   4.775   5.758  0.2627  0.4503 -0.9410
  176SLPC   H6Y20003   1.980   4.820   5.595  1.8630  1.2824  1.5996
  176SLPC   C3720004   2.000   4.615   5.612 -0.9909 -0.2125 -0.7483
  176SLPC   H7X20005   1.962   4.530   5.672 -2.4793  1.7117  1.2035
  176SLPC   H7Y20006   2.110   4.609   5.602 -1.2331 -2.5182 -3.1913
  176SLPC   C3820007   1.941   4.593   5.476  0.5618 -0.1767 -0.1905
  176SLPC   H8X20008   1.996   4.656   5.402 -0.2588 -0.7145 -1.2880
  176SLPC   H8Y20009   1.835   4.623   5.467  0.2626 -0.3339  2.1671
  176SLPC   C3920010   1.942   4.447   5.420  0.2820 -0.2041  0.0110
  176SLPC   H9X20011   1.864   4.385   5.469 -1.1949  0.8116 -0.9421
  176SLPC   H9Y20012   2.040   4.399   5.439 -0.1312 -0.4715  1.5343
  176SLPC  C31020013   1.907   4.447   5.270  0.0582  0.4546  0.1185
  176SLPC  H10X20014   1.944   4.532   5.209 -0.6148  0.9804  0.4259
  176SLPC  H10Y20015   1.798   4.466   5.259 -0.1840 -1.0569 -0.2000
  176SLPC  C31120016   1.942   4.307   5.220 -0.5726 -0.1820 -0.4097
  176SLPC  H11X20017   1.876   4.239   5.278 -1.5418  1.1440  0.0869
  176SLPC  H11Y20018   2.046   4.273   5.238 -0.4637  0.0663 -0.5660
  176SLPC  C31220019   1.894   4.289   5.075 -0.5611  1.2672 -0.0830
  176SLPC  H12X20020   1.982   4.321   5.016  0.8706 -1.4719  0.3995
  176SLPC  H12Y20021   1.810   4.358   5.054 -2.4572 -0.7324  0.5486
  176SLPC  C31320022   1.857   4.144   5.037  0.0690 -0.1170 -0.8538
  176SLPC  H13X20023   1.788   4.097   5.109 -0.7191  2.0397 -0.1203
  176SLPC  H13Y20024   1.953   4.090   5.051  0.1668  0.0195 -0.9912
  176SLPC  C31420025   1.813   4.132   4.897  0.6484  0.8759  0.0779
  176SLPC  H14X20026   1.722   4.185   4.861  1.5835  2.1541 -0.5057
  176SLPC  H14Y20027   1.782   4.028   4.877 -1.6138  1.1887  1.5235
  176SLPC  C31520028   1.928   4.166   4.798 -0.1105  0.4591 -0.3002
  176SLPC  H15X20029   2.021   4.110   4.827 -2.1357 -1.9872  2.1092
  176SLPC  H15Y20030   1.946   4.275   4.805  3.3150 -0.0735  1.4651
  176SLPC  C31620031   1.903   4.121   4.649  0.3852  0.0686  0.0204
  176SLPC  H16X20032   1.865   4.017   4.655  1.9684 -0.4985  0.9674
  176SLPC  H16Y20033   1.996   4.127   4.589  1.7374 -0.5012  1.9649
  176SLPC  C31720034   1.814   4.216   4.575  0.0744 -0.1095 -0.0661
  176SLPC  H17X20035   1.857   4.318   4.580  1.5551 -0.7144  0.0952
  176SLPC  H17Y20036   1.722   4.218   4.638 -0.0942 -0.7006 -0.2837
  176SLPC  C31820037   1.786   4.191   4.419 -0.5906 -0.8407  0.1353
  176SLPC  H18X20038   1.881   4.166   4.368  0.3887  2.2842  0.2833
  176SLPC  H18Y20039   1.751   4.287   4.377 -1.8455 -0.5570  1.7175
  176SLPC  H18Z20040   1.708   4.112   4.418 -0.4239 -1.0093  0.3406
  177SLPC     N20041   1.465   0.086   6.382  0.0428 -0.4962  0.1690
  177SLPC   C1320042   1.569   0.187   6.390 -0.8209 -0.2220 -0.1166
  177SLPC  H13A20043   1.598   0.223   6.293  0.3889  0.4963  0.4954
  177SLPC  H13B20044   1.536   0.274   6.445 -0.2662  0.1037 -0.2977
  177SLPC  H13C20045   1.650   0.146   6.449 -2.6382 -2.0962  1.2735
  177SLPC   C1420046   1.383   0.120   6.264 -0.4721  0.4387 -0.2406
  177SLPC  H14A20047   1.287   0.070   6.262  0.5735 -1.6671 -0.8792
  177SLPC  H14B20048   1.366   0.226   6.278  0.7145  0.3829  2.0935
  177SLPC  H14C20049   1.436   0.120   6.170  0.1430  0.7879  0.1010
  177SLPC   C1520050   1.374   0.089   6.501 -0.0224 -0.1272 -0.0404
  177SLPC  H15A20051   1.433   0.059   6.587  2.5364  2.1891 -0.8448
  177SLPC  H15B20052   1.340   0.189   6.521  1.9591  0.9884 -1.7922
  177SLPC  H15C20053   1.297   0.017   6.476  1.3721 -0.2741 -5.2256
  177SLPC   C1220054   1.522  -0.053   6.357 -0.5333  0.1126 -0.4787
  177SLPC  H12A20055   1.570  -0.086   6.449  0.5897 -0.1130 -1.1305
  177SLPC  H12B20056   1.610  -0.042   6.296  0.5867  2.9985  1.4391
  177SLPC   C1120057   1.433  -0.166   6.301  0.3368 -0.0906 -0.0280
  177SLPC  H11A20058   1.490  -0.262   6.303  1.3796  0.5042 -0.6191
  177SLPC  H11B20059   1.412  -0.142   6.195  2.3228  1.0703 -0.2149
  177SLPC     P20060   1.171  -0.179   6.340  0.0441 -0.2605  0.2563
  177SLPC   O1320061   1.112  -0.316   6.352 -0.0250  0.0541 -0.0983
  177SLPC   O1420062   1.112  -0.071   6.419  0.1600  0.5370 -0.7257
  177SLPC   O1220063   1.328  -0.181   6.389 -0.2285  0.2643 -0.1207
  177SLPC   O1120064   1.179  -0.140   6.190  0.5541  0.1669 -0.0458
  177SLPC    C120065   1.083  -0.055   6.135  0.0746 -0.1257 -0.4139
  177SLPC    HA20066   0.978  -0.090   6.149  0.1399 -1.2211 -2.3194
  177SLPC    HB20067   1.102   0.052   6.160 -0.0704 -0.1122 -0.3605
  177SLPC    C220068   1.093  -0.056   5.978 -0.4981  0.6583  0.7320
  177SLPC    HS20069   1.075  -0.162   5.952 -0.6831  0.5704  1.1987
  177SLPC   O2120070   1.222  -0.019   5.929  0.3266  0.5811 -0.2564
  177SLPC   C2120071   1.304  -0.123   5.895  0.5920 -0.1512 -0.8910
  177SLPC   O2220072   1.271  -0.237   5.892 -0.3742 -0.1456 -0.0309
  177SLPC   C2220073   1.440  -0.079   5.846  0.8927  0.9294 -0.0685
  177SLPC   H2R20074   1.486  -0.029   5.934 -1.7745 -1.9729  3.3029
  177SLPC   H2S20075   1.490  -0.178   5.834 -1.0212 -0.0182 -0.6062
  177SLPC    C320076   0.985   0.034   5.916 -0.8425 -0.1462  0.7041
  177SLPC    HX20077   0.995   0.137   5.958 -2.8304  0.4850 -0.2661
  177SLPC    HY20078   0.890  -0.011   5.950 -0.1119  0.0421  3.1584
  177SLPC   O3120079   0.981   0.031   5.772 -0.2002  0.5677 -0.7028
  177SLPC   C3120080   0.988   0.141   5.703  0.4163 -0.1202 -0.0281
  177SLPC   O3220081   1.000   0.255   5.747 -0.0696 -0.0498  0.2532
  177SLPC   C3220082   0.970   0.109   5.556  0.3507  0.1444 -0.2844
  177SLPC   H2X20083   0.864   0.078   5.545 -0.0242  1.2057  0.2094
  177SLPC   H2Y20084   1.028   0.022   5.520 -1.4310 -1.2140  0.0076
  177SLPC   C2320085   1.439   0.011   5.715 -0.1056 -0.0282 -0.9070
  177SLPC   H3R20086   1.545   0.036   5.694  0.5689 -2.2172 -0.3479
  177SLPC   H3S20087   1.390   0.108   5.736  0.4718 -0.0388  0.6368
  177SLPC   C2420088   1.370  -0.062   5.602 -0.2575 -0.0455  0.6589
  177SLPC   H4R20089   1.259  -0.058   5.613 -0.1855 -1.5543  2.5314
  177SLPC   H4S20090   1.391  -0.169   5.622  1.6974  0.7064  3.1137
  177SLPC   C2520091   1.424  -0.013   5.467  0.0837  0.2006 -0.4181
  177SLPC   H5R20092   1.383  -0.080   5.388  2.9423 -0.1488 -1.7456
  177SLPC   H5S20093   1.533  -0.032   5.484 -0.1988  0.3188  1.9188
  177SLPC   C2620094   1.409   0.126   5.428  0.5427 -0.6591  0.1666
  177SLPC   H6R20095   1.432   0.187   5.517 -0.6256 -1.4802  1.0544
  177SLPC   H6S20096   1.306   0.148   5.393  0.5426  0.9773  1.1193
  177SLPC   C2720097   1.509   0.173   5.326  0.2781  0.0656  0.2304
  177SLPC   H7R20098   1.610   0.155   5.368  0.7233 -0.9101 -1.1896
  177SLPC   H7S20099   1.496   0.281   5.302 -2.7821  0.1456  1.7646
  177SLPC   C2820100   1.499   0.096   5.197  0.0489  0.3069  0.1141
  177SLPC   H8R20101   1.400   0.119   5.151 -0.6424 -0.1604  1.3092
  177SLPC   H8S20102   1.497  -0.015   5.199  1.7916  0.2423  2.7494
  177SLPC   C2920103   1.613   0.142   5.108  0.9279  0.3817 -0.0586
  177SLPC   H9R20104   1.590   0.230   5.046  0.9536 -0.1598 -0.8594
  177SLPC  C21020105   1.731   0.086   5.097  0.0348  0.2346 -0.7665
  177SLPC  H10R20106   1.802   0.123   5.022  1.5076 -1.9581 -0.5541
  177SLPC  C21120107   1.775  -0.037   5.179 -0.0545 -0.2609  0.7537
  177SLPC  H11R20108   1.794  -0.119   5.106 -2.4076 -0.0553 -0.1668
  177SLPC  H11S20109   1.700  -0.071   5.254 -0.8848 -1.2486 -0.4751
  177SLPC  C21220110   1.905  -0.005   5.246  0.5203 -0.0456  0.7150
  177SLPC  H12R20111   1.962   0.076   5.199 -1.4059  0.0115 -1.7059
  177SLPC  C21320112   1.955  -0.063   5.358  0.9796 -0.0338 -0.5156
  177SLPC  H13R20113   2.051  -0.019   5.388  1.0067  0.2763 -1.0488
  177SLPC  C21420114   1.906  -0.161   5.464 -1.0683  0.0372  0.1056
  177SLPC  H14R20115   1.932  -0.265   5.436  0.7864  1.1014 -2.5694
  177SLPC  H14S20116   1.796  -0.159   5.479 -0.8756 -0.1406  1.6693
  177SLPC  C21520117   1.971  -0.124   5.592  0.8891  0.0896 -0.7756
  177SLPC  H15R20118   1.933  -0.025   5.626  3.0007  0.7817 -0.2218
  177SLPC  H15S20119   2.083  -0.125   5.592  0.8988  0.4368 -0.4790
  177SLPC  C21620120   1.950  -0.231   5.701 -0.0400 -0.5939 -0.0907
  177SLPC  H16R20121   2.011  -0.321   5.676  1.2172  0.2420 -0.1578
  177SLPC  H16S20122   1.841  -0.253   5.699 -0.5540  1.7717 -0.3433
  177SLPC  C21720123   1.987  -0.175   5.834  0.3642 -0.5286  0.2472
  177SLPC  H17R20124   1.926  -0.084   5.854  1.3590  0.7066 -1.9450
  177SLPC  H17S20125   2.088  -0.131   5.817 -0.0840 -0.0182 -1.3371
  177SLPC  C21820126   1.975  -0.281   5.941 -0.0226 -0.0345  0.2733
  177SLPC  H18R20127   1.994  -0.232   6.039 -0.7459  0.7320  0.0446
  177SLPC  H18S20128   2.057  -0.354   5.928  2.0298  2.2129 -0.2482
  177SLPC  H18T20129   1.881  -0.340   5.943  1.6425 -2.8395  1.5221
  177SLPC   C3320130   0.991   0.229   5.459 -0.0906  0.6614 -0.1574
  177SLPC   H3X20131   1.084   0.281   5.489  2.8201 -1.4016 -4.5497
  177SLPC   H3Y20132   0.905   0.299   5.447  0.1372  0.8275 -0.8952
  177SLPC   C3420133   1.004   0.180   5.312 -0.5624  0.2532  0.2325
  177SLPC   H4X20134   1.089   0.109   5.322 -1.3363 -0.9925 -1.4817
  177SLPC   H4Y20135   1.027   0.268   5.248 -1.0086  1.6019  1.8527
  177SLPC   C3520136   0.887   0.103   5.260  0.2286 -0.7706 -0.0489
  177SLPC   H5X20137   0.794   0.163   5.267  2.1034  2.2725  0.5217
  177SLPC   H5Y20138   0.880   0.018   5.331 -1.2518 -0.9160 -0.3419
  177SLPC   C3620139   0.907   0.051   5.122  0.3948  0.4848  0.0536
  177SLPC   H6X20140   1.012   0.019   5.104  0.7708  2.7176 -2.2530
  177SLPC   H6Y20141   0.901   0.132   5.046  0.8630 -1.0635 -1.7237
  177SLPC   C3720142   0.829  -0.070   5.084 -0.8418  1.0566 -0.0782
  177SLPC   H7X20143   0.726  -0.030   5.091 -1.2450 -0.1853  1.7088
  177SLPC   H7Y20144   0.852  -0.151   5.156 -0.4933  1.7113  0.5630
  177SLPC   C3820145   0.862  -0.112   4.938  0.3854  0.3812  0.2098
  177SLPC   H8X20146   0.796  -0.198   4.914  0.6743  0.3999 -0.7056
  177SLPC   H8Y20147   0.968  -0.144   4.949  0.4422 -0.4284 -2.1446
  177SLPC   C3920148   0.844  -0.008   4.826 -0.0878  0.0510  0.3584
  177SLPC   H9X20149   0.916   0.077   4.832  0.3474 -0.4277  3.0029
  177SLPC   H9Y20150   0.742   0.035   4.828  0.4998  1.5304  0.4564
  177SLPC  C31020151   0.867  -0.077   4.684 -0.0765 -0.4291  0.0090
  177SLPC  H10X20152   0.794  -0.160   4.674 -1.3537  0.6092  0.4480
  177SLPC  H10Y20153   0.966  -0.128   4.681  0.1945  0.0007  1.2189
  177SLPC  C31120154   0.846   0.023   4.565 -0.0091 -0.7356 -0.3241
  177SLPC  H11X20155   0.931   0.094   4.568 -0.3502 -0.2521 -1.4061
  177SLPC  H11Y20156   0.747   0.070   4.585  0.5474 -0.2275  1.3361
  177SLPC  C31220157   0.850  -0.031   4.431  0.0446 -0.0893 -0.4137
  177SLPC  H12X20158   0.792   0.042   4.370 -0.6894 -0.8247 -0.6092
  177SLPC  H12Y20159   0.786  -0.121   4.430 -0.3717  0.1844 -2.1348
  177SLPC  C31320160   0.992  -0.068   4.382 -0.1546 -0.1653 -0.0390
  177SLPC  H13X20161   1.033  -0.128   4.466  2.1407  0.3116 -0.7559
  177SLPC  H13Y20162   1.059   0.019   4.368  0.3003 -0.5770 -0.4131
  177SLPC  C31420163   0.997  -0.154   4.250 -0.3777 -0.1554 -0.7993
  177SLPC  H14X20164   0.945  -0.250   4.270 -2.6141  1.0531 -0.4897
  177SLPC  H14Y20165   1.100  -0.183   4.220 -0.5510 -2.5470  0.7268
  177SLPC  C31520166   0.936  -0.085   4.129  0.7891  0.2699 -0.1833
  177SLPC  H15X20167   0.829  -0.073   4.155  0.3779 -2.7720 -0.0340
  177SLPC  H15Y20168   0.940  -0.152   4.040 -0.4117  1.8642 -1.5001
  177SLPC  C31620169   0.990   0.059   4.092 -1.0313  0.4766 -0.1836
  177SLPC  H16X20170   1.100   0.055   4.101 -0.9029  1.5848 -1.0909
  177SLPC  H16Y20171   0.963   0.131   4.172 -0.3963  0.4891  0.0199
  177SLPC  C31720172   0.933   0.112   3.966  0.6841  0.2177  0.9253
  177SLPC  H17X20173   0.839   0.170   3.983 -0.6984 -1.6068 -0.1003
  177SLPC  H17Y20174   0.907   0.029   3.897  1.6266  1.7751 -1.4290
  177SLPC  C31820175   1.021   0.203   3.881  0.3793 -0.2696 -0.0789
  177SLPC  H18X20176   1.116   0.147   3.864  0.9626  0.3275  1.0728
  177SLPC  H18Y20177   1.047   0.296   3.936  2.9913 -0.5861 -0.6343
  177SLPC  H18Z20178   0.977   0.219   3.780 -1.9556 -0.0664  0.9224
  178SLPC     N20179   4.768   3.113   6.314 -0.3176 -0.2360  0.4059
  178SLPC   C1320180   4.729   3.166   6.180 -0.5226  0.3526 -0.1200
  178SLPC  H13A20181   4.793   3.251   6.159  0.6710 -0.5977 -0.4273
  178SLPC  H13B20182   4.747   3.091   6.105  1.7916 -1.1619  1.8074
  178SLPC  H13C20183   4.623   3.184   6.185 -0.2263  1.9747  3.6030
  178SLPC   C1420184   4.701   2.977   6.328 -0.1138 -0.1793 -0.5678
  178SLPC  H14A20185   4.734   2.929   6.419  0.7126  1.9365  0.3135
  178SLPC  H14B20186   4.594   2.989   6.335 -0.0557  0.3697 -0.5766
  178SLPC  H14C20187   4.709   2.907   6.246  0.0181  0.3216 -0.9860
  178SLPC   C1520188   4.715   3.203   6.419 -0.0755 -0.1798 -0.5042
  178SLPC  H15A20189   4.780   3.290   6.421 -1.1949  0.6864  1.0485
  178SLPC  H15B20190   4.613   3.239   6.414  0.7742  2.7149  0.6946
  178SLPC  H15C20191   4.728   3.165   6.519 -3.0295 -0.0466  0.0422
  178SLPC   C1220192   4.924   3.095   6.322 -0.2935 -0.2718  0.4753
  178SLPC  H12A20193   4.968   3.029   6.249  5.1801  1.5607  1.6077
  178SLPC  H12B20194   4.945   3.042   6.414  0.8991 -1.9972 -0.7207
  178SLPC   C1120195   5.001   3.228   6.317  0.2886  0.5740 -0.2718
  178SLPC  H11A20196   4.972   3.275   6.221 -1.3941  0.7937  0.3082
  178SLPC  H11B20197   5.102   3.187   6.297 -0.7452 -2.2409 -0.2606
  178SLPC     P20198   5.108   3.416   6.449  0.1584 -0.0457 -0.2652
  178SLPC   O1320199   5.064   3.510   6.555  0.2944  0.2016 -0.2831
  178SLPC   O1420200   5.232   3.332   6.469  0.4309  0.3106  0.6758
  178SLPC   O1220201   4.987   3.324   6.424 -0.3836 -0.0999 -0.8756
  178SLPC   O1120202   5.127   3.506   6.323 -0.3577  0.9902 -0.0693
  178SLPC    C120203   5.247   3.526   6.258 -0.8382 -0.0419  0.2555
  178SLPC    HA20204   5.256   3.633   6.230  1.2038  0.2450  1.7639
  178SLPC    HB20205   5.334   3.513   6.326 -2.7024 -0.5796  2.6599
  178SLPC    C220206   5.277   3.434   6.135 -0.4578 -0.2888  0.0458
  178SLPC    HS20207   5.366   3.480   6.087  1.3999 -0.5916  2.9446
  178SLPC   O2120208   5.157   3.410   6.052  0.2642  1.2588  0.6120
  178SLPC   C2120209   5.117   3.517   5.994 -0.3755 -0.5184  0.1433
  178SLPC   O2220210   5.177   3.627   5.997 -0.8899  0.3495  0.4294
  178SLPC   C2220211   4.984   3.512   5.910 -0.4281 -0.0710  0.2382
  178SLPC   H2R20212   4.932   3.431   5.966 -0.5328 -0.6849 -0.7289
  178SLPC   H2S20213   4.938   3.611   5.930  2.2829  1.5658 -1.1419
  178SLPC    C320214   5.348   3.299   6.184  0.2587  0.1814 -0.5082
  178SLPC    HX20215   5.270   3.241   6.239 -0.0638 -1.2403 -2.3623
  178SLPC    HY20216   5.421   3.333   6.260  0.3932 -0.2081 -0.4615
  178SLPC   O3120217   5.409   3.225   6.084 -0.2794 -0.0026 -0.0766
  178SLPC   C3120218   5.326   3.144   6.017  0.8329 -0.4326  0.0488
  178SLPC   O3220219   5.207   3.138   6.041 -0.0330  0.0564  1.0385
  178SLPC   C3220220   5.393   3.055   5.907  0.6174  0.0453  0.2952
  178SLPC   H2X20221   5.413   2.957   5.955 -0.1124 -1.9447 -3.1020
  178SLPC   H2Y20222   5.493   3.098   5.883 -0.0387  2.4979  1.6565
  178SLPC   C2320223   5.021   3.487   5.767  0.2524 -0.6281  0.4375
  178SLPC   H3R20224   5.037   3.381   5.740 -0.6838 -1.0213  1.3380
  178SLPC   H3S20225   5.109   3.548   5.737 -1.5553  2.9978  1.7822
  178SLPC   C2420226   4.903   3.535   5.682 -0.0828 -0.1854 -0.0480
  178SLPC   H4R20227   4.886   3.640   5.714 -0.4069 -0.0186 -0.7668
  178SLPC   H4S20228   4.811   3.479   5.708  0.0847  0.2129  1.5192
  178SLPC   C2520229   4.926   3.517   5.536 -0.2159 -0.0071  0.6893
  178SLPC   H5R20230   4.915   3.408   5.520  0.8271  0.1924 -1.9504
  178SLPC   H5S20231   5.020   3.565   5.500 -0.7088  1.4015  1.2026
  178SLPC   C2620232   4.809   3.576   5.456 -0.1201  0.1866  0.1923
  178SLPC   H6R20233   4.820   3.682   5.488 -0.1432  0.1767  0.2334
  178SLPC   H6S20234   4.716   3.536   5.502 -0.4865 -0.4553 -1.0489
  178SLPC   C2720235   4.834   3.569   5.304  0.8270  0.2351  0.2447
  178SLPC   H7R20236   4.826   3.461   5.282 -0.2813  0.1857  0.8163
  178SLPC   H7S20237   4.940   3.601   5.299 -0.0719  3.5464  0.0815
  178SLPC   C2820238   4.741   3.648   5.213 -0.5310  0.0006 -0.2303
  178SLPC   H8R20239   4.723   3.749   5.256 -1.4029  0.1222 -0.8515
  178SLPC   H8S20240   4.646   3.590   5.217 -1.0797  0.8891 -0.1495
  178SLPC   C2920241   4.777   3.649   5.063 -0.4251  0.1358  0.1638
  178SLPC   H9R20242   4.859   3.711   5.025  0.2906 -0.4530  0.7143
  178SLPC  C21020243   4.725   3.562   4.968 -0.1375 -0.3239  0.0497
  178SLPC  H10R20244   4.774   3.569   4.870 -0.4638 -1.2515 -0.1914
  178SLPC  C21120245   4.619   3.459   4.990  0.1084 -0.2757  0.6332
  178SLPC  H11R20246   4.534   3.495   5.052 -2.4177  1.4073 -3.4293
  178SLPC  H11S20247   4.660   3.369   5.041  0.0672  0.2424  1.6005
  178SLPC  C21220248   4.550   3.422   4.863  0.3899 -0.0140 -0.0068
  178SLPC  H12R20249   4.474   3.495   4.832  0.4103  0.8039  1.7321
  178SLPC  C21320250   4.562   3.307   4.799 -0.2269  0.0157  0.9171
  178SLPC  H13R20251   4.500   3.289   4.710 -0.4835 -4.0430  1.7338
  178SLPC  C21420252   4.652   3.189   4.831 -0.1038 -0.0684  0.4736
  178SLPC  H14R20253   4.619   3.130   4.919  0.6832  0.8846  1.4443
  178SLPC  H14S20254   4.756   3.217   4.860 -1.4425  3.7197  2.3809
  178SLPC  C21520255   4.667   3.108   4.703  0.0290  0.6191  0.3635
  178SLPC  H15R20256   4.739   3.028   4.730  0.2833  0.7243 -0.0067
  178SLPC  H15S20257   4.714   3.165   4.620 -0.9262  0.9788  0.0534
  178SLPC  C21620258   4.536   3.047   4.653  0.6960  0.0691  0.8665
  178SLPC  H16R20259   4.477   3.121   4.595  0.0992 -0.9741  0.1151
  178SLPC  H16S20260   4.471   3.030   4.742  0.5085  0.8609  0.8899
  178SLPC  C21720261   4.554   2.931   4.562 -0.2310 -0.0587 -0.4193
  178SLPC  H17R20262   4.455   2.890   4.534  0.5067 -1.9105 -0.4643
  178SLPC  H17S20263   4.614   2.857   4.620 -0.0845 -0.3060 -0.8835
  178SLPC  C21820264   4.637   2.957   4.435 -0.1997  0.2360 -0.2975
  178SLPC  H18R20265   4.741   2.979   4.468 -0.2843  1.8261 -0.9944
  178SLPC  H18S20266   4.604   3.041   4.371  3.7569  2.3608  0.1581
  178SLPC  H18T20267   4.644   2.859   4.383  0.8811 -1.6220  3.0063
  178SLPC   C3320268   5.307   3.030   5.785  0.1071  0.6914 -0.1018
  178SLPC   H3X20269   5.203   3.001   5.810 -0.1670 -0.0375 -1.9785
  178SLPC   H3Y20270   5.347   2.938   5.737  1.9258  1.0439  0.6515
  178SLPC   C3420271   5.314   3.154   5.702 -0.2529 -0.5510 -0.4095
  178SLPC   H4X20272   5.417   3.190   5.677 -0.3352 -0.7617 -1.0750
  178SLPC   H4Y20273   5.245   3.234   5.735  0.5911 -0.0650  0.2193
  178SLPC   C3520274   5.261   3.117   5.561 -0.5859 -0.4301 -0.6047
  178SLPC   H5X20275   5.315   3.023   5.539 -1.3909 -1.2177  0.6575
  178SLPC   H5Y20276   5.300   3.192   5.489  2.4932 -0.4466  0.8714
  178SLPC   C3620277   5.107   3.096   5.542 -0.3061  0.1210  0.1363
  178SLPC   H6X20278   5.055   3.187   5.579  0.6984  0.2283  1.3553
  178SLPC   H6Y20279   5.073   3.009   5.601 -0.3546  0.2123  0.2426
  178SLPC   C3720280   5.065   3.077   5.395  0.0471  0.0985 -0.4646
  178SLPC   H7X20281   5.114   2.987   5.351 -4.0469 -1.7236 -1.8416
  178SLPC   H7Y20282   5.091   3.167   5.336 -0.7228  1.4957  1.2434
  178SLPC   C3820283   4.920   3.056   5.378  0.3541 -0.6671 -0.1825
  178SLPC   H8X20284   4.860   3.138   5.421 -1.6426 -2.6045  0.9715
  178SLPC   H8Y20285   4.884   2.964   5.429  0.8794 -0.8306 -0.0941
  178SLPC   C3920286   4.883   3.048   5.233 -0.5070 -0.3550  0.3905
  178SLPC   H9X20287   4.909   3.143   5.181  1.1655 -0.6172  0.6814
  178SLPC   H9Y20288   4.773   3.032   5.229 -0.4051 -0.8427 -0.9654
  178SLPC  C31020289   4.947   2.936   5.151 -0.5264  0.4505  0.0032
  178SLPC  H10X20290   4.909   2.838   5.187 -2.6620  1.7826  1.5979
  178SLPC  H10Y20291   5.057   2.939   5.165 -0.7247 -1.2548  2.6593
  178SLPC  C31120292   4.916   2.953   5.002  0.7905  0.2216 -0.8295
  178SLPC  H11X20293   4.934   3.059   4.974 -0.8576  0.8882  0.4900
  178SLPC  H11Y20294   4.810   2.932   4.978  0.6976  0.1526 -0.3656
  178SLPC  C31220295   5.001   2.854   4.926  0.5797 -0.6364 -0.5754
  178SLPC  H12X20296   4.986   2.759   4.982 -3.2290  1.6210  2.8171
  178SLPC  H12Y20297   5.108   2.881   4.935  0.2880  0.7238 -0.9870
  178SLPC  C31320298   4.958   2.810   4.789  0.5167  0.1594  0.3173
  178SLPC  H13X20299   4.937   2.901   4.729  0.7724 -0.2739 -0.4460
  178SLPC  H13Y20300   4.859   2.762   4.803  0.6947  0.0048  1.0698
  178SLPC  C31420301   5.061   2.723   4.708 -0.0010  0.4104  0.2239
  178SLPC  H14X20302   5.106   2.645   4.773  0.8602 -1.1836 -2.1527
  178SLPC  H14Y20303   5.143   2.791   4.677  1.1305 -1.1416 -0.3569
  178SLPC  C31520304   5.002   2.643   4.584  0.0599  0.0597 -0.6084
  178SLPC  H15X20305   4.956   2.552   4.628  1.3300  0.0689  0.8138
  178SLPC  H15Y20306   5.095   2.616   4.530  1.7015  2.9054  0.6342
  178SLPC  C31620307   4.910   2.731   4.502 -0.5626 -0.1474  0.1691
  178SLPC  H16X20308   4.946   2.836   4.511 -0.1595 -0.3666  1.2921
  178SLPC  H16Y20309   4.806   2.725   4.540 -0.8877  0.0971 -0.6733
  178SLPC  C31720310   4.920   2.692   4.354 -0.7280  0.9386 -0.4490
  178SLPC  H17X20311   5.030   2.694   4.340 -0.3767 -3.5318  0.0318
  178SLPC  H17Y20312   4.869   2.766   4.289 -0.6255  2.2321  0.9144
  178SLPC  C31820313   4.874   2.548   4.330  0.1132 -0.6558  0.2688
  178SLPC  H18X20314   4.782   2.526   4.388  0.0764 -0.9363  0.1036
  178SLPC  H18Y20315   4.959   2.481   4.356  1.1376 -0.6466 -2.7223
  178SLPC  H18Z20316   4.841   2.534   4.225 -1.2379  1.9147  0.2839
  179SLPC     N20317   0.272   0.334   1.960 -0.7317  0.2808 -0.4174
  179SLPC   C1320318   0.409   0.368   1.907 -0.2009 -0.2126  0.0324
  179SLPC  H13A20319   0.415   0.349   1.801  2.6441 -0.7935  0.2215
  179SLPC  H13B20320   0.441   0.469   1.926  0.1411 -0.2737 -0.2191
  179SLPC  H13C20321   0.487   0.304   1.948 -1.5623 -1.2053  1.1830
  179SLPC   C1420322   0.174   0.414   1.891  0.7170 -0.4489  0.0382
  179SLPC  H14A20323   0.212   0.513   1.874 -0.1722  0.3380  2.2697
  179SLPC  H14B20324   0.146   0.389   1.790 -0.5112  0.9829 -0.0077
  179SLPC  H14C20325   0.080   0.417   1.944  0.2212 -1.2498 -0.7742
  179SLPC   C1520326   0.268   0.369   2.110  0.3385  0.4962 -0.3905
  179SLPC  H15A20327   0.245   0.474   2.120  0.5503  0.3817  1.9242
  179SLPC  H15B20328   0.195   0.300   2.150 -0.1742  0.9446 -0.5386
  179SLPC  H15C20329   0.359   0.343   2.161 -0.7110  0.5430  1.5964
  179SLPC   C1220330   0.245   0.177   1.942 -0.3717  0.0118  0.5008
  179SLPC  H12A20331   0.317   0.115   1.992  2.7176  1.3948 -1.9233
  179SLPC  H12B20332   0.279   0.153   1.842 -1.1732 -1.3208  0.5321
  179SLPC   C1120333   0.095   0.135   1.962  0.3654  0.4178 -0.2061
  179SLPC  H11A20334   0.101   0.026   1.942  2.0978  0.4407 -0.0264
  179SLPC  H11B20335   0.034   0.185   1.883  0.2235  0.4822 -0.0566
  179SLPC     P20336   0.056   0.078   2.225 -0.0957  0.1608 -0.1916
  179SLPC   O1320337   0.085  -0.068   2.194 -0.0940  0.2424  0.1140
  179SLPC   O1420338   0.154   0.144   2.311  0.1823 -0.1573 -0.0612
  179SLPC   O1220339   0.034   0.154   2.088 -0.4283 -0.3788  0.2783
  179SLPC   O1120340  -0.088   0.079   2.292 -0.3304  0.6041  0.3468
  179SLPC    C120341  -0.104   0.043   2.430  0.8225  0.4296 -0.5491
  179SLPC    HA20342  -0.127  -0.065   2.434  0.3571  0.5529  3.3170
  179SLPC    HB20343  -0.013   0.044   2.494 -0.9050 -1.0882  2.1340
  179SLPC    C220344  -0.235   0.116   2.487  0.0152 -0.4015 -0.5623
  179SLPC    HS20345  -0.209   0.221   2.464  2.3211 -1.0229 -1.0293
  179SLPC   O2120346  -0.261   0.092   2.628  0.6394 -0.3047 -0.0605
  179SLPC   C2120347  -0.270   0.191   2.711 -0.6316  0.7759 -0.1397
  179SLPC   O2220348  -0.277   0.310   2.689  0.3973  0.3259  0.5419
  179SLPC   C2220349  -0.284   0.129   2.852 -0.0259 -0.1912 -0.0764
  179SLPC   H2R20350  -0.373   0.063   2.841 -0.5281  0.7825 -2.6696
  179SLPC   H2S20351  -0.202   0.061   2.884 -0.1011  0.8230  2.4330
  179SLPC    C320352  -0.370   0.083   2.401 -0.2085  0.7661 -0.2429
  179SLPC    HX20353  -0.405  -0.021   2.415 -1.3058  1.1274 -0.2155
  179SLPC    HY20354  -0.344   0.101   2.294  1.5947  2.3577  0.4048
  179SLPC   O3120355  -0.478   0.165   2.441  0.2064 -0.0694 -1.1749
  179SLPC   C3120356  -0.495   0.284   2.377 -0.2066  0.2210  0.3212
  179SLPC   O3220357  -0.421   0.339   2.296 -0.0877  0.0322  0.5129
  179SLPC   C3220358  -0.637   0.335   2.417 -0.5323  0.1856 -0.2609
  179SLPC   H2X20359  -0.659   0.256   2.491  3.1639 -1.4173 -0.6412
  179SLPC   H2Y20360  -0.703   0.330   2.328  0.7316 -2.6673 -1.1605
  179SLPC   C2320361  -0.286   0.233   2.965  0.0690  0.2896  0.0786
  179SLPC   H3R20362  -0.378   0.295   2.954  0.4118  0.9108  0.6037
  179SLPC   H3S20363  -0.193   0.293   2.974 -0.5545  1.3051 -0.0398
  179SLPC   C2420364  -0.305   0.167   3.100 -0.0874  0.2692  0.2723
  179SLPC   H4R20365  -0.233   0.082   3.108 -0.6109 -0.1711  0.3683
  179SLPC   H4S20366  -0.403   0.115   3.102 -0.6235  1.2461  2.3553
  179SLPC   C2520367  -0.293   0.260   3.220 -0.4327  0.0649 -0.0929
  179SLPC   H5R20368  -0.365   0.344   3.207  0.7563  0.9101 -1.4731
  179SLPC   H5S20369  -0.190   0.302   3.215 -1.2543  2.2186  0.0946
  179SLPC   C2620370  -0.325   0.191   3.360 -0.6613  0.2888  0.7251
  179SLPC   H6R20371  -0.245   0.123   3.394  0.6041  1.6617  0.5913
  179SLPC   H6S20372  -0.422   0.139   3.342 -0.7626  1.2869 -2.1970
  179SLPC   C2720373  -0.344   0.289   3.478  0.0153 -0.4100  0.6438
  179SLPC   H7R20374  -0.423   0.361   3.449  1.0472  1.0960  1.4144
  179SLPC   H7S20375  -0.257   0.358   3.477 -0.5877  0.3594 -0.4404
  179SLPC   C2820376  -0.348   0.229   3.621 -0.2835 -0.3027  0.1768
  179SLPC   H8R20377  -0.256   0.166   3.618  1.2373  1.8460 -1.1875
  179SLPC   H8S20378  -0.438   0.165   3.632 -0.8441  0.2143 -1.1926
  179SLPC   C2920379  -0.344   0.336   3.728 -0.2125 -0.0860  0.7936
  179SLPC   H9R20380  -0.309   0.433   3.691 -0.2722 -0.1880  0.4635
  179SLPC  C21020381  -0.374   0.315   3.862 -0.1103  0.5604  0.1305
  179SLPC  H10R20382  -0.377   0.400   3.932 -0.1415  0.2505  0.5088
  179SLPC  C21120383  -0.427   0.196   3.932 -0.2653  0.2783 -0.1153
  179SLPC  H11R20384  -0.422   0.095   3.886 -0.0656 -0.0288  0.5588
  179SLPC  H11S20385  -0.537   0.212   3.934 -0.1897  0.8663 -0.3782
  179SLPC  C21220386  -0.363   0.171   4.069  0.8854  0.1937  0.7476
  179SLPC  H12R20387  -0.264   0.216   4.082  1.2779 -0.2577 -0.5621
  179SLPC  C21320388  -0.426   0.101   4.168 -0.6850 -0.2455 -1.2090
  179SLPC  H13R20389  -0.370   0.091   4.262 -0.3075 -0.1935 -1.4231
  179SLPC  C21420390  -0.554   0.018   4.160  0.2196  0.1844  0.7962
  179SLPC  H14R20391  -0.582   0.002   4.053  0.0154 -0.6211  0.9659
  179SLPC  H14S20392  -0.640   0.063   4.214 -0.9510 -0.5353 -0.4213
  179SLPC  C21520393  -0.537  -0.128   4.217 -0.5413  0.4562  0.0160
  179SLPC  H15R20394  -0.505  -0.117   4.323 -1.0780  1.6414  0.0699
  179SLPC  H15S20395  -0.449  -0.181   4.175  0.5714  1.8258  0.5133
  179SLPC  C21620396  -0.663  -0.218   4.201  0.3426 -0.3960 -0.0117
  179SLPC  H16R20397  -0.633  -0.325   4.203 -1.0738 -0.8112  0.7307
  179SLPC  H16S20398  -0.704  -0.203   4.098  1.5433  0.6964 -0.3539
  179SLPC  C21720399  -0.780  -0.203   4.301  0.1192  0.3515  0.0898
  179SLPC  H17R20400  -0.830  -0.105   4.284 -0.2864 -0.0478 -1.1243
  179SLPC  H17S20401  -0.735  -0.211   4.402  1.4466  0.2693 -0.4950
  179SLPC  C21820402  -0.877  -0.314   4.291  0.6644  0.4291 -0.2498
  179SLPC  H18R20403  -0.848  -0.406   4.347 -1.2292 -0.0457  0.0164
  179SLPC  H18S20404  -0.901  -0.344   4.186  2.5298  2.0956 -1.2157
  179SLPC  H18T20405  -0.967  -0.280   4.346 -0.7023 -2.7553 -0.2587
  179SLPC   C3320406  -0.615   0.472   2.474  0.2538  0.1338  0.1321
  179SLPC   H3X20407  -0.707   0.530   2.450  0.1660  0.7666  1.8290
  179SLPC   H3Y20408  -0.548   0.537   2.415 -2.8352  1.6580 -1.9707
  179SLPC   C3420409  -0.588   0.488   2.633  0.1795  0.4843  0.4816
  179SLPC   H4X20410  -0.494   0.431   2.650 -1.1751 -2.2013 -0.5180
  179SLPC   H4Y20411  -0.675   0.433   2.676  0.3908 -0.5819 -0.3969
  179SLPC   C3520412  -0.568   0.625   2.701 -0.3798  0.4082  0.7549
  179SLPC   H5X20413  -0.567   0.595   2.808 -2.4001 -0.0071  0.6972
  179SLPC   H5Y20414  -0.469   0.670   2.678 -0.3922 -0.0745 -0.2582
  179SLPC   C3620415  -0.677   0.724   2.652  0.7064 -0.4253 -0.7990
  179SLPC   H6X20416  -0.778   0.678   2.661 -0.2696  1.6815 -0.2082
  179SLPC   H6Y20417  -0.679   0.740   2.542  1.9410 -0.0901 -0.7831
  179SLPC   C3720418  -0.683   0.858   2.725  0.0112 -0.6392  0.1318
  179SLPC   H7X20419  -0.763   0.919   2.679  1.1897 -0.7426 -2.2105
  179SLPC   H7Y20420  -0.587   0.910   2.709 -1.7295  3.6415  2.0420
  179SLPC   C3820421  -0.707   0.847   2.872 -0.1168 -0.4771 -0.4445
  179SLPC   H8X20422  -0.634   0.773   2.911 -1.1239 -0.5789  1.3263
  179SLPC   H8Y20423  -0.807   0.807   2.898  0.8467 -2.9079 -0.2052
  179SLPC   C3920424  -0.667   0.971   2.955 -0.2978 -0.4164 -0.6587
  179SLPC   H9X20425  -0.728   1.058   2.925  1.1322  1.4116  1.4340
  179SLPC   H9Y20426  -0.562   0.993   2.923 -0.0137 -1.2170 -0.3163
  179SLPC  C31020427  -0.682   0.956   3.111 -0.3699 -0.2815 -0.2526
  179SLPC  H10X20428  -0.655   0.855   3.146  0.8408 -0.1333 -0.7138
  179SLPC  H10Y20429  -0.791   0.960   3.131 -0.1916 -0.5813  0.8783
  179SLPC  C31120430  -0.609   1.073   3.182 -0.1002 -0.6043  0.5869
  179SLPC  H11X20431  -0.607   1.157   3.110  1.8590 -0.6148  0.5848
  179SLPC  H11Y20432  -0.500   1.058   3.196  0.0443  0.5114  0.6937
  179SLPC  C31220433  -0.672   1.110   3.318  0.0313 -0.2113 -0.0070
  179SLPC  H12X20434  -0.783   1.116   3.304  0.1833  0.1465 -1.1955
  179SLPC  H12Y20435  -0.634   1.211   3.343 -1.0408  0.0115  0.8117
  179SLPC  C31320436  -0.642   1.010   3.427  0.7659 -0.1442 -0.2136
  179SLPC  H13X20437  -0.562   0.941   3.392  1.1834  1.1584 -1.9464
  179SLPC  H13Y20438  -0.738   0.957   3.443 -0.2379  1.8499  0.7527
  179SLPC  C31420439  -0.588   1.080   3.554 -0.2412 -0.6394  0.5735
  179SLPC  H14X20440  -0.655   1.162   3.589 -0.4911 -0.0058 -1.2961
  179SLPC  H14Y20441  -0.492   1.130   3.531  0.5196 -1.4218  1.8953
  179SLPC  C31520442  -0.582   0.991   3.678  0.4916  0.1734 -0.6726
  179SLPC  H15X20443  -0.527   0.899   3.646 -2.1583 -1.2843 -1.3917
  179SLPC  H15Y20444  -0.687   0.962   3.702  0.0573  1.5848 -0.8000
  179SLPC  C31620445  -0.515   1.066   3.796  0.0574 -0.4037 -0.9771
  179SLPC  H16X20446  -0.410   1.094   3.773  0.6629  0.4532  2.3311
  179SLPC  H16Y20447  -0.514   0.997   3.883 -3.4957  2.3343  1.5175
  179SLPC  C31720448  -0.585   1.192   3.845 -0.1997 -0.4955 -0.6211
  179SLPC  H17X20449  -0.689   1.173   3.880  0.0356  0.5176  0.7097
  179SLPC  H17Y20450  -0.603   1.265   3.764 -2.2917 -0.6826 -0.3856
  179SLPC  C31820451  -0.499   1.257   3.956  0.3548 -0.2343 -0.4785
  179SLPC  H18X20452  -0.514   1.199   4.050  0.7003  1.3462  0.6011
  179SLPC  H18Y20453  -0.534   1.362   3.971 -1.1524 -0.5100 -1.8109
  179SLPC  H18Z20454  -0.391   1.254   3.930 -0.4013  0.9852 -4.4253
  180SLPC     N20455   4.081   4.213   1.943 -0.2032 -0.4684  0.0602
  180SLPC   C1320456   4.220   4.215   2.000 -0.0068 -0.0316  0.3791
  180SLPC  H13A20457   4.290   4.191   1.921  2.4327 -0.5917  2.5890
  180SLPC  H13B20458   4.241   4.320   2.016  1.4216  0.4704 -3.5819
  180SLPC  H13C20459   4.233   4.154   2.087 -0.1037 -1.8993 -0.8542
  180SLPC   C1420460   4.057   4.073   1.904 -1.1267  0.2100  0.3787
  180SLPC  H14A20461   4.074   4.008   1.989  1.5632 -0.4203 -0.5318
  180SLPC  H14B20462   3.954   4.057   1.878 -0.7719  1.6855 -2.2981
  180SLPC  H14C20463   4.121   4.030   1.829 -3.0371 -2.8897  0.3577
  180SLPC   C1520464   4.081   4.310   1.831 -0.5721  0.3114  0.0482
  180SLPC  H15A20465   3.998   4.298   1.764 -0.2976  0.6006 -0.3523
  180SLPC  H15B20466   4.071   4.407   1.879 -0.3267 -0.0379  0.8329
  180SLPC  H15C20467   4.165   4.299   1.764  0.6383  0.5897  1.4523
  180SLPC   C1220468   3.982   4.262   2.049  0.0425 -0.3435 -0.0015
  180SLPC  H12A20469   3.969   4.177   2.114  0.7901 -1.0456 -0.7388
  180SLPC  H12B20470   3.890   4.271   1.994  0.8616  1.2025 -1.1860
  180SLPC   C1120471   4.010   4.397   2.126  0.5116  0.1773  0.0107
  180SLPC  H11A20472   4.099   4.375   2.188  0.9644 -1.0509 -1.0237
  180SLPC  H11B20473   3.927   4.409   2.199 -0.2417 -2.0280 -0.3993
  180SLPC     P20474   4.142   4.615   2.064  0.2231 -0.1089 -0.1235
  180SLPC   O1320475   4.270   4.545   2.080 -0.1404 -0.3220 -0.1328
  180SLPC   O1420476   4.136   4.734   1.967  0.1761  0.5975  0.1009
  180SLPC   O1220477   4.029   4.509   2.041  0.5456  0.3235  0.5431
  180SLPC   O1120478   4.107   4.676   2.204  0.1304 -0.4470 -0.1331
  180SLPC    C120479   3.972   4.701   2.235  0.3401 -0.0490 -0.5213
  180SLPC    HA20480   3.899   4.656   2.164 -0.3788  0.4063 -0.0838
  180SLPC    HB20481   3.946   4.654   2.332  0.9757  0.1930 -0.2294
  180SLPC    C220482   3.933   4.857   2.245 -0.0327 -0.6910 -0.6494
  180SLPC    HS20483   3.929   4.893   2.140  0.0065 -1.1386 -0.8036
  180SLPC   O2120484   4.035   4.926   2.325  0.1887  0.0554 -0.1780
  180SLPC   C2120485   4.022   5.062   2.315  0.5451 -0.1793  0.0803
  180SLPC   O2220486   3.954   5.119   2.234  0.4236 -0.0759  0.6393
  180SLPC   C2220487   4.114   5.132   2.424 -0.1678 -0.4092 -0.4454
  180SLPC   H2R20488   4.085   5.083   2.519 -2.2017  1.5434  0.0217
  180SLPC   H2S20489   4.219   5.115   2.391  0.0902 -0.2299  0.2800
  180SLPC    C320490   3.804   4.881   2.335 -0.0786  0.4595  0.9718
  180SLPC    HX20491   3.723   4.818   2.291  1.0377 -1.1555  1.1224
  180SLPC    HY20492   3.768   4.986   2.332 -0.8308  0.2285 -2.4573
  180SLPC   O3120493   3.829   4.815   2.459 -0.0312  1.0593  0.6728
  180SLPC   C3120494   3.826   4.887   2.567 -0.3836 -0.0328 -0.2268
  180SLPC   O3220495   3.810   5.006   2.579  0.4839  0.1321  0.2136
  180SLPC   C3220496   3.865   4.796   2.679  0.4062 -0.5359 -0.5483
  180SLPC   H2X20497   3.964   4.749   2.659  0.5744 -0.9323  1.1018
  180SLPC   H2Y20498   3.794   4.710   2.683 -1.5791  0.9996 -1.3709
  180SLPC   C2320499   4.092   5.287   2.449  0.0333 -0.0804 -0.3655
  180SLPC   H3R20500   3.987   5.319   2.435  0.4394  0.3059 -3.1119
  180SLPC   H3S20501   4.156   5.339   2.374 -0.1154 -0.8243 -1.0180
  180SLPC   C2420502   4.141   5.342   2.584 -0.0933 -0.7573 -0.4020
  180SLPC   H4R20503   4.119   5.451   2.590 -0.8702 -0.9249 -0.1173
  180SLPC   H4S20504   4.250   5.322   2.594 -0.1023 -0.3819  0.5757
  180SLPC   C2520505   4.063   5.294   2.700 -0.0957  0.4113  0.0295
  180SLPC   H5R20506   4.110   5.196   2.725  1.2850  0.6761 -1.3676
  180SLPC   H5S20507   3.957   5.294   2.667 -0.1511  0.1171  0.2060
  180SLPC   C2620508   4.070   5.374   2.825  0.3748 -0.0524 -0.2156
  180SLPC   H6R20509   4.062   5.484   2.806 -0.8353  0.0672  0.8495
  180SLPC   H6S20510   4.168   5.354   2.872  1.4331  0.8843 -1.9003
  180SLPC   C2720511   3.960   5.337   2.919  0.0511 -0.2078 -1.0442
  180SLPC   H7R20512   3.860   5.345   2.871  0.2506  0.8829 -1.3013
  180SLPC   H7S20513   3.950   5.404   3.007  1.8473  1.2820 -1.9058
  180SLPC   C2820514   3.975   5.201   2.986  0.3068  0.2422  0.6837
  180SLPC   H8R20515   4.077   5.196   3.030  1.0164 -1.0489 -0.9831
  180SLPC   H8S20516   3.969   5.118   2.912  1.4816  1.5367 -0.9445
  180SLPC   C2920517   3.867   5.164   3.084 -0.3009  0.0738 -0.0588
  180SLPC   H9R20518   3.771   5.132   3.041 -1.2966  2.7387 -0.0189
  180SLPC  C21020519   3.863   5.179   3.218  0.1266 -0.0667  0.0925
  180SLPC  H10R20520   3.789   5.125   3.280  0.0926  0.6553  0.6962
  180SLPC  C21120521   3.967   5.238   3.310  0.5347  0.5397 -0.4634
  180SLPC  H11R20522   4.035   5.311   3.262 -0.8140  2.1632  0.0044
  180SLPC  H11S20523   4.028   5.152   3.346 -2.3008 -1.5469 -0.2545
  180SLPC  C21220524   3.906   5.307   3.425 -0.1036 -0.0170 -0.6598
  180SLPC  H12R20525   3.871   5.411   3.415 -1.3627 -0.0685  2.3346
  180SLPC  C21320526   3.879   5.251   3.550  0.0688  0.0569  0.8412
  180SLPC  H13R20527   3.840   5.314   3.631  0.6936 -0.6138  1.6763
  180SLPC  C21420528   3.910   5.111   3.600  0.2576 -0.4044 -0.2465
  180SLPC  H14R20529   3.974   5.051   3.532 -2.1058 -2.8222 -0.4895
  180SLPC  H14S20530   3.814   5.058   3.615 -1.2084  1.6175 -1.9606
  180SLPC  C21520531   3.983   5.119   3.733 -0.6436 -0.2592 -0.0256
  180SLPC  H15R20532   4.066   5.192   3.730 -1.4715  0.6784 -2.3957
  180SLPC  H15S20533   4.020   5.014   3.740 -0.0941 -0.1380 -0.9573
  180SLPC  C21620534   3.890   5.144   3.854 -0.2477  0.2474 -0.6378
  180SLPC  H16R20535   3.805   5.073   3.846 -0.1623  0.2338 -1.4773
  180SLPC  H16S20536   3.841   5.243   3.847  0.8431  0.9849  1.4433
  180SLPC  C21720537   3.959   5.124   3.990 -0.1860  0.3097  0.0719
  180SLPC  H17R20538   4.065   5.156   3.981 -0.0049  0.2991  1.8090
  180SLPC  H17S20539   3.956   5.016   4.015 -2.3392  0.6615  1.6340
  180SLPC  C21820540   3.902   5.196   4.110  0.5331 -0.4761  0.8175
  180SLPC  H18R20541   3.920   5.144   4.206 -0.1222 -3.5313 -0.5969
  180SLPC  H18S20542   3.793   5.201   4.091  0.6756 -3.3785 -1.3430
  180SLPC  H18T20543   3.948   5.298   4.112  1.0656 -0.7201  1.1568
  180SLPC   C3320544   3.875   4.863   2.821  0.0395 -0.6499 -0.0017
  180SLPC   H3X20545   3.788   4.929   2.842  0.3604 -0.2723  0.1592
  180SLPC   H3Y20546   3.972   4.917   2.828  1.1505 -2.5522  0.0329
  180SLPC   C3420547   3.895   4.756   2.933  0.0234 -0.8414 -0.0466
  180SLPC   H4X20548   3.934   4.666   2.880 -1.0070 -0.1191 -2.1441
  180SLPC   H4Y20549   3.792   4.743   2.972 -0.2712  2.0374  0.3372
  180SLPC   C3520550   3.984   4.799   3.044 -0.1712  0.5297 -0.5876
  180SLPC   H5X20551   3.959   4.905   3.065  0.3597  0.5954 -0.2858
  180SLPC   H5Y20552   4.092   4.791   3.020  0.0431 -1.6240  0.7322
  180SLPC   C3620553   3.967   4.716   3.172 -0.0280  0.2642  0.5784
  180SLPC   H6X20554   4.024   4.623   3.152  0.8698  0.8577  0.3355
  180SLPC   H6Y20555   3.859   4.697   3.191 -0.8004  2.0782 -1.4889
  180SLPC   C3720556   4.018   4.788   3.297 -0.2092 -0.6970  0.1134
  180SLPC   H7X20557   3.977   4.890   3.313 -1.6676 -1.2772  0.2335
  180SLPC   H7Y20558   4.128   4.800   3.288 -0.0460 -0.0546  2.4223
  180SLPC   C3820559   3.984   4.695   3.418 -0.4434 -0.1040  0.5259
  180SLPC   H8X20560   3.998   4.587   3.397  2.7362  0.4118 -0.4778
  180SLPC   H8Y20561   3.873   4.702   3.424 -0.6537 -1.4457 -1.2159
  180SLPC   C3920562   4.057   4.741   3.542  0.1608 -0.3019  0.3213
  180SLPC   H9X20563   4.015   4.838   3.576 -1.3413 -0.2035 -1.6323
  180SLPC   H9Y20564   4.164   4.756   3.517  0.7451 -1.3101  2.0550
  180SLPC  C31020565   4.031   4.649   3.669 -0.7191 -0.2615  0.8044
  180SLPC  H10X20566   4.097   4.559   3.669 -0.2765  0.0092 -1.5277
  180SLPC  H10Y20567   3.933   4.603   3.643 -0.8510 -0.2669  1.2962
  180SLPC  C31120568   4.032   4.715   3.804 -0.1500  0.6681 -0.0240
  180SLPC  H11X20569   3.980   4.643   3.871  0.3698 -1.1978 -1.5367
  180SLPC  H11Y20570   3.995   4.819   3.813  1.2474  1.1094  0.8960
  180SLPC  C31220571   4.173   4.722   3.860  0.0500 -0.8823 -0.6536
  180SLPC  H12X20572   4.247   4.722   3.776 -1.3205  0.4607 -1.9126
  180SLPC  H12Y20573   4.196   4.632   3.922 -0.9685 -0.7383 -0.0559
  180SLPC  C31320574   4.206   4.841   3.943  0.2248  0.2467 -0.4079
  180SLPC  H13X20575   4.130   4.850   4.023  1.7800 -1.4072  1.3774
  180SLPC  H13Y20576   4.213   4.931   3.877 -0.8485 -0.4160 -1.4541
  180SLPC  C31420577   4.343   4.815   4.020 -0.5102 -0.1964  0.2157
  180SLPC  H14X20578   4.426   4.798   3.948 -0.3162  0.5908  0.2545
  180SLPC  H14Y20579   4.333   4.715   4.068  0.5756  0.3003  1.5306
  180SLPC  C31520580   4.390   4.913   4.126 -0.0096 -0.7254  0.8244
  180SLPC  H15X20581   4.429   4.999   4.067  0.3482 -0.5920  1.2471
  180SLPC  H15Y20582   4.476   4.883   4.189  0.7409  0.6504  0.5000
  180SLPC  C31620583   4.286   4.968   4.224 -0.0020  0.3342 -0.1315
  180SLPC  H16X20584   4.199   5.007   4.166  0.8567 -0.4891 -2.0978
  180SLPC  H16Y20585   4.335   5.049   4.281  0.6423 -1.4313  1.9716
  180SLPC  C31720586   4.252   4.861   4.329  0.6256 -0.2354 -0.3970
  180SLPC  H17X20587   4.308   4.871   4.424 -2.1834  0.9070  1.2662
  180SLPC  H17Y20588   4.281   4.763   4.286  0.3157 -0.9619  1.0126
  180SLPC  C31820589   4.103   4.850   4.362  0.7203  0.0067  0.1264
  180SLPC  H18X20590   4.036   4.821   4.278  0.3733  0.1793  0.3411
  180SLPC  H18Y20591   4.057   4.943   4.403  2.3650  0.8676  0.1107
  180SLPC  H18Z20592   4.081   4.777   4.442 -0.3576  0.9514  0.7312
  181SLPC     N20593   3.064   5.551   1.729 -1.2513 -0.9066  0.3397
  181SLPC   C1320594   2.956   5.638   1.791 -0.1023 -0.1776  0.3382
  181SLPC  H13A20595   2.943   5.714   1.716  0.2045 -1.3673 -0.9679
  181SLPC  H13B20596   2.860   5.589   1.797  0.1017 -0.5234  0.8387
  181SLPC  H13C20597   2.986   5.677   1.888 -0.8155 -2.0481  1.3602
  181SLPC   C1420598   3.018   5.519   1.590 -0.1822  0.9944 -0.3836
  181SLPC  H14A20599   3.086   5.446   1.549  0.7256  0.2944  2.1674
  181SLPC  H14B20600   2.918   5.480   1.602  0.7637 -1.1757  1.1745
  181SLPC  H14C20601   3.021   5.594   1.513 -0.0484  0.4634 -0.8977
  181SLPC   C1520602   3.070   5.443   1.828 -0.5468 -0.7079  0.8842
  181SLPC  H15A20603   3.140   5.477   1.903 -1.9444  3.1671  0.6893
  181SLPC  H15B20604   2.974   5.412   1.866 -0.7372 -2.1706 -0.6612
  181SLPC  H15C20605   3.103   5.352   1.780  1.3564  0.9421 -1.1859
  181SLPC   C1220606   3.193   5.627   1.724 -0.1098  0.4666  0.0902
  181SLPC  H12A20607   3.186   5.731   1.698  0.2498  0.6865  0.8618
  181SLPC  H12B20608   3.258   5.589   1.646  0.2916  0.8897  0.2183
  181SLPC   C1120609   3.289   5.630   1.849 -0.2044  0.2148  0.1264
  181SLPC  H11A20610   3.222   5.670   1.928 -0.2795 -0.2716  0.3136
  181SLPC  H11B20611   3.368   5.707   1.836  1.5082 -1.5144 -0.2035
  181SLPC     P20612   3.479   5.461   1.821  0.1359  0.6795  0.1434
  181SLPC   O1320613   3.457   5.446   1.674  0.5073  0.0578  0.6844
  181SLPC   O1420614   3.590   5.549   1.852 -0.2438  0.1121 -0.4451
  181SLPC   O1220615   3.349   5.509   1.894  0.4302  0.0805 -1.0532
  181SLPC   O1120616   3.524   5.315   1.868 -0.6177 -0.2569  0.8361
  181SLPC    C120617   3.450   5.233   1.956 -0.4873  0.5274  0.0051
  181SLPC    HA20618   3.346   5.231   1.919 -0.0133  2.0260 -1.5722
  181SLPC    HB20619   3.482   5.127   1.945 -2.0341 -0.1359  1.4380
  181SLPC    C220620   3.470   5.246   2.115 -0.3354 -0.5140  0.0779
  181SLPC    HS20621   3.416   5.154   2.149 -1.6341 -0.1298 -0.8730
  181SLPC   O2120622   3.414   5.364   2.169 -1.0543  0.3375  0.4666
  181SLPC   C2120623   3.288   5.362   2.198 -0.4400  0.0708 -0.6379
  181SLPC   O2220624   3.204   5.274   2.182 -0.0593 -0.4968  0.1258
  181SLPC   C2220625   3.251   5.504   2.243  0.7001 -0.0324 -0.2603
  181SLPC   H2R20626   3.292   5.513   2.346  1.8091 -3.0618 -0.3495
  181SLPC   H2S20627   3.306   5.573   2.175 -0.8534  0.7219 -0.8008
  181SLPC    C320628   3.614   5.237   2.155 -0.3186  0.2624  0.1261
  181SLPC    HX20629   3.662   5.326   2.108 -1.4682  0.3308 -0.9713
  181SLPC    HY20630   3.643   5.142   2.106 -2.0536  0.0903 -0.6183
  181SLPC   O3120631   3.626   5.239   2.300  0.1448  0.1872  0.0414
  181SLPC   C3120632   3.683   5.345   2.355 -0.3964 -0.6380  0.3419
  181SLPC   O3220633   3.759   5.425   2.307 -0.0411  0.0091 -0.3443
  181SLPC   C3220634   3.658   5.340   2.508 -0.3902 -0.1898 -0.5013
  181SLPC   H2X20635   3.757   5.307   2.547 -1.0663 -2.2253 -0.4302
  181SLPC   H2Y20636   3.601   5.250   2.537 -1.7464  0.3865 -1.2924
  181SLPC   C2320637   3.096   5.534   2.237  0.3544  0.3737 -0.5720
  181SLPC   H3R20638   3.053   5.506   2.138  0.1934  2.3962 -1.1271
  181SLPC   H3S20639   3.068   5.641   2.250 -1.7620  0.4170 -4.0209
  181SLPC   C2420640   3.015   5.451   2.341 -0.2954  0.2170 -0.1974
  181SLPC   H4R20641   3.007   5.355   2.286 -1.1644 -0.1977  0.6367
  181SLPC   H4S20642   2.914   5.489   2.366  0.2855  2.8477 -1.5574
  181SLPC   C2520643   3.080   5.434   2.478 -0.1985  0.0308 -0.2767
  181SLPC   H5R20644   3.118   5.534   2.508 -0.6048 -0.2161  1.1177
  181SLPC   H5S20645   3.164   5.362   2.467  0.8228  1.1196  0.1572
  181SLPC   C2620646   2.987   5.369   2.583 -0.5690 -0.3334 -0.6376
  181SLPC   H6R20647   2.957   5.273   2.536  0.0541 -0.9333  0.1667
  181SLPC   H6S20648   2.900   5.433   2.610 -0.3086 -1.1147  2.3905
  181SLPC   C2720649   3.058   5.330   2.712 -0.1827  0.1607  0.5488
  181SLPC   H7R20650   3.107   5.417   2.761  1.4541 -0.9360  0.9200
  181SLPC   H7S20651   3.147   5.270   2.682  1.4300  2.5413  0.3121
  181SLPC   C2820652   2.973   5.255   2.818  0.1398 -0.2527  0.6355
  181SLPC   H8R20653   2.871   5.295   2.834 -0.1448 -0.9897  0.7406
  181SLPC   H8S20654   3.026   5.269   2.915 -0.0772  0.9307  0.5949
  181SLPC   C2920655   2.970   5.108   2.771  1.0361  0.1015 -0.4095
  181SLPC   H9R20656   2.953   5.088   2.664 -0.8278  1.6827 -0.4624
  181SLPC  C21020657   2.986   5.009   2.865 -0.9179  0.0531 -0.1011
  181SLPC  H10R20658   2.993   4.907   2.826  1.1121 -0.8503  2.3262
  181SLPC  C21120659   3.009   5.033   3.012  0.1218  0.2949 -0.1512
  181SLPC  H11R20660   2.942   5.117   3.042  0.6004  1.0289 -1.0828
  181SLPC  H11S20661   3.107   5.081   3.029  1.2994 -1.2875 -2.1116
  181SLPC  C21220662   2.992   4.916   3.107 -0.1651  0.0318  0.6876
  181SLPC  H12R20663   2.989   4.818   3.057  1.7315  0.7161 -0.9110
  181SLPC  C21320664   3.006   4.917   3.241  0.3992 -0.1466 -0.1588
  181SLPC  H13R20665   2.992   4.819   3.290  0.2836 -1.0278 -1.8795
  181SLPC  C21420666   3.017   5.048   3.323  0.1187  0.8210  0.0329
  181SLPC  H14R20667   3.059   5.129   3.261  0.8623 -0.8273 -1.6858
  181SLPC  H14S20668   3.083   5.043   3.413 -0.3622  0.9403  0.4012
  181SLPC  C21520669   2.882   5.101   3.389  0.9933 -0.5564  0.1441
  181SLPC  H15R20670   2.923   5.176   3.460  0.1276  1.0270 -0.9846
  181SLPC  H15S20671   2.833   5.019   3.446  1.0169 -0.2692  0.5783
  181SLPC  C21620672   2.788   5.168   3.293 -0.5500  0.2513 -0.2550
  181SLPC  H16R20673   2.693   5.189   3.347  0.4102  4.2822  0.2124
  181SLPC  H16S20674   2.771   5.099   3.208  1.4392 -2.7215  1.5470
  181SLPC  C21720675   2.832   5.297   3.236  0.0751 -0.8894  0.6900
  181SLPC  H17R20676   2.920   5.286   3.170  0.1933  0.8765  0.4878
  181SLPC  H17S20677   2.861   5.372   3.313  0.3775  0.3386 -0.5756
  181SLPC  C21820678   2.725   5.361   3.143  0.3534 -0.2564 -0.2288
  181SLPC  H18R20679   2.628   5.379   3.195  1.2115 -0.5075  1.5003
  181SLPC  H18S20680   2.707   5.304   3.049  0.6813 -1.2633  0.3076
  181SLPC  H18T20681   2.764   5.456   3.102 -0.4944  1.4389  2.6008
  181SLPC   C3320682   3.618   5.474   2.574 -0.3526  0.4524  0.6802
  181SLPC   H3X20683   3.531   5.524   2.527  0.8876  0.8301 -1.3128
  181SLPC   H3Y20684   3.708   5.539   2.580  0.1479 -0.3386  2.2674
  181SLPC   C3420685   3.592   5.452   2.726  0.2979 -0.1010 -0.9880
  181SLPC   H4X20686   3.586   5.554   2.769  1.4781 -0.6989  0.6371
  181SLPC   H4Y20687   3.663   5.389   2.783  0.2730  0.5141 -0.2584
  181SLPC   C3520688   3.461   5.388   2.767  0.8568 -0.0612  0.4505
  181SLPC   H5X20689   3.466   5.281   2.740 -3.0451 -0.3862  0.4525
  181SLPC   H5Y20690   3.371   5.428   2.716  1.6875  0.8700 -0.3077
  181SLPC   C3620691   3.419   5.405   2.918 -0.4595  0.1919  0.3435
  181SLPC   H6X20692   3.313   5.373   2.927 -0.5365  0.6504  1.1310
  181SLPC   H6Y20693   3.421   5.514   2.940  0.4811  0.5773 -1.5027
  181SLPC   C3720694   3.508   5.333   3.014 -0.0594 -0.1202 -0.3173
  181SLPC   H7X20695   3.607   5.381   3.028 -0.9407  2.8113 -2.9046
  181SLPC   H7Y20696   3.519   5.230   2.975  0.8308 -0.3777  0.5965
  181SLPC   C3820697   3.439   5.324   3.150  0.0626 -0.7407 -0.5937
  181SLPC   H8X20698   3.339   5.275   3.144 -0.9222  0.9230  1.1861
  181SLPC   H8Y20699   3.432   5.432   3.171  1.9035 -0.4212 -1.4205
  181SLPC   C3920700   3.519   5.268   3.265 -0.2871 -0.0738  0.7253
  181SLPC   H9X20701   3.618   5.317   3.270 -0.6773  1.2724 -2.2740
  181SLPC   H9Y20702   3.529   5.157   3.257 -1.5578 -0.0909 -2.1045
  181SLPC  C31020703   3.465   5.300   3.407 -0.5044  0.1689  0.6083
  181SLPC  H10X20704   3.434   5.406   3.402 -0.0785  0.2216 -1.4330
  181SLPC  H10Y20705   3.536   5.290   3.492 -1.0051 -0.9985  0.9092
  181SLPC  C31120706   3.338   5.219   3.449 -0.6141  0.2004  0.2968
  181SLPC  H11X20707   3.370   5.115   3.469 -0.4841  0.4045  1.1982
  181SLPC  H11Y20708   3.260   5.224   3.370 -1.0111  3.1041  0.7605
  181SLPC  C31220709   3.270   5.278   3.576  0.7945  0.1002  0.3532
  181SLPC  H12X20710   3.164   5.247   3.566  1.0063 -1.4471  2.1845
  181SLPC  H12Y20711   3.286   5.387   3.584  1.2430  0.0558  0.0980
  181SLPC  C31320712   3.319   5.223   3.714  0.2713  1.0074  0.2489
  181SLPC  H13X20713   3.259   5.287   3.782 -3.4193 -3.0770  1.2391
  181SLPC  H13Y20714   3.430   5.222   3.721  0.4505 -3.4295 -0.1365
  181SLPC  C31420715   3.280   5.076   3.753 -0.3011  0.7164 -0.1604
  181SLPC  H14X20716   3.330   5.007   3.682 -2.1674 -0.0542 -0.7837
  181SLPC  H14Y20717   3.173   5.075   3.724 -0.1053  0.3789 -0.9132
  181SLPC  C31520718   3.305   5.037   3.904  0.8523 -0.5622 -0.6126
  181SLPC  H15X20719   3.236   4.958   3.941 -0.7518  0.8374 -0.4783
  181SLPC  H15Y20720   3.280   5.126   3.966 -1.5499 -1.9052  0.5018
  181SLPC  C31620721   3.454   4.998   3.953  0.0087  0.5470 -0.7793
  181SLPC  H16X20722   3.498   4.973   3.854  1.2001  1.0547 -0.3967
  181SLPC  H16Y20723   3.456   4.912   4.025 -1.4352  1.4660  0.4214
  181SLPC  C31720724   3.534   5.096   4.037 -0.0432  0.2247 -0.3974
  181SLPC  H17X20725   3.539   5.198   3.993 -1.3670  0.6284  0.3442
  181SLPC  H17Y20726   3.638   5.057   4.034  0.3772  0.8577  2.6037
  181SLPC  C31820727   3.496   5.113   4.182  0.1594  0.0865  0.0013
  181SLPC  H18X20728   3.387   5.131   4.196 -0.1282 -1.4243 -0.1105
  181SLPC  H18Y20729   3.564   5.189   4.225  0.6979  0.4664 -1.4479
  181SLPC  H18Z20730   3.521   5.014   4.227  1.6426 -0.1992 -1.3502
  182SLPC     N20731   5.419   0.074   2.055 -0.1198 -0.0009 -0.2156
  182SLPC   C1320732   5.557   0.041   2.015 -0.0575  0.2166 -0.1922
  182SLPC  H13A20733   5.568  -0.039   1.943 -1.3293 -0.3943  0.2477
  182SLPC  H13B20734   5.590   0.133   1.970 -1.8269  0.7352 -0.5278
  182SLPC  H13C20735   5.618   0.030   2.104 -0.6675  0.4651  0.2669
  182SLPC   C1420736   5.335   0.078   1.928 -0.0671  0.4284 -0.6403
  182SLPC  H14A20737   5.236   0.104   1.962 -0.2583  1.1565 -1.6846
  182SLPC  H14B20738   5.369   0.154   1.859 -1.7317  2.2765  0.4463
  182SLPC  H14C20739   5.322  -0.016   1.876 -0.5064  1.1695 -1.9209
  182SLPC   C1520740   5.417   0.200   2.131 -0.2743 -0.8895  0.1608
  182SLPC  H15A20741   5.319   0.243   2.151 -0.2090 -0.9984  0.7431
  182SLPC  H15B20742   5.479   0.186   2.218  1.2323 -0.2668 -0.7727
  182SLPC  H15C20743   5.467   0.277   2.074 -1.0878 -1.6576 -1.6609
  182SLPC   C1220744   5.368  -0.027   2.147 -0.5637 -0.4786 -0.2287
  182SLPC  H12A20745   5.360  -0.121   2.095 -1.2846 -0.1084 -0.8038
  182SLPC  H12B20746   5.269  -0.001   2.181  0.0345  0.9841  0.5000
  182SLPC   C1120747   5.452  -0.067   2.269  0.6552 -1.1533  0.2640
  182SLPC  H11A20748   5.399  -0.140   2.334  1.7429  0.0983  2.7129
  182SLPC  H11B20749   5.469   0.019   2.337 -0.5727 -0.8229  0.1646
  182SLPC     P20750   5.611  -0.256   2.194  0.1617 -0.1286  0.1282
  182SLPC   O1320751   5.489  -0.314   2.141 -0.0565 -0.2216  0.2284
  182SLPC   O1420752   5.726  -0.252   2.109  0.3099  0.2153  0.7896
  182SLPC   O1220753   5.577  -0.115   2.244 -0.4271 -0.4673 -0.3262
  182SLPC   O1120754   5.642  -0.343   2.319  0.7086  0.1142  0.2126
  182SLPC    C120755   5.742  -0.313   2.418 -0.3978 -0.6221 -0.0952
  182SLPC    HA20756   5.839  -0.341   2.373 -0.1779 -0.2605  0.1429
  182SLPC    HB20757   5.731  -0.205   2.444  0.3957 -1.0235  2.1379
  182SLPC    C220758   5.734  -0.391   2.549  0.3726  0.1749  0.1198
  182SLPC    HS20759   5.736  -0.497   2.515 -1.4408  0.2224 -0.1980
  182SLPC   O2120760   5.607  -0.352   2.608 -0.0497 -0.4150 -1.1659
  182SLPC   C2120761   5.506  -0.436   2.591 -0.2410 -0.8842 -0.4995
  182SLPC   O2220762   5.517  -0.546   2.537  0.2696  0.2305  0.0047
  182SLPC   C2220763   5.384  -0.372   2.643  0.0441  0.2948  0.7594
  182SLPC   H2R20764   5.382  -0.271   2.598  0.6824  0.3756  0.9093
  182SLPC   H2S20765   5.297  -0.422   2.594  0.4528 -0.1366  0.4719
  182SLPC    C320766   5.860  -0.363   2.635 -0.4357  0.2140 -0.0125
  182SLPC    HX20767   5.848  -0.259   2.673 -1.5441 -0.3450  1.2702
  182SLPC    HY20768   5.956  -0.380   2.584 -0.2951 -1.6043  0.7775
  182SLPC   O3120769   5.851  -0.448   2.754 -0.3600  0.3101 -0.3117
  182SLPC   C3120770   5.911  -0.397   2.866 -0.3929  0.6030  0.3203
  182SLPC   O3220771   5.970  -0.288   2.869  0.3751  0.3626  0.0030
  182SLPC   C3220772   5.879  -0.488   2.982 -0.0266 -0.0210  0.1157
  182SLPC   H2X20773   5.961  -0.486   3.058  1.3538 -1.0951 -1.2754
  182SLPC   H2Y20774   5.877  -0.589   2.937  1.7208  1.2721 -3.2592
  182SLPC   C2320775   5.384  -0.343   2.796  0.3072 -0.0912  0.3306
  182SLPC   H3R20776   5.329  -0.247   2.805 -1.9265 -1.2342 -0.3895
  182SLPC   H3S20777   5.492  -0.334   2.821  0.1793  0.4737  0.6890
  182SLPC   C2420778   5.314  -0.450   2.884 -0.0065 -0.4635  0.1149
  182SLPC   H4R20779   5.372  -0.543   2.866  2.4488  1.1867 -1.0951
  182SLPC   H4S20780   5.207  -0.457   2.852 -0.4148  1.0574  1.0561
  182SLPC   C2520781   5.332  -0.421   3.036 -0.2019 -0.2860 -0.1770
  182SLPC   H5R20782   5.271  -0.330   3.055  3.2693  2.3602 -0.8658
  182SLPC   H5S20783   5.439  -0.398   3.056 -0.0081  1.7883 -3.1001
  182SLPC   C2620784   5.273  -0.536   3.124 -0.5027 -0.0113 -0.8769
  182SLPC   H6R20785   5.295  -0.504   3.228 -2.9302  0.6591 -0.5046
  182SLPC   H6S20786   5.314  -0.637   3.101 -1.5359 -0.3688 -1.2052
  182SLPC   C2720787   5.121  -0.538   3.130  0.3337 -0.6236  0.0133
  182SLPC   H7R20788   5.093  -0.538   3.023 -0.5063 -0.5748  0.2250
  182SLPC   H7S20789   5.086  -0.437   3.162  3.6107  0.1594  1.5242
  182SLPC   C2820790   5.052  -0.645   3.204  0.4054  0.4857 -0.3063
  182SLPC   H8R20791   4.944  -0.636   3.181 -0.0359  1.9842  2.0177
  182SLPC   H8S20792   5.066  -0.622   3.312 -0.2645  0.0777 -0.1243
  182SLPC   C2920793   5.110  -0.780   3.176 -0.1050  1.0047 -0.4083
  182SLPC   H9R20794   5.094  -0.816   3.074  1.7241  1.6297 -0.9535
  182SLPC  C21020795   5.167  -0.862   3.268  0.5269  0.5125 -0.2993
  182SLPC  H10R20796   5.197  -0.966   3.248  0.1393  0.0045  1.5385
  182SLPC  C21120797   5.216  -0.833   3.411  0.1448 -0.1382 -0.1838
  182SLPC  H11R20798   5.282  -0.744   3.406  0.8817 -0.7379 -2.4402
  182SLPC  H11S20799   5.266  -0.920   3.460  1.4882  0.3251 -0.7028
  182SLPC  C21220800   5.109  -0.806   3.509 -0.1146 -0.9788  0.3637
  182SLPC  H12R20801   5.031  -0.884   3.507 -0.5443 -0.5739  1.0243
  182SLPC  C21320802   5.107  -0.714   3.606 -0.4927  0.3880 -0.0067
  182SLPC  H13R20803   5.015  -0.722   3.666 -0.3479 -0.0567  0.1584
  182SLPC  C21420804   5.206  -0.607   3.643  0.6626  0.3978 -0.6486
  182SLPC  H14R20805   5.307  -0.645   3.617  0.7561 -1.2937  1.8236
  182SLPC  H14S20806   5.222  -0.595   3.753  0.6369  0.2067 -0.6232
  182SLPC  C21520807   5.182  -0.475   3.567  0.4068 -0.4374  0.2978
  182SLPC  H15R20808   5.074  -0.448   3.561 -0.1696 -2.4388  0.9655
  182SLPC  H15S20809   5.212  -0.489   3.461  3.8204 -0.5858  1.1597
  182SLPC  C21620810   5.262  -0.353   3.610 -0.2914 -0.5042 -0.3528
  182SLPC  H16R20811   5.244  -0.268   3.541 -0.4024 -0.4017 -0.1984
  182SLPC  H16S20812   5.373  -0.356   3.602 -0.0988 -1.3179  1.9938
  182SLPC  C21720813   5.240  -0.307   3.753  0.1612  0.1498 -0.1103
  182SLPC  H17R20814   5.242  -0.399   3.816 -1.5717  1.2145  1.6311
  182SLPC  H17S20815   5.139  -0.270   3.783  0.0549  1.1934 -1.6419
  182SLPC  C21820816   5.350  -0.204   3.806  0.1692 -0.4516  0.0569
  182SLPC  H18R20817   5.329  -0.106   3.759 -2.8655 -1.4002 -0.7999
  182SLPC  H18S20818   5.453  -0.243   3.788  0.0744  0.3493 -2.7332
  182SLPC  H18T20819   5.332  -0.181   3.913  0.8230  1.1864 -0.1556
  182SLPC   C3320820   5.746  -0.438   3.048  0.3585  0.3529  0.1708
  182SLPC   H3X20821   5.660  -0.447   2.978  0.8659 -2.6502 -0.2078
  182SLPC   H3Y20822   5.756  -0.329   3.069 -0.9117  0.3931  0.6616
  182SLPC   C3420823   5.710  -0.519   3.172 -0.4170  0.0528  0.9882
  182SLPC   H4X20824   5.615  -0.469   3.198 -2.1874 -1.6143 -1.7211
  182SLPC   H4Y20825   5.791  -0.511   3.247 -0.7369 -0.5866  1.4092
  182SLPC   C3520826   5.667  -0.667   3.157  0.2995  0.0333  0.7540
  182SLPC   H5X20827   5.756  -0.731   3.142  0.9292  1.0983 -0.2501
  182SLPC   H5Y20828   5.603  -0.673   3.066  1.2563 -0.0998  0.0678
  182SLPC   C3620829   5.597  -0.730   3.278 -0.2943  0.4799 -0.4328
  182SLPC   H6X20830   5.566  -0.833   3.250  0.5032  0.2161 -0.3776
  182SLPC   H6Y20831   5.508  -0.668   3.301  1.0188  2.2851 -0.0102
  182SLPC   C3720832   5.680  -0.755   3.399 -0.0389 -0.0888 -0.7458
  182SLPC   H7X20833   5.711  -0.653   3.429 -0.2740  0.3489 -1.9215
  182SLPC   H7Y20834   5.774  -0.802   3.364 -0.6239 -1.0328 -1.0891
  182SLPC   C3820835   5.595  -0.833   3.505 -0.3199 -0.0257  0.2138
  182SLPC   H8X20836   5.577  -0.937   3.469 -0.0958  0.9533 -3.0706
  182SLPC   H8Y20837   5.495  -0.786   3.496 -0.8682 -1.2204 -0.2193
  182SLPC   C3920838   5.651  -0.856   3.650 -0.2317  0.0616 -0.0087
  182SLPC   H9X20839   5.674  -0.758   3.697  0.0647 -0.0818  0.1473
  182SLPC   H9Y20840   5.744  -0.917   3.643 -1.6635 -2.3105  0.4241
  182SLPC  C31020841   5.542  -0.933   3.728 -0.4711  0.6662 -0.2254
  182SLPC  H10X20842   5.527  -1.027   3.670  0.9535 -0.5618  1.3194
  182SLPC  H10Y20843   5.451  -0.869   3.734 -0.3116  0.8158  0.8027
  182SLPC  C31120844   5.590  -0.963   3.871  0.0620 -0.4864  0.2761
  182SLPC  H11X20845   5.580  -0.869   3.930 -2.0150  0.8029 -1.9318
  182SLPC  H11Y20846   5.694  -1.002   3.879  0.5737  0.8837  0.5977
  182SLPC  C31220847   5.503  -1.067   3.938  0.0023  0.5372 -0.2466
  182SLPC  H12X20848   5.492  -1.154   3.871 -1.0614  0.9726 -0.6682
  182SLPC  H12Y20849   5.399  -1.030   3.954 -0.7508 -1.6083  0.0327
  182SLPC  C31320850   5.569  -1.104   4.076  0.1075 -0.0682  0.2564
  182SLPC  H13X20851   5.679  -1.101   4.064  0.0998  0.7458  0.2968
  182SLPC  H13Y20852   5.536  -1.209   4.086 -0.7370  0.1971  0.4066
  182SLPC  C31420853   5.532  -1.019   4.195  0.5015  0.0266  0.1346
  182SLPC  H14X20854   5.421  -1.018   4.189  0.4040 -1.4933  1.2291
  182SLPC  H14Y20855   5.564  -0.914   4.175  1.7848 -0.5952 -1.3220
  182SLPC  C31520856   5.582  -1.078   4.321  0.0946  0.7414 -0.9842
  182SLPC  H15X20857   5.691  -1.063   4.340  0.1910 -2.3847  1.8491
  182SLPC  H15Y20858   5.555  -1.186   4.324 -1.6594  1.1855 -0.2361
  182SLPC  C31620859   5.518  -1.017   4.444  1.3753 -0.1998 -0.5454
  182SLPC  H16X20860   5.557  -1.080   4.526  0.4439 -1.2208 -0.8466
  182SLPC  H16Y20861   5.406  -1.018   4.444  1.3714 -0.7542  0.6017
  182SLPC  C31720862   5.560  -0.871   4.473 -0.2970 -0.2376  0.0274
  182SLPC  H17X20863   5.668  -0.859   4.448 -0.4368  1.8625  0.2325
  182SLPC  H17Y20864   5.564  -0.864   4.584 -1.7767 -0.6059  0.1249
  182SLPC  C31820865   5.483  -0.764   4.402 -0.1993  0.0844  0.3949
  182SLPC  H18X20866   5.494  -0.767   4.291 -3.7030 -1.5216 -0.0483
  182SLPC  H18Y20867   5.504  -0.660   4.435 -0.4363 -0.2129  1.5047
  182SLPC  H18Z20868   5.376  -0.783   4.424 -0.1025 -0.0381  0.7638
  183SLPC     N20869   1.247   6.059   1.795  0.3760 -0.8375 -0.7785
  183SLPC   C1320870   1.299   6.027   1.938  0.6341  0.3512 -0.0922
  183SLPC  H13A20871   1.406   6.042   1.931  0.9414 -1.6060 -0.0902
  183SLPC  H13B20872   1.262   6.102   2.007 -1.0404  1.8043 -2.4003
  183SLPC  H13C20873   1.267   5.931   1.976 -1.6766  1.4814  1.0490
  183SLPC   C1420874   1.302   5.960   1.691  0.3859 -0.3879  0.8469
  183SLPC  H14A20875   1.284   5.858   1.722  0.8085  0.1854  3.1196
  183SLPC  H14B20876   1.254   5.978   1.596  1.6128  1.4085  0.5337
  183SLPC  H14C20877   1.407   5.960   1.670  0.6314  1.5453  1.8924
  183SLPC   C1520878   1.279   6.196   1.750 -1.1838 -0.0624 -0.0484
  183SLPC  H15A20879   1.233   6.215   1.654 -1.5503 -1.9191 -0.2821
  183SLPC  H15B20880   1.238   6.266   1.821  0.7107  1.8790 -0.7774
  183SLPC  H15C20881   1.385   6.213   1.756 -1.1365 -0.3567 -0.0407
  183SLPC   C1220882   1.098   6.043   1.787  0.0960  0.9943  0.7503
  183SLPC  H12A20883   1.071   5.941   1.813  0.6133  1.3035  2.6861
  183SLPC  H12B20884   1.072   6.057   1.683  0.0982  1.7745  0.8514
  183SLPC   C1120885   1.006   6.131   1.879 -0.1442  0.3085 -0.0782
  183SLPC  H11A20886   0.902   6.104   1.851  0.0832  0.3334 -1.0010
  183SLPC  H11B20887   1.023   6.236   1.847  3.1318  0.8374  2.8281
  183SLPC     P20888   0.973   5.997   2.096  0.0953  0.7637  0.0728
  183SLPC   O1320889   0.826   6.008   2.110  0.1752  0.0389  0.4454
  183SLPC   O1420890   1.034   5.878   2.034 -0.9950  0.0274 -0.1897
  183SLPC   O1220891   1.030   6.121   2.021  0.4908  0.5681 -0.3814
  183SLPC   O1120892   1.029   6.006   2.241  0.3137 -0.2194 -0.4088
  183SLPC    C120893   1.173   6.032   2.261 -0.8902 -0.0911  0.8606
  183SLPC    HA20894   1.230   5.937   2.265 -1.0878 -0.2485  0.1027
  183SLPC    HB20895   1.223   6.099   2.187  1.9964  0.2604  2.9588
  183SLPC    C220896   1.199   6.119   2.383 -0.2169 -0.1338 -0.1167
  183SLPC    HS20897   1.306   6.139   2.407 -0.7424  0.3909  1.9864
  183SLPC   O2120898   1.133   6.081   2.501 -0.1110  0.5598  0.4738
  183SLPC   C2120899   1.169   5.960   2.541 -0.6502  0.8363 -0.0540
  183SLPC   O2220900   1.260   5.893   2.491  0.1670  0.8737  0.0642
  183SLPC   C2220901   1.067   5.906   2.644 -0.6007  0.8835  0.2151
  183SLPC   H2R20902   1.035   5.970   2.730 -0.1986 -0.4189  1.3687
  183SLPC   H2S20903   0.969   5.893   2.594 -0.9103  0.6014  0.8769
  183SLPC    C320904   1.163   6.263   2.342  0.4177 -0.8628 -0.5755
  183SLPC    HX20905   1.061   6.268   2.298  0.7036 -1.8681 -1.3905
  183SLPC    HY20906   1.224   6.298   2.256  0.3220  0.8805  0.0313
  183SLPC   O3120907   1.191   6.350   2.450  0.1403 -0.3816 -0.2754
  183SLPC   C3120908   1.114   6.466   2.454 -0.0193  0.2468 -0.1562
  183SLPC   O3220909   1.024   6.494   2.376 -0.4677 -0.2968 -0.4405
  183SLPC   C3220910   1.160   6.544   2.577 -0.2790 -0.0791  0.1255
  183SLPC   H2X20911   1.270   6.537   2.564 -0.6419 -2.6168 -2.9044
  183SLPC   H2Y20912   1.135   6.476   2.662 -1.8615  0.0956 -0.1691
  183SLPC   C2320913   1.119   5.781   2.728  0.2929 -0.9601 -0.3958
  183SLPC   H3R20914   1.194   5.725   2.668  0.9193 -2.5833  1.8102
  183SLPC   H3S20915   1.037   5.708   2.743  0.3959 -1.0125 -0.0963
  183SLPC   C2420916   1.174   5.811   2.872 -0.3431 -0.7593 -0.0893
  183SLPC   H4R20917   1.235   5.904   2.869  0.4532 -1.2762 -0.2567
  183SLPC   H4S20918   1.244   5.731   2.905  1.4373  0.7913  0.0388
  183SLPC   C2520919   1.060   5.819   2.978  0.0087 -0.4281  0.2996
  183SLPC   H5R20920   0.982   5.740   2.979 -0.6796  0.1798 -1.7034
  183SLPC   H5S20921   1.001   5.908   2.948  0.8199 -0.1641 -0.5670
  183SLPC   C2620922   1.116   5.851   3.119 -0.0092  0.6791 -0.0666
  183SLPC   H6R20923   1.156   5.955   3.127 -1.5296  1.2811  0.1964
  183SLPC   H6S20924   1.193   5.780   3.155  0.2310  1.2228  0.5198
  183SLPC   C2720925   1.000   5.836   3.221  1.1106 -0.3382  0.2281
  183SLPC   H7R20926   0.951   5.737   3.209  2.2372 -0.9344  0.4284
  183SLPC   H7S20927   0.925   5.912   3.191  1.2526 -0.3293 -0.1126
  183SLPC   C2820928   1.039   5.858   3.362 -0.7404  0.1750  0.5115
  183SLPC   H8R20929   1.124   5.788   3.379 -0.1246  1.2051  1.8949
  183SLPC   H8S20930   0.952   5.822   3.422 -1.1838 -2.0628 -1.3425
  183SLPC   C2920931   1.087   5.992   3.406  0.4925  1.1225  0.2227
  183SLPC   H9R20932   1.109   6.065   3.327 -0.5192  0.2678 -0.8789
  183SLPC  C21020933   1.115   6.005   3.533 -0.5412  0.1104  0.5559
  183SLPC  H10R20934   1.138   6.108   3.563 -0.0194  0.7058 -1.6781
  183SLPC  C21120935   1.103   5.897   3.650  0.3577  0.1611  0.0468
  183SLPC  H11R20936   1.153   5.805   3.614 -0.3889 -0.3896  0.3884
  183SLPC  H11S20937   0.993   5.879   3.656 -0.0536  2.0128 -1.1190
  183SLPC  C21220938   1.162   5.937   3.790 -0.1556  0.6294  0.2541
  183SLPC  H12R20939   1.207   6.036   3.803  3.2937 -1.0509  2.7461
  183SLPC  C21320940   1.139   5.888   3.915  0.6135  0.2561  0.5823
  183SLPC  H13R20941   1.199   5.929   3.998  1.9201 -1.5633  0.6132
  183SLPC  C21420942   1.054   5.771   3.948 -1.0285  0.6767  0.3358
  183SLPC  H14R20943   1.127   5.687   3.944 -0.2372  1.3891 -2.1976
  183SLPC  H14S20944   0.966   5.756   3.882 -0.1590  1.8089 -1.1490
  183SLPC  C21520945   0.998   5.767   4.096 -0.6226  0.8985  0.1281
  183SLPC  H15R20946   1.085   5.797   4.158  0.6514  0.4784 -1.4106
  183SLPC  H15S20947   0.978   5.657   4.100  2.4714  0.1836 -1.1495
  183SLPC  C21620948   0.869   5.836   4.119 -0.1467  0.0207  0.4372
  183SLPC  H16R20949   0.789   5.768   4.083  0.1949 -0.3263  0.3257
  183SLPC  H16S20950   0.852   5.926   4.057  0.0295 -0.4905 -0.3719
  183SLPC  C21720951   0.849   5.870   4.270  0.0815  0.1285  0.6892
  183SLPC  H17R20952   0.935   5.934   4.299 -0.2401  1.4959 -1.2095
  183SLPC  H17S20953   0.862   5.776   4.328  2.7225  0.3492  0.5773
  183SLPC  C21820954   0.722   5.945   4.304 -0.0597 -0.3595  0.5074
  183SLPC  H18R20955   0.637   5.892   4.256 -1.4633  1.9008  0.3423
  183SLPC  H18S20956   0.716   6.047   4.259  1.0366 -1.3176 -1.9800
  183SLPC  H18T20957   0.704   5.958   4.413  1.9261  0.5474  0.7569
  183SLPC   C3320958   1.099   6.690   2.593  0.4028  0.0259  0.2864
  183SLPC   H3X20959   0.987   6.688   2.595  0.1167  3.2374 -2.4299
  183SLPC   H3Y20960   1.123   6.750   2.502  1.7855 -0.4488  0.3157
  183SLPC   C3420961   1.153   6.763   2.715  0.1130  0.2662 -1.0953
  183SLPC   H4X20962   1.097   6.858   2.728 -2.2510 -1.1353 -0.5601
  183SLPC   H4Y20963   1.263   6.775   2.699  0.1472  3.0587  0.5926
  183SLPC   C3520964   1.132   6.687   2.847 -0.3346  0.5313  0.0540
  183SLPC   H5X20965   1.163   6.581   2.845 -1.6802  0.1256 -1.2184
  183SLPC   H5Y20966   1.022   6.676   2.858 -0.3350  0.3026 -0.1719
  183SLPC   C3620967   1.189   6.759   2.966 -0.0479  0.2437  0.0368
  183SLPC   H6X20968   1.153   6.864   2.975  1.4419  0.7081  1.0673
  183SLPC   H6Y20969   1.300   6.761   2.956  0.0867  2.0997  1.2720
  183SLPC   C3720970   1.154   6.686   3.097 -1.0477 -0.1694  0.0461
  183SLPC   H7X20971   1.188   6.581   3.095  3.5134  1.0128  2.3911
  183SLPC   H7Y20972   1.045   6.693   3.119 -0.8655 -0.0666  0.9364
  183SLPC   C3820973   1.230   6.737   3.218 -0.7513  0.2510  0.4045
  183SLPC   H8X20974   1.223   6.848   3.223  1.7474  0.5134 -0.2035
  183SLPC   H8Y20975   1.336   6.710   3.198 -1.0347 -0.6581  0.0880
  183SLPC   C3920976   1.179   6.665   3.343 -0.6790 -0.2206 -0.2729
  183SLPC   H9X20977   1.182   6.556   3.322  1.6607 -1.1505  3.7609
  183SLPC   H9Y20978   1.073   6.691   3.363  0.1959  2.6188  1.2547
  183SLPC  C31020979   1.254   6.685   3.473 -0.4106  0.0228 -0.4565
  183SLPC  H10X20980   1.269   6.791   3.502  1.0491 -0.1379 -0.5102
  183SLPC  H10Y20981   1.358   6.650   3.455  0.0204  0.8853  0.2428
  183SLPC  C31120982   1.186   6.623   3.599 -0.7375 -0.7461 -0.0607
  183SLPC  H11X20983   1.178   6.515   3.573  1.8712 -1.2308  0.8290
  183SLPC  H11Y20984   1.092   6.679   3.619  0.8285  1.6579  1.0167
  183SLPC  C31220985   1.270   6.634   3.728 -0.1037  0.1343 -0.0151
  183SLPC  H12X20986   1.266   6.741   3.758 -2.8840  0.1715 -0.2463
  183SLPC  H12Y20987   1.372   6.601   3.697 -0.8295 -0.4719 -1.9109
  183SLPC  C31320988   1.217   6.559   3.857  0.1857  0.6987 -0.0902
  183SLPC  H13X20989   1.120   6.602   3.891  0.8639  2.6337 -0.5047
  183SLPC  H13Y20990   1.299   6.568   3.931 -0.6142 -0.0356  0.9261
  183SLPC  C31420991   1.185   6.409   3.840  0.1286 -0.0091  0.6414
  183SLPC  H14X20992   1.277   6.357   3.805 -0.2243 -0.1958 -0.0164
  183SLPC  H14Y20993   1.105   6.413   3.764 -1.6790 -0.4605  2.4319
  183SLPC  C31520994   1.133   6.338   3.967  0.2167  0.9149 -0.4745
  183SLPC  H15X20995   1.116   6.235   3.927 -1.2103  0.4650  1.1737
  183SLPC  H15Y20996   1.033   6.376   3.996  0.6646  2.2543 -0.6143
  183SLPC  C31620997   1.239   6.336   4.077  0.6348  0.6584 -0.1475
  183SLPC  H16X20998   1.237   6.430   4.137  2.1963  1.2862 -1.0313
  183SLPC  H16Y20999   1.344   6.348   4.045  0.4277  2.4621 -0.2837
  183SLPC  C31721000   1.240   6.212   4.164 -0.4700 -0.2505 -0.1067
  183SLPC  H17X21001   1.295   6.242   4.256 -0.8461  2.0842 -0.5691
  183SLPC  H17Y21002   1.291   6.128   4.112  1.3912  0.8857 -0.2279
  183SLPC  C31821003   1.102   6.168   4.216  0.2942 -0.0415 -0.3491
  183SLPC  H18X21004   1.059   6.250   4.278  2.4764 -0.3306  1.6937
  183SLPC  H18Y21005   1.114   6.071   4.269 -1.1733  1.0055  2.1229
  183SLPC  H18Z21006   1.039   6.144   4.128 -0.9178 -0.2862  0.5554
  184SLPC     N21007   0.202   3.854   1.783  0.3596  0.2710  0.0518
  184SLPC   C1321008   0.269   3.988   1.769 -0.4278 -0.6860 -0.2742
  184SLPC  H13A21009   0.255   4.046   1.859  0.2301  0.8728 -1.1424
  184SLPC  H13B21010   0.376   3.981   1.762 -0.2324 -0.5477  1.9373
  184SLPC  H13C21011   0.235   4.040   1.680  2.3168  0.8905 -0.5157
  184SLPC   C1421012   0.181   3.798   1.645  0.1252  0.4820 -0.8694
  184SLPC  H14A21013   0.128   3.866   1.581 -2.3536 -1.4321 -0.9538
  184SLPC  H14B21014   0.276   3.763   1.606  0.0651  0.6813 -1.1968
  184SLPC  H14C21015   0.124   3.707   1.647  0.1917  0.4471 -0.1684
  184SLPC   C1521016   0.058   3.875   1.842  0.1326 -0.3443 -0.3642
  184SLPC  H15A21017   0.001   3.783   1.839  0.5763 -0.7059  1.3546
  184SLPC  H15B21018   0.082   3.904   1.943  3.2692  1.6004 -1.5182
  184SLPC  H15C21019   0.011   3.947   1.776  1.1585 -1.5601 -2.5036
  184SLPC   C1221020   0.278   3.764   1.875  0.0841  0.4125  0.2423
  184SLPC  H12A21021   0.216   3.681   1.905 -0.7510  0.1996 -1.9392
  184SLPC  H12B21022   0.319   3.817   1.959  1.2708  0.5031 -0.3776
  184SLPC   C1121023   0.408   3.699   1.822  0.0012 -0.3767  0.5928
  184SLPC  H11A21024   0.384   3.641   1.730  0.7779 -1.7402  1.2279
  184SLPC  H11B21025   0.445   3.626   1.896  0.6827  0.9361  1.5878
  184SLPC     P21026   0.606   3.876   1.861  0.2546  0.5998  0.2138
  184SLPC   O1321027   0.739   3.864   1.799 -0.0320  0.0117 -0.2416
  184SLPC   O1421028   0.557   4.017   1.876  0.1644 -0.0388 -0.2520
  184SLPC   O1221029   0.500   3.797   1.782  0.2437 -0.3210 -0.1295
  184SLPC   O1121030   0.602   3.803   2.004  0.7845 -0.3323 -0.2786
  184SLPC    C121031   0.528   3.862   2.114  0.0134 -0.2037  0.2832
  184SLPC    HA21032   0.526   3.974   2.114  3.9692  0.0195  1.2403
  184SLPC    HB21033   0.430   3.810   2.112 -0.0927  0.0108 -1.6844
  184SLPC    C221034   0.604   3.836   2.253 -0.2911  0.3577  0.5252
  184SLPC    HS21035   0.619   3.727   2.270  0.2845 -0.0169 -2.0254
  184SLPC   O2121036   0.534   3.896   2.353  0.2816 -0.5793  0.1567
  184SLPC   C2121037   0.433   3.826   2.401  0.2193  0.9715  0.5565
  184SLPC   O2221038   0.400   3.713   2.357 -0.2749  0.2934 -0.2939
  184SLPC   C2221039   0.360   3.903   2.505 -0.0719  0.7856  0.8540
  184SLPC   H2R21040   0.351   4.010   2.474  0.9936  0.5280 -0.4436
  184SLPC   H2S21041   0.256   3.865   2.509  0.5102 -0.8201  1.7964
  184SLPC    C321042   0.744   3.895   2.251  0.0549  0.0878 -0.3823
  184SLPC    HX21043   0.739   4.003   2.225 -0.2861  0.2120  0.1861
  184SLPC    HY21044   0.789   3.841   2.164 -1.7859 -1.1598 -0.6192
  184SLPC   O3121045   0.818   3.867   2.368  0.0212  0.5397 -0.5177
  184SLPC   C3121046   0.924   3.793   2.359  0.2068 -0.0823 -0.3167
  184SLPC   O3221047   0.958   3.729   2.260  0.5358 -0.4193  0.0880
  184SLPC   C3221048   1.000   3.788   2.501  0.2339  0.6337  0.1466
  184SLPC   H2X21049   0.965   3.862   2.576 -0.6304  0.8975 -0.4916
  184SLPC   H2Y21050   1.105   3.807   2.471  0.0632 -0.5892 -1.3816
  184SLPC   C2321051   0.431   3.884   2.641  0.4837 -0.0352 -0.1964
  184SLPC   H3R21052   0.427   3.775   2.661  0.8725  0.2680  1.6619
  184SLPC   H3S21053   0.360   3.930   2.713  0.4237 -0.4904  0.0401
  184SLPC   C2421054   0.571   3.935   2.655 -0.7954 -0.5632 -0.4663
  184SLPC   H4R21055   0.581   4.044   2.636 -1.3221 -0.5483 -0.6781
  184SLPC   H4S21056   0.640   3.877   2.590 -0.3919 -3.9293  2.6694
  184SLPC   C2521057   0.617   3.902   2.804  0.5210 -0.7504  0.3728
  184SLPC   H5R21058   0.725   3.930   2.804  0.1835  0.7220  1.8149
  184SLPC   H5S21059   0.601   3.796   2.832  0.2009 -0.5997  0.7784
  184SLPC   C2621060   0.546   3.986   2.910  0.1207  0.7664 -0.4757
  184SLPC   H6R21061   0.449   3.934   2.921 -0.1064  0.8681 -1.8853
  184SLPC   H6S21062   0.525   4.092   2.885 -1.2831  0.5513 -0.2912
  184SLPC   C2721063   0.622   3.995   3.048  0.0986  0.9292  0.9632
  184SLPC   H7R21064   0.570   4.054   3.126 -0.0651  0.2091  1.4122
  184SLPC   H7S21065   0.713   4.055   3.025  2.7877 -3.2615 -0.6594
  184SLPC   C2821066   0.670   3.866   3.114 -0.0535  0.3913 -0.2011
  184SLPC   H8R21067   0.744   3.896   3.191 -0.1665  1.1204 -0.3659
  184SLPC   H8S21068   0.730   3.813   3.037 -0.4543  0.4411 -0.5525
  184SLPC   C2921069   0.575   3.766   3.173  0.2903  0.9529  0.4267
  184SLPC   H9R21070   0.531   3.684   3.115  2.5777 -1.0121  1.2879
  184SLPC  C21021071   0.536   3.777   3.304  0.2777 -0.0327 -0.6702
  184SLPC  H10R21072   0.443   3.723   3.328 -0.8437  1.2102 -2.0049
  184SLPC  C21121073   0.583   3.883   3.404  0.8214  0.6472 -0.7430
  184SLPC  H11R21074   0.634   3.973   3.363  2.4723 -0.3752 -1.0315
  184SLPC  H11S21075   0.663   3.845   3.471  2.3490  1.1219 -2.2231
  184SLPC  C21221076   0.459   3.934   3.479 -0.3763  0.2882  0.4166
  184SLPC  H12R21077   0.381   3.966   3.409  0.7673 -2.5529 -2.4116
  184SLPC  C21321078   0.457   3.954   3.614  0.2001  0.0340  0.8015
  184SLPC  H13R21079   0.370   4.000   3.663 -0.6181 -0.9540  0.2975
  184SLPC  C21421080   0.574   3.908   3.703 -0.0427  1.0193 -0.5224
  184SLPC  H14R21081   0.664   3.971   3.689  0.5834  0.1954 -0.2796
  184SLPC  H14S21082   0.602   3.803   3.679 -3.2095 -0.2028  0.5354
  184SLPC  C21521083   0.557   3.904   3.856  0.6217  0.0046  0.0660
  184SLPC  H15R21084   0.486   3.821   3.878  2.3629 -1.3803  0.6979
  184SLPC  H15S21085   0.509   4.002   3.877 -1.9156 -1.3987  1.3481
  184SLPC  C21621086   0.690   3.882   3.930 -0.4862 -0.3596  0.1410
  184SLPC  H16R21087   0.779   3.925   3.880  0.6658 -1.6265  1.0508
  184SLPC  H16S21088   0.703   3.772   3.931  3.2620 -0.0362 -0.5468
  184SLPC  C21721089   0.685   3.948   4.069 -0.2863 -0.0317 -0.3422
  184SLPC  H17R21090   0.596   3.903   4.118  0.1722 -1.6402 -0.9381
  184SLPC  H17S21091   0.686   4.059   4.064 -0.5150  0.0516  1.1087
  184SLPC  C21821092   0.813   3.897   4.152 -0.1925  0.1137  0.1343
  184SLPC  H18R21093   0.906   3.931   4.103 -0.8662 -1.2227 -2.2578
  184SLPC  H18S21094   0.806   3.786   4.145 -0.6966  0.0182  1.7071
  184SLPC  H18T21095   0.803   3.936   4.255  1.7659  1.0414  0.0197
  184SLPC   C3321096   1.002   3.640   2.558 -0.0839 -0.5245 -0.6696
  184SLPC   H3X21097   1.102   3.594   2.540 -0.1447 -1.1504  0.5078
  184SLPC   H3Y21098   0.916   3.591   2.508 -1.1492  1.6414 -1.0887
  184SLPC   C3421099   0.975   3.633   2.710 -0.1633  0.2122  0.0382
  184SLPC   H4X21100   0.982   3.527   2.741  2.2331  0.8615  2.0446
  184SLPC   H4Y21101   0.871   3.667   2.730  0.2083  1.1221  0.5020
  184SLPC   C3521102   1.076   3.704   2.800  0.3758 -0.0282  0.5890
  184SLPC   H5X21103   1.076   3.810   2.768 -0.0214 -0.7256 -1.9429
  184SLPC   H5Y21104   1.179   3.667   2.780 -1.1064 -2.9180 -3.0067
  184SLPC   C3621105   1.046   3.688   2.951 -0.2295  0.4322 -0.0565
  184SLPC   H6X21106   1.066   3.581   2.974  1.8435  0.6168 -0.7989
  184SLPC   H6Y21107   0.938   3.709   2.967 -0.3076  0.5349 -0.6925
  184SLPC   C3721108   1.114   3.792   3.043 -0.1666 -0.4495  0.0678
  184SLPC   H7X21109   1.106   3.887   2.987  0.6542 -0.1924  0.3826
  184SLPC   H7Y21110   1.223   3.778   3.056  0.7033  4.0820 -0.7072
  184SLPC   C3821111   1.043   3.826   3.180  0.0261 -0.0142 -0.2066
  184SLPC   H8X21112   1.081   3.746   3.247 -1.5989  1.2253  2.3714
  184SLPC   H8Y21113   0.933   3.817   3.181  0.0740 -1.3185 -2.0413
  184SLPC   C3921114   1.088   3.965   3.233  0.4212  0.0337  0.0728
  184SLPC   H9X21115   1.074   4.035   3.147 -2.4606 -0.6764 -0.1587
  184SLPC   H9Y21116   1.191   3.967   3.273 -0.3606 -2.4870  2.5248
  184SLPC  C31021117   0.998   4.010   3.352  0.1073 -0.6278 -0.2501
  184SLPC  H10X21118   0.997   3.926   3.425  1.0752 -0.4174  0.0253
  184SLPC  H10Y21119   0.901   4.033   3.303  0.7226  1.4706 -0.5876
  184SLPC  C31121120   1.050   4.139   3.424 -0.7910  0.3314  0.3181
  184SLPC  H11X21121   1.078   4.213   3.346  0.5510 -3.0967 -2.7524
  184SLPC  H11Y21122   1.148   4.106   3.464 -0.2376 -0.8673 -1.8757
  184SLPC  C31221123   0.975   4.189   3.543  0.4543 -0.1266 -0.7604
  184SLPC  H12X21124   0.884   4.245   3.511  0.3182  1.2494  1.8251
  184SLPC  H12Y21125   1.027   4.278   3.585 -1.4333  0.8560 -0.3682
  184SLPC  C31321126   0.969   4.087   3.655 -0.0843 -0.6537  0.0810
  184SLPC  H13X21127   0.901   4.005   3.623 -0.3242 -1.0395  1.5046
  184SLPC  H13Y21128   0.932   4.134   3.749  0.3403  0.1538 -0.1509
  184SLPC  C31421129   1.096   4.015   3.698  0.0155  0.7820 -0.7176
  184SLPC  H14X21130   1.173   4.090   3.725 -0.2049  0.4089  1.0410
  184SLPC  H14Y21131   1.127   3.958   3.607  0.8775 -1.2693  0.7826
  184SLPC  C31521132   1.064   3.920   3.819 -0.1625  0.0089  0.1936
  184SLPC  H15X21133   1.002   3.834   3.786  0.5075  0.0440 -1.2637
  184SLPC  H15Y21134   1.032   3.982   3.905  2.2697  2.7417 -0.7024
  184SLPC  C31621135   1.196   3.867   3.872  0.2016 -0.0108  0.1363
  184SLPC  H16X21136   1.274   3.945   3.883  0.5737 -0.3390 -0.1453
  184SLPC  H16Y21137   1.230   3.785   3.805  1.4320 -0.2464  1.0243
  184SLPC  C31721138   1.190   3.800   4.016  0.1000 -0.1760  0.1247
  184SLPC  H17X21139   1.094   3.745   4.013  0.1868 -0.5309  2.4494
  184SLPC  H17Y21140   1.178   3.879   4.092 -0.2221 -0.1740  0.0719
  184SLPC  C31821141   1.301   3.696   4.044  0.0830  0.4402 -0.1062
  184SLPC  H18X21142   1.307   3.670   4.151 -1.9756  2.7457  0.6677
  184SLPC  H18Y21143   1.397   3.736   4.007 -0.2064  2.0493  0.7835
  184SLPC  H18Z21144   1.279   3.605   3.985  0.8837 -1.3458  2.2166
  185POPC     N21145   2.988   5.116   6.734  0.5131  0.6485  0.2724
  185POPC   C1221146   2.927   5.251   6.707 -0.4280 -0.0421  0.2750
  185POPC  H12A21147   2.987   5.316   6.769  0.4246 -1.2830  0.7853
  185POPC  H12B21148   2.830   5.255   6.755 -0.0447  0.1337  1.0546
  185POPC   C1321149   3.126   5.099   6.684 -0.3644 -0.1230  0.3442
  185POPC  H13A21150   3.185   5.187   6.707  1.3176 -0.9837 -0.4700
  185POPC  H13B21151   3.171   5.010   6.725  1.9260  0.9593  0.3234
  185POPC  H13C21152   3.117   5.086   6.577 -1.0444 -0.0683  0.3899
  185POPC   C1421153   2.995   5.084   6.874 -0.2055 -0.1044 -0.1782
  185POPC  H14A21154   3.051   5.166   6.914  0.3976  0.2629 -1.7250
  185POPC  H14B21155   2.897   5.074   6.919 -0.0841 -1.5977 -0.1912
  185POPC  H14C21156   3.043   4.988   6.889 -0.8889 -0.6348 -1.2433
  185POPC   C1521157   2.897   5.008   6.674  0.1439 -0.2129 -0.2317
  185POPC  H15A21158   2.794   5.009   6.705  0.4342  0.1027  0.7630
  185POPC  H15B21159   2.940   4.909   6.685  2.8206  0.7765 -1.0212
  185POPC  H15C21160   2.892   5.025   6.567 -0.3187 -0.5026 -0.2560
  185POPC   C1121161   2.905   5.315   6.567 -0.2665  0.2398  0.6494
  185POPC  H11A21162   3.000   5.355   6.527  0.0207  0.1537  1.2453
  185POPC  H11B21163   2.849   5.407   6.592  0.2185  0.5582  0.5777
  185POPC     P21164   2.738   5.271   6.372 -0.4039  0.4592 -0.2011
  185POPC   O1321165   2.806   5.335   6.257  0.0163 -0.1840 -0.2438
  185POPC   O1421166   2.638   5.353   6.445  0.2115 -0.2747  0.2066
  185POPC   O1221167   2.852   5.220   6.470 -0.1466 -0.7647 -0.4795
  185POPC   O1121168   2.673   5.133   6.328 -0.4474  0.4315  0.5433
  185POPC    C121169   2.746   5.010   6.315  0.5363 -0.3159 -0.2957
  185POPC    HA21170   2.696   4.935   6.380  2.6834 -1.6512 -0.1052
  185POPC    HB21171   2.852   5.018   6.344  0.4898 -1.9654  0.4360
  185POPC    C221172   2.746   4.961   6.164  0.5857 -0.2921 -0.6086
  185POPC    HS21173   2.809   4.870   6.167  0.2449 -0.5249  1.7740
  185POPC   O2121174   2.804   5.069   6.086  0.1042  0.5378 -0.3072
  185POPC   C2121175   2.941   5.074   6.074  0.0898  1.0127 -0.2634
  185POPC   O2221176   3.012   4.996   6.139 -0.6690  0.3986  0.4727
  185POPC   C2221177   2.982   5.172   5.975 -0.0237 -0.4532  1.0026
  185POPC   H2R21178   3.082   5.144   5.935 -0.3482 -0.5001  0.2079
  185POPC   H2S21179   3.007   5.271   6.019  2.0516 -0.2720 -0.3880
  185POPC    C321180   2.608   4.911   6.112 -0.3438  0.0874 -0.2698
  185POPC    HX21181   2.531   4.981   6.073 -1.0246 -0.4461  0.0746
  185POPC    HY21182   2.559   4.852   6.192  1.0065 -1.3363 -0.4512
  185POPC   O3121183   2.646   4.832   5.997  0.0582 -0.1303  0.1557
  185POPC   C3121184   2.539   4.797   5.921 -0.3075  0.5233 -0.0783
  185POPC   O3221185   2.424   4.824   5.950 -0.1805 -0.2419 -1.4612
  185POPC   C3221186   2.573   4.716   5.793 -0.3020 -0.5051  0.1932
  185POPC   H2X21187   2.539   4.610   5.802 -2.4662  0.0837 -0.4065
  185POPC   H2Y21188   2.683   4.711   5.781 -0.5500 -1.9297 -2.0203
  185POPC   C2321189   2.887   5.187   5.853 -0.2434 -0.4744  0.7503
  185POPC   H3R21190   2.912   5.287   5.811 -0.3487 -0.0752  1.6030
  185POPC   H3S21191   2.780   5.200   5.881 -0.5548 -0.5338 -0.3872
  185POPC   C2421192   2.900   5.073   5.754  0.6997 -0.5457 -0.1127
  185POPC   H4R21193   2.838   4.986   5.786  0.2263 -0.7991 -1.6520
  185POPC   H4S21194   3.006   5.039   5.751  0.3709 -1.5435 -1.0059
  185POPC   C2521195   2.837   5.104   5.619  0.3649 -0.4093  0.4108
  185POPC   H5R21196   2.889   5.191   5.573  1.3528 -0.4939  1.3498
  185POPC   H5S21197   2.730   5.129   5.635 -0.2719 -0.3517 -3.0562
  185POPC   C2621198   2.852   4.980   5.527 -0.3257 -0.1388 -0.4377
  185POPC   H6R21199   2.813   4.896   5.588  0.1116 -0.6529 -0.8513
  185POPC   H6S21200   2.960   4.956   5.511  0.5299  2.5668  0.7157
  185POPC   C2721201   2.786   5.009   5.392 -0.8018  0.9135  0.2546
  185POPC   H7R21202   2.853   5.068   5.326 -0.0687  0.1733  0.3288
  185POPC   H7S21203   2.693   5.067   5.413 -3.4474 -2.0577 -2.2840
  185POPC   C2821204   2.751   4.879   5.322  0.1909  1.2117  0.2308
  185POPC   H8R21205   2.723   4.807   5.402  1.9437 -0.1905 -0.3481
  185POPC   H8S21206   2.841   4.847   5.266 -0.0501  0.4447  0.2682
  185POPC   C2921207   2.627   4.909   5.237 -0.1307  0.1910  0.2526
  185POPC   H9121208   2.551   4.965   5.294 -0.2162 -0.0460  0.3706
  185POPC  C21021209   2.594   4.865   5.112 -0.3020  0.2179 -0.0379
  185POPC  H10121210   2.491   4.885   5.077 -0.4616 -1.2529 -0.4710
  185POPC  C21121211   2.674   4.773   5.027  0.6097 -0.6684 -0.4642
  185POPC  H11R21212   2.615   4.684   4.995 -0.9783 -0.9109  2.7383
  185POPC  H11S21213   2.760   4.729   5.083  3.5998  0.7250 -3.6259
  185POPC  C21221214   2.738   4.854   4.917 -0.1821  0.3099  0.0592
  185POPC  H12R21215   2.785   4.769   4.863 -0.6666 -2.3347  3.4533
  185POPC  H12S21216   2.819   4.927   4.939 -0.0035 -0.0123  0.4704
  185POPC  C21321217   2.641   4.920   4.812 -0.4702  0.4382  0.7510
  185POPC  H13R21218   2.700   4.965   4.729 -2.6337 -1.4578 -1.9894
  185POPC  H13S21219   2.561   4.989   4.849 -2.4541 -2.7023  2.7983
  185POPC  C21421220   2.565   4.813   4.735  0.1101  0.1673 -0.3689
  185POPC  H14R21221   2.502   4.748   4.798 -0.9173 -0.3413 -1.8519
  185POPC  H14S21222   2.636   4.742   4.688  0.7654  0.8802 -0.4855
  185POPC  C21521223   2.480   4.872   4.618  0.2288  0.4656 -0.2352
  185POPC  H15R21224   2.544   4.933   4.551  1.6953 -1.0671 -0.3032
  185POPC  H15S21225   2.403   4.942   4.655  1.6517  2.1668 -0.3768
  185POPC  C21621226   2.422   4.758   4.529  0.6434  0.1045  1.3180
  185POPC  H16R21227   2.330   4.716   4.576 -1.5890  0.9318 -1.9560
  185POPC  H16S21228   2.500   4.681   4.508 -0.2673 -0.3182 -0.7503
  185POPC  C21721229   2.381   4.815   4.388  0.3939 -0.1523 -0.9489
  185POPC  H17R21230   2.324   4.910   4.393  0.2650 -0.2639 -0.2792
  185POPC  H17S21231   2.295   4.758   4.347 -0.9724  0.7917  0.5390
  185POPC  C21821232   2.498   4.824   4.296  0.1078  0.1235  0.4793
  185POPC  H18R21233   2.563   4.734   4.292  1.1556  0.9158 -2.1058
  185POPC  H18S21234   2.556   4.914   4.327  0.9096 -0.4961  0.8073
  185POPC  H18T21235   2.456   4.847   4.196 -0.2701 -0.2492  0.5502
  185POPC   C3321236   2.522   4.784   5.667 -0.1512  0.0950  0.0511
  185POPC   H3X21237   2.596   4.847   5.613 -1.2384 -0.4102 -2.1230
  185POPC   H3Y21238   2.444   4.863   5.678 -0.0658  0.2197 -0.2282
  185POPC   C3421239   2.470   4.678   5.567 -0.3864  0.2792  0.0245
  185POPC   H4X21240   2.407   4.606   5.623 -1.7822  1.1666 -0.3403
  185POPC   H4Y21241   2.554   4.621   5.522 -1.5401 -1.3988 -0.0960
  185POPC   C3521242   2.380   4.735   5.458  0.1640 -0.9583  0.2676
  185POPC   H5X21243   2.425   4.809   5.388 -1.2324  0.3920  0.7501
  185POPC   H5Y21244   2.295   4.784   5.510  0.7916  0.1240  0.3090
  185POPC   C3621245   2.309   4.621   5.369 -0.2649  0.0433 -0.2465
  185POPC   H6X21246   2.210   4.663   5.342 -0.3485  0.4123  0.5948
  185POPC   H6Y21247   2.292   4.530   5.431 -2.0385  0.2134 -0.4314
  185POPC   C3721248   2.389   4.588   5.239  0.8316  0.1653 -0.3333
  185POPC   H7X21249   2.486   4.543   5.269  1.2968  2.5533  2.1309
  185POPC   H7Y21250   2.410   4.683   5.185 -1.4486  0.6228 -0.5392
  185POPC   C3821251   2.300   4.497   5.158 -0.8353 -0.2417  0.1133
  185POPC   H8X21252   2.197   4.539   5.149 -1.5201 -1.7942  0.3019
  185POPC   H8Y21253   2.309   4.401   5.212 -0.3954 -0.4263 -0.2808
  185POPC   C3921254   2.361   4.477   5.022  0.3606  0.2421  0.6932
  185POPC   H9X21255   2.465   4.441   5.029  0.8322  1.6030  1.0757
  185POPC   H9Y21256   2.361   4.574   4.968 -1.6666  0.8958  1.7347
  185POPC  C31021257   2.278   4.384   4.933 -0.9546 -0.3098 -0.1114
  185POPC  H10X21258   2.177   4.430   4.942 -0.6812 -0.0717  2.2724
  185POPC  H10Y21259   2.277   4.283   4.980 -1.2914 -2.0095 -3.4381
  185POPC  C31121260   2.328   4.375   4.793 -0.1451  0.4562  0.4525
  185POPC  H11X21261   2.427   4.323   4.794 -0.4196 -0.3265 -2.6752
  185POPC  H11Y21262   2.347   4.474   4.748 -0.0316 -0.0405 -0.6174
  185POPC  C31221263   2.235   4.315   4.683 -0.5909  0.1023  0.4132
  185POPC  H12X21264   2.139   4.365   4.707  0.1480  1.4042  0.7530
  185POPC  H12Y21265   2.235   4.205   4.698  2.5049  0.2825  2.9350
  185POPC  C31321266   2.288   4.356   4.539  0.7215  0.4072  0.7678
  185POPC  H13X21267   2.393   4.322   4.527 -0.1223 -3.0728  2.0576
  185POPC  H13Y21268   2.281   4.465   4.519  0.2639  0.5901  1.8636
  185POPC  C31421269   2.203   4.283   4.428  0.1174 -0.2979  0.3930
  185POPC  H14X21270   2.097   4.314   4.438  0.2856  0.6530 -0.6208
  185POPC  H14Y21271   2.219   4.177   4.457 -0.5182 -1.1003 -1.9004
  185POPC  C31521272   2.255   4.295   4.283 -0.3307 -0.2215  0.4256
  185POPC  H15X21273   2.186   4.238   4.217 -1.4391  2.6525 -1.0578
  185POPC  H15Y21274   2.354   4.246   4.288 -0.8734 -1.4691 -0.5293
  185POPC  C31621275   2.260   4.436   4.233  0.1827 -1.3365  0.0253
  185POPC  H16X21276   2.336   4.494   4.290 -0.7154 -2.2442  2.2791
  185POPC  H16Y21277   2.157   4.473   4.249  0.4910  0.2758 -1.4487
  185POPC  H16Z21278   2.268   4.448   4.123 -0.7905 -0.2602  0.0539
  186POPC     N21279   5.055   2.030   6.707  0.4716  0.9853  0.4218
  186POPC   C1221280   5.058   1.978   6.566  0.2266 -0.1734  0.0830
  186POPC  H12A21281   5.023   1.877   6.552 -0.3087  0.3906 -3.4967
  186POPC  H12B21282   5.161   1.964   6.535  0.0444  1.0137 -1.1555
  186POPC   C1321283   4.913   2.033   6.745 -0.3363 -0.5778 -0.2697
  186POPC  H13A21284   4.885   1.933   6.777 -1.8943 -0.6886 -1.8223
  186POPC  H13B21285   4.886   2.109   6.817 -0.5998 -1.4017  0.5160
  186POPC  H13C21286   4.846   2.057   6.664 -0.5893  1.5513  0.5124
  186POPC   C1421287   5.138   1.954   6.791  0.5889  0.6927 -0.0935
  186POPC  H14A21288   5.227   1.924   6.737 -1.0815 -0.2367 -2.5357
  186POPC  H14B21289   5.157   2.008   6.882 -2.2802 -0.2572  1.1769
  186POPC  H14C21290   5.081   1.868   6.823  2.2452 -0.4625 -0.0494
  186POPC   C1521291   5.106   2.171   6.712  0.1150 -0.7284 -0.3046
  186POPC  H15A21292   5.210   2.175   6.681  0.2596  0.8099  0.2756
  186POPC  H15B21293   5.091   2.222   6.806 -0.5920 -1.3447 -0.0778
  186POPC  H15C21294   5.050   2.226   6.638  1.3136  0.1463 -0.5903
  186POPC   C1121295   4.982   2.057   6.452 -0.2408 -0.2105 -0.0244
  186POPC  H11A21296   4.999   1.996   6.361  0.8350 -1.1219  0.7538
  186POPC  H11B21297   5.031   2.154   6.433 -0.6229  0.2242  1.1281
  186POPC     P21298   4.729   1.966   6.414  0.0477 -0.0655  0.3561
  186POPC   O1321299   4.596   2.015   6.462 -0.1275  0.1429  0.5307
  186POPC   O1421300   4.767   1.830   6.442  0.1816  0.0133 -0.0958
  186POPC   O1221301   4.841   2.069   6.472 -0.5022 -0.1509 -0.4400
  186POPC   O1121302   4.746   1.982   6.264  0.5437 -0.5394 -0.2832
  186POPC    C121303   4.749   2.109   6.199 -0.0340 -0.2749 -0.2067
  186POPC    HA21304   4.796   2.090   6.100 -0.2049  1.1038 -0.5777
  186POPC    HB21305   4.835   2.168   6.238 -0.9951  1.3744 -0.5125
  186POPC    C221306   4.611   2.181   6.188  0.3068  0.5017  0.6803
  186POPC    HS21307   4.575   2.203   6.291 -0.4565  0.8063  0.3500
  186POPC   O2121308   4.510   2.087   6.136  0.2049 -0.0435  0.6846
  186POPC   C2121309   4.380   2.115   6.150 -0.3082  0.1817  0.1107
  186POPC   O2221310   4.326   2.204   6.214 -0.7257 -0.6102  0.1941
  186POPC   C2221311   4.306   2.002   6.093 -0.1317  0.3318 -0.0391
  186POPC   H2R21312   4.246   1.973   6.181  0.8225 -2.1106 -0.1126
  186POPC   H2S21313   4.376   1.927   6.051 -3.5985 -1.8113 -2.4643
  186POPC    C321314   4.616   2.307   6.103 -0.1607 -0.5197 -0.3685
  186POPC    HX21315   4.691   2.368   6.157  0.4962 -1.0455 -0.6703
  186POPC    HY21316   4.517   2.357   6.096  0.0892 -0.2024 -2.0873
  186POPC   O3121317   4.666   2.276   5.975 -0.5032 -0.0655  0.1740
  186POPC   C3121318   4.575   2.248   5.878  0.3758  0.3827  0.4221
  186POPC   O3221319   4.454   2.262   5.876  0.3472  0.6646 -0.3001
  186POPC   C3221320   4.653   2.218   5.756 -0.3138 -0.6334  0.0489
  186POPC   H2X21321   4.710   2.126   5.783  0.8397  0.2562  0.6910
  186POPC   H2Y21322   4.719   2.300   5.721  0.3713 -0.6580  1.2291
  186POPC   C2321323   4.197   2.045   5.988 -0.6057 -0.0752 -0.0181
  186POPC   H3R21324   4.154   2.146   6.005 -0.1200  0.4264 -1.6135
  186POPC   H3S21325   4.109   1.977   5.983 -1.2406  0.7143  0.1068
  186POPC   C2421326   4.248   2.031   5.842  0.1481 -0.2296  0.1181
  186POPC   H4R21327   4.358   2.051   5.841 -0.1502  1.5679 -0.0020
  186POPC   H4S21328   4.197   2.107   5.780 -0.2674 -1.3479 -0.9458
  186POPC   C2521329   4.216   1.900   5.765 -0.3417 -0.3362 -0.9019
  186POPC   H5R21330   4.108   1.879   5.784 -0.1844 -0.7554 -0.4627
  186POPC   H5S21331   4.264   1.819   5.824  1.4418  0.9739 -0.4653
  186POPC   C2621332   4.242   1.903   5.618  0.1110 -0.4507  0.3368
  186POPC   H6R21333   4.343   1.942   5.596 -0.4509  0.5338 -0.5946
  186POPC   H6S21334   4.166   1.979   5.591  0.8370  0.5071  0.9339
  186POPC   C2721335   4.207   1.779   5.537 -0.3821 -0.3287  0.7842
  186POPC   H7R21336   4.103   1.746   5.560 -1.0368  0.4204 -0.9121
  186POPC   H7S21337   4.278   1.702   5.575  1.4298  0.8440 -0.0823
  186POPC   C2821338   4.236   1.792   5.387  0.7030 -0.1765 -0.0042
  186POPC   H8R21339   4.240   1.691   5.343 -0.1291  0.1479 -0.8706
  186POPC   H8S21340   4.343   1.820   5.380  0.5757  0.6631  1.0688
  186POPC   C2921341   4.145   1.881   5.310  0.3179  0.3910 -0.7105
  186POPC   H9121342   4.072   1.936   5.372  0.8799  0.3848 -0.0199
  186POPC  C21021343   4.118   1.876   5.179 -0.6465  0.2662 -0.9530
  186POPC  H10121344   4.046   1.945   5.134 -1.0645  0.1590 -0.4616
  186POPC  C21121345   4.193   1.788   5.088  0.7275 -0.4142  0.3382
  186POPC  H11R21346   4.148   1.687   5.095  0.3809 -0.6079 -3.1231
  186POPC  H11S21347   4.299   1.776   5.117  0.7240  0.4427  0.7636
  186POPC  C21221348   4.199   1.834   4.938 -0.4519  0.5976  0.4295
  186POPC  H12R21349   4.215   1.943   4.929 -3.6152  1.1933  0.8079
  186POPC  H12S21350   4.092   1.825   4.907 -0.6686  2.9341  0.3495
  186POPC  C21321351   4.296   1.753   4.852  0.0201  0.4783 -0.3539
  186POPC  H13R21352   4.291   1.645   4.880  0.3437 -0.3894 -3.2383
  186POPC  H13S21353   4.400   1.790   4.869 -0.8314  2.5166  0.6940
  186POPC  C21421354   4.272   1.779   4.705 -0.3481 -1.0376  0.3466
  186POPC  H14R21355   4.262   1.885   4.676 -0.3415 -1.2885 -0.6089
  186POPC  H14S21356   4.174   1.743   4.666 -0.5432 -0.4904  0.3236
  186POPC  C21521357   4.381   1.720   4.626 -0.3890 -0.1697  0.1467
  186POPC  H15R21358   4.374   1.609   4.622 -0.7936 -0.1941  1.2865
  186POPC  H15S21359   4.474   1.747   4.681  0.6945 -1.1597 -1.1083
  186POPC  C21621360   4.396   1.772   4.477 -0.7011 -0.3493  0.7089
  186POPC  H16R21361   4.455   1.697   4.421 -0.4284  0.2770  0.1377
  186POPC  H16S21362   4.470   1.855   4.482 -0.4146 -0.4236 -1.4922
  186POPC  C21721363   4.268   1.793   4.405 -0.0054 -0.4366  0.1867
  186POPC  H17R21364   4.201   1.865   4.456  0.4892  0.2493 -0.1064
  186POPC  H17S21365   4.207   1.701   4.414 -0.7888  0.1678  1.4133
  186POPC  C21821366   4.287   1.831   4.261 -0.0947  0.5092 -0.1788
  186POPC  H18R21367   4.192   1.845   4.205  0.2455 -1.1173 -1.2214
  186POPC  H18S21368   4.352   1.758   4.208 -2.1387 -1.1903 -0.4721
  186POPC  H18T21369   4.334   1.931   4.261 -0.5689  0.7362 -0.1967
  186POPC   C3321370   4.548   2.204   5.640 -0.1482  0.3033  0.1311
  186POPC   H3X21371   4.488   2.295   5.619 -0.3480  0.0057 -0.6254
  186POPC   H3Y21372   4.478   2.120   5.658  1.0194 -0.7580 -0.1482
  186POPC   C3421373   4.607   2.179   5.498 -0.2725  0.1683 -0.5518
  186POPC   H4X21374   4.669   2.088   5.506 -2.3764 -1.1709  1.6123
  186POPC   H4Y21375   4.674   2.266   5.476 -0.0796  0.3588  0.7003
  186POPC   C3521376   4.511   2.154   5.382 -0.5189  0.4611  0.4196
  186POPC   H5X21377   4.425   2.223   5.376  0.0190  1.1186  0.1816
  186POPC   H5Y21378   4.476   2.049   5.392  0.2235  0.2877  1.4072
  186POPC   C3621379   4.591   2.157   5.258  0.0925  0.1656 -0.4478
  186POPC   H6X21380   4.662   2.071   5.265  0.2402  0.1955 -1.4612
  186POPC   H6Y21381   4.658   2.245   5.262 -0.9519  0.9514  1.9944
  186POPC   C3721382   4.510   2.156   5.130  0.4911 -0.1237  0.0762
  186POPC   H7X21383   4.479   2.259   5.104  4.1628  1.0520 -0.2059
  186POPC   H7Y21384   4.427   2.084   5.143  0.3660 -0.2877 -1.4837
  186POPC   C3821385   4.585   2.100   5.008  0.3141  0.4633  0.2304
  186POPC   H8X21386   4.612   1.994   5.028  0.6129  0.4061 -0.4413
  186POPC   H8Y21387   4.680   2.155   4.989  0.4421  0.7540  1.6061
  186POPC   C3921388   4.501   2.111   4.883 -0.1071 -0.0595  0.1043
  186POPC   H9X21389   4.464   2.210   4.847  1.1666  0.4622  0.1809
  186POPC   H9Y21390   4.412   2.049   4.907  0.4263 -0.3920  1.2897
  186POPC  C31021391   4.573   2.042   4.764  0.0039  0.7008 -0.7894
  186POPC  H10X21392   4.500   2.034   4.681  0.9874 -1.4653 -1.5029
  186POPC  H10Y21393   4.606   1.937   4.779  1.7120  1.0730 -1.6361
  186POPC  C31121394   4.683   2.124   4.704 -0.3351  0.5544 -0.0103
  186POPC  H11X21395   4.777   2.121   4.764  0.0858 -1.0523 -0.6868
  186POPC  H11Y21396   4.642   2.227   4.701 -1.5046  0.1025  0.0173
  186POPC  C31221397   4.720   2.074   4.561  0.2692  0.8740 -0.2200
  186POPC  H12X21398   4.625   2.060   4.506  0.7543 -0.4187 -0.7615
  186POPC  H12Y21399   4.764   1.973   4.552 -2.2507 -0.3101  0.0163
  186POPC  C31321400   4.813   2.170   4.483  0.8723  1.2447  0.1041
  186POPC  H13X21401   4.913   2.152   4.528  0.4514  2.5816  1.6775
  186POPC  H13Y21402   4.776   2.274   4.497 -0.0205  1.2883 -2.1397
  186POPC  C31421403   4.844   2.132   4.332 -0.0773 -0.1979  0.1059
  186POPC  H14X21404   4.883   2.028   4.338 -0.5308 -0.2856  2.4797
  186POPC  H14Y21405   4.930   2.197   4.305  0.8310 -1.9398 -1.3819
  186POPC  C31521406   4.733   2.151   4.231  0.3985  1.0452  0.2000
  186POPC  H15X21407   4.685   2.250   4.245 -0.5244  0.4705  1.1961
  186POPC  H15Y21408   4.652   2.077   4.247 -0.9992  2.7662  1.4294
  186POPC  C31621409   4.784   2.153   4.090  0.1386  0.5386  0.0501
  186POPC  H16X21410   4.858   2.234   4.071  2.6743 -1.4515  0.9029
  186POPC  H16Y21411   4.692   2.156   4.027  0.0671  1.7969  0.1944
  186POPC  H16Z21412   4.842   2.061   4.068 -1.0930 -0.7032  1.7998
  187POPC     N21413   1.510   4.760   1.593 -0.7977 -0.0780  1.3637
  187POPC   C1221414   1.542   4.736   1.739 -0.5453  0.0263  0.0405
  187POPC  H12A21415   1.640   4.775   1.760  0.0052 -1.2618 -0.0584
  187POPC  H12B21416   1.553   4.630   1.757 -0.2624 -0.1526 -1.1618
  187POPC   C1321417   1.613   4.695   1.509  0.3774  0.6957  0.7845
  187POPC  H13A21418   1.715   4.717   1.539  0.6297 -0.2057  0.6227
  187POPC  H13B21419   1.604   4.589   1.523 -2.5235  0.7281 -0.3591
  187POPC  H13C21420   1.585   4.713   1.407 -0.6151 -1.9637  0.5108
  187POPC   C1421421   1.374   4.705   1.559  0.1863 -0.4397  0.2049
  187POPC  H14A21422   1.306   4.728   1.639 -3.4449 -1.1544 -2.3804
  187POPC  H14B21423   1.321   4.765   1.486 -0.4137 -0.0652  0.9418
  187POPC  H14C21424   1.380   4.598   1.543 -0.1951 -0.7019  1.6896
  187POPC   C1521425   1.492   4.911   1.565  0.2328 -0.9192  0.3195
  187POPC  H15A21426   1.404   4.943   1.617  0.6246 -0.1856  0.5480
  187POPC  H15B21427   1.466   4.921   1.461  0.3424 -1.0951  0.2735
  187POPC  H15C21428   1.577   4.977   1.579 -0.3420  0.1623 -1.0917
  187POPC   C1121429   1.439   4.788   1.841 -0.2735 -0.2440 -0.6422
  187POPC  H11A21430   1.419   4.895   1.817 -0.4176 -0.5349 -1.8572
  187POPC  H11B21431   1.492   4.785   1.939  2.6525  1.7686 -1.9895
  187POPC     P21432   1.313   4.568   1.897  0.1751  0.0188 -0.2063
  187POPC   O1321433   1.443   4.500   1.886  0.0691 -0.2062 -0.0323
  187POPC   O1421434   1.190   4.494   1.850  0.3207  0.0002  0.0005
  187POPC   O1221435   1.321   4.712   1.834  0.0018  0.2163 -0.2742
  187POPC   O1121436   1.290   4.603   2.046 -0.9381 -0.2201  0.4306
  187POPC    C121437   1.198   4.706   2.086 -0.3328  0.2994  0.2935
  187POPC    HA21438   1.092   4.689   2.059 -0.5403  1.0156  0.6246
  187POPC    HB21439   1.229   4.805   2.046  0.1629 -0.0581 -0.2231
  187POPC    C221440   1.208   4.735   2.241  0.6879  0.2649  0.0596
  187POPC    HS21441   1.124   4.806   2.255 -0.4870 -1.3917  1.9528
  187POPC   O2121442   1.332   4.791   2.280 -0.5603 -0.2061 -0.0021
  187POPC   C2121443   1.324   4.886   2.378 -0.0061  0.6309 -0.2802
  187POPC   O2221444   1.218   4.926   2.427 -0.1911 -0.4513  0.0240
  187POPC   C2221445   1.460   4.916   2.435 -0.3022  0.0372 -0.5993
  187POPC   H2R21446   1.505   5.011   2.398  0.0991 -0.9171 -2.6709
  187POPC   H2S21447   1.533   4.837   2.407 -0.8840 -1.0169  0.7733
  187POPC    C321448   1.193   4.610   2.322  0.4046  0.1928 -0.2993
  187POPC    HX21449   1.287   4.560   2.291  1.5720  1.7335  0.5816
  187POPC    HY21450   1.101   4.566   2.276 -0.2947 -1.1316  2.1943
  187POPC   O3121451   1.182   4.627   2.463  0.1608  0.9207  0.1315
  187POPC   C3121452   1.070   4.691   2.504 -0.3106  0.5447 -0.2024
  187POPC   O3221453   0.982   4.723   2.428  0.4849 -0.0340  0.2827
  187POPC   C3221454   1.075   4.699   2.659  0.0849  0.9012  0.1603
  187POPC   H2X21455   1.179   4.730   2.683  0.1474  1.7943 -1.1789
  187POPC   H2Y21456   1.062   4.601   2.710 -0.6375  0.7165 -0.3571
  187POPC   C2321457   1.451   4.909   2.591 -0.8081  0.5393 -0.2239
  187POPC   H3R21458   1.550   4.871   2.623  1.1725  3.3646 -2.4481
  187POPC   H3S21459   1.378   4.832   2.623  0.6014 -1.2234 -1.0558
  187POPC   C2421460   1.407   5.043   2.653 -0.2499 -0.8064 -0.5463
  187POPC   H4R21461   1.317   5.088   2.606 -1.4176 -1.2047  1.2102
  187POPC   H4S21462   1.491   5.116   2.652 -0.0722 -0.9968 -0.0172
  187POPC   C2521463   1.382   5.019   2.805 -0.4154 -0.4118 -0.3509
  187POPC   H5R21464   1.293   4.953   2.814 -1.1643  0.3075 -2.0757
  187POPC   H5S21465   1.344   5.113   2.850 -1.0201 -0.1861 -1.3125
  187POPC   C2621466   1.491   4.949   2.888 -0.7195 -0.4914  0.1313
  187POPC   H6R21467   1.589   5.000   2.879 -1.1493  0.3598  0.1076
  187POPC   H6S21468   1.486   4.845   2.851 -2.9263  0.6163 -3.1155
  187POPC   C2721469   1.448   4.950   3.036 -0.3646 -0.0609  1.1416
  187POPC   H7R21470   1.343   4.911   3.038 -1.2546  2.0750 -0.4153
  187POPC   H7S21471   1.442   5.056   3.069  0.3184  0.0018  1.0702
  187POPC   C2821472   1.547   4.867   3.118 -0.5681 -0.2355 -0.1761
  187POPC   H8R21473   1.651   4.889   3.088 -0.3379 -1.4929 -0.3497
  187POPC   H8S21474   1.539   4.760   3.088 -1.2432 -0.5498  1.0343
  187POPC   C2921475   1.514   4.887   3.270  0.3278 -0.7320 -0.2489
  187POPC   H9121476   1.602   4.904   3.334  0.3838 -0.0197 -0.5082
  187POPC  C21021477   1.396   4.913   3.330 -0.4639  0.0128  0.2433
  187POPC  H10121478   1.306   4.932   3.269 -1.2406 -0.0521  1.3513
  187POPC  C21121479   1.368   4.942   3.471  0.2215 -0.0871 -0.0843
  187POPC  H11R21480   1.292   5.022   3.480  2.6798  2.7385 -2.5500
  187POPC  H11S21481   1.455   4.994   3.518  0.0169 -0.1859  0.4093
  187POPC  C21221482   1.320   4.816   3.537  0.1592 -0.0694 -0.4413
  187POPC  H12R21483   1.304   4.843   3.644 -1.4580 -1.4304 -0.3005
  187POPC  H12S21484   1.401   4.742   3.517 -0.5637 -0.1080 -3.8433
  187POPC  C21321485   1.182   4.756   3.493 -0.0622  0.3117 -0.5311
  187POPC  H13R21486   1.196   4.741   3.384  2.5459  2.4224 -0.5944
  187POPC  H13S21487   1.101   4.829   3.515  0.6105  1.3231 -1.2835
  187POPC  C21421488   1.150   4.617   3.561 -0.0242 -0.2769 -0.0982
  187POPC  H14R21489   1.239   4.550   3.555  0.4869  0.2933  0.8473
  187POPC  H14S21490   1.057   4.574   3.517  0.8005 -1.6629 -0.5729
  187POPC  C21521491   1.114   4.637   3.709  0.4463  0.3492  0.1202
  187POPC  H15R21492   1.022   4.698   3.720  0.0356 -0.5618  2.3339
  187POPC  H15S21493   1.196   4.702   3.746  1.0078 -0.1750 -0.1661
  187POPC  C21621494   1.106   4.509   3.787 -0.3039  0.7149 -0.0680
  187POPC  H16R21495   1.204   4.461   3.806 -0.9583 -0.3274  0.7439
  187POPC  H16S21496   1.057   4.431   3.726  0.4168  1.8575 -2.2168
  187POPC  C21721497   1.035   4.527   3.922 -0.2445  0.3131  0.4998
  187POPC  H17R21498   0.953   4.602   3.921 -0.7921 -0.2655 -0.3110
  187POPC  H17S21499   1.115   4.564   3.989 -0.7434 -1.1921  1.9947
  187POPC  C21821500   0.984   4.399   3.981 -0.3392 -0.2273  0.0070
  187POPC  H18R21501   1.061   4.328   4.021  0.1258  0.6640  0.7388
  187POPC  H18S21502   0.917   4.347   3.909  0.9125 -0.9020 -0.7170
  187POPC  H18T21503   0.922   4.435   4.065  0.7925 -1.1367  1.2830
  187POPC   C3321504   0.962   4.805   2.694 -0.1569  0.2630 -0.5232
  187POPC   H3X21505   0.862   4.775   2.657 -0.1425 -2.7516  1.4934
  187POPC   H3Y21506   0.995   4.906   2.661 -2.6552  1.2494 -0.1760
  187POPC   C3421507   0.930   4.802   2.843  0.2026 -0.1486 -0.5201
  187POPC   H4X21508   0.898   4.705   2.888  0.9462  0.0083  0.3778
  187POPC   H4Y21509   0.861   4.887   2.856  1.7247  1.5916 -3.0083
  187POPC   C3521510   1.056   4.843   2.931 -0.3334 -0.0493  0.0717
  187POPC   H5X21511   1.083   4.947   2.902  0.5450 -0.2094  0.2964
  187POPC   H5Y21512   1.136   4.777   2.892  0.2289  0.9134 -0.4525
  187POPC   C3621513   1.040   4.833   3.076  0.3833 -0.3564  0.0384
  187POPC   H6X21514   1.128   4.875   3.129  1.3124 -0.3240 -1.4528
  187POPC   H6Y21515   1.047   4.727   3.108  3.6134 -0.1984  0.1591
  187POPC   C3721516   0.913   4.898   3.132 -0.4036  0.3308  0.3394
  187POPC   H7X21517   0.828   4.844   3.085 -0.3808 -0.0417  0.7248
  187POPC   H7Y21518   0.912   5.000   3.088 -3.5875  0.1634 -0.2212
  187POPC   C3821519   0.925   4.906   3.287  0.3955  0.7754  0.1269
  187POPC   H8X21520   1.005   4.975   3.318 -0.7449  2.5706 -0.7667
  187POPC   H8Y21521   0.951   4.806   3.328 -0.0352  0.8986  0.7080
  187POPC   C3921522   0.789   4.947   3.346 -0.1201  0.0789 -0.2195
  187POPC   H9X21523   0.713   4.873   3.315  1.3474 -1.4633 -0.3040
  187POPC   H9Y21524   0.765   5.048   3.304  0.0479 -0.2512 -1.1287
  187POPC  C31021525   0.782   4.947   3.496  0.2496 -0.0730 -0.1139
  187POPC  H10X21526   0.731   5.038   3.533 -1.1691 -1.6458  2.0252
  187POPC  H10Y21527   0.884   4.951   3.540  1.3967 -1.0073 -2.4899
  187POPC  C31121528   0.707   4.829   3.558  0.3139  0.7413  0.2903
  187POPC  H11X21529   0.757   4.742   3.510  0.1420  0.5893  0.3862
  187POPC  H11Y21530   0.604   4.833   3.515  0.4088  1.5756  0.1201
  187POPC  C31221531   0.729   4.827   3.707  0.5268  0.2100 -0.1135
  187POPC  H12X21532   0.839   4.840   3.718  1.0241 -0.5905 -3.1569
  187POPC  H12Y21533   0.711   4.727   3.751 -0.2647  0.7087  0.7278
  187POPC  C31321534   0.651   4.927   3.786 -0.3754  0.0485  0.0855
  187POPC  H13X21535   0.645   5.010   3.712  2.5600 -0.6428 -1.0691
  187POPC  H13Y21536   0.702   4.968   3.876  0.4185 -0.5231 -0.0940
  187POPC  C31421537   0.504   4.871   3.808 -0.6471 -0.3974  0.3798
  187POPC  H14X21538   0.515   4.789   3.882 -1.6233  0.2455  1.2478
  187POPC  H14Y21539   0.471   4.831   3.710  3.1291 -3.3828  0.0977
  187POPC  C31521540   0.406   4.976   3.869  0.4998  0.0780 -0.4450
  187POPC  H15X21541   0.315   4.919   3.895 -0.3295  0.7871 -1.6952
  187POPC  H15Y21542   0.382   5.039   3.781  0.5739  2.1368  0.9274
  187POPC  C31621543   0.456   5.050   3.997 -0.8131 -0.1365 -0.2372
  187POPC  H16X21544   0.373   5.087   4.061  1.1471  3.5855  0.4345
  187POPC  H16Y21545   0.523   5.134   3.970 -0.1069 -1.3524 -2.5530
  187POPC  H16Z21546   0.515   4.973   4.051 -0.8093  0.4784  0.6542
  188POPC     N21547   0.979   0.771   2.171 -0.0548  0.0689 -0.1594
  188POPC   C1221548   0.883   0.714   2.276 -0.1770  0.3773 -0.1818
  188POPC  H12A21549   0.940   0.662   2.351  0.6067  0.6637 -0.5651
  188POPC  H12B21550   0.828   0.632   2.233 -0.6436  0.1550  0.8101
  188POPC   C1321551   1.068   0.665   2.111  0.3383  0.1113 -0.2023
  188POPC  H13A21552   1.110   0.607   2.192 -1.0197  0.1688  0.5694
  188POPC  H13B21553   1.005   0.598   2.056 -0.6333  0.8012  0.0483
  188POPC  H13C21554   1.148   0.706   2.051  0.2937  0.7356  0.1565
  188POPC   C1421555   0.908   0.838   2.061  0.4299  0.3189 -0.3700
  188POPC  H14A21556   0.861   0.926   2.101  1.2562  0.7006 -0.2316
  188POPC  H14B21557   0.967   0.879   1.980  1.5599 -0.1341  0.2019
  188POPC  H14C21558   0.826   0.773   2.031 -0.1960  0.3080  1.2802
  188POPC   C1521559   1.069   0.873   2.230 -0.5444 -0.2499 -0.5204
  188POPC  H15A21560   1.138   0.819   2.293  0.6198  0.4726 -1.1196
  188POPC  H15B21561   1.019   0.959   2.273 -2.2299 -0.3990 -2.0767
  188POPC  H15C21562   1.136   0.916   2.156 -0.4429  1.2227  0.3745
  188POPC   C1121563   0.783   0.821   2.346 -0.6648 -0.2732  0.1170
  188POPC  H11A21564   0.850   0.889   2.403  1.5693 -2.7901  0.7102
  188POPC  H11B21565   0.719   0.778   2.426 -1.8161  3.4592  1.4482
  188POPC     P21566   0.556   0.883   2.236  0.0354 -0.1767  0.0472
  188POPC   O1321567   0.532   0.756   2.169  0.4414  0.2217  0.1329
  188POPC   O1421568   0.505   1.000   2.164  0.3188 -0.6381  0.1682
  188POPC   O1221569   0.711   0.899   2.250  0.3567 -0.3170  0.3582
  188POPC   O1121570   0.513   0.893   2.388  0.2382  0.1093 -0.5979
  188POPC    C121571   0.503   1.022   2.449  0.2740 -0.6067  0.4282
  188POPC    HA21572   0.439   1.089   2.387 -1.3496 -0.4167  2.2291
  188POPC    HB21573   0.607   1.061   2.452  0.7904 -1.8150 -0.4068
  188POPC    C221574   0.450   1.024   2.591 -0.0865  0.2303  0.7226
  188POPC    HS21575   0.461   1.126   2.631 -1.3211  0.8988 -0.5290
  188POPC   O2121576   0.503   0.933   2.686  0.5167 -0.4191  0.3833
  188POPC   C2121577   0.631   0.912   2.697 -0.0891  0.2969 -0.0971
  188POPC   O2221578   0.727   0.980   2.661 -0.4935  0.2052  0.0701
  188POPC   C2221579   0.641   0.772   2.759  0.2505 -0.5487  0.3888
  188POPC   H2R21580   0.740   0.772   2.810 -0.2061  0.3980  1.2922
  188POPC   H2S21581   0.651   0.700   2.675  0.2961 -0.2806  0.1643
  188POPC    C321582   0.298   1.005   2.581  0.3329 -0.1353 -0.6875
  188POPC    HX21583   0.285   0.922   2.508  2.0659 -0.9346 -0.1484
  188POPC    HY21584   0.247   1.092   2.535 -0.5167 -0.0305  0.4075
  188POPC   O3121585   0.236   0.966   2.712 -0.2792 -0.2721 -0.0376
  188POPC   C3121586   0.232   1.068   2.800  0.4340  0.1475  0.3575
  188POPC   O3221587   0.261   1.187   2.781 -0.2211  0.5457  0.8413
  188POPC   C3221588   0.180   1.024   2.931 -0.2571 -0.9232 -0.9371
  188POPC   H2X21589   0.188   0.915   2.949  0.3029 -0.4925  1.8915
  188POPC   H2Y21590   0.074   1.056   2.941  0.0711  0.2131 -0.9484
  188POPC   C2321591   0.534   0.733   2.861  0.4759  0.4918 -0.5613
  188POPC   H3R21592   0.536   0.622   2.870 -0.4528  0.6358  2.7402
  188POPC   H3S21593   0.433   0.767   2.828 -0.0399  0.2767  0.7363
  188POPC   C2421594   0.563   0.784   3.004  0.0544  0.1976  0.3665
  188POPC   H4R21595   0.551   0.893   2.988  2.2983  0.4422  0.0122
  188POPC   H4S21596   0.666   0.762   3.039  0.7365 -0.7430 -2.0317
  188POPC   C2521597   0.465   0.740   3.114  0.4337  0.6672  0.4585
  188POPC   H5R21598   0.443   0.632   3.117  0.7612  0.5766 -0.1982
  188POPC   H5S21599   0.371   0.799   3.109 -0.0473 -0.1632 -0.4463
  188POPC   C2621600   0.513   0.790   3.257  0.7676  0.6573 -0.1036
  188POPC   H6R21601   0.537   0.898   3.246 -0.9891  1.0792 -0.0005
  188POPC   H6S21602   0.603   0.728   3.278  0.5815  0.5452  0.3772
  188POPC   C2721603   0.418   0.771   3.375  0.9168  0.5766 -0.1243
  188POPC   H7R21604   0.380   0.668   3.368  1.9190  0.2658 -1.8557
  188POPC   H7S21605   0.329   0.837   3.367  0.2270 -0.3368 -0.0510
  188POPC   C2821606   0.488   0.790   3.512  0.1158 -0.2350 -1.4639
  188POPC   H8R21607   0.584   0.733   3.505  0.5977 -0.0519  1.9641
  188POPC   H8S21608   0.434   0.734   3.591  2.2271  0.9887  1.0126
  188POPC   C2921609   0.525   0.929   3.567 -0.2140  0.0071  0.8322
  188POPC   H9121610   0.612   0.974   3.517 -0.9214  0.8562  0.3456
  188POPC  C21021611   0.458   1.006   3.652  0.1095 -0.9730 -0.1412
  188POPC  H10121612   0.494   1.105   3.684 -1.1760 -0.4462 -0.2403
  188POPC  C21121613   0.332   0.963   3.719 -0.0733 -0.6730 -0.7612
  188POPC  H11R21614   0.321   0.856   3.746 -1.5975  0.1245  2.1749
  188POPC  H11S21615   0.255   0.984   3.642 -1.3573 -1.1635  0.3551
  188POPC  C21221616   0.299   1.039   3.853  0.7262 -0.0654  0.1604
  188POPC  H12R21617   0.381   1.023   3.927  0.4663 -0.0994  0.4422
  188POPC  H12S21618   0.215   0.991   3.908  0.6468  0.9709  0.9623
  188POPC  C21321619   0.267   1.188   3.829  0.0333 -0.1627  0.0903
  188POPC  H13R21620   0.194   1.181   3.746 -1.8036  0.4945  1.5896
  188POPC  H13S21621   0.358   1.233   3.784  1.4044 -0.9061  1.9734
  188POPC  C21421622   0.215   1.273   3.952 -0.9523 -0.4520 -0.1019
  188POPC  H14R21623   0.196   1.379   3.923 -0.1620 -0.6061 -1.2809
  188POPC  H14S21624   0.301   1.277   4.022 -2.1299 -0.0940  1.3610
  188POPC  C21521625   0.092   1.214   4.023  0.4132 -0.1529 -0.2029
  188POPC  H15R21626   0.124   1.117   4.066  0.5665 -0.1517 -0.3128
  188POPC  H15S21627   0.017   1.189   3.944 -0.0783 -0.3435  0.3205
  188POPC  C21621628   0.028   1.313   4.124  0.0892 -0.6030  0.2496
  188POPC  H16R21629   0.007   1.409   4.072 -0.0607 -1.0992 -0.6345
  188POPC  H16S21630   0.107   1.328   4.201 -0.1887 -1.7463  0.7722
  188POPC  C21721631  -0.093   1.247   4.194 -0.2628 -0.7187  0.8810
  188POPC  H17R21632  -0.075   1.142   4.228 -1.2693 -1.0427  0.4585
  188POPC  H17S21633  -0.167   1.231   4.112 -0.7437 -0.1990  1.2073
  188POPC  C21821634  -0.162   1.318   4.308 -0.3011  0.2210  0.6796
  188POPC  H18R21635  -0.244   1.387   4.279 -0.6951 -0.1980  0.7796
  188POPC  H18S21636  -0.080   1.368   4.363  1.1965 -0.9036 -0.4516
  188POPC  H18T21637  -0.218   1.250   4.376 -1.5042  0.4524 -0.0540
  188POPC   C3321638   0.269   1.095   3.043 -0.7847 -0.5704 -0.7500
  188POPC   H3X21639   0.268   1.205   3.031  2.0359 -0.5837 -2.0241
  188POPC   H3Y21640   0.375   1.062   3.044 -0.1300  1.4154 -1.3107
  188POPC   C3421641   0.206   1.053   3.184  0.0764  0.0122  0.1106
  188POPC   H4X21642   0.224   0.945   3.202 -0.6277 -0.0764  0.3032
  188POPC   H4Y21643   0.097   1.071   3.175 -0.3378 -2.1906  0.2615
  188POPC   C3521644   0.279   1.123   3.298  0.1023 -0.6842  0.8375
  188POPC   H5X21645   0.389   1.125   3.285  0.2116 -1.5207  1.5406
  188POPC   H5Y21646   0.263   1.060   3.389 -0.9126 -3.0360 -0.8655
  188POPC   C3621647   0.227   1.269   3.323  0.8542  0.1062 -0.2701
  188POPC   H6X21648   0.119   1.266   3.297  0.5818 -1.3417  0.8666
  188POPC   H6Y21649   0.294   1.333   3.262  1.6129  2.0897  2.4572
  188POPC   C3721650   0.237   1.314   3.471  0.2195 -0.0373 -0.3161
  188POPC   H7X21651   0.345   1.303   3.494  0.1286  1.1430  0.8317
  188POPC   H7Y21652   0.174   1.244   3.531  2.1407 -1.5085  0.0929
  188POPC   C3821653   0.209   1.468   3.497  0.2031 -0.3772  0.3254
  188POPC   H8X21654   0.112   1.490   3.447  0.5884  0.5559 -0.0201
  188POPC   H8Y21655   0.295   1.516   3.446  0.9946  0.1851  2.1194
  188POPC   C3921656   0.207   1.514   3.641  0.5790  0.4196 -0.2756
  188POPC   H9X21657   0.295   1.458   3.678 -0.6934 -2.1897 -0.9127
  188POPC   H9Y21658   0.119   1.480   3.700 -0.4255  0.0905 -1.8928
  188POPC  C31021659   0.220   1.671   3.661  0.3445  0.4497  0.7784
  188POPC  H10X21660   0.125   1.721   3.633  1.0358  0.5518 -1.6258
  188POPC  H10Y21661   0.295   1.710   3.589 -1.0841  0.4445 -0.7589
  188POPC  C31121662   0.262   1.707   3.800  0.8081 -0.3992  0.3235
  188POPC  H11X21663   0.352   1.651   3.835  1.8383 -1.0145 -2.9600
  188POPC  H11Y21664   0.178   1.672   3.865 -0.1119 -0.4478 -0.8547
  188POPC  C31221665   0.273   1.864   3.809  0.8599 -0.3224 -0.0813
  188POPC  H12X21666   0.178   1.908   3.773  0.2140 -0.4894  1.3519
  188POPC  H12Y21667   0.359   1.898   3.748 -0.2938 -0.3143 -1.7751
  188POPC  C31321668   0.284   1.920   3.947 -0.3601  0.2709  0.1749
  188POPC  H13X21669   0.379   1.892   3.997 -0.2025  0.9610  0.2693
  188POPC  H13Y21670   0.200   1.881   4.008 -0.7003 -1.6038 -1.3724
  188POPC  C31421671   0.253   2.073   3.958 -0.5096 -0.0853  0.3052
  188POPC  H14X21672   0.281   2.110   4.058 -0.2946  0.7314 -0.0473
  188POPC  H14Y21673   0.145   2.092   3.942 -0.0251  1.0567 -2.1657
  188POPC  C31521674   0.340   2.159   3.864 -0.7173  0.8559 -0.0033
  188POPC  H15X21675   0.326   2.123   3.760 -0.8438 -0.4134  0.4266
  188POPC  H15Y21676   0.447   2.133   3.879 -0.4154  2.4937  0.9397
  188POPC  C31621677   0.322   2.305   3.888  0.3242 -1.0409  0.0159
  188POPC  H16X21678   0.400   2.364   3.836  0.0047  2.9948  3.5561
  188POPC  H16Y21679   0.322   2.323   3.997 -0.4885  0.4634 -0.1997
  188POPC  H16Z21680   0.215   2.319   3.861 -0.2108 -3.6098  0.5198
  189SAPI   C1221681   3.446   2.357   6.571  0.5531  0.1126  0.2163
  189SAPI    H221682   3.464   2.409   6.667 -1.1777  1.2394 -0.0228
  189SAPI    O221683   3.499   2.224   6.580  0.1476 -0.2374  0.7155
  189SAPI   HO221684   3.587   2.249   6.611 -0.7121  1.8206  1.7199
  189SAPI   C1321685   3.288   2.354   6.553  0.0151 -0.3719 -0.0944
  189SAPI    H321686   3.264   2.462   6.553 -3.4283 -1.0216 -1.5842
  189SAPI    O321687   3.226   2.281   6.657  0.7738  0.0105 -0.5131
  189SAPI   HO321688   3.229   2.185   6.654 -1.3121 -0.1127  0.0883
  189SAPI   C1421689   3.255   2.295   6.419 -0.0026 -0.2397  0.5510
  189SAPI    H421690   3.265   2.184   6.429  1.7913 -0.2103 -0.4319
  189SAPI    O421691   3.117   2.312   6.383 -0.4694  0.0304 -0.8268
  189SAPI   HO421692   3.101   2.405   6.398 -1.2950 -0.2208 -0.1011
  189SAPI   C1521693   3.357   2.321   6.302 -0.0668  0.3041  0.1895
  189SAPI    H521694   3.315   2.411   6.252 -1.2717  1.4936  3.1416
  189SAPI    O521695   3.348   2.223   6.200 -0.2384  0.1667  0.2408
  189SAPI   HO521696   3.413   2.159   6.231  0.2688  0.9547  0.8331
  189SAPI   C1621697   3.501   2.365   6.332  0.6192 -0.0259  0.4296
  189SAPI    H621698   3.567   2.276   6.326  0.1001 -0.3639 -0.3730
  189SAPI    O621699   3.550   2.455   6.231  0.1488 -0.0440  0.4133
  189SAPI   HO621700   3.646   2.443   6.233  0.2105  0.3163 -0.0948
  189SAPI   C1121701   3.518   2.433   6.462 -0.4081  0.1929  0.0732
  189SAPI    H121702   3.463   2.530   6.455 -1.4468 -0.2985  1.0164
  189SAPI     P21703   3.728   2.593   6.479 -0.0750  0.1284  0.0335
  189SAPI   O1321704   3.849   2.574   6.566 -0.0061  0.0360 -0.0505
  189SAPI   O1421705   3.636   2.703   6.523  0.5317 -0.0664 -0.7066
  189SAPI   O1221706   3.657   2.441   6.504  0.4247 -0.4567  0.1145
  189SAPI   O1121707   3.765   2.597   6.328  0.7227 -0.4599  0.3150
  189SAPI    C121708   3.858   2.516   6.264  0.5440 -0.3194 -0.2726
  189SAPI    HA21709   3.880   2.423   6.321  1.9088  0.8360  1.2118
  189SAPI    HB21710   3.822   2.469   6.170 -0.4922 -2.5075  1.1264
  189SAPI    C221711   3.980   2.592   6.227 -0.7139  0.0526 -0.3568
  189SAPI    HS21712   4.003   2.663   6.309  0.8914  1.5776 -2.0209
  189SAPI   O2121713   3.943   2.663   6.103  0.7771  0.3411  0.7222
  189SAPI   C2121714   4.029   2.766   6.090 -0.1377  0.1283 -0.0646
  189SAPI   O2221715   4.117   2.793   6.166  0.0441 -0.3880 -0.5188
  189SAPI   C2221716   3.983   2.841   5.969 -0.3062  0.6468 -0.7161
  189SAPI   H2R21717   3.954   2.764   5.894  1.0439 -0.7021  0.0876
  189SAPI   H2S21718   3.897   2.893   6.017  1.2199  0.7200  2.0968
  189SAPI    C321719   4.105   2.499   6.210 -0.3707 -0.2235  0.2801
  189SAPI    HX21720   4.103   2.443   6.306 -0.9804  0.0700  0.4417
  189SAPI    HY21721   4.196   2.561   6.223 -0.5192 -0.3051  1.9666
  189SAPI   O3121722   4.096   2.416   6.094 -0.5679  0.2073  0.2776
  189SAPI   C3121723   4.164   2.453   5.978  0.1156 -0.3161 -0.5254
  189SAPI   O3221724   4.254   2.535   5.970  0.1387  0.3664 -0.4659
  189SAPI   C3221725   4.084   2.408   5.867  0.5251 -0.2226 -0.0120
  189SAPI   H2X21726   3.991   2.468   5.875  0.0821 -0.9857  0.7740
  189SAPI   H2Y21727   4.046   2.305   5.886  1.2124 -0.3428  0.7737
  189SAPI   C2321728   4.079   2.939   5.906  0.1772  0.5767 -0.0345
  189SAPI   H3R21729   4.120   3.008   5.983  1.9096  0.2313 -0.5925
  189SAPI   H3S21730   4.025   3.002   5.832 -0.5097  0.5866  0.4682
  189SAPI   C2421731   4.193   2.869   5.828 -0.6084  0.3375  0.0591
  189SAPI   H4R21732   4.165   2.768   5.790 -0.4069  0.7847 -1.3424
  189SAPI   H4S21733   4.274   2.843   5.899  1.1150 -0.2953 -2.0292
  189SAPI   C2521734   4.244   2.951   5.708  0.6546  0.2444  0.4753
  189SAPI   H5R21735   4.326   3.021   5.727 -0.0019  0.4173  3.2567
  189SAPI   C2621736   4.201   2.958   5.579 -0.3435 -0.4181 -0.5369
  189SAPI   H6R21737   4.265   3.017   5.512 -0.9645  0.2069 -0.5921
  189SAPI   C2721738   4.084   2.878   5.528 -0.3002 -0.1257  0.2060
  189SAPI   H7R21739   4.010   2.946   5.479  1.9613  0.2181 -3.1251
  189SAPI   H7S21740   4.035   2.838   5.619  0.1262 -2.7259 -0.6162
  189SAPI   C2821741   4.112   2.761   5.442  0.3354  1.6176 -0.0656
  189SAPI   H8R21742   4.208   2.708   5.451  0.2733  1.1178 -1.8715
  189SAPI   C2921743   4.040   2.713   5.336 -0.2138  0.4194 -0.0063
  189SAPI   H9R21744   4.084   2.621   5.294  2.1349  0.9353  1.1629
  189SAPI  C21021745   3.907   2.752   5.279 -0.1081  0.0522 -0.1885
  189SAPI  H10R21746   3.937   2.814   5.192 -3.8839 -0.5158 -2.0876
  189SAPI  H10S21747   3.852   2.813   5.354 -0.7090  2.9053 -2.7585
  189SAPI  C21121748   3.812   2.642   5.228  0.4859  0.4090  0.1784
  189SAPI  H11R21749   3.769   2.583   5.311  1.8883  0.9321  1.3234
  189SAPI  C21221750   3.804   2.599   5.103  0.0690  0.5704 -0.3047
  189SAPI  H12R21751   3.742   2.510   5.081  2.0870 -1.3912  1.4300
  189SAPI  C21321752   3.882   2.656   4.988 -0.1065  0.0202 -0.2424
  189SAPI  H13R21753   3.884   2.574   4.913  0.3544  0.4278 -0.6779
  189SAPI  H13S21754   3.981   2.660   5.036 -1.1730 -2.0040  2.3849
  189SAPI  C21421755   3.832   2.790   4.938 -0.3160 -0.4822  0.1279
  189SAPI  H14R21756   3.845   2.877   5.004 -1.1079  0.8687 -1.4168
  189SAPI  C21521757   3.792   2.816   4.814 -0.0349 -0.5264 -0.4212
  189SAPI  H15R21758   3.756   2.917   4.794 -1.1976 -0.4830  1.6175
  189SAPI  C21621759   3.797   2.726   4.696 -0.1235  0.6841 -0.2904
  189SAPI  H16R21760   3.696   2.682   4.674 -0.4237  1.6412 -0.8707
  189SAPI  H16S21761   3.868   2.641   4.706  0.4205  0.9191 -1.8009
  189SAPI  C21721762   3.839   2.801   4.569 -0.6430 -0.3390  0.7036
  189SAPI  H17R21763   3.944   2.830   4.589 -1.2511  1.0741  2.0055
  189SAPI  H17S21764   3.800   2.904   4.554 -1.9691 -0.7240  1.3990
  189SAPI  C21821765   3.828   2.709   4.446  0.4913 -0.8333  0.1515
  189SAPI  H18R21766   3.815   2.779   4.360  1.1085 -1.2395 -0.2804
  189SAPI  H18S21767   3.736   2.647   4.449  0.1471 -0.3506 -0.1748
  189SAPI  C21921768   3.935   2.601   4.429  0.0445 -0.0187 -0.2107
  189SAPI  H19R21769   3.903   2.532   4.348  1.7313 -1.7379  0.5015
  189SAPI  H19S21770   3.938   2.552   4.529 -0.5883  0.0615 -0.1450
  189SAPI  C22021771   4.077   2.665   4.396  0.4077 -0.3797  0.2644
  189SAPI  H20R21772   4.078   2.711   4.295 -1.0051 -0.3950  0.2290
  189SAPI  H20S21773   4.156   2.586   4.395  1.3050  0.5040  0.2483
  189SAPI  H20T21774   4.103   2.743   4.470 -0.2459  1.4827 -1.4020
  189SAPI   C3321775   4.152   2.414   5.728 -0.1861  0.3362 -1.0054
  189SAPI   H3X21776   4.253   2.368   5.739 -0.9480 -1.2071 -0.1838
  189SAPI   H3Y21777   4.161   2.519   5.691 -1.2010  0.2131 -1.6284
  189SAPI   C3421778   4.073   2.332   5.623  0.0530  0.1373 -0.3150
  189SAPI   H4X21779   3.964   2.349   5.626  0.1965  1.4924 -1.5280
  189SAPI   H4Y21780   4.090   2.223   5.639  0.7341  0.0752 -1.3018
  189SAPI   C3521781   4.120   2.375   5.487 -0.3971  0.4962  0.2180
  189SAPI   H5X21782   4.230   2.392   5.492 -0.0672 -0.8828 -1.4199
  189SAPI   H5Y21783   4.067   2.470   5.466  0.4402  0.8781 -0.2278
  189SAPI   C3621784   4.085   2.271   5.376  0.1112  0.2133 -0.9476
  189SAPI   H6X21785   3.974   2.262   5.376 -0.1776  2.2119  2.3141
  189SAPI   H6Y21786   4.144   2.183   5.409  0.8152  1.5458  1.5823
  189SAPI   C3721787   4.127   2.319   5.245 -0.8803 -0.4943  0.0927
  189SAPI   H7X21788   4.228   2.364   5.233 -1.6077  1.4085  0.7350
  189SAPI   H7Y21789   4.059   2.404   5.222  1.7009  2.5869  2.8632
  189SAPI   C3821790   4.097   2.221   5.128 -0.2956 -0.1827 -0.0989
  189SAPI   H8X21791   3.998   2.170   5.131 -0.7129  0.3372 -2.4640
  189SAPI   H8Y21792   4.178   2.145   5.126 -1.1689 -1.1964  1.3424
  189SAPI   C3921793   4.113   2.299   5.000 -0.1648  0.0283  0.4104
  189SAPI   H9X21794   4.220   2.328   4.992  0.1424 -0.6799  1.7006
  189SAPI   H9Y21795   4.045   2.386   4.990 -0.3354 -0.1884 -0.3362
  189SAPI  C31021796   4.091   2.212   4.881 -0.3810  0.9900 -0.5126
  189SAPI  H10X21797   4.001   2.150   4.901 -0.2408  0.6401 -0.9436
  189SAPI  H10Y21798   4.175   2.145   4.855  0.0278  1.1455  0.3976
  189SAPI  C31121799   4.082   2.284   4.747 -0.2248  0.1327  0.1626
  189SAPI  H11X21800   4.181   2.328   4.726 -0.2864  0.8419  1.2844
  189SAPI  H11Y21801   4.003   2.362   4.741 -0.5046 -0.2328 -1.3866
  189SAPI  C31221802   4.070   2.184   4.625  0.5751 -0.0073 -0.7215
  189SAPI  H12X21803   3.972   2.136   4.649  0.1151  1.1937 -0.0545
  189SAPI  H12Y21804   4.150   2.107   4.620 -0.2112 -0.8056 -1.3015
  189SAPI  C31321805   4.060   2.255   4.486 -0.5092 -0.2278  0.0242
  189SAPI  H13X21806   4.139   2.331   4.504 -1.3072  0.1258  2.2437
  189SAPI  H13Y21807   3.961   2.305   4.480 -1.0123 -0.8286  2.3212
  189SAPI  C31421808   4.088   2.170   4.361  0.0089  0.5862  0.3169
  189SAPI  H14X21809   4.036   2.072   4.355  1.7881 -0.3262 -1.1146
  189SAPI  H14Y21810   4.194   2.135   4.367  0.1262  0.6078 -1.2469
  189SAPI  C31521811   4.074   2.244   4.229 -0.2379 -0.2523 -0.0357
  189SAPI  H15X21812   4.132   2.339   4.233  0.8563 -0.8741 -0.5021
  189SAPI  H15Y21813   3.969   2.272   4.208  0.3282  3.3122  1.2365
  189SAPI  C31621814   4.122   2.156   4.111 -0.0632 -0.1576  0.3552
  189SAPI  H16X21815   4.225   2.115   4.123 -0.6388 -2.4548 -1.5964
  189SAPI  H16Y21816   4.126   2.224   4.023  0.1070 -0.3523  0.2112
  189SAPI  C31721817   4.021   2.049   4.079 -0.4816  0.7837 -1.1847
  189SAPI  H17X21818   3.923   2.101   4.084  0.3762  2.3544  0.3157
  189SAPI  H17Y21819   4.028   1.984   4.169  1.4966  0.6000 -1.4340
  189SAPI  C31821820   4.037   1.967   3.951  0.8791 -0.2283  0.2699
  189SAPI  H18X21821   4.050   2.021   3.855  0.5016 -2.2470 -0.9844
  189SAPI  H18Y21822   3.948   1.900   3.947  0.5452  0.2386 -2.0014
  189SAPI  H18Z21823   4.133   1.913   3.962  0.5325 -1.3459 -1.6347
  190SAPI   C1221824   3.745   6.405   6.767  0.0364 -0.0085 -0.3975
  190SAPI    H221825   3.835   6.362   6.717  0.9670  2.2777 -0.8445
  190SAPI    O221826   3.628   6.332   6.741  0.2897  0.4102  0.3881
  190SAPI   HO221827   3.630   6.317   6.646 -2.4453  1.3928  0.0677
  190SAPI   C1321828   3.786   6.393   6.914  0.8691  0.1353 -0.0977
  190SAPI    H321829   3.891   6.427   6.921  1.0015 -0.0678 -0.9310
  190SAPI    O321830   3.810   6.263   6.960  0.7333  0.0316  0.4323
  190SAPI   HO321831   3.745   6.211   6.911  1.2104 -1.1741  1.0326
  190SAPI   C1421832   3.692   6.467   6.999  0.3333 -0.4824 -0.1437
  190SAPI    H421833   3.603   6.401   7.010 -0.0677  0.2201  0.9493
  190SAPI    O421834   3.744   6.482   7.132 -0.9894 -0.2988 -0.0710
  190SAPI   HO421835   3.750   6.400   7.181  1.1390  2.0582  4.1955
  190SAPI   C1521836   3.643   6.600   6.939  0.6458 -0.8053 -0.1371
  190SAPI    H521837   3.720   6.678   6.959 -0.7947  0.6447 -0.0252
  190SAPI    O521838   3.515   6.645   6.994 -0.1375 -0.2380  0.2022
  190SAPI   HO521839   3.457   6.569   6.998  1.7723 -1.7811  0.3247
  190SAPI   C1621840   3.626   6.612   6.792 -0.5551  0.4241 -0.4982
  190SAPI    H621841   3.532   6.561   6.761 -0.9585  0.5200  0.5130
  190SAPI    O621842   3.614   6.747   6.746  0.0247  0.6919  0.3005
  190SAPI   HO621843   3.590   6.733   6.654  0.1013 -0.7887  0.4803
  190SAPI   C1121844   3.736   6.544   6.713 -0.0260  0.1510 -0.5615
  190SAPI    H121845   3.833   6.594   6.734  1.6696 -1.7971 -3.1107
  190SAPI     P21846   3.797   6.635   6.464 -0.5146  0.0382 -0.3823
  190SAPI   O1321847   3.792   6.587   6.328  0.5261  0.4594  0.2057
  190SAPI   O1421848   3.931   6.672   6.523  0.0464  0.1555 -0.4990
  190SAPI   O1221849   3.715   6.534   6.572 -0.4343 -0.6471 -0.4796
  190SAPI   O1121850   3.704   6.762   6.464 -0.0656  0.3711  0.2562
  190SAPI    C121851   3.569   6.753   6.426  0.4535  0.0029  1.3275
  190SAPI    HA21852   3.513   6.664   6.463 -1.2583 -0.1785 -1.4326
  190SAPI    HB21853   3.513   6.839   6.468  1.1648  0.9529  0.3667
  190SAPI    C221854   3.554   6.745   6.265  0.0273  0.0210  0.0468
  190SAPI    HS21855   3.580   6.638   6.246  0.1020 -0.0912  0.7542
  190SAPI   O2121856   3.650   6.814   6.191 -0.0073  0.3482 -0.2605
  190SAPI   C2121857   3.659   6.942   6.212  0.4087 -0.3138  0.3827
  190SAPI   O2221858   3.594   7.007   6.291  0.5400 -0.0679 -0.3384
  190SAPI   C2221859   3.769   6.994   6.121  0.2506  0.4257 -0.5503
  190SAPI   H2R21860   3.827   7.069   6.180  1.8828  0.2714 -1.8865
  190SAPI   H2S21861   3.833   6.908   6.091 -1.0050 -0.5124 -0.6347
  190SAPI    C321862   3.414   6.775   6.208 -0.1747 -0.0882 -0.1430
  190SAPI    HX21863   3.409   6.886   6.198 -0.0470 -0.1764 -1.2675
  190SAPI    HY21864   3.338   6.755   6.287 -0.3474  0.5050 -0.1551
  190SAPI   O3121865   3.390   6.691   6.095  0.2258  0.1294  0.2161
  190SAPI   C3121866   3.342   6.565   6.122 -0.6940  0.2741  0.4590
  190SAPI   O3221867   3.333   6.510   6.229 -0.0690 -0.3639 -0.4704
  190SAPI   C3221868   3.321   6.488   5.988  1.1551  0.3348 -0.1523
  190SAPI   H2X21869   3.233   6.527   5.933  1.4662 -0.7841 -1.4904
  190SAPI   H2Y21870   3.281   6.388   6.016  1.1409 -0.1469 -1.7970
  190SAPI   C2321871   3.712   7.071   6.006 -0.2651  0.4334  0.8494
  190SAPI   H3R21872   3.657   7.161   6.040  1.7109  1.1840  2.2481
  190SAPI   H3S21873   3.640   7.010   5.947  1.3444  0.5775 -1.3457
  190SAPI   C2421874   3.817   7.099   5.892  0.5141  0.0782 -0.7477
  190SAPI   H4R21875   3.755   7.109   5.800 -0.3838 -2.0851 -0.4352
  190SAPI   H4S21876   3.882   7.009   5.896  1.8318  1.0171  3.4393
  190SAPI   C2521877   3.897   7.226   5.920 -0.2397 -1.2298  0.4437
  190SAPI   H5R21878   3.873   7.298   6.000 -1.4604 -1.6291  0.4611
  190SAPI   C2621879   4.004   7.250   5.841 -0.1866  0.0975  1.0802
  190SAPI   H6R21880   4.062   7.344   5.844  0.4254 -0.2885  2.7079
  190SAPI   C2721881   4.049   7.161   5.724  1.0235 -0.5500 -0.5588
  190SAPI   H7R21882   4.004   7.212   5.635 -1.3500  0.3503  1.0726
  190SAPI   H7S21883   4.005   7.060   5.735  1.2897 -0.5621  0.4684
  190SAPI   C2821884   4.199   7.166   5.715 -0.1023 -0.2679  0.2540
  190SAPI   H8R21885   4.260   7.180   5.806 -0.8981  0.8022  0.6381
  190SAPI   C2921886   4.276   7.160   5.601  0.5791  0.2585  0.0465
  190SAPI   H9R21887   4.383   7.182   5.605  0.6421  0.1343 -0.7783
  190SAPI  C21021888   4.209   7.147   5.464 -0.7505  0.2482  0.2218
  190SAPI  H10R21889   4.278   7.203   5.398 -0.2681  0.1199  0.6144
  190SAPI  H10S21890   4.114   7.204   5.453 -1.1582 -0.1673  1.3806
  190SAPI  C21121891   4.183   7.006   5.409 -0.0854  0.0798  0.9802
  190SAPI  H11R21892   4.120   6.938   5.468  0.4392 -0.4027  0.9887
  190SAPI  C21221893   4.228   6.961   5.285  0.0449  0.3541  0.0881
  190SAPI  H12R21894   4.204   6.856   5.261 -1.6722  0.8590 -0.5754
  190SAPI  C21321895   4.295   7.044   5.180 -0.4029  0.0175  0.1619
  190SAPI  H13R21896   4.281   7.153   5.201  1.4753  0.3115  0.0748
  190SAPI  H13S21897   4.248   7.031   5.080  1.1098 -4.1343 -0.1785
  190SAPI  C21421898   4.442   7.003   5.174 -0.2987 -0.5279  0.1158
  190SAPI  H14R21899   4.505   7.085   5.211 -0.6815 -0.1109 -0.1609
  190SAPI  C21521900   4.486   6.886   5.128  0.3747 -0.3322  0.3482
  190SAPI  H15R21901   4.595   6.869   5.129  0.1908 -1.5870  1.1858
  190SAPI  C21621902   4.407   6.778   5.064  0.5148  0.6110 -0.0414
  190SAPI  H16R21903   4.296   6.787   5.063  0.5937  1.6837 -0.7237
  190SAPI  H16S21904   4.425   6.676   5.104 -1.5103  0.0192 -0.5463
  190SAPI  C21721905   4.443   6.783   4.909 -0.5096 -0.1871  0.5866
  190SAPI  H17R21906   4.552   6.767   4.892 -0.6327 -1.9572  1.2399
  190SAPI  H17S21907   4.416   6.887   4.879  2.3210  0.0509 -1.5267
  190SAPI  C21821908   4.372   6.680   4.820  0.3402 -0.2602 -0.3566
  190SAPI  H18R21909   4.429   6.585   4.826 -0.6388 -0.7876  1.0934
  190SAPI  H18S21910   4.373   6.718   4.715 -2.4630  3.1046  0.6450
  190SAPI  C21921911   4.223   6.654   4.847 -0.4528 -0.0277 -0.1618
  190SAPI  H19R21912   4.181   6.742   4.900  0.1987  0.0901  0.1658
  190SAPI  H19S21913   4.207   6.563   4.909 -0.3334 -0.3130 -0.5453
  190SAPI  C22021914   4.144   6.637   4.711 -0.5504 -0.0982 -0.1979
  190SAPI  H20R21915   4.184   6.561   4.640  0.7596 -0.7838  1.2136
  190SAPI  H20S21916   4.130   6.734   4.660  2.2016  1.7210  2.2187
  190SAPI  H20T21917   4.043   6.599   4.737 -0.8255  1.9436  1.9580
  190SAPI   C3321918   3.443   6.490   5.899 -0.0287 -0.3145 -0.4807
  190SAPI   H3X21919   3.534   6.454   5.952 -0.3610  0.3090  0.5355
  190SAPI   H3Y21920   3.463   6.595   5.871 -0.6817  0.0878  0.5408
  190SAPI   C3421921   3.423   6.414   5.762  0.2061  0.0773 -0.1150
  190SAPI   H4X21922   3.511   6.433   5.697 -0.0379  3.1374  0.2845
  190SAPI   H4Y21923   3.332   6.453   5.712 -0.4241  1.6675  2.0962
  190SAPI   C3521924   3.414   6.259   5.785 -0.5321  0.3390 -0.2401
  190SAPI   H5X21925   3.318   6.244   5.839 -1.0838  0.0335 -1.2758
  190SAPI   H5Y21926   3.500   6.229   5.848  0.0683  0.6054 -0.9127
  190SAPI   C3621927   3.430   6.180   5.654 -0.3908 -0.2848 -0.4696
  190SAPI   H6X21928   3.425   6.070   5.670  0.6957 -0.5856 -1.8619
  190SAPI   H6Y21929   3.529   6.202   5.608  0.0970 -0.2913  0.5481
  190SAPI   C3721930   3.324   6.219   5.549 -0.1547 -0.4175 -0.1380
  190SAPI   H7X21931   3.331   6.326   5.519 -0.5276 -0.3268  0.0855
  190SAPI   H7Y21932   3.222   6.187   5.580  0.2411 -1.7026 -0.1153
  190SAPI   C3821933   3.360   6.153   5.426  0.4405 -0.1586  0.3993
  190SAPI   H8X21934   3.365   6.042   5.426  1.5083 -0.1254  1.0799
  190SAPI   H8Y21935   3.455   6.197   5.388  0.0222  0.3608 -0.0665
  190SAPI   C3921936   3.258   6.206   5.316  0.1635 -0.3534  0.3302
  190SAPI   H9X21937   3.247   6.317   5.313  1.9912 -0.1410 -2.7330
  190SAPI   H9Y21938   3.159   6.164   5.345 -0.7238  0.8414 -0.8279
  190SAPI  C31021939   3.277   6.152   5.174 -0.4445 -0.7093  0.0560
  190SAPI  H10X21940   3.282   6.042   5.186  1.8310 -0.7431 -0.5378
  190SAPI  H10Y21941   3.382   6.172   5.140 -0.0285 -0.4219  1.4578
  190SAPI  C31121942   3.178   6.185   5.062 -0.6550  0.6914 -0.3489
  190SAPI  H11X21943   3.082   6.135   5.087  0.2004 -1.6090 -1.2956
  190SAPI  H11Y21944   3.223   6.138   4.972 -1.8126  1.7339 -1.5180
  190SAPI  C31221945   3.154   6.333   5.050 -0.1905  0.0185 -0.6672
  190SAPI  H12X21946   3.094   6.365   5.138 -1.3574 -2.4079 -0.4668
  190SAPI  H12Y21947   3.093   6.331   4.956  1.8512 -0.0062 -2.0500
  190SAPI  C31321948   3.277   6.420   5.027  0.1234  0.7946  0.0751
  190SAPI  H13X21949   3.361   6.385   5.092 -0.5216 -1.9610 -0.4298
  190SAPI  H13Y21950   3.252   6.519   5.070 -1.4084 -0.1310  1.4333
  190SAPI  C31421951   3.320   6.425   4.877 -0.2747 -0.2346 -0.9161
  190SAPI  H14X21952   3.240   6.483   4.825 -0.7561 -2.1798 -2.4555
  190SAPI  H14Y21953   3.325   6.320   4.841  2.5223 -0.1242 -1.1060
  190SAPI  C31521954   3.465   6.478   4.850  0.2426  0.0756  0.6916
  190SAPI  H15X21955   3.499   6.423   4.759  0.2442  0.4168  0.4821
  190SAPI  H15Y21956   3.538   6.446   4.927  1.6108  0.0773 -0.5607
  190SAPI  C31621957   3.468   6.631   4.835 -0.5279  0.1075 -0.6302
  190SAPI  H16X21958   3.392   6.675   4.903 -0.7888 -1.8731  0.4511
  190SAPI  H16Y21959   3.431   6.648   4.732 -0.2557  1.5534 -0.5049
  190SAPI  C31721960   3.605   6.708   4.855 -0.2700  0.4815  0.1862
  190SAPI  H17X21961   3.628   6.694   4.963 -1.2297 -0.1866  0.3153
  190SAPI  H17Y21962   3.595   6.818   4.846 -1.7606  0.2700 -1.2599
  190SAPI  C31821963   3.728   6.651   4.770  0.3381 -0.4915 -0.5477
  190SAPI  H18X21964   3.817   6.716   4.755  0.8943 -0.8341  1.0442
  190SAPI  H18Y21965   3.686   6.621   4.672  2.7672 -0.1060 -1.7900
  190SAPI  H18Z21966   3.767   6.557   4.815 -0.7766  0.2798  2.2519
  191SAPI   C1221967   6.268   2.734   2.268  0.3312  0.0201 -0.3777
  191SAPI    H221968   6.217   2.700   2.361  0.2924 -1.8301 -1.0261
  191SAPI    O221969   6.163   2.771   2.178  0.2775  0.9595 -0.0632
  191SAPI   HO221970   6.079   2.745   2.217 -0.3470  3.3397  0.3251
  191SAPI   C1321971   6.348   2.848   2.325  0.5181 -0.5355  0.8073
  191SAPI    H321972   6.414   2.802   2.402  1.6242 -1.8868 -0.8705
  191SAPI    O321973   6.265   2.933   2.392  0.0923  0.1789 -0.5947
  191SAPI   HO321974   6.201   2.966   2.328  2.1170 -0.3975 -3.0555
  191SAPI   C1421975   6.450   2.908   2.218  0.7571 -0.3146 -0.8363
  191SAPI    H421976   6.393   2.988   2.164  1.2031  0.2346 -0.4962
  191SAPI    O421977   6.558   2.975   2.281 -0.7707 -0.6638  0.4423
  191SAPI   HO421978   6.584   3.051   2.229 -1.7825  0.0366  0.9222
  191SAPI   C1521979   6.497   2.814   2.112  0.0863  0.3249 -0.1948
  191SAPI    H521980   6.602   2.789   2.137  0.5515  1.2748 -1.1178
  191SAPI    O521981   6.515   2.874   1.983  0.2106  0.2068 -0.4774
  191SAPI   HO521982   6.433   2.873   1.934 -0.3653 -0.6975  0.4614
  191SAPI   C1621983   6.435   2.676   2.099  0.1424  0.4482 -0.1044
  191SAPI    H621984   6.355   2.687   2.022  0.4534  1.8978 -0.2494
  191SAPI    O621985   6.516   2.571   2.054  0.0566  0.1537 -0.3658
  191SAPI   HO621986   6.507   2.504   2.122  3.7506  1.7677  1.9795
  191SAPI   C1121987   6.369   2.623   2.225  0.3114 -1.7604 -0.3010
  191SAPI    H121988   6.449   2.622   2.302  0.1187  1.0948  0.0333
  191SAPI     P21989   6.355   2.370   2.273 -0.2034  0.2354  0.0911
  191SAPI   O1321990   6.487   2.346   2.210 -0.2347 -0.0112  0.3535
  191SAPI   O1421991   6.256   2.264   2.232  0.2061  0.0400 -0.3025
  191SAPI   O1221992   6.293   2.507   2.211  0.4968 -0.3639  0.4432
  191SAPI   O1121993   6.365   2.378   2.427 -0.0236 -0.2561  0.2715
  191SAPI    C121994   6.258   2.401   2.510 -0.1011 -0.4440 -1.0219
  191SAPI    HA21995   6.187   2.467   2.456 -1.0156 -1.0579 -0.5976
  191SAPI    HB21996   6.208   2.306   2.536  1.0596 -0.4461  1.5357
  191SAPI    C221997   6.298   2.462   2.656 -0.2922 -0.7188  0.2872
  191SAPI    HS21998   6.205   2.451   2.716 -0.2477  1.1203  0.7353
  191SAPI   O2121999   6.342   2.601   2.637  0.2579 -0.0147  0.1776
  191SAPI   C2122000   6.302   2.679   2.734 -0.6808  0.5053  0.4087
  191SAPI   O2222001   6.247   2.652   2.836 -0.0483  0.6397 -0.5287
  191SAPI   C2222002   6.339   2.824   2.701 -0.6006 -0.5341 -0.4252
  191SAPI   H2R22003   6.450   2.823   2.704 -0.6030 -1.4569 -0.2131
  191SAPI   H2S22004   6.299   2.858   2.603 -0.2800  3.9018  0.7638
  191SAPI    C322005   6.412   2.370   2.712  0.2001 -0.4613  0.7520
  191SAPI    HX22006   6.483   2.377   2.626 -0.8112  0.8864 -0.0123
  191SAPI    HY22007   6.384   2.263   2.710  0.0477 -0.4578 -2.2467
  191SAPI   O3122008   6.472   2.412   2.833  0.4140 -0.1035 -0.3770
  191SAPI   C3122009   6.397   2.370   2.938  0.1431 -0.1089  0.2264
  191SAPI   O3222010   6.288   2.311   2.930  0.2617 -0.9616  0.2862
  191SAPI   C3222011   6.470   2.401   3.065 -0.2737 -0.6793  0.0013
  191SAPI   H2X22012   6.394   2.444   3.134  0.3775 -0.5330  0.6431
  191SAPI   H2Y22013   6.547   2.479   3.048  0.6046 -1.7219 -0.8634
  191SAPI   C2322014   6.282   2.934   2.795  0.0475 -0.0718 -0.5438
  191SAPI   H3R22015   6.327   2.923   2.896  1.9355 -0.7507 -1.4246
  191SAPI   H3S22016   6.171   2.922   2.800  0.2017 -1.9184 -1.0479
  191SAPI   C2422017   6.337   3.078   2.763  0.3186  0.8041  0.7709
  191SAPI   H4R22018   6.301   3.158   2.830  3.9452  0.7781  2.9905
  191SAPI   H4S22019   6.316   3.094   2.655  4.5907  1.1517 -0.1828
  191SAPI   C2522020   6.486   3.077   2.797 -0.7171 -0.7268 -0.0544
  191SAPI   H5R22021   6.559   3.047   2.720  1.7773  1.3237  1.3663
  191SAPI   C2622022   6.545   3.127   2.907 -0.0213  0.4409  0.4084
  191SAPI   H6R22023   6.654   3.113   2.918 -0.1776  0.1956  1.8167
  191SAPI   C2722024   6.487   3.198   3.030 -0.0076  0.1263 -0.4888
  191SAPI   H7R22025   6.571   3.207   3.102 -0.7304 -1.4815  0.6171
  191SAPI   H7S22026   6.409   3.138   3.082  0.3008  1.1442  1.2510
  191SAPI   C2822027   6.442   3.338   3.002  0.8535 -0.3975 -0.3543
  191SAPI   H8R22028   6.411   3.367   2.900 -0.2690 -0.3194 -0.0104
  191SAPI   C2922029   6.432   3.434   3.089  0.5414  0.3073  0.7704
  191SAPI   H9R22030   6.395   3.533   3.058  0.8373  0.5115  1.0559
  191SAPI  C21022031   6.468   3.426   3.231  0.9738  0.1857  0.2940
  191SAPI  H10R22032   6.523   3.521   3.249  0.4302  0.3498  1.1252
  191SAPI  H10S22033   6.540   3.344   3.251  1.3830  0.8031  1.4619
  191SAPI  C21122034   6.348   3.406   3.334 -0.0928  0.4630  0.0668
  191SAPI  H11R22035   6.265   3.347   3.291  0.5206 -0.3609  0.0041
  191SAPI  C21222036   6.341   3.451   3.460 -0.0594 -0.3466  0.4965
  191SAPI  H12R22037   6.254   3.426   3.522  0.4653  0.4731  1.5992
  191SAPI  C21322038   6.453   3.536   3.522  0.9214 -0.6647 -0.3284
  191SAPI  H13R22039   6.527   3.565   3.445 -0.1013  2.8367 -0.2049
  191SAPI  H13S22040   6.485   3.469   3.605 -0.2042 -0.1694  0.5494
  191SAPI  C21422041   6.396   3.662   3.583  0.4667  0.0230  0.3554
  191SAPI  H14R22042   6.324   3.716   3.519  1.3345  1.1316  0.2750
  191SAPI  C21522043   6.405   3.703   3.711 -0.8516  0.1563  0.1577
  191SAPI  H15R22044   6.343   3.785   3.751 -2.1763  0.3114 -2.0531
  191SAPI  C21622045   6.479   3.634   3.825 -0.5889  0.2768  0.0149
  191SAPI  H16R22046   6.512   3.533   3.792  0.1714  0.9750 -1.5172
  191SAPI  H16S22047   6.413   3.627   3.914 -0.2881 -1.8831  0.1105
  191SAPI  C21722048   6.599   3.724   3.865  0.5364  0.4640 -0.4008
  191SAPI  H17R22049   6.563   3.829   3.873 -1.2830 -0.0611 -1.0726
  191SAPI  H17S22050   6.680   3.734   3.790  2.2414  0.6296  1.3999
  191SAPI  C21822051   6.659   3.694   3.997  0.1344  0.6396  0.4802
  191SAPI  H18R22052   6.701   3.591   3.994  1.3377  0.9839  3.0461
  191SAPI  H18S22053   6.571   3.694   4.065 -0.0709  1.7388  0.2421
  191SAPI  C21922054   6.766   3.795   4.044 -0.1435 -0.8039 -0.4696
  191SAPI  H19R22055   6.798   3.772   4.148 -0.0303  0.6749 -0.1617
  191SAPI  H19S22056   6.729   3.899   4.055  1.6564 -0.1525 -0.2391
  191SAPI  C22022057   6.886   3.803   3.950  0.5138  0.0649 -0.3170
  191SAPI  H20R22058   6.871   3.870   3.863  0.0063 -0.0773 -0.3451
  191SAPI  H20S22059   6.922   3.700   3.929  0.6321  0.0512 -0.0597
  191SAPI  H20T22060   6.964   3.863   4.001 -0.2975  0.0306  1.0308
  191SAPI   C3322061   6.539   2.281   3.120  0.4058  0.1516  0.5324
  191SAPI   H3X22062   6.616   2.241   3.050  1.6936  2.4857  0.5034
  191SAPI   H3Y22063   6.466   2.203   3.150  0.0723  1.0143  2.0388
  191SAPI   C3422064   6.612   2.302   3.257 -0.0527  0.0852  0.1330
  191SAPI   H4X22065   6.683   2.384   3.231  0.3114 -0.9816 -2.5420
  191SAPI   H4Y22066   6.667   2.206   3.272 -0.8824 -0.2978  0.7705
  191SAPI   C3522067   6.536   2.348   3.383  0.5978  0.1236  0.3622
  191SAPI   H5X22068   6.471   2.265   3.418 -1.6904  1.6353 -0.1102
  191SAPI   H5Y22069   6.477   2.437   3.354 -1.0843 -1.1899 -0.4525
  191SAPI   C3622070   6.623   2.389   3.502  0.1588  0.8768  0.1450
  191SAPI   H6X22071   6.700   2.467   3.487  1.0009  0.2100  0.9078
  191SAPI   H6Y22072   6.669   2.297   3.544 -2.6662 -2.2430 -2.9257
  191SAPI   C3722073   6.543   2.436   3.628  0.6355  0.8497  0.5263
  191SAPI   H7X22074   6.457   2.368   3.644 -0.4552  1.8685 -0.7802
  191SAPI   H7Y22075   6.498   2.534   3.602 -0.1402 -0.1801 -2.3766
  191SAPI   C3822076   6.639   2.444   3.740 -0.1012 -0.5805  0.4512
  191SAPI   H8X22077   6.693   2.348   3.750 -0.0847 -1.0979 -3.1985
  191SAPI   H8Y22078   6.582   2.473   3.831 -0.4921 -1.9853  0.6675
  191SAPI   C3922079   6.740   2.557   3.723 -0.7791  0.2474  0.0576
  191SAPI   H9X22080   6.704   2.618   3.638 -0.5899 -0.6310 -0.6704
  191SAPI   H9Y22081   6.837   2.524   3.680 -0.0224  0.2657  1.6636
  191SAPI  C31022082   6.784   2.628   3.853  0.1144 -0.1415  0.0308
  191SAPI  H10X22083   6.820   2.541   3.911  0.6585 -0.3372 -0.5933
  191SAPI  H10Y22084   6.695   2.670   3.906  0.6135 -1.1821  1.7608
  191SAPI  C31122085   6.896   2.730   3.838  0.9007  0.0979  0.1751
  191SAPI  H11X22086   6.874   2.811   3.765  0.4755  0.1745  0.3846
  191SAPI  H11Y22087   6.988   2.673   3.811  2.2746  0.2836  3.8219
  191SAPI  C31222088   6.938   2.805   3.967 -0.3799  0.3561 -0.5137
  191SAPI  H12X22089   6.998   2.749   4.042 -1.1204  1.0469  0.6212
  191SAPI  H12Y22090   6.843   2.818   4.023  0.6689  0.5201  1.3264
  191SAPI  C31322091   7.011   2.938   3.930  0.2031  0.2607  0.8110
  191SAPI  H13X22092   6.929   2.994   3.881 -1.3127 -1.8059  0.8589
  191SAPI  H13Y22093   7.094   2.918   3.859  0.5987  2.6669  0.5233
  191SAPI  C31422094   7.056   3.023   4.051 -0.4055 -0.1796  0.4502
  191SAPI  H14X22095   7.084   3.124   4.012  0.3842 -0.5369  0.0557
  191SAPI  H14Y22096   7.149   2.974   4.087  1.0777  0.3211 -2.4305
  191SAPI  C31522097   6.960   3.033   4.165 -0.5500 -0.5875 -0.3643
  191SAPI  H15X22098   6.928   2.932   4.200  0.5124 -1.2682 -1.2873
  191SAPI  H15Y22099   6.869   3.086   4.128 -0.5282 -0.8694 -0.8379
  191SAPI  C31622100   7.019   3.103   4.294  1.3777  0.2977 -0.2541
  191SAPI  H16X22101   7.053   3.206   4.268 -1.4438  1.2174 -0.7314
  191SAPI  H16Y22102   7.113   3.056   4.328  1.8097  1.2332 -0.1294
  191SAPI  C31722103   6.905   3.117   4.393 -0.2552  0.2567 -0.0006
  191SAPI  H17X22104   6.818   3.183   4.372 -0.1292  0.6609  0.7213
  191SAPI  H17Y22105   6.945   3.170   4.482 -0.4373  2.0604 -0.9312
  191SAPI  C31822106   6.864   2.980   4.444 -0.3543  0.2122  0.4185
  191SAPI  H18X22107   6.801   2.997   4.534 -0.9786  0.1581 -0.0036
  191SAPI  H18Y22108   6.952   2.916   4.467  1.6858  1.9659 -2.0246
  191SAPI  H18Z22109   6.787   2.938   4.375 -0.5501  0.5409  0.4371
  192SAPI   C1222110   2.176   0.733   2.051 -0.0886  0.1983 -0.5444
  192SAPI    H222111   2.222   0.728   2.152 -2.0341  0.1089  0.3906
  192SAPI    O222112   2.090   0.620   2.037 -0.0977  0.0358 -0.1741
  192SAPI   HO222113   2.115   0.554   1.972 -2.4080  0.1125 -1.2304
  192SAPI   C1322114   2.105   0.863   2.057 -0.3451 -0.9687  0.3568
  192SAPI    H322115   2.179   0.946   2.054 -0.5077 -0.8114 -2.6755
  192SAPI    O322116   2.028   0.876   2.178  0.4062  0.3587 -0.1308
  192SAPI   HO322117   1.998   0.966   2.193  0.0034  0.3659 -0.9799
  192SAPI   C1422118   2.022   0.883   1.922  0.3764 -0.3343 -0.5525
  192SAPI    H422119   1.944   0.804   1.929  0.4668 -0.3424  0.4139
  192SAPI    O422120   1.942   1.009   1.910 -0.3871  0.1489 -0.0508
  192SAPI   HO422121   1.850   0.997   1.936 -1.1594  2.0711 -1.7068
  192SAPI   C1522122   2.109   0.864   1.801 -0.3300  0.4267  0.2086
  192SAPI    H522123   2.169   0.956   1.785  1.5858 -0.6808  0.7113
  192SAPI    O522124   2.032   0.849   1.682 -0.5050  0.8808  0.0765
  192SAPI   HO522125   2.093   0.865   1.609 -2.2553  2.5933 -1.1050
  192SAPI   C1622126   2.218   0.754   1.808 -0.1538 -0.2552 -0.4235
  192SAPI    H622127   2.167   0.656   1.792  0.0122 -0.6946  1.5131
  192SAPI    O622128   2.320   0.785   1.712 -0.6916 -0.6211  0.1294
  192SAPI   HO622129   2.362   0.863   1.749 -0.9534 -1.5246  2.5679
  192SAPI   C1122130   2.281   0.741   1.946  0.6186  0.2706 -0.0944
  192SAPI    H122131   2.348   0.829   1.961  1.6655 -0.6859  0.9942
  192SAPI     P22132   2.517   0.631   2.017  0.1786 -0.2553  0.4105
  192SAPI   O1322133   2.575   0.761   1.982 -0.5731 -0.3171  0.0470
  192SAPI   O1422134   2.602   0.527   1.961  0.3223  0.2941  0.2490
  192SAPI   O1222135   2.359   0.616   1.963 -0.3502 -0.2168  0.4405
  192SAPI   O1122136   2.507   0.608   2.175  0.1730 -0.9835 -0.2626
  192SAPI    C122137   2.590   0.677   2.273  0.0937 -0.0705  1.2961
  192SAPI    HA22138   2.576   0.786   2.257 -2.4053 -0.5595 -0.5114
  192SAPI    HB22139   2.555   0.642   2.373  0.1800  1.3844  1.8729
  192SAPI    C222140   2.741   0.650   2.263  0.4376 -0.2355 -0.2526
  192SAPI    HS22141   2.775   0.687   2.164  0.3792  5.1107  1.4367
  192SAPI   O2122142   2.755   0.507   2.281  0.0832  0.3474 -0.2353
  192SAPI   C2122143   2.858   0.457   2.224  0.5042  0.0413 -0.1742
  192SAPI   O2222144   2.936   0.518   2.153 -0.4177 -0.1234  0.3387
  192SAPI   C2222145   2.873   0.311   2.254  0.5373  0.7784  0.4090
  192SAPI   H2R22146   2.820   0.289   2.349  0.5611  0.6216  0.3861
  192SAPI   H2S22147   2.823   0.250   2.175  0.3587 -1.1377  1.9163
  192SAPI    C322148   2.819   0.725   2.376 -0.0579 -0.6662  0.8479
  192SAPI    HX22149   2.805   0.830   2.342 -3.2834 -1.6064 -1.1608
  192SAPI    HY22150   2.924   0.689   2.373 -0.2214 -1.0710 -0.5833
  192SAPI   O3122151   2.762   0.701   2.503  0.0300  0.1758 -0.3377
  192SAPI   C3122152   2.812   0.779   2.601 -0.1583  0.0597  0.6433
  192SAPI   O3222153   2.886   0.876   2.578  0.3737  0.0448 -0.3763
  192SAPI   C3222154   2.780   0.699   2.733  0.2957  0.4404 -0.6744
  192SAPI   H2X22155   2.813   0.595   2.710  2.4169  0.9681 -0.2418
  192SAPI   H2Y22156   2.671   0.704   2.750  0.5911  0.5144  1.5114
  192SAPI   C2322157   3.025   0.266   2.257  0.9304  0.4945 -0.4653
  192SAPI   H3R22158   3.078   0.309   2.169 -0.8189  1.4398 -1.1161
  192SAPI   H3S22159   3.025   0.156   2.246 -1.6038 -0.0286  3.0349
  192SAPI   C2422160   3.098   0.292   2.392  0.8634  0.2580  0.0841
  192SAPI   H4R22161   3.170   0.207   2.402  3.0180  2.0214  0.5493
  192SAPI   H4S22162   3.013   0.288   2.462  0.1218 -1.5883 -0.8493
  192SAPI   C2522163   3.163   0.428   2.400 -0.2531  0.3061  0.2188
  192SAPI   H5R22164   3.215   0.467   2.311 -1.0745 -0.9197 -0.8472
  192SAPI   C2622165   3.128   0.518   2.491  0.0246  0.2372 -0.3235
  192SAPI   H6R22166   3.188   0.610   2.485 -2.0453  1.6871  0.3051
  192SAPI   C2722167   3.045   0.514   2.613 -0.2606 -0.6589  0.4427
  192SAPI   H7R22168   2.945   0.497   2.567  0.1525  0.6900 -1.0437
  192SAPI   H7S22169   3.027   0.619   2.646  0.1260 -0.4222 -0.0894
  192SAPI   C2822170   3.076   0.422   2.724 -0.0699 -0.3606  0.0815
  192SAPI   H8R22171   3.005   0.339   2.729 -0.6258 -0.0314 -1.7136
  192SAPI   C2922172   3.168   0.441   2.820 -0.5683 -0.2830  0.1715
  192SAPI   H9R22173   3.179   0.379   2.911  2.0434  1.0352  0.8663
  192SAPI  C21022174   3.272   0.547   2.818  0.2297  0.1990 -0.0014
  192SAPI  H10R22175   3.244   0.612   2.904 -0.8833  0.5410 -0.5971
  192SAPI  H10S22176   3.263   0.611   2.728 -0.0107  0.8223  0.4520
  192SAPI  C21122177   3.411   0.497   2.834 -0.3622 -0.1360  0.1933
  192SAPI  H11R22178   3.440   0.434   2.749 -1.4324 -0.4893  0.0800
  192SAPI  C21222179   3.486   0.506   2.943  0.0579 -0.5702 -0.0321
  192SAPI  H12R22180   3.578   0.447   2.936 -0.4530 -1.1713 -2.3249
  192SAPI  C21322181   3.456   0.579   3.073 -0.5009 -0.4501  0.1237
  192SAPI  H13R22182   3.417   0.680   3.045 -1.0778 -0.4621  0.8506
  192SAPI  H13S22183   3.550   0.591   3.131 -2.0060 -0.9314  2.8089
  192SAPI  C21422184   3.346   0.508   3.146  0.0896  0.2141 -0.4789
  192SAPI  H14R22185   3.292   0.423   3.100 -0.5915  0.3587  0.0364
  192SAPI  C21522186   3.311   0.528   3.273  0.2227  0.3919  0.2833
  192SAPI  H15R22187   3.236   0.464   3.321 -0.3707 -0.7767 -2.1059
  192SAPI  C21622188   3.368   0.636   3.352  0.0742 -0.1121 -0.3625
  192SAPI  H16R22189   3.289   0.666   3.424 -0.8255  1.4268 -1.8999
  192SAPI  H16S22190   3.385   0.729   3.294  1.0341 -0.5468 -0.7903
  192SAPI  C21722191   3.504   0.591   3.428  0.1130  0.1269  0.2411
  192SAPI  H17R22192   3.587   0.577   3.355  0.4641  2.1382  0.2047
  192SAPI  H17S22193   3.471   0.498   3.478 -3.0653  0.2712 -1.2815
  192SAPI  C21822194   3.546   0.697   3.528 -0.5713 -0.0871 -0.3736
  192SAPI  H18R22195   3.540   0.798   3.482 -2.3035  1.6277  3.1950
  192SAPI  H18S22196   3.645   0.679   3.576 -0.1506 -0.6642 -1.4215
  192SAPI  C21922197   3.449   0.692   3.644 -0.0693 -0.3907  0.9747
  192SAPI  H19R22198   3.423   0.588   3.671  1.9443 -1.2842 -0.3103
  192SAPI  H19S22199   3.363   0.755   3.613  0.5891  0.9703  1.7984
  192SAPI  C22022200   3.509   0.760   3.766  0.6099  0.8753  0.3222
  192SAPI  H20R22201   3.439   0.751   3.852  0.6179  1.5808  0.4054
  192SAPI  H20S22202   3.532   0.866   3.745  2.2441  0.2447 -1.4202
  192SAPI  H20T22203   3.602   0.705   3.794  0.1621 -0.8792 -1.3808
  192SAPI   C3322204   2.858   0.760   2.848 -0.4172 -0.7140 -0.2420
  192SAPI   H3X22205   2.813   0.858   2.877  1.4490  0.0140  0.3372
  192SAPI   H3Y22206   2.960   0.776   2.809 -1.0530  2.5224 -0.8829
  192SAPI   C3422207   2.863   0.670   2.969 -0.1415 -0.0759 -0.0141
  192SAPI   H4X22208   2.926   0.581   2.951  0.9728  0.6888 -0.0583
  192SAPI   H4Y22209   2.763   0.624   2.983 -0.1836  0.1098  0.3296
  192SAPI   C3522210   2.911   0.731   3.101  0.4780 -0.1686 -0.1163
  192SAPI   H5X22211   2.847   0.816   3.134 -0.5445 -1.2937  0.8960
  192SAPI   H5Y22212   3.016   0.765   3.083 -0.3700  2.7686 -0.1075
  192SAPI   C3622213   2.913   0.617   3.208  0.0525 -0.0388  0.4946
  192SAPI   H6X22214   2.960   0.525   3.168  0.0592  1.2076 -2.6083
  192SAPI   H6Y22215   2.808   0.586   3.226  1.0411 -2.8283  2.0222
  192SAPI   C3722216   2.978   0.649   3.345 -0.4214  0.2318  0.4070
  192SAPI   H7X22217   3.066   0.716   3.333 -0.0976 -0.2548  0.0435
  192SAPI   H7Y22218   3.024   0.561   3.395  1.3812  1.3133  0.7477
  192SAPI   C3822219   2.870   0.710   3.443  0.1068  0.8831  0.3438
  192SAPI   H8X22220   2.789   0.635   3.456  3.4809 -3.1747  0.3771
  192SAPI   H8Y22221   2.830   0.797   3.387 -1.9235  0.6927  1.3917
  192SAPI   C3922222   2.915   0.742   3.583 -0.5738  0.6714  0.2513
  192SAPI   H9X22223   3.008   0.802   3.584 -0.6885  0.8462  0.3808
  192SAPI   H9Y22224   2.931   0.652   3.645  0.0620 -0.3297 -1.2924
  192SAPI  C31022225   2.805   0.810   3.655  0.4325 -0.3753  0.1326
  192SAPI  H10X22226   2.747   0.732   3.708 -0.3198  0.1078  0.0345
  192SAPI  H10Y22227   2.754   0.877   3.582  0.3269 -1.2602 -0.6224
  192SAPI  C31122228   2.849   0.901   3.775 -0.2783  0.1244 -0.0770
  192SAPI  H11X22229   2.871   1.002   3.734  0.0714  0.1750  0.2285
  192SAPI  H11Y22230   2.953   0.866   3.795 -0.2361  0.0122 -0.4933
  192SAPI  C31222231   2.756   0.901   3.898  0.1319 -0.0371  0.0173
  192SAPI  H12X22232   2.749   0.795   3.929 -0.0033  0.7683  3.0753
  192SAPI  H12Y22233   2.653   0.928   3.866  0.9201  1.9363 -1.0751
  192SAPI  C31322234   2.792   0.999   4.008 -1.1298  0.7026  0.3994
  192SAPI  H13X22235   2.712   0.991   4.084  0.2320 -0.9496  1.7487
  192SAPI  H13Y22236   2.801   1.103   3.969 -3.6816  1.0569  0.5790
  192SAPI  C31422237   2.932   0.966   4.066 -0.1354  0.1889  0.6124
  192SAPI  H14X22238   3.022   0.984   4.003  0.4508 -0.0637  1.3729
  192SAPI  H14Y22239   2.921   0.858   4.089  0.9543 -0.0921 -0.1230
  192SAPI  C31522240   2.948   1.033   4.200 -0.2390 -0.1384  0.0056
  192SAPI  H15X22241   3.015   0.965   4.255  1.6205  0.9367 -0.8357
  192SAPI  H15Y22242   2.848   1.043   4.248 -1.2966 -0.0592 -2.0792
  192SAPI  C31622243   3.022   1.177   4.198  0.7233 -0.0966 -0.5382
  192SAPI  H16X22244   2.968   1.236   4.120  1.1294 -0.9283 -1.4801
  192SAPI  H16Y22245   3.127   1.164   4.163  1.7168  1.4644  1.6864
  192SAPI  C31722246   3.022   1.246   4.333  0.0710 -0.2973  0.7590
  192SAPI  H17X22247   3.090   1.335   4.329 -0.9548  0.4995 -3.2544
  192SAPI  H17Y22248   3.052   1.171   4.409  0.7471 -0.9663 -0.1495
  192SAPI  C31822249   2.884   1.309   4.379 -0.2145  0.9827  0.2540
  192SAPI  H18X22250   2.812   1.230   4.408  1.1668 -0.5493 -0.2954
  192SAPI  H18Y22251   2.842   1.364   4.292 -0.9216  1.7154  1.0441
  192SAPI  H18Z22252   2.908   1.371   4.468  0.7580 -3.3737  3.3385
  193SOD    SOD22253   1.127   2.490   2.058 -0.1159 -0.2220 -0.1162
  194SOD    SOD22254   4.902   6.712   7.314  0.6415  0.0745  0.1461
  195SOD    SOD22255   4.259   4.534   7.138  0.2757 -0.4664 -0.1454
  196SOD    SOD22256   4.383   1.651   6.434 -0.0522 -0.6235 -0.1194
  197SOD    SOD22257   0.823   4.513   7.120 -0.4367 -0.2597 -0.6159
  198SOD    SOD22258   4.726   2.033   1.690 -0.0104 -0.0069  0.2589
  199SOD    SOD22259   4.498   0.016   7.851  0.5187 -0.3159  0.0432
  200SOD    SOD22260   4.456   5.822   8.205  0.0052 -0.0282  0.3735
  201SOD    SOD22261   6.449   6.411   0.942  0.2202 -0.5645  0.1126
  202SOD    SOD22262   1.067   6.560   1.708  0.4958 -0.0299  0.3174
  203SOD    SOD22263   4.451   5.756   2.267 -0.1169 -0.8738  0.1822
  204SOD    SOD22264   1.661   5.093   6.702 -0.6511 -0.2462 -0.0845
  205SOD    SOD22265   2.638   2.876   1.934  0.3128 -0.0505 -0.1634
  206SOD    SOD22266   6.074   3.491   1.328  0.2183 -0.3491  0.0128
  207SOD    SOD22267   6.739   0.699   8.493  0.3427 -0.2408 -0.3540
  208SOD    SOD22268   3.185   2.301   0.279 -0.0806 -0.7421  0.3905
  209SOD    SOD22269   0.429   1.876   0.113 -0.4194  0.3314  0.2363
  210SOD    SOD22270   5.284   3.176   1.061 -0.4800  0.0493 -0.5597
  211SOD    SOD22271   5.454   3.131   2.156  0.2751  0.2724 -0.0736
  212SOD    SOD22272   4.419   6.743   1.613 -0.0255 -0.3814  0.2495
  213SOD    SOD22273   0.137   0.852   6.173  0.2479  0.3466  0.1758
  214SOD    SOD22274   2.982   1.394   0.007  0.3368  0.3523 -0.3731
  215SOD    SOD22275   0.103   0.868   2.122  0.0342  0.0890 -0.0793
  216SOD    SOD22276   3.802   1.229   7.076 -0.5027  0.1797  0.3073
  217SOD    SOD22277   6.658   2.764   7.139  0.3284  0.2693  0.3341
  218SOD    SOD22278   3.541   4.228   0.894 -0.1932  0.5509  0.4097
  219SOD    SOD22279   0.271   5.521   2.015  0.0861  0.6283  0.1941
  220SOD    SOD22280   1.583   1.451   7.517 -0.0721  0.2234 -0.4729
  221SOD    SOD22281   2.987   2.552   7.906 -0.0410  0.7422  0.1425
  222SOD    SOD22282   6.370   0.411   2.072  0.4092 -0.1223  0.1357
  223SOD    SOD22283   5.222   1.229   7.082 -0.2425  0.0557 -0.3391
  224SOD    SOD22284   1.594   2.811   1.139  0.8068 -0.1810 -0.2739
  225SOD    SOD22285   5.140   1.117   7.638  0.1608  0.0589 -0.1845
  226SOD    SOD22286   0.563   6.718   7.522 -0.3218 -0.3025  0.7683
  227SOD    SOD22287   5.730   2.637   8.686 -0.0087  0.3778  0.1620
  228SOD    SOD22288   2.442   1.876   8.396  0.2926  0.5717 -0.1194
  229SOD    SOD22289   2.860   3.143   8.164  0.0498  0.1162 -0.1786
  230SOD    SOD22290   1.728   0.859   7.463 -0.0348  0.3256 -0.0166
  231SOD    SOD22291   2.356   0.918   7.548  0.0786  0.3900 -0.0144
  232SOD    SOD22292   4.048   1.073   1.641 -0.0188  0.3666  0.4251
  233SOD    SOD22293   5.408   6.110   2.352 -0.1568  0.0973  0.6183
  234CLA    CLA22294   0.922   0.295   7.615  0.2640 -0.5861 -0.2402
  235CLA    CLA22295   1.029   3.563   7.450  0.3622 -0.4081  0.2723
  236CLA    CLA22296   6.637   3.075   0.485 -0.2018  0.1432 -0.0010
  237CLA    CLA22297   4.737   4.224   8.605 -0.0516  0.0818 -0.3973
  238CLA    CLA22298   5.131   6.738   0.021 -0.0739 -0.2028  0.1246
  239CLA    CLA22299   2.853   1.188   8.392 -0.4087  0.2441  0.0298
  240CLA    CLA22300   0.686   3.022   7.815  0.1375 -0.0976 -0.0047
  241CLA    CLA22301   5.250   0.554   8.444  0.1766 -0.1476  0.2580
  242CLA    CLA22302   6.453   1.110   7.528 -0.4878  0.2038 -0.1367
  243CLA    CLA22303   6.466   1.837   0.731 -0.0895  0.0257 -0.0259
  244CLA    CLA22304   2.589   2.804   8.196 -0.0384  0.0003  0.1315
  245CLA    CLA22305   3.723   0.414   0.743  0.0649 -0.4604  0.0039
  246CLA    CLA22306   0.319   6.054   7.403  0.3605  0.2583  0.0988
  247CLA    CLA22307   1.189   1.953   0.576 -0.0962  0.0406  0.2826
  248CLA    CLA22308   4.346   3.285   8.004  0.2236 -0.2355  0.1099
  249CLA    CLA22309   2.467   1.138   1.226  0.0785 -0.4905  0.3232
  250CLA    CLA22310   4.097   4.138   1.439 -0.0696 -0.2066  0.0526
  251TIP3   OH222311   5.277   2.649   8.669  0.1902 -0.0832 -0.5108
  251TIP3    H122312   5.230   2.732   8.658  1.6244  0.6541 -1.4282
  251TIP3    H222313   5.312   2.654   8.758 -0.4229 -0.1025 -0.2590
  252TIP3   OH222314   6.669   5.184   8.481 -0.2211 -1.0645 -0.0022
  252TIP3    H122315   6.676   5.182   8.577 -2.0321  0.4097  0.2177
  252TIP3    H222316   6.575   5.196   8.464  0.2745  0.7664 -1.8849
  253TIP3   OH222317   2.574   0.527   8.844 -0.4277  0.6087 -0.5759
  253TIP3    H122318   2.523   0.552   8.766  0.3205 -1.1586 -1.7036
  253TIP3    H222319   2.645   0.473   8.809 -0.6013 -1.0196  1.4364
  254TIP3   OH222320   1.692   6.384   0.293 -0.1410 -0.2510 -0.0436
  254TIP3    H122321   1.702   6.323   0.366 -1.3545 -0.7610 -0.2857
  254TIP3    H222322   1.597   6.394   0.282  0.0224  0.2035 -1.2323
  255TIP3   OH222323   5.183   6.472   0.186 -0.3921  0.3868 -0.0703
  255TIP3    H122324   5.171   6.551   0.133 -0.2989 -0.1023 -0.8449
  255TIP3    H222325   5.246   6.498   0.253 -3.6724  2.2953  2.5689
  256TIP3   OH222326   6.222   1.924   6.629  0.0271 -0.5364  0.5605
  256TIP3    H122327   6.160   1.933   6.557 -1.1037 -1.6794  1.3404
  256TIP3    H222328   6.286   1.993   6.614 -0.4146 -0.4733 -1.2839
  257TIP3   OH222329   6.756   5.444   6.944  0.2509  0.1304 -0.5752
  257TIP3    H122330   6.708   5.361   6.953 -2.0664  1.5693  1.4035
  257TIP3    H222331   6.755   5.461   6.850 -2.9992 -0.0761 -0.6825
  258TIP3   OH222332   0.533   1.314   0.297 -0.3941  0.2098  0.6392
  258TIP3    H122333   0.558   1.310   0.390  1.1223  0.2271  0.2638
  258TIP3    H222334   0.616   1.301   0.250 -1.0158  0.9692 -0.7057
  259TIP3   OH222335   6.321   4.777   1.094 -0.0697 -0.0896 -0.0899
  259TIP3    H122336   6.264   4.837   1.046 -0.1328  0.0902  0.2129
  259TIP3    H222337   6.322   4.810   1.184  1.4704  0.6160 -0.3389
  260TIP3   OH222338   6.548   5.883   7.264  0.4706 -0.0870 -0.0636
  260TIP3    H122339   6.593   5.827   7.201  2.0659  0.2133  0.7493
  260TIP3    H222340   6.481   5.928   7.212  0.2666 -1.4774 -1.0641
  261TIP3   OH222341   0.725   5.975   8.523 -0.5942 -0.6248 -0.2822
  261TIP3    H122342   0.756   5.888   8.499  0.6115 -1.0370  2.3807
  261TIP3    H222343   0.630   5.966   8.530 -0.5470 -1.5235 -0.7322
  262TIP3   OH222344   3.272   2.157   7.752 -0.3560  0.1586  0.1406
  262TIP3    H122345   3.210   2.149   7.679  0.8297 -0.1323 -0.8681
  262TIP3    H222346   3.321   2.237   7.733 -0.5546  0.5012  1.0380
  263TIP3   OH222347   6.600   3.700   1.719 -0.3074 -0.1930  0.5690
  263TIP3    H122348   6.616   3.769   1.654 -0.0037 -0.3216  0.5097
  263TIP3    H222349   6.506   3.681   1.710 -0.3649  0.1178  0.4921
  264TIP3   OH222350   2.261   0.130   8.736  0.1735 -0.3998 -0.7977
  264TIP3    H122351   2.299   0.206   8.781  0.3371 -0.6632 -0.4956
  264TIP3    H222352   2.181   0.165   8.696 -1.7877 -0.8254  2.3581
  265TIP3   OH222353   3.395   0.878   7.648  0.2805 -0.3786 -0.2257
  265TIP3    H122354   3.489   0.895   7.639  0.0983  0.4876 -0.5653
  265TIP3    H222355   3.362   0.952   7.699 -0.2923 -0.4682 -0.4595
  266TIP3   OH222356   5.430   2.643   7.676 -0.1576  0.1498 -0.3712
  266TIP3    H122357   5.438   2.551   7.649  0.4788  0.3484 -0.8795
  266TIP3    H222358   5.409   2.690   7.595 -0.9703  0.3984 -0.0323
  267TIP3   OH222359   1.121   1.036   1.910 -0.6119  0.3488  0.5505
  267TIP3    H122360   1.144   1.050   1.818 -0.3975  0.7134  0.6592
  267TIP3    H222361   1.200   1.057   1.959 -1.0611  1.3049  0.9064
  268TIP3   OH222362   0.516   0.722   1.626  0.0042 -0.0136  0.2184
  268TIP3    H122363   0.480   0.660   1.562 -0.3260  0.8959 -0.5015
  268TIP3    H222364   0.479   0.694   1.710 -0.6179 -0.4292 -0.1868
  269TIP3   OH222365   1.686   4.364   7.448  0.0631  0.4258 -0.2125
  269TIP3    H122366   1.766   4.354   7.397  1.3796  1.4444  1.5222
  269TIP3    H222367   1.682   4.286   7.503  0.7550  1.0898  0.8136
  270TIP3   OH222368   6.727   3.896   8.736  0.5037  0.7463  0.4497
  270TIP3    H122369   6.689   3.941   8.661  0.8878 -0.9466 -0.8089
  270TIP3    H222370   6.821   3.894   8.718  0.5026 -0.4937  0.4930
  271TIP3   OH222371   4.378   2.062   7.394  0.2096 -0.3552 -0.2732
  271TIP3    H122372   4.430   2.136   7.427 -1.2865  0.9292 -0.6834
  271TIP3    H222373   4.290   2.078   7.426 -0.3785 -1.3593 -1.3166
  272TIP3   OH222374   0.209   5.507   6.815  0.7463 -0.0586 -0.1233
  272TIP3    H122375   0.133   5.484   6.761  0.0575 -0.9044  1.1451
  272TIP3    H222376   0.276   5.532   6.753  0.0106 -1.1036 -1.3857
  273TIP3   OH222377   0.553   4.576   0.586 -0.1879  0.1228  0.6572
  273TIP3    H122378   0.602   4.650   0.548  0.2872 -0.3971  0.2413
  273TIP3    H222379   0.621   4.515   0.614 -0.5563  0.1550  1.6762
  274TIP3   OH222380   6.059   3.286   1.690 -0.2438  0.5913  0.6367
  274TIP3    H122381   6.109   3.367   1.704 -1.3271  1.0761  1.9625
  274TIP3    H222382   6.007   3.276   1.770 -3.2217  0.7871 -1.1281
  275TIP3   OH222383   6.789   5.244   7.625 -0.0434  0.7926  0.0478
  275TIP3    H122384   6.849   5.318   7.619  1.1781 -0.1418  0.3219
  275TIP3    H222385   6.799   5.197   7.543  0.1328  0.2387  0.3792
  276TIP3   OH222386   3.060   1.970   1.901  0.0480 -0.1177 -0.2275
  276TIP3    H122387   2.976   1.997   1.937  0.2985 -0.3913  0.6062
  276TIP3    H222388   3.083   1.891   1.951  1.1529  0.3869  0.0929
  277TIP3   OH222389   3.923   1.259   1.545  0.2434  0.1548  0.1241
  277TIP3    H122390   3.954   1.318   1.476  1.0941  0.3107  0.6271
  277TIP3    H222391   3.841   1.299   1.575  0.8749  1.1612  0.5457
  278TIP3   OH222392   3.700   2.293   6.832 -0.2733 -0.0623 -0.0944
  278TIP3    H122393   3.732   2.274   6.744  1.5944  0.3952  0.4484
  278TIP3    H222394   3.665   2.209   6.864 -0.6157 -0.3183 -1.1106
  279TIP3   OH222395   3.939   0.731   6.146  0.3526 -0.4788  0.1975
  279TIP3    H122396   3.967   0.811   6.190 -0.9949  0.9565 -1.4022
  279TIP3    H222397   3.935   0.754   6.053 -1.1677 -2.0491 -0.1945
  280TIP3   OH222398   1.724   4.007   0.510  0.0667 -0.8423  0.1748
  280TIP3    H122399   1.674   4.058   0.447  0.8656  1.2092  1.1254
  280TIP3    H222400   1.658   3.970   0.569 -0.4362  1.9734  1.5194
  281TIP3   OH222401   0.341   1.960   1.282  0.2755 -0.3724 -0.2286
  281TIP3    H122402   0.361   1.984   1.372 -0.6334 -1.8575  0.4210
  281TIP3    H222403   0.403   1.890   1.261 -1.1826 -1.8975  0.2443
  282TIP3   OH222404   3.477   1.558   7.386 -0.0888  0.2153 -0.4442
  282TIP3    H122405   3.479   1.576   7.480  0.5707 -0.6688 -0.2727
  282TIP3    H222406   3.492   1.463   7.380 -2.7194 -0.2270 -1.3023
  283TIP3   OH222407   5.132   6.070   8.488 -0.1793  0.5979  0.2016
  283TIP3    H122408   5.038   6.055   8.483 -0.0556  0.1549 -0.9942
  283TIP3    H222409   5.170   5.982   8.495  0.1953  0.7177 -0.2918
  284TIP3   OH222410   3.433   4.699   0.942  0.4872  0.1162  0.2107
  284TIP3    H122411   3.470   4.654   0.866 -1.2142  0.7427 -1.0333
  284TIP3    H222412   3.339   4.683   0.937  0.2517  0.7687  1.8107
  285TIP3   OH222413   2.804   4.316   8.364 -0.0229  0.0044 -0.1374
  285TIP3    H122414   2.838   4.260   8.294  0.9407  0.0126  0.3041
  285TIP3    H222415   2.872   4.313   8.432  0.0160  1.6594 -0.0656
  286TIP3   OH222416   3.356   4.348   0.943 -0.0755 -0.1122  0.2663
  286TIP3    H122417   3.297   4.339   1.019 -1.9288  0.9852 -0.9643
  286TIP3    H222418   3.298   4.371   0.870  1.6929 -0.8003 -1.4384
  287TIP3   OH222419   6.582   0.149   6.940 -0.0330 -0.4379  0.2136
  287TIP3    H122420   6.635   0.133   6.863 -1.1091 -2.4890 -0.1667
  287TIP3    H222421   6.509   0.086   6.933 -1.1194  0.5367  1.9836
  288TIP3   OH222422   0.195   5.211   6.909  0.2663  0.1060 -0.2707
  288TIP3    H122423   0.146   5.183   6.987  0.5797 -0.7005 -0.3492
  288TIP3    H222424   0.149   5.289   6.879  1.1663  1.4985  1.7253
  289TIP3   OH222425   5.420   3.010   2.368 -0.1063  0.0298  0.6140
  289TIP3    H122426   5.472   2.974   2.439  0.2661  0.2644  0.4663
  289TIP3    H222427   5.359   3.070   2.411  0.2588  0.3303  0.7165
  290TIP3   OH222428   4.392   0.571   8.219  0.0168 -0.2452 -0.1805
  290TIP3    H122429   4.333   0.588   8.292 -0.3776  0.5625 -0.6806
  290TIP3    H222430   4.400   0.655   8.174 -0.2238 -0.8631 -1.4217
  291TIP3   OH222431   2.315   5.532   7.435  0.4671 -0.1557 -0.5099
  291TIP3    H122432   2.228   5.569   7.426  0.2595 -0.4070  0.3741
  291TIP3    H222433   2.351   5.532   7.346 -0.3747  0.0784 -0.8533
  292TIP3   OH222434   4.548   1.162   2.598  0.1483  0.0188  0.1114
  292TIP3    H122435   4.562   1.179   2.504 -0.0132 -1.8491 -0.2812
  292TIP3    H222436   4.581   1.073   2.611  0.3408  0.3262  1.8840
  293TIP3   OH222437   5.346   4.078   7.610 -0.7547  0.4772 -0.9812
  293TIP3    H122438   5.424   4.024   7.593 -1.1896 -0.2043 -0.8515
  293TIP3    H222439   5.295   4.072   7.529 -1.2658 -0.1009 -0.6227
  294TIP3   OH222440   2.395   3.593   8.724 -0.7007 -0.2944  0.0039
  294TIP3    H122441   2.304   3.568   8.743 -0.1812 -1.0181  1.7415
  294TIP3    H222442   2.447   3.521   8.760  0.5448 -0.5058 -2.0697
  295TIP3   OH222443   5.757   5.231   1.978 -0.3408  0.4594  0.3040
  295TIP3    H122444   5.843   5.198   2.005  0.1207 -0.6623 -2.2466
  295TIP3    H222445   5.776   5.316   1.939 -0.5957  0.8011  0.9115
  296TIP3   OH222446   2.003   2.204   0.607 -0.2521  0.0315 -0.3224
  296TIP3    H122447   2.019   2.295   0.628 -0.5821  0.2020 -0.7931
  296TIP3    H222448   1.979   2.205   0.514  0.3341 -0.5948 -0.4894
  297TIP3   OH222449   0.083   2.855   0.829 -0.0581 -0.0416  0.2528
  297TIP3    H122450   0.055   2.766   0.847  0.7201 -0.0442  1.6005
  297TIP3    H222451   0.078   2.900   0.913  0.9093  0.7978 -0.1036
  298TIP3   OH222452   4.001   4.477   7.994 -0.6338 -0.1061  0.1969
  298TIP3    H122453   4.096   4.478   7.999 -0.5646 -1.0749 -0.5132
  298TIP3    H222454   3.981   4.510   7.906 -0.9301 -0.3402  0.1749
  299TIP3   OH222455   3.467   0.852   1.711  0.6013 -0.4479  0.7444
  299TIP3    H122456   3.445   0.885   1.798  0.0907 -1.0646  0.8584
  299TIP3    H222457   3.502   0.764   1.727 -0.4220 -0.9610  0.2587
  300TIP3   OH222458   4.376   5.255   7.941 -0.3473  0.1346  0.0292
  300TIP3    H122459   4.315   5.240   7.868  0.6471  0.2222 -0.8511
  300TIP3    H222460   4.340   5.331   7.987 -1.1293 -0.0741 -0.2237
  301TIP3   OH222461   0.761   2.919   8.126 -0.1911  0.4445  0.1595
  301TIP3    H122462   0.737   2.942   8.037  0.4173 -0.4215 -0.2418
  301TIP3    H222463   0.690   2.954   8.180 -2.1193 -1.5914 -0.9166
  302TIP3   OH222464   6.737   2.759   8.836  0.3119 -0.4012 -0.3664
  302TIP3    H122465   6.781   2.828   8.787 -0.8038 -0.2179 -1.1344
  302TIP3    H222466   6.762   2.775   8.927  2.3320 -0.6869 -0.8256
  303TIP3   OH222467   5.377   4.406   2.365  0.3583 -0.3288  0.5866
  303TIP3    H122468   5.299   4.388   2.314  0.0313  1.7423  0.2893
  303TIP3    H222469   5.446   4.421   2.300 -0.1396  2.6769  0.5941
  304TIP3   OH222470   5.111   6.744   7.440  0.0975 -0.6569 -0.2936
  304TIP3    H122471   5.135   6.791   7.360  1.5798  0.1947  0.6136
  304TIP3    H222472   5.171   6.669   7.442 -1.1598 -1.7330 -0.8812
  305TIP3   OH222473   0.223   2.303   0.371 -0.0471 -0.0852 -0.2306
  305TIP3    H122474   0.169   2.371   0.412 -0.2670 -0.0451 -0.5824
  305TIP3    H222475   0.312   2.336   0.377 -0.3055  1.0513 -1.9445
  306TIP3   OH222476   3.690   4.778   1.125 -0.0999  0.1368 -0.1588
  306TIP3    H122477   3.755   4.809   1.062  0.6751 -0.9294  0.0835
  306TIP3    H222478   3.610   4.766   1.074  0.8258 -1.8534 -1.2486
  307TIP3   OH222479   5.363   4.494   7.844 -0.1784  0.5425 -0.0581
  307TIP3    H122480   5.361   4.466   7.752 -1.0656 -2.2803  0.7532
  307TIP3    H222481   5.279   4.466   7.880  0.3371  1.2027  1.7504
  308TIP3   OH222482   3.576   4.529   7.958  0.0115 -0.3098  0.2205
  308TIP3    H122483   3.503   4.475   7.987 -0.4281 -0.0460 -0.3786
  308TIP3    H222484   3.544   4.573   7.880 -0.9629  3.6044  2.5710
  309TIP3   OH222485   5.860   1.739   8.617 -0.2932 -0.1030 -0.1898
  309TIP3    H122486   5.827   1.649   8.616  0.2263 -0.2991  0.0371
  309TIP3    H222487   5.807   1.783   8.683 -2.2658  0.4370 -2.0205
  310TIP3   OH222488   3.434   2.123   8.261 -0.3758 -0.0339 -0.1090
  310TIP3    H122489   3.363   2.077   8.216 -0.8276  1.0865 -0.5800
  310TIP3    H222490   3.495   2.145   8.191  0.1162 -0.4146  0.1998
  311TIP3   OH222491   3.042   2.806   8.604 -0.3388  0.1940  0.5660
  311TIP3    H122492   3.056   2.712   8.603  0.3872  0.2953  0.5178
  311TIP3    H222493   2.978   2.822   8.535 -0.6878 -0.2910  0.7699
  312TIP3   OH222494   4.445   0.580   0.786 -0.2004 -0.0066  0.3758
  312TIP3    H122495   4.464   0.487   0.800  0.2863  0.0878  0.3455
  312TIP3    H222496   4.371   0.581   0.726  0.4683 -0.3686 -0.4762
  313TIP3   OH222497   4.759   1.257   0.918  0.1770  0.2803 -0.0858
  313TIP3    H122498   4.718   1.210   0.845  0.4495  0.0063 -0.0648
  313TIP3    H222499   4.721   1.218   0.997  0.2814  0.2061 -0.0717
  314TIP3   OH222500   4.978   3.021   1.353 -0.0566  0.1761  0.0450
  314TIP3    H122501   4.915   3.078   1.396 -1.9044  0.1563 -2.4392
  314TIP3    H222502   4.935   2.935   1.348  0.6260 -0.1451 -0.6361
  315TIP3   OH222503   2.201   3.545   7.946  1.1417  0.6884  0.5666
  315TIP3    H122504   2.162   3.534   8.033 -0.1985 -0.5844 -0.1689
  315TIP3    H222505   2.155   3.483   7.890  2.3889  1.0620 -0.9493
  316TIP3   OH222506   4.296   1.314   8.676 -0.1174 -0.0300 -0.0456
  316TIP3    H122507   4.361   1.306   8.606  0.0057  0.9576 -0.0659
  316TIP3    H222508   4.292   1.227   8.715  1.4998 -0.0232  0.1985
  317TIP3   OH222509   0.320   0.783   7.186 -0.0993  0.7147 -0.3238
  317TIP3    H122510   0.280   0.808   7.269 -2.7811 -2.3498 -0.4846
  317TIP3    H222511   0.333   0.866   7.140 -1.9393  2.2487  1.7076
  318TIP3   OH222512   2.312   2.892   8.081  0.6359  0.7895 -0.3063
  318TIP3    H122513   2.360   2.937   8.012  1.9742 -0.5789 -0.2875
  318TIP3    H222514   2.379   2.853   8.136 -0.4717 -0.2902  0.3182
  319TIP3   OH222515   1.694   0.664   0.826  0.3831 -0.5407  0.1702
  319TIP3    H122516   1.639   0.740   0.804  1.5978  0.5316  0.6903
  319TIP3    H222517   1.779   0.702   0.850  0.9529 -2.0604  0.6944
  320TIP3   OH222518   3.409   6.411   6.497  0.0791  0.5976 -0.6182
  320TIP3    H122519   3.480   6.450   6.548  1.2499 -0.6786 -1.2291
  320TIP3    H222520   3.413   6.456   6.412  0.6983 -0.0613 -0.9381
  321TIP3   OH222521   2.933   1.105   2.444 -0.1604  0.1727  0.1219
  321TIP3    H122522   2.898   1.037   2.502 -0.4392 -0.3570 -0.6527
  321TIP3    H222523   2.978   1.056   2.374 -0.1572  0.7927 -0.3193
  322TIP3   OH222524   1.281   0.786   8.216 -0.2275 -0.3201 -0.2240
  322TIP3    H122525   1.222   0.734   8.270 -0.6003 -0.1671 -0.4832
  322TIP3    H222526   1.246   0.875   8.220  0.4871 -0.0454  0.3382
  323TIP3   OH222527   6.280   4.308   6.412 -0.1723 -0.2106  0.7298
  323TIP3    H122528   6.240   4.280   6.494  1.1306 -1.9527  0.8297
  323TIP3    H222529   6.284   4.404   6.418 -0.8774 -0.2527  2.2968
  324TIP3   OH222530   2.292   2.623   6.173  0.3472 -0.1490  0.1745
  324TIP3    H122531   2.357   2.691   6.189 -1.2157  1.2425  0.9494
  324TIP3    H222532   2.338   2.540   6.190  2.1072  0.7168 -0.1441
  325TIP3   OH222533   5.663   2.332   8.085  0.4136  0.1250 -0.6797
  325TIP3    H122534   5.715   2.260   8.121  1.5566  1.2613  0.0259
  325TIP3    H222535   5.664   2.318   7.990  2.5701  0.4401 -0.7435
  326TIP3   OH222536   6.742   5.423   1.609 -0.2697  0.0369 -0.5996
  326TIP3    H122537   6.735   5.327   1.605  0.5195 -0.1388  1.0116
  326TIP3    H222538   6.687   5.448   1.683 -0.0639  0.7810 -0.6905
  327TIP3   OH222539   3.802   4.363   7.103  0.3148 -0.5249  0.5609
  327TIP3    H122540   3.871   4.395   7.045 -0.1588 -1.0335 -0.3010
  327TIP3    H222541   3.724   4.358   7.048 -0.8877  1.7204  1.9111
  328TIP3   OH222542   0.001   3.139   7.988 -0.0457  0.6107  0.1932
  328TIP3    H122543  -0.090   3.154   7.960 -0.2120  0.3159  0.5738
  328TIP3    H222544   0.044   3.102   7.911 -0.5691 -0.4568  0.3951
  329TIP3   OH222545   0.840   6.531   1.762 -0.3966  0.0011 -0.3580
  329TIP3    H122546   0.769   6.542   1.826  0.2035 -1.0486  0.5244
  329TIP3    H222547   0.820   6.447   1.720 -0.4263  0.3738 -1.0912
  330TIP3   OH222548   1.063   3.168   7.409  0.0224  0.1068  0.0154
  330TIP3    H122549   1.067   3.207   7.497  2.0761  0.9158 -0.3641
  330TIP3    H222550   1.127   3.097   7.412  0.4544  0.4394 -0.9514
  331TIP3   OH222551   2.916   2.242   1.294  0.5185  0.2236 -0.3206
  331TIP3    H122552   2.914   2.284   1.380  1.3120 -0.9285  0.2881
  331TIP3    H222553   2.932   2.314   1.232  1.2960  0.8907  0.6244
  332TIP3   OH222554   0.790   0.322   0.839  0.6314 -0.7838 -0.2810
  332TIP3    H122555   0.849   0.380   0.888 -0.0292 -0.0858 -0.2850
  332TIP3    H222556   0.734   0.284   0.907  0.9566 -1.2979 -0.2975
  333TIP3   OH222557   2.401   3.832   8.332  0.3384  0.2723 -0.1846
  333TIP3    H122558   2.328   3.791   8.378  0.1863 -0.5351 -1.0935
  333TIP3    H222559   2.364   3.859   8.248  1.1608 -0.5077 -0.8209
  334TIP3   OH222560   4.795   0.162   1.165 -0.1047 -0.0874  0.4365
  334TIP3    H122561   4.740   0.127   1.235  1.2930 -2.4943  0.4266
  334TIP3    H222562   4.745   0.149   1.085  0.1872 -1.7127  0.4968
  335TIP3   OH222563   6.072   6.014   0.306  0.3181 -0.6444  0.0350
  335TIP3    H122564   6.014   6.086   0.284 -0.7881 -1.2509  0.8777
  335TIP3    H222565   6.131   6.049   0.373  0.7895 -0.0997 -0.6522
  336TIP3   OH222566   6.374   2.797   0.692  0.2592 -0.4248  0.7169
  336TIP3    H122567   6.369   2.731   0.760 -0.1814 -2.6839 -1.3684
  336TIP3    H222568   6.462   2.787   0.655  0.0611 -0.0834  0.1416
  337TIP3   OH222569   6.063   2.637   7.548  0.2652  0.5201 -0.2208
  337TIP3    H122570   6.138   2.585   7.579 -0.7511 -1.2714 -0.5872
  337TIP3    H222571   6.041   2.598   7.463 -2.6135 -0.7547  0.9861
  338TIP3   OH222572   0.253   3.721   6.454  0.1381 -0.0667 -0.5939
  338TIP3    H122573   0.224   3.746   6.366  0.2386 -0.1449 -0.6496
  338TIP3    H222574   0.247   3.626   6.455  1.3631 -0.1649 -0.9506
  339TIP3   OH222575   2.406   2.498   7.851 -0.1266  0.1579 -0.0339
  339TIP3    H122576   2.472   2.562   7.825 -0.6618 -0.0627 -2.1156
  339TIP3    H222577   2.366   2.534   7.929  0.8350  1.4625 -0.1190
  340TIP3   OH222578   4.184   2.030   8.185 -0.3150 -0.0944  0.0871
  340TIP3    H122579   4.183   1.934   8.179 -0.5682 -0.1875  1.2872
  340TIP3    H222580   4.271   2.051   8.218  0.5709  0.2864 -2.2921
  341TIP3   OH222581   1.369   6.660   0.297  0.4337 -0.0190  0.2068
  341TIP3    H122582   1.405   6.586   0.347 -2.4038 -0.6054  1.5987
  341TIP3    H222583   1.436   6.728   0.303  3.6895 -2.6469 -2.0273
  342TIP3   OH222584   0.348   0.791   0.923 -0.5379 -0.4123 -0.5014
  342TIP3    H122585   0.304   0.827   1.000 -0.1660 -0.7524 -0.1250
  342TIP3    H222586   0.302   0.830   0.848 -1.8415 -1.1775 -0.1316
  343TIP3   OH222587   3.003   0.743   1.358  0.0915  0.0266  0.8538
  343TIP3    H122588   3.088   0.702   1.376  0.8456  1.2263  0.2001
  343TIP3    H222589   3.011   0.830   1.396 -0.9070  0.1056  0.8945
  344TIP3   OH222590   1.723   6.595   6.649 -0.1304 -0.6201  0.2857
  344TIP3    H122591   1.628   6.585   6.644 -0.1976  0.5701 -2.0732
  344TIP3    H222592   1.755   6.555   6.568  1.1199  1.3159 -0.2345
  345TIP3   OH222593   3.252   2.725   7.246  0.0844  0.3303  0.6026
  345TIP3    H122594   3.300   2.647   7.219 -0.4485  0.6478 -1.4985
  345TIP3    H222595   3.263   2.786   7.172 -2.6392  0.7954  0.4870
  346TIP3   OH222596   2.331   4.984   7.850  0.0625  0.2108  0.1001
  346TIP3    H122597   2.254   4.995   7.795  0.4504  0.9331 -0.3222
  346TIP3    H222598   2.320   5.050   7.919  0.4456  0.5365 -0.1430
  347TIP3   OH222599   6.728   0.706   0.426  0.0215  0.2333  0.2010
  347TIP3    H122600   6.647   0.662   0.451 -0.9560  2.5697  1.3930
  347TIP3    H222601   6.780   0.710   0.506 -0.1232  1.6697  0.2324
  348TIP3   OH222602   3.942   2.655   1.611 -0.3061 -0.3006  0.0982
  348TIP3    H122603   3.973   2.688   1.695  1.0035 -1.7124  0.2057
  348TIP3    H222604   3.855   2.693   1.601  0.6480  2.2756  0.6981
  349TIP3   OH222605   6.025   3.420   7.227  0.1776 -0.5400 -0.6339
  349TIP3    H122606   6.097   3.356   7.228 -1.3633 -2.3569 -0.1964
  349TIP3    H222607   6.069   3.505   7.223  2.4253 -1.4803  1.3992
  350TIP3   OH222608   1.148   3.850   8.001 -0.2574  0.2172  0.1069
  350TIP3    H122609   1.053   3.852   8.006 -0.5069  1.5261 -3.1396
  350TIP3    H222610   1.174   3.941   8.014  0.6029 -0.1439  1.0733
  351TIP3   OH222611   0.236   3.031   8.532  0.5113 -0.1416  0.0328
  351TIP3    H122612   0.145   3.004   8.523  0.9258 -1.4541 -0.4124
  351TIP3    H222613   0.242   3.066   8.621 -0.4741  0.1790 -0.0188
  352TIP3   OH222614   1.416   5.967   1.074  0.5494  0.0413  0.4806
  352TIP3    H122615   1.503   5.954   1.037  0.1216 -3.3536  0.3388
  352TIP3    H222616   1.432   6.000   1.163  1.8760  0.7463  0.0019
  353TIP3   OH222617   1.897   2.228   8.233  0.3162 -0.6828  0.0692
  353TIP3    H122618   1.931   2.145   8.266 -0.6829  0.2164  3.8053
  353TIP3    H222619   1.888   2.284   8.310  1.4353  3.1821 -2.2879
  354TIP3   OH222620   5.216   3.329   1.485 -0.5977  0.5080  0.3055
  354TIP3    H122621   5.193   3.253   1.539 -1.3672  1.1822  0.9741
  354TIP3    H222622   5.295   3.364   1.525  0.2030 -0.3707 -0.4732
  355TIP3   OH222623   0.423   5.402   8.754  0.4726 -0.4167  0.6328
  355TIP3    H122624   0.383   5.469   8.699  2.8000  1.6527  1.2497
  355TIP3    H222625   0.352   5.371   8.811 -0.5376  2.2199  0.9237
  356TIP3   OH222626   5.583   5.723   7.291 -0.0320 -0.3988  0.4116
  356TIP3    H122627   5.629   5.767   7.220 -0.2779 -0.9156 -0.0751
  356TIP3    H222628   5.640   5.733   7.367  0.5960 -0.5180 -0.0405
  357TIP3   OH222629   6.337   3.053   0.837 -0.4300  0.1458  0.4695
  357TIP3    H122630   6.372   3.113   0.770 -0.6224  1.2465  1.3276
  357TIP3    H222631   6.365   2.966   0.808  3.6617  0.9259  1.3947
  358TIP3   OH222632   4.598   6.285   7.848  0.4316  0.7058  0.1433
  358TIP3    H122633   4.568   6.301   7.937  0.1300  0.4563  0.0856
  358TIP3    H222634   4.524   6.311   7.793 -0.3066 -1.3836  0.0599
  359TIP3   OH222635   4.230   1.328   8.291  0.2477 -0.4701 -0.7240
  359TIP3    H122636   4.219   1.397   8.226  0.0545 -0.5702 -0.7981
  359TIP3    H222637   4.157   1.268   8.276 -0.4076  0.0456  0.2701
  360TIP3   OH222638   6.218   3.597   7.098  0.6305 -0.3819 -0.8453
  360TIP3    H122639   6.264   3.586   7.015  0.3023 -2.0302 -0.8533
  360TIP3    H222640   6.278   3.560   7.163  1.4778  2.1229 -0.1044
  361TIP3   OH222641   1.094   6.474   1.932 -0.7161 -0.1346  0.2106
  361TIP3    H122642   1.172   6.470   1.987  0.6333 -0.0342 -1.5996
  361TIP3    H222643   1.022   6.456   1.991  0.3732  2.4516  2.5206
  362TIP3   OH222644   0.210   5.956   7.672 -0.5820 -0.2560 -0.0025
  362TIP3    H122645   0.241   5.979   7.585 -0.0083 -0.3672  0.1674
  362TIP3    H222646   0.127   6.003   7.682  0.8689  2.4028  0.6296
  363TIP3   OH222647   0.258   4.991   6.163  0.1240 -0.1693 -0.0332
  363TIP3    H122648   0.167   5.001   6.192  0.2333 -0.1534  0.3176
  363TIP3    H222649   0.252   4.960   6.073 -0.2408 -0.8807  0.2283
  364TIP3   OH222650   5.566   3.321   7.042 -0.0552  0.4962 -0.1803
  364TIP3    H122651   5.586   3.303   7.134  0.2495  0.4321 -0.2567
  364TIP3    H222652   5.536   3.237   7.008  1.8809 -0.0451 -0.6715
  365TIP3   OH222653   2.691   3.974   0.625  0.0286 -0.3707  0.3832
  365TIP3    H122654   2.706   3.941   0.536  1.5023 -2.0400  1.1737
  365TIP3    H222655   2.635   3.908   0.665 -0.1834  0.0936  0.8570
  366TIP3   OH222656   3.349   5.483   0.514  0.2916 -0.1082  0.2175
  366TIP3    H122657   3.262   5.521   0.522  0.9871  1.6430 -0.0890
  366TIP3    H222658   3.355   5.458   0.422 -0.3322 -1.4523  0.5162
  367TIP3   OH222659   1.956   5.952   0.882  0.2050  0.0282 -0.0137
  367TIP3    H122660   2.015   6.026   0.868 -1.0019  1.0375  0.0263
  367TIP3    H222661   1.910   5.942   0.798 -0.8884  0.4744  0.5193
  368TIP3   OH222662   3.452   4.877   1.769  0.1893  0.5848 -0.5838
  368TIP3    H122663   3.441   4.791   1.810  0.3521  0.0709 -1.5981
  368TIP3    H222664   3.366   4.919   1.779 -0.3895 -0.3330 -1.5009
  369TIP3   OH222665   2.601   4.811   8.154  0.4514  0.3170  0.1649
  369TIP3    H122666   2.521   4.770   8.122 -0.5116  2.3375 -0.1623
  369TIP3    H222667   2.608   4.782   8.245  0.6153 -1.6679 -0.4384
  370TIP3   OH222668   2.757   4.557   7.219  0.1927  0.0696  0.1042
  370TIP3    H122669   2.797   4.509   7.146 -2.0465 -2.0758  0.1666
  370TIP3    H222670   2.831   4.580   7.275  1.6786 -0.8040 -1.3979
  371TIP3   OH222671   2.964   5.970   2.300 -0.1793 -0.2009 -0.0998
  371TIP3    H122672   3.039   5.960   2.241 -0.5673 -0.6756 -0.5246
  371TIP3    H222673   2.893   6.000   2.244  0.2197  2.3795  0.6754
  372TIP3   OH222674   1.999   4.450   8.111 -0.1656  0.1361 -0.7490
  372TIP3    H122675   1.925   4.506   8.138 -0.3711  0.6188 -2.2219
  372TIP3    H222676   1.976   4.363   8.143 -1.5034  0.2359 -1.3654
  373TIP3   OH222677   2.626   1.257   7.311  0.2886 -0.5481  0.6810
  373TIP3    H122678   2.699   1.287   7.256  0.5854 -0.0294  1.3550
  373TIP3    H222679   2.568   1.333   7.317 -1.5813 -1.6071 -1.8315
  374TIP3   OH222680   5.264   2.528   2.491  0.0935  0.1394 -0.0012
  374TIP3    H122681   5.354   2.559   2.501 -0.5281  2.1331 -0.0682
  374TIP3    H222682   5.216   2.605   2.458 -1.8145 -0.5935  0.9183
  375TIP3   OH222683   2.966   3.207   7.987 -0.0514 -0.2343  0.2998
  375TIP3    H122684   3.048   3.170   7.953 -0.7025  0.1064 -1.8298
  375TIP3    H222685   2.975   3.301   7.972  0.4524  0.2224  3.0911
  376TIP3   OH222686   4.343   6.681   7.769 -0.3282  0.4039 -0.2727
  376TIP3    H122687   4.263   6.646   7.810  0.3276  0.7238  1.3468
  376TIP3    H222688   4.381   6.607   7.724  0.1926 -0.6392  1.7679
  377TIP3   OH222689   4.091   6.563   7.243 -0.5114  0.0366 -0.2268
  377TIP3    H122690   4.026   6.563   7.313 -0.4845  1.0830 -0.1751
  377TIP3    H222691   4.068   6.489   7.187 -2.1998  0.8286 -0.6266
  378TIP3   OH222692   5.011   3.657   8.540  0.3166 -0.6632 -0.2511
  378TIP3    H122693   5.089   3.643   8.593 -0.3825  0.3185  1.1046
  378TIP3    H222694   5.016   3.749   8.514  0.4815 -1.0427 -1.6578
  379TIP3   OH222695   6.294   0.615   2.170  0.8339 -0.4110  0.3706
  379TIP3    H122696   6.206   0.653   2.177  0.6885 -0.2854 -1.6602
  379TIP3    H222697   6.350   0.689   2.144  1.1536 -0.9141 -0.3842
  380TIP3   OH222698   0.032   1.724   0.045 -0.0377 -0.2864 -0.2628
  380TIP3    H122699   0.106   1.741  -0.014  1.4840  0.6110  1.7633
  380TIP3    H222700  -0.014   1.808   0.051  0.9456  0.1895  1.2202
  381TIP3   OH222701   1.896   0.102   7.705 -0.0736  1.0182 -0.3909
  381TIP3    H122702   1.950   0.029   7.735 -0.5670  1.9029  3.1132
  381TIP3    H222703   1.809   0.065   7.694 -0.0432  0.8130  0.0504
  382TIP3   OH222704   0.358   0.660   0.506 -0.0984 -0.1745  0.1862
  382TIP3    H122705   0.345   0.751   0.481 -0.2847 -0.2526 -0.0041
  382TIP3    H222706   0.371   0.662   0.601 -0.7341 -0.0172  0.2752
  383TIP3   OH222707   1.624   5.897   8.011 -0.6716 -0.2604 -0.0692
  383TIP3    H122708   1.679   5.819   8.010  2.4617  1.7937  0.6384
  383TIP3    H222709   1.611   5.919   7.919  0.3023 -0.3989 -0.2424
  384TIP3   OH222710   2.692   5.887   6.616  0.3823 -0.3255  0.3192
  384TIP3    H122711   2.677   5.793   6.631 -0.8240 -0.2444 -0.2105
  384TIP3    H222712   2.785   5.893   6.597  0.1306 -1.7387 -1.6994
  385TIP3   OH222713   5.384   5.395   8.518  0.1389 -0.0417  0.3851
  385TIP3    H122714   5.364   5.427   8.431 -0.5290  0.2208  0.6279
  385TIP3    H222715   5.466   5.346   8.508 -0.8013 -1.4809 -0.7321
  386TIP3   OH222716   6.092   0.007   1.757  0.3239 -0.2685 -0.0081
  386TIP3    H122717   6.148  -0.044   1.814  0.3916 -0.0096  0.1579
  386TIP3    H222718   6.005   0.000   1.796  0.1569 -0.9927 -0.4811
  387TIP3   OH222719   3.538   6.154   2.017 -0.2110  0.0402  0.2245
  387TIP3    H122720   3.480   6.222   2.052  0.3855  0.1235  1.0732
  387TIP3    H222721   3.574   6.111   2.094 -0.5848 -1.2662 -0.2988
  388TIP3   OH222722   0.229   5.778   6.968 -0.2486  0.1182  0.3478
  388TIP3    H122723   0.272   5.693   6.955 -0.2654 -0.0320  1.2467
  388TIP3    H222724   0.274   5.836   6.907 -0.3507 -0.5649 -0.4086
  389TIP3   OH222725   1.211   2.443   1.620 -0.4751 -0.1584  0.0570
  389TIP3    H122726   1.262   2.362   1.619 -1.1444 -0.5882  0.3291
  389TIP3    H222727   1.264   2.505   1.568  0.1719 -0.6786  0.0824
  390TIP3   OH222728   0.610   1.463   1.674  0.0597  0.8508  1.1609
  390TIP3    H122729   0.556   1.388   1.698  3.8027 -2.1952  1.0112
  390TIP3    H222730   0.673   1.472   1.745  1.7049  1.7223 -0.3230
  391TIP3   OH222731   0.375   2.985   2.095  0.4047 -0.1618  0.0903
  391TIP3    H122732   0.295   2.997   2.044  0.9930  1.1175 -0.5754
  391TIP3    H222733   0.399   3.073   2.123  2.0680 -0.4088 -0.4838
  392TIP3   OH222734   1.903   6.625   7.165 -0.1457 -0.6038 -0.0571
  392TIP3    H122735   1.927   6.534   7.184  0.1417 -0.6383 -0.5591
  392TIP3    H222736   1.960   6.650   7.092 -2.4588 -1.0886 -2.1929
  393TIP3   OH222737   6.170   5.689   1.935 -0.2790 -0.1931 -0.1401
  393TIP3    H122738   6.219   5.713   2.014 -1.3565 -0.1029  0.5344
  393TIP3    H222739   6.078   5.699   1.961 -0.6670  1.5762 -1.9513
  394TIP3   OH222740   0.193   6.428   0.190  0.7061  0.0861 -0.3245
  394TIP3    H122741   0.132   6.490   0.151  0.4866  1.1114  1.5368
  394TIP3    H222742   0.238   6.478   0.258 -1.0666 -2.2460  2.8180
  395TIP3   OH222743   5.311   1.556   1.525 -0.4471 -0.3985 -0.1767
  395TIP3    H122744   5.382   1.517   1.576 -0.1883  0.2006 -0.0700
  395TIP3    H222745   5.353   1.587   1.445  0.0084  2.4824  1.0595
  396TIP3   OH222746   3.365   6.627   1.707  0.5920 -0.2186 -0.2750
  396TIP3    H122747   3.445   6.656   1.752  1.3644 -2.2968 -0.2242
  396TIP3    H222748   3.377   6.656   1.616  0.6050  0.9588  0.0867
  397TIP3   OH222749   4.889   1.934   7.726  0.3957 -0.4271 -0.2736
  397TIP3    H122750   4.854   1.927   7.638 -0.2275  1.2573 -0.2101
  397TIP3    H222751   4.947   2.010   7.723 -0.6394  0.4784  1.0257
  398TIP3   OH222752   5.846   5.062   0.978  0.0554  0.0969  0.4842
  398TIP3    H122753   5.788   5.119   1.028  0.7792  0.1763  1.2597
  398TIP3    H222754   5.892   5.121   0.918 -1.1588 -0.0624 -0.6516
  399TIP3   OH222755   0.152   5.386   6.023  0.7176 -0.3485  0.4230
  399TIP3    H122756   0.113   5.466   5.988  0.7009 -1.1950 -1.5796
  399TIP3    H222757   0.121   5.382   6.114  1.0262  2.0821  0.7007
  400TIP3   OH222758   6.554   1.348   0.898  0.2980 -0.0860 -0.1255
  400TIP3    H122759   6.561   1.422   0.958  1.3681 -0.0657 -0.2502
  400TIP3    H222760   6.462   1.345   0.873  0.1673  0.9465  0.2011
  401TIP3   OH222761   5.027   5.868   0.329 -0.0465 -0.5973 -0.3685
  401TIP3    H122762   4.963   5.814   0.282 -0.5580  0.1356 -0.5354
  401TIP3    H222763   5.017   5.955   0.292  1.1900 -0.4979 -0.5180
  402TIP3   OH222764   3.222   5.935   0.511  0.6184 -0.3366  0.3368
  402TIP3    H122765   3.160   5.938   0.438  0.9102  0.4636  0.1096
  402TIP3    H222766   3.307   5.922   0.469  0.7881  0.1239  0.5316
  403TIP3   OH222767   0.425   6.230   7.659  0.2395 -0.4316 -0.5598
  403TIP3    H122768   0.425   6.168   7.587 -0.1884 -1.4529  0.2879
  403TIP3    H222769   0.333   6.248   7.676  0.3425  0.0106 -0.4334
  404TIP3   OH222770   4.200   0.536   0.664 -0.1082  0.1363  0.6000
  404TIP3    H122771   4.126   0.577   0.618 -1.2315 -1.9817  0.4074
  404TIP3    H222772   4.178   0.545   0.757 -0.5660 -0.3430  0.5477
  405TIP3   OH222773   5.843   5.441   1.838 -0.0655  0.3078  0.5900
  405TIP3    H122774   5.792   5.505   1.888  1.6526  2.4273 -0.1931
  405TIP3    H222775   5.846   5.477   1.750  0.4897 -1.1844 -0.0319
  406TIP3   OH222776   1.534   1.176   0.242  0.0862  0.2647 -0.1160
  406TIP3    H122777   1.623   1.206   0.262 -0.7384  1.8454  1.5216
  406TIP3    H222778   1.535   1.082   0.261  1.5253  0.1316 -0.6979
  407TIP3   OH222779   6.211   4.837   7.557  0.7944  0.0514  0.3850
  407TIP3    H122780   6.168   4.803   7.478 -0.9136 -0.9162  1.6452
  407TIP3    H222781   6.253   4.918   7.529 -0.4792  0.1768 -1.3298
  408TIP3   OH222782   6.477   3.768   8.387  0.0548 -0.3955 -0.1029
  408TIP3    H122783   6.449   3.759   8.478 -1.7265 -2.6636 -0.7670
  408TIP3    H222784   6.413   3.828   8.349 -0.6479 -1.2736 -0.3508
  409TIP3   OH222785   5.147   2.444   0.520 -0.1777 -0.7396  0.0132
  409TIP3    H122786   5.137   2.386   0.445 -0.5391  1.3356 -1.6146
  409TIP3    H222787   5.239   2.435   0.545  0.5840  0.2695 -2.2105
  410TIP3   OH222788   6.138   0.174   1.051 -0.5664  0.2467 -0.1252
  410TIP3    H122789   6.170   0.185   0.962 -0.8636  2.4349 -0.0325
  410TIP3    H222790   6.061   0.118   1.043  0.1110 -0.5747 -1.0638
  411TIP3   OH222791   0.755   5.976   8.227 -0.1302  0.6390  0.1192
  411TIP3    H122792   0.825   5.914   8.248 -1.0099  0.0707  1.5893
  411TIP3    H222793   0.704   5.982   8.308 -1.6577  1.1816 -0.8445
  412TIP3   OH222794   6.495   6.541   1.540 -0.0671 -0.0294 -0.0824
  412TIP3    H122795   6.529   6.618   1.495  1.2943 -0.6444 -0.1487
  412TIP3    H222796   6.563   6.519   1.604  0.1864 -1.9525 -0.9567
  413TIP3   OH222797   4.160   4.895   0.652  0.5794 -0.3775  0.3682
  413TIP3    H122798   4.187   4.822   0.709 -0.1386  0.9912  2.5736
  413TIP3    H222799   4.226   4.896   0.583  0.5521 -3.1659  0.1993
  414TIP3   OH222800   5.579   5.153   0.314 -0.0582  0.0869  0.5200
  414TIP3    H122801   5.500   5.134   0.363 -0.9477  0.0176 -0.8780
  414TIP3    H222802   5.643   5.089   0.345 -0.6642 -0.1167  1.3803
  415TIP3   OH222803   5.856   4.292   0.015  0.5162 -0.2204  0.6105
  415TIP3    H122804   5.865   4.372   0.067 -2.5208  0.3309  0.5196
  415TIP3    H222805   5.867   4.321  -0.076 -1.2748  0.3234  0.5239
  416TIP3   OH222806   1.528   3.360   1.061 -0.2325 -0.0350  0.6459
  416TIP3    H122807   1.600   3.324   1.113 -0.7310 -1.4285  0.4089
  416TIP3    H222808   1.459   3.295   1.067 -0.0770 -0.5864 -2.2855
  417TIP3   OH222809   5.321   0.078   6.259 -0.1514 -0.1913  0.5700
  417TIP3    H122810   5.359  -0.006   6.234  1.0318  0.8123 -1.2374
  417TIP3    H222811   5.388   0.142   6.235 -1.5905  1.3816  0.6097
  418TIP3   OH222812   6.571   0.518   2.451  0.0967  0.3570  0.0707
  418TIP3    H122813   6.514   0.467   2.508  0.0069  1.1993  0.7673
  418TIP3    H222814   6.521   0.599   2.435 -0.3528 -0.2865 -2.1059
  419TIP3   OH222815   4.857   3.161   0.165  0.2745 -0.9631 -0.5221
  419TIP3    H122816   4.917   3.231   0.139 -1.4062  0.5290 -0.5099
  419TIP3    H222817   4.915   3.092   0.199  1.9360  0.8708  0.5891
  420TIP3   OH222818   2.674   0.097   1.736 -0.6719  0.0682 -0.7548
  420TIP3    H122819   2.631   0.155   1.673  1.5584  0.6621 -1.8278
  420TIP3    H222820   2.716   0.155   1.799 -1.0259 -0.4788  0.0065
  421TIP3   OH222821   2.038   5.487   0.178 -0.1040 -0.0859  0.2333
  421TIP3    H122822   1.950   5.505   0.212 -0.1252 -1.5039  0.9750
  421TIP3    H222823   2.051   5.393   0.192  0.7492 -0.3080 -1.7005
  422TIP3   OH222824   2.976   3.266   7.362 -0.6572  0.2090  0.1594
  422TIP3    H122825   2.920   3.256   7.439  0.5200 -0.1953  0.9971
  422TIP3    H222826   3.062   3.236   7.391 -0.4809 -1.2739 -1.7094
  423TIP3   OH222827   4.778   0.467   1.305  0.5985 -0.3720  0.5743
  423TIP3    H122828   4.862   0.459   1.260  0.2846 -0.6153  0.0063
  423TIP3    H222829   4.737   0.381   1.293  0.2892 -0.2702  0.8882
  424TIP3   OH222830   6.183   3.268   2.179  1.0169 -0.3020 -0.2764
  424TIP3    H122831   6.242   3.258   2.254 -0.2239  2.1929  1.1148
  424TIP3    H222832   6.114   3.203   2.194  1.2786 -0.4726  0.2106
  425TIP3   OH222833   0.242   0.569   7.824 -0.2815 -0.0391 -0.3983
  425TIP3    H122834   0.256   0.573   7.918  0.8923 -0.0178 -0.5670
  425TIP3    H222835   0.327   0.545   7.787 -0.9554 -1.0921 -1.3752
  426TIP3   OH222836   0.910   3.615   8.550 -0.2439 -0.4722 -0.0996
  426TIP3    H122837   0.996   3.628   8.587  0.8088 -2.2048 -1.7309
  426TIP3    H222838   0.850   3.661   8.609  1.7173  0.3578  1.3264
  427TIP3   OH222839   6.468   5.307   0.375  0.0372 -0.4374  0.4224
  427TIP3    H122840   6.516   5.355   0.441 -0.3302 -0.9622  1.0878
  427TIP3    H222841   6.456   5.219   0.412  0.3982 -0.9448 -0.6142
  428TIP3   OH222842   0.410   1.361   0.022  0.3284 -0.0316  0.0171
  428TIP3    H122843   0.479   1.333   0.081  0.8515 -0.0451 -0.5909
  428TIP3    H222844   0.369   1.435   0.067 -0.6967 -1.3643  1.3736
  429TIP3   OH222845   6.483   6.430   7.136  0.9110  0.6951  0.6056
  429TIP3    H122846   6.566   6.449   7.180  1.4220  0.2001 -0.1053
  429TIP3    H222847   6.507   6.426   7.043  0.2939 -0.5102  0.4805
  430TIP3   OH222848   4.804   2.703   7.745  0.3804  0.4700  0.1302
  430TIP3    H122849   4.773   2.737   7.829  0.4352 -0.8143  0.7004
  430TIP3    H222850   4.731   2.714   7.685  0.7463  2.5340 -0.0126
  431TIP3   OH222851   0.682   0.200   1.075  0.3212 -0.5066  0.1430
  431TIP3    H122852   0.741   0.175   1.146 -0.9137  0.1309  1.4634
  431TIP3    H222853   0.594   0.186   1.111 -0.3402 -0.2461 -1.3003
  432TIP3   OH222854   5.608   6.167   0.111 -0.3682  0.0923  0.6336
  432TIP3    H122855   5.530   6.214   0.141 -0.2938  0.0217  0.9411
  432TIP3    H222856   5.575   6.101   0.051 -0.6519 -0.6078  1.5452
  433TIP3   OH222857   4.876   0.241   6.866  0.8059 -0.3346  0.2004
  433TIP3    H122858   4.806   0.306   6.866  0.7234 -0.4226  0.3471
  433TIP3    H222859   4.836   0.162   6.831  1.0458 -0.1608 -0.4793
  434TIP3   OH222860   3.965   0.091   7.393 -0.5477 -0.3486  0.3579
  434TIP3    H122861   3.929   0.019   7.342 -1.1921  1.2320 -1.5181
  434TIP3    H222862   3.971   0.164   7.332  1.0036  0.9435  1.9346
  435TIP3   OH222863   3.217   3.060   7.927  0.2195  0.4194 -0.1337
  435TIP3    H122864   3.255   3.027   7.845  0.6553 -0.5581  0.4467
  435TIP3    H222865   3.281   3.037   7.994 -1.7103 -2.1235  1.0220
  436TIP3   OH222866   2.888   2.011   6.469  0.0142  0.1264  0.1489
  436TIP3    H122867   2.811   2.003   6.413  0.5397  0.1107 -0.5914
  436TIP3    H222868   2.957   2.041   6.409  0.3454  1.0809  0.9854
  437TIP3   OH222869   2.142   0.558   8.848 -0.3972 -0.3659 -0.2634
  437TIP3    H122870   2.152   0.492   8.780 -0.8171 -1.3332  0.5824
  437TIP3    H222871   2.217   0.543   8.906 -0.1093  0.3694 -0.4328
  438TIP3   OH222872   4.526   2.553   6.765  0.7841  0.2847  0.0682
  438TIP3    H122873   4.518   2.617   6.837  0.0149  0.0806  0.1754
  438TIP3    H222874   4.446   2.501   6.771  2.3725 -2.1866  1.3991
  439TIP3   OH222875   4.700   1.403   2.235 -0.3468 -0.0355  0.3517
  439TIP3    H122876   4.726   1.324   2.284  1.7246  0.1397 -0.3394
  439TIP3    H222877   4.629   1.441   2.287  0.7572 -0.6500  2.4716
  440TIP3   OH222878   1.069   0.275   6.738  0.8393 -0.4789  0.1811
  440TIP3    H122879   1.085   0.286   6.644  0.8387  2.9024  0.4494
  440TIP3    H222880   1.002   0.341   6.758  0.2107 -1.7080  2.4242
  441TIP3   OH222881   1.313   3.090   8.290 -0.5151 -0.0139  0.2459
  441TIP3    H122882   1.232   3.102   8.239  0.1889  2.0004 -0.5083
  441TIP3    H222883   1.380   3.071   8.225  0.1053  1.0317  0.5561
  442TIP3   OH222884   4.255   6.346   7.289  0.1604  0.4571 -0.2108
  442TIP3    H122885   4.208   6.321   7.210  0.9669 -0.4558 -0.4077
  442TIP3    H222886   4.306   6.423   7.263 -1.5944  1.8050  0.1496
  443TIP3   OH222887   6.017   3.922   1.338  0.0395  0.3675  0.5881
  443TIP3    H122888   6.056   3.959   1.417 -1.8147  1.5713  0.9884
  443TIP3    H222889   5.936   3.971   1.325 -0.0581 -0.2676 -1.6862
  444TIP3   OH222890   4.540   5.001   1.176 -0.1097  0.0169 -0.6078
  444TIP3    H122891   4.462   5.041   1.214  0.6623 -0.3110  1.4519
  444TIP3    H222892   4.600   5.074   1.163 -0.3872  0.1350 -1.2283
  445TIP3   OH222893   5.730   6.344   0.482  0.1788 -0.7867 -0.6133
  445TIP3    H122894   5.774   6.298   0.553 -1.3443 -0.5918  0.5133
  445TIP3    H222895   5.781   6.425   0.470  0.4435 -0.8155  0.2839
  446TIP3   OH222896   5.676   2.008   1.642  0.2020  0.0936 -0.6015
  446TIP3    H122897   5.704   1.981   1.729  0.7635  0.1096 -0.7706
  446TIP3    H222898   5.582   2.023   1.650  0.3653  0.7491  0.1641
  447TIP3   OH222899   4.115   3.567   1.283  0.2625 -0.6453  0.1142
  447TIP3    H122900   4.108   3.481   1.240  1.9210 -0.9629  0.3992
  447TIP3    H222901   4.198   3.603   1.250  0.9715 -0.3667  2.0648
  448TIP3   OH222902   1.286   3.957   0.780  0.2264  0.9723  0.1232
  448TIP3    H122903   1.254   3.968   0.870  0.1302  0.3244  0.1800
  448TIP3    H222904   1.208   3.963   0.725  0.1959  0.7530  0.1408
  449TIP3   OH222905   0.366   2.215   7.695 -0.5495 -0.5056  0.2420
  449TIP3    H122906   0.349   2.298   7.740  0.9879 -1.0827  2.0336
  449TIP3    H222907   0.413   2.240   7.616  0.6865  0.3236  1.2016
  450TIP3   OH222908   2.543   0.449   1.094  0.2628  0.2648 -0.5634
  450TIP3    H122909   2.593   0.485   1.167 -0.0342 -0.3200 -0.0583
  450TIP3    H222910   2.451   0.465   1.117 -0.1624 -3.8014  1.4421
  451TIP3   OH222911   6.068   2.770   8.397 -0.2827  0.3115 -0.2679
  451TIP3    H122912   6.109   2.766   8.311 -0.4885 -0.3789 -0.3350
  451TIP3    H222913   6.130   2.724   8.455 -0.1814  0.7045 -0.0601
  452TIP3   OH222914   2.365   4.698   7.002 -0.5308 -0.6225 -0.0110
  452TIP3    H122915   2.409   4.733   6.925 -1.5750 -0.9940 -0.8110
  452TIP3    H222916   2.412   4.618   7.023 -1.5870 -1.7230 -1.6610
  453TIP3   OH222917   4.333   1.125   0.889  0.8820  0.3541 -0.7577
  453TIP3    H122918   4.363   1.201   0.938 -0.6495  2.0400 -2.3107
  453TIP3    H222919   4.396   1.117   0.817  1.7271 -0.6361  0.0530
  454TIP3   OH222920   2.897   3.710   7.525  0.2828  0.3204  0.3025
  454TIP3    H122921   2.807   3.685   7.543  0.5725 -0.7731  0.3459
  454TIP3    H222922   2.929   3.642   7.465  1.4112  0.0108  1.2151
  455TIP3   OH222923   5.147   5.644   0.928 -0.2525  0.0711  0.0733
  455TIP3    H122924   5.191   5.590   0.862  0.8745  1.2359 -0.1672
  455TIP3    H222925   5.098   5.709   0.877  0.7145  1.0490  0.3390
  456TIP3   OH222926   6.276   3.487   1.701 -0.4006 -0.3072 -0.5961
  456TIP3    H122927   6.293   3.581   1.696  1.2364 -0.5720 -0.3923
  456TIP3    H222928   6.308   3.462   1.787  2.0708 -1.5697 -1.8005
  457TIP3   OH222929   3.934   1.843   6.829 -0.6512 -0.3591 -0.2391
  457TIP3    H122930   3.978   1.767   6.867 -0.6461 -0.8042 -1.1099
  457TIP3    H222931   3.908   1.815   6.742 -0.1063  0.8257 -0.8180
  458TIP3   OH222932   4.995   1.665   8.528  0.1903  0.4475  0.1973
  458TIP3    H122933   5.090   1.668   8.530  0.2015  0.0329  0.7139
  458TIP3    H222934   4.969   1.746   8.485  0.8139 -0.2286 -1.5167
  459TIP3   OH222935   0.038   5.442   1.994  0.5640  0.1848 -0.0601
  459TIP3    H122936   0.061   5.349   1.993 -0.4055 -0.0901  0.9935
  459TIP3    H222937  -0.054   5.443   2.019  0.8807  1.4933  1.1156
  460TIP3   OH222938   5.273   3.605   7.963 -0.3695  0.2208 -0.0983
  460TIP3    H122939   5.299   3.589   7.872  0.3877  0.3960  0.0818
  460TIP3    H222940   5.303   3.527   8.010 -0.4822  0.2697  0.0541
  461TIP3   OH222941   5.014   6.742   0.943 -0.0902 -0.4929  0.2257
  461TIP3    H122942   5.002   6.836   0.929  0.9522 -0.0993  1.7178
  461TIP3    H222943   5.102   6.725   0.909  0.3702 -0.5695  1.4009
  462TIP3   OH222944   5.728   1.200   6.837  0.4858  0.1002  0.3350
  462TIP3    H122945   5.795   1.137   6.865  2.0327  1.5182 -0.0312
  462TIP3    H222946   5.759   1.233   6.753 -1.3691 -0.1309 -0.5023
  463TIP3   OH222947   2.236   3.710   7.132  0.0971  0.2022  0.2405
  463TIP3    H122948   2.292   3.706   7.054  1.2392  0.5338  1.0050
  463TIP3    H222949   2.149   3.731   7.099  0.0433 -1.9652 -1.1603
  464TIP3   OH222950   1.427   0.803   8.655  0.0260  0.1052 -0.0418
  464TIP3    H122951   1.500   0.741   8.664  0.0422 -0.1292 -1.4914
  464TIP3    H222952   1.369   0.761   8.591 -1.5262  0.1756  1.2782
  465TIP3   OH222953   6.125   5.230   7.588  0.2743  0.1319  0.5857
  465TIP3    H122954   6.114   5.311   7.538 -0.2897  1.0645  2.1580
  465TIP3    H222955   6.065   5.168   7.546 -3.5250  2.1154  2.5237
  466TIP3   OH222956   6.371   2.552   1.418  0.1185 -0.0800  0.4196
  466TIP3    H122957   6.315   2.493   1.469 -0.7412 -1.2171 -1.7480
  466TIP3    H222958   6.316   2.581   1.345  1.4810  1.0740 -0.1933
  467TIP3   OH222959   5.323   1.082   0.539 -0.5318  0.1650 -0.5802
  467TIP3    H122960   5.236   1.053   0.512  0.0507 -0.9957 -1.3050
  467TIP3    H222961   5.354   1.014   0.599 -0.4059  0.9476  0.2680
  468TIP3   OH222962   6.112   5.468   0.110 -0.4603 -0.3391 -1.2049
  468TIP3    H122963   6.191   5.432   0.068  0.5156  0.0095  0.2716
  468TIP3    H222964   6.125   5.563   0.109  0.0288 -0.3449  0.6319
  469TIP3   OH222965   2.405   4.719   0.111 -0.1018  0.2133 -0.4448
  469TIP3    H122966   2.493   4.715   0.148 -1.5568 -0.9610  3.3431
  469TIP3    H222967   2.418   4.706   0.017  3.7375  0.2245 -0.0684
  470TIP3   OH222968   6.153   0.080   6.337 -0.4145  0.5214 -0.4974
  470TIP3    H122969   6.147   0.170   6.370 -0.1726  0.1359  0.6656
  470TIP3    H222970   6.242   0.052   6.360 -0.3146  0.1490 -1.3088
  471TIP3   OH222971   6.486   5.325   7.101  0.1546  0.0615  0.0421
  471TIP3    H122972   6.534   5.299   7.180  0.0377  0.7137  0.3323
  471TIP3    H222973   6.419   5.258   7.090  0.1323  0.0007  0.5330
  472TIP3   OH222974   1.934   4.696   0.568  0.4108 -0.0130 -0.5176
  472TIP3    H122975   1.844   4.727   0.561  0.0079 -1.2335 -0.9212
  472TIP3    H222976   1.959   4.714   0.658 -0.4630 -0.2782 -0.2184
  473TIP3   OH222977   2.073   6.539   1.146  0.3689 -0.1544 -0.2704
  473TIP3    H122978   1.990   6.492   1.146  0.2596 -0.0064 -1.5675
  473TIP3    H222979   2.120   6.505   1.070  1.5069 -0.2406  0.4462
  474TIP3   OH222980   3.089   4.315   7.943  0.6211 -0.5750  0.3980
  474TIP3    H122981   3.096   4.248   7.875 -1.0658  0.1040 -0.5006
  474TIP3    H222982   3.068   4.266   8.023 -0.5393 -1.1610 -0.2310
  475TIP3   OH222983   0.936   3.337   7.236  0.4762  0.2321 -0.3492
  475TIP3    H122984   0.942   3.410   7.298 -4.2723 -0.4284  1.3082
  475TIP3    H222985   1.000   3.273   7.268  2.1176  2.1200  0.3585
  476TIP3   OH222986   5.627   6.674   0.312  0.4124 -0.7676 -0.2938
  476TIP3    H122987   5.623   6.631   0.398 -0.4527  0.4179  0.2925
  476TIP3    H222988   5.546   6.725   0.308  1.1141  0.3001 -1.2191
  477TIP3   OH222989   0.693   0.833   0.101  0.1769 -0.4133  0.1148
  477TIP3    H122990   0.739   0.805   0.180  0.3458  0.0501  0.1872
  477TIP3    H222991   0.694   0.929   0.106  0.3237 -0.3749 -0.5228
  478TIP3   OH222992   6.315   3.814   8.638 -0.5461 -0.1695  0.6643
  478TIP3    H122993   6.226   3.787   8.613 -0.3003  0.3332 -0.8952
  478TIP3    H222994   6.327   3.899   8.595  1.2678 -0.9825 -0.5809
  479TIP3   OH222995   6.046   5.598   2.271  0.2333  0.1770 -0.1787
  479TIP3    H122996   5.976   5.554   2.321 -0.1743  0.8139 -0.1761
  479TIP3    H222997   6.083   5.529   2.217 -1.2391  0.0660 -1.1001
  480TIP3   OH222998   6.564   6.028   8.640 -0.6081 -0.3933 -0.2862
  480TIP3    H122999   6.609   6.044   8.723 -2.2746 -0.2971  0.6608
  480TIP3    H223000   6.575   6.109   8.590 -1.0090  0.2061  0.5640
  481TIP3   OH223001   3.782   2.937   6.507 -0.1936  0.8878  0.1900
  481TIP3    H123002   3.728   3.008   6.472 -1.0210  1.4868  2.5013
  481TIP3    H223003   3.722   2.865   6.521  0.6717 -0.4231 -2.2759
  482TIP3   OH223004   4.304   5.426   1.811  0.3145  0.2185  0.5872
  482TIP3    H123005   4.224   5.379   1.831 -1.2202  3.4769  2.9296
  482TIP3    H223006   4.370   5.388   1.869  0.1976 -1.5427 -0.3684
  483TIP3   OH223007   5.554   6.514   7.425  0.1839 -0.1209  0.1586
  483TIP3    H123008   5.627   6.462   7.459  0.2790 -0.8101 -1.0341
  483TIP3    H223009   5.596   6.584   7.375  0.1163 -1.8101 -2.4598
  484TIP3   OH223010   0.422   4.476   6.886  0.3028 -0.2991 -0.2979
  484TIP3    H123011   0.465   4.547   6.839 -0.1213 -0.7983 -1.4607
  484TIP3    H223012   0.357   4.442   6.825 -0.9107 -0.3603  0.9704
  485TIP3   OH223013   3.017   6.619   1.162 -0.1274  0.4003  0.8970
  485TIP3    H123014   3.098   6.662   1.189  0.6465 -0.5590  0.1452
  485TIP3    H223015   2.998   6.656   1.076 -0.9425  1.1942  1.3854
  486TIP3   OH223016   6.598   1.859   1.014  0.6378  0.1585  0.1671
  486TIP3    H123017   6.574   1.787   1.072  0.6821  0.6006  0.7377
  486TIP3    H223018   6.566   1.832   0.928  1.5912 -1.0258  0.1560
  487TIP3   OH223019   3.504   3.262   1.030  0.2486 -0.1169  0.3370
  487TIP3    H123020   3.414   3.230   1.027  0.8495 -1.8743 -1.9920
  487TIP3    H223021   3.498   3.355   1.008 -0.9161 -0.5664 -1.4630
  488TIP3   OH223022   1.987   5.642   6.821 -0.0066 -0.3027 -0.2897
  488TIP3    H123023   2.063   5.591   6.851 -1.3766 -2.2746  0.0754
  488TIP3    H223024   1.917   5.577   6.814 -1.1494  1.0763 -2.6340
  489TIP3   OH223025   5.517   3.271   1.438  0.1640  0.3378  0.2698
  489TIP3    H123026   5.513   3.362   1.465  1.8446 -0.1486  2.3770
  489TIP3    H223027   5.611   3.250   1.436 -0.2133 -1.7415  1.3678
  490TIP3   OH223028   2.921   0.010   7.638 -0.6726 -1.2720  0.3342
  490TIP3    H123029   3.012   0.035   7.622 -0.5403 -1.6520  0.4747
  490TIP3    H223030   2.891  -0.027   7.555 -1.2019  0.3040 -0.2044
  491TIP3   OH223031   2.488   6.050   6.551  0.0197 -0.0131  0.2418
  491TIP3    H123032   2.560   5.992   6.575  1.0212  0.9620 -0.2792
  491TIP3    H223033   2.414   5.992   6.533  1.0008 -1.1208 -0.3112
  492TIP3   OH223034   5.474   3.359   7.652 -0.1513  0.0258  0.5483
  492TIP3    H123035   5.439   3.306   7.724 -1.8916 -0.6931 -0.7527
  492TIP3    H223036   5.556   3.315   7.627 -1.3554 -1.8925 -0.2323
  493TIP3   OH223037   3.580   1.766   7.101  0.1412 -0.1820 -0.0200
  493TIP3    H123038   3.667   1.801   7.121  0.8633  0.1679 -3.1913
  493TIP3    H223039   3.586   1.739   7.009 -2.5020 -2.1803  0.2705
  494TIP3   OH223040   5.977   4.684   8.626  0.2542 -0.6953  0.2320
  494TIP3    H123041   6.058   4.660   8.669  0.6426  0.5869  0.2609
  494TIP3    H223042   5.917   4.706   8.697  0.4231 -0.0399  0.1862
  495TIP3   OH223043   4.249   5.992   6.936  0.0539 -0.7601  0.6636
  495TIP3    H123044   4.241   5.943   7.018 -0.3509  0.6306  1.4947
  495TIP3    H223045   4.325   5.954   6.892 -0.2748 -2.1467  1.2291
  496TIP3   OH223046   1.808   5.138   6.923  0.3537  0.2597 -0.3293
  496TIP3    H123047   1.823   5.207   6.987 -1.2187 -0.5289  0.9669
  496TIP3    H223048   1.764   5.069   6.972  1.2872 -1.4134 -1.7260
  497TIP3   OH223049   5.325   3.818   2.476  0.1824  0.4216  0.0629
  497TIP3    H123050   5.303   3.839   2.567 -0.7530  1.9288 -0.4695
  497TIP3    H223051   5.262   3.868   2.424  2.1631  1.4911 -1.4714
  498TIP3   OH223052   0.911   2.001   8.008 -0.1336 -0.3539 -0.0538
  498TIP3    H123053   0.880   1.912   8.025 -1.0700  0.0390  0.3699
  498TIP3    H223054   0.987   2.012   8.066 -0.7270 -0.4807  0.7615
  499TIP3   OH223055   0.885   1.036   0.603 -0.0065 -0.0225 -0.6876
  499TIP3    H123056   0.927   0.951   0.590  0.7825  0.5221 -1.9772
  499TIP3    H223057   0.957   1.093   0.632 -0.1075  0.6256 -1.6668
  500TIP3   OH223058   5.668   0.111   6.751  1.3498 -0.6054  0.5781
  500TIP3    H123059   5.578   0.124   6.782  0.2622 -1.3468 -1.9293
  500TIP3    H223060   5.689   0.193   6.705  1.7453 -0.6425  0.6924
  501TIP3   OH223061   1.241   1.976   1.168  0.0468  0.3558  0.2100
  501TIP3    H123062   1.206   2.054   1.211 -0.5994 -0.4443  1.1707
  501TIP3    H223063   1.215   1.985   1.076  0.1869  1.3745  0.2610
  502TIP3   OH223064   6.324   3.741   1.769 -0.1079 -0.1915  0.1768
  502TIP3    H123065   6.359   3.809   1.825 -0.2607  1.5215 -1.6654
  502TIP3    H223066   6.229   3.754   1.772 -0.3225 -1.7441  1.4518
  503TIP3   OH223067   6.508   5.456   1.803 -0.3220  0.0643  0.0080
  503TIP3    H123068   6.458   5.438   1.883 -0.4777 -1.4916 -0.4088
  503TIP3    H223069   6.476   5.541   1.774 -0.8244  0.2963  1.1774
  504TIP3   OH223070   6.493   4.664   7.564  0.2430  0.0285 -0.1999
  504TIP3    H123071   6.490   4.644   7.470  0.4358 -1.4558  0.0863
  504TIP3    H223072   6.405   4.642   7.596  1.1509 -2.8656  0.5638
  505TIP3   OH223073   3.400   0.409   7.178 -0.0317 -0.1096  0.1946
  505TIP3    H123074   3.397   0.371   7.090 -0.6441  1.0151 -0.3032
  505TIP3    H223075   3.476   0.368   7.219  0.4006 -0.5060 -0.9385
  506TIP3   OH223076   1.759   3.359   7.905  0.3216  0.1300 -0.0236
  506TIP3    H123077   1.810   3.280   7.920 -1.0818 -1.4258 -2.6276
  506TIP3    H223078   1.787   3.389   7.818 -0.3891  1.5296  0.1957
  507TIP3   OH223079   5.222   3.564   1.800 -0.1434  0.4050 -0.0959
  507TIP3    H123080   5.277   3.528   1.731  0.8275  0.6997  0.5108
  507TIP3    H223081   5.232   3.503   1.874 -1.6579 -0.2546 -0.3839
  508TIP3   OH223082   0.163   4.006   7.606 -0.2399 -0.0784 -0.6982
  508TIP3    H123083   0.128   4.091   7.576  1.9277  0.9510 -0.4745
  508TIP3    H223084   0.161   4.012   7.701 -1.5018 -0.9489 -0.6372
  509TIP3   OH223085   6.435   0.910   8.249  0.0450 -0.4906 -0.6610
  509TIP3    H123086   6.461   0.824   8.283  0.1352 -0.7114 -1.2812
  509TIP3    H223087   6.499   0.971   8.287 -0.8054 -0.4962  0.8466
  510TIP3   OH223088   3.567   6.208   8.489 -0.1565 -0.3010 -0.0413
  510TIP3    H123089   3.509   6.152   8.436  0.9931 -0.4365 -1.2076
  510TIP3    H223090   3.557   6.295   8.450 -1.4441  0.2104  1.3558
  511TIP3   OH223091   5.935   6.717   6.420  0.2075  0.6980 -0.1677
  511TIP3    H123092   5.936   6.807   6.454  1.5524  1.2011 -1.4165
  511TIP3    H223093   6.027   6.697   6.405  0.2482 -1.9536  2.6375
  512TIP3   OH223094   4.030   3.969   6.460  0.3553 -0.5091  0.2515
  512TIP3    H123095   4.005   4.058   6.435  1.1879  0.2952  2.1006
  512TIP3    H223096   3.971   3.913   6.411 -0.6415  1.0852 -0.4481
  513TIP3   OH223097   1.063   0.105   7.399  0.2285 -0.0379 -0.4873
  513TIP3    H123098   1.002   0.149   7.459  0.0108 -1.8562  0.7031
  513TIP3    H223099   1.142   0.159   7.402  0.0538  0.1897  1.0902
  514TIP3   OH223100   2.871   3.134   6.319 -0.6871  0.2051 -0.1989
  514TIP3    H123101   2.917   3.155   6.238 -1.9118 -1.5897 -1.4322
  514TIP3    H223102   2.833   3.047   6.303 -2.6381  0.6690  1.5584
  515TIP3   OH223103   2.063   4.416   6.445 -0.0512 -0.2723  0.5419
  515TIP3    H123104   1.987   4.450   6.397 -0.5496  0.1103  1.5547
  515TIP3    H223105   2.130   4.484   6.435 -0.4039  0.1490  0.9861
  516TIP3   OH223106   0.898   1.375   1.370  0.3237  0.2914  0.2486
  516TIP3    H123107   0.895   1.281   1.387  0.4949 -0.0275 -1.3282
  516TIP3    H223108   0.975   1.405   1.419  0.5924 -0.4958  0.3325
  517TIP3   OH223109   5.607   4.743   1.144  0.0876 -0.1619  0.6082
  517TIP3    H123110   5.542   4.770   1.079  1.2842  0.7680 -0.2303
  517TIP3    H223111   5.573   4.778   1.227 -0.1583  0.8961  0.0822
  518TIP3   OH223112   2.312   5.961   2.004  0.4379  0.1358  0.3853
  518TIP3    H123113   2.246   5.934   2.069  0.0227  0.0298 -0.0740
  518TIP3    H223114   2.273   6.036   1.960  0.7469  0.2493  0.3023
  519TIP3   OH223115   0.311   2.879   7.311 -0.1224 -0.6551  0.0583
  519TIP3    H123116   0.258   2.958   7.317 -0.1314 -0.6865  0.4178
  519TIP3    H223117   0.399   2.907   7.334  0.3016 -0.3352 -1.7934
  520TIP3   OH223118   6.060   5.928   1.429  0.2975  0.2839  0.4620
  520TIP3    H123119   6.110   6.009   1.418  1.4429 -0.4798 -0.2029
  520TIP3    H223120   5.998   5.948   1.499  0.8385  1.5964  0.6127
  521TIP3   OH223121   5.254   2.620   7.057 -0.7797  0.5396  0.4642
  521TIP3    H123122   5.333   2.652   7.014 -0.9883 -1.1563 -1.3360
  521TIP3    H223123   5.286   2.570   7.132 -0.2804  1.5471  0.9423
  522TIP3   OH223124   4.222   5.974   7.640  0.3309  0.0292  0.1959
  522TIP3    H123125   4.144   5.923   7.617 -0.3384  0.5766  1.1672
  522TIP3    H223126   4.224   6.046   7.577 -0.5557  0.5989  0.7903
  523TIP3   OH223127   3.167   4.667   0.923  0.0754  1.1228 -0.0970
  523TIP3    H123128   3.095   4.615   0.888  0.1852  0.0815  1.1582
  523TIP3    H223129   3.124   4.740   0.967 -0.0900  1.9403 -1.5514
  524TIP3   OH223130   6.510   0.771   6.955  0.3988  0.2202 -0.1496
  524TIP3    H123131   6.586   0.719   6.983 -0.3305 -1.1449 -0.6275
  524TIP3    H223132   6.501   0.753   6.862 -0.2803  0.6835 -0.1823
  525TIP3   OH223133   1.876   2.483   6.210  0.7376 -0.3562  0.1975
  525TIP3    H123134   1.862   2.405   6.263  1.0486  0.8636  2.1824
  525TIP3    H223135   1.789   2.503   6.173  0.8243 -2.0735 -1.0883
  526TIP3   OH223136   2.575   5.527   6.180 -0.3096  0.1994  0.0666
  526TIP3    H123137   2.584   5.567   6.266 -0.0593 -1.7451  1.0137
  526TIP3    H223138   2.651   5.557   6.131 -0.5134  1.4195  0.4735
  527TIP3   OH223139   4.952   2.847   5.962  0.4567 -0.4391  0.8900
  527TIP3    H123140   4.902   2.780   6.008  0.9935 -1.7590 -0.3853
  527TIP3    H223141   4.917   2.846   5.873  1.1053  0.3321  0.6176
  528TIP3   OH223142   1.067   4.485   7.160  0.0962  0.5646  0.1699
  528TIP3    H123143   1.101   4.396   7.171 -1.2030  0.1131  0.7167
  528TIP3    H223144   1.144   4.541   7.172  0.8245 -0.4513  0.4140
  529TIP3   OH223145   5.811   4.802   1.989 -0.4310  0.2403  0.4040
  529TIP3    H123146   5.856   4.864   2.045 -2.5428 -0.0997  2.6591
  529TIP3    H223147   5.823   4.717   2.032 -0.1139 -0.4446 -0.9828
  530TIP3   OH223148   2.648   4.995   2.200 -0.3671  0.2389 -0.1614
  530TIP3    H123149   2.676   4.910   2.234 -1.8122 -0.7851 -1.3916
  530TIP3    H223150   2.583   4.973   2.133 -0.7361  2.3263 -0.5336
  531TIP3   OH223151   0.367   5.249   6.168  0.2344  0.5583  0.0627
  531TIP3    H123152   0.311   5.286   6.099 -0.9317  2.7371  2.0326
  531TIP3    H223153   0.381   5.158   6.141 -1.5353  0.8531 -2.1849
  532TIP3   OH223154   4.704   3.666   1.721 -0.4020  0.3097  0.2026
  532TIP3    H123155   4.730   3.577   1.744 -0.5773  0.7372  2.2504
  532TIP3    H223156   4.759   3.689   1.646 -0.2451 -1.4457 -0.2559
  533TIP3   OH223157   4.969   0.211   8.829 -0.7344 -0.6245 -0.7244
  533TIP3    H123158   5.045   0.268   8.815  1.2712 -1.6198  4.0741
  533TIP3    H223159   5.003   0.122   8.819 -0.7965 -1.1200  2.4573
  534TIP3   OH223160   4.222   4.746   1.208  0.0152 -0.1412  0.0199
  534TIP3    H123161   4.186   4.823   1.164  1.8717  0.1637 -1.0842
  534TIP3    H223162   4.221   4.769   1.301 -0.9212  0.5548 -0.1475
  535TIP3   OH223163   6.608   5.716   2.345  0.5360  0.1655 -0.3877
  535TIP3    H123164   6.578   5.656   2.414 -2.3263  1.2874 -0.5182
  535TIP3    H223165   6.556   5.691   2.268  1.6325  0.7635 -1.3469
  536TIP3   OH223166   0.457   3.336   6.708 -0.1428  0.1342  0.2423
  536TIP3    H123167   0.499   3.310   6.790 -0.2605 -1.1861 -0.0993
  536TIP3    H223168   0.365   3.314   6.721 -0.4422  1.3543  0.3143
  537TIP3   OH223169   1.174   3.550   8.399  0.0923 -0.0734 -0.0860
  537TIP3    H123170   1.079   3.537   8.402 -0.1725  1.7240  0.4079
  537TIP3    H223171   1.203   3.492   8.328 -1.7950  1.4590 -2.2925
  538TIP3   OH223172   3.923   0.469   0.501 -0.0155 -0.1278  0.4232
  538TIP3    H123173   3.880   0.434   0.579 -1.4877 -1.6820 -1.0000
  538TIP3    H223174   3.910   0.564   0.508 -1.4239 -0.3509  1.3547
  539TIP3   OH223175   0.739   1.280   8.254 -0.2909  0.1417  0.1601
  539TIP3    H123176   0.705   1.341   8.189  0.4062  0.4693  0.0958
  539TIP3    H223177   0.801   1.331   8.306  1.0399 -0.7308 -0.5147
  540TIP3   OH223178   3.783   0.921   6.816 -0.5965 -0.3589 -0.2371
  540TIP3    H123179   3.707   0.912   6.758  0.5121 -0.4638 -1.7138
  540TIP3    H223180   3.835   0.991   6.776 -0.4199  0.4851  1.3652
  541TIP3   OH223181   1.276   0.684   1.891  0.3512 -0.0334  0.0400
  541TIP3    H123182   1.323   0.607   1.924  0.1812  0.0034  0.3780
  541TIP3    H223183   1.334   0.758   1.912  0.0783  0.0289  0.6029
  542TIP3   OH223184   3.939   1.785   8.248 -0.1713  0.3116  0.2361
  542TIP3    H123185   4.017   1.745   8.210 -1.3153 -0.4923 -1.3781
  542TIP3    H223186   3.967   1.815   8.334  1.4259 -1.6986  0.5031
  543TIP3   OH223187   4.511   4.840   6.923 -0.0832  0.0967  0.3279
  543TIP3    H123188   4.547   4.770   6.869 -0.5563  0.9384 -1.1285
  543TIP3    H223189   4.581   4.861   6.985 -0.3993 -2.5414  1.7324
  544TIP3   OH223190   1.507   1.808   0.830  0.0151  0.0227 -0.3609
  544TIP3    H123191   1.511   1.727   0.881  0.0727  1.2598  1.7189
  544TIP3    H223192   1.419   1.808   0.793 -0.4128 -0.4292  0.6211
  545TIP3   OH223193   2.851   1.263   1.044  0.5967  0.2311  0.0519
  545TIP3    H123194   2.908   1.187   1.029 -0.5526 -0.5510 -0.5329
  545TIP3    H223195   2.803   1.272   0.961 -1.6294 -0.4464  1.2009
  546TIP3   OH223196   3.716   2.661   7.174 -0.2819 -0.0510 -0.4159
  546TIP3    H123197   3.732   2.625   7.086  0.8156 -1.0515  0.1639
  546TIP3    H223198   3.621   2.671   7.178 -0.4911 -1.4403 -1.1849
  547TIP3   OH223199   4.070   5.424   0.745  0.2232 -0.1917  0.1349
  547TIP3    H123200   4.147   5.477   0.767 -0.4255  0.4925  0.8159
  547TIP3    H223201   4.106   5.345   0.705  1.2517  0.4055 -0.1578
  548TIP3   OH223202   0.467   1.241   6.087 -0.8579  0.2984  0.3856
  548TIP3    H123203   0.562   1.249   6.099 -0.9623 -0.2431  1.7431
  548TIP3    H223204   0.429   1.308   6.143 -1.2923  0.1448  0.2814
  549TIP3   OH223205   6.640   3.336   1.327  0.1364 -0.4216  0.1452
  549TIP3    H123206   6.625   3.395   1.401  0.7414 -1.0585  0.7898
  549TIP3    H223207   6.574   3.361   1.262 -0.7330 -0.1929  1.1033
  550TIP3   OH223208   1.350   6.607   1.339  0.3526  0.1292  0.3202
  550TIP3    H123209   1.262   6.594   1.303  1.1152  0.3176 -1.7742
  550TIP3    H223210   1.344   6.689   1.387 -0.4967  0.4544 -0.3098
  551TIP3   OH223211   4.327   3.824   8.850 -0.2786 -0.0414  0.3658
  551TIP3    H123212   4.410   3.869   8.838  0.3748 -1.8656 -4.0283
  551TIP3    H223213   4.349   3.746   8.901  1.1640 -1.2481 -1.9570
  552TIP3   OH223214   2.971   3.267   6.095 -0.5609 -0.0867  0.1729
  552TIP3    H123215   2.941   3.355   6.117 -0.5228  0.0993 -0.4971
  552TIP3    H223216   3.059   3.280   6.059 -1.1843 -0.2024 -1.4749
  553TIP3   OH223217   5.018   2.774   6.975 -0.5812  0.3451  0.3251
  553TIP3    H123218   5.073   2.697   6.988 -1.1977 -0.2810 -0.6373
  553TIP3    H223219   5.044   2.808   6.890 -0.5655  0.9994  0.5852
  554TIP3   OH223220   6.783   0.942   0.593  0.2650 -0.2648  0.6792
  554TIP3    H123221   6.691   0.937   0.567  0.1622  2.1535  0.3509
  554TIP3    H223222   6.832   0.936   0.511  0.3196 -0.1049  0.6992
  555TIP3   OH223223   6.380   6.649   2.193  0.3178 -0.4724 -0.4808
  555TIP3    H123224   6.467   6.610   2.199  0.1463 -1.1540 -1.9785
  555TIP3    H223225   6.335   6.618   2.271  2.0370  1.6556  1.4966
  556TIP3   OH223226   4.894   5.634   0.152  0.1207 -0.2726  0.1685
  556TIP3    H123227   4.811   5.608   0.192  0.2861  0.7197  1.2275
  556TIP3    H223228   4.927   5.554   0.112 -2.1919 -0.3265 -1.8953
  557TIP3   OH223229   2.069   4.138   8.198  0.1926  0.3061 -0.5717
  557TIP3    H123230   2.023   4.078   8.139  1.0630 -3.0688  1.8654
  557TIP3    H223231   2.159   4.139   8.166 -0.1271  1.7587 -1.5532
  558TIP3   OH223232   6.120   5.777   6.542  0.0924  0.4077 -0.0292
  558TIP3    H123233   6.131   5.842   6.612  0.7508  0.4912 -0.2037
  558TIP3    H223234   6.206   5.770   6.502 -0.0946 -0.2078 -0.3410
  559TIP3   OH223235   0.413   1.781   8.555 -0.1377 -0.3761  0.2963
  559TIP3    H123236   0.476   1.790   8.484  0.3415 -0.3653  0.7109
  559TIP3    H223237   0.339   1.736   8.516  0.5392 -1.3033  0.0336
  560TIP3   OH223238   5.181   5.861   0.572  0.4394  0.0635  0.2945
  560TIP3    H123239   5.275   5.853   0.562  0.2022 -0.8519 -1.8842
  560TIP3    H223240   5.148   5.866   0.482 -1.7601 -2.2112  0.8439
  561TIP3   OH223241   3.413   3.492   0.841 -1.2701 -0.0737  0.0757
  561TIP3    H123242   3.474   3.456   0.777 -0.6050  0.9983  0.0897
  561TIP3    H223243   3.328   3.456   0.815 -0.8021 -0.7679 -0.5551
  562TIP3   OH223244   3.392   1.646   1.697 -0.2690 -0.4176  0.1239
  562TIP3    H123245   3.440   1.666   1.778 -1.7034 -2.1253  1.4964
  562TIP3    H223246   3.306   1.688   1.709 -0.7842 -1.3717 -0.1081
  563TIP3   OH223247   1.073   1.819   0.076  0.4120 -0.1995  0.3534
  563TIP3    H123248   1.050   1.770  -0.003 -0.3707 -0.1334  0.5301
  563TIP3    H223249   1.030   1.772   0.147  1.9361 -0.8402  0.8879
  564TIP3   OH223250   0.991   0.749   0.074  0.0250 -0.7740 -0.4708
  564TIP3    H123251   1.078   0.774   0.107  0.9266 -3.0855 -0.9449
  564TIP3    H223252   0.941   0.730   0.153 -0.3469  1.3068 -0.1520
  565TIP3   OH223253   0.422   2.944   7.688  0.7889  0.2517  0.7794
  565TIP3    H123254   0.507   2.954   7.730 -0.3857  1.3414  3.0631
  565TIP3    H223255   0.412   3.022   7.634  1.6294 -0.3717 -0.3107
  566TIP3   OH223256   1.441   3.833   8.839  0.5132 -0.3326 -0.0978
  566TIP3    H123257   1.470   3.853   8.928 -0.1824 -0.2395  0.1120
  566TIP3    H223258   1.346   3.843   8.841  0.6678  2.2273 -1.4877
  567TIP3   OH223259   3.351   0.302   8.100  0.1436  0.5041  0.5883
  567TIP3    H123260   3.296   0.334   8.171 -0.1400  1.9622 -0.2406
  567TIP3    H223261   3.307   0.223   8.070 -1.7776  1.8173 -0.2925
  568TIP3   OH223262   0.782   3.765   7.399 -0.0508 -0.0222 -0.1634
  568TIP3    H123263   0.707   3.722   7.359  0.5328 -1.7547  0.4870
  568TIP3    H223264   0.857   3.709   7.376  1.1363  1.8726 -1.1526
  569TIP3   OH223265   5.570   1.044   8.042 -0.3062 -0.3050 -0.2281
  569TIP3    H123266   5.544   1.133   8.021  2.3211  0.1650 -1.9461
  569TIP3    H223267   5.569   0.997   7.958 -4.6714 -2.9651  0.9602
  570TIP3   OH223268   2.488   5.731   1.617 -0.0508 -0.4340 -0.4196
  570TIP3    H123269   2.485   5.679   1.536  0.2870  0.1978 -0.8466
  570TIP3    H223270   2.400   5.767   1.624 -0.5085 -1.6144  0.2657
  571TIP3   OH223271   3.308   4.678   8.524  0.8079 -0.6624 -0.1631
  571TIP3    H123272   3.381   4.632   8.483  0.3505 -1.3320 -0.2488
  571TIP3    H223273   3.230   4.638   8.485  0.3431 -1.5478  1.5659
  572TIP3   OH223274   4.190   6.555   1.192  0.0033  0.0666  0.0602
  572TIP3    H123275   4.112   6.600   1.158 -0.3730 -0.4047  0.2883
  572TIP3    H223276   4.234   6.522   1.114 -0.5689 -0.5382 -0.0187
  573TIP3   OH223277   2.880   2.810   8.850  0.2193  0.0019  0.5418
  573TIP3    H123278   2.845   2.880   8.796  3.9735  1.4456 -0.2949
  573TIP3    H223279   2.909   2.743   8.788  3.2781  1.0518  0.6826
  574TIP3   OH223280   2.636   1.598   1.344  0.3396 -0.4798  0.0288
  574TIP3    H123281   2.552   1.644   1.336  0.8441  0.0893 -2.9460
  574TIP3    H223282   2.665   1.617   1.433 -1.6786  1.0811  0.4168
  575TIP3   OH223283   1.219   6.365   7.885 -0.1083  0.1591 -0.1432
  575TIP3    H123284   1.227   6.449   7.932  0.3652  0.6400 -1.0705
  575TIP3    H223285   1.289   6.311   7.920 -0.3275  0.1904  0.3580
  576TIP3   OH223286   0.806   1.602   6.523  0.0692 -0.5203  0.2723
  576TIP3    H123287   0.718   1.588   6.490 -0.5373 -0.6004  1.8066
  576TIP3    H223288   0.799   1.683   6.575  1.3239  0.4376 -0.9542
  577TIP3   OH223289   6.578   0.901   7.987  0.0012  0.4707  0.1670
  577TIP3    H123290   6.519   0.870   8.055  0.6681  0.4932  0.7654
  577TIP3    H223291   6.537   0.981   7.954 -0.7028  0.0531  0.0177
  578TIP3   OH223292   2.721   5.668   2.354  0.2809 -0.3161  0.6011
  578TIP3    H123293   2.705   5.581   2.317 -1.1590 -0.0507  0.5441
  578TIP3    H223294   2.664   5.674   2.430 -2.4780  1.8358 -1.4136
  579TIP3   OH223295   0.279   1.968   0.636 -0.1570  0.1757 -0.7414
  579TIP3    H123296   0.243   1.888   0.674 -0.1433  0.1667 -0.7476
  579TIP3    H223297   0.202   2.019   0.610 -0.1613 -0.0536 -1.1964
  580TIP3   OH223298   2.602   6.487   8.005  0.0453  0.3462 -0.3907
  580TIP3    H123299   2.588   6.562   7.947 -1.1387 -0.5003 -1.2280
  580TIP3    H223300   2.626   6.415   7.947  1.5804  0.1371  0.4427
  581TIP3   OH223301   2.264   5.567   6.866 -0.4590  0.3635 -0.0002
  581TIP3    H123302   2.337   5.513   6.898 -0.4954 -1.1517 -2.2519
  581TIP3    H223303   2.305   5.636   6.815 -0.5304  0.7696  0.4866
  582TIP3   OH223304   2.655   4.534   8.317 -0.2229  0.2543  0.7416
  582TIP3    H123305   2.640   4.577   8.400 -0.4914 -0.6798  1.1940
  582TIP3    H223306   2.715   4.461   8.338 -0.3029  0.0027  0.1284
  583TIP3   OH223307   4.565   4.667   8.819 -0.0458  0.2241 -0.0680
  583TIP3    H123308   4.583   4.627   8.734  2.4448  0.7831  0.1276
  583TIP3    H223309   4.613   4.613   8.881  0.2002  1.2641  0.6609
  584TIP3   OH223310   6.761   1.116   0.975 -0.1052 -0.4573  0.0117
  584TIP3    H123311   6.693   1.159   0.923  0.1470 -0.5991 -0.4407
  584TIP3    H223312   6.768   1.169   1.055 -0.1879  0.0193 -0.2932
  585TIP3   OH223313   1.146   4.933   8.539 -0.4596 -0.3267 -0.1527
  585TIP3    H123314   1.052   4.933   8.526 -0.3622  0.4848 -0.9531
  585TIP3    H223315   1.182   4.974   8.460  0.2950  3.2948  1.8461
  586TIP3   OH223316   1.944   0.790   7.689 -0.1651 -0.1983 -0.5995
  586TIP3    H123317   1.903   0.818   7.771  0.3920 -0.3821 -0.2545
  586TIP3    H223318   1.894   0.713   7.662 -0.8191  0.2911 -0.8240
  587TIP3   OH223319   5.571   2.598   0.869  0.2046 -0.1178  0.1724
  587TIP3    H123320   5.663   2.620   0.854  0.0780 -0.9868 -2.3685
  587TIP3    H223321   5.522   2.664   0.820 -0.5496  0.2674  1.4054
  588TIP3   OH223322   0.349   2.867   7.030 -0.3265 -0.3885  0.2765
  588TIP3    H123323   0.376   2.865   7.122 -0.4074 -1.5923  0.2924
  588TIP3    H223324   0.429   2.850   6.981  0.0656  1.9369  0.0016
  589TIP3   OH223325   2.659   5.360   8.611  0.1512 -0.0815  0.2595
  589TIP3    H123326   2.713   5.371   8.690  1.1222 -0.8051 -0.2729
  589TIP3    H223327   2.687   5.276   8.575 -1.5735 -0.6224  0.1180
  590TIP3   OH223328   4.084   2.290   1.981 -0.0886 -0.1379 -0.4739
  590TIP3    H123329   4.128   2.253   1.905 -0.3163 -0.8156 -0.2801
  590TIP3    H223330   4.154   2.331   2.032 -0.1455  1.9898 -1.9426
  591TIP3   OH223331   5.948   2.162   1.160 -0.0657 -0.2036  0.1915
  591TIP3    H123332   6.041   2.144   1.150  0.0044 -0.1694  0.7392
  591TIP3    H223333   5.927   2.129   1.248 -0.9966 -2.0210 -0.6444
  592TIP3   OH223334   0.415   1.833   2.487  0.3865 -0.1147 -0.2095
  592TIP3    H123335   0.504   1.800   2.497 -0.2134 -1.0184  3.5539
  592TIP3    H223336   0.365   1.760   2.450  0.4461 -1.0929  1.5651
  593TIP3   OH223337   1.085   4.037   0.462 -0.2839  0.2581 -0.1111
  593TIP3    H123338   1.161   4.063   0.411 -0.0766  0.2779  0.2057
  593TIP3    H223339   1.056   3.954   0.423  1.0569 -0.7658  0.9555
  594TIP3   OH223340   1.012   0.655   7.578 -0.0999 -0.0319 -0.0413
  594TIP3    H123341   0.929   0.664   7.625  0.7022  1.6569  1.1372
  594TIP3    H223342   1.079   0.663   7.646  1.0859  1.8618 -1.3425
  595TIP3   OH223343   2.712   5.835   7.115 -0.0853  0.3915  0.0093
  595TIP3    H123344   2.802   5.852   7.089 -0.1944  1.6066  0.3424
  595TIP3    H223345   2.666   5.816   7.034  0.5655 -0.7721 -0.1066
  596TIP3   OH223346   0.532   4.412   1.696 -0.7515 -0.2360 -0.5937
  596TIP3    H123347   0.476   4.346   1.657  0.7135 -1.7551 -0.2520
  596TIP3    H223348   0.605   4.363   1.733 -1.4914  1.1458  3.1476
  597TIP3   OH223349   2.692   6.384   8.710 -0.0838 -0.4850  0.4294
  597TIP3    H123350   2.634   6.460   8.718 -1.1504 -1.1177 -0.9574
  597TIP3    H223351   2.652   6.316   8.764  1.0355 -0.0202  1.9215
  598TIP3   OH223352   5.017   4.212   7.101  0.4445  0.8702  0.4544
  598TIP3    H123353   5.074   4.287   7.084 -2.3258  2.8363 -0.8635
  598TIP3    H223354   5.036   4.151   7.030  0.4004  1.8432 -0.4200
  599TIP3   OH223355   1.277   5.804   0.396  0.4571 -0.0309  0.1553
  599TIP3    H123356   1.205   5.867   0.391 -1.0565 -1.7330 -0.9047
  599TIP3    H223357   1.289   5.789   0.490 -0.6304  0.2414  0.3473
  600TIP3   OH223358   1.411   4.378   1.079  0.2338  0.2000  0.4049
  600TIP3    H123359   1.374   4.304   1.127 -1.4221  1.0215  0.4519
  600TIP3    H223360   1.368   4.376   0.994  1.2815  0.2558 -0.1479
  601TIP3   OH223361   2.396   5.990   0.347 -0.0991 -0.5040  0.0367
  601TIP3    H123362   2.421   5.899   0.363  0.1780 -0.5997 -0.8774
  601TIP3    H223363   2.430   6.009   0.260 -1.2783  0.0665 -0.3252
  602TIP3   OH223364   3.026   1.267   1.363  0.3432  0.3424  0.2860
  602TIP3    H123365   3.027   1.244   1.270 -0.8435  2.0266 -0.1884
  602TIP3    H223366   2.935   1.250   1.391  1.0617 -1.7634  1.6297
  603TIP3   OH223367   5.558   1.312   1.515  0.3531 -0.2279 -0.2021
  603TIP3    H123368   5.630   1.364   1.480  0.8406 -1.3398 -0.9323
  603TIP3    H223369   5.600   1.232   1.547 -0.6285 -1.3358 -1.5467
  604TIP3   OH223370   3.016   5.338   8.826 -0.0527  0.4734  0.6291
  604TIP3    H123371   3.042   5.354   8.735  0.5946  0.6550  0.8414
  604TIP3    H223372   2.953   5.408   8.845 -0.6752  0.0599  0.1267
  605TIP3   OH223373   0.113   4.217   8.089 -0.1218 -0.3698 -0.5795
  605TIP3    H123374   0.135   4.308   8.070 -0.8353  0.3603  1.6435
  605TIP3    H223375   0.161   4.197   8.169 -0.4012 -1.7707 -0.7319
  606TIP3   OH223376   2.530   1.864   1.109  0.0144 -0.1259 -0.3804
  606TIP3    H123377   2.617   1.856   1.070  0.0374  3.3767 -1.3908
  606TIP3    H223378   2.475   1.898   1.039 -2.2132 -1.9938  0.3172
  607TIP3   OH223379   1.283   2.950   8.780 -0.4052  0.1818  0.1739
  607TIP3    H123380   1.216   2.999   8.732 -0.2801 -1.7246 -2.1455
  607TIP3    H223381   1.361   2.955   8.724  0.2124 -0.9048  0.9029
  608TIP3   OH223382   3.171   0.531   7.255 -0.3034 -0.3232  0.2825
  608TIP3    H123383   3.205   0.602   7.310 -1.6265 -0.7002  1.6558
  608TIP3    H223384   3.247   0.499   7.207  0.8419  0.2135  1.6777
  609TIP3   OH223385   1.232   0.536   1.028  0.6681 -0.3761  0.5169
  609TIP3    H123386   1.283   0.473   0.976 -0.7237 -0.8807 -0.2859
  609TIP3    H223387   1.256   0.621   0.992  1.2930 -0.5626  0.4711
  610TIP3   OH223388   4.232   0.032   7.522 -0.2366  0.4818 -0.2674
  610TIP3    H123389   4.228  -0.027   7.597 -0.0350  0.6002 -0.1634
  610TIP3    H223390   4.154   0.011   7.471 -0.4989  0.5612  0.0948
  611TIP3   OH223391   5.324   6.430   1.266  0.3103  0.4396 -0.5992
  611TIP3    H123392   5.410   6.435   1.225  0.0615 -2.2492 -1.6399
  611TIP3    H223393   5.263   6.421   1.192 -0.3938 -2.0917  0.2204
  612TIP3   OH223394   0.268   6.712   7.910  0.0331 -0.0408  0.1467
  612TIP3    H123395   0.271   6.661   7.991 -1.8007  2.4753  1.9478
  612TIP3    H223396   0.208   6.664   7.853  2.0528 -2.3375 -0.2175
  613TIP3   OH223397   3.393   6.038   8.361 -0.2453 -0.0707  0.3224
  613TIP3    H123398   3.365   5.965   8.305  0.0463 -0.1527  0.2833
  613TIP3    H223399   3.321   6.101   8.356  0.9844  1.2848 -2.5115
  614TIP3   OH223400   1.338   5.415   1.854  0.4266  0.2833 -0.6502
  614TIP3    H123401   1.316   5.326   1.883 -1.2483 -0.4243 -3.6636
  614TIP3    H223402   1.276   5.471   1.900  1.9397  0.1102  1.8164
  615TIP3   OH223403   1.998   3.212   8.418 -0.0594  0.2398 -0.4039
  615TIP3    H123404   2.061   3.256   8.476 -0.3312 -0.5717  0.5285
  615TIP3    H223405   2.052   3.155   8.364 -0.0723 -1.9057  1.6791
  616TIP3   OH223406   2.286   5.700   8.346 -0.9087 -0.0790 -0.0158
  616TIP3    H123407   2.352   5.635   8.369 -0.8328 -0.4753 -1.2749
  616TIP3    H223408   2.331   5.762   8.288 -1.7648 -0.7161 -1.4196
  617TIP3   OH223409   2.019   6.584   0.316  0.3560  0.2509 -0.4397
  617TIP3    H123410   2.090   6.604   0.255  0.7710 -2.3177 -0.9076
  617TIP3    H223411   1.941   6.581   0.260  0.3148  0.4954 -0.3932
  618TIP3   OH223412   3.824   5.251   1.677  0.3724  0.0425 -0.0394
  618TIP3    H123413   3.817   5.340   1.641 -0.3731  0.9246  2.1263
  618TIP3    H223414   3.735   5.228   1.701  0.9045 -0.2223  1.8017
  619TIP3   OH223415   1.417   5.504   7.293  0.4525  0.0599 -0.0641
  619TIP3    H123416   1.488   5.476   7.235 -1.1913 -1.3805 -1.5039
  619TIP3    H223417   1.425   5.449   7.370  0.3512 -0.8127 -0.6580
  620TIP3   OH223418   2.508   0.134   0.146 -0.2251 -0.0235 -0.4768
  620TIP3    H123419   2.553   0.136   0.231 -1.0733 -0.2976 -0.0079
  620TIP3    H223420   2.554   0.067   0.096 -1.8602 -2.4267  1.0278
  621TIP3   OH223421   6.382   2.466   7.456 -0.1467  0.3840 -0.6046
  621TIP3    H123422   6.431   2.537   7.497  1.5990 -1.0518 -0.0945
  621TIP3    H223423   6.323   2.434   7.524  1.1504 -0.5221  0.1323
  622TIP3   OH223424   5.883   4.609   7.983  0.3299  0.4949 -0.4232
  622TIP3    H123425   5.944   4.682   7.990  0.3067  0.4229  0.8802
  622TIP3    H223426   5.840   4.621   7.898 -1.3797  3.4058  0.6796
  623TIP3   OH223427   4.234   5.877   8.227  0.1110  0.5000 -0.2086
  623TIP3    H123428   4.215   5.960   8.183  0.6450  0.1289 -1.1759
  623TIP3    H223429   4.218   5.895   8.319 -1.1899  1.2705 -0.5526
  624TIP3   OH223430   3.599   3.217   2.014 -0.7535  0.4298  0.3577
  624TIP3    H123431   3.555   3.288   1.968 -2.4343 -0.7889 -0.0400
  624TIP3    H223432   3.530   3.177   2.067  0.2631 -0.6009  0.9582
  625TIP3   OH223433   5.921   4.295   6.535 -0.3967 -0.1732 -0.0583
  625TIP3    H123434   6.014   4.303   6.555  0.0695  1.3442 -2.4416
  625TIP3    H223435   5.885   4.381   6.559 -0.8394 -0.1785 -0.6953
  626TIP3   OH223436   3.698   6.351   6.261  0.1304 -0.3253  0.0644
  626TIP3    H123437   3.782   6.310   6.241  0.3306  0.7868 -1.5990
  626TIP3    H223438   3.721   6.440   6.289 -0.5088  0.3281 -1.4111
  627TIP3   OH223439   3.029   1.571   7.693  0.1945 -0.1471 -0.2644
  627TIP3    H123440   3.032   1.579   7.598 -2.2311  0.6946 -0.3430
  627TIP3    H223441   3.006   1.479   7.709  0.1348 -0.1777 -0.5227
  628TIP3   OH223442   6.783   1.651   1.618 -0.0618  0.5089 -0.3916
  628TIP3    H123443   6.758   1.732   1.575  1.4934  1.4975  0.4618
  628TIP3    H223444   6.815   1.595   1.546  0.1457  1.1762 -0.8296
  629TIP3   OH223445   6.536   1.762   1.492 -0.1894  0.0492 -0.7484
  629TIP3    H123446   6.503   1.789   1.578 -0.6722 -0.6857 -0.6876
  629TIP3    H223447   6.617   1.812   1.480 -0.3288  0.4576 -0.0432
  630TIP3   OH223448   4.564   0.840   8.797 -0.1811 -0.0019  0.3383
  630TIP3    H123449   4.569   0.793   8.714 -0.0872  2.3721 -1.0619
  630TIP3    H223450   4.644   0.815   8.843 -0.7638 -2.2238  0.2869
  631TIP3   OH223451   2.244   4.163   6.707  0.1344  0.4330 -0.6220
  631TIP3    H123452   2.253   4.071   6.732 -1.9760  0.1890 -0.5287
  631TIP3    H223453   2.267   4.165   6.614  0.6348 -0.0987 -0.5184
  632TIP3   OH223454   5.260   4.947   0.123  0.1324  0.1385 -0.0637
  632TIP3    H123455   5.249   4.928   0.030  0.5323 -1.3424  0.1557
  632TIP3    H223456   5.287   4.863   0.161  0.7710  0.9078  1.2512
  633TIP3   OH223457   3.751   1.733   8.485 -0.5536 -0.3698  0.2362
  633TIP3    H123458   3.728   1.679   8.410 -0.7675 -1.4170  1.0173
  633TIP3    H223459   3.778   1.817   8.448  0.0437 -1.1024 -1.0414
  634TIP3   OH223460   0.995   4.392   7.733  0.0482  0.1793 -0.3111
  634TIP3    H123461   1.013   4.305   7.697  2.5180 -0.5974  2.4174
  634TIP3    H223462   1.082   4.430   7.747 -0.9615  2.7987 -0.6642
  635TIP3   OH223463   2.905   2.393   1.030 -0.2124 -0.1183 -0.1830
  635TIP3    H123464   2.981   2.451   1.035 -0.7430  0.6926 -1.2359
  635TIP3    H223465   2.830   2.449   1.048 -0.7448 -0.4361 -1.3198
  636TIP3   OH223466   1.410   5.336   2.160  0.2885  0.2884 -0.4725
  636TIP3    H123467   1.324   5.376   2.169 -0.2302 -0.7132 -0.8499
  636TIP3    H223468   1.401   5.274   2.088  0.9730 -0.7380  0.2892
  637TIP3   OH223469   3.642   0.253   8.120  0.0247 -0.3212 -0.3406
  637TIP3    H123470   3.557   0.275   8.081  0.2585 -0.0208 -0.6872
  637TIP3    H223471   3.672   0.334   8.160  0.9337  0.0589 -1.7074
  638TIP3   OH223472   2.150   5.233   0.499  0.5526 -0.5654 -0.5586
  638TIP3    H123473   2.154   5.326   0.523  2.8362 -0.6763 -0.3513
  638TIP3    H223474   2.075   5.199   0.549  1.1658  0.6519  1.2925
  639TIP3   OH223475   6.417   3.719   7.698  0.0600  0.5748  0.1822
  639TIP3    H123476   6.486   3.784   7.695  1.0374 -0.3887  0.9781
  639TIP3    H223477   6.410   3.696   7.791 -1.6953  1.0216  0.1983
  640TIP3   OH223478   1.480   1.645   7.569  0.4520 -0.2940  0.5906
  640TIP3    H123479   1.513   1.726   7.609 -0.1313 -0.9934  2.6379
  640TIP3    H223480   1.386   1.645   7.590 -0.3783  0.2809 -2.6701
  641TIP3   OH223481   4.357   4.957   0.450  0.6139  0.3173 -0.0186
  641TIP3    H123482   4.395   4.882   0.405  0.3404  1.3179 -2.0305
  641TIP3    H223483   4.426   5.024   0.448 -0.1619  1.1291 -1.0248
  642TIP3   OH223484   4.655   4.047   1.652 -0.0226  0.3389  0.1247
  642TIP3    H123485   4.738   4.044   1.605 -1.3061  1.2328 -2.3953
  642TIP3    H223486   4.658   4.129   1.702  0.9782 -0.1112  0.8080
  643TIP3   OH223487   5.575   4.179   2.126 -0.2118 -0.0673  0.3234
  643TIP3    H123488   5.594   4.272   2.138 -0.4401  0.1315 -0.7316
  643TIP3    H223489   5.618   4.157   2.044 -1.5535 -0.4744 -0.2996
  644TIP3   OH223490   5.918   0.663   6.642  0.5536 -0.5247 -0.6676
  644TIP3    H123491   5.911   0.572   6.613 -1.2844 -0.4167 -0.6675
  644TIP3    H223492   5.981   0.703   6.583  0.6578 -1.5577 -1.2729
  645TIP3   OH223493   1.133   6.800   1.266  0.3609 -0.1321  0.3938
  645TIP3    H123494   1.189   6.874   1.290 -0.1002  0.5590 -0.6025
  645TIP3    H223495   1.071   6.792   1.339  1.2272 -0.4016  1.1298
  646TIP3   OH223496   6.243   2.446   0.450 -0.2200  0.2543 -0.1624
  646TIP3    H123497   6.286   2.499   0.384  2.0532  0.1338  1.1304
  646TIP3    H223498   6.262   2.356   0.426 -0.5366  0.1585 -0.0671
  647TIP3   OH223499   1.274   5.858   7.983 -0.5362 -0.0046  0.1872
  647TIP3    H123500   1.350   5.890   7.934 -0.1578 -0.5783  0.3970
  647TIP3    H223501   1.311   5.799   8.049 -1.2033 -0.7591 -0.0972
  648TIP3   OH223502   3.459   3.721   7.976 -0.0503  0.1932 -0.3668
  648TIP3    H123503   3.393   3.695   7.912  0.4826  0.6828 -1.1317
  648TIP3    H223504   3.409   3.756   8.050 -0.7162 -1.3473 -0.0412
  649TIP3   OH223505   4.916   3.789   1.934  0.1074 -0.2919  0.0402
  649TIP3    H123506   4.906   3.777   2.028 -0.5655  0.8038  0.1233
  649TIP3    H223507   4.833   3.760   1.897 -0.1777  0.6464 -0.0749
  650TIP3   OH223508   4.344   3.561   8.314 -0.3864 -0.3731  0.2949
  650TIP3    H123509   4.366   3.603   8.230  0.3952  1.2146  1.2290
  650TIP3    H223510   4.261   3.517   8.298 -1.4377  1.8091 -0.7350
  651TIP3   OH223511   3.754   0.888   8.715  0.3204 -0.5474 -0.1703
  651TIP3    H123512   3.747   0.972   8.762 -1.0315 -0.4261 -0.5696
  651TIP3    H223513   3.846   0.864   8.724  0.6906  0.8796  0.1418
  652TIP3   OH223514   1.333   3.364   8.657  0.4300 -0.1083 -0.0071
  652TIP3    H123515   1.360   3.444   8.612  0.1766 -0.3384 -0.5838
  652TIP3    H223516   1.306   3.392   8.744 -0.5318  0.5616 -0.5114
  653TIP3   OH223517   4.799   0.949   7.018 -0.2654 -0.2873  0.0509
  653TIP3    H123518   4.775   0.977   6.929  0.4361  2.2948  0.5862
  653TIP3    H223519   4.720   0.906   7.051 -1.4627  1.0152 -0.9531
  654TIP3   OH223520   3.176   1.570   8.832 -0.6325  0.2741 -0.0174
  654TIP3    H123521   3.256   1.532   8.795  0.5460  1.5095  1.1593
  654TIP3    H223522   3.205   1.612   8.913 -2.8614 -1.0306  1.5501
  655TIP3   OH223523   2.619   2.061   6.831 -0.0323  0.3700  0.0854
  655TIP3    H123524   2.548   2.018   6.878  0.8342 -0.1429  0.9352
  655TIP3    H223525   2.580   2.083   6.746 -1.3235  0.4602  0.6706
  656TIP3   OH223526   0.974   2.333   1.332  0.2886 -0.3331 -0.0980
  656TIP3    H123527   0.904   2.336   1.397 -0.3638  0.4293 -0.8092
  656TIP3    H223528   0.929   2.318   1.249  1.2922 -4.0436 -0.1362
  657TIP3   OH223529   1.173   6.079   0.995  0.0079 -0.8988 -0.2324
  657TIP3    H123530   1.249   6.043   1.040 -0.4365  0.3147  1.5855
  657TIP3    H223531   1.181   6.174   1.004 -1.1254 -0.6934 -1.0274
  658TIP3   OH223532   0.298   1.074   8.653 -0.1124  0.1769  0.1177
  658TIP3    H123533   0.281   1.158   8.610 -1.3183 -0.1748 -0.1327
  658TIP3    H223534   0.272   1.089   8.744 -2.2604 -0.4377 -0.3194
  659TIP3   OH223535   5.786   2.130   8.656  0.5561  0.2193  0.5819
  659TIP3    H123536   5.832   2.067   8.601 -2.3647 -3.2509  1.6964
  659TIP3    H223537   5.821   2.116   8.743 -0.2952 -0.1589  0.8810
  660TIP3   OH223538   4.999   2.785   0.753 -0.1947 -0.0640 -0.0861
  660TIP3    H123539   4.994   2.690   0.749 -0.0227 -0.0349 -3.1868
  660TIP3    H223540   5.039   2.803   0.838 -2.1998 -2.5933  1.5786
  661TIP3   OH223541   6.727   2.593   8.070 -0.5765 -0.5982 -0.0486
  661TIP3    H123542   6.654   2.572   8.012  1.1721 -1.7659 -2.0107
  661TIP3    H223543   6.759   2.678   8.038 -0.1709 -0.8046 -0.1948
  662TIP3   OH223544   5.892   2.694   1.170  0.3663  0.3453  0.1870
  662TIP3    H123545   5.809   2.651   1.193 -0.4582 -0.0464 -3.0356
  662TIP3    H223546   5.879   2.785   1.195 -1.3749  0.4324 -0.8551
  663TIP3   OH223547   2.180   6.114   0.810  0.4345  0.0548 -0.0750
  663TIP3    H123548   2.193   6.102   0.716  0.1152 -1.2726  0.0223
  663TIP3    H223549   2.261   6.154   0.841  1.8974 -2.4576 -0.4241
  664TIP3   OH223550   2.143   0.411   7.039 -0.4021  0.0487 -0.1167
  664TIP3    H123551   2.218   0.364   7.076 -0.0706  0.0230 -0.8053
  664TIP3    H223552   2.085   0.427   7.114  0.3045  0.1013  0.4259
  665TIP3   OH223553   0.519   5.723   1.490  0.5371 -0.2944 -0.0097
  665TIP3    H123554   0.577   5.702   1.563 -1.8008 -0.9565  1.7626
  665TIP3    H223555   0.524   5.819   1.483 -0.8428  0.0379  2.5474
  666TIP3   OH223556   1.342   3.182   1.110  0.1767  0.2120  0.0955
  666TIP3    H123557   1.259   3.213   1.075 -0.3187 -0.9989  0.1498
  666TIP3    H223558   1.321   3.151   1.198  0.2723 -1.8176 -0.5533
  667TIP3   OH223559   5.160   4.697   2.105  0.0445  0.5063  0.1304
  667TIP3    H123560   5.114   4.640   2.166  0.4125  0.3189  0.2359
  667TIP3    H223561   5.121   4.783   2.120 -2.3247 -0.1153 -1.8056
  668TIP3   OH223562   0.982   6.518   6.643  0.1937  0.3314 -0.1472
  668TIP3    H123563   0.942   6.604   6.638  0.7323  0.5088 -2.0912
  668TIP3    H223564   1.063   6.532   6.692 -0.5471  0.5659  1.0530
  669TIP3   OH223565   3.254   2.617   6.911  0.1709  0.3547 -0.0744
  669TIP3    H123566   3.275   2.639   6.820 -0.0603  2.6510  0.3715
  669TIP3    H223567   3.340   2.606   6.953  0.3406  1.5202 -0.0907
  670TIP3   OH223568   2.329   5.837   1.067  0.1959  0.2572  0.0814
  670TIP3    H123569   2.316   5.903   0.999  0.8479  0.5030  0.1909
  670TIP3    H223570   2.266   5.768   1.045  1.1713 -0.1938 -1.4501
  671TIP3   OH223571   0.302   3.436   8.269  0.0033 -0.1549 -0.8968
  671TIP3    H123572   0.288   3.527   8.294  0.4728  0.1381 -1.6600
  671TIP3    H223573   0.221   3.391   8.294 -0.2251  0.4644 -0.5076
  672TIP3   OH223574   2.025   1.933   7.498  0.6470 -0.0758  0.1597
  672TIP3    H123575   2.069   2.017   7.487  0.4018 -0.0042 -0.2803
  672TIP3    H223576   1.942   1.955   7.540 -0.0522  0.0796 -1.2365
  673TIP3   OH223577   4.221   0.107   0.998 -0.0719 -0.4456 -0.1100
  673TIP3    H123578   4.175   0.110   1.082 -1.1190 -0.5273 -0.6604
  673TIP3    H223579   4.151   0.103   0.933  0.6491  1.3187 -1.0850
  674TIP3   OH223580   1.022   3.113   8.213  0.0183  0.1284  0.6681
  674TIP3    H123581   0.943   3.097   8.264 -0.3789  1.7294  0.6155
  674TIP3    H223582   0.989   3.136   8.125  0.5812 -0.2288  0.3605
  675TIP3   OH223583   1.313   0.732   1.215  0.6773 -0.8419 -0.0108
  675TIP3    H123584   1.219   0.749   1.217  0.3694 -2.4369  1.3953
  675TIP3    H223585   1.322   0.649   1.168  1.3873 -0.7388 -0.0738
  676TIP3   OH223586   6.147   5.972   2.076  0.6955 -0.5289 -0.4583
  676TIP3    H123587   6.108   5.912   2.012 -2.4747  0.1055  0.7152
  676TIP3    H223588   6.108   5.947   2.159  0.6139  2.0580  0.3527
  677TIP3   OH223589   1.798   6.547   1.486 -0.0558 -0.0005  0.2824
  677TIP3    H123590   1.759   6.634   1.499  1.4299  0.9224 -0.9865
  677TIP3    H223591   1.746   6.508   1.415 -1.3664 -0.6025  1.5357
  678TIP3   OH223592   3.593   2.446   0.520  0.0987 -0.0522  0.1731
  678TIP3    H123593   3.654   2.424   0.449  0.9017  1.4771  0.3572
  678TIP3    H223594   3.635   2.517   0.567 -3.0556  3.2106 -1.4543
  679TIP3   OH223595   3.126   3.122   6.846 -0.0756  0.3618 -0.8781
  679TIP3    H123596   3.217   3.148   6.860 -0.6922  2.2037  0.0860
  679TIP3    H223597   3.080   3.204   6.828 -1.5818 -0.5057 -1.1820
  680TIP3   OH223598   4.598   4.732   7.730 -0.2318 -0.4493  0.8141
  680TIP3    H123599   4.655   4.783   7.673 -0.1137 -0.0022  1.3191
  680TIP3    H223600   4.573   4.794   7.799 -2.9448  0.0118 -0.4422
  681TIP3   OH223601   3.924   1.133   6.661  0.1739  0.1926 -0.1309
  681TIP3    H123602   4.006   1.168   6.627 -0.0398 -0.3388 -1.2495
  681TIP3    H223603   3.877   1.100   6.584 -0.4036 -0.9303  0.6499
  682TIP3   OH223604   4.456   5.868   1.550 -0.3045  0.1736 -0.1536
  682TIP3    H123605   4.373   5.867   1.503 -1.6418  0.7466  2.0928
  682TIP3    H223606   4.505   5.941   1.512  0.2265 -1.5200 -3.0641
  683TIP3   OH223607   6.186   2.438   7.234  0.5173  0.3655 -0.5087
  683TIP3    H123608   6.241   2.449   7.312 -1.7325 -0.9884  1.3882
  683TIP3    H223609   6.108   2.490   7.251 -0.6627 -1.1051 -1.1423
  684TIP3   OH223610   1.394   2.458   0.540 -0.4121  0.1275  0.2804
  684TIP3    H123611   1.360   2.385   0.593 -0.1801  0.6850  1.2146
  684TIP3    H223612   1.326   2.472   0.474 -0.9440 -0.2584  0.7249
  685TIP3   OH223613   4.451   4.229   7.248  0.7650 -0.1753 -0.4882
  685TIP3    H123614   4.459   4.201   7.157 -0.2109  1.8185 -1.2504
  685TIP3    H223615   4.358   4.251   7.259  0.5347 -1.8463  1.4783
  686TIP3   OH223616   1.335   1.259   8.223 -0.1403 -0.5374  0.4317
  686TIP3    H123617   1.271   1.188   8.223  0.3836 -1.0772  2.3623
  686TIP3    H223618   1.298   1.326   8.280  0.6861 -0.5850  1.0562
  687TIP3   OH223619   3.690   1.198   0.707 -0.1577 -0.8448 -0.1195
  687TIP3    H123620   3.741   1.132   0.754 -1.2345 -1.0156  0.8446
  687TIP3    H223621   3.687   1.273   0.765  1.2789  0.1888 -1.3230
  688TIP3   OH223622   3.838   0.384   7.459 -0.1256 -0.4915  0.3861
  688TIP3    H123623   3.775   0.435   7.510 -0.6345  0.0301 -0.7116
  688TIP3    H223624   3.816   0.404   7.368  1.2596 -0.7633 -0.0370
  689TIP3   OH223625   2.836   2.636   7.724 -0.2585 -0.7654 -0.0266
  689TIP3    H123626   2.796   2.607   7.643 -3.2989 -0.6090  1.2838
  689TIP3    H223627   2.769   2.690   7.766  1.6211  0.1151  2.0707
  690TIP3   OH223628   0.467   0.187   1.249  0.0835  0.7679 -0.4992
  690TIP3    H123629   0.525   0.180   1.325 -0.2280 -0.5788 -0.3574
  690TIP3    H223630   0.411   0.262   1.268  1.5379  1.9066 -0.4899
  691TIP3   OH223631   6.663   3.529   7.800 -0.0629 -0.1346 -0.3786
  691TIP3    H123632   6.667   3.585   7.877 -0.2346  0.5949 -0.8880
  691TIP3    H223633   6.753   3.528   7.767 -0.3459  1.2485 -1.3247
  692TIP3   OH223634   0.591   5.612   1.266 -0.2325  0.0826 -0.2046
  692TIP3    H123635   0.687   5.620   1.266 -0.3032  1.1056 -0.5818
  692TIP3    H223636   0.566   5.632   1.356 -0.0465 -0.9868  0.0973
  693TIP3   OH223637   1.881   2.154   7.136 -0.4502 -0.2163  0.6609
  693TIP3    H123638   1.925   2.140   7.052 -1.0057  0.3569  0.2620
  693TIP3    H223639   1.793   2.183   7.112  0.1037  2.3168  1.3856
  694TIP3   OH223640   6.583   0.621   6.165 -0.1983 -0.0810 -0.5270
  694TIP3    H123641   6.679   0.618   6.167 -0.2120 -1.2011  1.8732
  694TIP3    H223642   6.562   0.652   6.077  2.4228  4.1473  0.0561
  695TIP3   OH223643   0.610   4.007   6.505  0.2771  0.3539  0.2829
  695TIP3    H123644   0.606   4.100   6.527  1.3003  0.3889  0.3884
  695TIP3    H223645   0.683   4.000   6.444  0.6984 -0.4765  0.8598
  696TIP3   OH223646   2.229   5.661   7.133  0.5362 -0.6176  0.4272
  696TIP3    H123647   2.228   5.635   7.041 -0.1949 -1.3712  0.6281
  696TIP3    H223648   2.144   5.631   7.167  0.5849  0.1077  1.2194
  697TIP3   OH223649   3.426   1.125   6.664  0.4681  0.1753  0.2755
  697TIP3    H123650   3.455   1.167   6.583 -1.1174 -1.9859 -1.5303
  697TIP3    H223651   3.478   1.044   6.669  0.5156  0.2524  1.4365
  698TIP3   OH223652   1.903   4.610   2.338 -0.7172  0.4498 -0.2787
  698TIP3    H123653   1.912   4.605   2.242  1.3065 -1.5398 -0.0688
  698TIP3    H223654   1.988   4.641   2.368 -0.6374 -0.9215  0.9813
  699TIP3   OH223655   6.118   2.029   8.228 -0.1844 -0.1812  0.5819
  699TIP3    H123656   6.167   2.035   8.310  0.5545  1.7178  0.0511
  699TIP3    H223657   6.094   1.936   8.221  4.4319 -1.6162  0.2992
  700TIP3   OH223658   2.688   2.274   7.898  0.5495 -0.5957  0.1645
  700TIP3    H123659   2.723   2.344   7.953  0.5350 -1.3717  1.2026
  700TIP3    H223660   2.594   2.272   7.918  0.3980 -0.3718 -0.4915
  701TIP3   OH223661   3.221   3.584   7.620  0.5563  0.3137 -0.8712
  701TIP3    H123662   3.215   3.594   7.525 -1.8801  0.8861 -0.7070
  701TIP3    H223663   3.192   3.495   7.637  0.0833  0.5221 -0.5897
  702TIP3   OH223664   6.203   5.810   8.658 -0.2533  0.1209  0.1886
  702TIP3    H123665   6.296   5.809   8.683 -0.4470  0.2715  0.9264
  702TIP3    H223666   6.157   5.833   8.738 -0.8672  1.0476 -0.4193
  703TIP3   OH223667   1.785   0.637   7.088 -0.3697 -0.0958 -0.3695
  703TIP3    H123668   1.734   0.687   7.152  0.1818  0.8021 -0.6134
  703TIP3    H223669   1.721   0.583   7.042 -1.1185  1.0721 -0.7255
  704TIP3   OH223670   1.978   6.551   6.839  0.0482  0.0390  0.6026
  704TIP3    H123671   2.013   6.474   6.884 -0.2182 -0.7664 -0.5289
  704TIP3    H223672   1.947   6.518   6.755  0.2549  1.4597 -0.0593
  705TIP3   OH223673   5.193   4.387   7.386  0.4229 -0.3855 -0.0472
  705TIP3    H123674   5.198   4.369   7.292  0.6222  0.8894 -0.3097
  705TIP3    H223675   5.164   4.478   7.391 -0.2067 -0.6330  1.1476
  706TIP3   OH223676   2.894   3.147   0.770  0.3148 -0.5986  0.2505
  706TIP3    H123677   2.925   3.207   0.837  1.5659 -0.1057 -0.7436
  706TIP3    H223678   2.973   3.113   0.729 -0.3584 -2.6734  0.5237
  707TIP3   OH223679   4.345   1.059   1.287 -0.0074 -0.4821 -0.0162
  707TIP3    H123680   4.352   0.966   1.268 -2.9432 -0.7840 -0.1528
  707TIP3    H223681   4.251   1.076   1.287  0.3555  2.1378  1.7024
  708TIP3   OH223682   6.751   0.099   7.930  0.0687 -0.0885  0.4011
  708TIP3    H123683   6.675   0.155   7.918 -1.1609 -1.4363  1.4606
  708TIP3    H223684   6.822   0.159   7.953 -0.8566  1.1284  0.1900
  709TIP3   OH223685   6.659   4.896   7.589 -0.3575 -0.3220 -0.4778
  709TIP3    H123686   6.720   4.888   7.663 -1.6978  0.9246  0.8212
  709TIP3    H223687   6.627   4.806   7.575  1.8785 -1.0536 -1.3564
  710TIP3   OH223688   2.646   4.188   7.821  0.1197 -0.6411 -0.2232
  710TIP3    H123689   2.575   4.237   7.862  0.6701 -0.9064  1.0982
  710TIP3    H223690   2.618   4.096   7.827  0.0378 -0.6578 -0.7971
  711TIP3   OH223691   2.979   4.264   7.531  0.1141 -0.3093  0.0901
  711TIP3    H123692   2.924   4.244   7.455 -1.1552  4.3894 -0.5832
  711TIP3    H223693   2.920   4.307   7.593  2.0327  0.1470  1.7150
  712TIP3   OH223694   5.398   0.494   7.042 -0.1291  0.3931  0.5075
  712TIP3    H123695   5.357   0.408   7.051 -0.6693  0.7182  1.2877
  712TIP3    H223696   5.351   0.536   6.971 -2.0387  1.2221  2.1608
  713TIP3   OH223697   4.166   5.917   0.686  0.2666  0.4796  0.3822
  713TIP3    H123698   4.117   6.000   0.684 -1.8610 -0.6654  1.3142
  713TIP3    H223699   4.098   5.850   0.698  2.1453 -1.1940  2.3748
  714TIP3   OH223700   0.076   0.690   7.634  0.3814  0.2862 -0.4054
  714TIP3    H123701   0.132   0.656   7.704  1.0321  0.0327 -1.0308
  714TIP3    H223702  -0.006   0.712   7.677 -0.6558 -3.4098 -0.1729
  715TIP3   OH223703   4.251   4.868   7.814  0.4063 -0.5752 -0.0639
  715TIP3    H123704   4.329   4.922   7.801  0.3270 -0.3435  0.4205
  715TIP3    H223705   4.215   4.857   7.726  1.3116 -1.1785 -0.3829
  716TIP3   OH223706   2.050   3.657   1.462 -0.0276  0.4901  0.2433
  716TIP3    H123707   2.061   3.751   1.471  1.7052  0.2605  1.0501
  716TIP3    H223708   1.958   3.645   1.441 -0.5009  2.3053  1.0678
  717TIP3   OH223709   3.899   0.772   7.015 -0.6268 -0.3059  0.5325
  717TIP3    H123710   3.857   0.827   6.949 -0.0404  0.3365  0.6884
  717TIP3    H223711   3.826   0.726   7.057 -1.0415 -0.3438 -0.2237
  718TIP3   OH223712   5.477   6.530   0.587 -0.4018 -0.0807 -0.1123
  718TIP3    H123713   5.512   6.446   0.554 -0.3078  0.3871 -1.2622
  718TIP3    H223714   5.406   6.551   0.526 -1.1870  0.1143  0.8533
  719TIP3   OH223715   2.247   2.768   1.027 -0.2160  1.2565  0.3087
  719TIP3    H123716   2.319   2.814   0.984 -0.1349  1.6068  0.7975
  719TIP3    H223717   2.284   2.740   1.111  0.3952 -1.5904 -0.8013
  720TIP3   OH223718   0.066   6.401   1.967 -0.2266  0.0742 -0.3740
  720TIP3    H123719  -0.013   6.455   1.970 -1.5580 -1.7694 -0.2602
  720TIP3    H223720   0.107   6.422   1.883  0.6317  2.9434  0.6460
  721TIP3   OH223721   4.408   3.233   0.799  0.2064  0.1277 -0.0099
  721TIP3    H123722   4.455   3.176   0.737 -1.2071 -1.8133  0.5963
  721TIP3    H223723   4.441   3.321   0.781  1.4869 -0.6883 -1.9614
  722TIP3   OH223724   0.874   1.854   7.739 -0.3878 -0.4188  0.0380
  722TIP3    H123725   0.831   1.925   7.786  0.3496  0.1753 -0.1730
  722TIP3    H223726   0.919   1.804   7.806  2.1873  1.4641 -0.1164
  723TIP3   OH223727   1.809   2.562   1.533 -0.7603 -0.2402 -0.1969
  723TIP3    H123728   1.823   2.477   1.491  0.0795 -0.4077  0.3909
  723TIP3    H223729   1.870   2.562   1.607 -0.9700  0.7523 -0.0154
  724TIP3   OH223730   3.612   0.637   8.408  0.4427  0.0058 -0.3795
  724TIP3    H123731   3.535   0.684   8.378 -1.3237 -0.9538  2.2126
  724TIP3    H223732   3.678   0.704   8.423 -0.8197  1.2254 -0.1135
  725TIP3   OH223733   0.010   6.565   8.386  0.2263  0.2081 -0.1726
  725TIP3    H123734   0.037   6.477   8.359 -1.6904 -0.0204 -1.5451
  725TIP3    H223735   0.089   6.603   8.424  0.6083 -2.8658  2.5799
  726TIP3   OH223736   5.272   5.559   8.310 -0.0370  0.4781 -0.0913
  726TIP3    H123737   5.327   5.628   8.347 -2.8766  2.9144 -0.0263
  726TIP3    H223738   5.207   5.605   8.258 -1.0716 -2.3336 -1.5334
  727TIP3   OH223739   2.355   5.261   7.461  0.4856 -0.4625 -0.1324
  727TIP3    H123740   2.443   5.265   7.498  0.6324  0.0536 -0.5330
  727TIP3    H223741   2.318   5.349   7.475 -0.7956 -1.2525  2.0177
  728TIP3   OH223742   2.468   0.100   1.424  0.0427  0.8073 -0.2240
  728TIP3    H123743   2.513   0.162   1.481  0.2547 -0.4118  0.9870
  728TIP3    H223744   2.414   0.048   1.484 -0.2810 -0.0451 -1.2339
  729TIP3   OH223745   1.733   4.767   6.942 -0.0731  0.4047  0.3749
  729TIP3    H123746   1.796   4.702   6.972  0.3594  1.3216  1.5503
  729TIP3    H223747   1.650   4.719   6.935  0.5971 -0.6641 -0.5502
  730TIP3   OH223748   3.401   5.082   1.167 -0.2539  0.2536  0.0855
  730TIP3    H123749   3.397   5.023   1.242  1.2138  0.8650  0.6690
  730TIP3    H223750   3.427   5.026   1.094  1.3906  0.1689  0.6852
  731TIP3   OH223751   6.204   6.693   1.993  0.1732  0.1974 -0.2193
  731TIP3    H123752   6.294   6.698   2.024  0.1687  0.3562 -0.2339
  731TIP3    H223753   6.152   6.740   2.058  0.2981  1.4797 -1.0028
  732TIP3   OH223754   2.659   4.578   8.607  0.9115 -0.0103 -0.0463
  732TIP3    H123755   2.615   4.522   8.671 -0.5970  1.7369  0.5271
  732TIP3    H223756   2.752   4.567   8.625  0.6511 -1.9376  0.3431
  733TIP3   OH223757   0.536   2.774   2.104 -0.5609  0.2207 -0.4570
  733TIP3    H123758   0.474   2.702   2.094 -1.0350  0.5764 -0.1151
  733TIP3    H223759   0.482   2.849   2.127  0.1923 -0.0689  2.7348
  734TIP3   OH223760   6.550   0.984   7.140  0.4084  0.1681 -1.0852
  734TIP3    H123761   6.457   0.992   7.159  0.4135 -1.4921 -0.1427
  734TIP3    H223762   6.557   0.908   7.082  1.0287  1.4084 -2.7096
  735TIP3   OH223763   2.054   4.634   7.050 -1.2393 -0.4311  0.0263
  735TIP3    H123764   2.044   4.546   7.014  0.0749 -0.3400 -0.6285
  735TIP3    H223765   2.142   4.636   7.087 -1.3906  0.4874  0.3722
  736TIP3   OH223766   0.335   4.991   7.071  0.2991 -0.3928 -0.3144
  736TIP3    H123767   0.277   4.970   6.998  0.0231  0.7306 -0.4344
  736TIP3    H223768   0.391   5.062   7.038  0.8178 -0.5267  0.2511
  737TIP3   OH223769   1.473   2.764   1.331 -0.0371 -0.2681 -0.1334
  737TIP3    H123770   1.496   2.731   1.418 -0.6631  1.4053  0.7195
  737TIP3    H223771   1.379   2.751   1.324  0.1384 -1.1908 -0.9396
  738TIP3   OH223772   0.603   1.772   8.048  0.0606 -0.2025  0.3759
  738TIP3    H123773   0.640   1.754   7.961  0.8153  0.9906  0.4239
  738TIP3    H223774   0.541   1.843   8.032  1.6429  1.4321  1.0541
  739TIP3   OH223775   6.221   0.387   0.208 -0.3064  0.2393  0.1448
  739TIP3    H123776   6.181   0.317   0.157  0.7150 -0.1935 -0.0972
  739TIP3    H223777   6.313   0.388   0.180  0.4348 -0.3813  2.3452
  740TIP3   OH223778   0.678   2.284   0.598  0.2079 -0.0483  0.1015
  740TIP3    H123779   0.589   2.272   0.565  1.4196 -1.7583 -3.0161
  740TIP3    H223780   0.718   2.197   0.590  1.5689  0.0775  3.7275
  741TIP3   OH223781   1.927   5.967   6.202  0.1147  0.9811 -0.0786
  741TIP3    H123782   1.934   6.032   6.133 -1.0632  1.2338  0.0164
  741TIP3    H223783   1.992   5.994   6.267 -0.1606  1.9092 -0.1696
  742TIP3   OH223784   4.605   5.111   8.331  0.1158  0.0978  0.6115
  742TIP3    H123785   4.691   5.151   8.325  0.3588 -0.4115  0.7053
  742TIP3    H223786   4.589   5.073   8.245 -0.0599  0.2706  0.5646
  743TIP3   OH223787   2.389   2.035   7.891 -0.6910  0.1728  0.9307
  743TIP3    H123788   2.383   2.114   7.837 -0.8693 -0.8811 -0.6462
  743TIP3    H223789   2.472   1.995   7.865 -0.7749 -0.3438  1.4516
  744TIP3   OH223790   4.566   3.803   7.202 -0.0834 -0.1978 -0.0171
  744TIP3    H123791   4.627   3.872   7.174 -0.7618  0.7870  0.8587
  744TIP3    H223792   4.529   3.836   7.283  0.4395 -2.1482  1.0733
  745TIP3   OH223793   4.468   5.266   0.872 -0.3686  0.3540  0.0990
  745TIP3    H123794   4.502   5.185   0.835  0.3106  0.6141  0.1422
  745TIP3    H223795   4.456   5.247   0.965 -0.4074  0.2429  0.0714
  746TIP3   OH223796   6.688   1.295   6.435  1.0944 -0.4494  0.0475
  746TIP3    H123797   6.768   1.252   6.404  2.6754  1.8320  0.6829
  746TIP3    H223798   6.648   1.331   6.356  1.9190  0.3086 -0.0335
  747TIP3   OH223799   3.228   3.315   0.781 -0.4960 -0.5175 -0.2608
  747TIP3    H123800   3.160   3.359   0.833  1.3938 -0.8072  2.6832
  747TIP3    H223801   3.195   3.226   0.768 -0.6799 -0.6768  1.1821
  748TIP3   OH223802   0.277   1.591   8.385  0.2746  0.2639  0.2598
  748TIP3    H123803   0.191   1.586   8.427  0.6317  0.2926  1.0058
  748TIP3    H223804   0.267   1.539   8.306 -1.1639  2.2505 -0.9690
  749TIP3   OH223805   1.887   4.923   8.222  0.1838 -0.1571 -0.6354
  749TIP3    H123806   1.830   4.882   8.287 -1.3905  1.4889 -0.8839
  749TIP3    H223807   1.969   4.940   8.269 -0.3599 -0.4406  0.4527
  750TIP3   OH223808   2.457   0.476   8.570 -0.1103 -0.1434 -0.6633
  750TIP3    H123809   2.373   0.430   8.568 -0.0986 -0.2425  0.5326
  750TIP3    H223810   2.522   0.408   8.554 -0.2760  0.1001 -2.6815
  751TIP3   OH223811   2.180   2.661   7.180  0.4843  0.4110 -0.0429
  751TIP3    H123812   2.176   2.745   7.134 -0.7334  0.9037  0.9180
  751TIP3    H223813   2.113   2.607   7.136  1.6082 -0.2639 -0.9937
  752TIP3   OH223814   2.004   3.947   1.414  0.1395  0.2752 -0.3301
  752TIP3    H123815   2.035   4.032   1.382  0.0273  0.3064 -0.3567
  752TIP3    H223816   1.969   3.965   1.501  3.5790 -0.3889  1.3647
  753TIP3   OH223817   6.478   0.202   0.752  0.1619 -0.0106 -0.5740
  753TIP3    H123818   6.515   0.251   0.679  1.1690 -1.0267 -0.7862
  753TIP3    H223819   6.544   0.135   0.772  0.4521  0.9140  2.0103
  754TIP3   OH223820   5.898   6.138   2.362 -0.6387  0.7136 -0.0881
  754TIP3    H123821   5.930   6.051   2.338 -0.8570  0.2645  1.1852
  754TIP3    H223822   5.977   6.189   2.380 -0.5554  0.0381  1.6012
  755TIP3   OH223823   1.994   4.305   0.939 -0.2431  0.0220 -0.3645
  755TIP3    H123824   2.056   4.338   0.873 -2.0706  1.0103 -1.6901
  755TIP3    H223825   1.985   4.378   1.001 -0.5264  0.1095 -0.5084
  756TIP3   OH223826   4.133   2.401   0.814 -0.0624  0.2297  0.0576
  756TIP3    H123827   4.157   2.312   0.789 -1.4310 -0.4713  1.0610
  756TIP3    H223828   4.195   2.424   0.883 -0.3793 -0.3874  0.5561
  757TIP3   OH223829   2.503   4.113   6.504  0.6559  0.2386  0.1986
  757TIP3    H123830   2.526   4.187   6.560 -0.4023 -0.3526  1.5032
  757TIP3    H223831   2.414   4.132   6.475  0.7715 -0.0169 -0.3257
  758TIP3   OH223832   2.563   4.135   1.439 -0.3234 -0.2120 -1.2371
  758TIP3    H123833   2.557   4.117   1.345 -1.6293  2.6924 -1.8014
  758TIP3    H223834   2.575   4.229   1.445  1.6690 -0.5223  1.5314
  759TIP3   OH223835   2.649   5.017   1.859 -0.5385 -0.5673 -0.0860
  759TIP3    H123836   2.570   4.997   1.909 -0.5233 -0.9122 -0.1998
  759TIP3    H223837   2.718   4.964   1.900 -0.0628  0.7277  0.8780
  760TIP3   OH223838   6.389   4.744   8.123  0.7633 -0.1671  0.3907
  760TIP3    H123839   6.328   4.698   8.182 -1.1736 -1.0496 -2.1258
  760TIP3    H223840   6.383   4.836   8.150 -2.4400 -0.0677 -0.2709
  761TIP3   OH223841   4.400   1.252   7.986 -0.2943  0.2099 -0.3944
  761TIP3    H123842   4.451   1.279   8.063 -0.8446 -2.7177  1.1590
  761TIP3    H223843   4.432   1.165   7.966 -1.2741  0.2860 -2.5561
  762TIP3   OH223844   5.826   0.849   7.054 -0.4345  0.8936  0.5113
  762TIP3    H123845   5.800   0.790   6.983  1.6728 -0.0405  0.4206
  762TIP3    H223846   5.859   0.927   7.010  1.3899  0.0921  0.3789
  763TIP3   OH223847   0.707   4.935   7.612 -0.1448 -0.1695 -0.1976
  763TIP3    H123848   0.737   5.016   7.569 -1.6036 -0.2818 -1.5220
  763TIP3    H223849   0.643   4.965   7.677  1.8504 -0.0258  1.8441
  764TIP3   OH223850   5.520   2.651   2.507  0.1855 -0.2360 -0.9011
  764TIP3    H123851   5.591   2.672   2.447 -0.6107  1.2435 -1.3792
  764TIP3    H223852   5.501   2.733   2.552 -1.1257 -0.6362 -0.6707
  765TIP3   OH223853   1.127   5.421   0.823  0.0337  0.1137 -0.2371
  765TIP3    H123854   1.078   5.452   0.747 -2.9565 -0.0438  1.4307
  765TIP3    H223855   1.149   5.330   0.801 -1.1758 -0.0747 -0.7985
  766TIP3   OH223856   6.692   2.564   8.640  0.2275 -0.5029 -0.7448
  766TIP3    H123857   6.629   2.621   8.597 -0.3367 -0.8622 -0.4089
  766TIP3    H223858   6.736   2.620   8.704  0.4673 -0.1801 -1.1819
  767TIP3   OH223859   0.805   3.357   8.448 -0.1204 -0.0463  0.0711
  767TIP3    H123860   0.862   3.432   8.426 -0.3750 -0.4281 -2.1449
  767TIP3    H223861   0.720   3.396   8.466  0.1588  0.3104  0.6646
  768TIP3   OH223862   2.547   2.700   1.815 -0.5546 -0.0550 -0.7269
  768TIP3    H123863   2.453   2.678   1.820 -0.2988 -1.0159  0.3131
  768TIP3    H223864   2.581   2.641   1.748 -0.4815 -0.5592 -0.2546
  769TIP3   OH223865   2.068   1.198   7.977  0.0628 -0.6145  0.0224
  769TIP3    H123866   1.976   1.221   7.961  0.2607  0.9410  0.8479
  769TIP3    H223867   2.117   1.268   7.933  0.9793 -2.5154 -2.1764
  770TIP3   OH223868   3.028   5.869   1.571 -0.2945  0.1906  0.6866
  770TIP3    H123869   3.067   5.834   1.491 -1.1206 -1.4473  0.9548
  770TIP3    H223870   3.062   5.959   1.577 -0.2782  0.3935 -1.5250
  771TIP3   OH223871   3.819   2.559   7.968 -0.2428  0.2347  0.7835
  771TIP3    H123872   3.854   2.481   7.924 -0.8006  0.5506 -0.2344
  771TIP3    H223873   3.794   2.618   7.897 -0.2912  1.1451  1.5407
  772TIP3   OH223874   3.076   0.812   0.096 -0.0843 -0.4960 -0.0453
  772TIP3    H123875   3.058   0.732   0.144 -1.3884 -1.1416 -1.5220
  772TIP3    H223876   2.990   0.844   0.070  0.3522  1.7619  1.0363
  773TIP3   OH223877   2.973   5.851   7.017  0.0192  0.7034  0.1579
  773TIP3    H123878   3.012   5.934   6.990  1.5078 -0.0136  0.0004
  773TIP3    H223879   3.034   5.816   7.082 -0.9332  0.0369  0.7192
  774TIP3   OH223880   1.619   0.306   0.764  0.4260 -0.3644 -0.2829
  774TIP3    H123881   1.707   0.341   0.754  0.1573  0.1806 -0.8058
  774TIP3    H223882   1.626   0.244   0.837  0.9997  0.4611  0.3864
  775TIP3   OH223883   5.091   3.806   7.521 -0.1803  0.3180  0.3444
  775TIP3    H123884   5.087   3.902   7.521  1.6085  0.4662 -1.5680
  775TIP3    H223885   5.184   3.786   7.518 -0.5216 -1.5148  0.9787
  776TIP3   OH223886   5.417   2.431   7.889 -0.4119 -0.2131  0.1493
  776TIP3    H123887   5.359   2.355   7.888 -1.2257  0.3984  0.0741
  776TIP3    H223888   5.425   2.454   7.981  0.3745 -0.7783  0.2360
  777TIP3   OH223889   3.851   0.448   6.961 -0.2143 -0.1592  0.1619
  777TIP3    H123890   3.902   0.445   6.880 -1.3594 -0.3033 -0.5659
  777TIP3    H223891   3.760   0.444   6.933 -0.6146 -1.9705  1.5300
  778TIP3   OH223892   0.553   6.316   1.889  0.2897 -0.3938  0.0804
  778TIP3    H123893   0.532   6.405   1.918 -1.4160 -0.8428  0.3459
  778TIP3    H223894   0.571   6.268   1.971 -1.4718 -0.9136  0.2049
  779TIP3   OH223895   3.115   5.736   6.705  0.6684  0.4305  0.5144
  779TIP3    H123896   3.126   5.830   6.718 -0.1507  0.4596  1.1054
  779TIP3    H223897   3.114   5.724   6.610 -2.5811  1.4976  0.2812
  780TIP3   OH223898   2.955   4.845   7.183  0.2694  0.0543 -0.3771
  780TIP3    H123899   2.962   4.770   7.242 -1.0294  0.2700  0.0752
  780TIP3    H223900   3.036   4.895   7.199  0.6291 -0.6644  0.1242
  781TIP3   OH223901   5.471   0.707   1.152  0.3625  0.1489 -0.1245
  781TIP3    H123902   5.480   0.775   1.086 -1.2693  0.4934 -0.0417
  781TIP3    H223903   5.511   0.743   1.231 -1.3041  1.4503  0.1878
  782TIP3   OH223904   2.169   2.917   7.758 -0.5754 -0.0738  0.5598
  782TIP3    H123905   2.124   2.934   7.676  1.5290  1.4546 -0.3507
  782TIP3    H223906   2.152   2.994   7.812 -0.1646 -0.0987  0.7290
  783TIP3   OH223907   4.469   2.865   7.850 -0.0985 -0.4127 -0.2669
  783TIP3    H123908   4.491   2.934   7.788  2.7709  0.2114  1.2700
  783TIP3    H223909   4.423   2.799   7.798 -0.6300  1.4647 -2.3180
  784TIP3   OH223910   2.706   0.535   0.521 -0.3050 -0.2801 -0.0498
  784TIP3    H123911   2.640   0.599   0.493 -0.8294 -0.9438 -0.3438
  784TIP3    H223912   2.697   0.462   0.459 -1.0049 -1.4664  1.3905
  785TIP3   OH223913   1.104   6.161   7.390  0.3167  0.2544 -0.9525
  785TIP3    H123914   1.090   6.104   7.466 -1.9994 -0.7872 -2.0436
  785TIP3    H223915   1.199   6.166   7.381  0.7470  1.1197  2.4613
  786TIP3   OH223916   3.614   2.505   8.755  0.9448  0.1674 -0.1617
  786TIP3    H123917   3.575   2.592   8.746  2.3529  0.8591  0.0408
  786TIP3    H223918   3.689   2.506   8.696  0.2194 -1.4225 -1.1896
  787TIP3   OH223919   3.007   3.318   6.518  0.0395 -0.6926 -0.4407
  787TIP3    H123920   3.056   3.237   6.531  2.2268  0.4265 -1.2064
  787TIP3    H223921   2.955   3.302   6.438  1.7685 -0.8095 -1.5980
  788TIP3   OH223922   4.839   4.738   8.430  0.1735 -0.0115 -0.4386
  788TIP3    H123923   4.878   4.818   8.466 -0.3104 -0.5998  1.4527
  788TIP3    H223924   4.754   4.765   8.397 -0.0721  0.2208  0.3786
  789TIP3   OH223925   6.043   5.407   7.999 -0.4400  0.0039 -0.7388
  789TIP3    H123926   5.958   5.363   8.006  0.2124 -1.4013 -1.2793
  789TIP3    H223927   6.103   5.339   7.968  0.7925  1.0879 -0.8246
  790TIP3   OH223928   6.792   1.505   8.448  0.0980 -0.4095  0.2419
  790TIP3    H123929   6.760   1.575   8.504  0.6141  1.7642 -2.0215
  790TIP3    H223930   6.714   1.453   8.426 -0.4549  0.0174  1.1546
  791TIP3   OH223931   3.647   1.673   6.093 -0.8915  0.1448 -0.4789
  791TIP3    H123932   3.562   1.715   6.102 -1.5502 -0.5495 -2.8229
  791TIP3    H223933   3.628   1.584   6.063  0.6395  0.1003 -1.4525
  792TIP3   OH223934   3.754   4.029   8.011  0.2726  0.4545  0.4311
  792TIP3    H123935   3.838   3.989   7.992 -0.7676 -1.0694 -1.2633
  792TIP3    H223936   3.776   4.112   8.053  2.5573 -0.5990  1.4745
  793TIP3   OH223937   2.233   0.741   1.056  0.7899  0.2145  0.7963
  793TIP3    H123938   2.249   0.648   1.067 -2.4016 -0.4164  1.1988
  793TIP3    H223939   2.306   0.773   1.004  1.3655 -2.7662 -0.3842
  794TIP3   OH223940   4.537   1.579   1.931 -0.9314  0.6711  0.0867
  794TIP3    H123941   4.455   1.530   1.939 -1.2773  1.1633 -0.3808
  794TIP3    H223942   4.510   1.670   1.928 -0.2554  0.9593  1.6692
  795TIP3   OH223943   1.459   3.210   7.957  0.2078  0.3386  0.0547
  795TIP3    H123944   1.455   3.164   7.873 -0.1825 -0.1452  0.3340
  795TIP3    H223945   1.436   3.300   7.936  2.6697  0.8483 -0.8050
  796TIP3   OH223946   0.203   1.505   7.819 -0.1918  0.0597  0.1241
  796TIP3    H123947   0.123   1.453   7.812  0.0522 -0.3269  0.2033
  796TIP3    H223948   0.234   1.489   7.908  0.5019 -0.5703 -0.2221
  797TIP3   OH223949   3.578   2.780   1.089  0.3452 -0.0877  0.5223
  797TIP3    H123950   3.558   2.687   1.077  0.7209  0.0426 -1.4302
  797TIP3    H223951   3.671   2.781   1.113  0.1329 -0.2498  1.3733
  798TIP3   OH223952   4.853   2.836   0.063  0.5405 -0.3463 -0.2574
  798TIP3    H123953   4.874   2.743   0.072  1.2697 -0.0507  1.3981
  798TIP3    H223954   4.910   2.880   0.126 -1.0085  1.0660  0.2380
  799TIP3   OH223955   0.273   2.505   7.547 -0.4675  0.6377  0.0762
  799TIP3    H123956   0.265   2.546   7.461  0.5608 -0.4979 -0.5854
  799TIP3    H223957   0.188   2.466   7.563 -0.5141  0.4411 -0.6453
  800TIP3   OH223958   6.758   3.354   0.076 -0.7460 -0.1932 -0.3865
  800TIP3    H123959   6.789   3.358   0.166 -1.0351  1.7704 -0.3265
  800TIP3    H223960   6.721   3.266   0.067  1.7991 -1.4378  0.5135
  801TIP3   OH223961   1.680   1.250   7.450 -0.1315 -0.4685  0.3773
  801TIP3    H123962   1.670   1.203   7.368 -0.2786  0.5676 -0.2187
  801TIP3    H223963   1.745   1.199   7.499  1.0506 -0.3460 -0.9668
  802TIP3   OH223964   0.827   1.541   1.841  0.1851  0.5519  0.1989
  802TIP3    H123965   0.846   1.612   1.779  0.6191 -0.5931 -1.0222
  802TIP3    H223966   0.908   1.490   1.844 -0.0767  0.1750  1.1580
  803TIP3   OH223967   6.742   2.262   1.363  0.3695  0.3603  0.8413
  803TIP3    H123968   6.813   2.203   1.338 -0.1646 -0.0878  0.3315
  803TIP3    H223969   6.713   2.301   1.280  0.4980  1.0972  1.1323
  804TIP3   OH223970   0.952   6.772   0.228  0.0285  0.2093 -0.0413
  804TIP3    H123971   1.000   6.695   0.256 -2.5649 -2.3119 -1.9308
  804TIP3    H223972   0.903   6.800   0.305 -0.6973 -1.4674  0.1385
  805TIP3   OH223973   6.021   1.356   0.408 -0.1162  1.2283  0.4581
  805TIP3    H123974   6.031   1.449   0.429  1.9163  1.6582 -1.9588
  805TIP3    H223975   6.055   1.310   0.484  2.2705  2.5760  0.2871
  806TIP3   OH223976   3.102   6.412   2.112  0.0702  0.0871 -0.1677
  806TIP3    H123977   3.013   6.435   2.140 -0.4090 -1.9510  0.1261
  806TIP3    H223978   3.116   6.464   2.033 -1.2709  0.6696 -0.0539
  807TIP3   OH223979   0.863   2.945   6.286  0.1172  0.2899 -0.1955
  807TIP3    H123980   0.841   2.856   6.312 -1.0812  0.5796 -0.1434
  807TIP3    H223981   0.906   2.936   6.201  4.3358 -0.7006  1.7594
  808TIP3   OH223982   6.257   4.585   0.686 -0.3710  0.2828 -0.1817
  808TIP3    H123983   6.184   4.593   0.748  1.8699 -1.7728  3.0095
  808TIP3    H223984   6.326   4.640   0.723  1.3292 -1.6683 -0.3162
  809TIP3   OH223985   5.081   0.132   0.623  0.6822 -0.1616  0.0102
  809TIP3    H123986   5.164   0.084   0.622  0.2109 -0.9973  0.4813
  809TIP3    H223987   5.039   0.109   0.540  0.3245 -0.8003  0.3670
  810TIP3   OH223988   1.768   4.550   1.721  0.1195 -0.1419  0.3045
  810TIP3    H123989   1.766   4.464   1.679  1.0246 -0.6195  1.2037
  810TIP3    H223990   1.853   4.554   1.764 -0.3671  0.7498  1.2332
  811TIP3   OH223991   0.916   4.051   6.895 -0.4301  0.4394 -0.1768
  811TIP3    H123992   0.907   3.981   6.959 -0.0066  0.8699  0.3593
  811TIP3    H223993   0.970   4.013   6.825 -0.5407  0.1074 -0.0845
  812TIP3   OH223994   3.833   0.501   7.891 -0.9538  0.2991 -0.4455
  812TIP3    H123995   3.751   0.460   7.862 -0.1508 -1.0685 -0.8886
  812TIP3    H223996   3.866   0.546   7.814 -0.0992 -1.2106 -1.0215
  813TIP3   OH223997   4.320   4.685   0.066  0.1090 -0.1264 -0.2274
  813TIP3    H123998   4.412   4.711   0.059 -0.4497  2.5013  0.7504
  813TIP3    H223999   4.312   4.646   0.153  0.2070  0.2086 -0.0655
  814TIP3   OH224000   2.818   6.612   1.839  0.1535 -0.3050 -0.2678
  814TIP3    H124001   2.809   6.705   1.860 -3.4556 -0.6015  0.2479
  814TIP3    H224002   2.827   6.569   1.924  3.4764 -0.4234 -0.5798
  815TIP3   OH224003   6.090   1.832   7.063  1.0357  0.1562 -0.7875
  815TIP3    H124004   5.998   1.809   7.052  0.5321  0.4751  2.0802
  815TIP3    H224005   6.132   1.801   6.983 -1.4209 -0.6779 -1.8469
  816TIP3   OH224006   2.944   5.840   8.791  0.7597 -0.9268  0.0526
  816TIP3    H124007   3.013   5.893   8.751 -0.3216 -0.6049 -1.5169
  816TIP3    H224008   2.876   5.835   8.723 -0.6277 -1.4746  1.4191
  817TIP3   OH224009   2.850   1.450   0.483  0.3088  0.4239  0.0522
  817TIP3    H124010   2.808   1.487   0.561 -0.6177 -0.8836  0.2035
  817TIP3    H224011   2.937   1.423   0.514 -0.0844 -0.1601  0.6616
  818TIP3   OH224012   4.261   1.582   7.181 -0.1225  0.1254  0.1631
  818TIP3    H124013   4.241   1.542   7.097  1.2767  1.8874 -1.0692
  818TIP3    H224014   4.267   1.675   7.163 -0.3633  0.6235  2.3504
  819TIP3   OH224015   3.691   0.616   7.560 -0.4423 -0.0517 -0.5837
  819TIP3    H124016   3.747   0.666   7.619 -1.4683  1.2344 -0.6585
  819TIP3    H224017   3.612   0.598   7.611  0.9183 -4.0674  0.4069
  820TIP3   OH224018   4.940   6.545   7.819 -0.2557  0.4181 -0.2207
  820TIP3    H124019   4.885   6.520   7.745 -1.6634  2.4065  0.0654
  820TIP3    H224020   4.935   6.472   7.880 -2.3576  0.4173 -0.3456
  821TIP3   OH224021   3.468   0.780   1.192 -0.1969  0.4514  0.4522
  821TIP3    H124022   3.457   0.783   1.097 -2.0252  1.2786  0.6646
  821TIP3    H224023   3.558   0.811   1.206 -0.1963  1.1645 -0.9459
  822TIP3   OH224024   2.299   4.027   7.718  0.0716  0.7566  0.9331
  822TIP3    H124025   2.338   4.059   7.637  0.0904 -1.0550  0.1822
  822TIP3    H224026   2.209   4.058   7.716 -0.1941 -0.0166 -0.2549
  823TIP3   OH224027   1.213   1.933   7.818  0.3809 -0.3322 -0.5439
  823TIP3    H124028   1.228   1.969   7.731 -2.5410  0.2036 -0.9518
  823TIP3    H224029   1.252   1.996   7.878  2.0644 -0.5007 -1.4220
  824TIP3   OH224030   6.126   2.015   8.761 -0.2860  0.3310 -0.1714
  824TIP3    H124031   6.092   2.069   8.832 -1.4777  1.1714 -1.3350
  824TIP3    H224032   6.220   2.030   8.761 -0.0859 -0.6378  1.9795
  825TIP3   OH224033   3.053   2.308   7.554  0.3064  0.5226 -0.3883
  825TIP3    H124034   3.047   2.385   7.498  0.0073  0.3717 -0.5703
  825TIP3    H224035   3.015   2.237   7.501  0.5024  0.2678 -0.1950
  826TIP3   OH224036   4.357   3.180   1.094  0.3309  0.5457  0.1282
  826TIP3    H124037   4.381   3.088   1.093  0.7913  0.6671 -0.6795
  826TIP3    H224038   4.408   3.220   1.023  1.2338  1.6979  1.3732
  827TIP3   OH224039   4.173   5.592   7.941  0.2726 -0.0729 -0.3422
  827TIP3    H124040   4.091   5.546   7.922 -0.3744  1.2344 -0.8472
  827TIP3    H224041   4.197   5.632   7.857 -0.1421  1.9638  0.4605
  828TIP3   OH224042   3.336   4.810   7.093  0.2632  0.0518 -0.9329
  828TIP3    H124043   3.272   4.739   7.100  2.0141 -1.6640 -1.3647
  828TIP3    H224044   3.363   4.810   7.001  1.9305 -0.3188 -0.4943
  829TIP3   OH224045   3.632   3.119   0.670 -0.1453 -0.2038  0.1855
  829TIP3    H124046   3.597   3.041   0.713  0.6541  0.0816  1.4099
  829TIP3    H224047   3.557   3.176   0.658 -0.4016 -0.3264  1.1532
  830TIP3   OH224048   0.241   1.898   0.241  0.0117  0.1202  0.7196
  830TIP3    H124049   0.191   1.964   0.289  0.0257 -0.1767  1.1448
  830TIP3    H224050   0.189   1.818   0.248  0.7433 -0.3000  1.5324
  831TIP3   OH224051   1.331   2.697   1.816  0.1221 -0.1403  0.1635
  831TIP3    H124052   1.420   2.726   1.832  0.4533 -0.8751 -0.3039
  831TIP3    H224053   1.312   2.723   1.726 -0.3385  0.4966  0.4346
  832TIP3   OH224054   6.504   1.044   6.277  0.1104  0.6833  0.4100
  832TIP3    H124055   6.440   1.006   6.337  0.0182 -0.7351 -0.5619
  832TIP3    H224056   6.460   1.122   6.242 -0.1509  1.0553  1.5227
  833TIP3   OH224057   3.977   5.600   8.812  0.9002  0.3554 -0.3402
  833TIP3    H124058   4.032   5.678   8.818 -0.2781  1.1531  0.3230
  833TIP3    H224059   3.904   5.617   8.870 -0.0761 -0.6773 -1.2194
  834TIP3   OH224060   0.713   5.413   8.398  0.4659  0.5650 -0.6021
  834TIP3    H124061   0.624   5.421   8.362  0.5492  0.6403 -0.7954
  834TIP3    H224062   0.700   5.376   8.485  0.2714  0.1838 -0.7869
  835TIP3   OH224063   2.589   4.079   8.757  0.1440 -0.0106 -0.5297
  835TIP3    H124064   2.663   4.039   8.802  1.2901  1.7932 -0.7229
  835TIP3    H224065   2.627   4.120   8.679 -1.2862 -0.2168 -1.3780
  836TIP3   OH224066   3.175   6.206   8.404  0.5199  0.3986 -0.0820
  836TIP3    H124067   3.163   6.296   8.435  1.3427  0.8089 -0.9211
  836TIP3    H224068   3.103   6.192   8.343 -0.5301 -0.0765  1.2010
  837TIP3   OH224069   5.203   1.877   8.049  0.7617 -0.1238 -0.2101
  837TIP3    H124070   5.256   1.891   8.128  1.0945  4.3328 -0.9692
  837TIP3    H224071   5.113   1.883   8.080  0.8127 -0.9556  0.1370
  838TIP3   OH224072   6.004   3.826   0.003  0.4469  0.0399  0.2953
  838TIP3    H124073   5.958   3.754   0.045  1.3571 -1.5733 -1.3318
  838TIP3    H224074   6.097   3.805   0.013  0.7056 -0.2848 -2.1768
  839TIP3   OH224075   0.304   3.616   7.334  0.3434  0.2048  0.5154
  839TIP3    H124076   0.261   3.660   7.408  0.9485  0.2148  0.8675
  839TIP3    H224077   0.234   3.603   7.270 -0.4761 -0.8895  1.5723
  840TIP3   OH224078   5.473   6.055   8.153 -0.4673 -0.5900 -0.5732
  840TIP3    H124079   5.479   6.118   8.225  0.4928 -2.4295  1.0667
  840TIP3    H224080   5.393   6.079   8.107  0.4425  2.4910 -0.7512
  841TIP3   OH224081   0.966   4.591   7.560  0.1695 -0.6303 -0.2418
  841TIP3    H124082   1.038   4.556   7.507  0.7328  2.3824 -1.6414
  841TIP3    H224083   0.955   4.527   7.631  2.5900 -2.3945 -1.3350
  842TIP3   OH224084   1.861   4.864   8.484 -0.5538  0.1996 -0.0952
  842TIP3    H124085   1.896   4.822   8.563 -2.4229  2.2294  1.9630
  842TIP3    H224086   1.907   4.948   8.480 -1.1491  0.5045 -0.6405
  843TIP3   OH224087   3.373   4.377   8.749 -0.3942  0.7961 -0.1217
  843TIP3    H124088   3.367   4.396   8.842  0.6454  2.1982 -0.3149
  843TIP3    H224089   3.463   4.346   8.736 -0.8664 -0.4993 -0.4971
  844TIP3   OH224090   0.232   5.819   8.337  0.4075  0.0366  0.1646
  844TIP3    H124091   0.258   5.779   8.254  1.5594  0.0987  0.4829
  844TIP3    H224092   0.311   5.864   8.368  0.1756 -0.4964  1.5951
  845TIP3   OH224093   6.710   0.639   7.366  0.6808 -0.0564 -0.0620
  845TIP3    H124094   6.748   0.726   7.359 -0.6967  0.8896  2.5780
  845TIP3    H224095   6.700   0.626   7.461  0.8336 -3.1098 -0.3718
  846TIP3   OH224096   4.407   4.463   0.603  0.1262 -0.8379  0.1234
  846TIP3    H124097   4.422   4.463   0.698  1.5723  1.8830 -0.0052
  846TIP3    H224098   4.471   4.401   0.568  1.7354  0.3954  0.7438
  847TIP3   OH224099   1.714   6.682   2.011 -0.1633 -0.0847  0.5624
  847TIP3    H124100   1.789   6.649   2.060  0.8906 -0.6296 -1.3151
  847TIP3    H224101   1.679   6.753   2.065  1.7269  0.2061  1.4895
  848TIP3   OH224102   0.861   5.274   0.218  0.0667 -0.1359  0.2793
  848TIP3    H124103   0.900   5.338   0.158  0.9881  0.8922  1.8978
  848TIP3    H224104   0.778   5.313   0.244 -0.7582 -0.9919 -0.9428
  849TIP3   OH224105   5.869   5.759   0.319  0.8449 -0.0157 -0.2587
  849TIP3    H124106   5.800   5.748   0.254  0.4003  1.3496 -0.0532
  849TIP3    H224107   5.911   5.842   0.296  0.3169  0.7844  1.4836
  850TIP3   OH224108   0.035   5.624   7.406 -0.4124  0.2028  0.6519
  850TIP3    H124109   0.018   5.543   7.358  1.0859  1.0209 -1.3966
  850TIP3    H224110   0.099   5.670   7.352  0.1491  1.9310  2.6920
  851TIP3   OH224111   0.251   5.703   6.396 -0.5186 -0.7943 -0.0353
  851TIP3    H124112   0.303   5.778   6.367 -0.1809 -1.4037 -1.0480
  851TIP3    H224113   0.305   5.627   6.375 -1.0382 -1.3481  0.5956
  852TIP3   OH224114   4.162   2.702   0.261 -0.2285  0.0962 -0.1436
  852TIP3    H124115   4.199   2.614   0.274 -0.7058  0.0337  0.8215
  852TIP3    H224116   4.159   2.712   0.165  0.4707 -0.6613 -0.2572
  853TIP3   OH224117   6.626   1.016   1.403  0.2569 -0.2378 -0.3846
  853TIP3    H124118   6.586   1.033   1.489  2.7809 -1.6474  1.1808
  853TIP3    H224119   6.568   1.060   1.341 -1.7747  0.7016  2.0062
  854TIP3   OH224120   2.316   6.460   7.903  0.1988 -0.6065  0.2287
  854TIP3    H124121   2.252   6.437   7.970 -0.6665 -1.3313 -0.8186
  854TIP3    H224122   2.392   6.406   7.924 -0.4590 -1.6537  0.0139
  855TIP3   OH224123   4.326   5.136   7.014 -0.9814  0.2810  0.0421
  855TIP3    H124124   4.255   5.084   7.052 -0.2129 -0.3459  0.6580
  855TIP3    H224125   4.305   5.226   7.040 -1.1326  0.0095  0.9014
  856TIP3   OH224126   0.233   4.652   8.842  0.1148 -0.3705 -0.4294
  856TIP3    H124127   0.168   4.615   8.784  1.0043  1.3264 -2.6383
  856TIP3    H224128   0.183   4.698   8.909 -0.9539 -0.4189 -1.1800
  857TIP3   OH224129   1.697   0.170   1.175  0.8928  0.3635 -0.4798
  857TIP3    H124130   1.643   0.248   1.164  3.2563  2.1760 -0.1039
  857TIP3    H224131   1.739   0.182   1.261  0.7682 -1.7261 -0.0697
  858TIP3   OH224132   5.400   3.685   0.562 -0.0727 -0.0515  0.5840
  858TIP3    H124133   5.307   3.681   0.539  0.0543  0.9596 -0.1919
  858TIP3    H224134   5.429   3.594   0.558 -0.3295 -0.1140 -2.3348
  859TIP3   OH224135   6.414   0.050   8.052 -0.0869 -0.0940  0.1339
  859TIP3    H124136   6.468   0.094   7.986 -0.2891 -1.2906 -0.8577
  859TIP3    H224137   6.332   0.099   8.052  0.2484  0.4806  0.1712
  860TIP3   OH224138   5.205   1.482   1.151  0.3277  0.3948 -0.3253
  860TIP3    H124139   5.281   1.425   1.165 -0.3885 -0.5087 -0.0339
  860TIP3    H224140   5.134   1.439   1.199 -0.3649  1.2457 -0.5707
  861TIP3   OH224141   4.573   4.620   1.719  0.7695 -0.0796  0.1224
  861TIP3    H124142   4.549   4.570   1.797 -0.9385  1.1205  0.4268
  861TIP3    H224143   4.494   4.622   1.666  1.6685 -0.1732 -1.2691
  862TIP3   OH224144   5.912   5.635   8.613 -0.4213  0.5690  0.1790
  862TIP3    H124145   5.905   5.715   8.560 -3.7876 -0.2394 -0.8199
  862TIP3    H224146   5.872   5.659   8.697 -4.0062 -0.6166 -1.0252
  863TIP3   OH224147   5.050   6.118   0.197 -0.3780 -0.0476  0.5497
  863TIP3    H124148   5.140   6.147   0.185 -0.7029  0.9688  0.4582
  863TIP3    H224149   5.029   6.072   0.115 -0.1895  0.3733  0.2642
  864TIP3   OH224150   1.873   2.882   7.256  0.8477 -0.2673 -0.0866
  864TIP3    H124151   1.884   2.854   7.346 -1.1049  1.0851  0.6655
  864TIP3    H224152   1.841   2.804   7.210 -0.2647 -0.4474  0.9300
  865TIP3   OH224153   0.470   1.407   7.585 -0.7752  0.2262  0.2172
  865TIP3    H124154   0.529   1.356   7.641 -1.7557 -1.2467 -0.0066
  865TIP3    H224155   0.407   1.342   7.553 -0.4733  1.1034 -2.3051
  866TIP3   OH224156   5.378   4.376   7.597 -0.3628  1.0089  0.2398
  866TIP3    H124157   5.408   4.286   7.594  0.4373  1.3039 -1.4876
  866TIP3    H224158   5.301   4.377   7.540 -0.7703  1.2922  0.7838
  867TIP3   OH224159   6.002   5.498   7.687 -0.1582  0.0082  0.1500
  867TIP3    H124160   6.079   5.471   7.738 -2.3113  0.1888  3.8746
  867TIP3    H224161   6.016   5.591   7.670  1.4880 -0.4668 -1.5116
  868TIP3   OH224162   5.184   0.573   0.631  0.2772  0.0657 -0.0341
  868TIP3    H124163   5.258   0.553   0.573  1.3529  1.5394  0.7557
  868TIP3    H224164   5.179   0.498   0.690  0.6406 -0.3951 -0.5743
  869TIP3   OH224165   2.596   5.247   0.808 -0.6287  0.1656 -0.2659
  869TIP3    H124166   2.630   5.286   0.727 -0.0650  0.3755  0.0684
  869TIP3    H224167   2.672   5.241   0.866 -0.9654 -0.2693  0.1425
  870TIP3   OH224168   4.749   1.482   0.589 -0.0793 -0.3965 -0.2215
  870TIP3    H124169   4.760   1.568   0.549  0.5271 -0.0752  0.6167
  870TIP3    H224170   4.804   1.484   0.666  0.1022 -1.6162 -0.2986
  871TIP3   OH224171   1.557   5.297   8.065  0.4251 -0.3809  0.4287
  871TIP3    H124172   1.594   5.301   8.153  0.6834 -1.7713  0.4002
  871TIP3    H224173   1.525   5.208   8.057 -0.9024  0.1504 -0.3799
  872TIP3   OH224174   6.646   6.118   7.056  0.2219  0.1685 -0.7013
  872TIP3    H124175   6.570   6.068   7.084 -0.5846  1.6548 -0.0939
  872TIP3    H224176   6.700   6.125   7.134  0.0114  0.7689 -0.6016
  873TIP3   OH224177   5.283   5.648   7.691 -0.0295  0.1776  0.0403
  873TIP3    H124178   5.339   5.726   7.696  1.5323 -0.8657 -0.7306
  873TIP3    H224179   5.323   5.586   7.751 -0.9722 -0.2545  0.2470
  874TIP3   OH224180   2.041   1.483   1.813  0.7053  0.2506 -0.0891
  874TIP3    H124181   2.035   1.543   1.739  1.5957 -1.5320 -1.7166
  874TIP3    H224182   1.964   1.426   1.805 -0.6186  1.6089  1.9496
  875TIP3   OH224183   1.052   5.391   7.289 -0.2558  0.3023  0.5360
  875TIP3    H124184   1.015   5.304   7.272  0.9592 -0.3156  0.9422
  875TIP3    H224185   1.072   5.391   7.382 -0.3407  1.0565  0.5574
  876TIP3   OH224186   6.451   1.286   1.815  0.0600  0.2451 -0.0887
  876TIP3    H124187   6.482   1.367   1.775 -2.0627  0.5441 -1.3041
  876TIP3    H224188   6.521   1.223   1.801  1.1932  1.5212 -0.3003
  877TIP3   OH224189   0.272   0.428   6.735  0.0604 -0.4323  0.5755
  877TIP3    H124190   0.253   0.469   6.819  0.4828 -1.4615  1.1884
  877TIP3    H224191   0.360   0.458   6.713 -0.1430  0.0262  0.3825
  878TIP3   OH224192   3.243   1.004   8.111 -0.8649 -0.2366  0.2206
  878TIP3    H124193   3.191   1.060   8.169 -1.4625  1.2190 -1.6220
  878TIP3    H224194   3.333   1.016   8.142 -0.9346  1.9741 -0.2073
  879TIP3   OH224195   3.960   1.920   7.994 -0.4542 -0.1318  0.0945
  879TIP3    H124196   3.867   1.921   8.016 -0.7894 -0.5044 -1.2386
  879TIP3    H224197   4.003   1.887   8.073 -1.3199  1.1656  1.1409
  880TIP3   OH224198   5.607   4.544   0.577  0.2377  0.2527 -0.1173
  880TIP3    H124199   5.658   4.594   0.640 -0.9442 -0.6960  1.6771
  880TIP3    H224200   5.525   4.592   0.570 -0.0781 -0.2586 -0.0187
  881TIP3   OH224201   0.081   5.598   7.679  0.1776  0.3664  0.0566
  881TIP3    H124202   0.067   5.603   7.585  0.0754  1.2515  0.1089
  881TIP3    H224203   0.048   5.682   7.713 -0.5901 -0.2767  0.9799
  882TIP3   OH224204   1.143   1.398   0.686  0.3910 -0.2838  0.1176
  882TIP3    H124205   1.156   1.492   0.697  0.7533 -0.2788 -0.2979
  882TIP3    H224206   1.141   1.385   0.591 -0.5571 -0.5803  0.1721
  883TIP3   OH224207   1.461   3.725   6.755  0.5091  0.4427 -0.7096
  883TIP3    H124208   1.532   3.664   6.734  0.6175  0.6723 -1.0177
  883TIP3    H224209   1.476   3.800   6.698  0.1183  0.5697 -0.6503
  884TIP3   OH224210   1.640   1.081   7.743  0.3491 -0.1670 -0.3451
  884TIP3    H124211   1.613   1.172   7.731  1.2429 -0.2445 -4.2118
  884TIP3    H224212   1.561   1.030   7.723  0.8983 -0.2329 -2.5703
  885TIP3   OH224213   0.055   0.828   8.306 -0.3906 -0.0447  0.1556
  885TIP3    H124214   0.129   0.879   8.337 -0.3411  0.4334 -0.7272
  885TIP3    H224215   0.032   0.867   8.221 -1.9880  0.1627  0.6516
  886TIP3   OH224216   0.442   4.607   7.757  0.3052  0.0609 -0.0197
  886TIP3    H124217   0.446   4.631   7.665  2.2580  1.6010  0.3832
  886TIP3    H224218   0.473   4.686   7.803  2.0996 -1.5603  1.7510
  887TIP3   OH224219   3.390   4.311   7.619  0.5026  0.4406  0.1714
  887TIP3    H124220   3.401   4.397   7.659 -0.1728  0.2842  0.7103
  887TIP3    H224221   3.302   4.284   7.644  0.8474 -0.5705  0.3277
  888TIP3   OH224222   6.207   0.233   8.297  0.0389  0.6071 -0.5683
  888TIP3    H124223   6.167   0.210   8.213  0.9253 -0.3611 -0.7564
  888TIP3    H224224   6.239   0.150   8.332  1.9441  1.3271 -0.4813
  889TIP3   OH224225   3.739   1.127   6.439 -0.1478 -0.1338  0.0439
  889TIP3    H124226   3.647   1.126   6.411 -0.1631 -0.3401  0.1013
  889TIP3    H224227   3.779   1.196   6.387  0.0109 -1.0370 -1.0736
  890TIP3   OH224228   1.519   5.144   6.341  0.4017  0.5436 -0.0536
  890TIP3    H124229   1.520   5.075   6.407  2.0153  1.3829  0.8582
  890TIP3    H224230   1.436   5.131   6.294 -1.1398  0.2984  2.5260
  891TIP3   OH224231   4.301   5.601   6.191  0.1413  0.7953  0.1864
  891TIP3    H124232   4.281   5.560   6.275  0.5664 -1.6634 -0.8135
  891TIP3    H224233   4.377   5.656   6.208  1.6633 -1.4082  1.0314
  892TIP3   OH224234   0.707   6.336   6.522  0.1542 -0.4945  0.5057
  892TIP3    H124235   0.624   6.366   6.484 -0.9597 -2.6909  1.0183
  892TIP3    H224236   0.702   6.360   6.614 -0.6946 -2.0285  0.8950
  893TIP3   OH224237   6.701   2.418   5.907  0.5789  0.1716  0.3032
  893TIP3    H124238   6.676   2.465   5.987 -0.6267  1.2602 -0.6759
  893TIP3    H224239   6.780   2.464   5.877  1.1724 -0.3872  0.9646
  894TIP3   OH224240   1.600   5.559   1.104 -0.3204 -0.0184  0.9079
  894TIP3    H124241   1.691   5.583   1.122  0.1900 -2.5447  2.1869
  894TIP3    H224242   1.587   5.579   1.012  1.9661 -0.7470  0.3796
  895TIP3   OH224243   2.960   5.842   0.849 -0.3116  0.4690 -0.0363
  895TIP3    H124244   2.968   5.818   0.941 -1.7899  0.6915  0.1880
  895TIP3    H224245   2.865   5.855   0.836 -0.3214 -1.0967 -1.9682
  896TIP3   OH224246   5.477   0.679   8.275 -0.4691 -0.1466 -0.0490
  896TIP3    H124247   5.531   0.602   8.258 -0.5502 -0.0639 -0.7243
  896TIP3    H224248   5.410   0.648   8.335 -0.6931 -0.6962 -0.5657
  897TIP3   OH224249   3.127   4.951   6.408  0.4294  0.2683 -0.0452
  897TIP3    H124250   3.090   4.940   6.320  1.0230  0.5124 -0.3301
  897TIP3    H224251   3.078   4.890   6.463  0.8389 -0.7439 -0.7731
  898TIP3   OH224252   6.195   3.334   7.485  0.1477 -0.2419  0.2093
  898TIP3    H124253   6.233   3.372   7.563  2.4042 -3.6328  0.9701
  898TIP3    H224254   6.249   3.366   7.413 -1.7828  2.6863 -0.0939
  899TIP3   OH224255   6.215   3.222   7.160  0.3050 -0.5942 -0.1688
  899TIP3    H124256   6.145   3.158   7.166  1.0080 -1.3078  0.8488
  899TIP3    H224257   6.284   3.187   7.217  0.6750  1.0929  0.4881
  900TIP3   OH224258   5.869   2.070   1.416  0.1371  0.7772  0.3396
  900TIP3    H124259   5.935   2.075   1.485 -1.4214  0.2295  1.9352
  900TIP3    H224260   5.785   2.069   1.462 -1.2365  4.4058 -1.6426
  901TIP3   OH224261   3.725   0.054   8.551 -0.1812  0.5742 -0.3044
  901TIP3    H124262   3.657   0.032   8.615 -0.3436 -0.4792 -0.8040
  901TIP3    H224263   3.720   0.149   8.542 -0.2555  0.7216  1.1204
  902TIP3   OH224264   1.955   3.061   7.077 -0.2387  0.3086  0.3346
  902TIP3    H124265   1.981   3.141   7.123  0.5265  0.3542 -0.1606
  902TIP3    H224266   1.913   3.008   7.144  3.9304 -1.1811  2.0960
  903TIP3   OH224267   3.074   3.039   6.564  0.6408 -0.1269  0.3441
  903TIP3    H124268   3.047   2.962   6.515 -1.0714  0.7381 -0.1700
  903TIP3    H224269   3.098   3.006   6.650 -1.9313 -1.1010  0.7878
  904TIP3   OH224270   4.643   4.207   1.867 -0.2468 -0.3986  0.2621
  904TIP3    H124271   4.675   4.167   1.948  0.7876 -1.1885 -0.5165
  904TIP3    H224272   4.574   4.267   1.896 -0.0403 -0.8185  1.7041
  905TIP3   OH224273   0.887   4.942   0.924  0.2561 -0.2845 -0.3746
  905TIP3    H124274   0.928   4.859   0.950 -0.8577 -0.8796 -0.4495
  905TIP3    H224275   0.850   4.978   1.004 -0.4210 -0.5343 -0.5684
  906TIP3   OH224276   2.834   0.903   0.019  0.0114 -0.0551  0.1870
  906TIP3    H124277   2.742   0.929   0.019 -0.1998 -0.7854  0.2413
  906TIP3    H224278   2.865   0.926  -0.069 -0.4701 -0.6265 -0.1447
  907TIP3   OH224279   4.596   3.137   8.481  0.3942  0.2718 -0.0712
  907TIP3    H124280   4.571   3.175   8.397  3.6468 -1.7723 -2.2079
  907TIP3    H224281   4.541   3.059   8.489  0.7185 -0.0534 -0.8559
  908TIP3   OH224282   4.705   1.372   1.781  0.2557  0.2015  0.4060
  908TIP3    H124283   4.746   1.397   1.863 -1.8144  0.2686  1.4886
  908TIP3    H224284   4.635   1.436   1.768 -1.6230 -1.7379  0.3972
  909TIP3   OH224285   1.463   4.004   6.446  0.0568  0.2717  0.0182
  909TIP3    H124286   1.543   3.958   6.468  0.3237  0.1869 -1.0728
  909TIP3    H224287   1.393   3.941   6.463  0.0856  0.7826  2.2274
  910TIP3   OH224288   1.405   1.711   6.779 -0.4115  0.1243 -0.4074
  910TIP3    H124289   1.444   1.715   6.691 -0.6153  1.2034 -0.4685
  910TIP3    H224290   1.334   1.775   6.777 -0.9252 -0.4011  0.3145
  911TIP3   OH224291   1.352   4.782   8.013 -0.2851 -0.1917  0.0350
  911TIP3    H124292   1.405   4.749   7.941 -1.4429 -0.5526 -0.6739
  911TIP3    H224293   1.264   4.791   7.977 -0.4398  1.8077  0.7761
  912TIP3   OH224294   4.024   4.470   1.292 -0.1029 -0.0586  0.0617
  912TIP3    H124295   3.940   4.510   1.267 -0.2728  0.1137  0.8639
  912TIP3    H224296   4.004   4.423   1.374  0.1189 -1.6998 -0.7805
  913TIP3   OH224297   2.743   5.836   0.531  0.3295 -0.4366 -0.0412
  913TIP3    H124298   2.753   5.927   0.558  3.6976 -0.8134  0.4463
  913TIP3    H224299   2.792   5.830   0.449  2.3947 -2.2303  1.2063
  914TIP3   OH224300   1.202   0.163   8.645  0.2350  0.0885 -0.0565
  914TIP3    H124301   1.279   0.146   8.699 -0.5472  1.7187  1.7043
  914TIP3    H224302   1.138   0.202   8.705 -1.6941 -0.4581 -1.6196
  915TIP3   OH224303   3.547   1.419   2.187  0.4776  0.7066 -0.8569
  915TIP3    H124304   3.631   1.423   2.232 -0.8462 -0.0477  1.8977
  915TIP3    H224305   3.540   1.329   2.155  0.5999  0.6857 -0.8237
  916TIP3   OH224306   3.582   4.074   1.611  0.1145 -0.2976  0.6284
  916TIP3    H124307   3.528   4.150   1.590  1.2063  0.6427  1.1423
  916TIP3    H224308   3.659   4.110   1.655  1.3462 -1.5524 -0.3920
  917TIP3   OH224309   4.089   1.125   1.195  0.5145  0.5113  0.1664
  917TIP3    H124310   4.011   1.100   1.245  0.5711  1.7232  0.8875
  917TIP3    H224311   4.059   1.127   1.104 -0.5307  1.7989  0.5178
  918TIP3   OH224312   4.399   1.317   0.404 -0.4881 -0.1327 -0.1163
  918TIP3    H124313   4.313   1.302   0.441 -0.6168  1.3841  0.2936
  918TIP3    H224314   4.449   1.359   0.475  1.0594 -2.2345  0.1310
  919TIP3   OH224315   1.209   2.680   6.953  0.1641 -0.3680 -0.5719
  919TIP3    H124316   1.186   2.590   6.931  2.6194 -1.4964  1.1140
  919TIP3    H224317   1.264   2.709   6.880 -1.2674  0.0977 -1.5015
  920TIP3   OH224318   5.147   5.381   7.305  0.1596  0.8689  0.2293
  920TIP3    H124319   5.117   5.468   7.330 -0.5094  1.4896 -2.4253
  920TIP3    H224320   5.242   5.385   7.311  0.0653  1.0482  2.1703
  921TIP3   OH224321   2.528   6.209   7.414 -0.1912 -0.5133  0.0904
  921TIP3    H124322   2.542   6.280   7.352 -1.4675  0.8179  1.2378
  921TIP3    H224323   2.443   6.229   7.455  0.1472 -1.8494  1.5602
  922TIP3   OH224324   2.694   3.921   6.564  0.2358  0.1287 -0.1884
  922TIP3    H124325   2.638   3.968   6.502 -0.4041  0.8858  0.9253
  922TIP3    H224326   2.632   3.882   6.626  0.7337 -2.2219 -1.0471
  923TIP3   OH224327   6.405   0.443   8.224  0.5298  0.4997 -0.1967
  923TIP3    H124328   6.413   0.431   8.130  0.9141 -0.2988 -0.0643
  923TIP3    H224329   6.317   0.413   8.245  1.1618 -1.3377 -0.0054
  924TIP3   OH224330   5.747   1.682   1.150 -0.3034 -0.3328 -0.1838
  924TIP3    H124331   5.769   1.612   1.088  1.2921 -0.2135  0.1880
  924TIP3    H224332   5.826   1.736   1.154 -1.0069  0.6771  0.6202
  925TIP3   OH224333   0.232   3.302   6.904 -0.3103  0.1125 -0.3639
  925TIP3    H124334   0.251   3.330   6.994  3.0375 -1.7025 -0.3590
  925TIP3    H224335   0.167   3.232   6.915 -0.8389  0.7015  0.4800
  926TIP3   OH224336   6.548   1.887   0.093 -0.3366 -0.6439 -0.8062
  926TIP3    H124337   6.606   1.927   0.158 -2.0868 -0.4807  0.7492
  926TIP3    H224338   6.562   1.793   0.104 -1.7439 -0.7176  1.0553
  927TIP3   OH224339   6.459   4.223   1.367 -0.2169  0.0407  0.1385
  927TIP3    H124340   6.465   4.135   1.329  0.7678  0.4293 -0.6542
  927TIP3    H224341   6.508   4.218   1.449 -0.9476 -0.3765  0.5607
  928TIP3   OH224342   0.378   5.855   1.733  0.5307  0.4884  0.0968
  928TIP3    H124343   0.451   5.795   1.723  1.0787  0.7783  1.9817
  928TIP3    H224344   0.410   5.923   1.793 -1.0219  1.0280  0.3722
  929TIP3   OH224345   4.745   1.811   1.655 -0.0976  0.1963 -0.1004
  929TIP3    H124346   4.829   1.767   1.664 -0.1797  0.2996  1.3560
  929TIP3    H224347   4.710   1.779   1.572  1.4839  0.3709 -0.8569
  930TIP3   OH224348   6.714   6.320   8.612  0.5178  0.0357 -0.2451
  930TIP3    H124349   6.711   6.412   8.639  0.7493 -0.1290  0.3580
  930TIP3    H224350   6.802   6.291   8.636  0.3213 -0.4428 -0.0934
  931TIP3   OH224351   4.622   0.560   7.762 -0.3826  0.3417  0.8525
  931TIP3    H124352   4.713   0.589   7.752 -0.6604  0.7564 -0.7120
  931TIP3    H224353   4.614   0.486   7.702 -1.2927  0.8303  0.3602
  932TIP3   OH224354   3.401   5.563   1.407 -0.1168  0.4385 -0.0992
  932TIP3    H124355   3.437   5.492   1.460  2.0742  1.0227 -0.6910
  932TIP3    H224356   3.347   5.520   1.341  0.3933 -0.5949  0.1470
  933TIP3   OH224357   0.616   0.274   2.353  0.1603 -0.4739 -0.2232
  933TIP3    H124358   0.586   0.364   2.340  0.8501 -0.4159 -1.6243
  933TIP3    H224359   0.541   0.229   2.391 -0.3749  0.5597 -0.0076
  934TIP3   OH224360   4.125   0.647   7.097  0.9464  0.4563  0.1911
  934TIP3    H124361   4.046   0.698   7.079  1.1056  1.2658  1.6384
  934TIP3    H224362   4.147   0.606   7.013 -0.7181  0.6135 -0.3473
  935TIP3   OH224363   1.772   0.248   0.177 -0.2465 -0.3095 -0.0816
  935TIP3    H124364   1.723   0.183   0.227  3.3229 -2.3060  1.2015
  935TIP3    H224365   1.784   0.321   0.238 -2.0875  0.5644 -0.6731
  936TIP3   OH224366   0.733   6.635   7.397 -0.4752  0.1241  0.1879
  936TIP3    H124367   0.779   6.674   7.323 -0.9582  1.8340  0.7425
  936TIP3    H224368   0.693   6.555   7.361 -0.4432  0.7563 -1.3156
  937TIP3   OH224369   1.454   2.480   6.907 -0.1071  0.2312 -0.4425
  937TIP3    H124370   1.449   2.464   6.813  1.6177 -0.5968 -0.4376
  937TIP3    H224371   1.429   2.572   6.916  0.8316  0.6683 -1.8706
  938TIP3   OH224372   4.996   0.656   0.385 -0.4925 -0.3213 -0.2946
  938TIP3    H124373   4.946   0.716   0.330  1.0240  2.2452  0.9709
  938TIP3    H224374   4.948   0.654   0.468  0.5570  0.8641  0.3714
  939TIP3   OH224375   5.921   6.016   8.785  0.3925  1.0576  0.0348
  939TIP3    H124376   5.880   6.093   8.824  1.0157  1.5600 -0.2765
  939TIP3    H224377   5.852   5.950   8.784  0.2252  1.1733  1.5454
  940TIP3   OH224378   3.689   3.495   8.402 -0.4078  0.1332  0.8859
  940TIP3    H124379   3.598   3.509   8.427 -1.1850 -0.9156 -1.1029
  940TIP3    H224380   3.735   3.572   8.434 -2.3629  1.6489  0.2216
  941TIP3   OH224381   5.406   4.733   8.252  0.1974 -0.5341  0.6328
  941TIP3    H124382   5.343   4.694   8.190 -0.8640 -1.3657  2.1766
  941TIP3    H224383   5.492   4.718   8.211 -0.3981 -2.0337 -0.1544
  942TIP3   OH224384   5.683   6.038   7.310 -0.5187 -0.2627 -0.1068
  942TIP3    H124385   5.698   5.983   7.233 -0.2781 -0.1135 -0.1674
  942TIP3    H224386   5.725   5.991   7.382  0.5778  0.3249 -0.3382
  943TIP3   OH224387   2.018   5.991   7.756 -0.0978  0.7941  0.5172
  943TIP3    H124388   2.014   6.070   7.811  0.6909  0.7470  0.6539
  943TIP3    H224389   2.016   6.024   7.666 -0.7635  0.9085  0.5688
  944TIP3   OH224390   4.264   4.555   7.801 -0.4865 -0.1859 -0.0177
  944TIP3    H124391   4.340   4.517   7.847  1.4095  0.2440 -2.5501
  944TIP3    H224392   4.254   4.641   7.840  0.8179  0.0219 -0.0676
  945TIP3   OH224393   5.217   0.725   6.906 -0.0138 -0.1630 -0.0571
  945TIP3    H124394   5.141   0.729   6.964  0.0558  0.8995 -0.0202
  945TIP3    H224395   5.186   0.765   6.824  0.5326  0.3411 -0.0157
  946TIP3   OH224396   5.513   1.592   8.502  0.4372  0.2802 -0.4703
  946TIP3    H124397   5.423   1.573   8.530  0.0062  0.8022 -1.4732
  946TIP3    H224398   5.533   1.677   8.541  0.4066  0.2839 -0.4626
  947TIP3   OH224399   3.791   3.147   1.802  0.0900 -0.0690 -0.0864
  947TIP3    H124400   3.876   3.189   1.813 -0.5323  0.8946  1.3627
  947TIP3    H224401   3.738   3.180   1.874 -1.2870 -1.2557 -0.4952
  948TIP3   OH224402   6.775   0.525   6.732 -0.3163 -0.3519 -0.0637
  948TIP3    H124403   6.709   0.518   6.801 -1.1201  0.4822 -0.7259
  948TIP3    H224404   6.795   0.434   6.710 -0.1784 -0.6303  1.1323
  949TIP3   OH224405   2.582   4.356   7.451  0.1042 -0.0542 -0.0966
  949TIP3    H124406   2.592   4.428   7.513  0.2155 -2.9025  3.5234
  949TIP3    H224407   2.638   4.380   7.377  3.1685  1.8470  2.6041
  950TIP3   OH224408   2.478   2.317   8.163 -0.0810  0.0612 -0.5574
  950TIP3    H124409   2.457   2.280   8.249  2.4677  1.6745  0.8973
  950TIP3    H224410   2.466   2.411   8.174  0.8685  0.3527 -1.7533
  951TIP3   OH224411   4.757   4.623   7.309  0.7766 -0.2230  0.4475
  951TIP3    H124412   4.839   4.668   7.286 -0.2358  0.8561 -1.2748
  951TIP3    H224413   4.754   4.548   7.250  0.5670 -0.3068  0.5656
  952TIP3   OH224414   0.595   2.584   6.975 -0.2250 -0.0912  0.3151
  952TIP3    H124415   0.546   2.634   6.909  0.3094  2.0843  1.4764
  952TIP3    H224416   0.575   2.628   7.058 -0.8505 -2.7254  1.6699
  953TIP3   OH224417   4.777   4.812   7.540  0.4400  0.2081  0.1786
  953TIP3    H124418   4.863   4.852   7.527  1.5890 -1.1304  2.9337
  953TIP3    H224419   4.771   4.744   7.474  2.2905 -0.7826  0.9568
  954TIP3   OH224420   6.108   2.545   8.155 -0.1205 -0.2207  0.1310
  954TIP3    H124421   6.096   2.457   8.190  0.0748 -0.4171 -0.2874
  954TIP3    H224422   6.020   2.580   8.145 -0.1608  0.4639  2.3487
  955TIP3   OH224423   5.767   1.264   7.778 -0.0304 -0.1939  0.1282
  955TIP3    H124424   5.854   1.283   7.815  0.0530 -0.9805  0.3436
  955TIP3    H224425   5.780   1.271   7.684  0.0268  0.6673  0.1851
  956TIP3   OH224426   4.380   1.879   6.410  0.0009 -0.4975 -0.1786
  956TIP3    H124427   4.468   1.914   6.401  0.0501 -0.4613  0.4159
  956TIP3    H224428   4.325   1.956   6.426  0.3770 -0.7602  3.1420
  957TIP3   OH224429   2.763   3.451   6.293  0.0470  0.4685  0.0245
  957TIP3    H124430   2.697   3.433   6.226  0.6338 -1.1878 -0.1689
  957TIP3    H224431   2.737   3.396   6.367  1.5190 -0.7544 -0.2965
  958TIP3   OH224432   1.834   6.380   7.750  0.7977  0.0649 -0.3003
  958TIP3    H124433   1.756   6.432   7.729  0.4632 -0.5561 -0.6042
  958TIP3    H224434   1.837   6.313   7.682  2.5261  1.0684 -1.2605
  959TIP3   OH224435   4.286   2.801   6.533  0.5811  0.0751  0.5660
  959TIP3    H124436   4.192   2.783   6.529  0.3854  0.8183  1.6376
  959TIP3    H224437   4.294   2.894   6.511  1.1404 -0.1187 -0.1265
  960TIP3   OH224438   4.889   1.708   0.454  0.2837  0.0790  0.6746
  960TIP3    H124439   4.863   1.735   0.366  0.0497  0.1434  0.7615
  960TIP3    H224440   4.985   1.705   0.451  0.4473  2.5499  1.1189
  961TIP3   OH224441   0.305   1.683   1.455  0.1448  0.2456  0.2849
  961TIP3    H124442   0.282   1.594   1.481 -2.3689  0.8252  0.3324
  961TIP3    H224443   0.230   1.713   1.404  0.2073  2.8523  1.5524
  962TIP3   OH224444   2.489   5.926   7.244 -0.1430 -0.3277  0.0214
  962TIP3    H124445   2.484   6.017   7.214  0.6703 -0.2568  0.0871
  962TIP3    H224446   2.572   5.893   7.208  1.0978 -0.1186  2.4778
  963TIP3   OH224447   2.431   6.229   0.879 -0.5149  0.3474 -0.5577
  963TIP3    H124448   2.488   6.212   0.804  0.7560  0.8559  0.2454
  963TIP3    H224449   2.477   6.298   0.928 -1.6080  0.4448  0.3700
  964TIP3   OH224450   4.565   2.354   8.726  0.0025 -0.3307  0.5888
  964TIP3    H124451   4.540   2.288   8.661  2.0092 -1.6524  1.0943
  964TIP3    H224452   4.530   2.321   8.809 -0.6791  0.2706  0.5574
  965TIP3   OH224453   6.139   1.758   8.630 -0.3919  0.3553  0.4826
  965TIP3    H124454   6.044   1.746   8.628 -0.4967  1.0688 -2.2139
  965TIP3    H224455   6.152   1.844   8.669 -0.7994  0.0123  1.3975
  966TIP3   OH224456   6.028   3.035   2.236 -0.0436 -0.4532 -0.2532
  966TIP3    H124457   5.975   2.987   2.299  1.0793 -0.6528  0.5781
  966TIP3    H224458   5.980   3.029   2.154 -1.0005 -1.1167  0.3407
  967TIP3   OH224459   5.872   3.858   7.208 -0.1034  0.1003  0.3085
  967TIP3    H124460   5.966   3.841   7.212  0.0689  0.5903 -1.3004
  967TIP3    H224461   5.835   3.801   7.277  1.3306 -0.2102  0.8542
  968TIP3   OH224462   1.634   5.965   0.840 -0.5102  0.2099 -0.1459
  968TIP3    H124463   1.649   6.058   0.856 -2.2030  0.5224 -0.1961
  968TIP3    H224464   1.584   5.963   0.758  0.4693 -0.8255 -0.7415
  969TIP3   OH224465   0.891   5.788   7.606  0.6518  0.8469 -0.2096
  969TIP3    H124466   0.816   5.822   7.654 -0.6095  1.0197 -2.1994
  969TIP3    H224467   0.873   5.694   7.597  1.1934  0.6991  0.1441
  970TIP3   OH224468   3.241   5.590   8.108  0.0932  0.1667 -0.2568
  970TIP3    H124469   3.195   5.506   8.110 -0.7256  0.6009 -0.3745
  970TIP3    H224470   3.302   5.581   8.035  0.2370 -0.4338 -0.0742
  971TIP3   OH224471   1.510   2.353   0.998  0.1228  0.0856  0.8078
  971TIP3    H124472   1.508   2.277   0.939 -1.8718 -1.9266  3.2180
  971TIP3    H224473   1.603   2.367   1.016  0.7179  0.0008 -1.7312
  972TIP3   OH224474   4.757   6.412   7.666 -0.6145 -0.4569  0.0824
  972TIP3    H124475   4.711   6.385   7.745 -1.1265 -0.0776 -0.0826
  972TIP3    H224476   4.779   6.330   7.622  0.7227 -0.7352  1.1863
  973TIP3   OH224477   6.162   0.073   1.507 -0.0533  0.5158  0.3750
  973TIP3    H124478   6.142   0.039   1.594  2.0345  1.4265  1.2857
  973TIP3    H224479   6.077   0.088   1.467 -1.0601 -0.4092  2.0620
  974TIP3   OH224480   1.060   6.013   7.874  0.1559  0.3777  0.6703
  974TIP3    H124481   0.992   6.048   7.932  0.1250 -0.2087  1.0000
  974TIP3    H224482   1.121   5.969   7.933  1.1168  1.3630  0.4267
  975TIP3   OH224483   4.145   0.588   0.925 -0.7428  0.2101  0.4296
  975TIP3    H124484   4.097   0.575   1.007 -1.7130 -0.3632 -0.2179
  975TIP3    H224485   4.196   0.668   0.940  0.3273 -0.7379  2.1639
  976TIP3   OH224486   5.141   3.972   2.285  0.6834 -0.0107 -0.1224
  976TIP3    H124487   5.140   4.036   2.356 -0.6227  1.6850 -1.5747
  976TIP3    H224488   5.195   4.012   2.217 -1.8986  0.6961 -1.9301
  977TIP3   OH224489   4.694   1.379   7.602 -0.1432  0.0754 -0.1320
  977TIP3    H124490   4.769   1.409   7.652 -0.5174 -1.1791  1.2578
  977TIP3    H224491   4.710   1.410   7.513  1.6362  0.4711  0.2985
  978TIP3   OH224492   3.812   3.629   1.053  0.2300  0.2742  0.2215
  978TIP3    H124493   3.722   3.633   1.018 -0.3978  2.2436  1.8831
  978TIP3    H224494   3.803   3.581   1.135  0.8594 -0.1895  0.0251
  979TIP3   OH224495   0.586   0.483   0.475  0.2933  0.4449  0.0218
  979TIP3    H124496   0.505   0.532   0.485 -0.3140 -0.4071 -0.5988
  979TIP3    H224497   0.655   0.550   0.477 -0.4982  1.3058 -0.6624
  980TIP3   OH224498   0.768   1.982   1.502 -0.5325  0.1673  0.2515
  980TIP3    H124499   0.760   1.944   1.415 -0.8208  0.0018  0.3486
  980TIP3    H224500   0.859   2.009   1.508  0.2220 -2.2751  0.9018
  981TIP3   OH224501   1.209   6.551   8.103 -0.0141 -0.0530 -0.2245
  981TIP3    H124502   1.224   6.505   8.185 -2.0298 -1.0495 -0.3706
  981TIP3    H224503   1.127   6.598   8.116  0.5914  1.2768 -1.0507
  982TIP3   OH224504   6.170   3.777   0.546  0.0830  0.0389 -0.4781
  982TIP3    H124505   6.141   3.819   0.627 -1.7163  0.4389 -1.2809
  982TIP3    H224506   6.172   3.684   0.568 -0.1683  0.1584  0.0930
  983TIP3   OH224507   4.786   3.512   1.325  0.6352  0.7592 -0.1074
  983TIP3    H124508   4.843   3.451   1.279  0.5894  0.3441  0.3838
  983TIP3    H224509   4.706   3.462   1.341  0.8973  0.6874  1.0076
  984TIP3   OH224510   1.643   4.771   0.584 -0.6369  0.0601  0.1614
  984TIP3    H124511   1.554   4.799   0.564 -0.2123  0.6554 -0.9667
  984TIP3    H224512   1.664   4.813   0.667 -1.9843 -1.4301  1.3345
  985TIP3   OH224513   1.060   3.004   0.276 -0.0293  0.1668 -0.8091
  985TIP3    H124514   1.043   2.939   0.207 -1.0860  0.0226 -0.4403
  985TIP3    H224515   1.120   3.066   0.237  0.8984 -0.9546 -1.2270
  986TIP3   OH224516   3.892   4.297   0.395  0.0682  0.2430 -0.2482
  986TIP3    H124517   3.808   4.264   0.365 -0.3912  1.7512 -0.6950
  986TIP3    H224518   3.872   4.381   0.437  1.3605  0.7127 -0.5027
  987TIP3   OH224519   0.774   0.378   2.157  0.4205  0.1636  0.1133
  987TIP3    H124520   0.724   0.339   2.229 -2.4055 -1.0757 -2.2967
  987TIP3    H224521   0.723   0.455   2.132  0.2533 -0.4939 -1.6954
  988TIP3   OH224522   3.898   3.306   7.759 -0.1132  0.2906 -0.4598
  988TIP3    H124523   3.886   3.260   7.843  0.0005 -0.6634 -0.9542
  988TIP3    H224524   3.981   3.353   7.770 -1.7378  3.0488  1.2237
  989TIP3   OH224525   6.550   1.617   7.736 -0.7657  0.0065  0.5136
  989TIP3    H124526   6.528   1.644   7.825  1.5082  1.1953  0.7941
  989TIP3    H224527   6.550   1.521   7.740  2.4137 -0.0798  2.8049
  990TIP3   OH224528   6.038   4.979   2.403 -0.1377  0.2907  0.1686
  990TIP3    H124529   5.948   4.978   2.371 -0.2748 -2.0028  0.4421
  990TIP3    H224530   6.052   5.069   2.432 -2.3114  0.7318  0.0448
  991TIP3   OH224531   5.117   0.229   7.071  0.5727  0.1795 -0.2188
  991TIP3    H124532   5.125   0.149   7.123  0.8241 -0.7684 -1.6797
  991TIP3    H224533   5.038   0.217   7.020  0.2463  1.1731  0.0245
  992TIP3   OH224534   2.892   2.946   7.493 -0.3185  0.0263 -0.3418
  992TIP3    H124535   2.912   3.040   7.487 -0.2153  0.0918  0.7678
  992TIP3    H224536   2.884   2.930   7.587 -0.5263 -1.0428 -0.5366
  993TIP3   OH224537   6.548   5.365   1.050  0.3255  0.1954 -0.4510
  993TIP3    H124538   6.468   5.318   1.073  1.6869 -1.9370  0.2065
  993TIP3    H224539   6.525   5.457   1.060 -1.9462 -0.3565  0.0252
  994TIP3   OH224540   2.652   3.246   7.082  0.4287  0.1153  0.3071
  994TIP3    H124541   2.728   3.188   7.073  0.2826 -0.0878  0.3557
  994TIP3    H224542   2.660   3.282   7.170  0.3341 -0.1056  0.4092
  995TIP3   OH224543   3.324   2.285   1.027  0.1451 -0.7806  0.3978
  995TIP3    H124544   3.364   2.304   1.112  0.6324 -2.4529  0.5814
  995TIP3    H224545   3.393   2.239   0.979 -0.2018 -0.0356 -0.8455
  996TIP3   OH224546   5.358   6.644   1.706 -0.3797 -0.0240  0.3134
  996TIP3    H124547   5.282   6.680   1.660  0.1616 -0.1410 -0.7031
  996TIP3    H224548   5.322   6.605   1.785 -1.1733  1.3795  0.6804
  997TIP3   OH224549   4.038   2.706   6.844 -0.0322 -0.1595 -0.4868
  997TIP3    H124550   4.020   2.620   6.806  1.7392 -0.8549  0.1431
  997TIP3    H224551   4.051   2.763   6.768 -0.7840 -0.5300 -0.9055
  998TIP3   OH224552   1.552   3.681   7.083 -0.0912  0.3992  0.2403
  998TIP3    H124553   1.532   3.632   7.163 -0.8184  0.1750 -0.0655
  998TIP3    H224554   1.471   3.676   7.032  0.1687  1.0469 -0.2479
  999TIP3   OH224555   2.412   3.149   1.002 -0.0956  0.4135 -0.3582
  999TIP3    H124556   2.381   3.146   0.912  0.1003 -1.0796 -0.3989
  999TIP3    H224557   2.448   3.061   1.018 -2.0584 -0.0882  1.8463
 1000TIP3   OH224558   1.998   2.549   8.716  0.5581  0.1763 -1.4105
 1000TIP3    H124559   2.019   2.637   8.685 -0.3372  1.0174  0.2416
 1000TIP3    H224560   2.081   2.513   8.747  0.4677  1.7935  1.0109
 1001TIP3   OH224561   3.991   3.888   1.660  0.7956 -0.0395 -0.2578
 1001TIP3    H124562   3.906   3.850   1.681  1.1407 -1.0357 -0.6027
 1001TIP3    H224563   3.970   3.972   1.619  0.0056  0.0351  0.2805
 1002TIP3   OH224564   2.942   6.134   1.292  0.3072  0.0603  0.2006
 1002TIP3    H124565   2.944   6.191   1.215  0.2768 -1.3052 -0.8541
 1002TIP3    H224566   3.017   6.076   1.281 -0.8288 -1.4654  0.1383
 1003TIP3   OH224567   0.048   5.423   8.459 -0.4270 -0.1104  0.5356
 1003TIP3    H124568   0.015   5.338   8.486 -0.7243  0.6938  2.8911
 1003TIP3    H224569   0.062   5.414   8.364  0.1411 -2.9342  0.7973
 1004TIP3   OH224570   0.206   0.800   1.208  0.0548 -0.0905  0.0314
 1004TIP3    H124571   0.143   0.793   1.279  0.7435 -1.8976  0.5248
 1004TIP3    H224572   0.273   0.860   1.241 -0.8919  1.1064 -0.1376
 1005TIP3   OH224573   2.441   5.558   1.411 -0.6589 -0.6208 -0.1792
 1005TIP3    H124574   2.437   5.531   1.319 -1.8048 -1.3930  0.0844
 1005TIP3    H224575   2.436   5.477   1.461  1.3778 -0.3422  0.5906
 1006TIP3   OH224576   4.000   5.811   1.385  0.1841  0.4561 -0.2524
 1006TIP3    H124577   3.945   5.806   1.307 -0.7131  1.6118  0.2691
 1006TIP3    H224578   3.938   5.809   1.458  0.9256  0.5155  0.3923
 1007TIP3   OH224579   5.799   6.372   7.453 -0.1462  0.7199 -0.2813
 1007TIP3    H124580   5.880   6.419   7.437  2.2394 -2.8817  0.0376
 1007TIP3    H224581   5.793   6.365   7.548 -2.3070  3.0378 -0.1376
 1008TIP3   OH224582   6.553   2.430   0.521  0.1637 -0.4415  0.1420
 1008TIP3    H124583   6.509   2.475   0.593 -0.8648 -1.4580  0.1719
 1008TIP3    H224584   6.548   2.493   0.448 -0.7707 -0.2701  0.3325
 1009TIP3   OH224585   0.902   0.815   1.475  0.2245 -0.4559 -0.0030
 1009TIP3    H124586   0.963   0.804   1.402 -2.1354 -1.4627 -1.9386
 1009TIP3    H224587   0.953   0.791   1.552  3.2385  1.9508 -1.0364
 1010TIP3   OH224588   0.024   3.100   6.677 -0.2500 -0.0697 -0.6687
 1010TIP3    H124589   0.102   3.111   6.621 -0.1934 -1.2394 -0.8446
 1010TIP3    H224590   0.060   3.092   6.765 -0.1533 -0.7954 -0.7717
 1011TIP3   OH224591   3.987   6.718   8.089 -0.2176 -0.2048 -0.2855
 1011TIP3    H124592   3.948   6.789   8.038 -0.3217 -1.4932 -2.0944
 1011TIP3    H224593   4.024   6.761   8.166 -0.9095  1.6935 -0.9592
 1012TIP3   OH224594   6.797   2.438   1.877  0.2885  0.2252 -0.6259
 1012TIP3    H124595   6.790   2.438   1.782  0.1129  0.0895 -0.6156
 1012TIP3    H224596   6.851   2.514   1.898  3.9628 -2.0406 -1.0708
 1013TIP3   OH224597   2.908   0.754   0.389  0.6866  0.0085  0.3197
 1013TIP3    H124598   2.872   0.838   0.420 -1.5533 -0.3870 -0.9905
 1013TIP3    H224599   2.862   0.688   0.441  1.2008 -0.4745  0.1708
 1014TIP3   OH224600   0.502   1.112   6.761 -0.4748 -0.3178  0.2281
 1014TIP3    H124601   0.552   1.030   6.759  1.1982  0.6316  0.9263
 1014TIP3    H224602   0.521   1.154   6.677 -0.0716  0.0424  0.4936
 1015TIP3   OH224603   6.233   4.087   0.259 -0.2178  0.4869  0.4901
 1015TIP3    H124604   6.140   4.066   0.257 -0.3550  1.1375  0.0416
 1015TIP3    H224605   6.260   4.086   0.167  0.4170 -0.5383  0.6655
 1016TIP3   OH224606   0.435   0.279   7.083  0.4929  0.1878  0.1113
 1016TIP3    H124607   0.343   0.270   7.109  0.9714 -0.1153  1.8218
 1016TIP3    H224608   0.432   0.331   7.003 -1.2320 -0.7372 -0.4725
 1017TIP3   OH224609   2.139   4.883   0.089  0.0794  0.4885  0.0259
 1017TIP3    H124610   2.104   4.796   0.105  0.0342  0.8274  2.0145
 1017TIP3    H224611   2.210   4.893   0.153  0.6868  1.5618 -0.7835
 1018TIP3   OH224612   6.442   0.501   8.559  0.2152 -0.2358  0.1794
 1018TIP3    H124613   6.526   0.497   8.606 -0.6662  0.0818  1.8520
 1018TIP3    H224614   6.430   0.413   8.523  1.7966  0.0230 -1.0970
 1019TIP3   OH224615   5.068   6.447   8.768 -0.1820 -0.3939  0.2197
 1019TIP3    H124616   5.099   6.533   8.796 -0.5121 -1.3303  4.0957
 1019TIP3    H224617   5.135   6.386   8.800 -0.9799 -1.7282 -0.5366
 1020TIP3   OH224618   1.142   6.392   1.305 -0.4984 -0.4834 -0.0530
 1020TIP3    H124619   1.202   6.360   1.237  0.4770  0.6727  0.2258
 1020TIP3    H224620   1.055   6.370   1.273 -0.1055  0.5955 -2.0212
 1021TIP3   OH224621   5.815   3.295   0.609 -0.5711 -0.1223  0.1351
 1021TIP3    H124622   5.865   3.322   0.686  0.9035 -2.6339  0.1680
 1021TIP3    H224623   5.725   3.321   0.628 -0.0221  0.4640  2.1308
 1022TIP3   OH224624   0.563   6.306   0.226 -0.3531  0.2658  0.4026
 1022TIP3    H124625   0.623   6.356   0.281 -0.0057 -0.4689  0.6948
 1022TIP3    H224626   0.536   6.368   0.158  3.2308 -0.2086 -1.6613
 1023TIP3   OH224627   0.417   3.909   7.053 -0.3924  0.4999  0.0411
 1023TIP3    H124628   0.456   3.914   6.966 -0.3068 -0.9293 -0.0296
 1023TIP3    H224629   0.417   3.816   7.074 -1.0309  0.7569  1.2959
 1024TIP3   OH224630   2.994   4.715   8.160  0.0971  0.5834  0.0885
 1024TIP3    H124631   2.938   4.679   8.091 -1.5888  0.6567  1.3441
 1024TIP3    H224632   2.955   4.799   8.182  1.8694  1.5601 -0.2998
 1025TIP3   OH224633   4.844   1.451   6.918 -0.3878 -0.5009 -0.1563
 1025TIP3    H124634   4.820   1.409   6.835 -0.4339 -1.0625  0.1353
 1025TIP3    H224635   4.929   1.412   6.940 -0.7973 -1.0228  0.5124
 1026TIP3   OH224636   5.041   1.147   0.846  0.0523 -0.5470 -0.2126
 1026TIP3    H124637   5.099   1.072   0.834 -0.6195 -0.7381 -3.1113
 1026TIP3    H224638   4.953   1.112   0.832 -0.6187  0.1719  1.8743
 1027TIP3   OH224639   3.205   3.275   7.615 -0.2028  0.0341  0.2878
 1027TIP3    H124640   3.222   3.196   7.667  0.3654  0.2725  0.4713
 1027TIP3    H224641   3.256   3.263   7.535 -0.0912  0.2306  0.3294
 1028TIP3   OH224642   3.988   1.424   1.337  0.0603  0.6588  0.0685
 1028TIP3    H124643   4.068   1.397   1.292  0.0926  0.7667  0.0621
 1028TIP3    H224644   3.975   1.515   1.311  0.4465  0.9368  0.8003
 1029TIP3   OH224645   3.199   4.689   1.912 -0.3983  0.4502  0.2143
 1029TIP3    H124646   3.288   4.674   1.880 -0.5026  0.6713 -0.1865
 1029TIP3    H224647   3.206   4.680   2.007 -0.3843 -1.7728  0.0466
 1030TIP3   OH224648   1.871   1.518   7.078  0.5268  0.3549  0.3679
 1030TIP3    H124649   1.861   1.497   6.985 -0.8743 -0.1856  0.6158
 1030TIP3    H224650   1.924   1.598   7.079  0.9824  0.0939 -0.8611
 1031TIP3   OH224651   1.539   0.882   0.813 -0.5882 -0.2432  0.1725
 1031TIP3    H124652   1.499   0.904   0.898  0.9124  0.8482  0.6338
 1031TIP3    H224653   1.514   0.953   0.755 -0.9025 -0.5526 -0.0771
 1032TIP3   OH224654   0.700   3.558   1.774  0.5292  0.5901  0.2043
 1032TIP3    H124655   0.688   3.496   1.846 -0.0370  1.1857  0.6353
 1032TIP3    H224656   0.710   3.643   1.816 -2.0393  1.2960 -0.4480
 1033TIP3   OH224657   2.617   3.661   7.479  0.2405 -0.1856  0.2340
 1033TIP3    H124658   2.576   3.590   7.431 -0.5020 -0.1203  0.7461
 1033TIP3    H224659   2.617   3.735   7.418  0.6654 -0.5096 -0.1662
 1034TIP3   OH224660   4.588   3.693   8.660 -0.2215  0.1682  0.1568
 1034TIP3    H124661   4.540   3.724   8.583 -0.4160  1.1565  0.6622
 1034TIP3    H224662   4.526   3.635   8.705 -0.9249  1.3212  0.7255
 1035TIP3   OH224663   2.106   0.413   1.862 -0.4132 -1.0280  0.3391
 1035TIP3    H124664   2.074   0.333   1.903  0.4467 -1.0546  0.9809
 1035TIP3    H224665   2.061   0.417   1.778 -0.8857 -1.8868  0.5452
 1036TIP3   OH224666   0.458   0.061   8.466  0.2516 -0.1279  0.4485
 1036TIP3    H124667   0.551   0.077   8.453  0.6564 -2.7724 -0.7244
 1036TIP3    H224668   0.419   0.073   8.380  0.1696 -2.3049  0.1085
 1037TIP3   OH224669   2.184   1.795   8.272  0.6950  0.3897 -0.6046
 1037TIP3    H124670   2.149   1.884   8.283  0.1336  0.4284 -2.3894
 1037TIP3    H224671   2.195   1.763   8.362 -1.3132  1.4001  0.0736
 1038TIP3   OH224672   0.883   0.326   7.257 -0.1572 -0.0572  0.4568
 1038TIP3    H124673   0.892   0.318   7.352 -1.1808 -0.0411  0.5656
 1038TIP3    H224674   0.811   0.267   7.235 -0.5959  0.7105 -0.1792
 1039TIP3   OH224675   5.978   4.069   0.112  0.2273 -0.2118 -0.1400
 1039TIP3    H124676   5.997   3.985   0.069 -2.2945 -1.0029  0.1237
 1039TIP3    H224677   5.927   4.118   0.048 -1.0803 -0.2299  0.8453
 1040TIP3   OH224678   5.237   2.258   0.003  0.1993 -0.4869  0.5149
 1040TIP3    H124679   5.210   2.315  -0.069 -0.2349 -0.0596  1.0066
 1040TIP3    H224680   5.313   2.302   0.042  0.8758 -1.0715 -0.1043
 1041TIP3   OH224681   1.452   6.554   6.626 -0.6060 -0.3926  0.2227
 1041TIP3    H124682   1.408   6.473   6.651 -1.5005  0.3063  1.0189
 1041TIP3    H224683   1.407   6.582   6.545 -0.7074 -0.3897  0.2798
 1042TIP3   OH224684   1.970   6.617   0.742 -0.0595  0.1079  0.4482
 1042TIP3    H124685   1.972   6.697   0.690  0.7433 -0.6143 -0.6754
 1042TIP3    H224686   2.013   6.641   0.824 -0.2069  0.9311  0.2934
 1043TIP3   OH224687   1.167   4.082   6.374 -0.6779  0.3130 -0.1316
 1043TIP3    H124688   1.208   4.089   6.288 -1.6784  0.9123 -0.5811
 1043TIP3    H224689   1.190   3.994   6.405  2.2053  1.1013  0.3321
 1044TIP3   OH224690   3.944   6.242   6.250  0.0572  0.6866 -0.3004
 1044TIP3    H124691   4.026   6.292   6.249  0.3250  0.2498 -0.2250
 1044TIP3    H224692   3.962   6.165   6.197  1.0020 -1.4715  2.8999
 1045TIP3   OH224693   0.384   5.691   7.522 -0.2596  0.1582 -0.2232
 1045TIP3    H124694   0.369   5.712   7.430  2.3986  0.3216 -0.7126
 1045TIP3    H224695   0.374   5.775   7.567  0.2098  0.4562 -0.6553
 1046TIP3   OH224696   0.326   3.279   1.862 -0.1375  0.2320  0.0561
 1046TIP3    H124697   0.276   3.354   1.894 -0.8794  0.8352 -2.3621
 1046TIP3    H224698   0.267   3.205   1.870  0.0262  0.1807  0.9199
 1047TIP3   OH224699   2.279   4.088   0.977 -0.1050 -0.1976  0.2582
 1047TIP3    H124700   2.308   4.066   1.065  0.3114  0.3056  0.2512
 1047TIP3    H224701   2.185   4.072   0.978  0.0391 -1.1121  0.5066
 1048TIP3   OH224702   2.695   2.868   0.187  0.1290 -0.8336  0.4207
 1048TIP3    H124703   2.767   2.871   0.123 -0.0491 -1.4021  0.1864
 1048TIP3    H224704   2.699   2.779   0.223 -0.0147 -0.6411  0.9255
 1049TIP3   OH224705   5.425   0.873   7.330  0.4847  0.4296 -0.1180
 1049TIP3    H124706   5.501   0.838   7.283 -0.6530  0.3672 -2.0202
 1049TIP3    H224707   5.379   0.796   7.362 -0.1880  0.3127 -1.3189
 1050TIP3   OH224708   0.108   2.141   1.597 -0.4575 -0.6020 -0.0974
 1050TIP3    H124709   0.060   2.134   1.680 -1.8685 -1.4775 -0.9423
 1050TIP3    H224710   0.114   2.236   1.582  0.0814 -0.4227  1.1329
 1051TIP3   OH224711   0.757   6.023   6.818  0.1235 -0.1551  0.3224
 1051TIP3    H124712   0.736   5.936   6.786  1.6008  0.0895 -1.4925
 1051TIP3    H224713   0.842   6.043   6.779 -1.8441  3.6672 -2.8162
 1052TIP3   OH224714   4.433   5.944   6.324 -0.0614 -0.1919 -0.4107
 1052TIP3    H124715   4.460   6.035   6.313 -0.3550 -0.1837 -1.1877
 1052TIP3    H224716   4.515   5.895   6.332  0.1936 -0.0798 -1.9871
 1053TIP3   OH224717   0.499   0.501   7.754 -0.0688  0.3724  0.0382
 1053TIP3    H124718   0.582   0.490   7.707  1.7301  0.4293  2.9715
 1053TIP3    H224719   0.462   0.412   7.758  0.1251  0.2451 -0.7555
 1054TIP3   OH224720   0.448   3.422   7.470  0.3733  0.5234  0.0705
 1054TIP3    H124721   0.384   3.485   7.437  0.4750  0.8373  0.4778
 1054TIP3    H224722   0.531   3.470   7.471  0.2251  0.7722  1.5630
 1055TIP3   OH224723   0.866   6.600   8.601 -0.5209  0.0836 -0.5244
 1055TIP3    H124724   0.828   6.670   8.548  1.5206 -0.5462 -3.0536
 1055TIP3    H224725   0.950   6.635   8.632  1.7312 -1.7535 -3.8401
 1056TIP3   OH224726   4.179   1.195   7.183  0.0122 -0.7501  0.0783
 1056TIP3    H124727   4.150   1.106   7.163 -0.1415 -0.4902 -0.9064
 1056TIP3    H224728   4.102   1.249   7.166 -0.1569 -0.5024  1.4985
 1057TIP3   OH224729   3.677   3.978   7.018  0.3872 -0.3490  0.9785
 1057TIP3    H124730   3.612   4.027   6.967 -1.3213 -1.9442  1.4984
 1057TIP3    H224731   3.759   4.024   7.002 -0.8731  1.8749  0.4133
 1058TIP3   OH224732   0.600   0.277   0.066 -0.2792 -0.1817 -0.0897
 1058TIP3    H124733   0.649   0.311  -0.010 -2.4501  1.8959 -0.6977
 1058TIP3    H224734   0.655   0.298   0.141  0.0161  1.7281 -0.7791
 1059TIP3   OH224735   4.495   5.384   7.148 -0.6097 -0.0105  0.4877
 1059TIP3    H124736   4.490   5.451   7.080  0.4145  1.3270  1.6634
 1059TIP3    H224737   4.435   5.415   7.216 -0.0385 -0.2173  1.0950
 1060TIP3   OH224738   6.115   6.748   0.699  0.0143  0.0040  0.1128
 1060TIP3    H124739   6.180   6.817   0.688  1.0837 -1.1002 -0.9453
 1060TIP3    H224740   6.051   6.764   0.630  1.6964 -1.4999 -1.9740
 1061TIP3   OH224741   0.601   5.066   7.274 -0.4099  0.1409  0.9857
 1061TIP3    H124742   0.688   5.034   7.298  0.1404  1.5174  0.8710
 1061TIP3    H224743   0.593   5.048   7.180 -0.0982  0.3668  0.9165
 1062TIP3   OH224744   1.265   2.642   8.397  0.3843  0.0460  0.2595
 1062TIP3    H124745   1.192   2.703   8.394 -0.6534 -1.1970 -1.3548
 1062TIP3    H224746   1.342   2.697   8.415 -0.6936  1.5964  0.3088
 1063TIP3   OH224747   0.596   5.702   0.679  0.0597  0.5612  0.0874
 1063TIP3    H124748   0.624   5.678   0.767 -0.3496  0.0633  0.0890
 1063TIP3    H224749   0.649   5.778   0.656  0.4677  0.4321  0.5977
 1064TIP3   OH224750   6.664   3.510   7.105  0.0759 -0.0038  0.1498
 1064TIP3    H124751   6.594   3.561   7.145 -0.7848 -0.9208 -0.1199
 1064TIP3    H224752   6.646   3.513   7.011  0.0335 -0.7498  0.1253
 1065TIP3   OH224753   3.184   1.874   7.182 -0.0467 -0.0990 -0.3767
 1065TIP3    H124754   3.106   1.823   7.163 -1.5465  1.8352  0.1702
 1065TIP3    H224755   3.209   1.913   7.098  0.0498 -0.3625 -0.4688
 1066TIP3   OH224756   4.542   5.449   6.355 -0.1558 -0.3781  0.0342
 1066TIP3    H124757   4.449   5.430   6.368 -0.1120 -1.0106 -0.5044
 1066TIP3    H224758   4.585   5.417   6.434 -0.4882  0.7207  0.6745
 1067TIP3   OH224759   0.503   4.419   8.035  0.0092  0.5883  0.4710
 1067TIP3    H124760   0.423   4.459   8.068 -0.9364 -1.4207  0.7870
 1067TIP3    H224761   0.504   4.440   7.942 -0.8351  0.7464  0.4906
 1068TIP3   OH224762   2.456   3.269   8.287 -0.5085 -0.4596 -0.7083
 1068TIP3    H124763   2.492   3.188   8.322 -0.2649 -0.6603 -1.4112
 1068TIP3    H224764   2.363   3.265   8.309  0.1051  0.8359  2.5887
 1069TIP3   OH224765   2.788   3.806   7.816 -0.1873 -0.3437 -0.1526
 1069TIP3    H124766   2.700   3.830   7.789 -0.1796  0.7502  0.7054
 1069TIP3    H224767   2.839   3.806   7.735 -0.6309  0.6515 -0.4501
 1070TIP3   OH224768   2.334   2.894   6.695  0.1713  0.1934  0.6462
 1070TIP3    H124769   2.354   2.947   6.617  1.2235  0.2556  0.9440
 1070TIP3    H224770   2.418   2.881   6.738  0.0604 -2.2633  0.2614
 1071TIP3   OH224771   4.941   4.346   6.740  0.0661 -0.1277  0.1655
 1071TIP3    H124772   5.009   4.302   6.690 -0.7037  0.0792 -1.1058
 1071TIP3    H224773   4.889   4.393   6.674 -2.3322 -1.6506  0.8481
 1072TIP3   OH224774   0.492   0.371   8.583 -0.2252 -0.5721  0.2688
 1072TIP3    H124775   0.579   0.370   8.543 -0.0611 -0.5284  0.6300
 1072TIP3    H224776   0.447   0.444   8.539  0.1036 -0.2408  0.4749
 1073TIP3   OH224777   4.155   6.253   0.025  0.3416 -0.2191 -0.2485
 1073TIP3    H124778   4.133   6.290  -0.060  3.7857 -2.4878 -2.4138
 1073TIP3    H224779   4.095   6.180   0.036  0.8889 -0.9224 -1.6451
 1074TIP3   OH224780   4.407   6.656   0.957 -0.2429  0.4450  0.0782
 1074TIP3    H124781   4.432   6.619   0.873 -2.7344 -2.9132  0.5757
 1074TIP3    H224782   4.362   6.737   0.936 -0.1948  0.0313 -1.7877
 1075TIP3   OH224783   6.237   2.931   8.157  0.2463  0.4261 -0.5887
 1075TIP3    H124784   6.256   2.989   8.231 -1.1120  0.7667 -0.4826
 1075TIP3    H224785   6.323   2.901   8.128  0.8414  0.6514  0.8307
 1076TIP3   OH224786   3.998   5.514   1.623 -0.2103  0.3124  0.1992
 1076TIP3    H124787   3.978   5.607   1.630  0.5615  0.6042 -1.2258
 1076TIP3    H224788   4.024   5.488   1.711 -0.2317  1.4869  0.5624
 1077TIP3   OH224789   6.757   3.048   1.579  0.3941  0.2606  0.5752
 1077TIP3    H124790   6.823   2.993   1.622 -0.8952 -0.9897  1.0446
 1077TIP3    H224791   6.674   3.020   1.618 -0.4472  1.6812 -0.1103
 1078TIP3   OH224792   2.379   3.856   8.792  0.1440 -0.5036  0.3465
 1078TIP3    H124793   2.453   3.899   8.747 -1.1664  0.1097 -1.3356
 1078TIP3    H224794   2.376   3.768   8.754 -1.6519  0.3699 -1.7528
 1079TIP3   OH224795   6.776   2.164   7.737 -0.4203 -0.6646 -0.5835
 1079TIP3    H124796   6.845   2.229   7.719 -0.4112 -0.1914  1.0690
 1079TIP3    H224797   6.709   2.183   7.672  0.5160 -0.4106 -1.5130
 1080TIP3   OH224798   1.425   1.270   7.672 -0.0914  0.1519 -0.5102
 1080TIP3    H124799   1.381   1.288   7.755  1.4385 -1.1580  0.6519
 1080TIP3    H224800   1.362   1.218   7.623 -1.4240  1.8195 -0.6471
 1081TIP3   OH224801   1.088   5.297   8.492  0.0374 -0.2891  0.0706
 1081TIP3    H124802   1.060   5.234   8.426 -0.8549 -0.3967  0.5409
 1081TIP3    H224803   1.171   5.332   8.458 -0.0966 -0.7906 -0.8001
 1082TIP3   OH224804   5.360   1.804   1.689  0.2372  0.4991 -0.2743
 1082TIP3    H124805   5.398   1.719   1.711  0.4950  0.1004 -2.0943
 1082TIP3    H224806   5.294   1.819   1.756  0.5542 -0.8959  0.3833
 1083TIP3   OH224807   0.992   3.648   0.078 -0.8099 -0.2795  0.2675
 1083TIP3    H124808   1.001   3.553   0.086 -1.5191 -0.4103 -0.3380
 1083TIP3    H224809   1.006   3.666  -0.015  0.7103  0.3908  0.6003
 1084TIP3   OH224810   5.512   0.228   7.831 -0.1904  0.3714  0.7848
 1084TIP3    H124811   5.434   0.216   7.777 -0.5422 -0.9104  1.5519
 1084TIP3    H224812   5.544   0.139   7.848  0.4382  0.7945  1.9280
 1085TIP3   OH224813   3.386   1.564   7.113 -0.0748 -0.5350  0.3213
 1085TIP3    H124814   3.453   1.631   7.125  1.4737 -1.3522 -2.7046
 1085TIP3    H224815   3.395   1.506   7.189  0.1268  1.3400  1.7930
 1086TIP3   OH224816   3.288   6.241   1.858 -0.9865  0.0616  0.1277
 1086TIP3    H124817   3.318   6.303   1.792  0.5750 -0.1210  0.6117
 1086TIP3    H224818   3.334   6.266   1.937 -2.1023 -0.3130  0.9208
 1087TIP3   OH224819   6.680   2.726   0.962 -0.1779  0.3050 -0.3936
 1087TIP3    H124820   6.586   2.745   0.966 -0.5335 -1.4362  0.4639
 1087TIP3    H224821   6.704   2.707   1.052  0.4810 -1.4651 -0.9048
 1088TIP3   OH224822   5.533   3.677   7.238 -0.2197 -0.8566  0.4566
 1088TIP3    H124823   5.618   3.634   7.222 -0.1879 -0.7217  0.2597
 1088TIP3    H224824   5.487   3.618   7.297 -0.8122 -1.9662 -1.0560
 1089TIP3   OH224825   3.470   3.218   7.469 -0.2504  0.1369  0.2159
 1089TIP3    H124826   3.541   3.282   7.480  0.2954 -0.7929  2.9077
 1089TIP3    H224827   3.502   3.139   7.513 -2.7826 -0.4237  1.2304
 1090TIP3   OH224828   2.319   6.368   8.476  0.5715  0.2767  0.6101
 1090TIP3    H124829   2.239   6.420   8.477 -0.9116 -1.7620 -1.7683
 1090TIP3    H224830   2.322   6.328   8.563 -0.0676  1.6478  1.2926
 1091TIP3   OH224831   4.597   2.919   0.204  0.8131  0.4938  0.7582
 1091TIP3    H124832   4.551   2.835   0.196 -1.5889  1.8166 -0.4557
 1091TIP3    H224833   4.648   2.925   0.123 -1.8127  1.6636 -0.9464
 1092TIP3   OH224834   5.868   2.407   8.653 -0.0119 -0.2132 -0.1085
 1092TIP3    H124835   5.844   2.319   8.624  0.3399 -1.1257  2.2174
 1092TIP3    H224836   5.962   2.414   8.634 -0.1825 -0.0157 -0.9616
 1093TIP3   OH224837   1.022   1.366   1.914  0.1865 -0.2880 -0.9444
 1093TIP3    H124838   1.077   1.437   1.948 -1.4773 -0.1097  1.6982
 1093TIP3    H224839   1.081   1.312   1.862  2.1992  1.3755 -0.4960
 1094TIP3   OH224840   2.375   2.878   1.625  0.3689 -0.2820  0.3339
 1094TIP3    H124841   2.294   2.928   1.628  0.3349 -0.2854 -0.3027
 1094TIP3    H224842   2.430   2.915   1.694 -0.5784 -1.0041  1.5181
 1095TIP3   OH224843   6.790   4.994   6.276  0.2640  0.1510 -0.5590
 1095TIP3    H124844   6.721   5.055   6.304 -0.9756 -0.7157 -1.5914
 1095TIP3    H224845   6.783   4.920   6.337  1.0814  0.5610  0.0533
 1096TIP3   OH224846   5.181   6.731   6.527 -0.0112  0.0744  0.1880
 1096TIP3    H124847   5.254   6.677   6.497 -0.0225 -0.2853  0.7949
 1096TIP3    H224848   5.221   6.815   6.549  0.2747 -0.2245  0.8245
 1097TIP3   OH224849   4.393   1.895   0.156  0.6146  0.1064 -0.5816
 1097TIP3    H124850   4.339   1.923   0.082 -1.6500 -0.5739  0.7183
 1097TIP3    H224851   4.409   1.975   0.206 -0.3718  0.1085 -0.2572
 1098TIP3   OH224852   2.831   3.670   1.119 -0.0222 -0.6466  0.1040
 1098TIP3    H124853   2.754   3.714   1.155  0.1938 -0.6660  0.6116
 1098TIP3    H224854   2.902   3.695   1.179  0.4465 -0.3075 -0.5773
 1099TIP3   OH224855   4.953   2.539   1.334  0.2857  0.6272 -0.1219
 1099TIP3    H124856   4.984   2.483   1.406 -1.7244  0.2385  0.5000
 1099TIP3    H224857   4.945   2.479   1.260 -0.9823  0.2429  0.2989
 1100TIP3   OH224858   4.719   4.762   6.382  0.0344 -0.2116 -0.2136
 1100TIP3    H124859   4.701   4.692   6.319  1.5520 -0.1586 -0.7243
 1100TIP3    H224860   4.676   4.732   6.463 -1.0434 -0.7609 -0.9611
 1101TIP3   OH224861   5.588   0.547   8.527  0.1731 -0.3737  0.0930
 1101TIP3    H124862   5.494   0.536   8.508 -0.0530  1.2608  0.1829
 1101TIP3    H224863   5.631   0.513   8.448 -0.5619  0.4158 -0.6790
 1102TIP3   OH224864   1.196   5.363   1.528 -0.4702  0.3005 -0.2701
 1102TIP3    H124865   1.171   5.284   1.480  0.7810 -0.3085  0.0148
 1102TIP3    H224866   1.183   5.341   1.620  1.5774 -0.2920 -0.0564
 1103TIP3   OH224867   0.481   2.330   0.001 -0.0764  0.3466  0.4805
 1103TIP3    H124868   0.388   2.349   0.009 -0.0163  0.6296  0.4938
 1103TIP3    H224869   0.490   2.292  -0.086 -0.5613 -1.7797  1.2968
 1104TIP3   OH224870   3.973   2.372   0.502 -0.0714  0.0429  0.0506
 1104TIP3    H124871   4.065   2.393   0.515  0.4309 -1.9627  0.0434
 1104TIP3    H224872   3.943   2.341   0.588 -0.5532  0.0251 -0.1185
 1105TIP3   OH224873   0.236   1.150   0.087 -0.1018 -0.2457  0.1383
 1105TIP3    H124874   0.222   1.148   0.181  1.4102 -1.4237  0.3682
 1105TIP3    H224875   0.321   1.191   0.075 -0.2119 -0.2376 -0.7156
 1106TIP3   OH224876   4.054   3.924   0.151  0.7570 -0.3108 -0.5197
 1106TIP3    H124877   4.139   3.893   0.118  1.8353  2.1537 -0.2575
 1106TIP3    H224878   4.074   4.006   0.196 -1.7052  0.0412  0.0731
 1107TIP3   OH224879   2.173   2.435   6.576 -0.0149  0.4728 -0.0584
 1107TIP3    H124880   2.088   2.416   6.617  0.1495  2.2087  1.2043
 1107TIP3    H224881   2.220   2.352   6.578 -1.1218 -0.1685  0.6080
 1108TIP3   OH224882   3.235   4.142   8.564 -0.5086 -0.2266  0.3296
 1108TIP3    H124883   3.284   4.118   8.485 -0.6801  0.9450 -0.1508
 1108TIP3    H224884   3.299   4.184   8.620 -0.9062  1.1967 -0.2478
 1109TIP3   OH224885   0.609   4.435   7.115  0.0256  0.0366 -0.2363
 1109TIP3    H124886   0.574   4.411   7.030  1.7985 -0.4820 -0.8726
 1109TIP3    H224887   0.567   4.375   7.176 -0.2996 -0.4612 -0.9338
 1110TIP3   OH224888   5.200   4.960   0.826  0.0529  0.1047  1.0171
 1110TIP3    H124889   5.213   4.992   0.737  0.2893 -0.8007  0.7064
 1110TIP3    H224890   5.108   4.936   0.831 -0.4663  2.0671  1.6930
 1111TIP3   OH224891   1.345   4.225   0.017  0.4348  0.2378 -0.4824
 1111TIP3    H124892   1.380   4.138  -0.003  0.2957  0.4009 -1.5038
 1111TIP3    H224893   1.361   4.276  -0.063 -1.7251  0.4513 -0.8451
 1112TIP3   OH224894   4.982   5.417   8.780  0.0547 -0.3034 -0.1806
 1112TIP3    H124895   4.949   5.408   8.690  0.2187  0.6768 -0.3567
 1112TIP3    H224896   5.072   5.450   8.769  0.3276 -0.8727  0.3325
 1113TIP3   OH224897   2.338   5.282   2.294 -0.3340 -0.0002 -0.2073
 1113TIP3    H124898   2.301   5.195   2.311 -0.2054  0.2002  1.2835
 1113TIP3    H224899   2.351   5.319   2.382  1.7462  0.6259 -0.7326
 1114TIP3   OH224900   3.649   5.425   7.813  0.1935 -0.1798 -0.2951
 1114TIP3    H124901   3.630   5.334   7.835 -0.4392  0.0475  0.1192
 1114TIP3    H224902   3.604   5.441   7.730  0.1976 -0.2067 -0.3024
 1115TIP3   OH224903   2.863   5.281   0.322  0.3715 -0.1753 -0.0617
 1115TIP3    H124904   2.814   5.310   0.245  0.6019  0.8561  0.1604
 1115TIP3    H224905   2.953   5.311   0.306  0.2488  0.8185  0.9767
 1116TIP3   OH224906   5.044   1.306   8.525 -0.2549  0.0649 -0.6744
 1116TIP3    H124907   5.082   1.371   8.465 -1.3998  0.0434 -1.4599
 1116TIP3    H224908   5.066   1.222   8.485  1.6216 -0.0962  0.5832
 1117TIP3   OH224909   4.010   0.239   7.171 -0.0273 -0.4208 -0.3026
 1117TIP3    H124910   3.933   0.283   7.135  0.4882  0.1574 -0.7358
 1117TIP3    H224911   4.083   0.298   7.149  0.2184  0.4966  2.5929
 1118TIP3   OH224912   5.797   4.902   8.225  0.3847 -0.6797  0.6942
 1118TIP3    H124913   5.862   4.951   8.275  0.7296  0.0885 -0.4731
 1118TIP3    H224914   5.839   4.885   8.141 -1.5161  1.4625 -0.8279
 1119TIP3   OH224915   5.061   6.767   7.149  0.8709  0.7347 -0.2852
 1119TIP3    H124916   5.111   6.700   7.103  0.1239 -0.1926  0.2292
 1119TIP3    H224917   4.992   6.792   7.088 -2.9776 -3.7092  1.6611
 1120TIP3   OH224918   3.542   5.339   0.310 -0.1325 -0.1913  0.3624
 1120TIP3    H124919   3.589   5.324   0.228 -0.7748 -1.8627  0.2584
 1120TIP3    H224920   3.592   5.407   0.355 -0.0510  1.1229 -1.6107
 1121TIP3   OH224921   4.497   5.703   0.957  0.5580  0.9087  0.6218
 1121TIP3    H124922   4.459   5.775   0.906  2.3864  2.5869  1.5109
 1121TIP3    H224923   4.468   5.719   1.046  0.3331  0.0642  0.7079
 1122TIP3   OH224924   4.902   1.440   2.022  0.2803  0.3076 -0.0064
 1122TIP3    H124925   4.845   1.437   2.099  1.2305  1.2275  0.7553
 1122TIP3    H224926   4.972   1.379   2.042  0.3000  0.2188 -0.3432
 1123TIP3   OH224927   3.328   3.974   1.686  0.1447  0.1036 -0.0387
 1123TIP3    H124928   3.349   3.936   1.771  1.7711 -0.5948 -0.7180
 1123TIP3    H224929   3.410   4.017   1.658 -0.8367  1.7487 -0.5289
 1124TIP3   OH224930   6.779   1.768   7.258 -0.4359  0.0608 -0.0309
 1124TIP3    H124931   6.721   1.694   7.273  0.1626 -0.1651  1.3088
 1124TIP3    H224932   6.793   1.806   7.345  0.1344  1.0872 -0.5480
 1125TIP3   OH224933   3.956   6.088   0.632  0.2476 -0.2100 -0.0062
 1125TIP3    H124934   3.884   6.120   0.686 -0.7477 -3.3242  0.7629
 1125TIP3    H224935   3.981   6.163   0.578 -3.1663  1.2112  0.1052
 1126TIP3   OH224936   3.706   0.113   2.181  0.6336 -0.3269 -0.1705
 1126TIP3    H124937   3.772   0.173   2.215  1.4350 -0.1225 -1.9558
 1126TIP3    H224938   3.684   0.057   2.255  0.6174  1.4858  1.2734
 1127TIP3   OH224939   1.100   0.090   0.573  0.6526 -0.0870  0.4115
 1127TIP3    H124940   1.155   0.013   0.588  1.2272  0.2076 -0.1078
 1127TIP3    H224941   1.122   0.118   0.484  2.0260  1.8863  1.2915
 1128TIP3   OH224942   5.318   6.345   2.292  0.1080 -0.2310  0.3742
 1128TIP3    H124943   5.246   6.406   2.311  1.7745  1.9082  0.2078
 1128TIP3    H224944   5.372   6.391   2.228  0.9236 -2.3779 -0.5830
 1129TIP3   OH224945   0.085   6.035   6.528  0.1792  0.6942 -0.1008
 1129TIP3    H124946   0.177   6.057   6.509  0.6608 -0.8151  0.3943
 1129TIP3    H224947   0.048   6.117   6.560  1.7394  1.0070  1.0552
 1130TIP3   OH224948   2.043   2.649   2.033  0.1362 -0.4889 -0.2161
 1130TIP3    H124949   1.969   2.632   1.974 -1.3715  0.3089  1.3671
 1130TIP3    H224950   2.005   2.700   2.105  2.1467 -0.4690  0.8932
 1131TIP3   OH224951   2.100   0.382   8.137  0.0483  0.1893 -0.1838
 1131TIP3    H124952   2.160   0.312   8.111  0.0274 -0.1414  0.6347
 1131TIP3    H224953   2.128   0.458   8.086  0.7891 -0.1167 -0.2471
 1132TIP3   OH224954   2.891   0.449   7.224 -0.2624 -0.9013 -0.0403
 1132TIP3    H124955   2.981   0.479   7.217  0.1327 -1.3827  2.2333
 1132TIP3    H224956   2.877   0.435   7.318 -2.5979 -1.1704 -0.3577
 1133TIP3   OH224957   4.648   2.512   1.628  0.3342 -0.5468  0.5339
 1133TIP3    H124958   4.615   2.600   1.607  1.7594  0.0506  0.6444
 1133TIP3    H224959   4.714   2.527   1.696  1.2579 -1.5933 -0.0944
 1134TIP3   OH224960   1.488   4.690   8.760 -0.5039  0.0484 -0.3099
 1134TIP3    H124961   1.574   4.651   8.744 -0.5499 -0.3024  0.2621
 1134TIP3    H224962   1.498   4.736   8.843 -0.2366  1.9431 -1.3320
 1135TIP3   OH224963   0.227   3.194   6.440  0.2826 -0.1608  0.1167
 1135TIP3    H124964   0.315   3.158   6.452  0.4135 -0.1213 -0.6326
 1135TIP3    H224965   0.192   3.146   6.365 -0.2017  0.0675  0.1940
 1136TIP3   OH224966   4.619   1.042   7.803 -0.0321  0.2655 -0.4312
 1136TIP3    H124967   4.655   1.063   7.717  1.7329  0.4238  0.2831
 1136TIP3    H224968   4.673   0.968   7.833 -0.0351  0.7703  0.8750
 1137TIP3   OH224969   2.208   2.326   7.284  0.0858  0.0439 -0.5852
 1137TIP3    H124970   2.293   2.361   7.257  0.1541 -0.7728 -1.4905
 1137TIP3    H224971   2.144   2.371   7.229 -0.0801  0.6187  0.0581
 1138TIP3   OH224972   2.918   5.480   1.146  0.3489  0.1220  0.5117
 1138TIP3    H124973   2.988   5.501   1.085  0.4538  0.3817  0.7201
 1138TIP3    H224974   2.854   5.551   1.135 -0.6421 -0.9341 -0.8248
 1139TIP3   OH224975   6.752   6.249   0.182  0.2745 -0.2064 -0.5118
 1139TIP3    H124976   6.744   6.161   0.146  0.8755  0.2603 -1.8597
 1139TIP3    H224977   6.839   6.279   0.154 -0.4714  1.3350 -1.3201
 1140TIP3   OH224978   0.833   1.403   0.621 -0.2502 -0.2158  0.4831
 1140TIP3    H124979   0.927   1.381   0.619 -0.1955  0.0843 -0.9646
 1140TIP3    H224980   0.824   1.459   0.698  1.1648  1.4317 -0.4712
 1141TIP3   OH224981   1.565   4.962   0.967 -0.2263  0.2099  0.1371
 1141TIP3    H124982   1.570   4.889   1.029 -0.2928  0.5483  0.5520
 1141TIP3    H224983   1.560   5.040   1.023 -1.5883  0.4455 -0.2741
 1142TIP3   OH224984   5.019   4.202   0.380  0.2417 -0.3214  0.0393
 1142TIP3    H124985   4.934   4.174   0.345 -0.0410 -0.2285  0.6453
 1142TIP3    H224986   5.070   4.223   0.302  0.0105 -1.2330 -0.3681
 1143TIP3   OH224987   2.711   4.249   0.986  0.0068 -0.4437 -0.0354
 1143TIP3    H124988   2.696   4.343   0.988 -1.6843 -0.6723 -0.1856
 1143TIP3    H224989   2.754   4.233   0.902  3.2981  0.5045  1.2925
 1144TIP3   OH224990   4.083   5.380   0.077  0.3197 -0.3577  0.2128
 1144TIP3    H124991   4.050   5.454   0.027  0.7233  0.8295  1.6548
 1144TIP3    H224992   4.067   5.304   0.020 -1.5233  0.6120 -0.6605
 1145TIP3   OH224993   4.862   1.856   0.157 -0.3419 -0.0729  0.5473
 1145TIP3    H124994   4.864   1.927   0.222 -2.0140 -0.9008  1.5801
 1145TIP3    H224995   4.831   1.898   0.077  1.1346  0.8337  0.4080
 1146TIP3   OH224996   0.059   5.179   0.288  0.0660 -0.3175 -0.3711
 1146TIP3    H124997   0.054   5.225   0.372 -0.2071 -1.6762  0.3761
 1146TIP3    H224998   0.057   5.086   0.311 -0.6643 -0.7177 -1.9155
 1147TIP3   OH224999   3.399   0.063   0.165  0.2306  0.1415 -0.0759
 1147TIP3    H125000   3.366  -0.026   0.179  1.1836 -0.0828  0.8884
 1147TIP3    H225001   3.491   0.060   0.192  0.9057  0.9087 -2.0798
 1148TIP3   OH225002   0.755   0.827   8.655  0.0371  0.5988 -0.0438
 1148TIP3    H125003   0.828   0.771   8.682 -0.6708 -1.7402 -2.5736
 1148TIP3    H225004   0.697   0.829   8.731  1.5206  0.4757  1.1524
 1149TIP3   OH225005   4.119   6.166   8.151  0.7317  0.6357 -0.3867
 1149TIP3    H125006   4.036   6.179   8.197  1.0457  0.7508  0.1597
 1149TIP3    H225007   4.100   6.189   8.060 -0.3138 -1.0891 -0.6544
 1150TIP3   OH225008   0.778   3.573   0.585  0.4217  0.8016 -0.4851
 1150TIP3    H125009   0.813   3.573   0.496 -1.2693 -0.6085 -1.2102
 1150TIP3    H225010   0.684   3.585   0.573  0.0319 -0.4491  1.0447
 1151TIP3   OH225011   6.220   1.057   0.897 -0.1401  0.8351 -0.7790
 1151TIP3    H125012   6.176   1.024   0.819  1.3089 -0.8204 -0.9725
 1151TIP3    H225013   6.302   1.007   0.901  0.0918  1.2845  1.4736
 1152TIP3   OH225014   6.073   2.228   2.038  1.0642 -0.3290  0.1805
 1152TIP3    H125015   5.990   2.213   2.084  0.8386 -0.8890 -0.3889
 1152TIP3    H225016   6.134   2.255   2.107  0.8487 -1.5595  0.8887
 1153TIP3   OH225017   6.635   6.550   1.010  0.4529 -0.8122 -0.0122
 1153TIP3    H125018   6.729   6.556   1.028  0.1861 -0.5913  1.3997
 1153TIP3    H225019   6.607   6.641   0.996 -0.0209 -0.5642  2.2448
 1154TIP3   OH225020   1.191   6.662   0.683 -0.5710  0.5464  0.0282
 1154TIP3    H125021   1.142   6.621   0.755  0.4066 -1.5389 -0.4081
 1154TIP3    H225022   1.280   6.669   0.716 -0.4999  1.3812 -0.3144
 1155TIP3   OH225023   5.014   1.698   0.931 -0.2260 -0.3617 -0.7114
 1155TIP3    H125024   4.994   1.610   0.901 -0.1318 -0.1915 -1.2934
 1155TIP3    H225025   5.042   1.744   0.852 -1.4465  0.5365 -0.6513
 1156TIP3   OH225026   4.282   0.289   7.413  0.5559 -0.1604  0.2154
 1156TIP3    H125027   4.276   0.293   7.318  2.8342 -0.6527 -0.0052
 1156TIP3    H225028   4.247   0.203   7.436 -2.1756  0.8074  0.1395
 1157TIP3   OH225029   0.810   2.656   8.330 -0.6985 -0.1823  0.1847
 1157TIP3    H125030   0.778   2.585   8.385  0.0641  0.2330  1.1987
 1157TIP3    H225031   0.820   2.730   8.390 -1.1783  0.7026 -0.7865
 1158TIP3   OH225032   2.233   0.735   7.680  0.8662 -0.1428 -0.4060
 1158TIP3    H125033   2.272   0.699   7.760  1.3129  1.1319 -0.0197
 1158TIP3    H225034   2.144   0.758   7.705  0.6423 -0.7824 -0.5998
 1159TIP3   OH225035   2.433   2.297   8.451 -0.0727  0.1238 -0.4720
 1159TIP3    H125036   2.375   2.373   8.461  0.7401  0.9076 -1.4154
 1159TIP3    H225037   2.487   2.298   8.530 -1.1695 -0.4845  0.3089
 1160TIP3   OH225038   2.300   5.125   6.145  0.2959 -0.1020 -0.2837
 1160TIP3    H125039   2.367   5.188   6.118  0.1117  0.0014 -0.5006
 1160TIP3    H225040   2.220   5.177   6.152  0.6315  0.2190  2.0104
 1161TIP3   OH225041   4.450   1.325   1.030  0.2731  0.6382  0.4341
 1161TIP3    H125042   4.503   1.285   1.098 -0.0658  0.9291  0.8733
 1161TIP3    H225043   4.506   1.394   0.994  1.3839 -1.0329 -1.2455
 1162TIP3   OH225044   6.554   2.209   0.316  0.3724 -0.4459 -0.3307
 1162TIP3    H125045   6.526   2.272   0.382 -1.5943 -0.6079 -0.9215
 1162TIP3    H225046   6.537   2.124   0.356 -1.4689 -0.5516 -1.1925
 1163TIP3   OH225047   4.562   3.804   8.400  0.5002  0.0217 -0.3595
 1163TIP3    H125048   4.503   3.732   8.379  0.8322 -0.5190  0.5271
 1163TIP3    H225049   4.640   3.786   8.347  0.8651 -0.6819  0.3899
 1164TIP3   OH225050   5.546   6.053   1.211 -0.1595  0.0432 -0.3037
 1164TIP3    H125051   5.469   6.082   1.258 -0.5869  0.4952 -1.2578
 1164TIP3    H225052   5.606   6.022   1.279 -2.6903 -4.2449  0.3530
 1165TIP3   OH225053   0.655   3.395   0.308  0.2460  0.2764 -0.2188
 1165TIP3    H125054   0.578   3.446   0.282 -0.1783 -0.3991 -0.3117
 1165TIP3    H225055   0.652   3.395   0.404 -0.3667 -0.4716 -0.2261
 1166TIP3   OH225056   1.839   3.545   7.221  0.4079 -1.1155  0.2117
 1166TIP3    H125057   1.832   3.546   7.316  0.8611  0.3864  0.2459
 1166TIP3    H225058   1.785   3.470   7.194 -0.5870 -0.9225  1.5646
 1167TIP3   OH225059   1.230   2.218   1.347 -0.3496  0.2495 -0.3071
 1167TIP3    H125060   1.135   2.228   1.342 -0.1518  1.9189 -2.6408
 1167TIP3    H225061   1.263   2.273   1.276  2.3687 -0.4314  0.3221
 1168TIP3   OH225062   4.631   3.485   0.985 -0.4202  0.3308  0.3205
 1168TIP3    H125063   4.635   3.408   1.041 -1.3868 -0.2573 -0.3998
 1168TIP3    H225064   4.672   3.554   1.037 -0.7104 -0.3546  1.4983
 1169TIP3   OH225065   1.435   3.483   1.314 -0.9379 -0.7698  0.2119
 1169TIP3    H125066   1.457   3.572   1.341  0.4119 -1.8788  3.2053
 1169TIP3    H225067   1.418   3.490   1.220 -1.6989  2.7506  0.4694
 1170TIP3   OH225068   3.292   4.578   1.207 -0.0864 -0.2300  0.1609
 1170TIP3    H125069   3.301   4.571   1.112  0.9603 -0.1734  0.2499
 1170TIP3    H225070   3.208   4.623   1.219 -0.1058  0.0003 -0.7396
 1171TIP3   OH225071   5.959   5.215   0.765  0.4113  0.1901  0.6436
 1171TIP3    H125072   6.033   5.249   0.715  0.3064  0.0527  0.3892
 1171TIP3    H225073   5.887   5.213   0.702  0.3151 -0.1262  0.7623
 1172TIP3   OH225074   2.007   4.483   1.133 -0.5314 -0.0185  0.1915
 1172TIP3    H125075   2.089   4.525   1.156 -0.5952 -0.0876  0.5478
 1172TIP3    H225076   1.950   4.497   1.209 -1.3299  1.2664 -0.6005
 1173TIP3   OH225077   1.734   4.964   7.123  0.2207 -0.0161  0.1442
 1173TIP3    H125078   1.729   4.876   7.086 -0.1401  0.0374  0.0564
 1173TIP3    H225079   1.824   4.973   7.152 -0.1142 -1.0112  1.6459
 1174TIP3   OH225080   5.483   1.212   0.771 -0.1695 -0.0883 -0.1568
 1174TIP3    H125081   5.469   1.166   0.688  1.7840  0.3857 -0.8048
 1174TIP3    H225082   5.435   1.294   0.762 -0.0750 -0.0989 -0.7770
 1175TIP3   OH225083   3.045   4.422   6.739  0.3542 -0.3238 -0.5303
 1175TIP3    H125084   3.021   4.401   6.829  0.3565  1.7365  0.0175
 1175TIP3    H225085   3.138   4.399   6.733  0.7312  0.8096  0.4758
 1176TIP3   OH225086   0.768   1.399   8.550 -0.1178  0.0409 -0.0535
 1176TIP3    H125087   0.675   1.374   8.542 -0.3430  0.2847  1.4090
 1176TIP3    H225088   0.774   1.439   8.637  1.4976 -0.5821  0.1640
 1177TIP3   OH225089   3.956   2.978   1.029  0.2181  0.0595 -0.4140
 1177TIP3    H125090   3.969   2.958   0.936  1.8839  1.2639 -0.4901
 1177TIP3    H225091   3.914   3.064   1.029  0.6722  0.2839 -0.0577
 1178TIP3   OH225092   2.777   2.886   1.745 -0.3893 -0.4601  0.1032
 1178TIP3    H125093   2.837   2.958   1.724  1.1094 -1.8754 -0.6686
 1178TIP3    H225094   2.782   2.828   1.670 -0.9373 -1.7850  1.0532
 1179TIP3   OH225095   0.456   5.718   7.226  0.4068 -0.0722  0.2575
 1179TIP3    H125096   0.400   5.796   7.224  0.7628  0.1920  0.6272
 1179TIP3    H225097   0.507   5.723   7.145 -0.0056 -0.2472 -0.0189
 1180TIP3   OH225098   4.424   6.412   8.022  0.8763  0.1374  0.0795
 1180TIP3    H125099   4.396   6.392   8.111  1.2607 -0.2917  0.1075
 1180TIP3    H225100   4.415   6.507   8.015 -0.3963  0.0481  0.1457
 1181TIP3   OH225101   5.583   3.310   7.329  0.2637 -0.4994 -0.1285
 1181TIP3    H125102   5.543   3.394   7.350  0.2971 -0.0106 -1.8612
 1181TIP3    H225103   5.519   3.245   7.359 -0.6797  0.2012 -0.5743
 1182TIP3   OH225104   2.569   4.900   7.220  0.0130 -0.0097  0.0387
 1182TIP3    H125105   2.574   4.879   7.313  0.8050 -0.7911 -0.1656
 1182TIP3    H225106   2.506   4.838   7.185 -0.3620  0.3519  0.0666
 1183TIP3   OH225107   4.738   4.357   7.805  0.0189 -0.0039  0.2499
 1183TIP3    H125108   4.744   4.374   7.711 -1.2303 -2.1734 -0.3026
 1183TIP3    H225109   4.821   4.314   7.827  0.0853  0.0074  0.0228
 1184TIP3   OH225110   0.360   1.921   7.936  0.1057  0.0583  0.6322
 1184TIP3    H125111   0.278   1.953   7.899  0.6467  1.8649  0.9124
 1184TIP3    H225112   0.427   1.948   7.872  0.4427 -2.1492 -0.0300
 1185TIP3   OH225113   6.442   6.178   0.086  0.2671 -0.4904 -0.6078
 1185TIP3    H125114   6.436   6.123   0.165  0.7407  0.4016  0.0664
 1185TIP3    H225115   6.486   6.257   0.116  1.8884 -0.7689 -2.1200
 1186TIP3   OH225116   2.586   1.429   0.418 -0.3474  0.6199  0.0545
 1186TIP3    H125117   2.575   1.402   0.327 -2.1883 -1.3044  0.7758
 1186TIP3    H225118   2.676   1.462   0.422 -0.2201  0.7794 -2.4274
 1187TIP3   OH225119   0.225   0.014   7.167  0.3644 -0.0009  0.1350
 1187TIP3    H125120   0.227  -0.081   7.168 -1.7736 -0.0913  2.1380
 1187TIP3    H225121   0.145   0.036   7.118  0.9638  0.8044 -0.5232
 1188TIP3   OH225122   2.280   6.471   7.329  0.0251  0.4296  0.1274
 1188TIP3    H125123   2.242   6.396   7.376 -0.1179  1.0338  0.9918
 1188TIP3    H225124   2.360   6.491   7.376  0.1784  0.6945 -0.2398
 1189TIP3   OH225125   3.710   6.679   1.130  0.4243 -0.3677  0.5801
 1189TIP3    H125126   3.678   6.746   1.071 -0.1338 -1.1157  0.0063
 1189TIP3    H225127   3.631   6.641   1.168  0.6394 -1.5971 -0.1267
 1190TIP3   OH225128   6.623   4.543   0.207 -0.1233 -0.5349  0.1826
 1190TIP3    H125129   6.562   4.475   0.237  1.1736 -1.6583  0.3728
 1190TIP3    H225130   6.647   4.518   0.118  0.9363 -0.7624  0.5154
 1191TIP3   OH225131   2.400   1.720   0.311  0.3001 -0.0236 -0.2780
 1191TIP3    H125132   2.337   1.651   0.332 -2.2596  2.1222 -0.4064
 1191TIP3    H225133   2.470   1.709   0.375  0.0887 -2.7481 -0.3734
 1192TIP3   OH225134   3.925   1.681   1.224  0.7549  0.0914 -0.0911
 1192TIP3    H125135   3.865   1.747   1.258  0.7841 -1.0358  2.3178
 1192TIP3    H225136   3.968   1.724   1.149 -0.1333  2.3215  0.6002
 1193TIP3   OH225137   2.181   1.665   8.043  0.0720  0.1467  0.0302
 1193TIP3    H125138   2.195   1.706   8.128  2.1884  1.0226 -0.6821
 1193TIP3    H225139   2.166   1.737   7.982 -2.4416 -0.5075 -0.2522
 1194TIP3   OH225140   3.856   0.794   7.305  0.3297  0.4783 -0.9303
 1194TIP3    H125141   3.945   0.827   7.314  0.4725 -0.0587 -0.3303
 1194TIP3    H225142   3.858   0.706   7.342 -0.8857  1.1835  0.9646
 1195TIP3   OH225143   2.739   2.615   0.269  0.1695  0.0575  0.4659
 1195TIP3    H125144   2.833   2.607   0.282  0.5261 -1.0490 -2.1313
 1195TIP3    H225145   2.706   2.525   0.274 -0.2195  0.0258 -1.5965
 1196TIP3   OH225146   2.448   1.471   7.367  0.3862  0.0274 -0.4249
 1196TIP3    H125147   2.396   1.482   7.447 -1.2980 -0.8493 -1.3383
 1196TIP3    H225148   2.414   1.538   7.307  0.5535 -0.3107 -0.9047
 1197TIP3   OH225149   2.098   4.673   6.336 -0.3520 -0.0749  0.5917
 1197TIP3    H125150   2.124   4.721   6.257  1.3832  1.3568  1.9446
 1197TIP3    H225151   2.179   4.665   6.386 -0.8287 -3.3255  1.0786
 1198TIP3   OH225152   1.790   0.082   7.998 -0.8808  0.5650 -0.1580
 1198TIP3    H125153   1.855   0.013   7.988 -0.0547  1.3408 -0.2150
 1198TIP3    H225154   1.738   0.078   7.917 -0.9261 -0.0635 -0.1037
 1199TIP3   OH225155   2.064   1.296   0.796 -0.0323 -0.4152 -0.1560
 1199TIP3    H125156   2.054   1.208   0.761  1.7573 -0.3737 -0.8862
 1199TIP3    H225157   2.112   1.284   0.878  0.5742 -0.0886 -0.4618
 1200TIP3   OH225158   5.489   6.729   0.988  1.2603  0.2043  0.0331
 1200TIP3    H125159   5.467   6.670   0.915  2.5646  0.8182 -0.9163
 1200TIP3    H225160   5.556   6.682   1.037 -0.0988 -0.5011  1.2928
 1201TIP3   OH225161   0.181   6.529   7.128  0.3998 -0.4251 -0.1979
 1201TIP3    H125162   0.264   6.501   7.088 -0.0822 -1.6246 -0.3901
 1201TIP3    H225163   0.126   6.555   7.053 -0.2341 -1.9422 -0.2854
 1202TIP3   OH225164   0.445   2.544   8.514  0.0533  0.0868  0.2553
 1202TIP3    H125165   0.392   2.605   8.566  0.1325  0.5049 -0.1478
 1202TIP3    H225166   0.527   2.537   8.562  0.7305  1.6936 -0.5967
 1203TIP3   OH225167   6.768   5.716   6.968 -0.2292 -0.2407 -0.5076
 1203TIP3    H125168   6.769   5.620   6.968 -0.1372 -0.2638 -1.8863
 1203TIP3    H225169   6.859   5.741   6.953 -0.1047  0.1026  0.6793
 1204TIP3   OH225170   6.217   3.509   7.709 -0.0554  0.1703 -0.4786
 1204TIP3    H125171   6.134   3.554   7.727 -0.4637 -0.8820  0.3542
 1204TIP3    H225172   6.278   3.580   7.691 -1.1056  0.9718 -1.0234
 1205TIP3   OH225173   5.984   1.917   1.759  0.6183 -0.0670  0.0127
 1205TIP3    H125174   5.906   1.936   1.811  0.2734  0.2364 -0.6025
 1205TIP3    H225175   6.037   1.860   1.814 -1.1601 -2.3421 -0.4864
 1206TIP3   OH225176   2.980   3.933   6.713 -0.5304 -0.3086 -0.4384
 1206TIP3    H125177   3.047   3.981   6.665  1.2649 -1.9078  0.3539
 1206TIP3    H225178   2.900   3.948   6.663  0.2859  2.0097 -1.1848
 1207TIP3   OH225179   3.675   1.748   1.042 -0.3615 -1.2443  0.1952
 1207TIP3    H125180   3.742   1.803   1.002 -0.2489  0.3800  2.4594
 1207TIP3    H225181   3.608   1.809   1.073 -2.1702 -2.7122 -0.6108
 1208TIP3   OH225182   0.693   1.419   7.965  0.2135 -0.1241 -0.3290
 1208TIP3    H125183   0.685   1.356   7.893  0.3969 -0.1444 -0.3332
 1208TIP3    H225184   0.604   1.447   7.983  0.2838  1.0939 -1.6583
 1209TIP3   OH225185   0.134   3.759   7.491  0.0821 -0.1287 -0.6826
 1209TIP3    H125186   0.042   3.760   7.463 -0.2454 -1.6214  0.2299
 1209TIP3    H225187   0.146   3.843   7.536 -0.9703 -0.1035 -0.4153
 1210TIP3   OH225188   3.228   0.076   8.005  1.2632 -0.1779  0.3511
 1210TIP3    H125189   3.225  -0.018   8.024 -1.2821 -0.2036  0.1211
 1210TIP3    H225190   3.145   0.110   8.038  1.1497  1.6026 -1.5707
 1211TIP3   OH225191   3.791   3.774   6.880 -0.0237 -0.0727 -0.4949
 1211TIP3    H125192   3.861   3.822   6.835  0.6381  2.0594  2.4711
 1211TIP3    H225193   3.736   3.843   6.918 -0.6437 -1.6632  1.6721
 1212TIP3   OH225194   3.602   4.718   8.164 -0.6621  0.2555  0.0806
 1212TIP3    H125195   3.606   4.628   8.129 -1.8630  0.6359 -1.1270
 1212TIP3    H225196   3.693   4.746   8.166 -0.4572  0.2838 -3.1533
 1213TIP3   OH225197   6.060   2.107   0.579 -0.1046 -0.2137 -0.5309
 1213TIP3    H125198   6.109   2.047   0.636 -0.0650  0.2759 -0.0459
 1213TIP3    H225199   5.990   2.140   0.635 -0.5754 -0.3729 -1.0174
 1214TIP3   OH225200   4.781   1.778   6.961 -0.4160  0.5892 -0.4629
 1214TIP3    H125201   4.777   1.728   6.879 -0.5557  0.2264 -0.2369
 1214TIP3    H225202   4.693   1.814   6.972 -0.9428 -0.8811  0.4611
 1215TIP3   OH225203   2.554   5.227   6.046 -0.5085  0.4236 -0.3490
 1215TIP3    H125204   2.623   5.161   6.042 -0.6398  0.3545 -2.7179
 1215TIP3    H225205   2.591   5.298   6.098  0.2355 -0.8100  0.8568
 1216TIP3   OH225206   6.080   6.476   7.806  0.7761 -0.2568  0.3578
 1216TIP3    H125207   6.172   6.502   7.806  0.6386  0.2348  0.1843
 1216TIP3    H225208   6.057   6.470   7.899  0.4130  1.6731  0.4198
 1217TIP3   OH225209   0.478   2.791   8.275 -0.1608  0.2616  0.1057
 1217TIP3    H125210   0.515   2.760   8.358 -2.4436  0.1256  1.1577
 1217TIP3    H225211   0.446   2.880   8.295  0.9281  0.9730 -1.1874
 1218TIP3   OH225212   6.165   5.311   0.958 -0.0628  0.2494  0.6021
 1218TIP3    H125213   6.251   5.292   0.923 -0.4255 -0.1689 -0.0787
 1218TIP3    H225214   6.106   5.251   0.912 -0.6207  0.0142  1.5795
 1219TIP3   OH225215   3.603   4.974   8.476  0.6236  0.1109  0.0313
 1219TIP3    H125216   3.523   4.962   8.527  0.5069 -0.1666 -0.2146
 1219TIP3    H225217   3.665   5.013   8.538 -0.0154  1.3209 -0.0462
 1220TIP3   OH225218   3.354   3.994   7.843 -0.1474  0.4483 -0.0777
 1220TIP3    H125219   3.372   4.088   7.833  0.0376  0.2459 -1.8438
 1220TIP3    H225220   3.440   3.953   7.847 -0.1928  0.4387  2.1835
 1221TIP3   OH225221   2.332   0.338   0.626 -0.0458  0.1947  0.3344
 1221TIP3    H125222   2.421   0.331   0.662 -0.0620 -0.4148  0.2738
 1221TIP3    H225223   2.310   0.431   0.634  0.1694  0.1673  1.3798
 1222TIP3   OH225224   1.250   1.432   6.805 -0.1317 -0.2029 -0.5491
 1222TIP3    H125225   1.331   1.439   6.856  0.3877 -4.0187 -0.5224
 1222TIP3    H225226   1.279   1.431   6.714 -0.2922 -0.1174 -0.6011
 1223TIP3   OH225227   2.787   3.935   0.016  0.2138 -0.1975 -0.0935
 1223TIP3    H125228   2.736   3.854   0.012 -0.3146 -0.0957  2.6194
 1223TIP3    H225229   2.875   3.907   0.041 -0.3969  0.0851  2.6815
 1224TIP3   OH225230   3.087   0.742   2.142  0.3069 -0.3132 -0.0192
 1224TIP3    H125231   3.161   0.730   2.203  0.9717 -1.4154 -1.0049
 1224TIP3    H225232   3.044   0.656   2.140  0.2020 -0.2454 -0.9707
 1225TIP3   OH225233   6.771   0.029   8.408  0.6753 -0.5633 -0.5984
 1225TIP3    H125234   6.765  -0.066   8.408  1.8215 -0.6581 -0.6055
 1225TIP3    H225235   6.681   0.060   8.406  0.2666 -1.6414  0.4838
 1226TIP3   OH225236   3.732   0.339   8.556 -0.5933  0.2774  0.3242
 1226TIP3    H125237   3.646   0.320   8.519 -0.1729 -0.7816 -0.1493
 1226TIP3    H225238   3.714   0.398   8.629 -1.7801 -0.3282  0.5522
 1227TIP3   OH225239   6.773   1.457   1.414 -0.1223  0.0345  0.4253
 1227TIP3    H125240   6.795   1.371   1.379  1.1074  1.7814 -3.6386
 1227TIP3    H225241   6.679   1.451   1.433 -0.4211 -1.7559 -1.2742
 1228TIP3   OH225242   3.299   4.933   8.234 -0.6540 -0.5386  0.2877
 1228TIP3    H125243   3.361   4.907   8.302  0.8516 -1.7271 -1.4722
 1228TIP3    H225244   3.280   4.852   8.187 -0.2678  0.5502 -1.8266
 1229TIP3   OH225245   5.477   3.302   1.131 -0.6870 -0.1433 -0.0927
 1229TIP3    H125246   5.541   3.369   1.108 -2.0675  0.9161 -1.0921
 1229TIP3    H225247   5.503   3.272   1.218  1.3885 -0.0935 -0.6660
 1230TIP3   OH225248   6.534   3.918   1.346  0.5018 -0.4085 -0.2518
 1230TIP3    H125249   6.442   3.919   1.319 -0.1123 -1.6568  1.6027
 1230TIP3    H225250   6.576   3.858   1.285 -0.1086 -0.5726 -0.5214
 1231TIP3   OH225251   4.278   4.066   1.685 -0.2143 -0.4475  0.0142
 1231TIP3    H125252   4.334   4.143   1.677  0.2018 -0.7888 -0.4030
 1231TIP3    H225253   4.225   4.066   1.606 -1.5573  0.4496  0.8759
 1232TIP3   OH225254   1.796   5.105   7.858  0.1909  0.3541  0.1452
 1232TIP3    H125255   1.758   5.038   7.915 -1.1010  1.6376  0.8645
 1232TIP3    H225256   1.722   5.139   7.808  1.0904  0.1576 -1.3943
 1233TIP3   OH225257   4.114   0.428   2.385 -0.1513  0.0436  0.5982
 1233TIP3    H125258   4.096   0.522   2.378  0.6081  0.2505  1.1883
 1233TIP3    H225259   4.209   0.422   2.374 -0.3312 -0.8019 -0.7094
 1234TIP3   OH225260   4.990   6.498   7.249  0.6532 -0.3275 -0.2337
 1234TIP3    H125261   4.931   6.448   7.192 -1.5202  1.0133  0.7172
 1234TIP3    H225262   5.043   6.431   7.292 -0.9687 -1.7176 -0.2800
 1235TIP3   OH225263   5.534   1.993   7.754  0.2017  0.4301 -0.4687
 1235TIP3    H125264   5.627   1.987   7.735  0.3442  0.2233  0.2749
 1235TIP3    H225265   5.514   1.914   7.805 -0.5698  0.0149 -1.3772
 1236TIP3   OH225266   6.132   5.164   7.845 -0.1024  0.3745 -0.2137
 1236TIP3    H125267   6.178   5.191   7.766  0.5454  1.3615  0.4840
 1236TIP3    H225268   6.056   5.115   7.813  0.5911  0.0475 -1.4180
 1237TIP3   OH225269   3.612   1.166   7.772  0.2666 -0.7243 -0.5407
 1237TIP3    H125270   3.664   1.167   7.852  0.0246  0.0764 -0.3805
 1237TIP3    H225271   3.524   1.142   7.802 -0.0538  0.5413 -0.3967
 1238TIP3   OH225272   5.667   1.420   0.604  0.3076  0.5005 -0.4631
 1238TIP3    H125273   5.712   1.339   0.629 -1.3634 -0.5752 -0.7858
 1238TIP3    H225274   5.666   1.419   0.509  0.0498  0.7846 -0.4640
 1239TIP3   OH225275   0.091   2.849   7.852 -0.4850  0.0793 -0.0362
 1239TIP3    H125276   0.128   2.851   7.763 -0.0305 -0.0660  0.1443
 1239TIP3    H225277   0.150   2.790   7.900 -0.2264  0.8407  0.5873
 1240TIP3   OH225278   4.469   4.488   6.973  0.4723 -0.0040 -0.0401
 1240TIP3    H125279   4.563   4.489   6.955  0.1633 -1.8496 -2.1918
 1240TIP3    H225280   4.428   4.501   6.888 -1.2544  0.3416  0.7898
 1241TIP3   OH225281   5.694   2.710   0.290  0.7024  0.3206  0.5298
 1241TIP3    H125282   5.700   2.652   0.366  1.9147  1.3824  1.2932
 1241TIP3    H225283   5.774   2.763   0.294 -0.3366  2.0289 -0.1424
 1242TIP3   OH225284   2.155   2.060   0.009  0.3190  0.8856  0.5346
 1242TIP3    H125285   2.124   2.150   0.013 -0.0040  0.9285 -1.7961
 1242TIP3    H225286   2.119   2.019   0.088 -1.3571  2.2478  0.5266
 1243TIP3   OH225287   3.852   1.922   7.379  0.4959  0.1803  0.0514
 1243TIP3    H125288   3.942   1.890   7.370  0.8075  0.8481  0.7422
 1243TIP3    H225289   3.834   1.966   7.296  2.0271  3.0045  1.0654
 1244TIP3   OH225290   4.814   4.949   0.575 -0.3815  0.1159  0.4499
 1244TIP3    H125291   4.788   5.027   0.525  0.1348 -0.4663 -0.7821
 1244TIP3    H225292   4.757   4.880   0.542  1.4624 -0.7967 -1.0697
 1245TIP3   OH225293   2.750   0.500   8.430  0.1061  0.5381  0.1061
 1245TIP3    H125294   2.667   0.544   8.449  0.2183  2.1102 -2.5550
 1245TIP3    H225295   2.736   0.409   8.458 -2.2186  0.9318  0.4014
 1246TIP3   OH225296   4.542   1.155   2.313 -0.1245 -0.0936  0.5621
 1246TIP3    H125297   4.453   1.170   2.281  0.5959  1.0602 -1.0568
 1246TIP3    H225298   4.598   1.166   2.236  1.4585 -0.4136  1.6036
 1247TIP3   OH225299   1.146   6.198   8.170 -0.0632  0.7918 -0.1594
 1247TIP3    H125300   1.236   6.221   8.194 -0.4184 -0.3370  2.6274
 1247TIP3    H225301   1.145   6.201   8.074  2.8689  1.0493 -0.2706
 1248TIP3   OH225302   5.722   4.065   7.081 -0.4355  0.1038 -0.2293
 1248TIP3    H125303   5.654   4.095   7.141 -1.7317 -1.1466 -1.0128
 1248TIP3    H225304   5.769   3.997   7.128 -0.7906 -0.1586 -0.2466
 1249TIP3   OH225305   1.261   0.658   8.485 -0.0332  0.2261  0.0468
 1249TIP3    H125306   1.185   0.630   8.434 -1.5960  1.3648  1.6325
 1249TIP3    H225307   1.248   0.618   8.571  0.2286  1.8144  0.8609
 1250TIP3   OH225308   0.607   4.044   7.213 -0.1896  0.3189 -0.3719
 1250TIP3    H125309   0.545   4.042   7.286  2.5107 -1.3238  2.1160
 1250TIP3    H225310   0.575   3.976   7.153 -1.7994  0.8442 -0.1570
 1251TIP3   OH225311   4.744   3.746   1.057  0.1486 -0.1254 -0.0153
 1251TIP3    H125312   4.818   3.772   1.112  1.8044 -0.5624 -1.9327
 1251TIP3    H225313   4.682   3.819   1.065  1.3370  0.8615  0.6340
 1252TIP3   OH225314   5.470   1.817   7.955  0.0845  0.1532  0.3237
 1252TIP3    H125315   5.384   1.844   7.985 -0.5049  0.9251 -1.9484
 1252TIP3    H225316   5.458   1.727   7.925 -0.0488  0.4255 -0.4448
 1253TIP3   OH225317   2.786   5.278   7.876  0.7361 -0.3061  0.1672
 1253TIP3    H125318   2.739   5.199   7.851 -0.4529 -0.1942  1.8488
 1253TIP3    H225319   2.809   5.320   7.793 -2.9682  0.1077 -0.8254
 1254TIP3   OH225320   2.378   6.713   6.943 -0.5051  0.4704  0.3147
 1254TIP3    H125321   2.372   6.620   6.923 -2.1560  0.6728 -0.3306
 1254TIP3    H225322   2.343   6.756   6.865  2.2225  1.7730 -0.3328
 1255TIP3   OH225323   3.004   6.186   0.763  0.2884  0.2296  0.1959
 1255TIP3    H125324   3.051   6.269   0.766  0.6937  0.0350 -0.7045
 1255TIP3    H225325   2.933   6.197   0.827 -1.3077  2.2878 -1.7568
 1256TIP3   OH225326   1.287   0.301   1.881 -0.2450  0.1360  0.0772
 1256TIP3    H125327   1.301   0.355   1.803  0.9067  0.4538  0.4828
 1256TIP3    H225328   1.316   0.356   1.954 -1.7369  0.0197  0.8005
 1257TIP3   OH225329   3.567   0.646   0.578  0.1741  0.2336  0.3375
 1257TIP3    H125330   3.625   0.574   0.603  0.1750 -0.2652 -1.0251
 1257TIP3    H225331   3.627   0.717   0.553  0.3790 -1.0351 -3.3275
 1258TIP3   OH225332   1.676   6.361   7.417  0.2888  0.4314 -0.1951
 1258TIP3    H125333   1.647   6.416   7.489  1.0622  0.5714  0.0216
 1258TIP3    H225334   1.747   6.308   7.454  1.5837  1.4022 -1.1392
 1259TIP3   OH225335   2.541   1.148   6.542  0.0885  0.2838  0.5162
 1259TIP3    H125336   2.617   1.205   6.540  0.7717 -0.6301  0.0768
 1259TIP3    H225337   2.576   1.059   6.537 -0.9458 -0.2052  1.3057
 1260TIP3   OH225338   3.108   4.014   0.847  0.3444 -0.1104 -0.0497
 1260TIP3    H125339   3.129   3.927   0.880  0.4045 -0.3495 -0.6974
 1260TIP3    H225340   3.022   4.005   0.807  0.4563  0.0629 -0.3379
 1261TIP3   OH225341   0.771   5.258   0.869 -0.3177 -0.4243  0.1677
 1261TIP3    H125342   0.808   5.316   0.936  0.7614 -1.0805  0.1671
 1261TIP3    H225343   0.781   5.170   0.904  0.0264 -0.7592 -0.7289
 1262TIP3   OH225344   0.501   1.277   6.537 -0.1039 -0.9251  0.2904
 1262TIP3    H125345   0.513   1.323   6.620  0.6531  1.3678 -0.9987
 1262TIP3    H225346   0.589   1.243   6.516  0.2333  0.4289 -0.5966
 1263TIP3   OH225347   4.349   6.625   8.403 -0.0502  0.1965 -0.3320
 1263TIP3    H125348   4.320   6.635   8.493 -0.5238  0.0674 -0.4694
 1263TIP3    H225349   4.268   6.621   8.351  0.2072  1.9950 -0.9614
 1264TIP3   OH225350   4.480   2.815   0.500  0.2739 -0.0256  0.1092
 1264TIP3    H125351   4.454   2.737   0.451  1.5415 -0.7564  0.5515
 1264TIP3    H225352   4.399   2.846   0.540 -0.1091 -1.6723  0.7064
 1265TIP3   OH225353   4.323   0.620   7.295 -0.2441  0.9826  0.1122
 1265TIP3    H125354   4.379   0.545   7.273  0.1460  1.3685 -0.2289
 1265TIP3    H225355   4.269   0.632   7.217 -0.9282  0.5106  0.4990
 1266TIP3   OH225356   5.534   1.628   1.314 -0.2860 -0.0983  0.4944
 1266TIP3    H125357   5.524   1.723   1.326 -1.5085 -0.2752  1.0578
 1266TIP3    H225358   5.612   1.619   1.260  0.2753  1.1966  1.0373
 1267TIP3   OH225359   1.946   0.377   1.310  0.1971  0.4956  0.4143
 1267TIP3    H125360   1.922   0.329   1.388 -1.3563  0.2506 -0.1841
 1267TIP3    H225361   1.999   0.451   1.342 -0.1415  0.2186  1.6398
 1268TIP3   OH225362   0.547   0.536   2.329 -0.7108  0.0906  0.3576
 1268TIP3    H125363   0.513   0.555   2.417  0.7239  2.5493  0.4869
 1268TIP3    H225364   0.539   0.619   2.282  1.2166 -0.3627 -0.8865
 1269TIP3   OH225365   6.025   5.346   1.448  0.0585 -0.0899 -0.6075
 1269TIP3    H125366   5.943   5.388   1.475 -0.4783  0.4860 -2.9465
 1269TIP3    H225367   6.092   5.411   1.470 -0.3764  0.4459 -0.8193
 1270TIP3   OH225368   0.224   5.233   1.535 -0.2395  0.0352  0.0198
 1270TIP3    H125369   0.235   5.327   1.522  0.1636 -0.0018  0.0902
 1270TIP3    H225370   0.144   5.225   1.587 -0.8693  0.2831 -0.8841
 1271TIP3   OH225371   5.499   2.678   6.933  0.0953  0.4568 -0.0823
 1271TIP3    H125372   5.492   2.728   6.852  2.4894 -2.2401 -2.2031
 1271TIP3    H225373   5.593   2.678   6.954  0.1439 -2.3563  0.1779
 1272TIP3   OH225374   0.436   0.475   6.101  0.1411  0.2012  0.3339
 1272TIP3    H125375   0.401   0.467   6.189 -1.8410  0.9888 -0.3253
 1272TIP3    H225376   0.411   0.394   6.057  2.1671 -0.7249  0.7753
 1273TIP3   OH225377   0.339   1.471   1.219  0.0958  0.3778  0.1361
 1273TIP3    H125378   0.403   1.542   1.222 -0.6786  1.1100 -0.3667
 1273TIP3    H225379   0.315   1.457   1.311 -0.8844  1.8363  0.1340
 1274TIP3   OH225380   1.215   0.490   0.214  0.5617 -0.4447 -0.0657
 1274TIP3    H125381   1.246   0.575   0.246  0.1580 -0.1766 -0.3783
 1274TIP3    H225382   1.244   0.427   0.281 -0.0958  0.0768  0.7345
 1275TIP3   OH225383   5.117   5.926   8.774  0.5596  0.0129  0.4452
 1275TIP3    H125384   5.177   5.852   8.790  0.3632 -0.0554  0.8742
 1275TIP3    H225385   5.071   5.902   8.694  1.7736  0.4967 -0.4173
 1276TIP3   OH225386   0.938   0.188   0.000  0.0294 -0.6024  0.3367
 1276TIP3    H125387   0.861   0.199  -0.056 -1.1026 -0.7259  1.8127
 1276TIP3    H225388   0.926   0.103   0.041  1.5945 -1.1784 -0.3148
 1277TIP3   OH225389   3.699   6.464   8.730  0.5788 -0.3030  0.4264
 1277TIP3    H125390   3.613   6.502   8.712  0.7852 -1.0338 -2.7026
 1277TIP3    H225391   3.681   6.384   8.779 -0.5757 -0.5770 -0.4113
 1278TIP3   OH225392   6.269   2.083   8.002  0.1539 -0.4871  0.0760
 1278TIP3    H125393   6.265   2.179   8.005  1.3011 -0.3867 -0.8234
 1278TIP3    H225394   6.221   2.055   8.080 -0.8878  0.7920 -0.0556
 1279TIP3   OH225395   1.815   6.212   0.471 -0.0042 -0.7068  0.1411
 1279TIP3    H125396   1.871   6.282   0.504 -0.6637  0.1418 -0.4954
 1279TIP3    H225397   1.876   6.141   0.449  0.5767 -0.7332  1.7212
 1280TIP3   OH225398   3.294   6.255   7.552  0.1006  0.6808 -0.2795
 1280TIP3    H125399   3.232   6.235   7.481 -0.1336  2.1401 -0.5255
 1280TIP3    H225400   3.378   6.266   7.508  0.7061 -1.8059  0.1128
 1281TIP3   OH225401   5.145   2.941   7.952  0.4874  0.9133 -0.1485
 1281TIP3    H125402   5.183   2.857   7.926  2.1223  1.8035 -0.8240
 1281TIP3    H225403   5.218   2.989   7.990 -0.7434  1.5361  1.5416
 1282TIP3   OH225404   4.525   4.932   8.819 -0.4293 -0.4698  0.1217
 1282TIP3    H125405   4.545   4.844   8.788 -0.2024 -0.4535  0.2152
 1282TIP3    H225406   4.567   4.991   8.756 -1.3628 -0.4111 -0.4606
 1283TIP3   OH225407   2.481   5.476   1.165  0.5259 -0.3909  1.2481
 1283TIP3    H125408   2.543   5.404   1.166  0.2966 -0.6359 -0.2543
 1283TIP3    H225409   2.415   5.450   1.101 -0.9058  0.0620  2.4684
 1284TIP3   OH225410   6.397   0.825   7.622 -0.2989  0.7852 -0.7896
 1284TIP3    H125411   6.352   0.866   7.696  0.1264  1.5301 -0.9373
 1284TIP3    H225412   6.434   0.898   7.573  0.4657  0.2208 -1.0662
 1285TIP3   OH225413   6.523   0.796   8.597  0.1363  0.1655 -0.2659
 1285TIP3    H125414   6.453   0.755   8.650 -0.7252  1.5895 -0.2589
 1285TIP3    H225415   6.574   0.846   8.660 -0.4924  1.3280 -0.6504
 1286TIP3   OH225416   1.054   2.603   1.393  0.4864 -0.3527 -0.2626
 1286TIP3    H125417   0.984   2.620   1.331 -1.6171  1.7487  2.4233
 1286TIP3    H225418   1.046   2.509   1.413 -1.6544 -0.1654  0.0128
 1287TIP3   OH225419   4.755   2.298   7.290  0.7359  0.1019  0.6520
 1287TIP3    H125420   4.848   2.277   7.300  0.2985 -1.8847  0.8773
 1287TIP3    H225421   4.753   2.362   7.219  2.1664 -0.8751 -0.3294
 1288TIP3   OH225422   5.045   0.863   7.100 -0.1951 -0.5210 -0.3328
 1288TIP3    H125423   5.055   0.819   7.185  1.5631 -0.1024 -0.2823
 1288TIP3    H225424   4.957   0.900   7.102  0.0588  0.0736  1.6113
 1289TIP3   OH225425   6.207   5.313   0.377 -0.0016  0.1097 -0.1217
 1289TIP3    H125426   6.192   5.386   0.317  0.8798  0.8234  0.4980
 1289TIP3    H225427   6.302   5.305   0.383 -0.0728 -0.2310  0.8402
 1290TIP3   OH225428   1.163   1.231   1.022 -0.1641 -0.0975 -0.5483
 1290TIP3    H125429   1.084   1.280   1.042  1.3551  1.9128  0.8854
 1290TIP3    H225430   1.226   1.297   0.994  0.8543 -1.7160 -2.3572
 1291TIP3   OH225431   3.042   5.425   6.180  0.0609  0.4095 -0.2388
 1291TIP3    H125432   2.961   5.376   6.188  0.4603 -0.2268 -0.0686
 1291TIP3    H225433   3.021   5.511   6.216 -0.5133  0.2249 -0.1230
 1292TIP3   OH225434   3.416   6.276   0.304 -0.4102 -0.3286 -0.3238
 1292TIP3    H125435   3.457   6.208   0.358 -2.5691 -1.1795  0.3736
 1292TIP3    H225436   3.359   6.227   0.244 -0.9138  0.7991 -0.7893
 1293TIP3   OH225437   6.213   2.262   1.244 -0.2951  0.1222 -0.1146
 1293TIP3    H125438   6.156   2.337   1.261 -0.7677 -0.2056 -0.2005
 1293TIP3    H225439   6.253   2.242   1.328 -0.1364  0.4974 -0.1008
 1294TIP3   OH225440   2.646   3.401   8.476 -0.0302  0.0602  0.0580
 1294TIP3    H125441   2.688   3.471   8.426 -0.3694  0.7422  0.7121
 1294TIP3    H225442   2.568   3.379   8.425 -0.6118  1.0562  0.4822
 1295TIP3   OH225443   2.012   6.449   8.370 -0.2838 -0.1060 -0.2825
 1295TIP3    H125444   1.995   6.383   8.438  0.6160  0.1953  0.2431
 1295TIP3    H225445   1.985   6.531   8.410  0.4531  0.1012 -0.1970
 1296TIP3   OH225446   6.175   6.361   0.718 -0.3214 -0.1959 -0.0111
 1296TIP3    H125447   6.267   6.363   0.693 -0.0383 -1.2950  0.8579
 1296TIP3    H225448   6.175   6.374   0.813 -1.0270 -0.5713  0.0541
 1297TIP3   OH225449   6.713   3.745   0.881  0.1955  0.4120  0.5260
 1297TIP3    H125450   6.700   3.728   0.975 -0.6052 -0.4452  0.2746
 1297TIP3    H225451   6.691   3.662   0.839 -0.9592  1.2353 -0.5438
 1298TIP3   OH225452   0.376   6.197   8.455 -0.6981 -0.3066 -0.4607
 1298TIP3    H125453   0.387   6.114   8.409  1.3611 -0.6599  0.5614
 1298TIP3    H225454   0.458   6.244   8.441 -0.4834  0.1015  1.7033
 1299TIP3   OH225455   2.045   4.121   7.734 -0.3011  0.3645 -0.1114
 1299TIP3    H125456   1.999   4.071   7.666  0.3618  0.3253 -0.5464
 1299TIP3    H225457   2.016   4.211   7.721  1.0391  0.6410 -1.5325
 1300TIP3   OH225458   3.781   1.994   0.110 -0.2562 -0.1845 -0.4867
 1300TIP3    H125459   3.787   1.940   0.031  3.4261  2.1475 -2.0823
 1300TIP3    H225460   3.822   2.077   0.085 -0.9203  1.4857  3.3133
 1301TIP3   OH225461   2.416   6.136   8.338 -0.7977  0.5934 -0.2594
 1301TIP3    H125462   2.440   6.089   8.417  1.1286 -0.5856 -1.4672
 1301TIP3    H225463   2.412   6.228   8.364  1.2993  0.4053  0.9186
 1302TIP3   OH225464   5.979   5.762   0.998 -0.4733  0.0936  0.1186
 1302TIP3    H125465   5.910   5.718   0.948 -2.0627 -0.1309  2.3523
 1302TIP3    H225466   6.057   5.709   0.984 -1.6794 -1.8571  0.5002
 1303TIP3   OH225467   4.244   2.468   0.482 -0.1211  0.1878  0.1344
 1303TIP3    H125468   4.325   2.468   0.432 -0.1027  0.3256  0.1635
 1303TIP3    H225469   4.264   2.520   0.560 -0.2804  0.3417  0.0725
 1304TIP3   OH225470   5.466   0.654   2.255  0.4467 -0.2558 -0.6755
 1304TIP3    H125471   5.414   0.699   2.321  0.3567 -0.1244 -0.8347
 1304TIP3    H225472   5.512   0.586   2.303  0.0482 -0.4410 -0.5498
 1305TIP3   OH225473   3.023   4.875   2.182  0.5514 -0.6780  0.1038
 1305TIP3    H125474   2.984   4.916   2.259  2.3721 -0.8236  1.1635
 1305TIP3    H225475   3.069   4.798   2.216 -1.5525 -2.8466 -1.6509
 1306TIP3   OH225476   0.832   2.274   7.928  0.0425 -0.2273 -0.0953
 1306TIP3    H125477   0.848   2.361   7.963  0.2192 -0.1943 -0.2547
 1306TIP3    H225478   0.861   2.214   7.997  2.7991 -0.2093 -1.1355
 1307TIP3   OH225479   5.011   4.727   8.166 -0.3182  0.1704  0.1688
 1307TIP3    H125480   5.014   4.823   8.169  0.3294  0.1680 -0.2773
 1307TIP3    H225481   4.926   4.705   8.203 -0.4738  0.9189  0.2768
 1308TIP3   OH225482   3.685   3.242   8.286  0.6618 -0.0722  0.2480
 1308TIP3    H125483   3.672   3.337   8.291  1.7277  0.0127  2.0722
 1308TIP3    H225484   3.696   3.214   8.377 -0.7106 -2.1273 -0.1393
 1309TIP3   OH225485   5.745   1.490   8.617  0.1501  0.1987  0.1073
 1309TIP3    H125486   5.660   1.520   8.584  0.7337  0.9018 -0.7981
 1309TIP3    H225487   5.727   1.403   8.653 -1.3408  1.1162  1.7362
 1310TIP3   OH225488   6.017   4.660   0.515 -0.3673 -0.2620  0.2599
 1310TIP3    H125489   5.957   4.721   0.471 -0.0191 -0.0265  0.1084
 1310TIP3    H225490   6.079   4.717   0.561  0.4082 -0.4998 -0.4799
 1311TIP3   OH225491   2.231   4.596   1.198 -0.1670  0.1065 -0.3674
 1311TIP3    H125492   2.298   4.609   1.265 -1.1534 -0.3770  0.7673
 1311TIP3    H225493   2.179   4.676   1.201 -0.5886 -0.1703 -0.0859
 1312TIP3   OH225494   2.637   4.552   0.239  0.2539 -0.0610 -0.2966
 1312TIP3    H125495   2.622   4.624   0.300 -1.3700 -0.2744 -0.4139
 1312TIP3    H225496   2.623   4.473   0.292 -0.1234 -0.2592 -0.6873
 1313TIP3   OH225497   5.288   3.994   0.812 -0.2583 -0.3807 -0.1089
 1313TIP3    H125498   5.375   3.986   0.772 -0.8566  1.4534 -1.9830
 1313TIP3    H225499   5.274   4.089   0.819 -1.6629 -0.6579  1.2118
 1314TIP3   OH225500   0.942   2.528   0.955 -0.2353 -0.0888  0.2477
 1314TIP3    H125501   1.027   2.499   0.920 -0.2652  0.8187 -0.6256
 1314TIP3    H225502   0.878   2.487   0.898 -0.2840  1.4580 -0.8778
 1315TIP3   OH225503   3.812   1.261   6.856  0.5783 -0.6860 -0.2700
 1315TIP3    H125504   3.869   1.211   6.797  1.4203  1.0408 -1.0010
 1315TIP3    H225505   3.793   1.342   6.808  0.5315  0.3798  1.4567
 1316TIP3   OH225506   2.816   2.867   0.774  0.2001 -0.2317  0.2200
 1316TIP3    H125507   2.856   2.863   0.860 -1.3458 -0.4842  0.9633
 1316TIP3    H225508   2.805   2.961   0.757  1.7981 -0.1281 -0.3552
 1317TIP3   OH225509   1.559   3.030   8.121 -0.4537  0.1295 -0.5864
 1317TIP3    H125510   1.543   2.955   8.063  3.1156  0.9840 -3.0415
 1317TIP3    H225511   1.512   3.103   8.080  0.8782  0.4149 -1.6755
 1318TIP3   OH225512   1.167   5.176   1.110 -0.0569  0.4806  0.2814
 1318TIP3    H125513   1.100   5.150   1.174 -0.8334  0.3642 -0.5662
 1318TIP3    H225514   1.235   5.109   1.119 -1.7909 -1.6913 -1.4990
 1319TIP3   OH225515   1.313   6.060   8.737  0.1577  0.4185 -0.1260
 1319TIP3    H125516   1.373   6.087   8.667  1.2427  0.5092  0.7996
 1319TIP3    H225517   1.230   6.045   8.693 -0.1044  3.5946 -0.9931
 1320TIP3   OH225518   0.969   1.170   2.207 -0.2693 -0.2703 -0.1521
 1320TIP3    H125519   1.031   1.205   2.143 -0.8529 -1.7116 -1.5772
 1320TIP3    H225520   0.883   1.180   2.166 -0.5362 -2.5522 -0.3158
 1321TIP3   OH225521   6.043   5.282   2.378 -0.6263  0.2246 -0.8375
 1321TIP3    H125522   5.950   5.302   2.366 -0.2752  1.6866 -1.3859
 1321TIP3    H225523   6.086   5.325   2.304  0.4562 -0.7860 -0.8234
 1322TIP3   OH225524   6.433   2.385   8.076 -1.2738  0.2370  0.4215
 1322TIP3    H125525   6.498   2.315   8.083 -1.1550  0.1935 -0.7991
 1322TIP3    H225526   6.432   2.426   8.162  1.1272  0.8782  0.2212
 1323TIP3   OH225527   1.001   2.212   0.599  0.1229  0.0115 -0.1024
 1323TIP3    H125528   1.075   2.155   0.578  1.0792  0.2941  2.1606
 1323TIP3    H225529   0.939   2.154   0.643  1.3747  0.6480  2.7995
 1324TIP3   OH225530   3.151   6.077   2.498  0.7471  0.2068 -0.1953
 1324TIP3    H125531   3.101   6.033   2.429  0.1928 -0.0483  0.3606
 1324TIP3    H225532   3.096   6.070   2.576  1.0361  1.1378  0.1036
 1325TIP3   OH225533   4.499   5.453   0.508  0.2911  0.2913  0.1785
 1325TIP3    H125534   4.481   5.444   0.601  0.6904 -2.8044  0.0486
 1325TIP3    H225535   4.414   5.441   0.466  0.2687  0.7121  0.1006
 1326TIP3   OH225536   4.542   5.038   0.756  0.5400 -0.5069 -0.0326
 1326TIP3    H125537   4.495   4.955   0.747  0.3466 -0.3685 -0.3051
 1326TIP3    H225538   4.630   5.019   0.723 -0.3593  0.1877 -3.1003
 1327TIP3   OH225539   4.547   4.163   6.966  0.0920  0.0444 -0.2709
 1327TIP3    H125540   4.457   4.189   6.952 -0.2019  0.1740  1.5349
 1327TIP3    H225541   4.565   4.098   6.898 -0.2231  2.4162 -2.7796
 1328TIP3   OH225542   5.709   2.949   1.200  0.7938  0.0944  0.0702
 1328TIP3    H125543   5.648   2.880   1.170  1.8178 -1.0559  0.5486
 1328TIP3    H225544   5.707   3.014   1.130 -2.1500  0.8752  0.7560
 1329TIP3   OH225545   5.858   3.432   1.282  0.3719  0.5145  0.1052
 1329TIP3    H125546   5.836   3.367   1.349  1.2928 -0.6031 -0.6387
 1329TIP3    H225547   5.778   3.441   1.230 -0.7833  2.3322  2.0277
 1330TIP3   OH225548   6.597   0.436   6.928 -0.2102  0.4681 -0.2945
 1330TIP3    H125549   6.527   0.472   6.982 -0.1126  0.9216 -0.4684
 1330TIP3    H225550   6.585   0.341   6.933  0.6194  0.4174  1.6491
 1331TIP3   OH225551   3.208   3.299   8.145 -0.4869  0.5981  0.1733
 1331TIP3    H125552   3.181   3.265   8.230 -1.1399 -0.9093 -0.5895
 1331TIP3    H225553   3.303   3.307   8.152 -0.6611  1.9798  1.5197
 1332TIP3   OH225554   6.391   6.344   1.929  0.0692 -0.0314  0.5037
 1332TIP3    H125555   6.308   6.381   1.960 -0.4271 -1.4372  0.8907
 1332TIP3    H225556   6.448   6.420   1.919 -1.4041  1.0333 -0.2547
 1333TIP3   OH225557   5.637   4.335   8.455 -0.0091 -0.3566 -0.1360
 1333TIP3    H125558   5.591   4.402   8.505  0.5707  0.4197 -0.6061
 1333TIP3    H225559   5.622   4.254   8.503 -0.0957  0.2407  0.8720
 1334TIP3   OH225560   1.002   3.609   7.750 -0.2475 -0.0752  0.1032
 1334TIP3    H125561   1.006   3.581   7.659 -1.0008 -1.9537  0.6098
 1334TIP3    H225562   1.084   3.656   7.764 -0.2047  0.4180 -1.5769
 1335TIP3   OH225563   1.699   0.504   1.047  0.6192 -0.1604  0.7962
 1335TIP3    H125564   1.781   0.477   1.005 -0.1386 -1.5285  0.1258
 1335TIP3    H225565   1.648   0.545   0.977 -0.1794 -1.3944  0.6301
 1336TIP3   OH225566   3.459   3.997   6.072 -0.2584 -0.6853  0.3091
 1336TIP3    H125567   3.380   3.947   6.052  0.0204 -1.1967  0.4397
 1336TIP3    H225568   3.512   3.937   6.126 -0.9671  0.6245  2.5988
 1337TIP3   OH225569   2.446   4.995   6.368 -0.6406 -0.0194 -0.0437
 1337TIP3    H125570   2.507   5.069   6.360  0.7488 -0.7900  2.5258
 1337TIP3    H225571   2.372   5.020   6.311 -0.4058  3.4899  0.9231
 1338TIP3   OH225572   4.696   1.164   1.434 -0.4711 -0.2280  0.2980
 1338TIP3    H125573   4.718   1.100   1.502 -1.0016  1.9842  2.6980
 1338TIP3    H225574   4.757   1.237   1.449 -0.5325  0.2987 -1.7119
 1339TIP3   OH225575   3.567   4.720   6.507 -1.2102 -0.3066  0.1238
 1339TIP3    H125576   3.492   4.667   6.532 -1.6105  0.0843 -0.2432
 1339TIP3    H225577   3.636   4.656   6.489 -1.6058 -0.6922 -0.0448
 1340TIP3   OH225578   4.326   1.433   6.391 -0.2869 -0.1491  0.1669
 1340TIP3    H125579   4.234   1.407   6.381  0.3547 -3.0124  0.7902
 1340TIP3    H225580   4.373   1.381   6.325  0.9744  0.6723  0.3802
 1341TIP3   OH225581   0.563   3.421   8.566 -0.1402 -0.4586  0.7210
 1341TIP3    H125582   0.567   3.326   8.564 -1.6354 -0.6456 -3.7296
 1341TIP3    H225583   0.476   3.441   8.600 -0.4461 -0.7678  0.1234
 1342TIP3   OH225584   5.277   1.898   2.526  0.0937  0.7439  0.3356
 1342TIP3    H125585   5.355   1.953   2.533  0.5701  0.0182  1.0099
 1342TIP3    H225586   5.212   1.943   2.579 -0.5681  2.3243 -1.7168
 1343TIP3   OH225587   3.476   6.097   1.319  0.2823 -0.0814 -0.0559
 1343TIP3    H125588   3.489   6.023   1.260 -0.9239  0.2781 -0.8111
 1343TIP3    H225589   3.423   6.061   1.391  1.3130 -0.3949  0.5589
 1344TIP3   OH225590   4.145   4.247   6.654  0.0543 -0.0211  0.6993
 1344TIP3    H125591   4.137   4.284   6.567 -1.4037 -0.0219  0.8111
 1344TIP3    H225592   4.055   4.235   6.684  0.5048  1.1408  2.7027
 1345TIP3   OH225593   1.344   5.038   7.310 -0.5005 -0.2409  0.5749
 1345TIP3    H125594   1.307   5.068   7.228 -0.8636 -0.3967  0.6769
 1345TIP3    H225595   1.283   4.970   7.340  0.3315 -1.1229  0.3147
 1346TIP3   OH225596   0.035   0.422   6.173 -0.0747  0.1632 -0.0381
 1346TIP3    H125597   0.056   0.329   6.184  0.9341  0.4388  0.4005
 1346TIP3    H225598   0.031   0.457   6.261 -1.3629  0.3596 -0.1566
 1347TIP3   OH225599   2.195   4.920   1.627  0.7071 -0.2438 -0.0772
 1347TIP3    H125600   2.226   4.830   1.630  1.4244 -0.0030  0.0310
 1347TIP3    H225601   2.202   4.950   1.717  2.2357  0.4774 -0.3917
 1348TIP3   OH225602   1.753   1.392   1.775 -0.3162  0.0842  0.6845
 1348TIP3    H125603   1.769   1.454   1.847  0.3838  0.2075  0.4282
 1348TIP3    H225604   1.763   1.444   1.696 -1.5781  0.0582  0.4942
 1349TIP3   OH225605   2.731   6.001   7.482  0.2559 -0.2317  0.1187
 1349TIP3    H125606   2.665   6.070   7.470 -0.3701 -0.6050  1.2603
 1349TIP3    H225607   2.690   5.922   7.447  0.5591 -0.2474 -0.2133
 1350TIP3   OH225608   1.163   1.061   8.324  0.9379  0.6646  0.1008
 1350TIP3    H125609   1.132   1.143   8.362  1.2783  0.0396  1.8095
 1350TIP3    H225610   1.108   0.994   8.363  1.5447 -0.0513 -0.2508
 1351TIP3   OH225611   3.385   4.681   0.398 -0.3361 -0.1846 -0.3684
 1351TIP3    H125612   3.348   4.765   0.426 -0.5645 -0.0974 -0.9134
 1351TIP3    H225613   3.476   4.700   0.378 -0.3433 -0.1036 -0.3251
 1352TIP3   OH225614   3.306   1.582   8.324  0.3461 -0.0984 -0.1761
 1352TIP3    H125615   3.369   1.642   8.284  0.2963 -0.4138 -0.7409
 1352TIP3    H225616   3.222   1.627   8.318  0.7270  0.9890  1.9638
 1353TIP3   OH225617   6.453   1.138   1.171 -0.0387  0.1526 -0.0198
 1353TIP3    H125618   6.375   1.159   1.223 -0.1410  0.1637 -0.1787
 1353TIP3    H225619   6.480   1.222   1.134  0.5969  0.3280  0.7841
 1354TIP3   OH225620   4.193   1.765   8.114  0.4041 -0.2119  0.6737
 1354TIP3    H125621   4.236   1.680   8.118  0.1482 -0.3141  1.4202
 1354TIP3    H225622   4.231   1.808   8.037  0.1651 -1.1893 -0.0076
 1355TIP3   OH225623   2.828   4.221   0.758 -0.5860  0.2959 -0.5659
 1355TIP3    H125624   2.869   4.275   0.691  0.7910 -0.8698 -0.7096
 1355TIP3    H225625   2.768   4.164   0.709  0.1443 -0.3026 -0.7723
 1356TIP3   OH225626   5.254   4.914   2.313 -0.1808 -0.3424 -0.7360
 1356TIP3    H125627   5.200   4.954   2.245 -1.0332 -2.2478 -1.2498
 1356TIP3    H225628   5.194   4.855   2.359  1.5711 -3.3226 -1.9779
 1357TIP3   OH225629   6.253   2.004   2.332  0.1919 -0.3765 -0.4304
 1357TIP3    H125630   6.274   2.066   2.262 -1.0615  0.8329  0.2264
 1357TIP3    H225631   6.220   2.058   2.404  0.5083 -1.6782  0.7446
 1358TIP3   OH225632   5.739   1.462   0.099  0.6013 -0.4409  0.6737
 1358TIP3    H125633   5.673   1.431   0.037  1.1104 -0.7693  0.2914
 1358TIP3    H225634   5.754   1.387   0.157  1.7382 -0.8845 -0.1696
 1359TIP3   OH225635   0.306   5.662   1.124  0.0688  0.1002  0.3847
 1359TIP3    H125636   0.243   5.684   1.193 -1.5323  0.8110 -1.2023
 1359TIP3    H225637   0.376   5.615   1.169  0.4569  2.8194  2.9584
 1360TIP3   OH225638   6.247   2.892   1.954  0.4307  0.8651 -0.1877
 1360TIP3    H125639   6.225   2.984   1.966  0.5374  0.7012  1.6141
 1360TIP3    H225640   6.203   2.848   2.027 -1.6834 -0.8889 -2.3779
 1361TIP3   OH225641   2.654   2.569   7.169 -0.4143  0.2359  0.0398
 1361TIP3    H125642   2.728   2.602   7.220 -0.7101 -1.6750  1.8528
 1361TIP3    H225643   2.656   2.620   7.088  2.4535  0.7405  0.3167
 1362TIP3   OH225644   3.734   6.493   1.890  0.3375 -0.3846 -0.2344
 1362TIP3    H125645   3.702   6.453   1.970  1.9496 -0.9167  0.1963
 1362TIP3    H225646   3.830   6.494   1.901  0.5511  0.0909 -1.8799
 1363TIP3   OH225647   2.462   3.556   0.313  0.4814  0.1270 -0.5661
 1363TIP3    H125648   2.484   3.637   0.269  0.1971  0.7232  0.3651
 1363TIP3    H225649   2.484   3.571   0.405  1.2343 -1.1470 -0.5172
 1364TIP3   OH225650   3.906   1.983   2.099 -0.3864 -0.0917 -0.1405
 1364TIP3    H125651   3.998   1.968   2.122 -0.5463 -1.6501 -0.4178
 1364TIP3    H225652   3.858   1.961   2.179 -0.7907 -3.5799 -1.1562
 1365TIP3   OH225653   1.970   3.485   1.201  0.0164 -0.0690 -0.3482
 1365TIP3    H125654   2.037   3.421   1.179  0.8169  1.3503 -2.4608
 1365TIP3    H225655   1.959   3.536   1.121 -2.5739  0.6831  0.3858
 1366TIP3   OH225656   2.824   1.985   1.350 -0.3016 -0.3813  0.0722
 1366TIP3    H125657   2.846   2.076   1.332  2.8092 -0.9224  0.4602
 1366TIP3    H225658   2.745   1.989   1.404 -0.8417  1.9923 -0.7721
 1367TIP3   OH225659   6.448   4.393   8.171  0.3953  1.0780  0.2896
 1367TIP3    H125660   6.540   4.400   8.197  1.1346  0.0971 -1.8458
 1367TIP3    H225661   6.428   4.477   8.130 -0.1539  1.8345  1.9868
 1368TIP3   OH225662   1.896   1.462   0.934 -0.5010  0.0594 -0.2688
 1368TIP3    H125663   1.944   1.400   0.878  1.1443 -0.1237  1.2431
 1368TIP3    H225664   1.917   1.548   0.898  0.3617 -0.0669 -0.0819
 1369TIP3   OH225665   1.001   0.850   8.413 -0.2396  0.3113  0.4688
 1369TIP3    H125666   1.011   0.758   8.392  0.7232  0.3136  0.8744
 1369TIP3    H225667   0.984   0.852   8.507  0.6054  0.5881  0.6235
 1370TIP3   OH225668   3.698   4.782   7.859 -0.1794  0.0880 -0.0681
 1370TIP3    H125669   3.631   4.837   7.899 -0.5662  0.3050 -0.9773
 1370TIP3    H225670   3.679   4.693   7.890 -0.7883  0.1759 -0.1804
 1371TIP3   OH225671   3.323   6.257   6.706 -0.0167 -0.0850 -0.0908
 1371TIP3    H125672   3.363   6.295   6.627  0.9783 -0.8015  0.0470
 1371TIP3    H225673   3.251   6.204   6.673  0.2832 -0.2411 -0.5038
 1372TIP3   OH225674   3.718   6.061   2.256 -0.1100  0.0531 -0.0567
 1372TIP3    H125675   3.680   6.068   2.343 -0.5713 -2.1507 -0.0187
 1372TIP3    H225676   3.757   6.147   2.240 -0.8712  0.8261  1.8973
 1373TIP3   OH225677   0.136   3.899   7.105  0.2255 -0.4849 -0.5735
 1373TIP3    H125678   0.086   3.855   7.037 -1.4873  0.7839 -0.2022
 1373TIP3    H225679   0.227   3.877   7.086 -0.2068 -0.3669 -3.1467
 1374TIP3   OH225680   5.683   0.395   1.208  0.3343 -0.0036 -0.1969
 1374TIP3    H125681   5.596   0.364   1.232  0.3697 -0.1079 -0.2009
 1374TIP3    H225682   5.695   0.366   1.117  1.1984 -1.8472  0.4520
 1375TIP3   OH225683   0.471   5.089   7.517 -0.0289 -1.0564  0.2954
 1375TIP3    H125684   0.499   5.076   7.426 -3.5833 -2.9801 -0.7325
 1375TIP3    H225685   0.431   5.005   7.541 -2.1121  0.4370  2.4756
 1376TIP3   OH225686   1.569   2.629   8.752  0.0884 -0.3591 -0.5472
 1376TIP3    H125687   1.495   2.658   8.806 -0.5285 -1.3630 -0.8123
 1376TIP3    H225688   1.527   2.590   8.674  0.8678 -1.4131 -0.4585
 1377TIP3   OH225689   3.215   1.814   1.399  0.3703  0.5980  0.5060
 1377TIP3    H125690   3.304   1.816   1.435  0.6736  0.4295 -0.2006
 1377TIP3    H225691   3.158   1.801   1.474  1.0257 -0.3854  0.8496
 1378TIP3   OH225692   0.252   5.610   1.565  0.0659 -0.7201  0.3902
 1378TIP3    H125693   0.229   5.632   1.475 -1.0402  0.6906  0.9642
 1378TIP3    H225694   0.343   5.638   1.575 -0.0240 -0.2542 -0.0908
 1379TIP3   OH225695   1.954   2.348   8.488 -0.0413 -0.1405  0.2344
 1379TIP3    H125696   1.993   2.266   8.518  2.4825  1.1467  0.7429
 1379TIP3    H225697   1.978   2.412   8.556  0.1326  1.4988 -1.3008
 1380TIP3   OH225698   6.112   6.481   1.847  0.2963 -0.4228  0.3791
 1380TIP3    H125699   6.026   6.460   1.883 -0.2505  0.0030 -0.6381
 1380TIP3    H225700   6.149   6.545   1.908 -1.2528  1.4643 -0.5655
 1381TIP3   OH225701   1.586   3.804   1.708  0.8536 -0.3748 -0.4293
 1381TIP3    H125702   1.525   3.730   1.712  0.2465  0.1519  0.8434
 1381TIP3    H225703   1.536   3.874   1.666 -0.1638  0.6446  2.2549
 1382TIP3   OH225704   0.082   3.532   0.270 -0.3740  0.4352 -0.0455
 1382TIP3    H125705  -0.005   3.565   0.245 -0.2396  0.0531 -1.0637
 1382TIP3    H225706   0.073   3.508   0.362 -1.0831  1.2795  0.1195
 1383TIP3   OH225707   3.028   5.833   2.011  0.0289  0.3298  0.2809
 1383TIP3    H125708   3.094   5.822   2.080  0.6061  3.2263  0.3189
 1383TIP3    H225709   3.015   5.928   2.006 -0.9287  0.1273 -2.7449
 1384TIP3   OH225710   5.307   6.533   1.943  0.5333  0.6681  0.7566
 1384TIP3    H125711   5.388   6.509   1.988 -0.1849 -2.0575  0.7941
 1384TIP3    H225712   5.240   6.480   1.987 -0.6363  0.0351 -1.6675
 1385TIP3   OH225713   3.254   2.891   0.840  0.0473 -0.2218  0.6111
 1385TIP3    H125714   3.241   2.800   0.812  0.5273  0.2981 -1.5229
 1385TIP3    H225715   3.349   2.900   0.848  0.3714  0.9548 -2.8344
 1386TIP3   OH225716   5.418   2.163   8.572  0.6148 -0.3307  0.2505
 1386TIP3    H125717   5.438   2.192   8.661  0.3630  2.6137 -0.5512
 1386TIP3    H225718   5.502   2.169   8.526  0.1926  0.9126 -0.3727
 1387TIP3   OH225719   1.119   0.386   8.833 -0.2145 -0.0150 -0.8930
 1387TIP3    H125720   1.050   0.325   8.857  0.0955 -0.9232 -2.2123
 1387TIP3    H225721   1.149   0.423   8.917 -1.5779 -0.3662 -0.2297
 1388TIP3   OH225722   3.403   3.214   6.867 -0.4739 -0.2023  0.3023
 1388TIP3    H125723   3.491   3.227   6.831 -0.3707  0.2878  0.7324
 1388TIP3    H225724   3.416   3.212   6.962 -1.0506  0.8916  0.4129
 1389TIP3   OH225725   5.204   3.086   1.641 -0.4423  0.3775 -0.3580
 1389TIP3    H125726   5.219   3.106   1.734  2.6321  0.1348 -0.6892
 1389TIP3    H225727   5.263   3.012   1.623 -1.9545 -0.4449 -2.2305
 1390TIP3   OH225728   0.356   0.932   0.469 -0.1770  0.2738  0.1037
 1390TIP3    H125729   0.441   0.954   0.506 -1.1124  0.8045  2.0366
 1390TIP3    H225730   0.355   0.976   0.383  1.2939  0.6451  0.2594
 1391TIP3   OH225731   1.642   2.727   0.938  0.3569  0.7701 -0.1013
 1391TIP3    H125732   1.647   2.788   0.864 -0.3021  0.3283 -0.5249
 1391TIP3    H225733   1.695   2.652   0.910 -1.5084 -0.2813 -1.0258
 1392TIP3   OH225734   0.006   3.608   8.096 -0.0606 -0.5334 -0.2102
 1392TIP3    H125735  -0.020   3.641   8.182 -0.8520 -1.5054 -0.0576
 1392TIP3    H225736  -0.014   3.680   8.036 -0.6481 -0.2939  0.2608
 1393TIP3   OH225737   3.084   5.522   6.883 -0.3102 -0.2619  1.0714
 1393TIP3    H125738   3.096   5.578   6.806  0.8616 -3.4257 -1.2928
 1393TIP3    H225739   3.164   5.469   6.887 -2.3358 -3.6269  1.3741
 1394TIP3   OH225740   4.080   2.783   7.792 -0.1031 -0.7532 -0.7139
 1394TIP3    H125741   4.065   2.839   7.716 -0.1038  0.0621 -0.1201
 1394TIP3    H225742   4.144   2.719   7.761  0.1786 -0.2077 -1.2937
 1395TIP3   OH225743   3.870   2.681   1.045 -0.1653  0.3564  0.1186
 1395TIP3    H125744   3.924   2.628   0.985  0.1130  0.4241  0.3047
 1395TIP3    H225745   3.889   2.771   1.021  0.6413  0.4083  0.8909
 1396TIP3   OH225746   5.547   1.836   8.630 -0.4922  0.1549 -0.0860
 1396TIP3    H125747   5.522   1.800   8.715 -0.0150 -0.0513 -0.0312
 1396TIP3    H225748   5.565   1.929   8.648  0.3846 -0.0627  0.1999
 1397TIP3   OH225749   5.858   1.684   7.060  0.1171  0.5205  0.0427
 1397TIP3    H125750   5.908   1.623   7.006 -0.3525  0.6874 -0.5854
 1397TIP3    H225751   5.774   1.693   7.015  0.1811  1.6240  0.1295
 1398TIP3   OH225752   2.612   4.682   0.498  0.5101  0.1673  0.2685
 1398TIP3    H125753   2.594   4.750   0.563 -1.1415  0.4466 -0.4327
 1398TIP3    H225754   2.562   4.606   0.527  0.7900 -0.1192  0.0087
 1399TIP3   OH225755   3.182   2.011   7.506 -0.5260  0.3172  0.7566
 1399TIP3    H125756   3.137   1.972   7.581  0.2004 -0.2335  0.9238
 1399TIP3    H225757   3.130   1.984   7.430 -0.1465 -0.8406  0.8861
 1400TIP3   OH225758   4.743   2.792   6.926  0.3323  0.0511  0.3807
 1400TIP3    H125759   4.746   2.817   6.833  0.7069  2.4798  0.9716
 1400TIP3    H225760   4.831   2.762   6.946 -0.3176 -2.7406 -0.5356
 1401TIP3   OH225761   0.617   3.745   8.222  0.4277  0.3025  0.6313
 1401TIP3    H125762   0.565   3.734   8.302 -1.0633  1.9870 -0.0364
 1401TIP3    H225763   0.592   3.670   8.168  2.2381 -1.4416  2.0660
 1402TIP3   OH225764   6.036   3.669   1.185  0.1499  0.2270 -0.1583
 1402TIP3    H125765   6.056   3.746   1.238 -0.3383  0.7880 -0.7709
 1402TIP3    H225766   6.096   3.675   1.110 -0.5308  0.5342 -0.6922
 1403TIP3   OH225767   4.185   6.623   0.283  0.4226  0.1327  0.6038
 1403TIP3    H125768   4.137   6.663   0.210  1.1362 -1.7782 -0.9920
 1403TIP3    H225769   4.150   6.534   0.289  1.0627 -0.0472  1.9614
 1404TIP3   OH225770   0.599   2.819   8.725  0.3123  0.7425 -0.3414
 1404TIP3    H125771   0.671   2.867   8.766  0.0679  0.1974  0.7642
 1404TIP3    H225772   0.640   2.743   8.685  0.3927  0.5750  0.0546
 1405TIP3   OH225773   5.706   6.638   1.107 -0.0671 -0.0048  0.6003
 1405TIP3    H125774   5.727   6.642   1.200  1.5657  0.0998  0.2422
 1405TIP3    H225775   5.790   6.639   1.062 -0.8102 -0.4364 -0.8820
 1406TIP3   OH225776   1.054   1.663   0.342 -0.1402 -0.2340 -0.0342
 1406TIP3    H125777   0.971   1.650   0.295 -1.0584 -2.7375  2.0009
 1406TIP3    H225778   1.027   1.680   0.432  1.5744  0.4594  0.3792
 1407TIP3   OH225779   5.229   2.185   8.358  0.4361 -0.4560  0.4178
 1407TIP3    H125780   5.285   2.210   8.285 -1.0121  1.0717 -0.2392
 1407TIP3    H225781   5.281   2.203   8.436  1.6117 -1.0939 -0.2007
 1408TIP3   OH225782   3.938   4.700   8.167 -0.0175 -0.3708 -0.1872
 1408TIP3    H125783   3.959   4.639   8.097 -1.0658 -1.3153  0.2889
 1408TIP3    H225784   3.990   4.669   8.242  0.1722 -0.0926 -0.2000
 1409TIP3   OH225785   4.671   0.657   6.498 -0.2039  0.0040  0.2191
 1409TIP3    H125786   4.767   0.656   6.506 -0.0045  2.6954 -0.9812
 1409TIP3    H225787   4.654   0.701   6.415 -2.5151 -2.8849 -1.0467
 1410TIP3   OH225788   3.606   4.811   1.380 -0.0269  0.0792 -0.2222
 1410TIP3    H125789   3.617   4.811   1.285  0.4007  1.4603 -0.1898
 1410TIP3    H225790   3.533   4.870   1.396 -1.8674 -2.1616  0.1758
 1411TIP3   OH225791   3.364   4.960   1.422 -0.2172  0.2438  0.2466
 1411TIP3    H125792   3.302   4.892   1.448 -0.0663 -0.3788 -0.9155
 1411TIP3    H225793   3.353   5.029   1.486 -1.1228 -0.4458  0.8599
 1412TIP3   OH225794   1.048   3.941   6.686 -0.1034  0.5675 -0.1558
 1412TIP3    H125795   1.105   3.865   6.699 -0.6236  0.0224 -0.9840
 1412TIP3    H225796   1.105   4.007   6.647  0.5198  0.8647  1.2029
 1413TIP3   OH225797   6.565   4.058   1.095  0.0288 -0.3923  0.3223
 1413TIP3    H125798   6.612   3.991   1.144 -1.0091 -1.1954  0.2581
 1413TIP3    H225799   6.604   4.056   1.008  2.3316  1.4989  1.2144
 1414TIP3   OH225800   3.466   5.994   1.816  0.0719  0.1254 -0.3868
 1414TIP3    H125801   3.541   5.950   1.855 -1.5197 -1.5656  0.9152
 1414TIP3    H225802   3.450   6.069   1.874  1.2632  1.0448 -1.1954
 1415TIP3   OH225803   3.781   6.368   1.160  0.0158  0.1762 -0.4993
 1415TIP3    H125804   3.778   6.353   1.255  1.0451  0.0005 -0.4759
 1415TIP3    H225805   3.715   6.434   1.144 -1.3797 -1.0145  0.0937
 1416TIP3   OH225806   6.386   3.397   0.013 -0.2140  0.3567 -0.1524
 1416TIP3    H125807   6.326   3.334   0.052 -0.1452  0.5158  0.2202
 1416TIP3    H225808   6.426   3.350  -0.061  1.5795 -0.8798  1.4978
 1417TIP3   OH225809   1.261   3.741   0.203 -0.0245 -0.0563  0.5925
 1417TIP3    H125810   1.197   3.706   0.141 -0.1171  0.2489  0.5166
 1417TIP3    H225811   1.275   3.669   0.266 -1.1747  0.2066  1.1780
 1418TIP3   OH225812   5.653   4.623   7.251 -0.0232  0.3004 -0.3832
 1418TIP3    H125813   5.616   4.622   7.340  1.4410  0.5888  0.2625
 1418TIP3    H225814   5.674   4.531   7.233  0.8202  0.3848  0.0972
 1419TIP3   OH225815   4.065   2.050   1.142 -0.4672 -0.2751 -0.2690
 1419TIP3    H125816   4.134   2.066   1.206 -0.4955  0.6088 -0.4542
 1419TIP3    H225817   4.092   1.970   1.097  1.7318  1.3105 -2.0138
 1420TIP3   OH225818   3.944   5.420   1.360  0.3585  0.0634  0.3434
 1420TIP3    H125819   3.863   5.444   1.404  0.5000  0.5545  0.3369
 1420TIP3    H225820   4.012   5.433   1.426  0.3421 -1.2341  0.6514
 1421TIP3   OH225821   6.053   2.098   7.590  0.1646  0.0696  0.4391
 1421TIP3    H125822   6.097   2.024   7.549 -1.2918  0.1580 -1.3921
 1421TIP3    H225823   6.100   2.175   7.558 -1.1717  0.1610 -1.4727
 1422TIP3   OH225824   6.508   6.210   7.330 -0.0197  0.0130 -0.2021
 1422TIP3    H125825   6.460   6.248   7.256 -0.3636  0.5867  0.3018
 1422TIP3    H225826   6.441   6.192   7.396  0.2728 -0.5617 -0.0539
 1423TIP3   OH225827   6.275   5.319   8.673 -0.0246 -0.2635 -0.0714
 1423TIP3    H125828   6.326   5.381   8.726 -1.6145 -1.1127  2.7034
 1423TIP3    H225829   6.215   5.374   8.623 -0.0212  0.5552  0.7879
 1424TIP3   OH225830   1.722   6.172   8.337  0.4393  0.3458  0.2106
 1424TIP3    H125831   1.646   6.122   8.309  0.5213  0.6610 -0.5874
 1424TIP3    H225832   1.756   6.123   8.412  0.2683 -0.5537 -0.2875
 1425TIP3   OH225833   1.127   0.336   7.862 -0.3351 -0.0626  0.7796
 1425TIP3    H125834   1.077   0.327   7.781 -0.8085 -1.2814  1.1820
 1425TIP3    H225835   1.212   0.296   7.842 -1.4434 -3.1756  1.6932
 1426TIP3   OH225836   0.496   3.626   0.529 -0.1919  0.0385  0.4373
 1426TIP3    H125837   0.456   3.713   0.520  0.9728  0.5989  0.4982
 1426TIP3    H225838   0.529   3.606   0.441  0.3699  0.0874  0.6306
 1427TIP3   OH225839   5.005   5.498   1.365  0.1082  0.4973 -0.0012
 1427TIP3    H125840   4.967   5.412   1.348 -1.3409  0.8566  1.2099
 1427TIP3    H225841   5.094   5.480   1.397  0.0471 -0.4952 -0.3739
 1428TIP3   OH225842   3.299   1.495   5.967 -0.3723 -0.4063 -0.2093
 1428TIP3    H125843   3.312   1.589   5.956 -1.7936 -0.2172 -0.5170
 1428TIP3    H225844   3.256   1.487   6.052  0.1728 -0.8203  0.0272
 1429TIP3   OH225845   6.022   0.651   7.830  0.5223  0.0262  0.3978
 1429TIP3    H125846   6.009   0.588   7.759 -0.7538  0.5996  0.1035
 1429TIP3    H225847   5.934   0.674   7.859  0.9926 -0.5552  2.5117
 1430TIP3   OH225848   0.456   1.668   0.026  0.7888 -0.2864 -0.4883
 1430TIP3    H125849   0.542   1.650  -0.011  1.0057 -0.1562 -0.0455
 1430TIP3    H225850   0.395   1.633  -0.039  1.1819 -0.9560 -0.5062
 1431TIP3   OH225851   0.733   3.724   6.219  0.1500  0.0155 -0.2007
 1431TIP3    H125852   0.752   3.711   6.126  0.8076  1.7195 -0.3408
 1431TIP3    H225853   0.768   3.646   6.262 -1.0902 -1.2873 -1.4594
 1432TIP3   OH225854   1.031   2.456   7.660 -0.4480  0.2639  0.0129
 1432TIP3    H125855   0.974   2.380   7.674  1.1333 -1.0491 -0.3397
 1432TIP3    H225856   0.993   2.500   7.583  0.3965 -2.0439 -1.8503
 1433TIP3   OH225857   1.620   0.084   8.717 -0.4904 -0.3516  0.3154
 1433TIP3    H125858   1.587   0.173   8.701 -0.7597 -0.8144 -1.9766
 1433TIP3    H225859   1.715   0.096   8.728 -0.4806  0.1923 -0.3153
 1434TIP3   OH225860   3.059   1.040   7.446  0.3101  0.1660 -0.5331
 1434TIP3    H125861   3.089   1.118   7.492 -0.8025 -0.3931  1.2672
 1434TIP3    H225862   3.067   0.970   7.510  1.0700 -1.1724 -2.0419
 1435TIP3   OH225863   2.919   2.835   1.023  0.4343  0.4674  0.0587
 1435TIP3    H125864   2.953   2.921   1.046  1.2576  0.0968  0.2680
 1435TIP3    H225865   2.965   2.774   1.080 -0.0730 -0.1278 -0.1458
 1436TIP3   OH225866   3.878   5.256   8.745 -0.1919 -0.2540 -0.0918
 1436TIP3    H125867   3.856   5.336   8.792  0.0137 -0.7742  0.9172
 1436TIP3    H225868   3.949   5.281   8.686  1.5542 -0.2102  1.9369
 1437TIP3   OH225869   4.954   3.164   5.961  0.2852  0.1677  0.1507
 1437TIP3    H125870   5.045   3.192   5.972  0.4432 -0.4799  0.5536
 1437TIP3    H225871   4.955   3.070   5.981 -0.3206 -0.0232 -0.6773
 1438TIP3   OH225872   0.967   5.042   6.689  0.1392 -0.6088  0.1677
 1438TIP3    H125873   0.904   5.113   6.678  0.8873 -0.1931 -1.7601
 1438TIP3    H225874   1.052   5.083   6.677  0.5671 -1.8676 -1.4037
 1439TIP3   OH225875   0.684   5.888   1.140  0.0542 -0.4694 -0.1414
 1439TIP3    H125876   0.690   5.934   1.056 -1.3984 -1.0617 -0.5891
 1439TIP3    H225877   0.750   5.819   1.134  1.2836  0.6501 -0.0144
 1440TIP3   OH225878   3.576   0.338   7.798  1.1564 -0.1349  0.0829
 1440TIP3    H125879   3.555   0.250   7.830  1.6162 -0.9830 -1.7847
 1440TIP3    H225880   3.523   0.397   7.852 -1.0485 -1.7198 -0.2372
 1441TIP3   OH225881   0.803   4.476   7.345  0.5300  0.1796 -0.2841
 1441TIP3    H125882   0.844   4.509   7.425 -1.4750  2.3657 -0.0451
 1441TIP3    H225883   0.765   4.392   7.370 -0.9239  1.2759  1.4259
 1442TIP3   OH225884   1.718   4.338   1.518  0.0295  0.2498 -0.1043
 1442TIP3    H125885   1.673   4.298   1.592 -0.8064  0.6690 -0.3728
 1442TIP3    H225886   1.728   4.267   1.454 -2.9236  0.7194 -1.2820
 1443TIP3   OH225887   2.987   2.546   6.985 -0.3602  0.2594 -0.1551
 1443TIP3    H125888   3.076   2.560   6.954 -0.2160  0.1823  0.2123
 1443TIP3    H225889   2.960   2.632   7.020 -0.4415  0.2912 -0.2959
 1444TIP3   OH225890   6.287   1.422   0.895 -0.3214 -0.2363 -0.0887
 1444TIP3    H125891   6.241   1.504   0.880 -1.4688 -1.1949 -2.3199
 1444TIP3    H225892   6.289   1.412   0.991  0.3368  2.5955  0.2586
 1445TIP3   OH225893   1.768   3.643   0.140 -0.1485  0.6542  0.3533
 1445TIP3    H125894   1.806   3.730   0.132  1.8197 -0.1486  0.2836
 1445TIP3    H225895   1.728   3.642   0.227  1.2933  1.1209  1.0567
 1446TIP3   OH225896   5.927   4.231   2.279 -0.8466 -0.0123  0.3007
 1446TIP3    H125897   5.876   4.157   2.312  0.0037 -1.5215 -1.5443
 1446TIP3    H225898   5.873   4.308   2.296 -2.8362 -1.3200  0.1776
 1447TIP3   OH225899   1.481   5.246   6.665  0.6316  0.2376 -0.1249
 1447TIP3    H125900   1.498   5.262   6.572  0.7023  0.3595 -0.0920
 1447TIP3    H225901   1.482   5.333   6.705  0.1013  0.2326 -0.0919
 1448TIP3   OH225902   2.715   0.013   1.142  0.6383  0.2360  0.7739
 1448TIP3    H125903   2.790   0.000   1.084  1.0404 -0.0654  1.3529
 1448TIP3    H225904   2.751   0.003   1.231 -0.2550 -0.8889  1.0374
 1449TIP3   OH225905   3.962   4.104   7.748  0.0324  0.7030  0.2475
 1449TIP3    H125906   3.986   4.045   7.819 -0.1979 -0.5966 -0.7306
 1449TIP3    H225907   4.022   4.179   7.758  0.7138  0.0566  1.1706
 1450TIP3   OH225908   2.405   1.255   6.948 -0.0906 -0.2080 -0.7902
 1450TIP3    H125909   2.496   1.275   6.930 -0.1427 -0.5602 -1.4785
 1450TIP3    H225910   2.386   1.178   6.895 -0.4348 -0.9195  0.3299
 1451TIP3   OH225911   3.945   5.679   6.835  0.0354 -0.0342 -0.0604
 1451TIP3    H125912   3.965   5.636   6.919 -1.5854  0.1217  0.4318
 1451TIP3    H225913   3.978   5.768   6.846 -2.6830  0.9061  1.5996
 1452TIP3   OH225914   0.021   2.304   0.609 -0.0411 -0.3910  0.3281
 1452TIP3    H125915   0.039   2.398   0.602 -1.1499 -0.0746  1.4400
 1452TIP3    H225916  -0.071   2.298   0.633 -0.1186 -1.7970 -0.1841
 1453TIP3   OH225917   5.758   4.651   7.756  0.5591 -0.6331 -0.5835
 1453TIP3    H125918   5.718   4.688   7.677  0.1997  0.4581  0.0860
 1453TIP3    H225919   5.696   4.672   7.826  0.8071 -1.7150 -0.0270
 1454TIP3   OH225920   6.308   4.867   0.119 -0.2743 -0.2662 -0.1471
 1454TIP3    H125921   6.221   4.847   0.154  0.1742  0.6617  1.6673
 1454TIP3    H225922   6.294   4.943   0.062 -0.7048 -0.3425 -0.1490
 1455TIP3   OH225923   4.747   0.839   7.431 -0.0444 -0.1849  0.1052
 1455TIP3    H125924   4.663   0.822   7.472  1.5954  0.4417  4.2374
 1455TIP3    H225925   4.767   0.930   7.454  2.2335 -0.6847  0.3819
 1456TIP3   OH225926   4.636   3.756   7.589 -0.0287 -0.4549 -0.2507
 1456TIP3    H125927   4.623   3.664   7.565 -3.1690 -0.1536 -0.2237
 1456TIP3    H225928   4.595   3.805   7.517  1.2553  0.9335 -0.0794
 1457TIP3   OH225929   3.629   4.432   0.954  0.1477  0.5272  0.0972
 1457TIP3    H125930   3.541   4.456   0.981  1.1110  1.3558  2.8433
 1457TIP3    H225931   3.641   4.476   0.870 -1.1978  2.5350  0.8676
 1458TIP3   OH225932   2.540   6.228   0.029 -0.3610 -0.6213 -0.1610
 1458TIP3    H125933   2.503   6.283   0.098  0.1594  0.6572 -0.8829
 1458TIP3    H225934   2.551   6.142   0.071 -0.1194  0.1062  1.3292
 1459TIP3   OH225935   5.917   6.661   0.923  0.0764  0.3608  0.7796
 1459TIP3    H125936   5.845   6.658   0.860  0.7875  0.7437 -0.0816
 1459TIP3    H225937   5.980   6.723   0.885  1.2221 -0.5660  1.1011
 1460TIP3   OH225938   4.678   2.206   2.044  0.7517  0.2532  0.1352
 1460TIP3    H125939   4.758   2.165   2.013  1.0689 -0.2830  1.5585
 1460TIP3    H225940   4.609   2.173   1.986  1.0960 -1.8210  0.8109
 1461TIP3   OH225941   5.732   5.796   8.783 -0.3627  0.0560 -0.2365
 1461TIP3    H125942   5.654   5.835   8.742  0.0194  1.2274  0.0946
 1461TIP3    H225943   5.703   5.775   8.872  0.4601  3.5130  1.0285
 1462TIP3   OH225944   3.225   1.622   7.849 -0.6399 -0.3818 -0.1599
 1462TIP3    H125945   3.314   1.608   7.816 -1.0737 -2.1281 -0.6536
 1462TIP3    H225946   3.168   1.581   7.784 -1.7849  0.1888  0.4512
 1463TIP3   OH225947   1.258   1.672   0.733  0.3054  0.0173  0.0125
 1463TIP3    H125948   1.257   1.752   0.681 -0.9684  1.0677  1.5641
 1463TIP3    H225949   1.244   1.701   0.823  1.8944 -1.7750  0.9255
 1464TIP3   OH225950   4.732   5.694   1.921 -0.2440  0.5130 -0.0892
 1464TIP3    H125951   4.706   5.779   1.957 -1.8411 -0.0119  0.0743
 1464TIP3    H225952   4.687   5.630   1.975  0.0983 -0.4011 -0.8606
 1465TIP3   OH225953   1.193   5.938   7.211  0.1333 -0.2695 -0.0601
 1465TIP3    H125954   1.137   5.876   7.257  1.5765 -0.7726  1.0996
 1465TIP3    H225955   1.157   6.024   7.234 -0.5569 -0.5949  0.1097
 1466TIP3   OH225956   2.967   2.804   0.547  0.8303  0.3441 -0.1263
 1466TIP3    H125957   2.916   2.832   0.623 -0.0733 -1.4528 -0.0050
 1466TIP3    H225958   2.947   2.711   0.539  0.7635  0.5290 -2.6910
 1467TIP3   OH225959   6.495   5.867   0.393 -0.5107 -0.1231 -0.1121
 1467TIP3    H125960   6.497   5.793   0.332 -0.0091 -0.5621  0.4274
 1467TIP3    H225961   6.587   5.883   0.416 -0.5379  1.1831 -0.8248
 1468TIP3   OH225962   2.343   2.915   5.811 -0.1828 -0.4163  0.7592
 1468TIP3    H125963   2.387   2.830   5.812 -0.0046 -0.3252  0.7443
 1468TIP3    H225964   2.412   2.978   5.835 -0.4888 -0.3613  1.5250
 1469TIP3   OH225965   5.647   2.651   7.255  0.3177  0.6475  0.2026
 1469TIP3    H125966   5.655   2.693   7.169  0.0332 -1.2073 -0.7676
 1469TIP3    H225967   5.557   2.672   7.282 -0.8416 -1.5564 -1.5731
 1470TIP3   OH225968   6.488   6.277   7.936 -0.6418  0.4401 -0.0637
 1470TIP3    H125969   6.517   6.196   7.977 -0.5392  0.2663 -0.4791
 1470TIP3    H225970   6.535   6.346   7.984  1.0716  0.1316 -1.2061
 1471TIP3   OH225971   4.356   3.601   1.119  0.3768 -0.9800  0.1935
 1471TIP3    H125972   4.367   3.561   1.033  1.9883 -1.6067  0.6639
 1471TIP3    H225973   4.375   3.694   1.105  3.2254 -1.4695  0.3033
 1472TIP3   OH225974   2.171   2.382   6.922  0.3802  0.1201  0.1559
 1472TIP3    H125975   2.257   2.377   6.963 -0.1571  0.0635  1.3047
 1472TIP3    H225976   2.165   2.472   6.889  1.0011  0.0272 -0.2290
 1473TIP3   OH225977   4.079   3.836   8.713 -0.0283 -0.2828  0.2075
 1473TIP3    H125978   4.118   3.861   8.629 -0.6012 -0.8986 -0.2454
 1473TIP3    H225979   4.153   3.806   8.765  0.2383 -0.5888 -0.3335
 1474TIP3   OH225980   5.964   5.822   7.766  0.4581 -0.1297  0.3766
 1474TIP3    H125981   6.013   5.894   7.725  1.0977 -1.5771 -1.5659
 1474TIP3    H225982   6.021   5.792   7.836 -0.0515  1.5324  1.5752
 1475TIP3   OH225983   1.058   5.760   7.374  0.3024 -0.1371  0.5768
 1475TIP3    H125984   1.021   5.809   7.448  2.1674  1.2505  0.6453
 1475TIP3    H225985   1.020   5.673   7.383  1.8165 -0.6014  4.2831
 1476TIP3   OH225986   5.926   6.404   1.235  0.1439  0.2617  0.3030
 1476TIP3    H125987   5.935   6.485   1.286 -2.0536  0.7339  0.0195
 1476TIP3    H225988   5.874   6.347   1.291  0.0386 -0.2392 -0.3054
 1477TIP3   OH225989   6.179   1.215   8.302  0.6966 -0.1026 -0.5003
 1477TIP3    H125990   6.101   1.182   8.345  0.9029 -2.0951 -1.5275
 1477TIP3    H225991   6.178   1.310   8.318 -1.6918 -0.1364 -0.1581
 1478TIP3   OH225992   6.715   2.259   7.072  0.6399 -0.0595 -0.3894
 1478TIP3    H125993   6.739   2.326   7.008  0.6537  0.8423  0.5492
 1478TIP3    H225994   6.759   2.285   7.153  2.2590 -2.2494 -0.4618
 1479TIP3   OH225995   5.793   0.711   1.858  0.2247  0.3795  0.6156
 1479TIP3    H125996   5.789   0.798   1.899  0.8754 -0.7301  3.2622
 1479TIP3    H225997   5.710   0.670   1.882  0.9106 -0.5468  1.4720
 1480TIP3   OH225998   2.083   0.155   7.236 -0.1430 -0.1272 -0.0517
 1480TIP3    H125999   2.105   0.179   7.326  0.2767 -1.1252  0.1160
 1480TIP3    H226000   2.140   0.081   7.216 -0.6815 -0.3150 -0.9217
 1481TIP3   OH226001   2.048   6.667   1.514  0.6536  0.3461 -0.0195
 1481TIP3    H126002   1.975   6.609   1.492  1.6362 -0.4428 -1.4362
 1481TIP3    H226003   2.030   6.698   1.602  0.4645 -2.7753  1.1616
 1482TIP3   OH226004   6.249   6.267   0.965 -0.9817  0.2929 -0.1083
 1482TIP3    H126005   6.267   6.176   0.939  0.7449  0.1811  1.2615
 1482TIP3    H226006   6.154   6.272   0.972 -1.1632 -1.1758 -0.9600
 1483TIP3   OH226007   1.045   1.515   6.949  0.0663  0.5486  0.1447
 1483TIP3    H126008   1.122   1.513   6.892  0.4426 -0.8256  0.6748
 1483TIP3    H226009   1.038   1.607   6.977  1.2035  0.7803 -0.3070
 1484TIP3   OH226010   5.080   5.335   8.409  0.4899  0.2450 -0.1674
 1484TIP3    H126011   5.112   5.317   8.321  0.5445 -0.8985  0.0738
 1484TIP3    H226012   5.158   5.358   8.460  0.4058  1.3507 -0.4989
 1485TIP3   OH226013   3.875   3.431   7.236 -0.6474  0.0843 -0.2791
 1485TIP3    H126014   3.951   3.489   7.235 -0.4736 -0.1469 -0.7283
 1485TIP3    H226015   3.911   3.344   7.254 -0.6907 -0.1700 -1.3574
 1486TIP3   OH226016   6.386   4.477   1.403 -0.0428 -0.1683 -0.7760
 1486TIP3    H126017   6.417   4.403   1.351  0.9833  0.4217 -1.0367
 1486TIP3    H226018   6.435   4.471   1.485  0.0910  0.2512 -0.8225
 1487TIP3   OH226019   4.956   1.167   0.182  0.3465 -0.2847  0.2586
 1487TIP3    H126020   4.959   1.178   0.087 -0.9574  0.4479  0.2838
 1487TIP3    H226021   4.878   1.115   0.198 -2.0710  3.2359  1.1534
 1488TIP3   OH226022   1.613   2.757   7.956 -0.6539  0.1626 -0.2118
 1488TIP3    H126023   1.690   2.750   7.900 -0.1454  1.7566  0.2364
 1488TIP3    H226024   1.566   2.833   7.923 -0.1165  1.4264  1.7304
 1489TIP3   OH226025   6.083   3.290   6.608 -0.0999 -0.0873  0.0147
 1489TIP3    H126026   6.023   3.351   6.563  2.3781  1.8341 -0.9217
 1489TIP3    H226027   6.100   3.332   6.692 -1.1253 -1.3697  0.9033
 1490TIP3   OH226028   2.421   4.713   8.684  0.0632  0.7175 -0.1163
 1490TIP3    H126029   2.502   4.664   8.701  0.1471  1.4586  1.8584
 1490TIP3    H226030   2.369   4.654   8.630  0.7960 -0.9554  0.8959
 1491TIP3   OH226031   4.479   0.238   7.865 -0.3554  0.3375  0.2952
 1491TIP3    H126032   4.525   0.269   7.787  2.9680  0.9870  2.3139
 1491TIP3    H226033   4.406   0.299   7.875  0.3408  1.5014 -1.1877
 1492TIP3   OH226034   6.514   4.567   7.970 -0.1588 -0.1760 -0.0011
 1492TIP3    H126035   6.580   4.591   7.905  0.7589  0.8281  1.2406
 1492TIP3    H226036   6.469   4.649   7.990  0.3316 -0.2195  1.4187
 1493TIP3   OH226037   5.548   1.032   7.548 -0.0302 -0.0069  0.6089
 1493TIP3    H126038   5.631   1.002   7.584  0.6448 -0.3709 -1.1527
 1493TIP3    H226039   5.517   0.959   7.494 -1.1259  0.4012  0.6493
 1494TIP3   OH226040   0.032   2.144   8.494 -0.1016 -0.0666 -0.5517
 1494TIP3    H126041   0.107   2.204   8.491  0.1016 -0.1233  1.6932
 1494TIP3    H226042   0.060   2.068   8.442  0.8948  0.4319 -0.7693
 1495TIP3   OH226043   5.511   0.923   0.995 -0.0098  0.3636 -0.1636
 1495TIP3    H126044   5.463   0.997   1.032 -1.6656 -0.4639 -0.5523
 1495TIP3    H226045   5.483   0.920   0.903 -1.1664 -1.5929  0.1827
 1496TIP3   OH226046   5.766   0.766   7.452  0.2980  0.0760  0.0162
 1496TIP3    H126047   5.804   0.849   7.481 -0.1602  0.9888 -1.8731
 1496TIP3    H226048   5.832   0.728   7.394  1.7561 -2.3414  2.9530
 1497TIP3   OH226049   2.702   4.709   7.830 -0.3536 -0.2325  0.4719
 1497TIP3    H126050   2.694   4.636   7.892 -0.7279 -0.1449  0.5314
 1497TIP3    H226051   2.755   4.774   7.875 -1.3105  0.1819  1.0437
 1498TIP3   OH226052   0.181   3.459   6.434  0.2039  0.4341  0.2651
 1498TIP3    H126053   0.183   3.363   6.429 -1.1112  0.4087 -0.3242
 1498TIP3    H226054   0.140   3.477   6.519  1.0658  0.4967  0.6764
 1499TIP3   OH226055   3.360   5.700   0.960 -0.1558  0.0362 -0.0029
 1499TIP3    H126056   3.289   5.645   0.991  2.2633 -2.6987  1.1867
 1499TIP3    H226057   3.329   5.735   0.876 -3.3138  0.1014  1.0755
 1500TIP3   OH226058   3.173   4.583   7.116 -0.1444  0.4843  0.2597
 1500TIP3    H126059   3.130   4.547   7.193  0.5953 -0.0802  0.4218
 1500TIP3    H226060   3.258   4.539   7.112  0.5643  1.7858  0.1329
 1501TIP3   OH226061   4.278   4.136   1.040  0.7703 -0.2024 -0.5103
 1501TIP3    H126062   4.198   4.147   1.091  1.5894 -2.7925  1.5857
 1501TIP3    H226063   4.323   4.219   1.047 -0.1149  0.1775  1.3034
 1502TIP3   OH226064   6.721   6.424   7.300  0.3501  0.0225  0.1011
 1502TIP3    H126065   6.811   6.399   7.322  0.5511 -1.3738 -1.9529
 1502TIP3    H226066   6.675   6.340   7.290 -0.2744  0.5790 -2.2233
 1503TIP3   OH226067   4.593   4.617   8.157 -0.0604  0.5298 -0.3145
 1503TIP3    H126068   4.661   4.641   8.093  0.2368  1.2672  0.2655
 1503TIP3    H226069   4.511   4.625   8.108  0.1184  1.7048 -0.4523
 1504TIP3   OH226070   4.926   1.752   8.118  0.1196 -0.2803 -0.6559
 1504TIP3    H126071   4.889   1.668   8.146 -0.9274  0.7078  1.0590
 1504TIP3    H226072   4.884   1.817   8.174  0.9225  1.4088 -1.9323
 1505TIP3   OH226073   0.213   5.164   0.558  0.5490  0.4564  0.6723
 1505TIP3    H126074   0.239   5.108   0.631 -0.0879 -0.7773  0.0058
 1505TIP3    H226075   0.180   5.244   0.599  1.3293  0.2864  1.6665
 1506TIP3   OH226076   5.731   3.458   7.612 -0.0337 -0.8032 -0.1333
 1506TIP3    H126077   5.793   3.407   7.560 -0.2830 -0.4696 -0.7705
 1506TIP3    H226078   5.713   3.535   7.558 -0.2009 -0.3881  0.5077
 1507TIP3   OH226079   2.066   3.312   7.151 -0.1798  0.2134  0.1254
 1507TIP3    H126080   2.061   3.389   7.207  0.1321  0.4871 -0.2228
 1507TIP3    H226081   2.137   3.260   7.188 -2.3436 -1.4637  2.2896
 1508TIP3   OH226082   6.725   0.155   6.694  0.5464  0.2764  0.0383
 1508TIP3    H126083   6.714   0.184   6.603  0.1289 -1.2252 -0.4285
 1508TIP3    H226084   6.817   0.169   6.713  0.6680  0.4801 -0.6749
 1509TIP3   OH226085   0.622   6.032   6.479 -0.0304 -0.7106  0.2591
 1509TIP3    H126086   0.613   6.127   6.466 -1.6501 -1.0144 -1.2605
 1509TIP3    H226087   0.691   6.006   6.418  0.8516 -0.4562  1.1195
 1510TIP3   OH226088   5.007   1.786   1.631 -0.1892  0.0763  0.0722
 1510TIP3    H126089   5.058   1.806   1.709 -1.2843 -1.7910  1.3278
 1510TIP3    H226090   5.064   1.813   1.558  2.2123 -1.0382  1.4097
 1511TIP3   OH226091   0.143   1.774   6.720 -0.3713 -0.2395  0.3686
 1511TIP3    H126092   0.167   1.867   6.726  0.9651 -0.4112 -1.3287
 1511TIP3    H226093   0.219   1.727   6.753  0.7125 -0.7516 -2.5572
 1512TIP3   OH226094   2.926   4.620   0.252  0.1733 -0.2198 -0.5745
 1512TIP3    H126095   3.001   4.679   0.245 -0.8015  1.4122  1.5399
 1512TIP3    H226096   2.870   4.645   0.178  1.3133 -0.9270 -1.7144
 1513TIP3   OH226097   0.046   3.119   1.309  0.1598 -0.2805  0.0544
 1513TIP3    H126098   0.009   3.203   1.335  1.9101  0.1626  1.2791
 1513TIP3    H226099   0.035   3.063   1.386 -1.4074 -1.3741 -0.8978
 1514TIP3   OH226100   2.635   2.693   0.538  0.4277 -0.1786 -0.0423
 1514TIP3    H126101   2.587   2.776   0.541  0.4438 -0.1092 -1.1414
 1514TIP3    H226102   2.672   2.690   0.449  0.4439 -1.3489 -0.0168
 1515TIP3   OH226103   1.010   0.343   0.661 -0.1531 -0.5855  0.2844
 1515TIP3    H126104   1.049   0.256   0.647 -0.7452 -0.7347 -0.4553
 1515TIP3    H226105   0.930   0.325   0.711 -0.3323 -0.4777  0.0361
 1516TIP3   OH226106   2.615   4.801   8.461  0.9218 -0.2217  0.3936
 1516TIP3    H126107   2.664   4.755   8.529  0.7623 -0.8603  0.0799
 1516TIP3    H226108   2.538   4.837   8.506  0.1999 -1.6390  0.3370
 1517TIP3   OH226109   1.518   5.182   1.296  0.0827 -0.3598 -0.1508
 1517TIP3    H126110   1.508   5.254   1.358  0.7985 -1.5912  1.4647
 1517TIP3    H226111   1.608   5.152   1.308  0.0141 -1.0863 -1.2921
 1518TIP3   OH226112   2.481   2.920   1.158 -0.2543 -0.4346 -0.1304
 1518TIP3    H126113   2.537   2.879   1.092 -1.7255 -1.3978 -0.8415
 1518TIP3    H226114   2.527   2.906   1.241  0.3184 -1.6290 -0.6296
 1519TIP3   OH226115   1.972   6.647   7.984  0.1849 -0.0260  0.2821
 1519TIP3    H126116   1.941   6.567   8.026 -3.0046  1.7654  1.6560
 1519TIP3    H226117   1.981   6.623   7.891  0.2623 -2.2042  0.8138
 1520TIP3   OH226118   6.755   1.170   1.883 -0.3905 -1.2591 -0.9933
 1520TIP3    H126119   6.727   1.109   1.951 -1.3887 -1.3272 -1.4404
 1520TIP3    H226120   6.760   1.255   1.928 -0.3433 -1.4276 -0.6759
 1521TIP3   OH226121   6.684   3.330   2.401  0.0332 -0.1873 -0.0811
 1521TIP3    H126122   6.741   3.261   2.366  0.6406  0.3175 -0.1098
 1521TIP3    H226123   6.745   3.396   2.434 -0.5176  1.0378 -1.4273
 1522TIP3   OH226124   0.682   5.897   7.067  0.2613 -0.6891  0.0256
 1522TIP3    H126125   0.725   5.935   6.990 -0.8257 -1.3246 -0.9216
 1522TIP3    H226126   0.612   5.959   7.089  1.2033  0.0138  1.1643
 1523TIP3   OH226127   1.678   6.050   6.909 -0.2075  0.4368 -0.4742
 1523TIP3    H126128   1.694   5.957   6.889 -1.1226  0.7038 -2.7968
 1523TIP3    H226129   1.587   6.052   6.940  0.5838  0.2931  2.0094
 1524TIP3   OH226130   3.255   5.864   2.169  0.0265  0.9967 -0.2193
 1524TIP3    H126131   3.327   5.827   2.118  0.0572 -1.2803  1.2919
 1524TIP3    H226132   3.296   5.895   2.250 -0.6494 -0.6463  0.8108
 1525TIP3   OH226133   1.941   0.666   8.490 -0.8906  0.3305 -0.0251
 1525TIP3    H126134   1.963   0.592   8.547 -2.3807 -1.4782 -1.6592
 1525TIP3    H226135   1.869   0.634   8.435  0.4927  1.8953 -2.9887
 1526TIP3   OH226136   4.326   6.088   7.891  0.0765 -0.0783  0.6503
 1526TIP3    H126137   4.258   6.081   7.823  2.1939  1.5918 -1.8198
 1526TIP3    H226138   4.312   6.174   7.930 -0.9026 -0.8859  2.1572
 1527TIP3   OH226139   2.456   6.460   1.833 -0.0094 -0.0977 -0.2499
 1527TIP3    H126140   2.534   6.442   1.887  0.2406 -0.8327 -0.8325
 1527TIP3    H226141   2.473   6.546   1.795  0.1728  0.0797  0.2269
 1528TIP3   OH226142   0.562   3.591   8.840 -0.2448  0.0887  0.1021
 1528TIP3    H126143   0.502   3.581   8.913 -0.2918  0.6875  0.1475
 1528TIP3    H226144   0.594   3.502   8.823  0.3235  0.0428  1.3146
 1529TIP3   OH226145   1.418   6.279   1.458 -0.1248  0.0780 -0.3830
 1529TIP3    H126146   1.369   6.358   1.435 -2.4597  0.2871  4.1006
 1529TIP3    H226147   1.469   6.305   1.536 -0.2172 -2.5347  0.6435
 1530TIP3   OH226148   4.308   2.349   2.167 -0.1672  0.2327  0.0223
 1530TIP3    H126149   4.347   2.275   2.213  0.4569  0.9110  0.6058
 1530TIP3    H226150   4.381   2.387   2.118 -0.4765  0.4987 -0.2348
 1531TIP3   OH226151   3.038   4.151   1.069 -0.1218  0.4921 -0.5552
 1531TIP3    H126152   3.086   4.129   0.990  0.5392 -1.0675  0.2348
 1531TIP3    H226153   2.977   4.220   1.042 -0.7272 -0.7976 -2.6755
 1532TIP3   OH226154   3.344   0.746   0.690  0.1499 -0.0521  0.2534
 1532TIP3    H126155   3.286   0.789   0.627 -0.7420 -0.4134  0.8099
 1532TIP3    H226156   3.411   0.703   0.636 -0.3124  0.0602 -0.4192
 1533TIP3   OH226157   1.261   6.515   7.216  0.1087 -0.3069 -0.1555
 1533TIP3    H126158   1.254   6.420   7.215  2.5551 -0.5367 -0.0407
 1533TIP3    H226159   1.300   6.536   7.300  2.2237  0.5255 -1.2668
 1534TIP3   OH226160   2.214   2.243   7.993  0.0435 -0.3498 -0.1139
 1534TIP3    H126161   2.303   2.230   8.025 -0.0873  0.4436  0.6194
 1534TIP3    H226162   2.159   2.191   8.051 -0.0033 -0.5532 -0.3402
 1535TIP3   OH226163   2.246   6.774   0.750 -0.2888 -0.5885 -0.0808
 1535TIP3    H126164   2.258   6.832   0.674  1.4371 -1.2178 -0.3205
 1535TIP3    H226165   2.306   6.809   0.816 -0.3423 -1.2159  0.3033
 1536TIP3   OH226166   2.277   3.049   1.288  0.1314 -0.5085 -0.0884
 1536TIP3    H126167   2.328   3.117   1.333 -2.1935 -0.5296  2.9082
 1536TIP3    H226168   2.343   2.987   1.256  2.2820  2.6093 -2.2164
 1537TIP3   OH226169   5.712   5.801   7.564 -0.4440 -0.1826  0.2163
 1537TIP3    H126170   5.774   5.809   7.637  1.7189  1.0206 -1.6034
 1537TIP3    H226171   5.765   5.768   7.492 -2.3690 -0.7510 -1.0182
 1538TIP3   OH226172   5.013   4.317   7.791  0.2235 -0.0166  1.0621
 1538TIP3    H126173   5.081   4.250   7.784  2.4199  2.2389 -1.0968
 1538TIP3    H226174   5.047   4.379   7.856  0.0652  0.8981  0.3019
 1539TIP3   OH226175   6.358   0.994   7.841 -0.5061 -0.1148  0.2012
 1539TIP3    H126176   6.380   1.076   7.797 -1.1114  0.2467  0.5670
 1539TIP3    H226177   6.328   1.020   7.928  0.3980 -0.8091  0.7328
 1540TIP3   OH226178   6.300   4.632   6.390  0.4853  0.2234  0.1011
 1540TIP3    H126179   6.395   4.631   6.376  0.4026  1.4716 -0.8057
 1540TIP3    H226180   6.290   4.660   6.481  1.0015  2.1174 -0.3721
 1541TIP3   OH226181   0.158   5.977   0.304 -0.0631  0.8773 -0.1975
 1541TIP3    H126182   0.198   5.922   0.371  1.2179  1.7559 -0.1961
 1541TIP3    H226183   0.095   5.920   0.260 -0.0423 -0.0619  0.9436
 1542TIP3   OH226184   0.810   5.872   0.682 -0.6870 -0.5410 -0.2884
 1542TIP3    H126185   0.813   5.911   0.595 -0.4441  0.6798  0.2407
 1542TIP3    H226186   0.883   5.810   0.684  0.3847  0.6824 -0.3966
 1543TIP3   OH226187   5.368   2.098   0.241  0.2584 -0.7144 -0.8249
 1543TIP3    H126188   5.309   2.026   0.218 -0.7155  0.3805 -1.9308
 1543TIP3    H226189   5.405   2.073   0.325 -0.8759 -2.0030 -0.6728
 1544TIP3   OH226190   4.831   6.533   0.114  0.2895 -0.1072 -0.0261
 1544TIP3    H126191   4.872   6.488   0.188  0.4701 -0.8078 -0.5303
 1544TIP3    H226192   4.904   6.550   0.054  0.1895  0.7009  0.0791
 1545TIP3   OH226193   0.700   2.741   0.764 -0.4275  0.1464 -0.6678
 1545TIP3    H126194   0.621   2.697   0.795  0.3775 -0.4558  0.6117
 1545TIP3    H226195   0.757   2.744   0.840  1.3224 -0.6830 -1.8707
 1546TIP3   OH226196   4.894   0.851   6.740 -0.2692  0.0679  0.6221
 1546TIP3    H126197   4.875   0.945   6.735 -0.2083  0.0076 -1.3704
 1546TIP3    H226198   4.990   0.846   6.738 -0.2858 -0.0559 -0.2814
 1547TIP3   OH226199   6.089   2.612   0.855 -0.0925 -0.1417  0.2461
 1547TIP3    H126200   6.075   2.660   0.774  1.4314  0.4096  0.2724
 1547TIP3    H226201   6.054   2.525   0.838 -0.5905  0.2261 -0.6829
 1548TIP3   OH226202   1.336   3.435   7.887 -0.1891 -0.2146  0.3366
 1548TIP3    H126203   1.261   3.381   7.860 -0.7584  0.9894 -0.6183
 1548TIP3    H226204   1.312   3.524   7.860  0.1021  0.7931  3.0781
 1549TIP3   OH226205   5.664   0.136   0.670 -0.3833  0.2215 -0.1650
 1549TIP3    H126206   5.662   0.228   0.644  0.8854  0.0704 -0.8846
 1549TIP3    H226207   5.577   0.119   0.706  0.4322  2.6470  3.4335
 1550TIP3   OH226208   0.039   1.629   2.583  0.6208  0.3776  0.4588
 1550TIP3    H126209  -0.025   1.625   2.654 -0.7957  1.5994 -0.6852
 1550TIP3    H226210   0.014   1.707   2.533  1.9089 -0.1428 -1.0659
 1551TIP3   OH226211   1.737   3.134   6.645 -0.4843 -0.1451 -0.0163
 1551TIP3    H126212   1.762   3.164   6.557 -1.0028  0.4700  0.0426
 1551TIP3    H226213   1.815   3.088   6.677 -0.3365 -0.4917 -0.8500
 1552TIP3   OH226214   0.822   2.864   8.522 -0.1793  0.0861  0.0364
 1552TIP3    H126215   0.791   2.931   8.462 -1.5401 -0.2271  0.3526
 1552TIP3    H226216   0.847   2.911   8.601 -1.8294  0.2041  0.5357
 1553TIP3   OH226217   6.305   5.955   1.791  0.3274 -0.3473  0.3940
 1553TIP3    H126218   6.283   6.047   1.774  0.1761 -0.3070  0.8079
 1553TIP3    H226219   6.282   5.941   1.883  0.9243 -0.6310  0.5093
 1554TIP3   OH226220   5.969   3.904   0.390  0.2793  0.3376  0.0099
 1554TIP3    H126221   6.038   3.857   0.436  2.0112  0.0504 -2.6590
 1554TIP3    H226222   5.964   3.989   0.434  0.2887 -0.6709  2.0319
 1555TIP3   OH226223   4.382   5.418   7.397  0.4760  0.0947 -0.2006
 1555TIP3    H126224   4.302   5.468   7.411  0.5831  0.4388 -0.8011
 1555TIP3    H226225   4.446   5.457   7.456  0.4543  0.4171 -0.3901
 1556TIP3   OH226226   3.273   6.126   0.888  0.1202 -0.1102 -0.1640
 1556TIP3    H126227   3.177   6.126   0.897  0.2167  0.3639  1.2397
 1556TIP3    H226228   3.295   6.035   0.870 -0.4925 -0.6142  1.3747
 1557TIP3   OH226229   4.186   0.909   1.748 -0.0216  0.6687  0.4301
 1557TIP3    H126230   4.205   0.876   1.835  0.6173 -0.0886  0.0146
 1557TIP3    H226231   4.127   0.844   1.710 -0.6616  1.2253  0.4526
 1558TIP3   OH226232   3.949   5.026   7.653 -0.4243 -0.7575 -0.1043
 1558TIP3    H126233   4.020   4.969   7.624 -0.4946 -1.8806  1.8191
 1558TIP3    H226234   3.870   4.985   7.618 -0.4861 -1.9558  1.3538
 1559TIP3   OH226235   2.235   3.716   8.507 -0.6186 -0.2882 -0.1157
 1559TIP3    H126236   2.214   3.628   8.476 -2.6717 -0.8124  2.3934
 1559TIP3    H226237   2.305   3.703   8.572 -1.0811 -0.1199  0.4250
 1560TIP3   OH226238   4.574   0.724   7.021  1.1889  0.6579  0.2942
 1560TIP3    H126239   4.582   0.637   7.062 -0.3911 -0.2742 -1.2430
 1560TIP3    H226240   4.600   0.711   6.930 -0.2179  1.5020 -0.2623
 1561TIP3   OH226241   2.821   6.254   7.982 -0.2490  0.7010  0.1548
 1561TIP3    H126242   2.866   6.169   7.987  1.3211  1.5462  1.2088
 1561TIP3    H226243   2.822   6.276   7.889  0.2894  0.0602  0.0001
 1562TIP3   OH226244   5.138   3.643   8.183  0.7786 -0.5953 -0.2849
 1562TIP3    H126245   5.160   3.630   8.091 -0.1219  1.8555 -0.9228
 1562TIP3    H226246   5.059   3.590   8.196  2.2312 -2.9095 -0.1681
 1563TIP3   OH226247   5.811   2.837   8.175 -0.3465  0.2272  0.2972
 1563TIP3    H126248   5.816   2.765   8.113  0.0320  0.5334 -0.0374
 1563TIP3    H226249   5.870   2.904   8.139  0.6356  0.0282  1.4804
 1564TIP3   OH226250   5.307   4.128   2.114 -0.3079 -0.3173 -0.1019
 1564TIP3    H126251   5.260   4.210   2.130 -1.9329 -0.1723 -4.4611
 1564TIP3    H226252   5.399   4.153   2.117 -0.7512  1.6270 -0.9998
 1565TIP3   OH226253   3.124   5.588   6.438  0.5594 -0.5521 -1.0857
 1565TIP3    H126254   3.208   5.581   6.393  0.4356  1.5875 -1.7828
 1565TIP3    H226255   3.065   5.625   6.372 -0.6191 -0.8646 -0.2372
 1566TIP3   OH226256   0.778   3.382   6.913 -0.0373  0.4230  0.1244
 1566TIP3    H126257   0.791   3.297   6.871 -0.0679  0.1825  0.5952
 1566TIP3    H226258   0.866   3.411   6.937  0.0776  0.9907 -0.9190
 1567TIP3   OH226259   4.390   4.759   6.501 -0.0843 -0.3864  0.1235
 1567TIP3    H126260   4.412   4.717   6.418 -3.8047  2.0345 -2.3637
 1567TIP3    H226261   4.354   4.688   6.555  1.4637 -1.8151 -0.6278
 1568TIP3   OH226262   1.787   5.977   1.661 -0.4476  0.1032 -0.4977
 1568TIP3    H126263   1.753   6.036   1.728 -3.7143 -1.2995 -0.7359
 1568TIP3    H226264   1.726   5.988   1.587  1.9151  0.1887 -2.5610
 1569TIP3   OH226265   0.496   5.187   6.955  0.8153 -0.3369  0.1429
 1569TIP3    H126266   0.523   5.185   6.863  0.1980 -0.1847 -0.0441
 1569TIP3    H226267   0.437   5.262   6.961  0.8650 -0.3337  0.6724
 1570TIP3   OH226268   1.661   3.387   0.303  0.0055 -0.1705  0.3000
 1570TIP3    H126269   1.717   3.382   0.226  0.0116 -0.6360  0.3332
 1570TIP3    H226270   1.719   3.415   0.374 -0.3614  2.1164 -0.2271
 1571TIP3   OH226271   0.034   4.387   7.860 -0.7595 -0.0130  0.0826
 1571TIP3    H126272  -0.023   4.435   7.800  0.1671  0.0419 -0.7776
 1571TIP3    H226273   0.114   4.370   7.809 -0.4601 -1.0983  0.8846
 1572TIP3   OH226274   2.460   3.889   0.403 -0.5046  0.0729 -0.1650
 1572TIP3    H126275   2.393   3.957   0.410  0.5394  1.0211  1.1539
 1572TIP3    H226276   2.422   3.813   0.446  0.1799  1.4066  3.0655
 1573TIP3   OH226277   3.536   2.970   0.088  0.0848 -0.1501 -0.1837
 1573TIP3    H126278   3.507   3.017   0.009 -0.7537 -0.2265  0.0692
 1573TIP3    H226279   3.528   2.877   0.065 -0.3382 -0.1737  0.0469
 1574TIP3   OH226280   0.653   0.853   6.778  0.5174  0.5753 -0.4961
 1574TIP3    H126281   0.580   0.794   6.763  1.4126 -0.9180  0.7062
 1574TIP3    H226282   0.679   0.882   6.691 -0.1916 -0.5079 -1.0914
 1575TIP3   OH226283   5.393   0.750   7.991  0.5047  0.2518 -0.4482
 1575TIP3    H126284   5.436   0.762   8.076  1.4454 -3.1417 -0.2764
 1575TIP3    H226285   5.343   0.669   8.000 -1.1610  0.9496 -2.5090
 1576TIP3   OH226286   0.546   3.717   7.298  0.2491 -0.1617  0.3324
 1576TIP3    H126287   0.453   3.700   7.317 -0.8069  3.4668 -0.7512
 1576TIP3    H226288   0.558   3.685   7.209 -0.1321 -0.1267  0.2646
 1577TIP3   OH226289   3.400   3.273   0.091 -0.0073 -0.4889 -0.0282
 1577TIP3    H126290   3.425   3.348   0.145 -1.8626  1.4561 -1.7054
 1577TIP3    H226291   3.341   3.222   0.146 -0.8201  0.7432  0.2856
 1578TIP3   OH226292   2.560   5.580   6.509 -0.8637 -0.7461  0.3546
 1578TIP3    H126293   2.583   5.495   6.473  1.4639  0.0599 -0.2629
 1578TIP3    H226294   2.623   5.641   6.470 -1.6662  1.0637  1.6974
 1579TIP3   OH226295   0.589   1.889   8.334  0.8686 -0.6322 -0.2043
 1579TIP3    H126296   0.676   1.924   8.316  0.0058  2.0810  0.5313
 1579TIP3    H226297   0.571   1.830   8.261  3.0673 -0.7993 -0.6611
 1580TIP3   OH226298   4.145   2.066   7.573  0.6265 -0.2079  0.1523
 1580TIP3    H126299   4.118   2.093   7.661 -0.5162 -1.7332  0.3170
 1580TIP3    H226300   4.129   1.971   7.571 -0.8389  0.0005 -2.1819
 1581TIP3   OH226301   0.737   5.309   1.347 -0.2041 -0.5931  0.2372
 1581TIP3    H126302   0.665   5.350   1.300  0.4912 -1.8731 -2.1025
 1581TIP3    H226303   0.774   5.379   1.401 -0.3751  1.3091 -1.9713
 1582TIP3   OH226304   0.620   2.042   7.868 -0.5680 -0.3546 -0.4666
 1582TIP3    H126305   0.625   2.114   7.804 -1.1415  1.6618  1.6304
 1582TIP3    H226306   0.695   2.056   7.926 -0.1958 -2.0138 -0.4805
 1583TIP3   OH226307   3.899   2.675   0.206  0.1839  0.1521  0.3286
 1583TIP3    H126308   3.843   2.664   0.283 -0.3582  2.2637  0.2876
 1583TIP3    H226309   3.985   2.697   0.241  0.3822 -0.6364  0.3483
 1584TIP3   OH226310   5.777   3.578   7.188 -0.4526 -0.0145  0.3848
 1584TIP3    H126311   5.826   3.553   7.109  0.3234  0.4729  0.7026
 1584TIP3    H226312   5.815   3.524   7.257  0.4725  1.2158  0.8634
 1585TIP3   OH226313   0.201   5.963   1.555 -0.0174 -0.5139  0.4926
 1585TIP3    H126314   0.266   5.913   1.604 -1.5182 -2.1565  0.9159
 1585TIP3    H226315   0.138   5.993   1.621 -0.3279  0.0394 -0.0417
 1586TIP3   OH226316   2.027   5.724   8.211  1.1348  0.2330  0.2557
 1586TIP3    H126317   2.057   5.746   8.123 -1.8197 -0.7633 -1.1315
 1586TIP3    H226318   2.103   5.682   8.253  3.1241  2.1833 -1.1582
 1587TIP3   OH226319   0.764   1.918   7.354  0.4787 -0.2745 -0.2122
 1587TIP3    H126320   0.836   1.935   7.293  1.1408 -0.0158  0.6363
 1587TIP3    H226321   0.766   1.992   7.415 -0.4125 -0.3409 -0.0872
 1588TIP3   OH226322   4.266   2.301   7.177  0.4107 -0.7573 -0.2221
 1588TIP3    H126323   4.222   2.286   7.261 -1.4126  0.3165 -0.9202
 1588TIP3    H226324   4.250   2.221   7.127  0.1710 -0.7880 -0.0965
 1589TIP3   OH226325   4.212   1.655   6.256 -0.1335 -0.2875 -0.5274
 1589TIP3    H126326   4.198   1.648   6.162  0.2477 -2.5797 -0.4783
 1589TIP3    H226327   4.147   1.596   6.295  0.6075 -0.4323  0.5524
 1590TIP3   OH226328   3.221   6.639   0.641 -0.1736 -0.6013  0.4435
 1590TIP3    H126329   3.250   6.582   0.569 -1.2079 -0.8346  0.2069
 1590TIP3    H226330   3.275   6.718   0.631  0.6800 -1.1943  0.2690
 1591TIP3   OH226331   1.638   5.677   8.408 -0.2355 -0.4777  0.5156
 1591TIP3    H126332   1.721   5.723   8.394 -0.6854  0.5039  0.9987
 1591TIP3    H226333   1.582   5.741   8.451 -1.5487 -0.8502 -0.5860
 1592TIP3   OH226334   2.273   5.364   8.340 -0.2389  0.8983 -0.4558
 1592TIP3    H126335   2.195   5.323   8.303  2.0529 -1.6961 -2.9957
 1592TIP3    H226336   2.317   5.404   8.264  1.8192  0.5298  0.4626
 1593TIP3   OH226337   3.554   5.603   6.892 -0.7623  0.7289 -0.2332
 1593TIP3    H126338   3.624   5.552   6.849 -0.0262  0.4756  1.2028
 1593TIP3    H226339   3.568   5.692   6.862  0.6330  0.8005  0.5607
 1594TIP3   OH226340   0.736   3.119   0.660 -0.6882 -0.1934 -0.2432
 1594TIP3    H126341   0.746   3.082   0.573 -0.9783  0.8722 -0.7450
 1594TIP3    H226342   0.697   3.206   0.645  1.2593  0.9299  0.7715
 1595TIP3   OH226343   3.219   3.876   1.085  0.1933 -0.2765 -0.1017
 1595TIP3    H126344   3.279   3.884   1.158  1.2654 -0.5583 -0.9172
 1595TIP3    H226345   3.138   3.916   1.115  0.5176 -0.6412  1.3230
 1596TIP3   OH226346   2.951   2.644   1.286 -0.4258  0.0728 -0.1521
 1596TIP3    H126347   2.858   2.665   1.272 -0.3285  1.0920  0.6073
 1596TIP3    H226348   2.988   2.723   1.325  0.8747 -0.1668 -0.8443
 1597TIP3   OH226349   0.098   4.736   1.342 -0.2003 -0.2420  0.3090
 1597TIP3    H126350   0.114   4.643   1.359 -0.8538 -0.2725  0.7956
 1597TIP3    H226351   0.068   4.739   1.251 -1.2314 -0.6376  0.6298
 1598TIP3   OH226352   1.478   5.337   6.967  0.6844  0.3970 -0.4182
 1598TIP3    H126353   1.557   5.299   6.928 -0.2712 -0.1994 -1.8450
 1598TIP3    H226354   1.442   5.267   7.022  1.6294  0.9948  1.0495
 1599TIP3   OH226355   1.522   0.339   8.081  0.2943  0.4316  0.3005
 1599TIP3    H126356   1.604   0.320   8.125  1.3289  0.7865 -1.4096
 1599TIP3    H226357   1.461   0.273   8.114  1.2936  0.0500  1.4554
 1600TIP3   OH226358   3.945   0.049   0.455  0.7674 -0.3191  0.1182
 1600TIP3    H126359   3.906  -0.010   0.390  1.8812 -0.3928 -0.4910
 1600TIP3    H226360   3.985   0.119   0.404  2.1726 -0.6898  0.6628
 1601TIP3   OH226361   0.184   3.916   8.631 -0.1130 -0.2751 -0.0289
 1601TIP3    H126362   0.264   3.943   8.676  1.5807 -0.7186 -2.5894
 1601TIP3    H226363   0.213   3.881   8.547 -2.9383 -1.4377 -0.6616
 1602TIP3   OH226364   5.832   4.774   0.971 -0.1676 -0.1632  0.1845
 1602TIP3    H126365   5.767   4.757   1.038 -1.6547  1.6785 -0.6975
 1602TIP3    H226366   5.855   4.866   0.983 -0.0812  0.0570 -1.4788
 1603TIP3   OH226367   2.157   6.289   6.938  0.8714  0.3069  0.3497
 1603TIP3    H126368   2.169   6.216   6.878  2.3928  1.2130 -0.5136
 1603TIP3    H226369   2.088   6.260   6.998  1.6757 -1.9665  0.2673
 1604TIP3   OH226370   0.145   0.953   6.509 -0.5415 -0.0148  0.0331
 1604TIP3    H126371   0.217   0.891   6.511 -1.9036 -1.7691 -1.4627
 1604TIP3    H226372   0.167   1.018   6.575  0.8882 -2.1805  1.8124
 1605TIP3   OH226373   5.735   3.301   8.084  0.2767 -0.2203  0.5349
 1605TIP3    H126374   5.717   3.226   8.027 -0.6752  1.3809 -1.4174
 1605TIP3    H226375   5.830   3.301   8.094  0.7667  0.5914 -2.8818
 1606TIP3   OH226376   2.482   4.766   6.529  0.1934  0.1364 -0.2690
 1606TIP3    H126377   2.555   4.716   6.492 -1.6038 -1.9471 -1.2321
 1606TIP3    H226378   2.469   4.838   6.467  1.5929  0.7168  0.0861
 1607TIP3   OH226379   2.068   0.583   0.570  0.1460  0.0907  0.1655
 1607TIP3    H126380   2.134   0.642   0.534 -0.5190  1.4175  1.0027
 1607TIP3    H226381   2.048   0.620   0.656 -2.6461  0.5438 -0.5803
 1608TIP3   OH226382   6.435   4.387   0.402 -0.1751 -0.5140 -0.4289
 1608TIP3    H126383   6.490   4.317   0.435 -0.3037 -0.4178 -0.0040
 1608TIP3    H226384   6.346   4.361   0.425 -0.2166 -0.1750 -0.1917
 1609TIP3   OH226385   2.275   1.474   8.717 -0.6601  0.4542 -0.5827
 1609TIP3    H126386   2.213   1.547   8.718 -0.8909  0.2593 -0.7827
 1609TIP3    H226387   2.262   1.432   8.633 -1.7192 -0.8464  0.1915
 1610TIP3   OH226388   2.735   6.394   1.722 -0.2523 -0.0288 -0.1576
 1610TIP3    H126389   2.656   6.404   1.669 -0.1481 -1.3609 -0.6020
 1610TIP3    H226390   2.750   6.481   1.759 -0.3195  0.9657 -2.3096
 1611TIP3   OH226391   6.156   4.660   7.070  0.7240 -0.3453  0.4442
 1611TIP3    H126392   6.235   4.636   7.021  0.3407 -0.1529 -0.2900
 1611TIP3    H226393   6.106   4.579   7.076  0.1639 -0.1040 -0.6531
 1612TIP3   OH226394   1.236   2.012   6.726 -0.3748 -0.0020  0.3362
 1612TIP3    H126395   1.247   1.939   6.665 -0.0302 -0.0395  0.4389
 1612TIP3    H226396   1.158   1.990   6.777  0.8161 -1.2577  1.6924
 1613TIP3   OH226397   5.517   5.308   2.170 -0.1946 -0.3748 -0.5175
 1613TIP3    H126398   5.564   5.310   2.087  2.8232  2.8706  1.0136
 1613TIP3    H226399   5.438   5.360   2.153  0.9836  1.3160 -1.1631
 1614TIP3   OH226400   3.919   6.731   1.879 -0.6489  0.1738  0.1137
 1614TIP3    H126401   3.934   6.637   1.871  0.3550  0.1853  1.4860
 1614TIP3    H226402   3.896   6.744   1.971 -0.7075  1.2909 -0.0396
 1615TIP3   OH226403   6.430   2.177   7.617  0.0024  0.1260  0.6704
 1615TIP3    H126404   6.347   2.216   7.590 -0.3044 -0.3824  0.8666
 1615TIP3    H226405   6.429   2.089   7.579  0.6748  0.2831  0.2583
 1616TIP3   OH226406   1.126   3.636   0.490  0.0973  0.4135 -0.0330
 1616TIP3    H126407   1.080   3.671   0.566  0.0854 -0.3080  0.2965
 1616TIP3    H226408   1.095   3.690   0.417 -0.7138  0.4149  0.3007
 1617TIP3   OH226409   0.633   6.170   8.704  0.1320 -0.8525  0.8297
 1617TIP3    H126410   0.711   6.197   8.752 -0.1321 -0.5010  1.0599
 1617TIP3    H226411   0.661   6.092   8.655  2.0136  1.7224 -2.6630
 1618TIP3   OH226412   6.560   1.532   1.743 -0.5058  0.4748 -0.6183
 1618TIP3    H126413   6.636   1.564   1.695  1.2510  0.5983  2.0445
 1618TIP3    H226414   6.517   1.611   1.776 -1.5340  0.3829 -1.6780
 1619TIP3   OH226415   4.766   5.826   1.207  0.1347  0.2328 -0.4930
 1619TIP3    H126416   4.733   5.860   1.124  0.1542 -0.2749 -0.7093
 1619TIP3    H226417   4.834   5.764   1.182  0.1191  0.0535 -0.0960
 1620TIP3   OH226418   4.734   4.115   2.100  0.5091  0.9300  0.2908
 1620TIP3    H126419   4.772   4.030   2.076 -2.3531 -0.3498 -0.2119
 1620TIP3    H226420   4.747   4.121   2.194  3.6453  1.5880 -0.0773
 1621TIP3   OH226421   4.354   0.020   8.095  0.1336 -0.0997 -0.6499
 1621TIP3    H126422   4.268   0.008   8.136 -0.8807  2.0175 -1.9960
 1621TIP3    H226423   4.384   0.105   8.128  2.4479 -1.4033  0.9199
 1622TIP3   OH226424   4.744   4.213   2.361  0.4557  0.0122 -0.0131
 1622TIP3    H126425   4.839   4.208   2.377  0.3520 -1.3888  0.3150
 1622TIP3    H226426   4.711   4.270   2.429  1.1168  0.8914 -0.4059
 1623TIP3   OH226427   4.201   2.468   8.025  0.5963  0.1978 -0.3850
 1623TIP3    H126428   4.233   2.483   7.936  0.5418  0.2304 -0.3991
 1623TIP3    H226429   4.281   2.463   8.078  0.6042  0.9378 -0.3144
 1624TIP3   OH226430   6.349   5.723   8.303  0.6365  0.0948 -0.0833
 1624TIP3    H126431   6.372   5.808   8.339 -0.2307  0.4528 -0.3306
 1624TIP3    H226432   6.341   5.666   8.379  1.2071  0.2418  0.0873
 1625TIP3   OH226433   1.822   6.156   7.583  0.0453 -0.2244  0.8015
 1625TIP3    H126434   1.908   6.140   7.543  0.1813 -1.9432  1.7025
 1625TIP3    H226435   1.768   6.083   7.554 -1.7132  1.7241 -1.1962
 1626TIP3   OH226436   3.301   2.159   0.417  0.5027  0.1111 -0.5914
 1626TIP3    H126437   3.225   2.158   0.475  2.3880  0.7361  2.0427
 1626TIP3    H226438   3.323   2.067   0.403 -0.0944 -0.0435 -0.5417
 1627TIP3   OH226439   0.787   1.698   6.940 -0.3036 -0.0222  0.1848
 1627TIP3    H126440   0.703   1.720   6.900  0.3363  0.3261 -1.0123
 1627TIP3    H226441   0.840   1.663   6.868  0.9596  0.8168  0.6651
 1628TIP3   OH226442   4.451   0.339   0.259  0.6761  0.0183 -0.2899
 1628TIP3    H126443   4.377   0.325   0.200 -0.1869 -1.1962  1.0244
 1628TIP3    H226444   4.457   0.257   0.309  2.3006  0.4730  0.2993
 1629TIP3   OH226445   3.189   3.670   0.917  0.3979 -0.4165 -0.0853
 1629TIP3    H126446   3.216   3.729   0.988  0.4137 -1.1520  0.5280
 1629TIP3    H226447   3.264   3.613   0.903  0.0589 -0.8740 -0.0631
 1630TIP3   OH226448   2.060   2.204   7.505  0.5523  0.0158 -0.1710
 1630TIP3    H126449   2.082   2.225   7.596 -1.2113  1.2687 -0.0038
 1630TIP3    H226450   2.130   2.245   7.454  1.6058 -0.7690  0.5910
 1631TIP3   OH226451   1.815   4.840   2.024  0.1736  0.1520  0.2536
 1631TIP3    H126452   1.895   4.788   2.033 -0.1630 -0.3504  0.3690
 1631TIP3    H226453   1.810   4.860   1.930  0.6388  0.5162  0.3051
 1632TIP3   OH226454   1.271   6.771   7.898 -0.1830  0.2086 -0.0098
 1632TIP3    H126455   1.279   6.860   7.932  0.1090  0.2556 -0.1961
 1632TIP3    H226456   1.243   6.719   7.973 -2.4900  0.8103 -0.3788
 1633TIP3   OH226457   1.417   2.858   7.157 -0.4158 -0.8725 -0.2195
 1633TIP3    H126458   1.345   2.918   7.138  0.7642  0.8614  0.5455
 1633TIP3    H226459   1.376   2.785   7.204 -1.7171 -0.0987 -0.1137
 1634TIP3   OH226460   2.561   4.585   7.601  0.7319  0.5038 -0.9152
 1634TIP3    H126461   2.483   4.611   7.649  0.4478 -0.4919 -0.8156
 1634TIP3    H226462   2.591   4.665   7.558  0.4607  1.2001  0.1699
 1635TIP3   OH226463   0.112   5.769   8.568 -0.3115  0.0795  0.6716
 1635TIP3    H126464   0.126   5.779   8.474 -0.6630 -0.8938  0.4971
 1635TIP3    H226465   0.019   5.788   8.581 -0.8273 -2.0296  0.4333
 1636TIP3   OH226466   1.599   5.302   0.105  0.7727 -0.0170  0.1829
 1636TIP3    H126467   1.514   5.328   0.070  0.4367 -0.9246  0.2703
 1636TIP3    H226468   1.587   5.209   0.128  0.1360  0.9823  4.9791
 1637TIP3   OH226469   0.237   0.509   7.024  0.2567 -0.7796 -0.3532
 1637TIP3    H126470   0.173   0.457   7.072  1.6093 -1.7958  0.4367
 1637TIP3    H226471   0.264   0.577   7.087  0.6500 -0.9456 -0.3422
 1638TIP3   OH226472   0.763   5.070   1.136  0.2035 -0.3516 -0.5687
 1638TIP3    H126473   0.714   4.999   1.176  0.1738  0.7581  1.4703
 1638TIP3    H226474   0.755   5.143   1.197  3.1793  0.3344 -0.8367
 1639TIP3   OH226475   5.256   6.302   0.967 -0.3102  0.2014 -0.5750
 1639TIP3    H126476   5.215   6.239   1.025 -0.1576  1.6101  1.1424
 1639TIP3    H226477   5.185   6.360   0.939 -0.6741 -1.2732 -3.0530
 1640TIP3   OH226478   0.753   2.274   8.421  0.5469  0.2328  0.5153
 1640TIP3    H126479   0.823   2.210   8.406 -0.3406 -1.0003  1.4190
 1640TIP3    H226480   0.716   2.290   8.334  1.0071 -0.2230  0.2292
 1641TIP3   OH226481   6.053   1.920   6.406 -0.0526 -0.3141 -0.0089
 1641TIP3    H126482   6.099   1.869   6.338 -0.0217  1.2616 -1.2437
 1641TIP3    H226483   5.965   1.884   6.407 -0.1929 -0.0645 -1.2526
 1642TIP3   OH226484   0.075   6.049   8.701  0.3933  0.2438  0.0334
 1642TIP3    H126485   0.163   6.029   8.668  0.0987  0.6416 -1.0081
 1642TIP3    H226486   0.078   6.142   8.721 -0.3263  0.6808 -1.7540
 1643TIP3   OH226487   6.382   2.093   8.831 -0.3258 -0.4092 -0.2010
 1643TIP3    H126488   6.420   2.175   8.801 -1.4999  0.0571 -0.4643
 1643TIP3    H226489   6.451   2.052   8.884  0.1501  0.8935  0.2164
 1644TIP3   OH226490   5.263   1.221   1.535  0.4060 -0.6015 -0.0918
 1644TIP3    H126491   5.343   1.237   1.486  0.1862 -0.2933 -0.3575
 1644TIP3    H226492   5.276   1.267   1.618  1.5717 -2.7182  0.9666
 1645TIP3   OH226493   1.408   5.731   2.136  0.4063  0.4479 -0.2957
 1645TIP3    H126494   1.459   5.650   2.148  0.1404  0.4415  0.9815
 1645TIP3    H226495   1.440   5.789   2.204 -0.8178  0.6819  0.1031
 1646TIP3   OH226496   0.616   1.081   8.648 -0.2106  0.3403 -0.0467
 1646TIP3    H126497   0.709   1.104   8.647 -0.2577  0.5767  0.5477
 1646TIP3    H226498   0.614   0.989   8.623  0.1932  0.2989  0.0672
 1647TIP3   OH226499   3.876   5.148   0.414  0.0860  0.2479 -0.5340
 1647TIP3    H126500   3.937   5.129   0.485 -0.7200 -0.8117 -0.1049
 1647TIP3    H226501   3.789   5.147   0.455 -0.3269  0.3916 -1.3786
 1648TIP3   OH226502   1.740   3.265   8.454  0.1581 -0.0843  0.1851
 1648TIP3    H126503   1.833   3.252   8.438  0.2734  1.2778 -0.4032
 1648TIP3    H226504   1.705   3.291   8.369 -0.5325  0.6104  0.6745
 1649TIP3   OH226505   4.741   4.182   7.566  0.6572  0.1933 -0.2100
 1649TIP3    H126506   4.793   4.181   7.486 -0.8608 -0.3242 -1.2402
 1649TIP3    H226507   4.803   4.160   7.636  1.7991 -0.4628 -1.3847
 1650TIP3   OH226508   0.373   4.497   0.812 -0.6100  0.8386  0.1839
 1650TIP3    H126509   0.449   4.551   0.789  0.4256 -0.9709 -0.8788
 1650TIP3    H226510   0.337   4.471   0.728 -0.6347 -0.6946  0.6458
 1651TIP3   OH226511   2.579   0.009   7.470  0.2128 -0.4515 -0.1956
 1651TIP3    H126512   2.582   0.063   7.550 -0.6441 -0.9106  0.1603
 1651TIP3    H226513   2.561   0.072   7.400  2.5408  0.2040 -0.3107
 1652TIP3   OH226514   0.439   1.254   1.747 -0.0309  0.0829 -0.0744
 1652TIP3    H126515   0.356   1.208   1.758 -1.4493  2.6072  0.7090
 1652TIP3    H226516   0.493   1.223   1.820 -1.3013  0.2981  1.0136
 1653TIP3   OH226517   1.326   2.447   1.939  0.0879  0.5907 -0.7912
 1653TIP3    H126518   1.350   2.532   1.902 -0.5448  1.1306 -0.0107
 1653TIP3    H226519   1.390   2.386   1.903 -0.7486  0.9784 -3.1309
 1654TIP3   OH226520   6.797   1.493   7.133 -0.5786 -0.0498 -0.2043
 1654TIP3    H126521   6.829   1.427   7.194  2.3157 -0.4966 -2.0345
 1654TIP3    H226522   6.835   1.575   7.163  1.2895 -0.3548 -1.6071
 1655TIP3   OH226523   2.180   6.098   2.401 -0.5623  0.3461 -0.6534
 1655TIP3    H126524   2.167   6.024   2.341 -0.9877  0.7452 -1.0588
 1655TIP3    H226525   2.254   6.146   2.364  0.2198 -0.2938  0.0363
 1656TIP3   OH226526   3.986   4.622   0.083  0.2334  0.2340 -0.1370
 1656TIP3    H126527   3.958   4.563   0.014  1.3614  0.4692 -0.8212
 1656TIP3    H226528   4.077   4.598   0.099  0.1331  0.5185  0.9206
 1657TIP3   OH226529   0.003   5.407   0.776 -0.2288  0.4493 -0.4215
 1657TIP3    H126530  -0.012   5.500   0.793  3.0565  0.7224  1.9996
 1657TIP3    H226531   0.097   5.395   0.785 -0.3109 -2.8896 -2.2538
 1658TIP3   OH226532   5.833   1.775   6.289  0.6147 -0.5092  0.5565
 1658TIP3    H126533   5.773   1.743   6.221  0.4275  0.8869  0.0327
 1658TIP3    H226534   5.920   1.752   6.257  0.6176  1.1354 -0.7726
 1659TIP3   OH226535   3.720   6.221   7.232 -0.0764  0.3706 -0.0261
 1659TIP3    H126536   3.652   6.155   7.242 -1.3143  1.6181  0.2153
 1659TIP3    H226537   3.749   6.212   7.141  0.0045 -0.6922  0.0952
 1660TIP3   OH226538   6.244   3.752   0.086  0.5307 -0.1596  0.3370
 1660TIP3    H126539   6.318   3.780   0.139  0.3073 -0.2899  0.7250
 1660TIP3    H226540   6.279   3.685   0.028  0.3348 -1.5966  1.8160
 1661TIP3   OH226541   2.324   1.120   6.735 -0.2272  0.3919 -0.3871
 1661TIP3    H126542   2.389   1.147   6.670  0.5443  0.2191  0.2810
 1661TIP3    H226543   2.260   1.191   6.736 -0.4099  0.2634 -1.5247
 1662TIP3   OH226544   3.179   0.086   6.426  0.1627 -0.5454  0.4382
 1662TIP3    H126545   3.150   0.014   6.372  1.5417  0.6145 -2.0051
 1662TIP3    H226546   3.103   0.108   6.480 -0.1909 -3.9583  1.5902
 1663TIP3   OH226547   5.210   6.656   7.759 -0.3362 -0.0574 -0.1555
 1663TIP3    H126548   5.118   6.642   7.781  0.0518 -0.6935  1.1218
 1663TIP3    H226549   5.232   6.584   7.701 -0.8187  0.5002 -1.0622
 1664TIP3   OH226550   0.402   4.609   1.094 -0.2877 -0.3627 -0.1428
 1664TIP3    H126551   0.428   4.550   1.023 -2.1005 -0.6752 -0.6003
 1664TIP3    H226552   0.452   4.580   1.170 -0.2507 -1.7183 -0.6623
 1665TIP3   OH226553   2.791   3.936   2.054 -0.4068  0.0982  0.3983
 1665TIP3    H126554   2.776   4.026   2.083  0.1644 -0.4487  2.5987
 1665TIP3    H226555   2.869   3.941   1.999 -0.0816  0.8772  0.9063
 1666TIP3   OH226556   6.675   4.031   0.839 -0.1933  0.0303 -0.7370
 1666TIP3    H126557   6.766   4.008   0.857  0.3251  0.4221 -2.6522
 1666TIP3    H226558   6.678   4.125   0.821 -1.1598  0.2517  0.2053
 1667TIP3   OH226559   0.152   0.090   0.907  0.1758 -0.0339  0.0103
 1667TIP3    H126560   0.076   0.105   0.964  0.7800  2.4743  0.2580
 1667TIP3    H226561   0.207   0.029   0.956 -1.5236 -1.7381 -0.0792
 1668TIP3   OH226562   1.384   0.256   7.832  0.8410 -0.3568  0.4409
 1668TIP3    H126563   1.454   0.287   7.890  0.9960 -0.2324  0.1873
 1668TIP3    H226564   1.429   0.206   7.765  0.8910  1.2548 -0.7814
 1669TIP3   OH226565   1.578   2.712   7.003 -0.4514  0.0376 -0.3354
 1669TIP3    H126566   1.524   2.759   7.067 -0.6475 -0.2435 -0.2942
 1669TIP3    H226567   1.608   2.779   6.942 -0.7223  0.2170 -0.2691
 1670TIP3   OH226568   2.799   6.280   7.622  0.0546  0.6621 -0.6735
 1670TIP3    H126569   2.723   6.335   7.603 -0.4576 -0.6310 -2.6901
 1670TIP3    H226570   2.787   6.202   7.568  0.2557 -1.9743  2.7311
 1671TIP3   OH226571   6.289   2.834   7.603  0.5963  0.1166 -0.1297
 1671TIP3    H126572   6.302   2.902   7.669  1.3909  0.0196 -0.1708
 1671TIP3    H226573   6.338   2.759   7.636  0.9715  0.0544 -0.7932
 1672TIP3   OH226574   1.291   6.539   8.383  0.0328 -0.4929  0.2214
 1672TIP3    H126575   1.271   6.473   8.449  2.2726  0.1741  1.6955
 1672TIP3    H226576   1.248   6.619   8.414 -1.5228 -0.8722 -0.8383
 1673TIP3   OH226577   4.993   4.999   7.851  0.2802 -0.5638  0.4058
 1673TIP3    H126578   4.940   5.060   7.798  2.5461  0.4545 -0.8433
 1673TIP3    H226579   4.975   4.913   7.813 -0.1278 -0.1724 -0.3299
 1674TIP3   OH226580   0.175   0.669   8.789 -0.0206  0.0003 -0.7077
 1674TIP3    H126581   0.185   0.576   8.772  0.8502 -0.1885  0.6719
 1674TIP3    H226582   0.131   0.674   8.874 -1.1622  0.8722 -1.3125
 1675TIP3   OH226583   3.999   6.105   7.297 -0.6049  0.4265 -0.5112
 1675TIP3    H126584   3.946   6.166   7.348  0.9390  1.7496 -0.3943
 1675TIP3    H226585   4.064   6.161   7.253  0.2788 -1.0471 -1.1533
 1676TIP3   OH226586   5.606   0.925   2.364  0.4954  0.1678  0.5638
 1676TIP3    H126587   5.549   0.863   2.411  1.5315 -0.1363  1.4525
 1676TIP3    H226588   5.549   0.964   2.298 -0.4696 -0.9379  0.7003
 1677TIP3   OH226589   3.758   3.448   1.277 -0.2057 -0.4305  0.4782
 1677TIP3    H126590   3.784   3.523   1.330 -1.2203  0.3767 -0.1275
 1677TIP3    H226591   3.671   3.470   1.244  0.1952 -1.1030 -1.1486
 1678TIP3   OH226592   0.458   5.204   1.229  0.1821 -0.3125 -0.4835
 1678TIP3    H126593   0.436   5.133   1.169 -0.8687 -0.2707 -0.1847
 1678TIP3    H226594   0.389   5.269   1.214  0.4303  0.0963  0.1192
 1679TIP3   OH226595   4.259   4.788   2.379 -0.3436 -0.3818  0.0755
 1679TIP3    H126596   4.314   4.710   2.367 -0.1929 -0.3784  0.7195
 1679TIP3    H226597   4.173   4.762   2.345 -0.2536 -0.7758  0.1440
 1680TIP3   OH226598   4.500   6.620   1.230  0.2277  0.3982 -0.0895
 1680TIP3    H126599   4.463   6.597   1.144  0.8639  2.6200 -1.0272
 1680TIP3    H226600   4.594   6.606   1.220  0.5418  2.4425 -0.4479
 1681TIP3   OH226601   3.073   5.341   8.124  0.1075  0.1024 -0.1131
 1681TIP3    H126602   2.980   5.360   8.131  0.0557 -0.5026  1.1203
 1681TIP3    H226603   3.086   5.263   8.177  1.2582 -0.0509 -0.5793
 1682TIP3   OH226604   6.796   6.176   0.487  0.3488  0.3915  0.5106
 1682TIP3    H126605   6.865   6.239   0.507  0.9872 -0.5275  1.3339
 1682TIP3    H226606   6.825   6.134   0.406 -0.3153  1.4675 -0.2979
 1683TIP3   OH226607   4.021   2.795   6.582 -0.2814 -0.4926  0.4571
 1683TIP3    H126608   3.958   2.857   6.545  2.2180  0.7646 -2.1029
 1683TIP3    H226609   3.971   2.715   6.596 -2.4218  0.3536 -1.7027
 1684TIP3   OH226610   4.716   1.477   7.342 -0.1021 -0.0406  0.2846
 1684TIP3    H126611   4.739   1.568   7.323  0.7528  0.0208  1.5050
 1684TIP3    H226612   4.628   1.466   7.305  0.2636  0.9045 -0.9468
 1685TIP3   OH226613   6.601   4.594   0.531  0.1387 -0.0715  0.1046
 1685TIP3    H126614   6.662   4.584   0.458 -0.5701  0.1093 -0.5214
 1685TIP3    H226615   6.526   4.539   0.508  0.1331 -0.4453  0.9609
 1686TIP3   OH226616   2.353   4.668   1.995 -0.3941 -1.3117 -0.2785
 1686TIP3    H126617   2.284   4.609   2.024 -0.7359 -1.2565 -0.9555
 1686TIP3    H226618   2.434   4.619   2.010 -0.4900 -1.0103  1.4086
 1687TIP3   OH226619   0.354   4.848   7.865 -0.5873 -0.2160 -0.1560
 1687TIP3    H126620   0.415   4.878   7.933  0.4642 -1.5440 -0.4591
 1687TIP3    H226621   0.285   4.914   7.864  1.0105  1.5623 -0.0354
 1688TIP3   OH226622   2.717   2.227   7.371  0.9343  0.6840  0.4256
 1688TIP3    H126623   2.702   2.262   7.459  1.8485 -0.7353  1.1750
 1688TIP3    H226624   2.812   2.225   7.362  0.9972 -2.4447  0.8157
 1689TIP3   OH226625   6.734   2.770   6.295  0.0370  0.3955 -0.2780
 1689TIP3    H126626   6.720   2.753   6.388  3.9256 -2.1378  0.0746
 1689TIP3    H226627   6.775   2.856   6.292 -0.1706  0.5213  0.3336
 1690TIP3   OH226628   6.090   0.288   1.738 -0.2022  0.5494 -0.7388
 1690TIP3    H126629   6.092   0.194   1.756 -0.6695  0.3389 -1.6926
 1690TIP3    H226630   6.144   0.327   1.806 -0.8338 -0.3101  0.2742
 1691TIP3   OH226631   0.084   2.751   7.030 -0.0660 -0.1853 -0.2379
 1691TIP3    H126632   0.172   2.786   7.041 -0.2647  1.0960 -2.1980
 1691TIP3    H226633   0.088   2.701   6.948 -1.4571  1.1033 -1.1556
 1692TIP3   OH226634   5.625   0.415   0.655 -0.2640 -0.5751  0.4747
 1692TIP3    H126635   5.577   0.424   0.736 -2.1358  2.8271 -0.8177
 1692TIP3    H226636   5.695   0.480   0.661 -0.1157 -0.6349 -0.4364
 1693TIP3   OH226637   2.883   4.351   0.520  0.2875 -0.3021 -0.3954
 1693TIP3    H126638   2.854   4.442   0.525  0.7502 -0.1601 -0.2005
 1693TIP3    H226639   2.899   4.335   0.427  0.4041 -0.1182 -0.4065
 1694TIP3   OH226640   1.886   4.526   1.380  0.1966 -0.0032  0.6764
 1694TIP3    H126641   1.951   4.545   1.448 -0.2148  2.1278  0.5186
 1694TIP3    H226642   1.820   4.473   1.424 -0.6750  2.3199  2.3204
 1695TIP3   OH226643   0.353   3.950   1.399  0.0873  0.4418 -0.2569
 1695TIP3    H126644   0.403   3.869   1.406 -0.5908  0.0755  0.4375
 1695TIP3    H226645   0.392   4.008   1.464 -0.5141  0.0836  0.4327
 1696TIP3   OH226646   5.613   4.023   7.473 -0.3803 -0.4570 -0.1688
 1696TIP3    H126647   5.708   4.012   7.460 -0.2075 -0.2616  0.7884
 1696TIP3    H226648   5.605   4.112   7.508 -0.6151 -1.3693  2.3171
 1697TIP3   OH226649   5.456   0.301   8.627  0.0779 -0.7211  0.1824
 1697TIP3    H126650   5.452   0.269   8.537 -0.9400  0.0515 -0.0677
 1697TIP3    H226651   5.545   0.335   8.637  0.7462 -2.3485  0.0333
 1698TIP3   OH226652   3.378   6.589   1.414 -0.4253 -0.5789  0.3732
 1698TIP3    H126653   3.354   6.511   1.364  0.6868  0.0690 -1.2700
 1698TIP3    H226654   3.330   6.661   1.372  1.0244  0.0724 -0.2556
 1699TIP3   OH226655   1.406   1.650   8.705 -0.4251  0.4509  0.3712
 1699TIP3    H126656   1.417   1.703   8.627  1.6924 -2.1006 -1.2527
 1699TIP3    H226657   1.444   1.702   8.775 -0.5467  1.9780 -0.6395
 1700TIP3   OH226658   2.016   6.235   7.907  0.0201  0.1232 -0.1998
 1700TIP3    H126659   1.973   6.197   7.984  0.4810  1.8422  0.9768
 1700TIP3    H226660   1.945   6.281   7.861 -0.1655 -0.5262 -0.5846
 1701TIP3   OH226661   5.903   3.083   7.786 -0.0801 -0.3479  0.9976
 1701TIP3    H126662   5.940   3.029   7.856  0.3184 -0.5193  0.6608
 1701TIP3    H226663   5.952   3.058   7.708 -0.6964 -0.3450  0.6027
 1702TIP3   OH226664   5.107   4.536   7.968  0.1993 -0.0254 -0.2221
 1702TIP3    H126665   5.073   4.585   8.043 -2.2801 -1.0581 -0.5849
 1702TIP3    H226666   5.137   4.453   8.005 -0.6550 -0.3753 -0.2944
 1703TIP3   OH226667   4.155   5.479   1.131 -0.5294 -0.0847  0.1364
 1703TIP3    H126668   4.078   5.502   1.079 -0.4179 -0.7946 -0.3538
 1703TIP3    H226669   4.148   5.534   1.209 -2.6851 -1.6167  1.1515
 1704TIP3   OH226670   6.798   2.509   7.584  0.0902 -0.1209 -0.3058
 1704TIP3    H126671   6.754   2.447   7.525 -2.1756 -1.2630  2.3835
 1704TIP3    H226672   6.769   2.595   7.552  0.3719 -0.5716 -1.8944
 1705TIP3   OH226673   3.657   1.327   0.942  0.1075  0.0380 -0.5501
 1705TIP3    H126674   3.697   1.333   1.029 -0.4962 -1.2731 -0.1622
 1705TIP3    H226675   3.563   1.331   0.959 -0.0710 -1.7524 -0.9782
 1706TIP3   OH226676   4.986   0.032   7.673  0.2848  0.3848  0.1313
 1706TIP3    H126677   5.045  -0.003   7.606  0.5709  0.8465  0.1433
 1706TIP3    H226678   4.968  -0.043   7.730  2.3289  0.6300  1.2046
 1707TIP3   OH226679   3.937   1.135   1.841 -0.1050  0.4895  0.9832
 1707TIP3    H126680   3.842   1.147   1.851 -0.2526 -0.7871  1.3355
 1707TIP3    H226681   3.975   1.216   1.875 -1.0312  0.5534  1.9530
 1708TIP3   OH226682   3.127   3.653   0.637 -0.1842 -0.1564  0.3681
 1708TIP3    H126683   3.181   3.656   0.716 -0.2992 -1.1330  0.4939
 1708TIP3    H226684   3.077   3.735   0.639 -0.4085 -0.3130  1.4652
 1709TIP3   OH226685   3.780   2.381   1.395  0.3984 -0.1440 -0.3355
 1709TIP3    H126686   3.741   2.453   1.344 -2.1055  0.9033  2.6853
 1709TIP3    H226687   3.725   2.306   1.376  1.8351 -0.8462 -1.9959
 1710TIP3   OH226688   0.642   5.477   6.479 -0.6850  0.3131  0.3371
 1710TIP3    H126689   0.707   5.409   6.496  0.2903  1.1578  0.0973
 1710TIP3    H226690   0.690   5.559   6.490 -1.5593  0.9495 -0.4706
 1711TIP3   OH226691   4.853   2.057   0.346 -0.0317 -0.0297 -0.1357
 1711TIP3    H126692   4.788   2.024   0.407  0.6468  2.1503  1.9075
 1711TIP3    H226693   4.937   2.042   0.389  0.6152 -0.1114 -1.3789
 1712TIP3   OH226694   0.392   1.654   7.658 -0.2737  0.0034 -1.1819
 1712TIP3    H126695   0.432   1.577   7.617  0.1064 -1.1049  1.0747
 1712TIP3    H226696   0.325   1.618   7.716 -1.3297  1.5305 -1.3920
 1713TIP3   OH226697   5.717   2.902   1.829  0.4516 -0.0474 -0.2424
 1713TIP3    H126698   5.717   2.989   1.869  0.7296 -0.0464 -0.2404
 1713TIP3    H226699   5.723   2.920   1.735 -0.2728 -0.0481 -0.2960
 1714TIP3   OH226700   6.780   6.157   7.613  0.5905 -0.0625 -1.0801
 1714TIP3    H126701   6.765   6.064   7.600 -0.5849 -0.1793  0.8229
 1714TIP3    H226702   6.734   6.199   7.540  0.0956 -0.9194 -1.2782
 1715TIP3   OH226703   0.975   3.668   6.920 -0.2777 -0.2805  0.1786
 1715TIP3    H126704   1.004   3.590   6.967  0.4650  1.5724  3.0722
 1715TIP3    H226705   1.040   3.680   6.851  1.4724 -0.5064  1.6979
 1716TIP3   OH226706   2.703   1.376   6.562 -0.9499 -0.1186  0.1238
 1716TIP3    H126707   2.771   1.316   6.533 -2.0980 -1.9786  1.0605
 1716TIP3    H226708   2.687   1.434   6.487  0.4258 -0.7668 -0.6974
 1717TIP3   OH226709   2.170   1.003   8.631  0.3033 -0.0593  0.0723
 1717TIP3    H126710   2.198   0.935   8.570  0.4984  0.6878 -0.6930
 1717TIP3    H226711   2.082   1.026   8.601  0.3075  0.1445  0.2196
 1718TIP3   OH226712   3.765   3.075   1.550  0.3806  0.8318  0.4656
 1718TIP3    H126713   3.787   3.107   1.638 -1.5315  1.1814  0.8579
 1718TIP3    H226714   3.723   2.990   1.565  2.7324 -0.5802 -0.3761
 1719TIP3   OH226715   0.666   0.949   1.356  0.2654 -0.0432  0.4406
 1719TIP3    H126716   0.715   0.868   1.367  0.0798 -0.3055 -0.6193
 1719TIP3    H226717   0.648   0.978   1.446  2.8544  0.3927  0.9054
 1720TIP3   OH226718   4.248   3.944   7.208 -0.2721  0.1811 -0.2649
 1720TIP3    H126719   4.157   3.927   7.182 -0.6251  0.5858  0.6812
 1720TIP3    H226720   4.258   4.039   7.201  0.1005  0.1314 -0.4294
 1721TIP3   OH226721   4.967   2.089   7.056 -0.5616  0.2677 -0.1170
 1721TIP3    H126722   5.009   2.166   7.095 -0.3140  0.3325 -0.5018
 1721TIP3    H226723   4.881   2.119   7.029 -0.6126  0.3063  0.0864
 1722TIP3   OH226724   5.340   6.486   8.336  0.1150 -0.2627 -0.1334
 1722TIP3    H126725   5.346   6.578   8.361  1.8472 -1.0888  3.0275
 1722TIP3    H226726   5.250   6.461   8.359  0.7909 -0.2388  2.9367
 1723TIP3   OH226727   4.468   4.761   0.740 -0.0873 -0.0962  0.3065
 1723TIP3    H126728   4.558   4.734   0.722  0.0624 -0.0587  0.9639
 1723TIP3    H226729   4.466   4.775   0.835 -0.5881  0.6400  0.1955
 1724TIP3   OH226730   1.179   5.675   1.937  0.4033  0.3690 -0.3163
 1724TIP3    H126731   1.115   5.740   1.967  0.1392  0.6753 -1.4976
 1724TIP3    H226732   1.256   5.691   1.992  0.6052  2.1804 -1.0578
 1725TIP3   OH226733   4.588   5.620   1.442 -0.1172  0.2143 -0.3777
 1725TIP3    H126734   4.525   5.686   1.470 -0.2085  0.0876 -0.2889
 1725TIP3    H226735   4.613   5.574   1.522 -0.1519  0.0537 -0.4593
 1726TIP3   OH226736   4.366   3.978   8.138 -0.4643 -0.5957  0.2862
 1726TIP3    H126737   4.439   3.937   8.183 -0.0777  1.1726  1.3784
 1726TIP3    H226738   4.294   3.916   8.148 -0.0177 -0.8734  2.2188
 1727TIP3   OH226739   5.525   6.746   7.615  0.1277  0.4403 -0.0217
 1727TIP3    H126740   5.538   6.815   7.550 -0.1793  0.9614  0.4683
 1727TIP3    H226741   5.486   6.674   7.565  0.6580  0.5279 -0.5799
 1728TIP3   OH226742   2.577   1.467   7.783 -0.2304 -0.4613  0.7232
 1728TIP3    H126743   2.626   1.549   7.789 -1.0475 -0.0436  1.9030
 1728TIP3    H226744   2.613   1.412   7.853 -0.5251 -0.6613  0.7204
 1729TIP3   OH226745   5.579   3.030   0.788  0.5068  0.1848 -0.3109
 1729TIP3    H126746   5.628   3.100   0.832  0.0897  1.1230 -1.2691
 1729TIP3    H226747   5.489   3.064   0.783  0.1002 -0.8131 -0.0004
 1730TIP3   OH226748   5.028   1.677   7.529  0.1541 -0.0889  0.5221
 1730TIP3    H126749   5.105   1.731   7.547  0.6529 -0.1836 -1.1620
 1730TIP3    H226750   4.958   1.741   7.513  0.7369  0.1284 -1.4427
 1731TIP3   OH226751   4.187   4.758   8.358 -0.2402  0.0447  0.0020
 1731TIP3    H126752   4.242   4.803   8.421 -0.6112 -0.1582  0.4817
 1731TIP3    H226753   4.194   4.665   8.381  0.9689 -0.2236 -1.3347
 1732TIP3   OH226754   2.230   1.700   7.315  0.6184  0.3415  0.1447
 1732TIP3    H126755   2.317   1.733   7.337  0.6817 -0.4546  1.1770
 1732TIP3    H226756   2.215   1.730   7.226  1.9339  0.5188 -0.0431
 1733TIP3   OH226757   2.833   0.519   8.180  0.0707 -0.2871 -0.2975
 1733TIP3    H126758   2.857   0.600   8.225 -1.2464  0.7023 -1.2829
 1733TIP3    H226759   2.831   0.453   8.248  1.7508  0.3788  0.4345
 1734TIP3   OH226760   3.296   1.346   0.752  0.5084 -0.3138  0.0199
 1734TIP3    H126761   3.349   1.329   0.829  0.0135 -2.2801 -0.0266
 1734TIP3    H226762   3.316   1.274   0.692  0.1874  0.6625 -1.3329
 1735TIP3   OH226763   1.909   4.789   1.536 -0.5310  0.3637 -0.4274
 1735TIP3    H126764   1.994   4.833   1.530 -1.2203  1.8326  0.1829
 1735TIP3    H226765   1.880   4.780   1.445  0.6230 -0.9177 -0.7048
 1736TIP3   OH226766   6.428   0.219   7.577 -0.0912 -0.3772 -0.1584
 1736TIP3    H126767   6.348   0.272   7.567 -0.6079 -0.8699  1.1444
 1736TIP3    H226768   6.437   0.174   7.493 -1.1088 -0.2024 -0.3825
 1737TIP3   OH226769   0.659   0.425   6.834 -0.0909  0.1046  0.2195
 1737TIP3    H126770   0.652   0.494   6.901 -2.4939  2.0280 -1.8115
 1737TIP3    H226771   0.743   0.443   6.791  0.8983 -0.4067  1.8200
 1738TIP3   OH226772   6.346   1.767   8.236 -0.3519 -0.3631 -0.7007
 1738TIP3    H126773   6.373   1.756   8.144  4.0292 -2.0110  0.5460
 1738TIP3    H226774   6.422   1.806   8.279 -1.5715 -1.2907  2.5820
 1739TIP3   OH226775   6.122   1.353   6.269  0.2734  0.3325  0.1535
 1739TIP3    H126776   6.153   1.399   6.347 -0.3347  0.9949  0.0140
 1739TIP3    H226777   6.198   1.303   6.240  0.4665 -0.0445  1.2474
 1740TIP3   OH226778   3.773   4.461   1.215  0.4780 -0.2245  0.2919
 1740TIP3    H126779   3.706   4.456   1.284  0.8667 -1.4333  0.6080
 1740TIP3    H226780   3.727   4.498   1.140 -0.0944  0.6188  1.0343
 1741TIP3   OH226781   0.158   6.239   0.841  0.2470  0.5929  0.1872
 1741TIP3    H126782   0.168   6.243   0.936 -0.7327  1.6613  0.2690
 1741TIP3    H226783   0.170   6.330   0.813  1.5709  0.1278 -0.8363
 1742TIP3   OH226784   3.898   0.786   8.421 -0.5221 -0.2053  0.3339
 1742TIP3    H126785   3.918   0.764   8.512  0.7615 -0.6868 -0.0403
 1742TIP3    H226786   3.936   0.714   8.370 -0.6154  0.3986 -0.6219
 1743TIP3   OH226787   4.803   2.608   0.933 -0.1674 -0.5566 -0.6713
 1743TIP3    H126788   4.897   2.626   0.932 -0.3391  0.4818  0.1083
 1743TIP3    H226789   4.772   2.638   0.848  0.0180  0.2269 -0.4662
 1744TIP3   OH226790   5.093   2.404   1.615 -0.7804 -0.6928  0.1876
 1744TIP3    H126791   5.184   2.426   1.637 -1.4977  0.7946  2.0291
 1744TIP3    H226792   5.098   2.317   1.576  1.5243 -0.2423 -0.7207
 1745TIP3   OH226793   4.328   2.971   7.500  0.3040 -0.0696  0.2838
 1745TIP3    H126794   4.278   3.039   7.544 -0.2112  0.9133 -1.7411
 1745TIP3    H226795   4.419   2.998   7.511  0.1631  0.3422  0.4618
 1746TIP3   OH226796   4.381   5.933   0.850  0.3506  0.4741 -0.5192
 1746TIP3    H126797   4.302   5.903   0.804  0.6489  1.1636 -1.5245
 1746TIP3    H226798   4.347   5.981   0.926 -0.1530 -0.6714 -0.0031
 1747TIP3   OH226799   4.412   5.622   6.604  0.5601  0.2623  0.3987
 1747TIP3    H126800   4.367   5.598   6.523  0.8138 -4.1242  1.2763
 1747TIP3    H226801   4.502   5.639   6.577  0.2193  0.7784 -0.4441
 1748TIP3   OH226802   0.147   0.827   1.905  0.1452 -0.3490 -0.0855
 1748TIP3    H126803   0.157   0.766   1.832 -1.3705  1.5284 -2.0166
 1748TIP3    H226804   0.074   0.884   1.879  0.4047  1.2541  2.3223
 1749TIP3   OH226805   5.512   4.276   1.445 -0.2098 -0.2606 -0.0616
 1749TIP3    H126806   5.466   4.268   1.528 -1.9277 -1.6709 -1.1015
 1749TIP3    H226807   5.595   4.319   1.468 -0.5935 -0.6929  2.3634
 1750TIP3   OH226808   1.935   1.955   0.487  0.2129 -0.2341  0.4260
 1750TIP3    H126809   1.863   1.901   0.521 -1.1784  0.0928 -1.8288
 1750TIP3    H226810   1.958   2.012   0.560 -1.5663 -0.6077  1.3314
 1751TIP3   OH226811   0.820   1.722   0.185  0.1823 -0.0278 -0.4382
 1751TIP3    H126812   0.793   1.794   0.128  0.5745 -0.1336 -0.7559
 1751TIP3    H226813   0.777   1.742   0.269  1.0032  1.0632 -0.2465
 1752TIP3   OH226814   3.576   2.639   7.697 -0.3125 -0.2663  0.8702
 1752TIP3    H126815   3.639   2.709   7.683  0.4955 -1.2332 -0.6136
 1752TIP3    H226816   3.595   2.576   7.628 -1.4795 -1.6223  1.7366
 1753TIP3   OH226817   4.895   4.930   1.677 -0.4650 -0.4284 -0.7237
 1753TIP3    H126818   4.910   5.024   1.686  2.1216 -0.7310 -1.1820
 1753TIP3    H226819   4.941   4.906   1.597  1.8854 -2.6151  1.1104
 1754TIP3   OH226820   3.370   0.227   1.563  0.0825 -0.0637 -0.1507
 1754TIP3    H126821   3.350   0.314   1.528  0.2724 -0.2065 -0.6176
 1754TIP3    H226822   3.425   0.245   1.639  1.3107  0.1844 -1.0645
 1755TIP3   OH226823   1.695   1.030   7.275 -0.1302  0.7427 -0.4154
 1755TIP3    H126824   1.609   1.010   7.239 -0.3077  0.4052  0.1903
 1755TIP3    H226825   1.755   1.020   7.201 -0.4224 -0.4631 -0.4997
 1756TIP3   OH226826   0.202   1.315   2.323 -0.2076  0.0894  0.6818
 1756TIP3    H126827   0.160   1.383   2.270 -0.2059 -0.1864  0.3223
 1756TIP3    H226828   0.158   1.320   2.408  1.2660  2.0057  1.3853
 1757TIP3   OH226829   5.450   4.788   0.940 -0.7720 -0.1098 -0.1732
 1757TIP3    H126830   5.379   4.735   0.905 -2.4250  1.5072  0.5676
 1757TIP3    H226831   5.411   4.873   0.958  1.2146  0.6743  0.8347
 1758TIP3   OH226832   3.158   1.133   8.566 -0.3750 -0.2669  0.7219
 1758TIP3    H126833   3.249   1.157   8.554 -0.0450 -2.5228 -2.5996
 1758TIP3    H226834   3.121   1.204   8.618  3.1060  0.9306  1.8705
 1759TIP3   OH226835   1.791   6.797   7.366 -0.1091 -0.1505  0.3784
 1759TIP3    H126836   1.848   6.737   7.413 -0.1696  0.6336  1.4665
 1759TIP3    H226837   1.790   6.763   7.276  1.5019 -0.5734  0.4894
 1760TIP3   OH226838   0.234   4.223   8.374  0.2461  0.2755  0.1143
 1760TIP3    H126839   0.278   4.297   8.417 -0.1721 -0.0916  1.2019
 1760TIP3    H226840   0.143   4.231   8.401  0.7513 -2.8133  3.5759
 1761TIP3   OH226841   0.891   3.728   8.304 -0.9639  0.4830  0.0668
 1761TIP3    H126842   0.803   3.747   8.272 -1.0842  4.4833  2.1378
 1761TIP3    H226843   0.878   3.677   8.384 -1.2064 -0.6342 -0.6574
 1762TIP3   OH226844   5.826   4.811   0.414  0.8344 -0.3212  1.2442
 1762TIP3    H126845   5.858   4.891   0.372 -2.4360 -0.3206 -1.7891
 1762TIP3    H226846   5.748   4.840   0.462 -0.3546 -1.5588  0.1624
 1763TIP3   OH226847   2.072   0.300   0.552  0.4716 -0.2266 -0.5859
 1763TIP3    H126848   2.089   0.394   0.558  1.9267 -0.5138  0.2585
 1763TIP3    H226849   2.158   0.260   0.547 -0.0420 -1.6004  0.6280
 1764TIP3   OH226850   4.849   4.212   8.299 -0.7122 -0.1608  0.6033
 1764TIP3    H126851   4.823   4.201   8.390 -0.5626 -0.9019  0.5669
 1764TIP3    H226852   4.891   4.297   8.296  0.9912 -0.9133  1.6473
 1765TIP3   OH226853   5.717   4.314   7.323 -0.3078 -0.3512  0.0509
 1765TIP3    H126854   5.776   4.366   7.378  0.7791 -1.1017 -0.3612
 1765TIP3    H226855   5.757   4.227   7.320 -1.8676 -1.1160  0.3953
 1766TIP3   OH226856   0.013   4.915   0.042 -0.0785 -0.5153 -1.2506
 1766TIP3    H126857   0.013   5.010   0.058  0.5607 -0.7248  0.2039
 1766TIP3    H226858  -0.060   4.883   0.094 -0.0150 -0.8673 -1.3808
 1767TIP3   OH226859   1.581   6.483   7.678  0.1718 -0.3379  0.0374
 1767TIP3    H126860   1.496   6.467   7.637  0.5078  3.1680 -2.5074
 1767TIP3    H226861   1.561   6.529   7.759 -0.3687 -0.6423  0.0769
 1768TIP3   OH226862   5.923   0.006   0.518 -0.2676  0.3856 -0.0878
 1768TIP3    H126863   5.925   0.044   0.430  1.2569  0.4809 -0.0335
 1768TIP3    H226864   5.849   0.049   0.561 -0.4115  1.0796 -0.9937
 1769TIP3   OH226865   2.819   4.204   7.313 -0.0951 -0.0138 -0.1525
 1769TIP3    H126866   2.756   4.179   7.244  0.1172 -0.2983 -0.2473
 1769TIP3    H226867   2.841   4.121   7.355  0.5104  0.0344 -0.3693
 1770TIP3   OH226868   1.464   0.127   0.275 -0.2925  0.1790 -0.9019
 1770TIP3    H126869   1.506   0.128   0.361 -0.6025 -0.6958 -0.7291
 1770TIP3    H226870   1.488   0.210   0.235 -0.4824  0.7711  0.1905
 1771TIP3   OH226871   6.724   5.878   7.455 -0.2646  0.3256 -0.3846
 1771TIP3    H126872   6.770   5.796   7.442  0.4212  0.4125  1.2709
 1771TIP3    H226873   6.646   5.871   7.400  1.0121 -0.3740 -2.2151
 1772TIP3   OH226874   0.017   2.996   7.554  0.1715 -0.1829  0.0606
 1772TIP3    H126875   0.080   2.925   7.563  2.0939  1.5328  1.1591
 1772TIP3    H226876   0.053   3.066   7.609 -2.0649  1.3448 -0.2961
 1773TIP3   OH226877   5.529   0.881   7.803  0.8125  0.0047  0.1565
 1773TIP3    H126878   5.487   0.849   7.723  1.3100  0.0622 -0.1295
 1773TIP3    H226879   5.480   0.838   7.874  0.4752 -0.1747 -0.1774
 1774TIP3   OH226880   4.827   5.180   7.721 -0.3364  0.0492  0.0887
 1774TIP3    H126881   4.849   5.214   7.634 -1.8551 -2.5943 -1.4470
 1774TIP3    H226882   4.751   5.232   7.748  0.1987  0.9461 -0.0852
 1775TIP3   OH226883   3.840   6.469   8.009  0.0820 -0.2171 -0.3421
 1775TIP3    H126884   3.890   6.391   8.033  1.8179  0.7058 -0.8131
 1775TIP3    H226885   3.864   6.534   8.075 -1.2259 -0.0015 -0.0436
 1776TIP3   OH226886   5.386   2.952   0.984 -0.1874 -0.4151  0.1960
 1776TIP3    H126887   5.415   2.891   0.916 -1.1291 -0.8058  0.1308
 1776TIP3    H226888   5.427   2.919   1.064 -1.0868 -1.4788  0.2598
 1777TIP3   OH226889   2.061   3.850   1.817  0.1551 -0.3661 -0.0715
 1777TIP3    H126890   1.966   3.842   1.819  0.1513 -0.4579 -0.4230
 1777TIP3    H226891   2.092   3.768   1.854  0.0975 -1.0093 -1.3713
 1778TIP3   OH226892   1.385   4.271   0.707 -0.0249 -0.5503  0.0779
 1778TIP3    H126893   1.404   4.237   0.620 -1.3439 -0.3200 -0.3201
 1778TIP3    H226894   1.437   4.351   0.713 -1.0550  0.2446 -1.1029
 1779TIP3   OH226895   5.083   6.697   2.145 -0.3030 -0.2230  0.6276
 1779TIP3    H126896   4.995   6.666   2.124 -0.9880  0.4394  2.3468
 1779TIP3    H226897   5.084   6.788   2.118  0.1380 -0.4480 -0.1315
 1780TIP3   OH226898   5.995   3.784   2.447 -0.1669 -0.0236 -0.2853
 1780TIP3    H126899   6.013   3.692   2.470 -0.5765 -0.0194  0.0634
 1780TIP3    H226900   5.919   3.807   2.500  0.7884  0.9523  0.7114
 1781TIP3   OH226901   3.329   2.470   8.466 -0.8441  0.6541  0.4993
 1781TIP3    H126902   3.330   2.558   8.502 -2.5330  0.9520 -0.1066
 1781TIP3    H226903   3.329   2.482   8.372  3.4679 -0.1176  0.1794
 1782TIP3   OH226904   6.754   4.897   6.703 -0.0647 -0.6022  0.0869
 1782TIP3    H126905   6.711   4.982   6.701 -0.6437 -0.9019 -0.3622
 1782TIP3    H226906   6.748   4.864   6.614  1.4911 -0.4688 -0.0928
 1783TIP3   OH226907   5.518   4.346   7.100  0.2457  0.0578  0.0380
 1783TIP3    H126908   5.557   4.332   7.187  1.1628  0.0066 -0.3746
 1783TIP3    H226909   5.466   4.268   7.084 -0.6974  0.4712  0.9366
 1784TIP3   OH226910   0.999   2.814   0.099 -0.2781 -0.1790 -0.6078
 1784TIP3    H126911   0.959   2.737   0.140  1.4327 -0.7363  0.0745
 1784TIP3    H226912   1.077   2.780   0.055 -0.6458  0.8446 -2.1182
 1785TIP3   OH226913   6.794   0.029   8.743  0.1829 -0.3591  0.3745
 1785TIP3    H126914   6.885   0.041   8.769  1.0317 -2.3855 -1.3703
 1785TIP3    H226915   6.791   0.056   8.651 -0.5553 -1.8698 -0.0749
 1786TIP3   OH226916   5.760   1.138   1.648  0.7534  0.1573 -0.4183
 1786TIP3    H126917   5.775   1.138   1.742  2.1664 -2.0254 -0.5706
 1786TIP3    H226918   5.700   1.066   1.633  2.8512 -1.4999 -1.4023
 1787TIP3   OH226919   5.942   0.826   0.847 -0.5210 -0.1207  0.4505
 1787TIP3    H126920   5.900   0.904   0.812 -0.3114 -0.8225 -1.4858
 1787TIP3    H226921   6.032   0.831   0.814 -1.1959 -2.4811 -2.1330
 1788TIP3   OH226922   1.351   6.116   0.450 -0.2325  0.3616 -0.6564
 1788TIP3    H126923   1.329   6.206   0.474 -1.3437 -0.4375  1.5624
 1788TIP3    H226924   1.268   6.070   0.447  0.2938 -0.5574 -2.0501
 1789TIP3   OH226925   4.435   4.178   6.303 -0.0409  0.5564  0.7856
 1789TIP3    H126926   4.400   4.245   6.244 -1.7727 -0.8486  0.1362
 1789TIP3    H226927   4.434   4.219   6.390  0.7059  1.9789  0.1657
 1790TIP3   OH226928   1.078   2.882   0.794  0.0222 -0.2058  0.0918
 1790TIP3    H126929   1.014   2.854   0.860 -0.7795  0.2713 -0.4607
 1790TIP3    H226930   1.163   2.871   0.837 -0.3656 -1.5998  0.5693
 1791TIP3   OH226931   4.487   2.119   8.635 -0.4865  0.0509  0.3787
 1791TIP3    H126932   4.512   2.073   8.555 -0.4226  2.5880 -1.2029
 1791TIP3    H226933   4.443   2.053   8.689 -1.1025 -1.6355 -2.0185
 1792TIP3   OH226934   0.497   0.550   7.296  0.1452 -0.1750 -0.1120
 1792TIP3    H126935   0.548   0.531   7.218  0.0573  1.5839 -0.6376
 1792TIP3    H226936   0.451   0.632   7.275 -1.1123 -0.5195  1.1880
 1793TIP3   OH226937   5.360   2.124   7.028 -0.0898  0.0342  0.3740
 1793TIP3    H126938   5.353   2.207   6.981 -1.2828 -0.1473  0.2046
 1793TIP3    H226939   5.402   2.146   7.111  1.1949  0.5127 -0.3649
 1794TIP3   OH226940   1.194   3.931   8.791  0.0637 -0.1726 -0.4052
 1794TIP3    H126941   1.130   3.979   8.845  0.1578 -0.3665 -0.1187
 1794TIP3    H226942   1.191   3.975   8.706  1.1159  1.2290  0.2415
 1795TIP3   OH226943   3.905   5.824   7.738 -0.1889  0.6304 -0.0020
 1795TIP3    H126944   3.906   5.843   7.644  0.9659  0.0157 -0.1305
 1795TIP3    H226945   3.894   5.910   7.779 -4.0692  0.6268 -0.6941
 1796TIP3   OH226946   0.646   1.022   7.725  0.0456 -0.6893 -0.4508
 1796TIP3    H126947   0.631   1.049   7.635 -0.2583 -1.6627 -0.7073
 1796TIP3    H226948   0.572   1.058   7.774  1.2976  1.6883 -0.1554
 1797TIP3   OH226949   0.593   1.032   0.588  0.5966 -0.4263  0.5822
 1797TIP3    H126950   0.687   1.019   0.602  0.9071  1.0879  0.0899
 1797TIP3    H226951   0.581   1.127   0.594  0.1062  0.2007 -4.7393
 1798TIP3   OH226952   4.671   4.566   8.606 -0.3598 -0.0647 -0.7801
 1798TIP3    H126953   4.699   4.474   8.611 -0.4053 -0.0117  0.7512
 1798TIP3    H226954   4.742   4.609   8.558  0.6818 -0.5299  0.2911
 1799TIP3   OH226955   2.912   0.089   1.961  0.0253  0.2240  0.1244
 1799TIP3    H126956   2.878   0.178   1.970  0.1955  0.1749  1.4384
 1799TIP3    H226957   2.888   0.046   2.043  0.8324 -0.6365 -0.0775
 1800TIP3   OH226958   0.776   5.052   1.516  0.1697  0.2349  0.7842
 1800TIP3    H126959   0.753   5.018   1.430  1.5424  0.5786  0.2614
 1800TIP3    H226960   0.731   5.136   1.522 -0.5648 -0.1455  0.7429
 1801TIP3   OH226961   5.791   5.304   8.027  0.6528  0.5062  0.1875
 1801TIP3    H126962   5.753   5.285   8.113 -0.0345  1.2687  0.0661
 1801TIP3    H226963   5.732   5.261   7.965  1.7234 -0.9459  0.1128
 1802TIP3   OH226964   4.269   5.769   0.494 -0.0723  0.8748 -0.5952
 1802TIP3    H126965   4.218   5.689   0.483  1.3220  0.0918 -1.5887
 1802TIP3    H226966   4.229   5.813   0.569 -3.8459  1.5832 -2.7256
 1803TIP3   OH226967   3.728   1.377   8.729 -0.3037  0.4940 -0.6811
 1803TIP3    H126968   3.668   1.439   8.688 -0.4183  0.4284 -0.6109
 1803TIP3    H226969   3.692   1.291   8.709  0.0055  0.4392 -1.0125
 1804TIP3   OH226970   6.502   0.519   7.888  0.3126 -0.6293 -0.0166
 1804TIP3    H126971   6.422   0.571   7.879  0.5806  0.1812  1.8730
 1804TIP3    H226972   6.571   0.574   7.849  0.4127  0.0049  1.0114
 1805TIP3   OH226973   2.445   4.373   7.940 -0.5551  0.5839  0.0540
 1805TIP3    H126974   2.409   4.383   8.029  0.5325 -0.9423  0.7172
 1805TIP3    H226975   2.372   4.340   7.888 -0.4930 -1.3822  1.1145
 1806TIP3   OH226976   3.899   6.103   7.840 -0.3312  0.2240  0.4138
 1806TIP3    H126977   3.946   6.180   7.872  0.5018 -0.9575  2.2087
 1806TIP3    H226978   3.830   6.089   7.905 -1.0010 -0.0928 -0.3413
 1807TIP3   OH226979   4.730   1.138   2.069 -0.1834  0.3402  0.0212
 1807TIP3    H126980   4.740   1.233   2.073  1.5116  0.1669  0.4278
 1807TIP3    H226981   4.656   1.125   2.010 -2.1909  1.9740  1.9649
 1808TIP3   OH226982   1.506   1.531   6.926 -0.0955 -0.1482  0.0360
 1808TIP3    H126983   1.530   1.580   7.004 -2.9647 -0.6214  1.3317
 1808TIP3    H226984   1.466   1.596   6.868 -0.8802 -0.3594  0.3363
 1809TIP3   OH226985   6.567   3.097   7.538 -0.1266  0.4443 -0.6451
 1809TIP3    H126986   6.654   3.059   7.546 -1.0230 -1.4471  1.0402
 1809TIP3    H226987   6.566   3.168   7.602  0.7650  1.7987 -2.0699
 1810TIP3   OH226988   2.239   4.005   7.254 -0.0229  0.7712  0.5188
 1810TIP3    H126989   2.147   4.005   7.281  0.1018 -0.4792  1.0403
 1810TIP3    H226990   2.263   3.912   7.253  1.7221  1.1362  2.1340
 1811TIP3   OH226991   0.730   4.215   8.344  0.1246  0.3238  0.0018
 1811TIP3    H126992   0.723   4.194   8.251  1.8303  1.9914 -0.5682
 1811TIP3    H226993   0.797   4.155   8.378 -1.7380 -1.4948  0.6215
 1812TIP3   OH226994   5.701   0.945   8.851  0.0754 -0.6344  0.4493
 1812TIP3    H126995   5.693   0.851   8.832  2.8835 -1.0217  0.6622
 1812TIP3    H226996   5.790   0.967   8.821 -0.6595  2.0677  0.0553
 1813TIP3   OH226997   4.043   0.624   7.425  0.9116 -0.5449 -0.0861
 1813TIP3    H126998   4.006   0.537   7.438  1.3713 -0.8673 -0.8396
 1813TIP3    H226999   4.102   0.614   7.351 -1.1154  0.9971 -2.0769
 1814TIP3   OH227000   4.293   3.871   1.367 -0.6889 -0.6232  0.2265
 1814TIP3    H127001   4.228   3.941   1.361 -0.4640 -0.5683 -2.9803
 1814TIP3    H227002   4.337   3.871   1.282  1.1623 -2.9285  1.0724
 1815TIP3   OH227003   0.992   4.652   8.714  0.1217 -0.0008 -0.0580
 1815TIP3    H127004   0.922   4.588   8.728 -0.1438  0.7010  2.2168
 1815TIP3    H227005   0.981   4.681   8.623 -2.4096 -0.0668  0.1667
 1816TIP3   OH227006   3.834   2.878   8.644  0.3713  0.3030  0.0942
 1816TIP3    H127007   3.818   2.895   8.737 -1.1775  2.1463 -0.4402
 1816TIP3    H227008   3.799   2.955   8.599  1.2693 -0.4410 -2.0246
 1817TIP3   OH227009   3.167   0.140   7.740  0.2234 -0.0879  0.1137
 1817TIP3    H127010   3.246   0.104   7.700  0.1179 -0.4135  0.1869
 1817TIP3    H227011   3.180   0.125   7.834 -0.6575 -1.7059  0.0215
 1818TIP3   OH227012   2.581   5.738   0.725  0.0020 -0.0909 -0.1181
 1818TIP3    H127013   2.591   5.815   0.781 -0.0225  0.3517 -0.7110
 1818TIP3    H227014   2.654   5.743   0.664 -0.5941  0.0488 -0.8365
 1819TIP3   OH227015   5.359   6.238   7.791 -0.4038 -0.0932  0.6878
 1819TIP3    H127016   5.433   6.247   7.731 -0.7080  0.0512  0.3306
 1819TIP3    H227017   5.373   6.305   7.857 -0.7499  0.6237  0.0490
 1820TIP3   OH227018   0.099   5.763   6.614  0.2779  0.5946 -0.2089
 1820TIP3    H127019   0.072   5.855   6.609  0.2590  0.5448 -1.0436
 1820TIP3    H227020   0.142   5.746   6.531  1.8626  0.3277  0.6328
 1821TIP3   OH227021   3.712   1.813   0.624 -0.0375  0.0538  0.4557
 1821TIP3    H127022   3.690   1.818   0.531 -2.2835  0.2464  0.9347
 1821TIP3    H227023   3.688   1.898   0.659  1.4491  0.2220  1.1077
 1822TIP3   OH227024   2.826   2.032   7.018  0.0139 -0.0561  0.2104
 1822TIP3    H127025   2.897   2.096   7.028 -0.6462  0.4667  2.0372
 1822TIP3    H227026   2.776   2.064   6.943  0.4880  0.7914  0.2363
 1823TIP3   OH227027   0.795   6.524   0.071  0.4327  0.0250  0.1194
 1823TIP3    H127028   0.713   6.527   0.021 -0.0902  2.1440  0.9939
 1823TIP3    H227029   0.847   6.596   0.035  0.4999  0.8693  1.8199
 1824TIP3   OH227030   1.484   5.981   7.242 -0.4189  0.2444 -0.1402
 1824TIP3    H127031   1.430   5.974   7.163  2.1205  1.1179 -2.0719
 1824TIP3    H227032   1.535   5.900   7.242 -0.7571  0.0195  0.9349
 1825TIP3   OH227033   5.220   6.118   0.668 -0.3553 -0.1122 -0.1445
 1825TIP3    H127034   5.307   6.105   0.631  0.3506 -0.0606  1.4385
 1825TIP3    H227035   5.170   6.042   0.639  0.1460 -0.0610 -1.1986
 1826TIP3   OH227036   6.797   4.962   8.345  0.1296 -0.6204  0.2259
 1826TIP3    H127037   6.742   5.033   8.378  0.7247  0.8318 -1.7336
 1826TIP3    H227038   6.736   4.905   8.297  0.1755  0.7242 -1.5273
 1827TIP3   OH227039   1.523   1.526   0.624  0.5263 -0.2369 -0.4536
 1827TIP3    H127040   1.483   1.606   0.588 -0.2265 -0.0642  0.7174
 1827TIP3    H227041   1.500   1.458   0.561 -1.9680 -0.2149  0.3122
 1828TIP3   OH227042   2.244   4.779   0.424  0.1321  0.3773 -0.0621
 1828TIP3    H127043   2.281   4.691   0.417  1.4807  0.9098 -0.0831
 1828TIP3    H227044   2.150   4.766   0.424  0.3104 -1.1586  1.1097
 1829TIP3   OH227045   4.597   4.278   0.524  0.3155 -0.2816  0.5770
 1829TIP3    H127046   4.686   4.296   0.555  1.3235 -1.4036 -1.4762
 1829TIP3    H227047   4.574   4.195   0.565  0.9177 -0.8471 -0.1952
 1830TIP3   OH227048   6.192   0.082   7.233 -0.2155  0.1272  0.1496
 1830TIP3    H127049   6.157   0.169   7.249  0.9912  0.3133  2.2185
 1830TIP3    H227050   6.201   0.076   7.138 -3.5334  0.8910 -0.3377
 1831TIP3   OH227051   0.299   2.276   1.279  0.4031  0.3159 -0.6276
 1831TIP3    H127052   0.248   2.195   1.276 -2.3531  1.8520  0.5162
 1831TIP3    H227053   0.272   2.325   1.201 -0.1167  1.2602  0.1196
 1832TIP3   OH227054   0.733   2.518   8.079 -0.2932 -0.0256 -0.5696
 1832TIP3    H127055   0.647   2.481   8.100 -0.1252 -0.7948 -1.1754
 1832TIP3    H227056   0.752   2.577   8.152 -1.7855  0.9722 -0.9279
 1833TIP3   OH227057   0.192   3.502   0.009  0.2138  0.2789 -0.9012
 1833TIP3    H127058   0.152   3.588  -0.001 -1.6474 -0.6494 -1.9194
 1833TIP3    H227059   0.160   3.469   0.093 -0.0359  0.1088 -1.0612
 1834TIP3   OH227060   1.340   5.780   8.299 -0.0396 -0.6908  0.2178
 1834TIP3    H127061   1.256   5.737   8.314 -1.7380  1.9683 -1.0225
 1834TIP3    H227062   1.380   5.729   8.229 -1.4249 -0.9688 -0.4118
 1835TIP3   OH227063   4.037   3.386   8.832 -0.2012  0.4211  0.2548
 1835TIP3    H127064   3.995   3.301   8.846  0.3197 -0.0110 -0.7004
 1835TIP3    H227065   4.113   3.385   8.891  0.3467 -0.1891 -0.4409
 1836TIP3   OH227066   2.260   0.565   8.336 -0.6058  0.3200  0.2934
 1836TIP3    H127067   2.205   0.584   8.260  0.0783 -1.0514 -0.5824
 1836TIP3    H227068   2.348   0.591   8.309 -0.2761 -0.6282  0.4272
 1837TIP3   OH227069   4.974   6.325   1.434 -0.0666  0.5350 -0.1702
 1837TIP3    H127070   4.979   6.230   1.448 -0.3213  0.5554  0.0677
 1837TIP3    H227071   4.884   6.340   1.403 -0.0273  0.6976 -0.2055
 1838TIP3   OH227072   4.206   1.588   6.583  0.3794 -0.1093 -0.0332
 1838TIP3    H127073   4.214   1.525   6.654 -0.3020 -0.3624 -0.1760
 1838TIP3    H227074   4.116   1.620   6.589  0.5349  0.3929 -0.3420
 1839TIP3   OH227075   3.148   1.857   7.729 -0.3216 -0.5495 -0.2918
 1839TIP3    H127076   3.205   1.921   7.772 -1.1207 -0.5128  0.7537
 1839TIP3    H227077   3.184   1.772   7.752 -1.1606 -0.5540  1.1035
 1840TIP3   OH227078   1.224   1.944   1.820 -0.1847  0.0022  0.1758
 1840TIP3    H127079   1.218   2.030   1.863 -2.3074  0.1187 -0.2540
 1840TIP3    H227080   1.209   1.882   1.891 -0.0680  0.0368  0.2319
 1841TIP3   OH227081   1.523   6.000   8.244  0.1301 -0.4933 -0.2510
 1841TIP3    H127082   1.555   5.971   8.159 -0.2592 -0.7068 -0.3231
 1841TIP3    H227083   1.441   5.953   8.257 -0.0617 -0.0890  0.0213
 1842TIP3   OH227084   6.053   4.143   8.628 -0.0338  0.4577 -0.4971
 1842TIP3    H127085   5.993   4.216   8.642 -1.5221 -0.5146 -1.5162
 1842TIP3    H227086   6.086   4.156   8.539 -1.3402 -0.7890 -1.1953
 1843TIP3   OH227087   5.693   1.587   1.675  0.6010 -0.1776 -0.1319
 1843TIP3    H127088   5.658   1.604   1.587  2.1602 -0.6981 -0.8909
 1843TIP3    H227089   5.616   1.560   1.726 -0.7092  2.0814 -0.7481
 1844TIP3   OH227090   0.914   1.364   1.077  0.7089 -0.2170  0.8147
 1844TIP3    H127091   0.875   1.276   1.078  2.0209 -0.8290  1.8649
 1844TIP3    H227092   0.896   1.398   1.165  2.0129 -0.3022  1.1329
 1845TIP3   OH227093   2.287   1.261   0.431  1.3717 -0.1828 -0.2329
 1845TIP3    H127094   2.314   1.327   0.496 -2.1822  0.5558  0.7353
 1845TIP3    H227095   2.249   1.313   0.360 -0.0806 -1.1182 -0.1670
 1846TIP3   OH227096   5.274   2.355   0.278 -0.1546  0.3071  0.1345
 1846TIP3    H127097   5.354   2.393   0.315 -0.3166  0.1880  0.6036
 1846TIP3    H227098   5.298   2.266   0.254  0.1549  0.6149 -0.7325
 1847TIP3   OH227099   0.116   5.906   0.785 -0.2584 -0.1671  0.2331
 1847TIP3    H127100   0.089   5.998   0.777  0.3249 -0.0223 -0.1211
 1847TIP3    H227101   0.135   5.895   0.878 -1.4530 -0.2564  0.4785
 1848TIP3   OH227102   5.344   3.383   8.165  0.0233  0.2530 -0.0482
 1848TIP3    H127103   5.265   3.403   8.216 -0.4497 -1.2057 -0.1640
 1848TIP3    H227104   5.382   3.307   8.208  0.1023 -0.4597 -1.3177
 1849TIP3   OH227105   4.935   0.276   8.041 -0.0958 -0.0437  0.1332
 1849TIP3    H127106   4.988   0.254   8.117 -0.1657 -1.4700 -0.1985
 1849TIP3    H227107   4.883   0.351   8.069 -2.8621 -2.6828  2.8433
 1850TIP3   OH227108   0.576   4.505   8.653 -0.0549  0.3527 -0.3657
 1850TIP3    H127109   0.629   4.461   8.586 -0.2356 -0.2794 -0.0977
 1850TIP3    H227110   0.486   4.497   8.621 -0.0051  1.5510 -0.8947
 1851TIP3   OH227111   4.717   4.716   2.058 -0.0690 -0.3349  0.1821
 1851TIP3    H127112   4.792   4.724   1.999  0.5853 -1.2717  0.8622
 1851TIP3    H227113   4.716   4.624   2.084 -0.1968  0.0972  1.8173
 1852TIP3   OH227114   0.366   0.501   6.406  0.2133  0.0183 -0.3970
 1852TIP3    H127115   0.301   0.554   6.452  1.2481  1.1615 -0.1741
 1852TIP3    H227116   0.450   0.537   6.435  0.9460 -1.2860 -0.8181
 1853TIP3   OH227117   2.752   6.677   7.228 -0.4387 -0.5690  0.3538
 1853TIP3    H127118   2.806   6.654   7.303 -0.6832 -1.8919  0.1639
 1853TIP3    H227119   2.812   6.676   7.154 -0.4446 -0.5727  0.3489
 1854TIP3   OH227120   3.672   2.948   6.900 -0.4100  0.3125 -0.8116
 1854TIP3    H127121   3.745   2.899   6.938 -0.1588 -1.5272 -3.4458
 1854TIP3    H227122   3.699   3.040   6.906  1.3639 -0.2032 -0.2728
 1855TIP3   OH227123   0.135   3.284   8.689 -0.4354 -0.0362 -0.1907
 1855TIP3    H127124   0.142   3.359   8.749 -1.6845  0.0204 -0.1044
 1855TIP3    H227125   0.143   3.207   8.746 -0.0527  0.0176 -0.1658
 1856TIP3   OH227126   6.480   2.726   1.571  0.2288  0.7046 -0.1853
 1856TIP3    H127127   6.508   2.661   1.636  0.7659  1.4139  0.3150
 1856TIP3    H227128   6.418   2.679   1.516 -0.1862  0.0593  0.7950
 1857TIP3   OH227129   6.522   0.997   0.491 -0.0073  0.1119  0.2474
 1857TIP3    H127130   6.530   1.084   0.451  0.4418  0.2213  0.5584
 1857TIP3    H227131   6.525   0.936   0.418 -0.0807  0.3523  0.0442
 1858TIP3   OH227132   5.421   0.909   6.948 -0.6721  0.0661 -0.2786
 1858TIP3    H127133   5.399   0.985   7.002 -0.5101 -1.7348  2.4784
 1858TIP3    H227134   5.343   0.853   6.951 -0.6327 -0.1292 -1.9105
 1859TIP3   OH227135   6.529   0.190   0.391 -0.3332  0.1370  0.1902
 1859TIP3    H127136   6.459   0.138   0.352  0.6705 -0.7502 -0.4906
 1859TIP3    H227137   6.604   0.131   0.396  1.0629  1.6500 -1.2336
 1860TIP3   OH227138   4.386   3.559   0.508 -0.0898  0.1939  0.1362
 1860TIP3    H127139   4.431   3.530   0.587 -1.7359  0.0788  1.0812
 1860TIP3    H227140   4.317   3.618   0.540 -1.2425 -0.4068 -1.1422
 1861TIP3   OH227141   0.872   3.155   6.798  0.2916  0.1491 -0.0338
 1861TIP3    H127142   0.893   3.131   6.708 -1.2375  0.2650 -0.4567
 1861TIP3    H227143   0.852   3.071   6.841 -1.0100  0.2487 -0.3932
 1862TIP3   OH227144   5.465   5.108   8.404 -0.4501  0.1174 -0.6881
 1862TIP3    H127145   5.530   5.115   8.474  1.0179  0.3880 -2.0223
 1862TIP3    H227146   5.381   5.124   8.447  0.3563 -0.2334  1.0880
 1863TIP3   OH227147   3.439   3.340   7.791  0.0330  0.2224 -0.1410
 1863TIP3    H127148   3.356   3.351   7.746 -0.1569 -1.1660 -0.1834
 1863TIP3    H227149   3.505   3.347   7.722 -0.1585 -0.3183 -0.3816
 1864TIP3   OH227150   6.647   4.709   6.917  0.2790 -0.1990  0.2399
 1864TIP3    H127151   6.671   4.616   6.922 -1.3736 -0.6967 -0.3843
 1864TIP3    H227152   6.701   4.744   6.847  1.1785 -0.5810  0.7189
 1865TIP3   OH227153   3.095   2.112   0.630  0.4381  0.1582 -0.1415
 1865TIP3    H127154   3.030   2.168   0.673 -0.4105 -1.0099  0.1478
 1865TIP3    H227155   3.080   2.025   0.668  0.9229 -0.5159 -1.4441
 1866TIP3   OH227156   3.910   5.501   0.952  0.2704 -0.2698 -0.2552
 1866TIP3    H127157   3.853   5.439   0.999  1.1689 -0.5905  0.4362
 1866TIP3    H227158   3.946   5.450   0.880  0.0271 -0.1927 -0.4311
 1867TIP3   OH227159   4.652   3.907   7.837 -0.4922 -0.2447 -0.2317
 1867TIP3    H127160   4.671   3.876   7.749 -0.7841 -1.0511 -0.0260
 1867TIP3    H227161   4.712   3.980   7.851  0.0575 -0.5735 -0.8275
 1868TIP3   OH227162   3.858   1.310   0.100 -0.3925  0.3065  0.6998
 1868TIP3    H127163   3.836   1.355   0.019  2.9453 -2.3985 -2.0489
 1868TIP3    H227164   3.904   1.376   0.152  1.5423  1.0460 -1.7618
 1869TIP3   OH227165   0.720   2.436   0.853  0.2338  0.0021 -0.2496
 1869TIP3    H127166   0.658   2.504   0.879 -0.1130 -0.5993  0.5450
 1869TIP3    H227167   0.697   2.417   0.762 -1.8639 -1.3209  0.4687
 1870TIP3   OH227168   5.338   0.281   8.045 -0.3936  0.4744 -0.1074
 1870TIP3    H127169   5.297   0.196   8.056  0.6401 -0.2141 -1.2869
 1870TIP3    H227170   5.418   0.263   7.995  0.5737  1.9452  0.8134
 1871TIP3   OH227171   1.737   4.373   8.265  0.1162  0.3011 -0.5356
 1871TIP3    H127172   1.694   4.300   8.310  1.6243  0.3178  1.0207
 1871TIP3    H227173   1.745   4.344   8.174  2.0613 -2.1928  0.3124
 1872TIP3   OH227174   3.309   2.807   0.248 -0.2767 -0.0717  0.3814
 1872TIP3    H127175   3.402   2.798   0.226 -0.1477  1.0388  0.3994
 1872TIP3    H227176   3.263   2.789   0.165  0.1035  1.9173 -0.3158
 1873TIP3   OH227177   1.759   5.441   8.230 -0.1332  0.5309  0.3749
 1873TIP3    H127178   1.788   5.375   8.293  1.7721  0.7137 -0.2548
 1873TIP3    H227179   1.725   5.513   8.284  1.7856  0.8286  1.2386
 1874TIP3   OH227180   2.012   1.303   1.524  0.2776  0.6996  0.3213
 1874TIP3    H127181   1.940   1.361   1.498 -0.2515  0.4665  1.2275
 1874TIP3    H227182   2.009   1.231   1.461  0.1498  1.0290 -0.0533
 1875TIP3   OH227183   3.479   0.916   8.710 -0.2168  0.3461  0.2981
 1875TIP3    H127184   3.482   1.005   8.677  1.8012  0.8664  1.6821
 1875TIP3    H227185   3.571   0.889   8.716 -0.7535 -1.6665  0.3448
 1876TIP3   OH227186   1.821   1.709   8.738  0.4423  0.3505  0.5486
 1876TIP3    H127187   1.738   1.748   8.764  0.2376  1.3749 -1.4457
 1876TIP3    H227188   1.797   1.626   8.697  0.5506 -0.0137  1.1973
 1877TIP3   OH227189   5.746   5.550   7.851 -0.1810  0.0069  0.4464
 1877TIP3    H127190   5.736   5.473   7.906  2.9988 -0.0979  1.0730
 1877TIP3    H227191   5.840   5.553   7.830 -0.6685  2.0780 -2.0042
 1878TIP3   OH227192   2.194   0.833   0.004  0.4539  0.3552  0.0466
 1878TIP3    H127193   2.170   0.744  -0.024 -1.4300  0.9249 -0.2971
 1878TIP3    H227194   2.183   0.886  -0.075  0.8211  1.0179  0.4387
 1879TIP3   OH227195   0.088   3.054   6.947 -0.4687  0.7058  0.3668
 1879TIP3    H127196   0.138   3.008   7.013  1.4103  0.5213 -1.0956
 1879TIP3    H227197  -0.002   3.024   6.959  0.0140 -0.1688  2.0588
 1880TIP3   OH227198   6.518   0.018   1.785  0.2094  0.2618 -0.5076
 1880TIP3    H127199   6.528   0.111   1.807  2.1724  0.0160 -0.1600
 1880TIP3    H227200   6.529   0.015   1.690 -0.3288  0.4273 -0.5785
 1881TIP3   OH227201   1.231   1.392   6.511  0.4500 -0.6661 -0.0349
 1881TIP3    H127202   1.249   1.449   6.436  0.2529  0.5444  0.8201
 1881TIP3    H227203   1.137   1.398   6.524  0.0788 -2.8651 -1.2149
 1882TIP3   OH227204   0.340   3.544   1.223 -0.3993 -0.5754 -0.5283
 1882TIP3    H127205   0.344   3.490   1.144  1.3041  1.0178 -1.6172
 1882TIP3    H227206   0.428   3.541   1.259 -0.5419  0.5913 -0.0234
 1883TIP3   OH227207   6.556   2.251   0.782 -0.5529  0.0066 -0.7799
 1883TIP3    H127208   6.478   2.295   0.750 -0.2266  0.7220 -0.6151
 1883TIP3    H227209   6.528   2.206   0.861 -0.9705 -0.3726 -1.1396
 1884TIP3   OH227210   3.663   5.663   0.982 -0.2383 -0.2272  0.4695
 1884TIP3    H127211   3.691   5.669   0.891 -0.8296 -0.5122  0.2640
 1884TIP3    H227212   3.568   5.661   0.978 -0.3486  1.7896  1.2113
 1885TIP3   OH227213   6.614   4.969   0.665 -0.4466  0.0159  0.0722
 1885TIP3    H127214   6.643   5.033   0.730 -1.7639  0.0710  0.6315
 1885TIP3    H227215   6.691   4.914   0.650  0.1924  0.6620  0.8713
 1886TIP3   OH227216   5.822   1.017   7.640  0.5257  0.0213 -0.4057
 1886TIP3    H127217   5.803   1.080   7.710  2.4914  1.6976 -1.2542
 1886TIP3    H227218   5.913   0.990   7.656  0.2901 -1.2571 -1.0837
 1887TIP3   OH227219   5.062   1.752   7.020 -0.2388 -0.0937  0.2725
 1887TIP3    H127220   4.971   1.757   6.991 -0.6179  0.5349  1.5345
 1887TIP3    H227221   5.063   1.683   7.086  0.0433  0.3981  0.7929
 1888TIP3   OH227222   1.902   1.638   6.385  0.1691  0.4941  0.2330
 1888TIP3    H127223   1.858   1.650   6.301 -0.5069  2.2826  0.8029
 1888TIP3    H227224   1.859   1.562   6.424 -0.6793  0.6894 -0.3100
 1889TIP3   OH227225   4.445   2.053   8.282  0.1287 -0.2588  0.6240
 1889TIP3    H127226   4.493   1.979   8.245  0.3529  0.3735 -0.3766
 1889TIP3    H227227   4.495   2.130   8.256 -0.6794  0.3201  0.7450
 1890TIP3   OH227228   1.517   1.903   7.702 -0.4148  0.3102 -0.4238
 1890TIP3    H127229   1.515   1.974   7.767  0.7681 -0.9080  0.9985
 1890TIP3    H227230   1.453   1.930   7.636  0.1224  2.7919 -0.0339
 1891TIP3   OH227231   2.437   2.088   8.750 -0.2140  0.0497  0.0265
 1891TIP3    H127232   2.425   2.179   8.776  1.0495  0.8372 -1.9512
 1891TIP3    H227233   2.430   2.039   8.832 -0.7519  1.9186  1.1643
 1892TIP3   OH227234   6.062   2.876   1.755 -0.2956  0.6374  0.7168
 1892TIP3    H127235   6.130   2.878   1.822 -0.0114  3.1691  0.4507
 1892TIP3    H227236   6.088   2.805   1.696  1.6418  0.9741  1.1096
 1893TIP3   OH227237   0.918   2.044   6.733 -0.5088 -0.1194  0.1503
 1893TIP3    H127238   0.872   1.968   6.696 -2.0187  0.2156  1.2766
 1893TIP3    H227239   0.874   2.119   6.694  1.1301  0.2277 -1.1384
 1894TIP3   OH227240   6.435   2.253   7.102 -0.6466  0.3073  0.0232
 1894TIP3    H127241   6.424   2.172   7.153  2.8692 -0.1571  0.3241
 1894TIP3    H227242   6.530   2.260   7.089 -0.9731  3.4300 -1.6392
 1895TIP3   OH227243   6.329   5.069   6.998 -0.7201 -0.6399  0.0181
 1895TIP3    H127244   6.301   5.068   6.907 -0.1393 -0.3761 -0.1694
 1895TIP3    H227245   6.399   5.004   7.002 -0.0581  0.0607  0.0441
 1896TIP3   OH227246   5.426   5.077   1.423 -0.1372  0.0334 -0.7946
 1896TIP3    H127247   5.483   5.055   1.496 -1.7727 -3.0655 -0.2981
 1896TIP3    H227248   5.341   5.094   1.463 -0.2714  1.8269 -1.7403
 1897TIP3   OH227249   2.972   1.919   0.159 -0.2839  0.0220 -0.1464
 1897TIP3    H127250   2.922   1.839   0.142  0.0932 -0.5853  1.3813
 1897TIP3    H227251   2.967   1.969   0.078  0.0280 -1.8507 -1.3759
 1898TIP3   OH227252   4.225   3.774   0.590  0.0265 -0.0312 -0.0940
 1898TIP3    H127253   4.131   3.772   0.610 -0.1316  0.0826 -0.7993
 1898TIP3    H227254   4.251   3.864   0.609  0.0816 -0.1587  0.4639
 1899TIP3   OH227255   5.172   5.550   8.603  0.6479 -0.0170 -0.1418
 1899TIP3    H127256   5.167   5.632   8.553 -0.2398  1.2005  1.7966
 1899TIP3    H227257   5.259   5.516   8.585  1.5209  2.0139 -0.1020
 1900TIP3   OH227258   1.421   4.170   0.412  0.2426 -0.1349 -0.2374
 1900TIP3    H127259   1.350   4.144   0.353  0.5376 -0.3204 -0.5137
 1900TIP3    H227260   1.438   4.261   0.389 -2.4448  1.2247  2.3678
 1901TIP3   OH227261   1.245   0.811   7.120 -0.0849 -0.1893  0.3608
 1901TIP3    H127262   1.190   0.732   7.127  0.2520 -0.6404 -1.5368
 1901TIP3    H227263   1.185   0.879   7.088 -0.2912  0.2635  1.6458
 1902TIP3   OH227264   1.467   4.563   7.569 -0.1329 -0.1339  0.2926
 1902TIP3    H127265   1.562   4.556   7.559  0.4950  1.5754  3.6666
 1902TIP3    H227266   1.449   4.657   7.571 -1.2681 -0.3022  3.4694
 1903TIP3   OH227267   5.413   2.389   7.574 -0.1848  0.3417  0.2494
 1903TIP3    H127268   5.385   2.346   7.655  0.6349  1.9818  1.4789
 1903TIP3    H227269   5.471   2.326   7.532 -1.7082 -1.0793  0.2071
 1904TIP3   OH227270   0.344   5.720   8.109 -0.0416 -0.5999 -0.2010
 1904TIP3    H127271   0.424   5.769   8.091 -0.2784  0.4550  1.4715
 1904TIP3    H227272   0.295   5.725   8.027  0.0264  1.8580 -0.1651
 1905TIP3   OH227273   1.380   5.159   1.933  0.4743 -0.3049  0.1518
 1905TIP3    H127274   1.468   5.123   1.936  0.1215 -1.1926  0.5737
 1905TIP3    H227275   1.328   5.097   1.985  0.0957  1.6439  2.2336
 1906TIP3   OH227276   4.345   3.988   7.773  0.5349 -0.0468  0.1827
 1906TIP3    H127277   4.362   4.027   7.688 -0.4045 -0.5342 -0.2494
 1906TIP3    H227278   4.431   3.971   7.810  0.9624 -0.5820 -1.0233
 1907TIP3   OH227279   5.011   5.251   0.189 -0.3118  0.3039  0.2271
 1907TIP3    H127280   4.969   5.283   0.109  0.6307  0.3234 -0.2755
 1907TIP3    H227281   4.976   5.162   0.200  0.1618 -0.0133 -0.6823
 1908TIP3   OH227282   4.749   6.628   7.483  0.2543 -0.4890  0.1967
 1908TIP3    H127283   4.757   6.547   7.533  0.1568  0.4574  1.8141
 1908TIP3    H227284   4.656   6.631   7.458 -0.2257  0.0673  1.8894
 1909TIP3   OH227285   3.352   4.039   6.932 -0.0088  0.0979  0.3992
 1909TIP3    H127286   3.398   4.019   6.851  0.8475  1.7152  0.4245
 1909TIP3    H227287   3.384   3.975   6.995 -1.8000 -2.1424 -0.8341
 1910TIP3   OH227288   6.555   0.630   0.100  0.2462 -0.2239  0.3659
 1910TIP3    H127289   6.493   0.640   0.028  1.6053 -0.4362 -0.8774
 1910TIP3    H227290   6.537   0.706   0.157  0.0884  0.7418 -0.9267
 1911TIP3   OH227291   6.670   4.886   7.940  0.0884  0.8447  0.2446
 1911TIP3    H127292   6.728   4.947   7.893  0.2057  1.2136  0.8525
 1911TIP3    H227293   6.584   4.927   7.936  0.0137  0.6577 -0.0334
 1912TIP3   OH227294   6.636   4.147   6.964  0.2654 -0.2383 -0.3043
 1912TIP3    H127295   6.598   4.066   6.931 -2.2785  1.6951 -2.5492
 1912TIP3    H227296   6.705   4.168   6.900 -1.0376  0.7666 -1.4339
 1913TIP3   OH227297   0.130   4.345   1.681  0.1174 -0.5302 -0.7146
 1913TIP3    H127298   0.052   4.327   1.734  1.2375 -3.2302  0.1788
 1913TIP3    H227299   0.128   4.279   1.612  1.2760 -0.1945 -1.0902
 1914TIP3   OH227300   2.815   5.433   8.107  0.1714 -0.2495 -0.1018
 1914TIP3    H127301   2.780   5.375   8.039 -0.7918 -0.4035  0.4991
 1914TIP3    H227302   2.764   5.513   8.100 -0.1021 -0.3545  0.5847
 1915TIP3   OH227303   2.961   6.281   8.238 -0.0713  0.5790  0.0519
 1915TIP3    H127304   2.912   6.287   8.156  2.2402  1.4111 -1.3752
 1915TIP3    H227305   2.922   6.347   8.295 -0.1182  1.8045 -1.3331
 1916TIP3   OH227306   3.472   2.563   1.959 -0.0243 -0.2732  0.1183
 1916TIP3    H127307   3.439   2.614   1.885 -0.4029 -1.4005 -0.5166
 1916TIP3    H227308   3.477   2.625   2.032  0.8601  1.0043 -0.9736
 1917TIP3   OH227309   3.505   5.746   2.068  0.1003 -0.5514  0.3840
 1917TIP3    H127310   3.520   5.666   2.018  0.3531 -0.4832  0.3535
 1917TIP3    H227311   3.589   5.791   2.069  0.1827 -0.7100  1.1601
 1918TIP3   OH227312   1.026   2.012   7.243  0.7372  0.2105  0.1155
 1918TIP3    H127313   0.989   1.984   7.160  1.1141  0.7867 -0.2497
 1918TIP3    H227314   1.049   1.930   7.287 -0.3008 -0.1361  0.0556
 1919TIP3   OH227315   4.373   4.321   1.716  0.0662  0.3500 -0.3051
 1919TIP3    H127316   4.428   4.357   1.786  1.3775 -0.6798 -0.7634
 1919TIP3    H227317   4.361   4.394   1.655  2.4711  0.1930 -1.0891
 1920TIP3   OH227318   3.334   1.900   8.506 -0.0332  0.1312 -0.0840
 1920TIP3    H127319   3.344   1.925   8.414 -0.3971 -0.5985 -0.3305
 1920TIP3    H227320   3.248   1.859   8.510  0.8360 -1.8048  0.1216
 1921TIP3   OH227321   3.511   1.993   6.259  0.0671 -0.3189 -0.1317
 1921TIP3    H127322   3.606   2.005   6.247  0.1726  1.1674  1.6825
 1921TIP3    H227323   3.503   1.913   6.309  0.1466 -1.7843 -2.3121
 1922TIP3   OH227324   5.786   5.463   1.536  0.0881  0.0783 -0.4972
 1922TIP3    H127325   5.702   5.481   1.493 -0.2366  0.9768  0.4363
 1922TIP3    H227326   5.836   5.544   1.525 -0.4871  0.8509  1.7963
 1923TIP3   OH227327   1.722   2.218   6.832 -0.3326 -0.0966  0.8746
 1923TIP3    H127328   1.736   2.167   6.753  2.6570 -1.6547  2.2280
 1923TIP3    H227329   1.636   2.257   6.821 -1.9924 -3.8272 -1.1578
 1924TIP3   OH227330   0.147   6.325   7.757 -0.4358 -0.0666 -0.7445
 1924TIP3    H127331   0.094   6.401   7.733 -2.0076 -0.8523  0.0760
 1924TIP3    H227332   0.099   6.250   7.724 -0.0655 -0.8323  0.3777
 1925TIP3   OH227333   4.592   3.351   1.476 -0.0191 -0.3427  0.3471
 1925TIP3    H127334   4.553   3.382   1.558 -0.9195 -1.4366  0.3516
 1925TIP3    H227335   4.526   3.369   1.409  0.1264 -0.7603  0.0910
 1926TIP3   OH227336   5.154   5.876   7.963  0.3869  0.4100  0.0628
 1926TIP3    H127337   5.093   5.871   7.889 -0.6540 -1.0690  0.9827
 1926TIP3    H227338   5.139   5.963   8.001 -2.4927 -0.5241  1.3197
 1927TIP3   OH227339   0.469   1.593   2.211 -0.5508 -0.0912  0.4839
 1927TIP3    H127340   0.405   1.633   2.270  1.9847  0.0187  3.4050
 1927TIP3    H227341   0.466   1.500   2.232  0.1512 -0.1011  0.5627
 1928TIP3   OH227342   0.183   0.984   6.851  0.3606 -0.0109 -0.1039
 1928TIP3    H127343   0.100   0.983   6.898 -1.0107  0.6726 -2.3334
 1928TIP3    H227344   0.172   1.053   6.785  1.7280 -1.5522 -2.0784
 1929TIP3   OH227345   2.786   2.562   8.551 -0.2865  0.4133 -0.8407
 1929TIP3    H127346   2.701   2.564   8.595  0.1087  0.9857 -0.0785
 1929TIP3    H227347   2.765   2.553   8.458 -1.1779  0.4989 -0.6541
 1930TIP3   OH227348   2.130   4.472   0.560 -0.2747 -0.5760 -0.3093
 1930TIP3    H127349   2.058   4.533   0.573 -3.0273 -3.9216  2.1068
 1930TIP3    H227350   2.109   4.427   0.478 -0.2728 -0.7374 -0.2216
 1931TIP3   OH227351   0.861   1.923   8.363  0.6718 -0.2557 -0.3553
 1931TIP3    H127352   0.895   1.986   8.427  0.0789 -1.4638  1.2256
 1931TIP3    H227353   0.935   1.905   8.305  1.1424  1.0915 -0.2073
 1932TIP3   OH227354   4.938   5.911   7.777  0.1395 -0.8183 -0.0788
 1932TIP3    H127355   4.860   5.966   7.775 -1.1699 -2.5854  0.6008
 1932TIP3    H227356   4.934   5.859   7.697  0.5952 -0.9569 -0.0173
 1933TIP3   OH227357   5.379   0.481   0.115  0.0390  0.7857 -0.7412
 1933TIP3    H127358   5.284   0.473   0.122  0.1416 -0.6634 -0.7398
 1933TIP3    H227359   5.408   0.396   0.082  1.2250  1.6084 -1.9574
 1934TIP3   OH227360   6.500   5.308   1.450  0.1000  0.2685 -0.5444
 1934TIP3    H127361   6.586   5.297   1.410 -0.1867  1.1102 -1.4155
 1934TIP3    H227362   6.475   5.398   1.431 -1.0121  0.0201 -0.3643
 1935TIP3   OH227363   3.164   6.026   1.213 -0.2156  0.4639 -0.1868
 1935TIP3    H127364   3.254   5.993   1.207 -0.0900  0.6802  0.5029
 1935TIP3    H227365   3.109   5.952   1.187  0.2539  1.2689 -4.0912
 1936TIP3   OH227366   6.488   0.593   1.107 -0.0657  0.3650  0.3237
 1936TIP3    H127367   6.403   0.630   1.131 -1.1800 -2.5664  1.3685
 1936TIP3    H227368   6.466   0.523   1.045  1.3907 -1.3544  1.6477
 1937TIP3   OH227369   5.605   5.777   0.193  0.1797  0.0919 -0.3501
 1937TIP3    H127370   5.530   5.836   0.189 -0.5135 -0.3098  3.1728
 1937TIP3    H227371   5.567   5.690   0.187  0.1942 -0.1322  2.0030
 1938TIP3   OH227372   2.839   5.686   7.597 -0.1543 -0.3574 -0.3640
 1938TIP3    H127373   2.819   5.688   7.503  1.5011 -1.5227 -0.7766
 1938TIP3    H227374   2.782   5.618   7.633 -1.3379  0.6049 -0.3474
 1939TIP3   OH227375   2.729   1.136   7.592 -0.2580  0.4502  0.0369
 1939TIP3    H127376   2.753   1.192   7.518  0.5375  1.5609  1.0901
 1939TIP3    H227377   2.660   1.078   7.558  0.5048  0.5225 -1.7179
 1940TIP3   OH227378   1.468   0.504   7.455  0.7318 -0.2084 -0.7333
 1940TIP3    H127379   1.466   0.537   7.365  1.9326 -2.0291 -1.4839
 1940TIP3    H227380   1.379   0.475   7.472  0.8243 -1.2982 -1.9462
 1941TIP3   OH227381   3.986   5.879   8.071 -0.9137  0.2145  0.5740
 1941TIP3    H127382   4.068   5.894   8.119 -0.5223  2.3779 -0.6451
 1941TIP3    H227383   4.010   5.816   8.003  0.1666  1.8074 -0.6150
 1942TIP3   OH227384   4.996   2.400   0.108 -0.2012  0.1693 -0.2695
 1942TIP3    H127385   5.040   2.328   0.153 -1.5437 -0.2418  0.4390
 1942TIP3    H227386   5.034   2.401   0.020  1.5915  0.1954  0.4665
 1943TIP3   OH227387   0.361   3.192   8.137  0.2187 -0.0034  0.1338
 1943TIP3    H127388   0.443   3.236   8.158  0.6827 -0.7824 -0.0162
 1943TIP3    H227389   0.296   3.263   8.134  0.8721  0.6145  0.2777
 1944TIP3   OH227390   1.828   3.787   7.929  0.1856 -0.1435 -0.2203
 1944TIP3    H127391   1.800   3.701   7.961  1.4188  0.0849  1.7106
 1944TIP3    H227392   1.765   3.848   7.966  1.3415  0.0732  1.5403
 1945TIP3   OH227393   3.234   2.556   7.544 -0.1585  0.1428 -0.2714
 1945TIP3    H127394   3.185   2.526   7.467  0.3762  0.5190 -0.7640
 1945TIP3    H227395   3.316   2.588   7.509 -0.0327  0.6047  0.4329
 1946TIP3   OH227396   5.830   2.802   8.819  0.3610  0.0926 -0.1099
 1946TIP3    H127397   5.868   2.886   8.793  0.4836  1.0951  2.9162
 1946TIP3    H227398   5.890   2.768   8.885 -0.2621 -1.9003 -0.5007
 1947TIP3   OH227399   0.759   4.134   0.805 -0.0885  0.0018  0.5858
 1947TIP3    H127400   0.777   4.189   0.729  4.4849 -1.7377  0.0569
 1947TIP3    H227401   0.707   4.062   0.771 -0.2332  0.5218 -0.3162
 1948TIP3   OH227402   6.063   2.303   8.279  0.1300  0.6493 -0.2156
 1948TIP3    H127403   6.105   2.226   8.239  0.0224  0.7947 -0.6090
 1948TIP3    H227404   6.075   2.290   8.373 -2.8855 -1.6294  0.0129
 1949TIP3   OH227405   1.441   1.790   2.242  0.1854 -0.4475  0.3945
 1949TIP3    H127406   1.359   1.748   2.216 -0.9442  1.6425  0.3075
 1949TIP3    H227407   1.445   1.869   2.188  0.3800  1.3802  2.9260
 1950TIP3   OH227408   1.106   2.514   8.086  0.5707  0.1095  0.1101
 1950TIP3    H127409   1.062   2.599   8.078 -0.0267 -0.3465 -2.2443
 1950TIP3    H227410   1.163   2.509   8.009  0.5404 -1.6572  0.1595
 1951TIP3   OH227411   1.786   6.026   7.268  0.0163  0.0518 -0.2318
 1951TIP3    H127412   1.691   6.036   7.272 -0.2999 -2.2742 -0.7985
 1951TIP3    H227413   1.805   6.011   7.176  0.5672 -2.3012  0.2064
 1952TIP3   OH227414   4.854   4.549   1.697 -0.3206 -0.5942 -0.1846
 1952TIP3    H127415   4.769   4.590   1.712 -0.1889 -0.4754  0.2721
 1952TIP3    H227416   4.917   4.608   1.738 -0.0030 -0.6074 -0.6473
 1953TIP3   OH227417   6.226   6.311   8.044 -0.2722  0.0293 -0.5046
 1953TIP3    H127418   6.224   6.215   8.035  0.1290 -0.5321  3.6549
 1953TIP3    H227419   6.310   6.336   8.006 -0.4519 -1.1782 -1.8246
 1954TIP3   OH227420   3.326   2.729   6.670  0.3345 -0.6079 -0.0737
 1954TIP3    H127421   3.276   2.735   6.589  0.1663 -0.0084  0.0710
 1954TIP3    H227422   3.377   2.809   6.674 -0.4548 -0.1322  0.9221
 1955TIP3   OH227423   0.060   3.159   2.227 -0.4855  0.3337 -0.4197
 1955TIP3    H127424   0.078   3.067   2.247  0.5693  1.0470  2.5306
 1955TIP3    H227425   0.147   3.200   2.225 -0.9121  1.2415 -2.0948
 1956TIP3   OH227426   1.661   4.515   0.999  0.3194 -0.6394 -0.3176
 1956TIP3    H127427   1.594   4.450   1.020  1.3247 -1.5882 -0.0252
 1956TIP3    H227428   1.653   4.528   0.905 -1.9388  1.1413  0.0110
 1957TIP3   OH227429   3.718   5.168   7.118  0.7125 -0.4859 -0.4008
 1957TIP3    H127430   3.780   5.191   7.188  1.1115  1.1253 -1.2408
 1957TIP3    H227431   3.671   5.092   7.153  3.7999 -2.4779 -0.1182
 1958TIP3   OH227432   6.781   6.002   7.995  0.1860  0.9778 -0.4498
 1958TIP3    H127433   6.694   6.025   8.027  0.7770  0.9357  1.3241
 1958TIP3    H227434   6.766   5.935   7.929 -1.1170  0.8668 -0.0593
 1959TIP3   OH227435   0.911   6.155   8.770  0.5114  0.4384 -0.0162
 1959TIP3    H127436   0.965   6.081   8.743 -0.6878 -0.7398  0.6585
 1959TIP3    H227437   0.913   6.215   8.696  0.8649 -0.6600 -0.9228
 1960TIP3   OH227438   5.545   6.739   8.162 -0.1659 -0.2944  0.0001
 1960TIP3    H127439   5.500   6.676   8.106  0.2454 -0.9760  0.4306
 1960TIP3    H227440   5.475   6.780   8.213 -0.3829 -0.7782  0.0953
 1961TIP3   OH227441   2.716   3.691   8.805  0.2996 -0.1462 -0.4676
 1961TIP3    H127442   2.649   3.686   8.872  1.0193  0.0895  0.2811
 1961TIP3    H227443   2.748   3.602   8.795 -0.0341 -0.2390 -0.7462
 1962TIP3   OH227444   4.002   3.882   6.723 -0.2632  0.3073 -0.2017
 1962TIP3    H127445   4.054   3.805   6.699 -1.3650  0.1367 -2.3342
 1962TIP3    H227446   3.992   3.930   6.640 -2.6051  0.8537  0.3409
 1963TIP3   OH227447   4.226   5.513   7.645  0.3611 -0.6391  0.7407
 1963TIP3    H127448   4.158   5.580   7.642  1.1628  0.1683 -0.2690
 1963TIP3    H227449   4.182   5.432   7.619 -0.2782 -0.1813  0.3649
 1964TIP3   OH227450   5.066   6.414   1.188 -0.5110  0.7384 -0.1918
 1964TIP3    H127451   5.087   6.395   1.280  2.7674  0.8517 -0.8180
 1964TIP3    H227452   5.019   6.336   1.159  0.5695 -0.3975  0.9606
 1965TIP3   OH227453   5.736   6.636   8.413 -0.1579  0.1933  0.6349
 1965TIP3    H127454   5.727   6.544   8.438 -0.2175 -0.1614 -0.6190
 1965TIP3    H227455   5.706   6.639   8.322 -0.3710  1.4996  0.7292
 1966TIP3   OH227456   5.576   2.169   7.505  0.4004  0.3384 -0.1466
 1966TIP3    H127457   5.671   2.182   7.500  0.8220 -2.1456  0.4091
 1966TIP3    H227458   5.564   2.075   7.499 -2.0216  0.5553  0.3797
 1967TIP3   OH227459   6.373   5.737   8.037 -0.0474  0.3812  0.4971
 1967TIP3    H127460   6.350   5.722   8.129  0.7158 -0.2822  0.5973
 1967TIP3    H227461   6.451   5.683   8.023 -0.4549  0.0598 -0.6842
 1968TIP3   OH227462   2.215   6.713   8.076  1.0721 -0.3086  0.2140
 1968TIP3    H127463   2.273   6.691   8.003  0.9509  0.7312 -0.2125
 1968TIP3    H227464   2.132   6.670   8.054  1.5740 -1.5573  0.6835
 1969TIP3   OH227465   4.190   4.808   8.683  0.0071  0.0217  0.3294
 1969TIP3    H127466   4.235   4.771   8.759  1.5906 -1.1257 -1.1014
 1969TIP3    H227467   4.255   4.865   8.642  0.3717 -1.9689 -2.0105
 1970TIP3   OH227468   5.452   5.150   2.389 -0.3353 -0.4770  0.2779
 1970TIP3    H127469   5.472   5.225   2.333 -2.2095  0.1767  0.4318
 1970TIP3    H227470   5.357   5.147   2.393 -0.2736 -1.4936  2.1384
 1971TIP3   OH227471   2.399   4.129   8.324  0.3467 -0.1302  0.1716
 1971TIP3    H127472   2.389   4.034   8.326  1.0705 -0.2193  0.0860
 1971TIP3    H227473   2.468   4.147   8.387 -1.2318  0.5662  1.7751
 1972TIP3   OH227474   5.994   6.439   0.238  0.3870 -0.7487 -0.2709
 1972TIP3    H127475   5.977   6.464   0.328  1.4614 -0.0199 -0.2490
 1972TIP3    H227476   6.082   6.471   0.220 -0.5454  0.9800 -2.2202
 1973TIP3   OH227477   2.175   3.850   0.203  0.2644 -0.2820 -0.1542
 1973TIP3    H127478   2.129   3.767   0.208 -1.9543  0.8433 -0.4596
 1973TIP3    H227479   2.174   3.872   0.109  2.1857 -0.5885 -0.2820
 1974TIP3   OH227480   1.132   1.310   0.363  0.2039  0.2068 -0.5131
 1974TIP3    H127481   1.085   1.366   0.301 -0.8062 -0.5538 -0.4499
 1974TIP3    H227482   1.112   1.221   0.335  1.3969 -0.1379 -0.3147
 1975TIP3   OH227483   1.301   1.096   1.221 -0.2778 -0.3892  0.1860
 1975TIP3    H127484   1.344   1.175   1.253 -2.5676  0.3597  1.5779
 1975TIP3    H227485   1.264   1.121   1.136  0.3190 -0.4549 -0.0991
 1976TIP3   OH227486   0.010   6.071   7.281  0.1105 -0.4016  0.5094
 1976TIP3    H127487   0.100   6.075   7.314  0.0396  1.3678  0.5775
 1976TIP3    H227488  -0.034   6.010   7.340  1.3081 -1.5173  0.3062
 1977TIP3   OH227489   0.876   2.988   1.438 -0.2401  0.0317  0.1837
 1977TIP3    H127490   0.949   2.997   1.499  0.6316  0.2654 -0.8574
 1977TIP3    H227491   0.798   2.990   1.493  0.5477 -0.5629  1.3486
 1978TIP3   OH227492   1.659   6.740   8.456 -0.2088 -0.2206  0.1433
 1978TIP3    H127493   1.719   6.813   8.442 -1.4088  1.1778  1.7745
 1978TIP3    H227494   1.715   6.665   8.475  1.0445  0.7673  0.4693
 1979TIP3   OH227495   1.770   1.279   7.154  0.7604  0.3220 -0.0924
 1979TIP3    H127496   1.820   1.352   7.118  1.3374 -1.0004 -2.0978
 1979TIP3    H227497   1.834   1.228   7.203  0.3364  1.1419  1.3956
 1980TIP3   OH227498   0.969   0.165   6.337  0.4661  0.0862 -0.1754
 1980TIP3    H127499   1.026   0.238   6.361  1.4854 -0.0318 -2.0336
 1980TIP3    H227500   0.990   0.097   6.401  1.5200  0.4964 -0.0510
 1981TIP3   OH227501   4.759   2.951   2.117 -0.0451 -0.2064 -0.1278
 1981TIP3    H127502   4.686   2.895   2.092 -0.1447 -0.9478  1.6891
 1981TIP3    H227503   4.733   3.038   2.088 -1.7028 -0.4382  0.5415
 1982TIP3   OH227504   4.236   5.386   7.009 -0.0097  0.3311 -0.4857
 1982TIP3    H127505   4.300   5.442   6.965  1.6871  0.5226  2.0057
 1982TIP3    H227506   4.181   5.447   7.058 -1.1827  0.0477 -1.3838
 1983TIP3   OH227507   3.092   4.750   6.866 -0.3681  0.5861  0.0929
 1983TIP3    H127508   3.094   4.732   6.960 -1.0621  0.0507  0.0123
 1983TIP3    H227509   3.182   4.736   6.838 -0.3559 -0.2201  0.5068
 1984TIP3   OH227510   5.639   6.683   1.709  0.3400  0.7280 -0.2956
 1984TIP3    H127511   5.670   6.722   1.627 -0.3680  1.1984 -0.3474
 1984TIP3    H227512   5.544   6.680   1.700  0.3230 -0.2574  0.0521
 1985TIP3   OH227513   5.013   3.797   0.624  0.4045  0.0907 -0.3810
 1985TIP3    H127514   5.071   3.849   0.680  2.2357 -0.6315 -1.5340
 1985TIP3    H227515   4.947   3.763   0.684  3.0796 -1.8169  1.7105
 1986TIP3   OH227516   6.663   2.234   8.013  0.1826 -0.0459  0.0085
 1986TIP3    H127517   6.717   2.240   8.092  1.1724 -1.8079 -0.4962
 1986TIP3    H227518   6.713   2.283   7.947  0.2843 -0.1510  0.0057
 1987TIP3   OH227519   2.127   3.835   7.561  0.1960 -0.8130  0.6518
 1987TIP3    H127520   2.117   3.796   7.648 -0.1192 -1.1615  0.4635
 1987TIP3    H227521   2.047   3.886   7.548 -1.4746 -3.5463 -0.8316
 1988TIP3   OH227522   3.545   0.489   6.238 -0.3188  0.6356 -0.1221
 1988TIP3    H127523   3.470   0.513   6.182  1.3256  0.9169 -2.3468
 1988TIP3    H227524   3.513   0.415   6.290 -2.9957  2.4681  1.0770
 1989TIP3   OH227525   5.290   4.399   8.574  0.4425  0.0358 -0.0804
 1989TIP3    H127526   5.303   4.493   8.558 -0.8215  0.2591  0.1531
 1989TIP3    H227527   5.253   4.366   8.492 -0.2720 -0.0096  0.2526
 1990TIP3   OH227528   5.283   5.289   0.720 -0.2719  0.0630 -0.4601
 1990TIP3    H127529   5.213   5.245   0.672  0.8934 -1.1284 -1.1302
 1990TIP3    H227530   5.270   5.382   0.703 -2.8031  0.0575  0.9981
 1991TIP3   OH227531   2.897   1.042   7.202 -0.0667 -0.1918 -0.0467
 1991TIP3    H127532   2.945   1.032   7.285 -2.0383 -1.0653  1.0510
 1991TIP3    H227533   2.866   1.133   7.203 -3.3407 -1.1958  2.1257
 1992TIP3   OH227534   1.931   4.359   7.659 -0.2874  0.0849  0.1503
 1992TIP3    H127535   1.874   4.418   7.708 -3.2854 -1.8968 -0.6494
 1992TIP3    H227536   1.962   4.411   7.586  0.7951  1.8629  1.7913
 1993TIP3   OH227537   4.590   6.075   0.401  0.6729 -0.9472  0.1102
 1993TIP3    H127538   4.615   6.014   0.470 -0.4480 -1.1050  0.3918
 1993TIP3    H227539   4.591   6.022   0.321 -0.4312 -1.3852  0.3733
 1994TIP3   OH227540   1.618   2.064   1.616 -0.5031  0.3338  0.4068
 1994TIP3    H127541   1.563   2.030   1.546 -1.7450  0.5319  1.2608
 1994TIP3    H227542   1.602   2.006   1.690 -0.2340  0.9138  0.9294
 1995TIP3   OH227543   6.048   4.718   7.367  0.7981  0.6280  0.4024
 1995TIP3    H127544   6.049   4.747   7.275 -0.7151 -0.3798  0.0334
 1995TIP3    H227545   6.002   4.788   7.413  1.8660  1.3036  0.4838
 1996TIP3   OH227546   5.177   5.933   7.578  0.2298 -0.2967 -0.1318
 1996TIP3    H127547   5.251   5.888   7.619 -1.3395 -1.4337  1.6174
 1996TIP3    H227548   5.111   5.938   7.646 -1.3625  0.6079 -1.6550
 1997TIP3   OH227549   1.284   2.427   8.775  0.2705 -0.1651 -0.0453
 1997TIP3    H127550   1.285   2.509   8.824 -2.5656 -0.1091  0.0734
 1997TIP3    H227551   1.334   2.447   8.695  0.2752  1.4358  0.3179
 1998TIP3   OH227552   2.294   2.097   0.633  0.8599  0.1708 -0.3327
 1998TIP3    H127553   2.297   2.023   0.571 -0.2290 -2.4917  2.5311
 1998TIP3    H227554   2.208   2.136   0.620 -0.3379 -1.8706  0.9513
 1999TIP3   OH227555   2.525   1.475   8.180  0.1996  0.4468 -0.2178
 1999TIP3    H127556   2.573   1.468   8.098  2.0512  2.1751  0.6512
 1999TIP3    H227557   2.529   1.386   8.217  0.4664 -0.0410 -1.3778
 2000TIP3   OH227558   2.972   2.950   8.188  0.1323 -0.1847 -0.0944
 2000TIP3    H127559   2.952   2.890   8.116  1.0464 -0.1819 -0.3652
 2000TIP3    H227560   3.066   2.967   8.179  0.0999  0.4165  0.6455
 2001TIP3   OH227561   1.449   0.105   8.430  0.1184  0.3399  0.1122
 2001TIP3    H127562   1.523   0.047   8.448  1.1401  1.4264 -0.4506
 2001TIP3    H227563   1.372   0.057   8.462  1.0005 -1.0197  0.2673
 2002TIP3   OH227564   1.373   6.772   8.850 -0.1133  0.3680 -0.3955
 2002TIP3    H127565   1.456   6.814   8.826  0.3520  0.0727  0.6486
 2002TIP3    H227566   1.357   6.799   8.941 -0.8649 -0.0491 -0.3908
 2003TIP3   OH227567   2.577   4.921   7.740 -0.0548 -0.2321  0.1785
 2003TIP3    H127568   2.508   4.952   7.798 -1.1123 -2.2421  0.0534
 2003TIP3    H227569   2.606   4.838   7.778  0.7039 -0.5380 -1.0182
 2004TIP3   OH227570   3.012   1.491   1.101 -0.8731 -0.3566 -0.7408
 2004TIP3    H127571   2.968   1.409   1.078  1.0445 -1.8614  0.5819
 2004TIP3    H227572   2.942   1.549   1.130 -2.3125 -1.4096 -1.9743
 2005TIP3   OH227573   1.717   1.403   7.705 -0.0421  0.3432 -0.1703
 2005TIP3    H127574   1.727   1.484   7.755  0.0611  0.5994 -0.5964
 2005TIP3    H227575   1.803   1.361   7.712 -0.4429 -0.3178  1.0375
 2006TIP3   OH227576   6.124   6.649   1.109 -0.0445  0.0099 -0.8370
 2006TIP3    H127577   6.115   6.628   1.202  0.3462 -0.0732 -0.8171
 2006TIP3    H227578   6.045   6.698   1.087  0.4495  1.1449 -0.1512
 2007TIP3   OH227579   1.355   1.964   8.638 -0.3346 -0.3045 -0.2074
 2007TIP3    H127580   1.376   2.022   8.564  2.4178  0.1435  0.8135
 2007TIP3    H227581   1.301   2.018   8.696  2.0741  1.3550  0.6666
 2008TIP3   OH227582   6.414   3.151   1.389  0.3556 -0.7271 -0.4772
 2008TIP3    H127583   6.434   3.137   1.481  0.3578  1.1468 -0.1447
 2008TIP3    H227584   6.498   3.180   1.351 -0.4425  2.3798 -0.1437
 2009TIP3   OH227585   2.437   5.002   8.616  0.0513  0.0170  0.5124
 2009TIP3    H127586   2.368   4.936   8.623  0.9452 -0.9307  0.8669
 2009TIP3    H227587   2.392   5.082   8.591 -1.4594 -0.0767  2.6089
 2010TIP3   OH227588   5.693   5.300   1.120 -0.1395  0.5716  0.4244
 2010TIP3    H127589   5.677   5.245   1.196 -0.5767  1.1059  0.7209
 2010TIP3    H227590   5.696   5.390   1.154 -2.1823  1.0108 -0.4081
 2011TIP3   OH227591   6.119   0.586   1.127 -0.4006  0.9469 -0.2601
 2011TIP3    H127592   6.149   0.676   1.122 -0.0613  0.9353  1.0249
 2011TIP3    H227593   6.118   0.555   1.037  0.0762  2.0416 -0.6531
 2012TIP3   OH227594   3.106   0.939   7.694  0.6013  0.2590  0.1476
 2012TIP3    H127595   3.060   0.976   7.768  1.5874 -0.1895  1.0212
 2012TIP3    H227596   3.104   0.844   7.709 -0.5378  0.0343 -1.2268
 2013TIP3   OH227597   0.771   6.719   0.493  0.2012 -0.0563 -0.4432
 2013TIP3    H127598   0.779   6.743   0.586  0.5251  1.0009 -0.7311
 2013TIP3    H227599   0.794   6.627   0.490 -0.0825 -0.1743  0.5698
 2014TIP3   OH227600   5.730   1.426   8.135 -0.3174  0.8443 -0.1601
 2014TIP3    H127601   5.820   1.457   8.123  0.1899 -0.5270 -0.0676
 2014TIP3    H227602   5.692   1.488   8.197  1.1205  0.4521  1.1798
 2015TIP3   OH227603   6.635   6.564   8.740 -0.5789  0.0099 -0.4626
 2015TIP3    H127604   6.549   6.571   8.699 -0.0616  0.0711 -1.5765
 2015TIP3    H227605   6.668   6.654   8.742 -0.9583  0.1508  0.9582
 2016TIP3   OH227606   1.458   2.959   1.037  0.3243  0.4197  0.0213
 2016TIP3    H127607   1.427   3.048   1.051 -0.2844  0.2373 -0.1670
 2016TIP3    H227608   1.419   2.932   0.954  0.0564 -0.2256  0.3507
 2017TIP3   OH227609   1.564   6.229   0.621  0.6933  0.4025 -0.1282
 2017TIP3    H127610   1.636   6.285   0.650 -0.2357  1.6534 -0.1418
 2017TIP3    H227611   1.600   6.181   0.546  2.2373 -0.8095  1.3248
 2018TIP3   OH227612   4.097   6.591   7.870  0.0284 -0.4167 -0.2784
 2018TIP3    H127613   4.037   6.570   7.798 -1.3709 -3.2631  1.5262
 2018TIP3    H227614   4.047   6.653   7.925  0.7197  0.9918 -1.1748
 2019TIP3   OH227615   6.750   2.066   8.733 -0.5412  0.0973  0.3111
 2019TIP3    H127616   6.732   2.131   8.800 -1.6093  0.8249 -0.6417
 2019TIP3    H227617   6.793   2.115   8.663  1.0801 -0.7579  0.6611
 2020TIP3   OH227618   4.846   4.440   0.343  0.7406 -0.2760  0.0562
 2020TIP3    H127619   4.927   4.397   0.315  2.1894  1.7492  0.9634
 2020TIP3    H227620   4.841   4.424   0.437 -0.7041 -1.5361 -0.1797
 2021TIP3   OH227621   0.330   3.369   1.003  0.0827 -0.3670 -0.1318
 2021TIP3    H127622   0.299   3.377   0.913 -1.3591 -1.5918  0.2322
 2021TIP3    H227623   0.355   3.277   1.012 -0.0705 -0.3220  0.8174
 2022TIP3   OH227624   5.531   3.104   0.292 -0.2057  0.7825 -0.3753
 2022TIP3    H127625   5.488   3.181   0.256  0.3355  1.6802  0.8207
 2022TIP3    H227626   5.564   3.057   0.216 -1.8981  0.8884 -1.2235
 2023TIP3   OH227627   3.927   1.555   8.722 -0.4622  0.8781 -0.0622
 2023TIP3    H127628   3.954   1.550   8.631  0.8058 -0.9750  0.3588
 2023TIP3    H227629   3.862   1.485   8.731  2.9099 -2.4051  1.4396
 2024TIP3   OH227630   4.849   2.175   8.703 -0.4527  0.5607 -0.6078
 2024TIP3    H127631   4.874   2.256   8.658  1.3968  1.3406  1.6380
 2024TIP3    H227632   4.783   2.201   8.767  0.8025  0.5345  0.7489
 2025TIP3   OH227633   1.808   2.008   8.492  0.0333  0.3221 -0.2637
 2025TIP3    H127634   1.736   1.995   8.430  0.0515 -0.5811 -0.1046
 2025TIP3    H227635   1.769   1.991   8.578  0.4234 -0.1537 -0.1749
 2026TIP3   OH227636   0.602   2.942   7.318 -0.4865  0.0334  0.3561
 2026TIP3    H127637   0.690   2.910   7.300 -0.2808  0.1423  1.1442
 2026TIP3    H227638   0.612   3.037   7.322 -0.9566  0.1829 -1.2202
 2027TIP3   OH227639   2.274   2.564   1.852 -0.0850 -0.8229 -0.0068
 2027TIP3    H127640   2.210   2.577   1.922  0.7388  0.7192  0.4979
 2027TIP3    H227641   2.339   2.504   1.890  0.4812  0.1864  0.6688
 2028TIP3   OH227642   5.164   6.478   1.553  0.2905  0.5134 -0.0845
 2028TIP3    H127643   5.075   6.469   1.520 -0.4534  1.0942  1.6150
 2028TIP3    H227644   5.174   6.403   1.613  0.5586  0.9945  0.4821
 2029TIP3   OH227645   1.689   5.789   6.819 -0.0491 -0.8849 -0.3650
 2029TIP3    H127646   1.656   5.714   6.869  0.1923 -1.7150 -1.4005
 2029TIP3    H227647   1.628   5.798   6.746 -0.6504  0.5906  0.2974
 2030TIP3   OH227648   6.799   3.720   6.935  0.1571 -0.2410 -0.1887
 2030TIP3    H127649   6.746   3.646   6.905  0.9529 -1.5130  1.3920
 2030TIP3    H227650   6.776   3.791   6.875 -2.2294 -1.1421 -0.4838
 2031TIP3   OH227651   2.126   3.462   8.210  0.3089 -0.9035 -0.7434
 2031TIP3    H127652   2.154   3.468   8.301  0.9039 -0.0343 -0.9792
 2031TIP3    H227653   2.045   3.410   8.213 -0.4779  0.3522  0.4414
 2032TIP3   OH227654   4.404   2.984   8.334  0.2960 -0.5915  0.6114
 2032TIP3    H127655   4.398   3.012   8.242 -1.5140  1.6113  1.2907
 2032TIP3    H227656   4.345   2.910   8.340 -1.0973  0.4438  0.3322
 2033TIP3   OH227657   3.812   1.516   7.400  0.3669  0.2285  0.6332
 2033TIP3    H127658   3.826   1.558   7.315  2.2889 -1.2572  0.1428
 2033TIP3    H227659   3.834   1.584   7.464 -1.6294  1.5385  0.0211
 2034TIP3   OH227660   5.828   0.026   8.627 -0.0682 -0.1584  0.1292
 2034TIP3    H127661   5.797  -0.045   8.570 -0.5286  0.6836 -0.7002
 2034TIP3    H227662   5.792   0.105   8.588  1.2313  0.6371  0.4736
 2035TIP3   OH227663   4.418   6.627   1.810  0.1477 -0.2052 -0.0184
 2035TIP3    H127664   4.347   6.578   1.852  0.2552  0.5235  1.0638
 2035TIP3    H227665   4.470   6.661   1.883  1.2579 -0.2036 -0.7868
 2036TIP3   OH227666   6.580   4.830   0.189  0.5596 -0.1934  0.4086
 2036TIP3    H127667   6.585   4.736   0.202  0.6478 -0.0411  1.6093
 2036TIP3    H227668   6.489   4.846   0.163  0.5494 -0.6055  0.1840
 2037TIP3   OH227669   0.345   5.184   1.772  0.4764  0.1167  0.2364
 2037TIP3    H127670   0.291   5.110   1.799 -0.6379  1.1733  0.9830
 2037TIP3    H227671   0.378   5.159   1.685 -1.1814 -0.5755 -0.2286
 2038TIP3   OH227672   0.312   3.461   8.617  0.6049  0.2769 -0.3698
 2038TIP3    H127673   0.291   3.505   8.699  0.5228 -0.1462 -0.1605
 2038TIP3    H227674   0.252   3.386   8.614  0.0392  0.7480 -1.2164
 2039TIP3   OH227675   6.591   6.483   0.265 -0.5353  0.0110  0.1786
 2039TIP3    H127676   6.523   6.514   0.206 -1.6382  1.5489  2.1104
 2039TIP3    H227677   6.646   6.426   0.212 -2.7757 -0.5283 -1.7025
 2040TIP3   OH227678   3.891   4.014   7.362 -0.5011 -0.0905 -0.3617
 2040TIP3    H127679   3.918   3.923   7.375 -0.5755 -0.0866 -0.1747
 2040TIP3    H227680   3.846   4.038   7.444 -0.9178 -0.0425 -0.6005
 2041TIP3   OH227681   6.658   6.477   8.083 -0.6824 -0.1655 -0.0749
 2041TIP3    H127682   6.694   6.500   8.169  0.0300  0.0910 -0.4418
 2041TIP3    H227683   6.701   6.537   8.022  1.0443 -2.2858 -1.0395
 2042TIP3   OH227684   2.848   4.528   6.597  0.4136  0.8795  0.0980
 2042TIP3    H127685   2.794   4.576   6.660  0.2597 -0.2548  0.8630
 2042TIP3    H227686   2.931   4.513   6.643 -0.7862 -2.8491  1.4729
 2043TIP3   OH227687   4.422   6.449   7.631 -0.3427 -0.1156  0.5610
 2043TIP3    H127688   4.356   6.386   7.603  1.1813 -1.7077  0.3223
 2043TIP3    H227689   4.467   6.474   7.551 -0.0352  0.1979  0.8274
 2044TIP3   OH227690   2.207   0.457   7.353 -1.0815  0.1427 -0.2190
 2044TIP3    H127691   2.204   0.402   7.431 -1.0975 -0.9915 -1.0017
 2044TIP3    H227692   2.115   0.469   7.329 -1.1528  1.6102  0.6803
 2045TIP3   OH227693   6.082   6.086   7.795 -0.5207 -0.3842 -0.9780
 2045TIP3    H127694   6.176   6.102   7.785 -0.4713 -0.9005 -1.3918
 2045TIP3    H227695   6.055   6.142   7.868 -0.2169  0.9897 -1.8894
 2046TIP3   OH227696   0.763   6.529   7.744  0.0609 -0.1296  0.0042
 2046TIP3    H127697   0.795   6.553   7.657 -1.0953  0.1267 -0.3587
 2046TIP3    H227698   0.831   6.471   7.779  0.9584  0.4610 -0.7085
 2047TIP3   OH227699   4.276   1.672   0.599 -0.1095  0.6000 -0.1269
 2047TIP3    H127700   4.268   1.662   0.504  0.4328 -1.6243  0.0213
 2047TIP3    H227701   4.186   1.688   0.629 -0.4171  0.4101 -0.9290
 2048TIP3   OH227702   0.846   0.173   8.086 -0.1006  0.1405 -0.0409
 2048TIP3    H127703   0.774   0.232   8.106 -0.2357  0.9280 -2.5306
 2048TIP3    H227704   0.809   0.110   8.024  1.3465  0.7077 -1.5628
 2049TIP3   OH227705   5.295   6.701   0.423  0.1072 -0.0686 -0.1868
 2049TIP3    H127706   5.203   6.706   0.447  0.0106 -0.6324 -0.4196
 2049TIP3    H227707   5.306   6.770   0.358 -0.2198 -0.1725 -0.3571
 2050TIP3   OH227708   2.917   0.081   8.489  0.2532  0.3022  0.1097
 2050TIP3    H127709   2.954   0.170   8.487 -1.0051  0.8566  0.4443
 2050TIP3    H227710   2.966   0.037   8.558 -0.0943  1.2094  0.9706
 2051TIP3   OH227711   3.119   6.532   8.705 -0.4309 -0.5645  0.1840
 2051TIP3    H127712   3.072   6.488   8.776 -1.9342  0.6731 -0.0025
 2051TIP3    H227713   3.132   6.622   8.737 -1.5596  0.1478 -1.2801
 2052TIP3   OH227714   6.404   0.288   7.222 -0.2517 -0.1679  0.3524
 2052TIP3    H127715   6.380   0.195   7.232 -1.9680 -0.1818 -2.5424
 2052TIP3    H227716   6.499   0.288   7.219 -0.2224 -1.9687 -0.1916
 2053TIP3   OH227717   0.077   0.140   1.629  0.8326 -0.4278  0.9158
 2053TIP3    H127718   0.171   0.135   1.646  1.1447  0.6943 -0.3299
 2053TIP3    H227719   0.059   0.066   1.571  1.0252 -0.3919  0.8108
 2054TIP3   OH227720   1.355   2.600   1.126  0.3519  0.6665 -0.2270
 2054TIP3    H127721   1.294   2.673   1.113 -1.6479 -0.8160  0.2519
 2054TIP3    H227722   1.375   2.568   1.038 -0.7166  0.3188 -0.3614
 2055TIP3   OH227723   5.205   3.302   7.843  0.2626  0.0553 -0.2786
 2055TIP3    H127724   5.217   3.287   7.936  0.4540  0.2369 -0.2708
 2055TIP3    H227725   5.114   3.330   7.834  0.1012 -0.4478 -0.2130
 2056TIP3   OH227726   3.033   2.532   8.641 -0.2024  0.0799  0.6399
 2056TIP3    H127727   3.075   2.447   8.646  0.0850  0.2519  1.3145
 2056TIP3    H227728   2.945   2.514   8.606  1.0476 -0.0290 -2.8069
 2057TIP3   OH227729   3.348   4.896   6.554  0.1426  0.4028 -0.2683
 2057TIP3    H127730   3.401   4.832   6.506  2.1690  2.7333 -1.3672
 2057TIP3    H227731   3.274   4.913   6.496  0.4530  0.2212 -0.7286
 2058TIP3   OH227732   4.466   3.952   2.152 -0.0569  0.8270  0.6546
 2058TIP3    H127733   4.538   4.000   2.110 -0.6208  1.5796  0.5297
 2058TIP3    H227734   4.496   3.938   2.242  1.5374 -1.5580 -0.1500
 2059TIP3   OH227735   4.675   4.845   2.549  0.3402 -0.1464 -0.5433
 2059TIP3    H127736   4.591   4.884   2.575 -0.2056 -0.6719 -1.4529
 2059TIP3    H227737   4.665   4.830   2.455  1.4841 -0.1681 -0.6670
 2060TIP3   OH227738   3.063   0.703   7.828  0.1537 -0.2178 -0.3157
 2060TIP3    H127739   3.104   0.737   7.908 -1.9441  2.2376 -0.1773
 2060TIP3    H227740   3.093   0.612   7.824  1.8751  0.1151  2.1964
 2061TIP3   OH227741   0.519   1.445   1.981  0.0186  0.0548  0.1092
 2061TIP3    H127742   0.530   1.350   1.984 -0.2622  0.0370  0.8153
 2061TIP3    H227743   0.438   1.462   2.029 -0.2638  0.6022 -0.5535
 2062TIP3   OH227744   1.463   2.950   7.817  0.3323 -0.0796 -0.0816
 2062TIP3    H127745   1.439   2.892   7.745  1.6312 -1.2149  0.3600
 2062TIP3    H227746   1.383   2.958   7.869  0.7122 -3.7803  1.3899
 2063TIP3   OH227747   5.642   4.836   7.095  0.5160  0.6005 -0.0168
 2063TIP3    H127748   5.608   4.787   7.021 -0.3281  0.6560  0.3245
 2063TIP3    H227749   5.663   4.770   7.161 -0.5492  0.6747  0.4139
 2064TIP3   OH227750   2.778   5.557   0.390  0.6593 -0.0552  0.7935
 2064TIP3    H127751   2.799   5.476   0.344  0.6100  0.3385  0.0591
 2064TIP3    H227752   2.838   5.622   0.353  1.2942  0.0614  1.9950
 2065TIP3   OH227753   5.000   5.833   0.792 -0.0883  0.0720 -0.0757
 2065TIP3    H127754   5.047   5.899   0.842  0.0454  0.0984 -0.2373
 2065TIP3    H227755   5.023   5.850   0.701  2.2538 -1.9204  0.0080
 2066TIP3   OH227756   1.566   4.904   7.655  0.2504 -0.2606  0.3002
 2066TIP3    H127757   1.516   4.837   7.701  1.3431 -1.1131  0.2729
 2066TIP3    H227758   1.658   4.879   7.666  0.6012  0.0773 -1.4726
 2067TIP3   OH227759   1.927   4.719   7.969 -0.4013 -0.1690 -0.0464
 2067TIP3    H127760   1.872   4.778   7.917 -0.6400  0.7619  1.1923
 2067TIP3    H227761   1.965   4.776   8.036  1.8878 -0.8267 -0.6804
 2068TIP3   OH227762   0.316   3.017   6.753  0.2839  0.8633 -0.2367
 2068TIP3    H127763   0.270   3.022   6.837 -0.2566  0.3648 -0.4941
 2068TIP3    H227764   0.401   2.979   6.775 -0.5709 -1.1491 -0.1424
 2069TIP3   OH227765   2.189   6.220   7.395  0.9615 -0.4855 -0.3023
 2069TIP3    H127766   2.184   6.137   7.347 -2.5449 -1.1444  0.9310
 2069TIP3    H227767   2.208   6.194   7.486  0.4953  0.1255 -0.0249
 2070TIP3   OH227768   2.678   5.304   0.089 -0.2475  0.0581  0.1283
 2070TIP3    H127769   2.646   5.394   0.084 -0.4542 -0.0289 -0.1385
 2070TIP3    H227770   2.603   5.253   0.118  0.4744  0.3029  2.6754
 2071TIP3   OH227771   0.111   0.199   0.623  0.2767 -0.3095 -0.3359
 2071TIP3    H127772   0.114   0.175   0.716  0.1595  0.6799 -0.0669
 2071TIP3    H227773   0.033   0.254   0.615  1.5657  1.6166 -0.5029
 2072TIP3   OH227774   4.804   6.138   7.515  0.7882  0.0532 -0.4789
 2072TIP3    H127775   4.809   6.082   7.592  0.9611 -2.1884 -2.0312
 2072TIP3    H227776   4.836   6.084   7.443 -1.2023  1.3391 -2.4945
 2073TIP3   OH227777   3.322   6.601   0.202  0.2775  0.3299  0.1331
 2073TIP3    H127778   3.237   6.609   0.247  0.1320  0.2991 -0.1355
 2073TIP3    H227779   3.331   6.508   0.186 -0.0491  0.4191 -0.6220
 2074TIP3   OH227780   6.348   6.237   2.288 -0.1155 -0.1171 -0.2365
 2074TIP3    H127781   6.339   6.146   2.317 -0.6841 -0.2393 -0.7849
 2074TIP3    H227782   6.440   6.258   2.303 -0.1991 -0.4620  0.8129
 2075TIP3   OH227783   3.037   3.650   0.205 -0.0351 -0.1117  0.0660
 2075TIP3    H127784   2.963   3.663   0.263 -0.3661 -1.4642 -0.0129
 2075TIP3    H227785   3.097   3.594   0.254  1.5430  1.9503  0.6076
 2076TIP3   OH227786   0.702   3.122   0.205 -0.1718  0.1606 -0.5174
 2076TIP3    H127787   0.750   3.090   0.280  0.5273 -0.4930 -1.2256
 2076TIP3    H227788   0.676   3.211   0.229 -1.3974 -0.5971  1.1265
 2077TIP3   OH227789   4.768   2.948   0.691 -0.9813 -0.1632  0.2972
 2077TIP3    H127790   4.745   2.961   0.599  1.6452  1.3660 -0.2296
 2077TIP3    H227791   4.843   2.889   0.689 -0.0327  0.9708  1.3440
 2078TIP3   OH227792   3.907   6.314   7.489 -0.0883 -0.1169  0.2998
 2078TIP3    H127793   3.903   6.410   7.481 -2.6504 -0.1872  0.1675
 2078TIP3    H227794   3.824   6.289   7.529  0.1877 -2.3648 -0.3754
 2079TIP3   OH227795   1.355   0.442   1.655 -0.1326  0.7112  0.0464
 2079TIP3    H127796   1.440   0.472   1.688  0.8895 -0.8446 -1.0614
 2079TIP3    H227797   1.313   0.521   1.620  1.3194  1.3247 -0.3670
 2080TIP3   OH227798   0.969   0.840   7.989  0.0040 -0.2583  0.1050
 2080TIP3    H127799   0.904   0.780   8.025 -1.0896  0.8745  0.0818
 2080TIP3    H227800   0.943   0.926   8.022  0.9983  0.3336 -0.6026
 2081TIP3   OH227801   3.910   3.711   8.450  0.0594 -0.3819 -1.0173
 2081TIP3    H127802   3.990   3.759   8.470 -0.2516 -0.6864  1.2232
 2081TIP3    H227803   3.923   3.625   8.491  0.0358 -1.7941 -3.7347
 2082TIP3   OH227804   6.119   5.684   7.946  0.2392  0.3295  0.0995
 2082TIP3    H127805   6.211   5.687   7.971  0.4192 -2.1710  0.0583
 2082TIP3    H227806   6.096   5.591   7.951 -2.0852  0.7869 -0.6238
 2083TIP3   OH227807   3.964   1.673   7.569  0.0687  0.6896  0.4150
 2083TIP3    H127808   3.891   1.727   7.599  1.1170  2.0280  0.6829
 2083TIP3    H227809   4.037   1.698   7.627  0.8205 -0.3838 -0.0365
 2084TIP3   OH227810   5.173   3.829   1.394  0.1181 -0.4252 -0.4308
 2084TIP3    H127811   5.200   3.921   1.390  0.6576 -0.4927  0.9365
 2084TIP3    H227812   5.098   3.824   1.335  0.1889  0.8480 -0.6786
 2085TIP3   OH227813   2.221   5.261   2.566 -0.2359 -0.4649 -0.8010
 2085TIP3    H127814   2.153   5.206   2.528 -0.5418 -0.5720 -0.1158
 2085TIP3    H227815   2.176   5.342   2.592 -0.2871 -0.8514  0.3895
 2086TIP3   OH227816   2.190   2.669   6.828 -1.0014  0.5754 -0.3210
 2086TIP3    H127817   2.194   2.720   6.909 -1.6424  1.0315 -0.5727
 2086TIP3    H227818   2.269   2.695   6.780 -0.4560  0.0745  0.2749
 2087TIP3   OH227819   4.762   2.972   0.421  0.4338 -0.2237  0.0856
 2087TIP3    H127820   4.854   2.974   0.393  0.4449 -3.8382 -0.5492
 2087TIP3    H227821   4.715   2.933   0.347 -1.1624 -0.9220  1.4185
 2088TIP3   OH227822   2.017   3.281   6.456 -0.1001 -0.1049  0.3598
 2088TIP3    H127823   2.057   3.213   6.402 -0.4853  0.2015 -0.3249
 2088TIP3    H227824   1.925   3.255   6.462  0.1196 -0.6289  1.6435
 2089TIP3   OH227825   0.501   1.415   6.763  0.0447  0.5772  0.7093
 2089TIP3    H127826   0.455   1.494   6.794 -1.7187 -0.4301  0.7909
 2089TIP3    H227827   0.484   1.349   6.830 -1.2729 -0.7692 -0.8382
 2090TIP3   OH227828   6.107   6.345   2.370  0.2017 -0.1064  0.4209
 2090TIP3    H127829   6.189   6.324   2.326  1.5064  0.1994  2.5628
 2090TIP3    H227830   6.122   6.430   2.411 -1.0279 -0.2434  1.2372
 2091TIP3   OH227831   4.370   0.670   7.727  0.2850  0.4125 -0.1181
 2091TIP3    H127832   4.299   0.607   7.715 -1.5116  1.8405  2.2453
 2091TIP3    H227833   4.449   0.615   7.735 -0.5561 -1.2375 -2.1369
 2092TIP3   OH227834   5.304   0.208   1.042  0.1913 -0.3782  0.4233
 2092TIP3    H127835   5.235   0.213   1.108 -1.2814 -1.5336 -0.9400
 2092TIP3    H227836   5.352   0.127   1.063 -0.5008 -0.9360 -0.1015
 2093TIP3   OH227837   1.659   5.960   6.302 -0.4114  0.4563  0.3683
 2093TIP3    H127838   1.600   5.929   6.234 -1.8205  1.9856  0.8133
 2093TIP3    H227839   1.744   5.966   6.259 -1.3091  1.6393 -1.3771
 2094TIP3   OH227840   4.348   2.615   1.409 -0.1815 -0.1041 -0.3750
 2094TIP3    H127841   4.329   2.610   1.502 -0.5629 -1.1513 -0.4947
 2094TIP3    H227842   4.419   2.679   1.402 -0.7524  0.6517  0.5238
 2095TIP3   OH227843   0.763   0.676   0.579  0.4129  0.3405 -0.3952
 2095TIP3    H127844   0.695   0.687   0.646 -1.4137 -0.0553 -2.0742
 2095TIP3    H227845   0.838   0.640   0.626 -0.4954  0.8877  1.5690
 2096TIP3   OH227846   5.851   0.601   1.623  0.6825  0.0892  0.3064
 2096TIP3    H127847   5.883   0.629   1.709 -0.0838  1.7491  0.1021
 2096TIP3    H227848   5.767   0.646   1.613  0.5696 -0.3901 -1.1433
 2097TIP3   OH227849   1.390   5.581   8.101  0.2881  0.5328  0.4992
 2097TIP3    H127850   1.457   5.514   8.088 -0.4402 -0.3895  1.3220
 2097TIP3    H227851   1.307   5.535   8.089 -0.2236  1.3925  0.6404
 2098TIP3   OH227852   4.387   0.797   1.234  0.2925  0.3805  0.2258
 2098TIP3    H127853   4.422   0.794   1.145 -0.0067  0.3616  0.1072
 2098TIP3    H227854   4.372   0.706   1.257 -0.3317  0.4212  0.0108
 2099TIP3   OH227855   3.830   5.054   0.166  0.2562 -0.1804  0.2258
 2099TIP3    H127856   3.862   5.083   0.252  1.2750  0.4984 -0.3552
 2099TIP3    H227857   3.905   5.009   0.127 -0.3074 -0.7789 -0.1709
 2100TIP3   OH227858   1.946   0.492   7.266  0.1264 -0.1982  0.2916
 2100TIP3    H127859   1.873   0.431   7.282 -0.0742  0.2580  1.2303
 2100TIP3    H227860   1.911   0.554   7.202  0.2407 -0.9018 -0.4660
 2101TIP3   OH227861   4.784   4.594   7.971 -0.4065 -0.3342  0.5935
 2101TIP3    H127862   4.817   4.655   7.905  0.3533 -0.9800  0.3633
 2101TIP3    H227863   4.771   4.512   7.924 -0.1170 -0.7276  1.1886
 2102TIP3   OH227864   5.136   4.082   7.421 -0.3117  0.0973 -0.2418
 2102TIP3    H127865   5.043   4.104   7.414 -0.1021  1.1812  0.1924
 2102TIP3    H227866   5.181   4.153   7.376  0.2545 -1.4997 -2.3759
 2103TIP3   OH227867   0.334   3.979   7.391  0.2293 -0.4373  0.1744
 2103TIP3    H127868   0.311   3.993   7.483  0.6277 -0.4180  0.2725
 2103TIP3    H227869   0.254   3.944   7.352 -0.1382  0.1456  0.3873
 2104TIP3   OH227870   4.150   5.792   8.748 -0.3652 -0.4928  0.1988
 2104TIP3    H127871   4.225   5.842   8.779 -0.4642 -0.9321  1.1603
 2104TIP3    H227872   4.176   5.762   8.660 -0.5037  1.6258 -0.6161
 2105TIP3   OH227873   0.200   6.537   0.822  0.0386 -0.3336 -0.1845
 2105TIP3    H127874   0.115   6.568   0.789 -0.5831 -0.9648  0.7618
 2105TIP3    H227875   0.264   6.573   0.761 -0.8071  1.1976 -0.2268
 2106TIP3   OH227876   5.974   1.974   6.789  0.2041  0.5445 -0.3299
 2106TIP3    H127877   6.064   1.963   6.758 -0.2738 -2.0304 -1.0222
 2106TIP3    H227878   5.949   2.061   6.758  1.9749  0.7373 -1.3623
 2107TIP3   OH227879   1.517   3.556   7.320  0.3456  0.4906  0.2954
 2107TIP3    H127880   1.515   3.584   7.411 -0.1012  0.7740  0.2024
 2107TIP3    H227881   1.425   3.544   7.296  0.4369  0.7279 -0.2072
 2108TIP3   OH227882   1.712   5.626   6.445 -0.2114  0.3283  0.2009
 2108TIP3    H127883   1.618   5.641   6.445 -0.2628  0.0807 -0.8895
 2108TIP3    H227884   1.724   5.547   6.393  0.6132  0.4823  0.1446
 2109TIP3   OH227885   5.563   0.571   7.507 -0.6294  0.1502  0.1793
 2109TIP3    H127886   5.578   0.485   7.466  0.7631 -0.1454  1.2115
 2109TIP3    H227887   5.625   0.629   7.462 -2.5961  1.0181 -1.5559
 2110TIP3   OH227888   0.250   1.658   2.368 -0.8164 -0.4000  0.5221
 2110TIP3    H127889   0.205   1.741   2.383  0.5032  0.1788  1.5518
 2110TIP3    H227890   0.183   1.591   2.381 -1.5983  0.4585  1.0320
 2111TIP3   OH227891   4.544   4.782   2.310 -0.3296  0.3887 -0.7156
 2111TIP3    H127892   4.476   4.718   2.331  0.8311 -0.5982  0.1801
 2111TIP3    H227893   4.574   4.756   2.222 -0.1730 -0.0301 -0.5421
 2112TIP3   OH227894   1.020   2.057   1.530 -0.8836 -0.1768  0.1468
 2112TIP3    H127895   1.057   2.145   1.532 -1.2868  0.0050 -0.1162
 2112TIP3    H227896   1.095   1.999   1.516 -0.5949  0.1107  0.5059
 2113TIP3   OH227897   4.936   3.307   1.251 -0.1357 -0.8152  0.3280
 2113TIP3    H127898   5.017   3.347   1.219 -1.0760  0.9782  0.0576
 2113TIP3    H227899   4.959   3.275   1.338  0.7563  0.1565  0.4817
 2114TIP3   OH227900   6.607   0.009   0.943  0.3147  0.3700 -0.0313
 2114TIP3    H127901   6.682   0.014   0.885  0.1576  3.0180 -0.1380
 2114TIP3    H227902   6.617   0.084   1.001 -1.6360  0.1114  0.7169
 2115TIP3   OH227903   1.495   4.079   7.937  0.0885 -0.0296 -0.0452
 2115TIP3    H127904   1.534   4.073   7.850  4.3433  1.0422  1.5104
 2115TIP3    H227905   1.486   3.988   7.966  0.5769 -0.3425 -0.8396
 2116TIP3   OH227906   5.817   0.665   1.269 -0.0125 -0.1078 -0.2214
 2116TIP3    H127907   5.793   0.579   1.235 -3.6294 -0.0019  1.6021
 2116TIP3    H227908   5.812   0.723   1.192  0.3088 -1.1706 -1.0606
 2117TIP3   OH227909   5.149   2.719   0.523  0.3710 -0.1497  0.1833
 2117TIP3    H127910   5.095   2.743   0.598 -0.3506  2.0789 -0.9593
 2117TIP3    H227911   5.101   2.648   0.481  0.9959 -1.7320  1.9715
 2118TIP3   OH227912   3.804   3.291   0.762  0.0253  0.2361  0.0314
 2118TIP3    H127913   3.737   3.226   0.745  0.8654 -0.6024 -0.1228
 2118TIP3    H227914   3.853   3.298   0.680  1.5040 -0.7961  0.7842
 2119TIP3   OH227915   2.346   5.393   8.085 -0.0273 -0.2197  0.4862
 2119TIP3    H127916   2.384   5.305   8.078  1.8773  0.6502 -2.3604
 2119TIP3    H227917   2.272   5.392   8.024 -0.2518  0.0549  0.7512
 2120TIP3   OH227918   5.872   6.023   0.573  0.2834 -0.1168 -0.1507
 2120TIP3    H127919   5.822   6.062   0.644  1.4390  0.6966  0.2482
 2120TIP3    H227920   5.810   6.016   0.501 -0.8795 -0.8758  0.8992
 2121TIP3   OH227921   3.078   4.211   8.840 -0.9551  0.1053  0.4329
 2121TIP3    H127922   3.094   4.243   8.928 -2.5263 -0.4275  0.9524
 2121TIP3    H227923   3.158   4.232   8.791  0.8615 -1.5649  2.5022
 2122TIP3   OH227924   1.592   6.352   7.162 -0.1258  0.6640  0.4836
 2122TIP3    H127925   1.659   6.294   7.126  0.1487  0.6147  1.0688
 2122TIP3    H227926   1.613   6.359   7.255 -1.3082  0.1132  0.8177
 2123TIP3   OH227927   1.205   4.510   7.452  0.7686 -0.5939 -0.2153
 2123TIP3    H127928   1.265   4.455   7.401  0.0015 -1.8837  0.2437
 2123TIP3    H227929   1.245   4.514   7.539  0.8611 -0.3489 -0.2674
 2124TIP3   OH227930   1.301   1.514   8.399 -0.3166 -0.2989 -0.9122
 2124TIP3    H127931   1.299   1.583   8.333  0.5242 -1.4884 -2.2445
 2124TIP3    H227932   1.393   1.509   8.427 -0.2408 -1.2861 -1.2990
 2125TIP3   OH227933   4.765   6.695   7.127  0.0993 -0.9024 -0.2299
 2125TIP3    H127934   4.799   6.671   7.041  0.8138 -3.8793  0.7622
 2125TIP3    H227935   4.670   6.688   7.119  0.1375 -0.8010 -0.8350
 2126TIP3   OH227936   4.922   3.815   0.054  0.5327  0.1160  0.1717
 2126TIP3    H127937   4.942   3.902   0.018  2.0301 -1.0821 -2.1252
 2126TIP3    H227938   4.944   3.823   0.147  2.8403  1.6210 -0.3978
 2127TIP3   OH227939   5.965   2.401   0.512 -0.1364 -0.4208  0.4459
 2127TIP3    H127940   5.960   2.389   0.607 -0.4527 -3.1640  0.1595
 2127TIP3    H227941   6.049   2.364   0.488 -0.8728 -1.5374 -0.5191
 2128TIP3   OH227942   6.592   5.597   7.983 -0.0655 -0.4503  0.2510
 2128TIP3    H127943   6.660   5.610   8.049 -2.1510 -0.2094  2.5094
 2128TIP3    H227944   6.602   5.506   7.956  1.5454 -0.2334  0.0332
 2129TIP3   OH227945   1.811   5.431   1.402  0.2063  0.6316 -0.4693
 2129TIP3    H127946   1.750   5.453   1.332  1.2433 -0.8090 -1.9056
 2129TIP3    H227947   1.782   5.345   1.433  1.5907 -0.1890 -1.3380
 2130TIP3   OH227948   1.566   2.103   7.889  0.4126  0.5125 -0.6838
 2130TIP3    H127949   1.579   2.117   7.983  0.4565 -0.2808 -0.5620
 2130TIP3    H227950   1.538   2.188   7.855  1.1643  1.0020 -0.0924
 2131TIP3   OH227951   6.372   1.277   0.333  0.6042  0.4327  0.0049
 2131TIP3    H127952   6.362   1.224   0.253  2.5006 -1.7699  1.0824
 2131TIP3    H227953   6.337   1.363   0.310 -1.3277 -0.8544 -2.3468
 2132TIP3   OH227954   3.202   4.029   8.230  0.1411  0.1326  0.4366
 2132TIP3    H127955   3.241   3.950   8.268 -3.1364 -1.5546  0.6333
 2132TIP3    H227956   3.179   4.003   8.141 -0.9726  0.8324  0.5010
 2133TIP3   OH227957   0.936   5.726   7.121  0.1266 -0.2257 -0.0265
 2133TIP3    H127958   0.855   5.777   7.131  0.9542  0.9457  1.0567
 2133TIP3    H227959   0.993   5.757   7.191  2.3420  0.5804 -2.0111
 2134TIP3   OH227960   0.320   3.209   0.361 -0.2976 -0.5413  0.3547
 2134TIP3    H127961   0.239   3.226   0.408 -0.9229  0.2955 -0.9631
 2134TIP3    H227962   0.295   3.148   0.291 -0.5840  2.1034 -2.0482
 2135TIP3   OH227963   0.090   4.566   6.761  0.3847  0.1125  0.3052
 2135TIP3    H127964   0.155   4.504   6.728  1.3789  0.8902  0.7334
 2135TIP3    H227965   0.045   4.599   6.683 -0.4297 -1.4102  0.1027
 2136TIP3   OH227966   5.491   1.437   8.814  0.5055 -0.3054  0.2455
 2136TIP3    H127967   5.413   1.493   8.808  0.6808  0.3545  2.9452
 2136TIP3    H227968   5.465   1.355   8.772 -2.0266 -0.4654  1.9236
 2137TIP3   OH227969   4.501   5.680   7.774 -0.9633 -0.6114 -0.1198
 2137TIP3    H127970   4.592   5.661   7.795 -1.4064 -1.6453  1.0022
 2137TIP3    H227971   4.505   5.744   7.703  0.6367 -1.2099 -0.6065
 2138TIP3   OH227972   4.419   3.333   7.712  0.5778  0.6931 -0.6024
 2138TIP3    H127973   4.435   3.239   7.697  3.2075  1.1994 -1.5722
 2138TIP3    H227974   4.393   3.338   7.803  3.4412 -0.7975  0.4432
 2139TIP3   OH227975   6.768   3.286   7.225 -0.0229 -0.2327 -0.2134
 2139TIP3    H127976   6.706   3.214   7.215 -0.3497 -0.5179  2.8684
 2139TIP3    H227977   6.728   3.358   7.176 -1.7028 -1.0402 -0.1335
 2140TIP3   OH227978   5.211   1.889   7.581  0.0982 -0.0944  0.2957
 2140TIP3    H127979   5.230   1.964   7.638  1.9826 -0.4155  0.1563
 2140TIP3    H227980   5.188   1.929   7.497 -0.3509  0.3430  0.6183
 2141TIP3   OH227981   3.892   5.189   1.994 -0.2753 -0.0855  0.0931
 2141TIP3    H127982   3.902   5.173   2.088 -0.7561 -0.3232  0.1057
 2141TIP3    H227983   3.942   5.119   1.952  1.3796  0.9914  0.1649
 2142TIP3   OH227984   5.875   2.424   1.022  0.0440 -0.0739 -0.0856
 2142TIP3    H127985   5.875   2.340   1.068 -1.5731  0.0828  0.2403
 2142TIP3    H227986   5.903   2.487   1.089 -4.9486  0.6181  1.7942
 2143TIP3   OH227987   1.275   2.963   7.451  0.0481 -0.1424  0.3926
 2143TIP3    H127988   1.302   2.892   7.509  0.9689 -1.1556 -1.2055
 2143TIP3    H227989   1.353   3.015   7.437 -0.0887 -0.0699 -0.1425
 2144TIP3   OH227990   0.124   4.473   1.422  0.0281 -0.1707 -0.2777
 2144TIP3    H127991   0.158   4.441   1.506 -0.8012  1.1870  0.6153
 2144TIP3    H227992   0.106   4.394   1.372 -0.3072 -1.0469  1.1735
 2145TIP3   OH227993   6.242   0.674   7.454  0.1650  0.6843  0.1503
 2145TIP3    H127994   6.283   0.693   7.370  0.9105 -0.2714  0.2798
 2145TIP3    H227995   6.305   0.705   7.519 -0.5554  1.7329  0.3873
 2146TIP3   OH227996   2.732   3.343   6.771  0.1475  0.6401  0.3029
 2146TIP3    H127997   2.761   3.406   6.705 -0.4754 -0.1754 -0.7664
 2146TIP3    H227998   2.709   3.264   6.722  1.3680 -0.6204  1.6466
 2147TIP3   OH227999   5.701   1.028   7.258 -0.1661  0.3757 -0.2510
 2147TIP3    H128000   5.787   1.066   7.273 -0.0776 -0.0253  0.2843
 2147TIP3    H228001   5.719   0.947   7.209 -0.3204  0.7890 -1.0109
 2148TIP3   OH228002   3.332   3.938   6.460 -0.7334  0.5666  0.1516
 2148TIP3    H128003   3.258   3.879   6.474  0.7210 -1.4510 -0.3444
 2148TIP3    H228004   3.367   3.913   6.375 -0.1079  2.2459 -0.1197
 2149TIP3   OH228005   3.709   5.147   7.831  0.3778 -0.4108 -0.0030
 2149TIP3    H128006   3.716   5.103   7.745  1.8145  0.3850 -0.3313
 2149TIP3    H228007   3.800   5.162   7.857  0.0020 -1.5421  2.1655
 2150TIP3   OH228008   1.037   1.027   0.336  0.1577 -0.4904  0.0030
 2150TIP3    H128009   1.064   0.942   0.369 -1.8706 -0.6449  1.4846
 2150TIP3    H228010   1.026   1.014   0.242  1.1250 -1.4906  0.0101
 2151TIP3   OH228011   5.050   3.191   8.102  0.2203 -0.0180  0.4506
 2151TIP3    H128012   5.051   3.277   8.143 -1.6561  1.1921 -1.8234
 2151TIP3    H228013   4.957   3.167   8.099  0.6412 -1.7727  0.2762
 2152TIP3   OH228014   3.203   1.232   1.587  0.4142 -0.1829 -0.4316
 2152TIP3    H128015   3.217   1.138   1.603 -0.2079 -0.0490  1.0843
 2152TIP3    H228016   3.152   1.235   1.506  1.2180 -1.0979 -0.9967
 2153TIP3   OH228017   3.862   5.863   8.467 -0.3949 -0.1926  0.2300
 2153TIP3    H128018   3.865   5.951   8.504 -0.1179 -0.9787  2.1671
 2153TIP3    H228019   3.820   5.875   8.381  0.6992  1.9752 -0.0808
 2154TIP3   OH228020   5.453   4.152   0.051  0.0501 -0.5769 -0.2913
 2154TIP3    H128021   5.456   4.159   0.147  0.4017 -0.7914 -0.2860
 2154TIP3    H228022   5.382   4.090   0.034  1.4131 -2.2776 -0.0744
 2155TIP3   OH228023   4.197   0.886   8.289  0.5097 -0.7669 -0.3164
 2155TIP3    H128024   4.104   0.912   8.294  1.0838  1.5769 -0.3417
 2155TIP3    H228025   4.220   0.898   8.197  0.4430 -3.0968 -0.6864
 2156TIP3   OH228026   2.524   1.086   0.341  0.4176  0.2721 -0.4733
 2156TIP3    H128027   2.443   1.128   0.368  1.0513  1.3678 -0.2307
 2156TIP3    H228028   2.593   1.135   0.385  1.2475 -0.3817 -0.9966
 2157TIP3   OH228029   5.178   5.246   2.292  0.3788 -0.2807 -0.2377
 2157TIP3    H128030   5.205   5.336   2.312 -1.5074 -0.1482  2.1300
 2157TIP3    H228031   5.096   5.256   2.245 -0.0611 -0.7358  0.4138
 2158TIP3   OH228032   3.155   2.880   6.997 -0.1731 -0.8214 -1.1016
 2158TIP3    H128033   3.233   2.850   6.951 -0.0442 -0.6381 -1.0054
 2158TIP3    H228034   3.139   2.968   6.963  0.5919 -0.2215  0.0093
 2159TIP3   OH228035   5.274   0.199   7.646  0.2567 -0.0728  0.0957
 2159TIP3    H128036   5.259   0.191   7.552 -2.7078  1.7152  0.2924
 2159TIP3    H228037   5.188   0.223   7.682  1.7908  1.6195  2.9541
 2160TIP3   OH228038   6.012   0.486   0.521 -0.4067  0.4614  0.5167
 2160TIP3    H128039   6.055   0.545   0.459 -0.0151 -0.1926  0.1566
 2160TIP3    H228040   5.927   0.467   0.480 -0.8960  1.4326  1.0376
 2161TIP3   OH228041   3.284   3.817   8.385  0.1564 -0.4555  0.3074
 2161TIP3    H128042   3.376   3.832   8.404  0.0642  1.0703 -0.3064
 2161TIP3    H228043   3.238   3.840   8.466  0.2497 -0.3143  0.3204
 2162TIP3   OH228044   5.308   5.585   0.718 -0.4044  0.4888  0.3171
 2162TIP3    H128045   5.310   5.631   0.635  0.9695 -1.0000 -0.5236
 2162TIP3    H228046   5.375   5.627   0.771  0.5426 -0.2248 -0.2912
 2163TIP3   OH228047   0.983   6.381   7.285  0.2080  0.0625  0.4683
 2163TIP3    H128048   1.020   6.307   7.334 -0.1261 -0.2741  0.2116
 2163TIP3    H228049   0.984   6.454   7.348 -3.1840 -1.1093  2.1157
 2164TIP3   OH228050   3.943   4.932   8.368 -0.5568  0.2229  0.3712
 2164TIP3    H128051   4.024   4.881   8.357 -0.6594 -0.3431  2.0091
 2164TIP3    H228052   3.878   4.884   8.316  0.3897  1.4050 -2.0544
 2165TIP3   OH228053   1.416   6.033   1.351 -0.3020 -0.7051 -0.4025
 2165TIP3    H128054   1.416   6.125   1.376  2.1745 -1.3614  2.5925
 2165TIP3    H228055   1.336   5.998   1.390  0.1907 -0.3505  0.9781
 2166TIP3   OH228056   0.240   6.373   6.901  0.0904  0.4794 -0.2023
 2166TIP3    H128057   0.225   6.334   6.987 -2.1333  1.0345 -0.2809
 2166TIP3    H228058   0.285   6.304   6.852  0.7515 -0.1148  1.1639
 2167TIP3   OH228059   6.486   5.127   0.156 -0.4011  0.4952  0.3404
 2167TIP3    H128060   6.504   5.064   0.225  0.5489 -1.0211 -1.2143
 2167TIP3    H228061   6.453   5.205   0.202 -0.5971 -0.7378  2.3900
 2168TIP3   OH228062   3.983   0.409   2.031  0.3093 -0.0624 -0.8609
 2168TIP3    H128063   3.914   0.461   2.072 -0.1311  0.0914 -1.7636
 2168TIP3    H228064   4.049   0.473   2.004  1.0191 -0.2501  0.3737
 2169TIP3   OH228065   0.535   6.129   7.180  0.3956 -0.2419  0.1009
 2169TIP3    H128066   0.486   6.106   7.259  0.9008 -1.0911  0.1702
 2169TIP3    H228067   0.613   6.174   7.212 -0.0206  0.5772  0.0132
 2170TIP3   OH228068   3.003   1.367   8.616 -0.0690 -0.0868 -0.2436
 2170TIP3    H128069   2.944   1.328   8.552  0.8306 -0.8723 -0.6160
 2170TIP3    H228070   3.079   1.394   8.565 -0.3931  1.6056  0.1113
 2171TIP3   OH228071   4.091   4.215   0.209  0.2565 -0.2889  0.4241
 2171TIP3    H128072   4.098   4.289   0.149  2.1087 -0.0991  0.8090
 2171TIP3    H228073   4.027   4.244   0.275 -1.2218 -0.2074 -0.9773
 2172TIP3   OH228074   4.797   0.762   8.388  0.2020 -0.0276 -0.1391
 2172TIP3    H128075   4.702   0.759   8.377  0.0022  0.5331  1.2824
 2172TIP3    H228076   4.827   0.676   8.359 -0.9392 -0.9027  1.1780
 2173TIP3   OH228077   3.680   5.661   8.291 -0.3718 -0.3759 -0.2600
 2173TIP3    H128078   3.729   5.590   8.332 -0.3463 -0.1811  0.0574
 2173TIP3    H228079   3.645   5.624   8.211  0.0690 -0.5974 -0.3520
 2174TIP3   OH228080   1.232   4.354   8.517 -0.0156 -0.2202 -0.4863
 2174TIP3    H128081   1.238   4.419   8.587 -1.2244 -1.1622  0.5541
 2174TIP3    H228082   1.298   4.381   8.453  1.5215  0.3878  1.2555
 2175TIP3   OH228083   2.045   6.012   1.520 -0.0168  0.3696  0.1415
 2175TIP3    H128084   1.982   6.006   1.592 -0.6999  2.1092 -0.2564
 2175TIP3    H228085   2.040   6.103   1.491 -1.0721 -0.6280 -3.2688
 2176TIP3   OH228086   2.224   4.034   0.390  0.3163  0.3037  0.6266
 2176TIP3    H128087   2.150   4.089   0.364 -0.0551 -0.9474 -1.2135
 2176TIP3    H228088   2.231   3.970   0.319  1.5632 -1.1846  2.0279
 2177TIP3   OH228089   2.463   6.429   7.600  0.0311 -0.4226  0.1265
 2177TIP3    H128090   2.479   6.389   7.685  1.4486  1.1546  0.6421
 2177TIP3    H228091   2.549   6.458   7.570 -0.1242 -2.4773 -2.7004
 2178TIP3   OH228092   4.336   4.970   2.186 -0.1566 -0.1184  0.5637
 2178TIP3    H128093   4.406   4.937   2.129  1.2800  1.6211  1.2201
 2178TIP3    H228094   4.323   4.900   2.250  2.4948  0.2687  1.6784
 2179TIP3   OH228095   3.069   5.438   0.542  0.1919 -0.1400  0.1978
 2179TIP3    H128096   3.037   5.460   0.629 -0.7501 -0.4495 -0.0591
 2179TIP3    H228097   3.088   5.344   0.546 -0.2449 -0.2444 -0.0326
 2180TIP3   OH228098   0.712   1.870   8.597  0.0185 -0.2116 -0.2106
 2180TIP3    H128099   0.795   1.823   8.596 -0.2551 -0.7233  0.4943
 2180TIP3    H228100   0.696   1.892   8.506  2.1627  2.1130 -0.1468
 2181TIP3   OH228101   0.843   0.814   1.013 -0.2700 -0.3809 -0.0761
 2181TIP3    H128102   0.833   0.804   0.918  1.1635 -0.8787 -0.1992
 2181TIP3    H228103   0.805   0.899   1.032 -2.0017 -0.9285 -0.8451
 2182TIP3   OH228104   1.375   5.115   0.188 -0.7842 -0.0777  0.0974
 2182TIP3    H128105   1.303   5.156   0.140 -0.8329 -1.3147 -0.9103
 2182TIP3    H228106   1.334   5.045   0.239 -0.6790  0.9616  1.6973
 2183TIP3   OH228107   0.746   4.141   0.274 -0.1059 -0.3395  0.5222
 2183TIP3    H128108   0.687   4.213   0.296 -0.5350 -0.8071  0.9210
 2183TIP3    H228109   0.814   4.182   0.221 -0.2450  0.3979  0.8938
 2184TIP3   OH228110   0.362   6.793   1.071 -0.2863  0.1434 -0.1991
 2184TIP3    H128111   0.389   6.871   1.119  0.7648  0.7371 -1.6366
 2184TIP3    H228112   0.445   6.751   1.046 -0.8327 -1.2393  0.2297
 2185TIP3   OH228113   6.278   4.740   2.406  0.0991 -0.5746 -0.3368
 2185TIP3    H128114   6.291   4.823   2.360 -0.6499 -0.7005 -0.7878
 2185TIP3    H228115   6.284   4.673   2.338 -0.2897 -0.8178 -0.1378
 2186TIP3   OH228116   0.049   3.610   1.323 -0.8020 -0.1389  0.0098
 2186TIP3    H128117   0.137   3.592   1.292 -0.1390  0.6933  1.3135
 2186TIP3    H228118   0.050   3.582   1.415 -2.2155 -1.0814 -0.2301
 2187TIP3   OH228119   6.658   0.981   8.772 -0.4717 -0.4547 -0.3508
 2187TIP3    H128120   6.701   1.042   8.712 -1.0344 -0.1081 -0.4157
 2187TIP3    H228121   6.707   0.988   8.854 -0.4544 -0.0093 -0.3978
 2188TIP3   OH228122   4.202   3.446   0.251 -0.0364 -0.2397  0.0667
 2188TIP3    H128123   4.140   3.515   0.277  0.2270  0.9192 -2.0912
 2188TIP3    H228124   4.254   3.430   0.329 -0.3503  1.7959  0.7646
 2189TIP3   OH228125   0.380   3.953   7.852  0.7804 -0.2383  0.3277
 2189TIP3    H128126   0.318   3.900   7.902 -1.3486  1.9054  0.1500
 2189TIP3    H228127   0.463   3.945   7.899 -0.0218 -1.9192  1.5206
 2190TIP3   OH228128   2.633   6.294   6.449  0.0731 -0.3131  0.5551
 2190TIP3    H128129   2.656   6.380   6.413  0.0450 -0.2807  0.6150
 2190TIP3    H228130   2.576   6.314   6.523 -1.2709 -0.4554 -0.4258
 2191TIP3   OH228131   0.813   0.080   2.439 -0.5878  0.9217  0.0663
 2191TIP3    H128132   0.736   0.135   2.429 -1.9800 -0.8830  0.2186
 2191TIP3    H228133   0.824   0.070   2.534 -0.2999  0.9882  0.0422
 2192TIP3   OH228134   1.116   5.556   0.275  0.2915 -0.0455  0.4131
 2192TIP3    H128135   1.076   5.516   0.198 -0.8941  1.7866  0.0052
 2192TIP3    H228136   1.187   5.497   0.299 -1.0306 -2.0862 -0.4295
 2193TIP3   OH228137   4.456   1.440   0.648  0.4975 -0.4882  0.4341
 2193TIP3    H128138   4.544   1.445   0.684  1.5765  0.0850 -2.0730
 2193TIP3    H228139   4.417   1.526   0.666  0.7581 -0.4424  0.7796
 2194TIP3   OH228140   5.850   3.074   2.598  0.2693 -0.1426  0.1726
 2194TIP3    H128141   5.861   3.002   2.536  0.9298 -0.1406  0.2776
 2194TIP3    H228142   5.818   3.032   2.678  3.0398 -0.7346  1.0728
 2195TIP3   OH228143   4.533   2.154   0.575  0.1507 -0.4743  0.0050
 2195TIP3    H128144   4.549   2.241   0.613 -1.2016  0.6524 -1.8148
 2195TIP3    H228145   4.601   2.099   0.612  0.1431  0.9882  2.4160
 2196TIP3   OH228146   3.623   6.711   1.772 -0.1617 -0.5729 -0.2189
 2196TIP3    H128147   3.678   6.642   1.809  0.4592  0.8617  1.7124
 2196TIP3    H228148   3.657   6.792   1.811 -1.5189  0.7308 -1.5958
 2197TIP3   OH228149   2.914   6.714   2.179 -0.4115 -0.5175  0.0595
 2197TIP3    H128150   2.960   6.702   2.262  0.2270 -0.9124 -0.3352
 2197TIP3    H228151   2.870   6.631   2.164 -2.2909  0.2608  1.0255
 2198TIP3   OH228152   0.326   6.345   7.996 -0.0924  0.4617  0.2817
 2198TIP3    H128153   0.325   6.254   8.025  1.0151  0.4839  0.4143
 2198TIP3    H228154   0.266   6.347   7.921  2.6564 -1.2203 -2.1845
 2199TIP3   OH228155   1.285   4.634   1.224 -0.0277 -0.0864 -0.6002
 2199TIP3    H128156   1.300   4.546   1.188  0.7497 -0.1000 -0.2647
 2199TIP3    H228157   1.232   4.619   1.302 -0.7568 -0.1569 -1.0940
 2200TIP3   OH228158   3.872   6.102   0.305  0.3159  0.0969 -0.0886
 2200TIP3    H128159   3.873   6.190   0.268 -0.7974  0.0991 -0.1326
 2200TIP3    H228160   3.962   6.070   0.293  0.7106  1.1920 -0.1245
 2201TIP3   OH228161   5.511   2.899   0.486 -0.0562 -0.5208 -0.4878
 2201TIP3    H128162   5.600   2.891   0.523 -0.0857 -2.0292 -0.6905
 2201TIP3    H228163   5.517   2.973   0.426 -0.2452  2.7837  3.1183
 2202TIP3   OH228164   5.604   4.834   1.454 -0.2683  0.7762  0.0916
 2202TIP3    H128165   5.695   4.832   1.425 -0.6788 -1.8988 -1.3178
 2202TIP3    H228166   5.606   4.794   1.542 -0.1825 -0.4085 -0.4287
 2203TIP3   OH228167   5.828   2.185   7.411 -1.1320  0.1513 -0.1457
 2203TIP3    H128168   5.870   2.150   7.490 -1.8971 -0.3630  0.0446
 2203TIP3    H228169   5.881   2.151   7.339  0.0965  1.3351  0.1522
 2204TIP3   OH228170   4.778   1.040   8.357  0.6591  0.1676  0.2493
 2204TIP3    H128171   4.817   1.085   8.432  1.4894 -1.6375  0.9450
 2204TIP3    H228172   4.809   0.950   8.364 -1.7432 -0.8042 -0.4953
 2205TIP3   OH228173   6.440   3.875   0.836  0.7794  0.0724  0.1442
 2205TIP3    H128174   6.532   3.876   0.863  0.2597 -0.0378  2.0689
 2205TIP3    H228175   6.419   3.967   0.821  0.4833  0.4630  2.5361
 2206TIP3   OH228176   1.094   4.860   1.782  0.1169 -0.3363  0.0149
 2206TIP3    H128177   1.097   4.950   1.813 -1.2837 -0.1068 -0.4813
 2206TIP3    H228178   1.179   4.823   1.809  0.5710  1.0118  0.5148
 2207TIP3   OH228179   1.024   0.240   8.279 -0.6293  0.4118 -0.4679
 2207TIP3    H128180   1.113   0.218   8.250 -0.1184  0.2712  1.1003
 2207TIP3    H228181   0.969   0.217   8.205  0.5958  0.0504 -1.3050
 2208TIP3   OH228182   2.092   6.160   8.851 -0.6390  0.3262  0.0672
 2208TIP3    H128183   2.123   6.074   8.879  1.4244  0.6711 -0.9094
 2208TIP3    H228184   1.999   6.160   8.869 -0.5880 -1.9265  0.5648
 2209TIP3   OH228185   4.767   6.723   8.577 -0.2112 -0.2627  0.2708
 2209TIP3    H128186   4.756   6.663   8.651 -0.5944  0.0861  0.5015
 2209TIP3    H228187   4.704   6.692   8.512  0.3973 -0.8039 -0.0657
 2210TIP3   OH228188   4.753   1.202   8.005 -0.1900 -0.0952  0.2767
 2210TIP3    H128189   4.716   1.183   7.919  0.7946 -1.1121  0.0542
 2210TIP3    H228190   4.750   1.297   8.013  0.8654  0.1042 -1.4192
 2211TIP3   OH228191   5.214   4.312   8.073  0.2631 -0.2545 -0.3831
 2211TIP3    H128192   5.307   4.296   8.091  0.1784 -0.5003 -0.1745
 2211TIP3    H228193   5.178   4.225   8.055 -0.4153 -0.4422  1.7268
 2212TIP3   OH228194   0.109   0.825   8.588 -0.0483 -0.0893 -0.3681
 2212TIP3    H128195   0.129   0.775   8.667 -0.2447  0.5716  0.1138
 2212TIP3    H228196   0.194   0.850   8.553  0.0331  0.4402  0.1840
 2213TIP3   OH228197   5.284   4.427   0.358 -0.7585  0.2659 -0.2241
 2213TIP3    H128198   5.223   4.389   0.294 -1.7615  0.4801  0.5768
 2213TIP3    H228199   5.318   4.351   0.406  0.1366  0.0882 -1.1101
 2214TIP3   OH228200   5.843   6.726   1.859 -0.6882 -0.5878  0.5637
 2214TIP3    H128201   5.841   6.651   1.918 -1.6021 -0.2478  0.9775
 2214TIP3    H228202   5.765   6.716   1.805  0.3154 -1.1028 -0.8825
 2215TIP3   OH228203   4.889   1.755   1.153 -0.3595  0.4402  0.1194
 2215TIP3    H128204   4.924   1.741   1.065  0.1600  3.0579 -0.1728
 2215TIP3    H228205   4.917   1.677   1.202  0.1606 -0.6338 -1.7600
 2216TIP3   OH228206   0.579   3.151   6.568  1.0870  0.6174 -0.1903
 2216TIP3    H128207   0.574   3.174   6.475 -1.0554 -1.2259 -0.6406
 2216TIP3    H228208   0.516   3.210   6.610  1.5603  0.9936  0.0000
 2217TIP3   OH228209   2.252   2.660   1.274 -0.1349  0.0194  0.3075
 2217TIP3    H128210   2.323   2.658   1.338 -0.7986 -0.2160  1.0497
 2217TIP3    H228211   2.190   2.595   1.304 -0.9797  0.6789  0.0381
 2218TIP3   OH228212   3.532   1.812   6.474 -0.0904 -0.8080 -0.6139
 2218TIP3    H128213   3.605   1.821   6.535  0.0124  2.9856 -1.0597
 2218TIP3    H228214   3.458   1.783   6.528  0.1682  1.7750  1.2916
 2219TIP3   OH228215   4.420   4.914   7.195  0.0135 -0.4768  0.0402
 2219TIP3    H128216   4.500   4.891   7.147  0.0539 -1.1671  0.4351
 2219TIP3    H228217   4.384   4.989   7.146  1.1081  0.1040  0.0820
 2220TIP3   OH228218   5.966   1.573   7.332  0.1923  0.3920 -0.2764
 2220TIP3    H128219   5.900   1.506   7.314 -0.0107  0.7996 -1.1120
 2220TIP3    H228220   5.921   1.656   7.315  1.2706  0.6416 -2.1584
 2221TIP3   OH228221   0.318   2.424   0.699 -0.2591  0.2402 -0.3171
 2221TIP3    H128222   0.257   2.379   0.757 -0.1186  0.6568  0.1560
 2221TIP3    H228223   0.369   2.354   0.659 -2.4631 -0.3264 -2.3847
 2222TIP3   OH228224   6.506   3.800   0.029  0.6389  0.1379  0.1179
 2222TIP3    H128225   6.588   3.828  -0.012  0.0946  0.9525 -0.4573
 2222TIP3    H228226   6.448   3.779  -0.045 -0.1480  1.0073  0.4697
 2223TIP3   OH228227   6.742   3.807   7.885 -0.7632  0.8728  0.3233
 2223TIP3    H128228   6.682   3.843   7.819 -1.4196  1.1197  1.0401
 2223TIP3    H228229   6.815   3.868   7.888 -1.3300  1.5470  0.7176
 2224TIP3   OH228230   0.964   6.245   0.537 -0.5501  0.0493  0.7430
 2224TIP3    H128231   0.877   6.227   0.573 -1.2940 -1.5405 -1.6291
 2224TIP3    H228232   1.009   6.161   0.543  0.0191  0.2884 -0.0976
 2225TIP3   OH228233   3.110   1.478   1.686  0.0115 -0.1004 -0.1542
 2225TIP3    H128234   3.148   1.392   1.666 -2.0843 -0.9806 -0.6382
 2225TIP3    H228235   3.082   1.511   1.601 -1.4336 -0.0792  0.3175
 2226TIP3   OH228236   2.160   3.441   8.510  0.2355 -0.6843 -0.2865
 2226TIP3    H128237   2.223   3.373   8.533  1.1824  0.3420  0.2884
 2226TIP3    H228238   2.125   3.470   8.594  0.7342  0.3344 -0.4082
 2227TIP3   OH228239   1.299   2.543   7.529  0.4851  0.2885 -0.6320
 2227TIP3    H128240   1.335   2.458   7.502  1.1839 -0.1781  1.5790
 2227TIP3    H228241   1.219   2.521   7.577  0.5400  0.9042 -0.2543
 2228TIP3   OH228242   0.943   4.283   0.120 -0.4599 -0.3150 -0.3952
 2228TIP3    H128243   1.025   4.331   0.134 -0.2062 -0.5357 -1.0609
 2228TIP3    H228244   0.885   4.346   0.077 -0.8794  0.0441  0.6645
 2229TIP3   OH228245   1.170   5.771   1.067 -0.5927  0.3835  0.0355
 2229TIP3    H128246   1.263   5.794   1.073 -0.4485 -0.2139  0.1449
 2229TIP3    H228247   1.158   5.743   0.977 -1.2559  2.9048 -0.7377
 2230TIP3   OH228248   5.668   5.215   1.386 -0.1167  0.5948  0.4658
 2230TIP3    H128249   5.648   5.286   1.447  0.1953  0.9988  0.1132
 2230TIP3    H228250   5.583   5.178   1.363 -0.4646  1.9726 -0.6524
 2231TIP3   OH228251   3.640   0.980   7.590  0.1964 -0.1653 -0.0962
 2231TIP3    H128252   3.671   1.041   7.657 -0.6908 -1.0263  1.1499
 2231TIP3    H228253   3.720   0.938   7.557  0.7584  1.2048 -0.5365
 2232TIP3   OH228254   4.672   6.113   0.997  0.5429 -0.7866  0.1146
 2232TIP3    H128255   4.655   6.171   0.922 -0.3979 -0.2924  0.7000
 2232TIP3    H228256   4.681   6.026   0.958 -0.8964 -0.6890 -0.4852
 2233TIP3   OH228257   4.055   5.643   7.115  0.2702  0.4911  0.4203
 2233TIP3    H128258   4.094   5.726   7.140  0.1630  0.3023  1.2224
 2233TIP3    H228259   3.968   5.644   7.156 -1.0736  1.3780 -2.1776
 2234TIP3   OH228260   5.683   0.124   8.371  0.7080 -0.0813 -0.1615
 2234TIP3    H128261   5.599   0.168   8.360  1.2578  1.2621  0.7547
 2234TIP3    H228262   5.674   0.043   8.321 -0.0227  1.4872 -2.7793
 2235TIP3   OH228263   6.767   1.176   0.153  0.1421  0.0212  0.0339
 2235TIP3    H128264   6.857   1.195   0.127  0.4003 -0.8051  0.3131
 2235TIP3    H228265   6.773   1.099   0.210 -0.3453  1.8031  2.7144
 2236TIP3   OH228266   4.059   1.092   0.916 -0.5329 -0.1393 -0.4647
 2236TIP3    H128267   4.023   1.176   0.889  0.1915  1.3936  2.8980
 2236TIP3    H228268   4.153   1.101   0.904 -0.5958 -1.5053 -2.4818
 2237TIP3   OH228269   1.939   3.174   7.652  0.8373  0.1824  0.1502
 2237TIP3    H128270   1.984   3.102   7.608 -0.1031  0.5599 -1.5123
 2237TIP3    H228271   1.858   3.135   7.685  0.5825  0.3382 -0.2771
 2238TIP3   OH228272   5.526   2.903   8.224  0.4881  0.1754 -0.2122
 2238TIP3    H128273   5.517   2.932   8.315  2.2953  0.4228 -0.0653
 2238TIP3    H228274   5.619   2.914   8.205  0.4074 -1.2330 -1.6331
 2239TIP3   OH228275   3.709   4.104   0.312 -0.1464 -0.4037  0.0580
 2239TIP3    H128276   3.726   4.075   0.223  1.2052  3.2606 -1.0383
 2239TIP3    H228277   3.618   4.132   0.312 -0.0799 -0.1943 -0.2266
 2240TIP3   OH228278   3.438   4.292   1.544  0.1732  0.0720 -0.8033
 2240TIP3    H128279   3.455   4.369   1.489  0.1715  0.2857 -0.5063
 2240TIP3    H228280   3.412   4.328   1.629  2.0467 -0.2363 -0.0617
 2241TIP3   OH228281   4.578   1.579   8.204 -0.5084 -0.7078  0.0951
 2241TIP3    H128282   4.620   1.635   8.269 -0.1223  0.1407 -0.8645
 2241TIP3    H228283   4.576   1.493   8.246  1.4646 -0.6163  0.5080
 2242TIP3   OH228284   3.764   6.361   0.235  0.5079 -0.0115 -0.1593
 2242TIP3    H128285   3.713   6.335   0.312 -0.2673 -2.8853 -1.4829
 2242TIP3    H228286   3.717   6.322   0.161  1.5168  2.1712 -2.0856
 2243TIP3   OH228287   1.258   2.162   7.332  0.0731 -0.2283 -0.4372
 2243TIP3    H128288   1.304   2.223   7.275  1.2549 -0.9283 -0.2662
 2243TIP3    H228289   1.205   2.109   7.272 -1.5144  1.3602 -0.5294
 2244TIP3   OH228290   5.871   1.764   0.806 -0.3799  0.6810 -0.1086
 2244TIP3    H128291   5.859   1.695   0.872 -0.6876  0.4975 -0.3535
 2244TIP3    H228292   5.814   1.738   0.734 -0.8835  1.4647  0.0073
 2245TIP3   OH228293   0.236   4.879   7.499 -0.0083  0.1395 -0.5389
 2245TIP3    H128294   0.315   4.835   7.530 -0.0518  1.1852  1.1853
 2245TIP3    H228295   0.209   4.828   7.422  1.6219 -0.9780 -0.4307
 2246TIP3   OH228296   2.751   1.188   1.559  0.3458  0.0285  0.2976
 2246TIP3    H128297   2.738   1.238   1.639 -0.6097  2.6464 -1.3582
 2246TIP3    H228298   2.731   1.249   1.489  3.2079 -1.4921 -2.0731
 2247TIP3   OH228299   3.940   4.439   0.922 -0.0844  0.5775  0.0648
 2247TIP3    H128300   3.875   4.369   0.915 -0.1345  0.7373 -1.2651
 2247TIP3    H228301   3.910   4.507   0.861  2.2530 -0.1549 -2.1001
 2248TIP3   OH228302   5.147   5.040   1.481  0.6422 -0.3015 -0.1774
 2248TIP3    H128303   5.146   4.947   1.507  1.5075 -0.5132 -0.8527
 2248TIP3    H228304   5.142   5.038   1.386  1.5733  0.3044 -0.2504
 2249TIP3   OH228305   4.663   3.770   6.668  0.4246  0.3174  0.1771
 2249TIP3    H128306   4.670   3.830   6.742  0.2089 -0.2912  0.7003
 2249TIP3    H228307   4.745   3.720   6.669  1.7276  2.2527 -1.7608
 2250TIP3   OH228308   2.897   0.692   1.114 -0.0657  0.1329 -0.0019
 2250TIP3    H128309   2.914   0.703   1.208  0.4684  0.0125 -0.0778
 2250TIP3    H228310   2.927   0.773   1.074  0.0133  0.0564 -0.1014
 2251TIP3   OH228311   4.487   6.670   7.148  0.8559  0.5788 -0.1839
 2251TIP3    H128312   4.476   6.607   7.077 -0.2841  0.5416  0.0026
 2251TIP3    H228313   4.454   6.752   7.111 -0.4963  0.3844  0.5441
 2252TIP3   OH228314   6.498   1.424   1.427 -0.0182 -0.2222  0.5102
 2252TIP3    H128315   6.443   1.346   1.423 -0.4663  0.0613  1.0064
 2252TIP3    H228316   6.441   1.492   1.463  0.3586  0.3429  0.0632
 2253TIP3   OH228317   5.489   5.688   1.861  0.5032 -0.1051  0.1111
 2253TIP3    H128318   5.585   5.683   1.853  0.9290  1.4050  3.0331
 2253TIP3    H228319   5.468   5.621   1.925  0.0340  1.5185  1.7208
 2254TIP3   OH228320   0.987   2.172   8.522 -0.3983  0.3975 -0.5332
 2254TIP3    H128321   0.995   2.159   8.617 -0.5038 -0.6240 -0.6558
 2254TIP3    H228322   0.938   2.254   8.514 -0.6640  0.3337  0.2980
 2255TIP3   OH228323   6.315   4.520   7.748 -0.4186 -0.0018 -0.0959
 2255TIP3    H128324   6.375   4.519   7.823 -1.2716  0.2765  0.6151
 2255TIP3    H228325   6.332   4.438   7.702  1.0823  0.4450 -0.3912
 2256TIP3   OH228326   6.655   3.127   8.481  0.1796 -0.7408 -0.1281
 2256TIP3    H128327   6.729   3.066   8.471  0.9244  0.1516 -0.1335
 2256TIP3    H228328   6.626   3.144   8.392  0.4560 -0.5068 -0.1751
 2257TIP3   OH228329   5.096   4.324   0.156 -0.1145  0.0000 -0.9791
 2257TIP3    H128330   5.169   4.290   0.103 -0.7269 -2.1027 -0.5935
 2257TIP3    H228331   5.027   4.342   0.092  0.7006  2.0290 -1.3494
 2258TIP3   OH228332   1.650   5.808   0.468  0.1215  0.4426  0.4143
 2258TIP3    H128333   1.603   5.769   0.394 -0.3408  0.1176  0.8727
 2258TIP3    H228334   1.584   5.859   0.514  0.2184  0.0160  1.0392
 2259TIP3   OH228335   1.065   5.998   7.606  0.1362  0.8433 -0.5375
 2259TIP3    H128336   1.084   6.019   7.698  1.8522  0.0479 -0.6694
 2259TIP3    H228337   1.014   5.918   7.609  0.0479  0.9101 -0.2675
 2260TIP3   OH228338   1.823   5.855   7.054  0.1128 -0.3635 -0.3765
 2260TIP3    H128339   1.746   5.807   7.084 -0.5785  0.5292 -0.6906
 2260TIP3    H228340   1.833   5.829   6.963 -0.2219  0.0186 -0.5269
 2261TIP3   OH228341   2.334   5.351   1.557 -0.5893  0.1445 -0.2355
 2261TIP3    H128342   2.239   5.350   1.544 -1.1136  0.6307  2.8313
 2261TIP3    H228343   2.355   5.263   1.587 -0.0672  0.0685 -0.8095
 2262TIP3   OH228344   1.811   4.907   6.700  0.3234 -0.3051 -0.0729
 2262TIP3    H128345   1.842   4.864   6.620 -0.5951 -0.3075 -0.4482
 2262TIP3    H228346   1.749   4.844   6.739 -2.5454  1.3090 -1.6461
 2263TIP3   OH228347   2.334   1.560   7.620 -0.4852  0.5088  0.3868
 2263TIP3    H128348   2.276   1.635   7.607 -1.5662 -0.3253  0.2641
 2263TIP3    H228349   2.327   1.541   7.714 -1.3936 -0.3495  0.1601
 2264TIP3   OH228350   4.928   5.746   1.489 -0.4620  0.0084  0.5025
 2264TIP3    H128351   4.932   5.662   1.444  2.0643  0.9449 -1.3055
 2264TIP3    H228352   4.936   5.811   1.419 -2.2999  1.8105  1.8353
 2265TIP3   OH228353   6.547   1.204   8.074  0.4420  0.7353 -0.3231
 2265TIP3    H128354   6.494   1.246   8.006  1.6811  0.4729 -1.4958
 2265TIP3    H228355   6.515   1.242   8.156 -0.0129  2.2548 -1.1630
 2266TIP3   OH228356   6.218   3.067   0.545 -0.3145 -0.0473  0.0133
 2266TIP3    H128357   6.282   3.099   0.609 -0.1034  2.3248 -1.3006
 2266TIP3    H228358   6.270   3.048   0.467 -0.6917 -2.1143  0.2036
 2267TIP3   OH228359   4.936   4.083   8.819 -0.8478 -0.4547 -0.1902
 2267TIP3    H128360   5.022   4.106   8.785 -0.7279 -1.2005 -0.4232
 2267TIP3    H228361   4.875   4.134   8.767 -0.5667 -0.2572 -0.3265
 2268TIP3   OH228362   0.189   0.840   7.925 -0.3185  0.3188  0.0003
 2268TIP3    H128363   0.216   0.877   7.842  1.4825 -0.6514  0.1108
 2268TIP3    H228364   0.187   0.745   7.911 -1.0003  0.2007  0.7775
 2269TIP3   OH228365   1.922   3.039   6.796 -0.2796 -0.5278 -0.3285
 2269TIP3    H128366   1.950   3.063   6.884  1.5456  1.3398 -1.3378
 2269TIP3    H228367   1.924   2.943   6.796  3.8934 -0.6366  0.5239
 2270TIP3   OH228368   6.267   5.842   0.517  0.0257  0.1464  0.2118
 2270TIP3    H128369   6.212   5.919   0.532 -0.5273 -0.2319  0.1203
 2270TIP3    H228370   6.354   5.879   0.498 -0.2539  0.7494  0.0696
 2271TIP3   OH228371   6.537   0.482   0.435 -0.4354  0.3794  0.3030
 2271TIP3    H128372   6.522   0.389   0.420  1.7118  0.0359 -0.0070
 2271TIP3    H228373   6.449   0.520   0.442 -1.3547 -1.4836 -0.5819
 2272TIP3   OH228374   2.340   0.877   0.225 -0.4973 -0.3506  0.4996
 2272TIP3    H128375   2.273   0.879   0.156  0.4693 -1.4726 -0.5102
 2272TIP3    H228376   2.414   0.926   0.188 -0.2145 -0.3856  1.0095
 2273TIP3   OH228377   5.382   2.356   8.189 -0.1241 -1.0477  0.3327
 2273TIP3    H128378   5.478   2.364   8.184 -0.2585  0.0797 -1.0362
 2273TIP3    H228379   5.355   2.426   8.248 -0.1457 -1.0798  0.3612
 2274TIP3   OH228380   3.224   6.128   0.168  0.0199 -0.5256  0.5016
 2274TIP3    H128381   3.130   6.145   0.157  0.1914  0.8094  0.8940
 2274TIP3    H228382   3.233   6.034   0.155 -1.2876 -0.5862 -0.1455
 2275TIP3   OH228383   0.582   6.018   2.570  0.1931  0.5151  0.0099
 2275TIP3    H128384   0.665   6.041   2.526  1.0757 -1.4148  0.5938
 2275TIP3    H228385   0.604   5.944   2.626 -2.2630 -1.1121 -1.0099
 2276TIP3   OH228386   5.945   1.040   6.898 -0.0422 -0.7162 -0.6678
 2276TIP3    H128387   6.004   0.969   6.872  1.0404 -0.6151  1.3444
 2276TIP3    H228388   6.002   1.107   6.934 -1.2689  0.0764 -0.1315
 2277TIP3   OH228389   3.251   0.557   1.071  0.5230  1.1512  0.2588
 2277TIP3    H128390   3.259   0.652   1.061 -0.1299  1.0015 -2.4103
 2277TIP3    H228391   3.323   0.522   1.019  0.1617  0.1776  0.4027
 2278TIP3   OH228392   2.330   4.167   7.042 -0.0808 -0.4515 -0.1940
 2278TIP3    H128393   2.319   4.111   6.965 -3.2727  0.5636 -0.6477
 2278TIP3    H228394   2.289   4.117   7.114  0.4556 -0.2604  0.2511
 2279TIP3   OH228395   1.885   0.901   8.625 -0.3318 -0.6023 -0.2060
 2279TIP3    H128396   1.804   0.850   8.625 -0.1646 -0.8864 -1.0802
 2279TIP3    H228397   1.950   0.842   8.587 -0.0247  0.0878 -0.7803
 2280TIP3   OH228398   0.959   2.187   7.682 -0.1819 -0.1254 -0.2213
 2280TIP3    H128399   0.926   2.102   7.652 -2.2321  0.4465  0.2136
 2280TIP3    H228400   0.896   2.214   7.749 -0.0618  2.0864 -0.9246
 2281TIP3   OH228401   5.815   3.798   2.241  0.1439  0.5652  0.2259
 2281TIP3    H128402   5.734   3.791   2.291  0.2609 -2.3089  0.1700
 2281TIP3    H228403   5.884   3.795   2.306  0.2505 -1.4550  0.0849
 2282TIP3   OH228404   2.341   5.873   8.131  0.0252 -0.0076 -0.5807
 2282TIP3    H128405   2.277   5.931   8.170  1.1600  0.4454  0.6803
 2282TIP3    H228406   2.414   5.931   8.106 -0.0346 -0.4991 -2.0209
 2283TIP3   OH228407   3.261   1.569   1.227 -0.1997 -0.0217  0.4235
 2283TIP3    H128408   3.166   1.557   1.226 -0.1249 -0.6257 -0.1198
 2283TIP3    H228409   3.273   1.657   1.263 -1.0512  0.8313 -1.2179
 2284TIP3   OH228410   6.232   6.021   8.055 -0.1416 -0.5764  0.3554
 2284TIP3    H128411   6.193   5.934   8.063 -0.8572 -0.2600  0.4084
 2284TIP3    H228412   6.317   6.006   8.014 -0.0673 -1.3447  0.7687
 2285TIP3   OH228413   5.191   6.618   6.950 -0.0063  0.0889  0.3865
 2285TIP3    H128414   5.269   6.641   6.899 -0.1343 -3.2978 -1.6627
 2285TIP3    H228415   5.121   6.670   6.911  0.6618  0.7091 -0.0141
 2286TIP3   OH228416   4.250   3.532   8.583 -0.0877 -0.0535  0.0053
 2286TIP3    H128417   4.327   3.540   8.640 -0.2436  0.7254  0.1155
 2286TIP3    H228418   4.285   3.538   8.494  0.0637 -0.4820  0.0324
 2287TIP3   OH228419   2.450   6.154   2.327 -0.4218  0.2552  0.8940
 2287TIP3    H128420   2.450   6.207   2.247  1.0058 -0.4702  0.3883
 2287TIP3    H228421   2.517   6.195   2.382 -1.0391  0.4420  1.5167
 2288TIP3   OH228422   1.563   0.524   1.816 -0.8999 -0.0465 -0.5402
 2288TIP3    H128423   1.550   0.469   1.893  0.3338 -0.2543 -0.4733
 2288TIP3    H228424   1.598   0.606   1.851  0.8918 -0.5885 -0.9547
 2289TIP3   OH228425   3.369   0.806   0.936  0.1400 -0.2094 -0.4954
 2289TIP3    H128426   3.347   0.897   0.956 -0.0191 -0.1081 -1.1032
 2289TIP3    H228427   3.335   0.792   0.847 -3.5269 -2.0654  0.9829
 2290TIP3   OH228428   6.239   3.094   6.635 -0.3602 -0.0825 -0.2733
 2290TIP3    H128429   6.164   3.153   6.628 -0.2774  0.6010  3.0222
 2290TIP3    H228430   6.200   3.007   6.641 -0.7288  0.0245 -1.0417
 2291TIP3   OH228431   3.903   0.996   8.014 -0.2870  0.2911  0.1885
 2291TIP3    H128432   3.838   1.042   8.066  0.7653  2.2141 -0.0959
 2291TIP3    H228433   3.863   0.987   7.927 -0.4404  0.8636  0.1955
 2292TIP3   OH228434   6.003   5.157   2.036  0.0502  0.3701 -0.6957
 2292TIP3    H128435   6.062   5.082   2.048 -0.8904 -0.2950 -0.0884
 2292TIP3    H228436   6.061   5.233   2.032  1.0160 -0.3743 -1.2030
 2293TIP3   OH228437   4.840   5.718   7.459 -1.1203 -0.3585  0.3036
 2293TIP3    H128438   4.778   5.708   7.387  0.7720  0.6589 -1.5812
 2293TIP3    H228439   4.923   5.687   7.423 -0.1128  0.1988  2.0483
 2294TIP3   OH228440   5.269   2.627   1.713  0.2428  0.2443 -0.3435
 2294TIP3    H128441   5.276   2.688   1.786  2.6959  0.8965 -1.0064
 2294TIP3    H228442   5.240   2.681   1.639  0.1674  0.1080 -0.4146
 2295TIP3   OH228443   6.633   0.748   7.752 -0.5571 -0.5118  0.4516
 2295TIP3    H128444   6.634   0.808   7.827 -0.5892  0.9774 -0.6939
 2295TIP3    H228445   6.551   0.768   7.706  0.4020  0.0673 -1.0841
 2296TIP3   OH228446   3.513   1.038   8.155  0.0959  0.4196 -0.1238
 2296TIP3    H128447   3.569   0.961   8.145 -0.8953 -0.2250 -0.8904
 2296TIP3    H228448   3.554   1.105   8.100  1.0981  0.5294  0.7379
 2297TIP3   OH228449   3.146   5.890   7.253  0.4439  0.7842  0.0422
 2297TIP3    H128450   3.229   5.885   7.206  0.5899 -0.6228  0.3864
 2297TIP3    H228451   3.170   5.893   7.346  0.1311 -0.5089  0.1888
 2298TIP3   OH228452   6.036   6.139   7.341 -0.2400 -0.2805 -0.0092
 2298TIP3    H128453   6.102   6.205   7.363 -0.7409  0.0685  0.4781
 2298TIP3    H228454   6.007   6.163   7.253 -0.1870 -0.0427  0.0357
 2299TIP3   OH228455   0.791   3.251   7.612  0.5075 -0.8577 -0.3312
 2299TIP3    H128456   0.847   3.194   7.560  1.6730  0.2627 -0.3500
 2299TIP3    H228457   0.738   3.191   7.665 -1.4293 -2.1082 -3.4036
 2300TIP3   OH228458   5.091   2.681   8.290  0.8634  0.3204  0.2092
 2300TIP3    H128459   5.045   2.756   8.329 -0.5267  0.2485 -1.1735
 2300TIP3    H228460   5.093   2.700   8.196  1.5919 -0.7998 -0.0240
 2301TIP3   OH228461   3.082   3.672   6.791  1.0518  0.8676 -0.0822
 2301TIP3    H128462   3.057   3.763   6.811 -1.8446  0.1867 -0.1221
 2301TIP3    H228463   3.109   3.636   6.876  0.1350  1.2170  0.3781
 2302TIP3   OH228464   0.130   0.680   1.706  0.1991  0.0510  0.5419
 2302TIP3    H128465   0.113   0.743   1.636  0.1026  1.3178  1.6618
 2302TIP3    H228466   0.101   0.596   1.670 -0.1224  0.7159 -0.8196
 2303TIP3   OH228467   5.640   2.092   0.085  0.2557  0.3307 -0.1499
 2303TIP3    H128468   5.685   2.095   0.169 -1.5424  0.3549  0.8460
 2303TIP3    H228469   5.548   2.082   0.107 -0.3768  1.3548 -2.0842
 2304TIP3   OH228470   0.047   0.351   7.868 -0.0707  0.5076  0.2582
 2304TIP3    H128471   0.128   0.393   7.837  1.6047 -1.1962  2.0567
 2304TIP3    H228472   0.024   0.398   7.948 -0.0422  0.0865  0.5176
 2305TIP3   OH228473   2.453   1.265   7.640  0.0191  0.1167  0.1485
 2305TIP3    H128474   2.485   1.332   7.701  2.4733 -0.6726 -0.1415
 2305TIP3    H228475   2.471   1.301   7.553 -2.7851  0.9186 -0.1764
 2306TIP3   OH228476   5.350   3.639   1.388  0.0521 -0.1512  0.2028
 2306TIP3    H128477   5.271   3.683   1.418  0.3612 -0.6864  1.9173
 2306TIP3    H228478   5.373   3.683   1.306 -1.4252  0.6970  0.2158
 2307TIP3   OH228479   1.234   5.255   6.476  0.5789  0.3946  0.1670
 2307TIP3    H128480   1.256   5.329   6.419  0.2238 -0.4346 -1.0816
 2307TIP3    H228481   1.259   5.178   6.426  1.7071 -0.3392  1.7856
 2308TIP3   OH228482   1.299   1.771   8.286  0.0373  0.4291 -0.1789
 2308TIP3    H128483   1.275   1.770   8.193 -1.1832 -0.3579  0.1202
 2308TIP3    H228484   1.231   1.825   8.327  1.2663  1.8256  0.1191
 2309TIP3   OH228485   4.356   5.151   7.413  0.3889  0.1595 -0.0692
 2309TIP3    H128486   4.450   5.135   7.423  0.3284  0.7169  1.6185
 2309TIP3    H228487   4.349   5.243   7.388  0.3576 -0.4247 -2.4902
 2310TIP3   OH228488   0.158   5.065   1.262 -0.3236  0.1820  0.3766
 2310TIP3    H128489   0.146   5.138   1.323  0.8044 -0.9809  2.0760
 2310TIP3    H228490   0.076   5.016   1.265 -1.1494  1.4078 -0.8974
 2311TIP3   OH228491   4.923   6.630   6.516  0.2732 -0.2319  0.2513
 2311TIP3    H128492   4.957   6.543   6.495 -1.2683 -1.2559  1.7574
 2311TIP3    H228493   5.000   6.683   6.532  1.2323 -1.5987  0.3100
 2312TIP3   OH228494   0.029   3.333   8.212  0.4253  0.4384  0.0051
 2312TIP3    H128495  -0.045   3.275   8.224  0.9077  0.1052  1.5172
 2312TIP3    H228496  -0.009   3.421   8.210 -0.2487  0.1597 -1.8022
 2313TIP3   OH228497   0.828   3.462   0.828 -0.6069  0.2240  0.2172
 2313TIP3    H128498   0.920   3.484   0.839 -0.8456  0.8347  1.0256
 2313TIP3    H228499   0.812   3.473   0.734 -0.2957  1.8499  0.3321
 2314TIP3   OH228500   0.220   1.064   2.131  0.2332 -0.5139 -0.0205
 2314TIP3    H128501   0.311   1.064   2.161  0.4741 -0.4151 -0.7387
 2314TIP3    H228502   0.177   1.130   2.185  1.2210  1.4811 -1.5283
 2315TIP3   OH228503   3.011   3.368   8.315 -0.0433 -0.2186 -0.0233
 2315TIP3    H128504   3.066   3.412   8.250 -0.5695  0.9296  0.2745
 2315TIP3    H228505   2.924   3.408   8.303 -0.2677 -0.3673  1.0294
 2316TIP3   OH228506   1.898   4.921   0.195  0.2835 -0.3334  0.1150
 2316TIP3    H128507   1.972   4.935   0.137 -0.0781 -0.9226 -0.4967
 2316TIP3    H228508   1.888   5.005   0.241  1.4356 -0.3061  0.3508
 2317TIP3   OH228509   2.521   2.787   6.207 -0.1039  0.4024  0.0824
 2317TIP3    H128510   2.611   2.814   6.224  0.2098 -1.0989  0.9716
 2317TIP3    H228511   2.471   2.869   6.205  1.2526  1.2468 -0.3811
 2318TIP3   OH228512   5.930   1.833   7.733 -0.1837  0.3211  0.3789
 2318TIP3    H128513   5.905   1.921   7.763  0.5265 -0.1835  2.6880
 2318TIP3    H228514   5.870   1.774   7.778 -0.3438 -0.4074 -0.7694
 2319TIP3   OH228515   1.935   4.773   7.287 -0.1334  0.2201  0.1421
 2319TIP3    H128516   2.015   4.770   7.234  0.3175 -1.6655  0.8573
 2319TIP3    H228517   1.886   4.695   7.262 -1.0376  0.5734  0.7776
 2320TIP3   OH228518   4.323   4.520   8.701  0.7343 -0.2756  0.0453
 2320TIP3    H128519   4.351   4.460   8.771  3.5278  0.6247 -0.1707
 2320TIP3    H228520   4.337   4.607   8.737  0.4759  0.2269 -1.0215
 2321TIP3   OH228521   4.279   3.615   0.852 -0.0031 -0.2227 -0.2646
 2321TIP3    H128522   4.234   3.541   0.811 -0.3358  0.2777 -0.8294
 2321TIP3    H228523   4.314   3.665   0.778  0.7175 -0.1302  0.1359
 2322TIP3   OH228524   5.960   6.581   7.189  0.3226  0.4334  0.6232
 2322TIP3    H128525   5.999   6.572   7.276 -1.6028  0.1270  1.5164
 2322TIP3    H228526   5.870   6.611   7.206 -0.0515  0.5349 -1.2770
 2323TIP3   OH228527   0.316   0.432   0.248 -0.1761 -0.0490 -0.3909
 2323TIP3    H128528   0.331   0.473   0.163 -0.6517 -0.6367 -0.7682
 2323TIP3    H228529   0.341   0.499   0.312  0.3538  0.3322 -0.9904
 2324TIP3   OH228530   0.266   5.540   8.577  0.2808 -0.2628 -0.1991
 2324TIP3    H128531   0.208   5.612   8.600 -0.6959 -1.4111  1.1280
 2324TIP3    H228532   0.209   5.473   8.540  0.2631 -2.3107  3.1601
 2325TIP3   OH228533   3.926   5.522   8.571 -0.5743 -0.5255 -0.4748
 2325TIP3    H128534   3.951   5.553   8.659  0.7597 -2.1172 -0.2373
 2325TIP3    H228535   3.997   5.553   8.514 -1.1579  0.0288 -0.9125
 2326TIP3   OH228536   3.148   3.060   8.736 -0.1197  0.0617 -0.2991
 2326TIP3    H128537   3.064   3.101   8.758 -0.4070 -0.0354 -1.1814
 2326TIP3    H228538   3.125   2.976   8.698  0.3445  0.2826 -1.0901
 2327TIP3   OH228539   5.286   3.269   0.851 -0.8383 -0.2213  0.2674
 2327TIP3    H128540   5.242   3.237   0.772 -0.8856 -1.7957  0.8886
 2327TIP3    H228541   5.280   3.364   0.845  0.6376 -0.1817 -2.4753
 2328TIP3   OH228542   3.876   4.349   7.382 -0.2915  0.0549 -0.2882
 2328TIP3    H128543   3.942   4.280   7.375 -1.3653 -0.9294 -1.0674
 2328TIP3    H228544   3.848   4.365   7.292 -1.6066 -0.0535  0.0753
 2329TIP3   OH228545   5.388   6.761   0.174 -0.1442 -0.5548 -0.1543
 2329TIP3    H128546   5.420   6.848   0.149 -1.0698 -0.6750 -1.9283
 2329TIP3    H228547   5.301   6.755   0.134 -0.0817 -2.3159 -0.0930
 2330TIP3   OH228548   3.457   6.531   0.425 -0.3717 -0.8228  0.2740
 2330TIP3    H128549   3.461   6.440   0.396  1.8987 -0.3781 -1.0255
 2330TIP3    H228550   3.429   6.580   0.347 -0.7083 -0.2957  0.7148
 2331TIP3   OH228551   0.452   5.533   8.315 -0.7732  0.4610 -0.2343
 2331TIP3    H128552   0.371   5.545   8.365 -1.7610 -0.6246 -1.5084
 2331TIP3    H228553   0.432   5.568   8.228  0.4383  0.9923 -0.3179
 2332TIP3   OH228554   4.790   3.730   0.779 -0.3856  0.3019 -0.1573
 2332TIP3    H128555   4.778   3.722   0.873  1.4346 -1.0921  0.0205
 2332TIP3    H228556   4.721   3.675   0.741  0.3199 -1.0731  0.4804
 2333TIP3   OH228557   6.505   2.662   7.699 -0.0615 -0.2497  0.1615
 2333TIP3    H128558   6.578   2.695   7.647  0.3761 -0.1985  0.7954
 2333TIP3    H228559   6.534   2.577   7.732 -1.0006 -1.0960 -1.0644
 2334TIP3   OH228560   5.426   1.545   7.896 -0.4900  1.0329  0.4153
 2334TIP3    H128561   5.479   1.468   7.916 -0.1830  0.5237 -2.0248
 2334TIP3    H228562   5.341   1.509   7.869 -0.1726  1.4576 -1.2691
 2335TIP3   OH228563   5.336   4.005   8.490 -0.0036  0.3370  0.2446
 2335TIP3    H128564   5.345   3.912   8.469 -1.8719 -0.1157  1.2075
 2335TIP3    H228565   5.415   4.046   8.454  2.0251 -1.9382  1.7603
 2336TIP3   OH228566   3.109   5.443   8.605  0.3052  0.3496  0.6570
 2336TIP3    H128567   3.128   5.537   8.608 -1.4400  0.8153 -1.0000
 2336TIP3    H228568   3.166   5.409   8.536 -0.4570  0.5985 -0.1147
 2337TIP3   OH228569   0.174   6.570   1.768  0.3962 -0.1181  0.1351
 2337TIP3    H128570   0.234   6.567   1.843 -0.6786  0.5500  1.0613
 2337TIP3    H228571   0.190   6.655   1.727  0.3630 -0.1087  0.1419
 2338TIP3   OH228572   1.787   6.567   0.107 -0.4788  0.2648 -0.1158
 2338TIP3    H128573   1.739   6.508   0.165 -0.7247 -0.6460 -1.2208
 2338TIP3    H228574   1.726   6.587   0.036  0.8100 -1.1778 -1.7372
 2339TIP3   OH228575   1.620   5.550   2.192 -0.2376 -0.3251  0.6482
 2339TIP3    H128576   1.561   5.475   2.200 -0.1028 -0.2410  3.9615
 2339TIP3    H228577   1.694   5.528   2.249  0.9596  1.3228 -0.2063
 2340TIP3   OH228578   3.221   2.837   8.126  0.2978  0.1380 -0.2593
 2340TIP3    H128579   3.298   2.808   8.174 -0.3958  0.0576  0.8502
 2340TIP3    H228580   3.168   2.758   8.116 -0.3320  0.4775  0.3373
 2341TIP3   OH228581   4.738   0.535   0.797  0.5180 -0.0825  0.5333
 2341TIP3    H128582   4.718   0.494   0.713  0.2148  2.3434 -0.6759
 2341TIP3    H228583   4.685   0.487   0.861 -0.1931 -1.1944 -0.8401
 2342TIP3   OH228584   5.957   1.635   0.009 -0.1973 -0.4310 -0.2852
 2342TIP3    H128585   5.935   1.695  -0.063 -0.7958  0.9845  1.0220
 2342TIP3    H228586   5.877   1.631   0.061  0.7487 -0.0590  1.2294
 2343TIP3   OH228587   4.423   2.894   1.053 -0.1057 -0.2989  0.2282
 2343TIP3    H128588   4.506   2.859   1.084 -0.2734 -1.0145 -0.1043
 2343TIP3    H228589   4.396   2.834   0.983 -1.6201 -0.9333  1.3061
 2344TIP3   OH228590   1.786   2.979   0.233  0.1535  0.0298  0.0293
 2344TIP3    H128591   1.726   3.027   0.289 -0.3126 -0.3213 -0.1666
 2344TIP3    H228592   1.736   2.959   0.154  0.4034 -0.5863  0.0160
 2345TIP3   OH228593   6.770   2.809   1.725 -0.5789 -0.6246  0.2310
 2345TIP3    H128594   6.831   2.757   1.777 -0.4525 -1.4611 -0.7202
 2345TIP3    H228595   6.685   2.793   1.765 -0.1869  0.6867  1.6711
 2346TIP3   OH228596   4.397   5.324   8.246  0.2079  0.4453  0.1076
 2346TIP3    H128597   4.364   5.235   8.250  0.9726  0.1701  0.6863
 2346TIP3    H228598   4.478   5.318   8.196 -1.7454  1.5107 -3.5004
 2347TIP3   OH228599   2.349   1.635   6.842  0.2292  0.4936 -0.5145
 2347TIP3    H128600   2.401   1.583   6.903 -0.4753 -2.9435 -2.5509
 2347TIP3    H228601   2.258   1.609   6.859 -0.0766  0.3490 -2.1411
 2348TIP3   OH228602   6.389   5.464   0.023  0.6123 -0.0465 -0.3017
 2348TIP3    H128603   6.397   5.547   0.071 -1.9280 -1.4030  2.8197
 2348TIP3    H228604   6.466   5.414   0.050 -0.0439 -0.2369  1.3323
 2349TIP3   OH228605   6.645   5.215   6.882  0.2646  0.4548 -0.0085
 2349TIP3    H128606   6.632   5.133   6.929  0.5348  0.5230  0.1859
 2349TIP3    H228607   6.617   5.195   6.792 -0.5719  0.4228  0.2521
 2350TIP3   OH228608   3.643   4.163   1.342  0.6773 -0.4188  0.1623
 2350TIP3    H128609   3.592   4.244   1.337 -0.8272 -1.3766 -1.0859
 2350TIP3    H228610   3.637   4.136   1.434  0.3995  0.3838  0.3870
 2351TIP3   OH228611   6.024   0.865   8.265  0.3238  0.5078 -0.4956
 2351TIP3    H128612   6.072   0.791   8.227  0.6772  0.6545 -0.3413
 2351TIP3    H228613   5.952   0.880   8.203 -0.0067 -0.2336 -0.3071
 2352TIP3   OH228614   0.177   0.175   6.769  0.1490  0.3928  0.3716
 2352TIP3    H128615   0.265   0.142   6.787 -0.4369 -0.4530  1.8131
 2352TIP3    H228616   0.187   0.270   6.767  1.1257  0.2957  0.3100
 2353TIP3   OH228617   5.648   4.008   1.738 -0.1902  0.3518 -0.1641
 2353TIP3    H128618   5.709   4.054   1.680 -1.1666  2.1702  0.1865
 2353TIP3    H228619   5.561   4.036   1.709 -0.8224 -1.1646  0.1955
 2354TIP3   OH228620   2.244   5.812   8.606  0.0897 -0.3143  0.0150
 2354TIP3    H128621   2.232   5.811   8.511  0.8165  3.1491 -0.2510
 2354TIP3    H228622   2.157   5.798   8.641 -0.3396 -0.7839 -1.1760
 2355TIP3   OH228623   5.885   4.407   1.834 -0.0739  0.2116  0.6265
 2355TIP3    H128624   5.875   4.472   1.765  2.2725  0.5981  0.5776
 2355TIP3    H228625   5.870   4.455   1.916 -1.1984  0.1320  0.4775
 2356TIP3   OH228626   2.752   4.910   7.021  0.1996  0.0231  0.6868
 2356TIP3    H128627   2.825   4.875   7.073  1.0012 -0.3066 -0.6162
 2356TIP3    H228628   2.681   4.921   7.084  0.4113 -2.4869  1.4649
 2357TIP3   OH228629   2.110   0.231   8.422  0.1645 -0.0814 -0.1088
 2357TIP3    H128630   2.117   0.278   8.339  0.8174 -0.4284 -0.2520
 2357TIP3    H228631   2.146   0.145   8.404  0.7061 -0.0193  0.6478
 2358TIP3   OH228632   2.688   3.249   0.105 -0.0176 -0.3891 -0.4173
 2358TIP3    H128633   2.679   3.317   0.038 -2.9099  0.6355  0.8105
 2358TIP3    H228634   2.628   3.180   0.077  0.0682 -0.7336  0.2208
 2359TIP3   OH228635   4.862   0.217   0.313  0.6239 -0.2981 -0.7229
 2359TIP3    H128636   4.814   0.286   0.268 -0.1630  0.2307  0.8301
 2359TIP3    H228637   4.842   0.138   0.264 -0.3619  0.2213 -1.1840
 2360TIP3   OH228638   1.994   0.820   1.241 -0.0960 -0.5212  0.4246
 2360TIP3    H128639   1.909   0.776   1.232  0.0486 -0.3956 -3.4008
 2360TIP3    H228640   2.044   0.791   1.165  2.6871  0.7493  1.6414
 2361TIP3   OH228641   4.171   2.871   1.163 -0.1474  0.9083 -0.6454
 2361TIP3    H128642   4.101   2.912   1.112 -0.4805  0.6279 -0.4181
 2361TIP3    H228643   4.250   2.887   1.112 -0.7025 -0.9867 -2.2637
 2362TIP3   OH228644   2.961   2.285   0.794 -0.1052  0.0241  0.1952
 2362TIP3    H128645   3.019   2.360   0.779  0.6191 -0.3741  0.9757
 2362TIP3    H228646   2.944   2.286   0.888 -1.4960  0.2160 -0.0386
 2363TIP3   OH228647   5.285   5.976   2.220  0.2905  0.2600 -0.1843
 2363TIP3    H128648   5.304   5.882   2.213 -0.6195  0.1425 -1.4288
 2363TIP3    H228649   5.211   5.990   2.161 -0.6296  1.4768  1.1635
 2364TIP3   OH228650   0.151   1.471   6.834 -0.4105 -0.2748 -0.0341
 2364TIP3    H128651   0.119   1.486   6.924 -0.7555  0.1173 -0.2175
 2364TIP3    H228652   0.097   1.529   6.780  1.1373  1.0202 -0.2820
 2365TIP3   OH228653   6.098   5.103   1.180  0.1628 -0.1573  0.1196
 2365TIP3    H128654   6.019   5.063   1.217 -1.2199  1.6400 -0.7363
 2365TIP3    H228655   6.106   5.063   1.094  0.1496 -0.3177  0.1928
 2366TIP3   OH228656   0.716   6.309   7.240  0.3609 -0.7086 -0.9394
 2366TIP3    H128657   0.687   6.359   7.163 -0.6303 -1.0965 -0.8423
 2366TIP3    H228658   0.805   6.338   7.256 -0.0395  0.7170 -1.1455
 2367TIP3   OH228659   0.923   3.872   7.113  0.0152  0.2399  0.3595
 2367TIP3    H128660   0.848   3.845   7.166 -0.2056 -2.1523 -1.0285
 2367TIP3    H228661   0.948   3.793   7.064 -0.3650  2.3896 -3.7314
 2368TIP3   OH228662   5.593   5.383   6.686  0.1173  0.0761 -0.0044
 2368TIP3    H128663   5.556   5.471   6.673  0.3948  0.1914 -0.0322
 2368TIP3    H228664   5.628   5.359   6.600 -0.4370 -0.2931 -0.1370
 2369TIP3   OH228665   5.826   4.513   7.484 -0.2065  0.0451 -0.1075
 2369TIP3    H128666   5.763   4.570   7.528 -0.7870  0.2501 -1.1682
 2369TIP3    H228667   5.893   4.573   7.450  0.8349 -0.2102  1.3969
 2370TIP3   OH228668   0.171   2.411   1.058  0.1187  0.5073 -0.5624
 2370TIP3    H128669   0.077   2.427   1.060 -0.0238  0.7166 -4.0355
 2370TIP3    H228670   0.181   2.330   1.007  1.7232 -2.0899  3.3532
 2371TIP3   OH228671   3.766   3.293   0.427  0.1242 -0.5797 -0.0594
 2371TIP3    H128672   3.693   3.234   0.410 -1.1612  0.3288  1.9098
 2371TIP3    H228673   3.730   3.381   0.412  0.9673 -0.1397  0.3931
 2372TIP3   OH228674   0.502   2.057   1.005 -0.1797  0.3728 -0.0357
 2372TIP3    H128675   0.494   1.966   0.979 -0.3180  0.6102 -0.8692
 2372TIP3    H228676   0.492   2.057   1.100  1.4018 -0.6556  0.1596
 2373TIP3   OH228677   5.709   4.118   2.440  0.2724 -0.1380 -0.0818
 2373TIP3    H128678   5.626   4.133   2.487  0.5518 -1.3816  0.8793
 2373TIP3    H228679   5.689   4.137   2.349 -1.1389 -0.5914  0.1042
 2374TIP3   OH228680   4.189   5.423   2.113  0.2568 -0.5304 -0.4686
 2374TIP3    H128681   4.241   5.503   2.112 -0.9144  0.3307 -3.1853
 2374TIP3    H228682   4.103   5.451   2.145  0.5637 -1.2870  1.0671
 2375TIP3   OH228683   4.174   0.918   8.009 -0.7383  0.2749  0.3075
 2375TIP3    H128684   4.189   0.919   7.914 -1.1995 -2.0515  0.1637
 2375TIP3    H228685   4.079   0.924   8.019 -0.9652 -2.3276  0.4262
 2376TIP3   OH228686   4.808   2.774   1.363 -0.1706  0.2065  0.1197
 2376TIP3    H128687   4.854   2.692   1.382 -0.8888  0.3751  3.1655
 2376TIP3    H228688   4.737   2.777   1.427 -0.0305  3.3102  0.3093
 2377TIP3   OH228689   6.600   2.929   1.289 -0.2999 -0.0235 -0.4354
 2377TIP3    H128690   6.618   2.928   1.383 -0.7220 -0.8605 -0.3557
 2377TIP3    H228691   6.516   2.885   1.280 -1.2515  1.8296 -1.0243
 2378TIP3   OH228692   2.418   4.093   7.472 -0.4863 -0.1656  0.2896
 2378TIP3    H128693   2.349   4.109   7.406  0.9452 -1.1455 -1.5311
 2378TIP3    H228694   2.480   4.164   7.458 -0.3304 -0.1922  0.8412
 2379TIP3   OH228695   2.822   4.236   8.697  0.0919 -0.4086  0.4683
 2379TIP3    H128696   2.911   4.200   8.702  0.9241  0.9433 -2.3585
 2379TIP3    H228697   2.835   4.331   8.698 -1.4095 -0.1808  0.7099
 2380TIP3   OH228698   0.746   6.050   0.404 -0.1003 -0.2592  0.3132
 2380TIP3    H128699   0.669   6.009   0.365 -0.0805 -0.8777  0.9160
 2380TIP3    H228700   0.793   6.088   0.329 -0.2925 -1.0486 -0.2242
 2381TIP3   OH228701   1.382   6.054   6.942  0.3321 -0.2306  0.0718
 2381TIP3    H128702   1.294   6.026   6.918 -0.0039  0.4507  0.4711
 2381TIP3    H228703   1.396   6.135   6.892 -0.5150  1.4028  2.3099
 2382TIP3   OH228704   2.250   5.023   0.337  0.3278  0.4042 -0.0591
 2382TIP3    H128705   2.214   5.063   0.416 -1.9709 -1.1232 -0.2519
 2382TIP3    H228706   2.257   4.930   0.357  0.6005  0.1246 -1.3514
 2383TIP3   OH228707   0.201   6.381   7.355 -0.3289  0.9174  0.1245
 2383TIP3    H128708   0.221   6.425   7.273  0.7846 -0.4078 -0.3470
 2383TIP3    H228709   0.237   6.292   7.345 -1.2144  0.3492  1.5826
 2384TIP3   OH228710   3.321   5.766   6.967  0.1649  0.0837  0.2242
 2384TIP3    H128711   3.259   5.728   6.905 -0.3239 -0.6906  1.1509
 2384TIP3    H228712   3.397   5.707   6.963 -0.1645 -0.3980  0.8841
 2385TIP3   OH228713   6.046   0.737   8.781 -0.4126 -0.3363  0.1928
 2385TIP3    H128714   6.006   0.791   8.712 -0.0908 -0.6901 -0.2790
 2385TIP3    H228715   5.996   0.656   8.780 -0.8392 -0.0929  0.8434
 2386TIP3   OH228716   0.590   1.504   1.409  0.4876 -0.0400  0.0301
 2386TIP3    H128717   0.599   1.492   1.503  0.0690 -1.4612 -0.0799
 2386TIP3    H228718   0.678   1.489   1.375  0.3440 -1.1173  0.0801
 2387TIP3   OH228719   3.780   6.709   1.475 -0.1567  0.3611  0.1695
 2387TIP3    H128720   3.737   6.643   1.420 -1.5802  0.5321  1.0330
 2387TIP3    H228721   3.718   6.782   1.476  0.7026  1.0951  0.4946
 2388TIP3   OH228722   2.676   1.966   7.880  0.3576  0.1747 -0.5594
 2388TIP3    H128723   2.739   1.895   7.867 -0.3202 -0.7622  1.0684
 2388TIP3    H228724   2.721   2.027   7.939  0.5039  0.5369 -1.0401
 2389TIP3   OH228725   2.164   4.420   8.771  0.1486 -0.5852  0.9055
 2389TIP3    H128726   2.091   4.360   8.754 -0.2072  0.2935 -0.9388
 2389TIP3    H228727   2.231   4.365   8.811 -1.1097 -1.6411  1.6709
 2390TIP3   OH228728   3.965   0.887   2.064  0.1287 -0.5737  0.1483
 2390TIP3    H128729   3.874   0.916   2.057  0.1002 -0.7117 -0.0504
 2390TIP3    H228730   3.978   0.830   1.989  0.3328 -0.6845  0.2670
 2391TIP3   OH228731   3.799   2.191   6.581 -0.1322 -0.0249  0.9740
 2391TIP3    H128732   3.755   2.127   6.525 -1.1125  1.4764 -0.0447
 2391TIP3    H228733   3.805   2.269   6.527  1.0091  0.7632  2.2015
 2392TIP3   OH228734   1.793   2.725   0.415  0.1813  0.2110  0.0615
 2392TIP3    H128735   1.772   2.713   0.322  0.7665 -0.3818 -0.0053
 2392TIP3    H228736   1.872   2.673   0.428 -0.6381 -0.7965  1.2008
 2393TIP3   OH228737   0.427   6.622   0.305 -0.3621 -0.8998  0.6041
 2393TIP3    H128738   0.474   6.705   0.314 -2.0428 -0.1072  2.7524
 2393TIP3    H228739   0.457   6.587   0.221 -0.9586  2.7590 -1.3298
 2394TIP3   OH228740   4.139   4.965   7.129  0.0536 -0.4331 -0.3501
 2394TIP3    H128741   4.071   4.988   7.193 -0.4551  1.7478 -1.5814
 2394TIP3    H228742   4.155   4.872   7.145 -1.4640 -0.4436  1.6077
 2395TIP3   OH228743   3.156   3.907   1.492  0.2133 -0.1781 -0.7121
 2395TIP3    H128744   3.208   3.897   1.412  0.7887  1.7461 -0.6206
 2395TIP3    H228745   3.215   3.949   1.554 -0.6385 -0.4423  0.3062
 2396TIP3   OH228746   5.442   4.419   1.943 -0.7103  0.0190  0.1019
 2396TIP3    H128747   5.470   4.424   2.035  1.7248  0.1324 -0.5739
 2396TIP3    H228748   5.370   4.482   1.937 -0.7792  0.1782  1.8661
 2397TIP3   OH228749   6.061   0.931   1.179  0.2979  0.5795 -0.4126
 2397TIP3    H128750   5.997   0.894   1.117  1.1624  1.7242 -2.0834
 2397TIP3    H228751   6.022   0.916   1.265 -1.2825 -0.5099 -1.2499
 2398TIP3   OH228752   0.012   5.657   8.178  0.5139  0.1109 -0.3064
 2398TIP3    H128753   0.055   5.576   8.151 -0.0071 -0.9987  1.9218
 2398TIP3    H228754   0.079   5.703   8.229  0.4993  0.6167 -0.7434
 2399TIP3   OH228755   3.900   2.289   0.265  0.5220 -0.1196 -0.1157
 2399TIP3    H128756   3.919   2.353   0.196 -1.3580  0.8169  0.1657
 2399TIP3    H228757   3.919   2.336   0.347  1.2993 -0.7183  0.0585
 2400TIP3   OH228758   4.520   0.831   2.353 -0.0417  0.3930 -0.2325
 2400TIP3    H128759   4.553   0.871   2.273 -1.5074 -1.4697 -1.8638
 2400TIP3    H228760   4.427   0.851   2.353 -0.1662 -0.1284  0.6853
 2401TIP3   OH228761   0.549   1.552   6.467  0.1211 -0.2557 -0.1295
 2401TIP3    H128762   0.505   1.625   6.424 -0.6797 -0.4347  0.3596
 2401TIP3    H228763   0.486   1.521   6.532  0.3994 -1.4605 -0.4119
 2402TIP3   OH228764   6.188   1.040   8.727  0.4893 -0.2593 -0.3012
 2402TIP3    H128765   6.129   1.098   8.679 -0.1247 -0.3818  0.2972
 2402TIP3    H228766   6.220   0.979   8.661  0.0291 -0.1271 -0.6552
 2403TIP3   OH228767   5.654   3.728   7.531  0.2963 -0.0311  0.2008
 2403TIP3    H128768   5.618   3.817   7.525  0.3374 -0.0739 -0.9864
 2403TIP3    H228769   5.748   3.741   7.538  0.3496  0.0288 -0.4983
 2404TIP3   OH228770   5.205   0.188   6.800 -0.7611  0.0896  0.4457
 2404TIP3    H128771   5.154   0.250   6.853 -1.0882  0.2983 -0.0939
 2404TIP3    H228772   5.178   0.208   6.710  0.1984  0.1193  0.1599
 2405TIP3   OH228773   5.832   2.616   7.989 -0.2453  0.0013  0.1593
 2405TIP3    H128774   5.876   2.664   7.919  1.0606 -1.8390 -0.3857
 2405TIP3    H228775   5.748   2.589   7.952 -0.0407  0.0067 -0.3075
 2406TIP3   OH228776   2.438   4.686   1.338  0.1176 -0.5542 -0.1825
 2406TIP3    H128777   2.497   4.631   1.390  0.5307  0.1975  0.1584
 2406TIP3    H228778   2.434   4.768   1.386  1.3398  0.5499 -1.8579
 2407TIP3   OH228779   4.120   2.176   0.145 -0.6723  0.0664  0.0362
 2407TIP3    H128780   4.143   2.265   0.120  2.2223 -0.8025 -0.7246
 2407TIP3    H228781   4.051   2.186   0.211  1.2170  2.9571  1.7661
 2408TIP3   OH228782   1.704   5.531   8.788 -0.1053  0.0940 -0.1285
 2408TIP3    H128783   1.745   5.617   8.789  0.3881 -0.1416  0.9805
 2408TIP3    H228784   1.732   5.490   8.870  1.4617 -1.9374 -1.5632
 2409TIP3   OH228785   1.897   0.303   0.810 -0.5575  0.4764 -0.1129
 2409TIP3    H128786   1.954   0.297   0.733 -1.2782 -0.8374 -0.5827
 2409TIP3    H228787   1.936   0.243   0.874 -0.6784  0.5728  0.0526
 2410TIP3   OH228788   2.646   1.827   7.114  0.7746  0.3468 -0.0681
 2410TIP3    H128789   2.576   1.874   7.069  0.0532 -0.0736  0.5854
 2410TIP3    H228790   2.711   1.894   7.134 -1.0973  1.5679  2.6051
 2411TIP3   OH228791   1.074   4.236   7.295  0.6447 -0.0584 -0.2764
 2411TIP3    H128792   1.064   4.235   7.390  1.2414 -1.1184 -0.2140
 2411TIP3    H228793   0.985   4.231   7.261  0.4984 -1.1207  0.2351
 2412TIP3   OH228794   4.472   0.884   8.409  0.0667  0.2061  0.1925
 2412TIP3    H128795   4.399   0.917   8.357 -1.0213  0.4447  1.8011
 2412TIP3    H228796   4.502   0.960   8.458  1.8915  0.2818 -0.9411
 2413TIP3   OH228797   6.324   3.476   8.220 -0.6293 -0.5127 -0.0819
 2413TIP3    H128798   6.255   3.540   8.235  0.0362  0.0333  0.7540
 2413TIP3    H228799   6.347   3.445   8.307  0.3528 -0.4934 -0.3233
 2414TIP3   OH228800   6.668   2.871   2.551 -0.1411  0.6949  0.0537
 2414TIP3    H128801   6.671   2.775   2.555  0.0144  0.7340  1.1375
 2414TIP3    H228802   6.651   2.891   2.459 -1.5809 -0.3964  0.0547
 2415TIP3   OH228803   6.540   0.726   1.438  0.3577 -0.3049 -0.1450
 2415TIP3    H128804   6.582   0.759   1.359  0.2543 -0.7182 -0.3727
 2415TIP3    H228805   6.531   0.632   1.424  2.4549 -0.8090  1.3245
 2416TIP3   OH228806   2.618   2.709   7.893 -0.1441  0.8336  0.4445
 2416TIP3    H128807   2.611   2.745   7.982 -0.1036  2.1486 -0.0620
 2416TIP3    H228808   2.599   2.783   7.836 -1.6838 -0.3542 -0.6489
 2417TIP3   OH228809   6.536   3.145   7.937  0.2313 -0.4899  0.0849
 2417TIP3    H128810   6.522   3.210   7.869 -0.6948  0.0718  0.7854
 2417TIP3    H228811   6.464   3.084   7.929 -1.0812  0.7209  1.8000
 2418TIP3   OH228812   2.592   6.156   0.652 -0.1588  0.1065  0.1947
 2418TIP3    H128813   2.580   6.138   0.558  2.7039  0.1287 -0.2531
 2418TIP3    H228814   2.684   6.136   0.669 -0.5555  0.2576  3.0002
 2419TIP3   OH228815   3.947   0.998   0.638 -0.7668 -0.3451 -0.0875
 2419TIP3    H128816   3.857   0.966   0.637 -0.5130 -1.0584 -0.4195
 2419TIP3    H228817   3.973   0.994   0.730 -0.7754 -1.0071 -0.1087
 2420TIP3   OH228818   0.722   1.937   0.030 -0.1375 -0.1563  0.0831
 2420TIP3    H128819   0.703   2.030   0.021 -4.0267 -0.5174  2.2905
 2420TIP3    H228820   0.702   1.901  -0.057  0.8030  0.9581 -0.6159
 2421TIP3   OH228821   3.763   4.518   6.513  0.2727 -0.0820  0.1232
 2421TIP3    H128822   3.819   4.561   6.577  0.6752 -1.4713  0.7599
 2421TIP3    H228823   3.684   4.496   6.561  0.5703 -1.1206  0.1774
 2422TIP3   OH228824   1.457   3.613   6.340 -0.3960 -0.2890  0.6061
 2422TIP3    H128825   1.521   3.624   6.269 -0.6717  1.7038  0.6129
 2422TIP3    H228826   1.496   3.546   6.397  0.1032 -1.5188 -1.0855
 2423TIP3   OH228827   4.551   2.391   7.062 -0.5306  0.4276  0.5432
 2423TIP3    H128828   4.540   2.485   7.044 -0.3666  0.3728  0.1596
 2423TIP3    H228829   4.462   2.359   7.078 -0.5186  0.7998  1.4424
 2424TIP3   OH228830   0.021   4.399   0.399 -0.1984  0.0731 -0.0537
 2424TIP3    H128831   0.020   4.336   0.327  2.8755  0.6462 -0.7175
 2424TIP3    H228832   0.046   4.481   0.358  0.4016  0.6882  1.4902
 2425TIP3   OH228833   4.011   0.447   8.809  0.0628  0.4925  0.0533
 2425TIP3    H128834   4.066   0.524   8.798  0.7097  0.2066  1.1623
 2425TIP3    H228835   3.922   0.482   8.814  0.1426  0.9739 -1.4920
 2426TIP3   OH228836   6.234   4.563   0.148 -0.1155  0.0212 -0.1157
 2426TIP3    H128837   6.211   4.508   0.223  1.6699 -0.8198 -0.1523
 2426TIP3    H228838   6.269   4.643   0.187 -0.4258  0.1388 -0.0713
 2427TIP3   OH228839   2.252   3.324   0.638  1.0962  0.3614  0.2193
 2427TIP3    H128840   2.327   3.365   0.682 -0.4402  0.9672  2.4559
 2427TIP3    H228841   2.203   3.398   0.601  0.6430  0.1420  0.3793
 2428TIP3   OH228842   1.049   4.884   0.051 -0.1909 -0.2823  0.3563
 2428TIP3    H128843   0.965   4.919   0.078 -0.1787  1.8735 -1.9767
 2428TIP3    H228844   1.028   4.814  -0.010 -0.2950 -0.3358  0.4545
 2429TIP3   OH228845   1.214   1.229   7.922 -0.3374  0.1323 -0.6964
 2429TIP3    H128846   1.149   1.299   7.931 -0.2071  0.0368  1.5540
 2429TIP3    H228847   1.185   1.162   7.984  1.7490 -0.0064  0.2198
 2430TIP3   OH228848   2.270   1.844   7.615  0.3866  0.1397  0.2760
 2430TIP3    H128849   2.255   1.868   7.706 -0.8428  0.5070 -0.0061
 2430TIP3    H228850   2.185   1.852   7.573  0.6740 -1.1932 -0.6515
 2431TIP3   OH228851   1.511   5.039   8.064  0.1191 -0.0040  0.2011
 2431TIP3    H128852   1.451   4.985   8.013  0.6422 -1.1504  0.7637
 2431TIP3    H228853   1.467   5.052   8.148 -0.1706  0.7851 -0.0618
 2432TIP3   OH228854   4.683   2.824   1.096 -0.3202 -0.6535  0.1277
 2432TIP3    H128855   4.741   2.751   1.075 -1.1665 -1.3880  0.3197
 2432TIP3    H228856   4.707   2.849   1.185  1.0315  0.3396 -0.4759
 2433TIP3   OH228857   3.798   5.716   7.379  0.1674 -0.1385 -0.5605
 2433TIP3    H128858   3.853   5.638   7.374  0.6933  0.2984 -2.5161
 2433TIP3    H228859   3.718   5.691   7.332 -0.5899 -0.1809  0.7035
 2434TIP3   OH228860   4.810   4.216   0.976  0.0927  0.9497 -0.1035
 2434TIP3    H128861   4.768   4.276   0.914 -0.0224  1.4778  0.4743
 2434TIP3    H228862   4.887   4.183   0.929 -0.2710  0.9405 -0.7149
 2435TIP3   OH228863   4.984   0.038   1.886  0.1312 -0.4351  0.6475
 2435TIP3    H128864   4.925   0.105   1.923 -1.6079 -0.4660 -1.8005
 2435TIP3    H228865   4.940  -0.045   1.905 -0.5462 -0.4777 -0.9448
 2436TIP3   OH228866   6.686   4.555   1.575  0.2389  0.2401  0.2774
 2436TIP3    H128867   6.660   4.464   1.589  1.2843  0.1058  1.5452
 2436TIP3    H228868   6.757   4.550   1.510 -0.2191  0.2447 -0.2361
 2437TIP3   OH228869   3.464   6.359   0.683 -0.1620 -0.6748  0.3397
 2437TIP3    H128870   3.482   6.451   0.705 -2.2484 -0.2250  0.3209
 2437TIP3    H228871   3.377   6.360   0.644 -1.0623 -2.8925  2.0866
 2438TIP3   OH228872   1.003   4.575   1.114 -0.3525 -0.2045  0.1544
 2438TIP3    H128873   0.997   4.594   1.207 -0.6137 -1.1960  0.3502
 2438TIP3    H228874   1.025   4.482   1.110  0.7646  0.0671 -0.7585
 2439TIP3   OH228875   5.797   0.015   6.992  0.2573  0.0455 -0.1490
 2439TIP3    H128876   5.747  -0.065   7.006  1.8466 -0.8504  0.8250
 2439TIP3    H228877   5.795   0.030   6.898 -2.5280  0.5731 -0.0709
 2440TIP3   OH228878   2.689   6.541   7.530 -0.0164  0.1513  0.0766
 2440TIP3    H128879   2.783   6.539   7.509  0.1179  0.1834  0.6456
 2440TIP3    H228880   2.659   6.626   7.499 -0.3532 -0.7171 -2.1062
 2441TIP3   OH228881   6.726   1.455   8.120  0.1480  0.5043 -0.0487
 2441TIP3    H128882   6.760   1.406   8.046  0.9448 -0.9951  1.2468
 2441TIP3    H228883   6.645   1.410   8.143  0.5409  0.1735  0.7345
 2442TIP3   OH228884   4.317   2.949   6.830  0.6254 -0.1115  0.3873
 2442TIP3    H128885   4.312   2.865   6.784  0.4804  0.2439 -0.2559
 2442TIP3    H228886   4.287   2.929   6.918  0.7779 -0.7768  0.2959
 2443TIP3   OH228887   0.391   5.136   7.988 -0.7579 -0.5192 -0.2057
 2443TIP3    H128888   0.388   5.187   7.907  0.2653 -1.5417 -0.9184
 2443TIP3    H228889   0.300   5.133   8.017 -1.1718 -0.2170 -1.3822
 2444TIP3   OH228890   5.675   2.013   7.112 -0.1134  0.2375  0.0105
 2444TIP3    H128891   5.613   2.018   7.039  0.9883  0.1706 -0.9706
 2444TIP3    H228892   5.745   2.073   7.086  0.7552 -0.5215  0.5652
 2445TIP3   OH228893   1.695   0.568   0.288 -0.2899 -0.8837  0.2657
 2445TIP3    H128894   1.679   0.543   0.378 -1.9469 -1.7290 -0.2413
 2445TIP3    H228895   1.733   0.656   0.294 -0.0885 -1.0531  1.7715
 2446TIP3   OH228896   2.590   6.763   7.949 -0.0536  0.3170 -0.3072
 2446TIP3    H128897   2.563   6.755   8.041  1.2412  0.4458  0.1067
 2446TIP3    H228898   2.508   6.761   7.900 -1.0524  3.0892  1.0206
 2447TIP3   OH228899   4.466   4.473   1.924 -0.3910  0.2190 -0.2228
 2447TIP3    H128900   4.535   4.470   1.991  2.0489 -1.1831 -2.5818
 2447TIP3    H228901   4.388   4.503   1.971  1.3744  0.2260  2.9979
 2448TIP3   OH228902   2.015   4.039   0.979  0.1603 -0.3352  0.1840
 2448TIP3    H128903   1.935   3.994   0.952  0.2214  0.4398 -1.4370
 2448TIP3    H228904   2.002   4.130   0.950  1.0512  0.1257  1.1606
 2449TIP3   OH228905   5.649   2.449   1.255 -0.0985 -0.2047  0.4843
 2449TIP3    H128906   5.697   2.461   1.338  0.9846  2.0182 -0.3707
 2449TIP3    H228907   5.601   2.367   1.267  2.1016 -1.3703  2.3073
 2450TIP3   OH228908   0.214   0.664   6.594  0.4554  0.3479 -0.5236
 2450TIP3    H128909   0.208   0.572   6.621 -1.8517  0.5099 -0.2330
 2450TIP3    H228910   0.261   0.707   6.664  1.6671 -0.6176 -0.7125
 2451TIP3   OH228911   3.629   2.437   7.475 -0.1035 -0.2205  0.4420
 2451TIP3    H128912   3.655   2.353   7.435 -1.0499 -0.2538 -0.1236
 2451TIP3    H228913   3.574   2.479   7.409 -0.8327  0.2032  1.2985
 2452TIP3   OH228914   2.127   1.747   8.770  0.0367  0.2445 -0.2049
 2452TIP3    H128915   2.036   1.760   8.742  0.9940  2.0729 -2.7970
 2452TIP3    H228916   2.144   1.819   8.831  0.7356  2.2607 -2.6057
 2453TIP3   OH228917   1.885   2.258   1.232  0.4526  0.0569 -0.0167
 2453TIP3    H128918   1.823   2.272   1.304  0.3443 -2.4515  0.4585
 2453TIP3    H228919   1.840   2.293   1.155 -0.6248  0.2758  0.6959
 2454TIP3   OH228920   5.661   0.893   0.471  0.4274  0.0834  0.1123
 2454TIP3    H128921   5.726   0.823   0.465  1.4948  0.8251  2.2052
 2454TIP3    H228922   5.593   0.857   0.529  0.4055  0.3787  0.2686
 2455TIP3   OH228923   1.659   3.237   1.498  0.4550  0.2634 -0.8892
 2455TIP3    H128924   1.608   3.316   1.512 -0.8145 -0.8482  1.2140
 2455TIP3    H228925   1.595   3.171   1.472  1.5163 -0.0955 -2.8264
 2456TIP3   OH228926   5.360   1.927   8.247  0.3355  0.0564 -0.0927
 2456TIP3    H128927   5.447   1.962   8.267 -0.0477  0.6781  0.5550
 2456TIP3    H228928   5.300   1.993   8.282 -0.3981  0.0156 -1.2182
 2457TIP3   OH228929   5.188   3.386   1.184  0.0676  0.0104  0.0125
 2457TIP3    H128930   5.220   3.399   1.274 -0.0236  0.1589  0.0222
 2457TIP3    H228931   5.187   3.474   1.146 -1.0234  0.1050  0.2384
 2458TIP3   OH228932   6.018   1.672   1.899 -0.2150 -0.4272  0.2674
 2458TIP3    H128933   5.950   1.606   1.908 -0.2639 -0.4596 -0.3265
 2458TIP3    H228934   6.009   1.727   1.977 -1.2588 -0.1170 -0.0583
 2459TIP3   OH228935   1.634   3.911   7.465 -0.7554  0.6103  0.2960
 2459TIP3    H128936   1.603   3.948   7.382 -0.9210 -0.8684 -0.3418
 2459TIP3    H228937   1.575   3.837   7.481  1.2909 -1.1930 -0.0235
 2460TIP3   OH228938   3.828   6.061   6.636 -0.6933  0.0041  0.3168
 2460TIP3    H128939   3.890   6.122   6.596  2.0102 -2.3410  0.6339
 2460TIP3    H228940   3.744   6.084   6.596  1.0690  0.4696 -3.6869
 2461TIP3   OH228941   4.127   5.320   7.269  0.1721 -0.5069  0.0932
 2461TIP3    H128942   4.193   5.269   7.223  1.3890  0.7383  0.4046
 2461TIP3    H228943   4.050   5.263   7.271  1.4719 -2.3442  0.4547
 2462TIP3   OH228944   4.477   6.339   8.498 -0.9141 -0.8601 -0.6014
 2462TIP3    H128945   4.488   6.390   8.579 -1.2703 -0.2738 -0.9141
 2462TIP3    H228946   4.411   6.388   8.449 -0.6784 -1.2032 -1.2596
 2463TIP3   OH228947   5.889   0.190   7.448  0.0325  0.0912  0.2644
 2463TIP3    H128948   5.923   0.243   7.520 -0.4005  1.3073 -0.3994
 2463TIP3    H228949   5.940   0.109   7.452  2.1756  1.3467  0.0591
 2464TIP3   OH228950   6.366   4.130   8.088 -0.3587  0.6009  0.2290
 2464TIP3    H128951   6.405   4.206   8.131  0.7919  0.6195 -0.7914
 2464TIP3    H228952   6.415   4.121   8.006 -0.6256 -1.1088  0.2189
 2465TIP3   OH228953   5.701   3.384   6.690 -0.1796  0.1825  0.3121
 2465TIP3    H128954   5.757   3.410   6.616  1.1476  0.5847  1.4142
 2465TIP3    H228955   5.617   3.364   6.650  0.5890  0.0845 -1.3550
 2466TIP3   OH228956   1.980   3.228   0.178  0.1778 -0.8697 -0.4132
 2466TIP3    H128957   1.921   3.278   0.123  1.2270 -2.5075 -3.2268
 2466TIP3    H228958   1.923   3.169   0.228 -0.7583  0.1969 -0.1842
 2467TIP3   OH228959   5.571   5.104   7.144 -0.0272 -0.1025  0.9251
 2467TIP3    H128960   5.552   5.120   7.052 -1.5030  0.2262  1.2605
 2467TIP3    H228961   5.564   5.009   7.154  1.2904 -0.2635  0.4777
 2468TIP3   OH228962   0.159   0.200   8.358  0.5878  0.1406 -0.4266
 2468TIP3    H128963   0.090   0.134   8.364 -2.0419  2.5426 -1.7216
 2468TIP3    H228964   0.221   0.165   8.294  0.5193 -1.9899  0.5926
 2469TIP3   OH228965   4.848   5.998   8.695  0.0844  0.5546  0.0791
 2469TIP3    H128966   4.776   6.052   8.727 -0.7736 -0.6851  0.3211
 2469TIP3    H228967   4.885   5.958   8.773 -1.5067 -1.8599 -0.2888
 2470TIP3   OH228968   0.196   6.349   2.226  0.8204  0.2447  0.4507
 2470TIP3    H128969   0.284   6.324   2.198  0.5851 -0.4999  0.3495
 2470TIP3    H228970   0.154   6.381   2.146  1.6991  2.7444  0.9210
 2471TIP3   OH228971   4.553   1.596   1.029 -0.0619  0.2231  0.3920
 2471TIP3    H128972   4.581   1.650   0.954  1.6272 -0.2848  0.6298
 2471TIP3    H228973   4.492   1.652   1.076  0.9950  1.6420  0.1611
 2472TIP3   OH228974   1.424   2.328   7.829  0.2219  0.6355 -0.1803
 2472TIP3    H128975   1.366   2.404   7.837 -0.3857  0.2668 -0.9138
 2472TIP3    H228976   1.404   2.292   7.743  2.7281  1.4454 -1.1875
 2473TIP3   OH228977   1.545   3.040   7.469  0.3705  0.3763 -0.2560
 2473TIP3    H128978   1.584   3.083   7.546 -1.5280 -1.0859  1.6396
 2473TIP3    H228979   1.607   3.059   7.398 -0.0948  6.0238  0.3261
 2474TIP3   OH228980   0.541   1.768   0.869 -0.2001  0.0873 -0.6248
 2474TIP3    H128981   0.577   1.687   0.905 -1.2515 -0.0384  0.1910
 2474TIP3    H228982   0.541   1.753   0.774 -0.0129 -0.7111 -0.5103
 2475TIP3   OH228983   2.895   1.349   7.727  0.0985 -0.0614  0.3054
 2475TIP3    H128984   2.926   1.285   7.663  0.7680 -0.2945  0.8520
 2475TIP3    H228985   2.805   1.322   7.746 -0.0203 -0.1390 -0.3429
 2476TIP3   OH228986   2.242   3.866   1.225 -0.1477 -0.0355  0.0528
 2476TIP3    H128987   2.257   3.892   1.316  1.2629  0.6292 -0.3368
 2476TIP3    H228988   2.150   3.886   1.209 -0.7057 -1.1535  1.6346
 2477TIP3   OH228989   4.261   4.012   0.818  0.1642 -0.2783  0.2415
 2477TIP3    H128990   4.268   4.065   0.897  0.4143 -2.0764  1.4910
 2477TIP3    H228991   4.210   3.935   0.845  1.9047 -1.8799 -0.7825
 2478TIP3   OH228992   2.587   0.336   7.450 -0.3638 -0.7411 -0.9736
 2478TIP3    H128993   2.515   0.285   7.488 -1.7700  0.3153 -2.1174
 2478TIP3    H228994   2.594   0.412   7.508 -0.2734 -0.7597 -0.9602
 2479TIP3   OH228995   5.472   4.225   2.541 -0.6830  0.3972  0.2201
 2479TIP3    H128996   5.388   4.182   2.524 -0.7396  0.2174  0.9278
 2479TIP3    H228997   5.455   4.318   2.528 -0.5543  0.2257 -1.3516
 2480TIP3   OH228998   1.322   5.722   7.469  0.5843  0.2631 -0.9972
 2480TIP3    H128999   1.344   5.648   7.412  0.8255 -0.1914 -0.3235
 2480TIP3    H229000   1.229   5.738   7.453  0.7499  0.4233 -1.8367
 2481TIP3   OH229001   1.543   2.169   8.379  0.1090 -0.2898 -0.0597
 2481TIP3    H129002   1.453   2.181   8.410  0.4512  0.1479  0.8087
 2481TIP3    H229003   1.592   2.242   8.417  0.6048  0.1628 -1.5010
 2482TIP3   OH229004   0.504   3.539   8.119  0.0109  0.5662  0.3075
 2482TIP3    H129005   0.448   3.571   8.048  0.6375  0.5784 -0.1926
 2482TIP3    H229006   0.443   3.499   8.182 -0.8246  2.7685  1.0026
 2483TIP3   OH229007   0.216   2.644   7.968 -0.1566  0.2592 -0.0925
 2483TIP3    H129008   0.169   2.595   8.035 -0.1803  0.1439 -0.1946
 2483TIP3    H229009   0.299   2.667   8.010  0.1299 -0.4280 -0.2624
 2484TIP3   OH229010   1.033   5.680   7.898 -0.1970  0.3482 -0.0783
 2484TIP3    H129011   0.978   5.739   7.846 -0.5749  0.4052  0.3801
 2484TIP3    H229012   1.116   5.727   7.908  0.4578 -0.3259 -1.9641
 2485TIP3   OH229013   0.230   3.916   6.629  0.2124 -0.1990  0.5462
 2485TIP3    H129014   0.242   3.843   6.568  0.7020 -0.4314  0.9127
 2485TIP3    H229015   0.147   3.897   6.673 -0.0642 -0.1120  0.0664
 2486TIP3   OH229016   5.833   4.115   1.938 -0.1732  0.3139  0.3794
 2486TIP3    H129017   5.841   4.209   1.921  0.3344  0.3724  0.8678
 2486TIP3    H229018   5.781   4.081   1.866 -0.1709  0.9354  0.0778
 2487TIP3   OH229019   6.170   1.464   1.178  0.8598 -0.4965 -0.3023
 2487TIP3    H129020   6.124   1.523   1.239  1.4754 -0.2012 -0.1168
 2487TIP3    H229021   6.120   1.383   1.181 -1.1212  0.5753 -1.9569
 2488TIP3   OH229022   1.178   1.901   0.884 -0.1375  0.0176 -0.2261
 2488TIP3    H129023   1.121   1.971   0.916 -0.9555 -0.8705  0.3262
 2488TIP3    H229024   1.197   1.925   0.793  1.7061  2.2598  0.6567
 2489TIP3   OH229025   4.617   1.732   0.237 -0.1006 -0.1928 -0.1292
 2489TIP3    H129026   4.663   1.785   0.171  2.3017 -1.0069  0.7821
 2489TIP3    H229027   4.594   1.651   0.191 -0.3838  0.1088 -0.5249
 2490TIP3   OH229028   3.057   6.017   8.588  0.7773  0.8328  0.3057
 2490TIP3    H129029   3.120   6.048   8.523  1.1366 -0.0290  0.2271
 2490TIP3    H229030   2.974   6.056   8.562  0.9204  0.5100 -0.6769
 2491TIP3   OH229031   3.519   1.386   6.559  0.1408 -0.4936 -0.4826
 2491TIP3    H129032   3.548   1.335   6.483 -1.3776 -1.7828 -0.2449
 2491TIP3    H229033   3.431   1.415   6.536  0.1330  0.1447  0.3054
 2492TIP3   OH229034   3.744   0.796   1.169 -0.3969 -0.5047  0.3116
 2492TIP3    H129035   3.806   0.735   1.131  0.3768  0.5792 -0.2234
 2492TIP3    H229036   3.744   0.871   1.109  0.4971  1.0494  2.1364
 2493TIP3   OH229037   0.999   6.062   6.689  0.3623  0.2565  0.0337
 2493TIP3    H129038   1.048   6.136   6.727 -1.1935  1.2318  0.1985
 2493TIP3    H229039   1.039   5.984   6.729  0.4170  1.1321  1.7864
 2494TIP3   OH229040   1.056   3.786   1.024  0.5893 -0.2748  0.0762
 2494TIP3    H129041   1.102   3.870   1.031 -0.9827  0.5157  1.3980
 2494TIP3    H229042   0.968   3.804   1.056 -0.2675 -2.0728 -1.1186
 2495TIP3   OH229043   4.516   2.083   6.860 -0.4077  0.2877 -0.4034
 2495TIP3    H129044   4.554   2.000   6.889 -1.1635 -0.3870 -1.2598
 2495TIP3    H229045   4.591   2.142   6.851 -0.1495  0.6920  3.1601
 2496TIP3   OH229046   5.166   2.271   2.450  0.0695  0.4316 -0.4108
 2496TIP3    H129047   5.082   2.272   2.406  1.1541  0.5477 -2.6058
 2496TIP3    H229048   5.194   2.363   2.451 -0.2556  0.5480  1.2661
 2497TIP3   OH229049   3.674   5.768   8.644 -0.1149  0.0443  0.2860
 2497TIP3    H129050   3.596   5.778   8.588 -0.2807 -4.6369 -0.6678
 2497TIP3    H229051   3.748   5.775   8.583 -0.0130 -0.0693  0.3989
 2498TIP3   OH229052   4.765   3.477   6.679  0.7543 -0.8271 -0.2577
 2498TIP3    H129053   4.818   3.451   6.755  2.1571 -2.0705 -1.5841
 2498TIP3    H229054   4.828   3.483   6.607 -0.6035 -0.1307 -1.4323
 2499TIP3   OH229055   2.524   3.929   7.811 -0.6404 -0.2512 -0.1933
 2499TIP3    H129056   2.510   3.886   7.895 -0.7525  0.7628  0.3221
 2499TIP3    H229057   2.439   3.967   7.789  0.1138  2.2906  0.8751
 2500TIP3   OH229058   0.863   4.539   6.887 -0.1916 -0.1678  0.4843
 2500TIP3    H129059   0.957   4.523   6.877 -0.4372 -0.8865 -0.8557
 2500TIP3    H229060   0.851   4.629   6.855 -0.3197 -0.9814 -1.9396
 2501TIP3   OH229061   4.716   4.033   7.175 -0.5063  0.3598 -0.6785
 2501TIP3    H129062   4.787   4.059   7.234 -1.7559 -0.0096  1.0515
 2501TIP3    H229063   4.677   4.116   7.146 -0.6467  0.5355 -0.0070
 2502TIP3   OH229064   4.450   2.190   1.017  0.7130 -0.0342  0.2223
 2502TIP3    H129065   4.426   2.249   1.089  0.5912  0.0767  0.0892
 2502TIP3    H229066   4.506   2.243   0.960  0.9124 -0.1594  0.2996
 2503TIP3   OH229067   3.007   0.989   2.164  0.0343  0.3603 -0.4955
 2503TIP3    H129068   2.930   1.013   2.112  0.0296  0.8179 -0.2846
 2503TIP3    H229069   3.001   0.894   2.173 -1.1532  0.5026  0.5270
 2504TIP3   OH229070   3.138   3.913   7.199  0.3036  0.2006 -0.1451
 2504TIP3    H129071   3.197   3.856   7.149 -0.0169  1.5776 -2.2324
 2504TIP3    H229072   3.195   3.957   7.262  1.3067  0.4816 -1.2041
 2505TIP3   OH229073   1.107   1.605   1.042 -0.3217  0.0516 -0.0888
 2505TIP3    H129074   1.014   1.620   1.058 -0.3286  0.2771 -0.3379
 2505TIP3    H229075   1.110   1.565   0.955 -0.3152 -1.5195  0.5988
 2506TIP3   OH229076   2.271   3.084   0.743  0.3799  0.4603  0.2131
 2506TIP3    H129077   2.186   3.058   0.781  0.0926  0.7695 -0.2097
 2506TIP3    H229078   2.249   3.155   0.682  0.7127 -0.6506 -1.2519
 2507TIP3   OH229079   0.725   5.765   8.704 -0.2083  0.5026  0.3978
 2507TIP3    H129080   0.756   5.796   8.790  0.3811  1.0107  0.0117
 2507TIP3    H229081   0.648   5.711   8.724  0.8102 -0.6586  1.3896
 2508TIP3   OH229082   2.299   2.716   8.681 -0.1128 -0.4232 -0.3889
 2508TIP3    H129083   2.302   2.634   8.732 -1.0720  0.5608  1.3548
 2508TIP3    H229084   2.208   2.721   8.650  0.0886 -0.2743 -0.9560
 2509TIP3   OH229085   6.254   4.748   6.651  0.0245  0.6925 -0.2973
 2509TIP3    H129086   6.287   4.816   6.710 -0.6908  2.5495 -1.9196
 2509TIP3    H229087   6.163   4.774   6.633 -0.1990 -0.5762 -1.1405
 2510TIP3   OH229088   1.723   5.566   0.601 -0.1367  0.0569  0.2475
 2510TIP3    H129089   1.813   5.552   0.628 -0.5203  0.6147  1.9420
 2510TIP3    H229090   1.715   5.661   0.590 -0.6031  0.0546  0.5013
 2511TIP3   OH229091   3.472   5.769   8.454  0.9206  0.1330 -0.2451
 2511TIP3    H129092   3.537   5.749   8.387 -0.4418 -1.4339 -1.1854
 2511TIP3    H229093   3.453   5.862   8.442  1.2495  0.0579 -1.5422
 2512TIP3   OH229094   6.608   6.246   1.030 -0.3300 -0.0174  0.2604
 2512TIP3    H129095   6.615   6.208   1.117  0.8767  0.0412  0.2024
 2512TIP3    H229096   6.656   6.187   0.973  0.1658  0.7151 -0.1052
 2513TIP3   OH229097   3.816   6.010   1.045  0.4218 -0.4631 -0.2004
 2513TIP3    H129098   3.733   5.994   1.001  0.2293 -2.4312  0.7594
 2513TIP3    H229099   3.832   5.931   1.097  1.5897  0.9135  1.7126
 2514TIP3   OH229100   0.666   4.804   0.806  0.4274 -0.7823 -0.1219
 2514TIP3    H129101   0.694   4.715   0.828  3.3190  0.1460  0.4101
 2514TIP3    H229102   0.744   4.857   0.818 -0.1114  1.2937 -4.0475
 2515TIP3   OH229103   2.111   5.777   7.956  0.1276  0.0735  0.4213
 2515TIP3    H129104   2.067   5.845   7.905 -0.7326  2.1230  3.6477
 2515TIP3    H229105   2.197   5.813   7.977  0.5580 -0.8306  0.2633
 2516TIP3   OH229106   2.502   3.035   1.826 -0.0068  0.0734  0.2491
 2516TIP3    H129107   2.560   3.085   1.768  1.8028 -1.8124  0.2966
 2516TIP3    H229108   2.422   3.087   1.831  0.1503  0.8812 -3.0613
 2517TIP3   OH229109   5.332   4.128   7.080  0.0189  0.3130  0.0173
 2517TIP3    H129110   5.374   4.076   7.148  0.0912  1.2310  0.7040
 2517TIP3    H229111   5.255   4.078   7.055  0.0737 -0.1054  0.6717
 2518TIP3   OH229112   5.376   4.850   7.465 -0.1025 -0.3311  0.6310
 2518TIP3    H129113   5.296   4.796   7.461 -0.2382 -0.1094  0.3771
 2518TIP3    H229114   5.347   4.932   7.504 -0.3645  0.4154 -1.0778
 2519TIP3   OH229115   3.785   5.335   8.425  0.3088  0.0984  0.6918
 2519TIP3    H129116   3.819   5.398   8.490  1.3110 -0.4244  0.6870
 2519TIP3    H229117   3.860   5.280   8.404 -0.7031 -1.5296  1.1770
 2520TIP3   OH229118   2.360   5.379   0.360  0.6916 -0.4006  0.1447
 2520TIP3    H129119   2.334   5.296   0.400 -1.0404  0.3369  0.6352
 2520TIP3    H229120   2.371   5.359   0.267 -0.0365 -1.1082  0.2051
 2521TIP3   OH229121   5.610   3.532   1.134  0.8805 -0.1003  0.5964
 2521TIP3    H129122   5.672   3.587   1.085  1.2856 -0.1965  0.9897
 2521TIP3    H229123   5.551   3.594   1.175  0.5021 -0.0195 -0.0507
 2522TIP3   OH229124   2.145   4.870   8.622  0.2740  0.6149  0.0536
 2522TIP3    H129125   2.211   4.811   8.659 -2.8221 -1.5724  2.6161
 2522TIP3    H229126   2.133   4.937   8.688 -0.0219  1.0336 -0.4214
 2523TIP3   OH229127   3.080   3.476   7.996  0.2134 -0.9416  0.4519
 2523TIP3    H129128   3.134   3.551   7.971  1.1090 -1.9850 -0.9418
 2523TIP3    H229129   3.140   3.420   8.046  0.2872 -1.8725 -0.6625
 2524TIP3   OH229130   3.914   5.496   8.177  0.3224 -0.0253  0.0611
 2524TIP3    H129131   3.894   5.529   8.089  1.3558 -1.7866 -0.8980
 2524TIP3    H229132   3.889   5.403   8.174  1.5460 -0.4280  1.1893
 2525TIP3   OH229133   3.327   3.905   2.041 -0.1175 -0.2741 -0.3826
 2525TIP3    H129134   3.344   3.811   2.050  0.8590 -0.3107 -2.1730
 2525TIP3    H229135   3.402   3.938   1.992 -0.4503  1.4569  0.2199
 2526TIP3   OH229136   3.481   0.249   0.587 -0.1374 -0.1661 -0.0808
 2526TIP3    H129137   3.486   0.153   0.592 -1.1171 -0.3206 -1.3913
 2526TIP3    H229138   3.553   0.280   0.642  1.2575 -1.6845 -0.9682
 2527TIP3   OH229139   0.254   6.174   0.104  0.5528 -0.8987 -0.1255
 2527TIP3    H129140   0.211   6.116   0.168 -0.2488 -0.5035 -0.3073
 2527TIP3    H229141   0.243   6.262   0.140  2.0709 -0.8624  0.3238
 2528TIP3   OH229142   3.514   0.344   6.625 -0.3449 -0.3681  0.3463
 2528TIP3    H129143   3.448   0.315   6.561 -1.8152  2.7458  0.2783
 2528TIP3    H229144   3.508   0.440   6.624  2.9859 -0.0184  1.6856
 2529TIP3   OH229145   1.103   1.503   8.611  0.1363 -0.2111 -0.0081
 2529TIP3    H129146   1.175   1.459   8.657 -0.1746 -1.5882 -0.7737
 2529TIP3    H229147   1.147   1.553   8.542  0.5100  0.8812  0.9856
 2530TIP3   OH229148   6.440   3.240   0.683 -0.1795 -0.3107  0.4165
 2530TIP3    H129149   6.477   3.328   0.692 -1.3698  0.4154 -1.3295
 2530TIP3    H229150   6.497   3.196   0.621 -1.7469  0.6018 -1.7880
 2531TIP3   OH229151   6.401   6.522   0.074  0.2634 -0.0765  0.3254
 2531TIP3    H129152   6.445   6.538  -0.010  2.4935 -1.7634  1.0602
 2531TIP3    H229153   6.370   6.431   0.067  0.2805 -0.1587  1.2290
 2532TIP3   OH229154   0.345   0.210   6.006  0.0873 -0.5058  0.0961
 2532TIP3    H129155   0.288   0.194   6.082 -3.2959  3.4435 -1.2461
 2532TIP3    H229156   0.303   0.163   5.934 -0.9842  1.5082 -0.6691
 2533TIP3   OH229157   2.588   0.878   8.534 -0.0773 -0.5271  0.0913
 2533TIP3    H129158   2.500   0.852   8.563  0.0696 -1.3290 -0.1699
 2533TIP3    H229159   2.609   0.816   8.464  0.8517 -0.5620  0.3978
 2534TIP3   OH229160   4.018   4.147   7.173 -0.1975 -0.2246  0.0077
 2534TIP3    H129161   3.973   4.145   7.089  0.0349  0.6353 -0.1474
 2534TIP3    H229162   3.972   4.082   7.227  0.5561 -1.8321 -1.2134
 2535TIP3   OH229163   4.698   3.252   1.128 -0.0970 -0.0425  1.1155
 2535TIP3    H129164   4.716   3.180   1.067  0.2601  1.0632 -0.1439
 2535TIP3    H229165   4.784   3.285   1.152 -0.2117  2.0112 -0.9195
 2536TIP3   OH229166   1.434   2.225   0.177 -0.2933  0.0666  0.1438
 2536TIP3    H129167   1.437   2.162   0.249  0.3670 -1.6262 -1.2851
 2536TIP3    H229168   1.434   2.311   0.220  0.1530 -0.8665  2.1398
 2537TIP3   OH229169   4.752   2.222   6.937  0.7350 -0.2191 -0.5309
 2537TIP3    H129170   4.689   2.281   6.978 -0.7606 -1.0789 -1.4732
 2537TIP3    H229171   4.827   2.278   6.916  0.2190  0.8883  0.4482
 2538TIP3   OH229172   4.528   3.333   8.305 -0.0584  0.4876 -0.3272
 2538TIP3    H129173   4.490   3.284   8.232  1.4424 -0.0127 -0.8171
 2538TIP3    H229174   4.486   3.419   8.300 -1.8000 -0.3190 -0.2340
 2539TIP3   OH229175   2.796   3.573   8.309  0.1701 -0.1212 -0.2198
 2539TIP3    H129176   2.718   3.626   8.290 -0.2334  0.1482  1.9716
 2539TIP3    H229177   2.870   3.631   8.289 -0.1591 -0.0919 -1.4897
 2540TIP3   OH229178   1.979   3.761   7.095  0.2246 -0.1232 -0.0321
 2540TIP3    H129179   1.936   3.822   7.035 -0.3209 -0.0020  0.4831
 2540TIP3    H229180   1.909   3.708   7.130  0.5643 -0.2975  0.3887
 2541TIP3   OH229181   5.789   3.741   0.217  0.1967 -0.5663  0.2703
 2541TIP3    H129182   5.858   3.807   0.231 -1.1295  1.3150 -1.4805
 2541TIP3    H229183   5.712   3.778   0.259 -0.7447 -0.6499 -1.3227
 2542TIP3   OH229184   0.168   3.670   2.158 -0.3476 -0.1973 -0.2340
 2542TIP3    H129185   0.164   3.765   2.164  0.6756 -0.1699  0.3546
 2542TIP3    H229186   0.253   3.647   2.196 -0.7179 -1.3691 -0.0520
 2543TIP3   OH229187   1.160   5.354   7.562 -0.0316  0.5720  0.1380
 2543TIP3    H129188   1.210   5.274   7.544  0.5575  1.4788 -2.7804
 2543TIP3    H229189   1.219   5.408   7.614  1.1373  0.6270 -1.1792
 2544TIP3   OH229190   3.430   5.258   7.205  0.2094 -0.1122 -0.4376
 2544TIP3    H129191   3.518   5.249   7.170  1.5553  1.0491  2.3627
 2544TIP3    H229192   3.420   5.184   7.265  0.0987  0.8653  0.7785
 2545TIP3   OH229193   6.000   6.376   0.957  0.3110 -0.0444  0.3953
 2545TIP3    H129194   5.994   6.467   0.928  1.5382 -0.2737 -0.6543
 2545TIP3    H229195   5.971   6.378   1.048  1.0294  1.5409  0.6182
 2546TIP3   OH229196   1.914   2.749   6.816 -0.0715 -0.0401 -1.2001
 2546TIP3    H129197   1.853   2.683   6.783  0.9200 -0.5591 -2.0478
 2546TIP3    H229198   1.998   2.704   6.819  0.8569  1.4519 -2.8493
 2547TIP3   OH229199   3.980   3.630   0.360 -0.3936  0.1678  0.1711
 2547TIP3    H129200   3.940   3.717   0.371 -0.5640  0.0691  0.3571
 2547TIP3    H229201   3.929   3.589   0.291  0.1262  0.4688 -0.3972
 2548TIP3   OH229202   3.747   5.142   1.167 -0.7161  0.1752  0.3447
 2548TIP3    H129203   3.738   5.233   1.138 -2.2796 -0.6603 -2.0673
 2548TIP3    H229204   3.657   5.113   1.183 -0.4054 -1.4745 -0.7507
 2549TIP3   OH229205   5.554   3.871   0.772  0.3704 -0.1298 -0.2971
 2549TIP3    H129206   5.639   3.832   0.756  0.8737  0.6063  0.4660
 2549TIP3    H229207   5.492   3.799   0.767  1.2120 -0.9352  0.5812
 2550TIP3   OH229208   0.774   1.424   7.614 -0.3088  0.1212 -0.3848
 2550TIP3    H129209   0.736   1.365   7.549 -1.9589  0.3241  0.3492
 2550TIP3    H229210   0.837   1.477   7.564 -1.9784  0.7089 -1.9795
 2551TIP3   OH229211   3.920   4.484   8.714 -0.2636 -0.1472 -0.0733
 2551TIP3    H129212   3.972   4.432   8.652 -0.9394 -0.8095 -0.0963
 2551TIP3    H229213   3.866   4.540   8.659 -1.0324 -0.8999 -0.1045
 2552TIP3   OH229214   2.812   2.314   0.438 -0.0466  0.3275 -0.7323
 2552TIP3    H129215   2.803   2.223   0.467  0.5233 -0.4654 -2.8442
 2552TIP3    H229216   2.889   2.314   0.381 -0.4818  1.9826 -1.3876
 2553TIP3   OH229217   3.462   1.972   7.600 -0.1226  0.0201  0.2876
 2553TIP3    H129218   3.375   2.004   7.624 -0.7743  0.0582 -1.9341
 2553TIP3    H229219   3.453   1.943   7.510  1.8882 -1.1453  0.4055
 2554TIP3   OH229220   6.750   0.175   1.089  0.6644 -0.5597 -0.3358
 2554TIP3    H129221   6.712   0.153   1.174  1.7276 -0.0317  0.2933
 2554TIP3    H229222   6.773   0.268   1.096 -1.5540  0.2257 -2.1023
 2555TIP3   OH229223   2.316   0.183   7.426 -0.4553  0.2557 -0.0970
 2555TIP3    H129224   2.329   0.090   7.446  0.3873  0.6983  1.5765
 2555TIP3    H229225   2.231   0.204   7.465 -0.1970  0.3965  0.4076
 2556TIP3   OH229226   4.241   1.400   1.245 -0.1520 -0.4955  0.2195
 2556TIP3    H129227   4.234   1.352   1.162 -2.0533 -1.3274  0.7862
 2556TIP3    H229228   4.332   1.391   1.271  0.1292 -1.5287 -1.0370
 2557TIP3   OH229229   1.945   1.635   1.608  0.7153 -0.0730  0.6878
 2557TIP3    H129230   1.851   1.631   1.629  0.4798 -0.2458 -0.3273
 2557TIP3    H229231   1.955   1.714   1.555  1.3875  0.6453  1.8463
 2558TIP3   OH229232   2.351   6.462   6.861  0.2741 -0.6328 -0.4906
 2558TIP3    H129233   2.390   6.403   6.796  0.3888 -0.5969 -0.4547
 2558TIP3    H229234   2.268   6.420   6.884  0.4494 -0.8866 -0.3128
 2559TIP3   OH229235   4.244   0.684   8.769 -0.2004  0.1877 -0.1363
 2559TIP3    H129236   4.322   0.674   8.713 -0.1962 -0.3743 -0.0378
 2559TIP3    H229237   4.275   0.659   8.856  0.3797  3.1716  0.5996
 2560TIP3   OH229238   3.657   6.147   7.504 -0.4852  0.2966  0.6312
 2560TIP3    H129239   3.677   6.184   7.418  0.6145 -0.4557  0.5414
 2560TIP3    H229240   3.619   6.219   7.554 -0.1061  1.0314 -0.1305
 2561TIP3   OH229241   1.568   5.624   1.382 -0.2054 -0.1560  0.2249
 2561TIP3    H129242   1.526   5.545   1.416 -0.9818  0.4577  0.7044
 2561TIP3    H229243   1.573   5.608   1.287  1.4887 -1.6389  0.5102
 2562TIP3   OH229244   0.903   3.154   6.527 -0.3736 -0.3724  0.3130
 2562TIP3    H129245   0.905   3.122   6.437  0.6578 -0.9841  0.5368
 2562TIP3    H229246   0.881   3.247   6.519 -1.4911 -0.6914 -0.4790
 2563TIP3   OH229247   2.555   5.981   7.744 -0.0326  0.0037 -0.6133
 2563TIP3    H129248   2.624   5.948   7.687 -0.6453  0.0496 -1.4012
 2563TIP3    H229249   2.508   5.902   7.772  2.1114 -0.3742  2.3871
 2564TIP3   OH229250   0.697   6.467   6.987 -0.4378 -0.3718  0.3692
 2564TIP3    H129251   0.670   6.396   6.930  2.3995 -1.2648 -0.0282
 2564TIP3    H229252   0.701   6.544   6.930  0.3235 -0.7939 -0.1605
 2565TIP3   OH229253   0.829   1.803   1.768  0.2170 -0.6363 -0.4370
 2565TIP3    H129254   0.806   1.818   1.676  0.6029  0.5866 -0.3565
 2565TIP3    H229255   0.784   1.874   1.814 -0.2660 -1.4508  0.3732
 2566TIP3   OH229256   1.718   2.241   0.761 -0.1053 -0.3190  0.2965
 2566TIP3    H129257   1.743   2.183   0.689 -1.2801 -0.3071 -0.1419
 2566TIP3    H229258   1.701   2.326   0.719 -0.4279 -0.2125  0.6335
 2567TIP3   OH229259   1.264   6.351   6.572 -0.0508  0.3452  0.4185
 2567TIP3    H129260   1.295   6.270   6.532 -0.5713 -0.5441  1.7378
 2567TIP3    H229261   1.252   6.411   6.499 -0.8801 -1.1722 -0.7451
 2568TIP3   OH229262   5.395   1.688   6.925 -0.1759 -0.1062  0.4209
 2568TIP3    H129263   5.436   1.726   6.847  0.8028 -2.3758 -0.2464
 2568TIP3    H229264   5.465   1.686   6.991  0.1932 -1.8344  0.0306
 2569TIP3   OH229265   0.286   2.974   1.594 -0.3804 -0.5058 -0.3099
 2569TIP3    H129266   0.267   3.047   1.535  1.9430 -0.3616 -0.9745
 2569TIP3    H229267   0.285   2.896   1.539 -2.2716 -0.9593  0.2912
 2570TIP3   OH229268   3.287   3.431   6.687 -0.2459  0.1580  0.2274
 2570TIP3    H129269   3.277   3.366   6.757 -0.2373 -0.5384 -0.4019
 2570TIP3    H229270   3.247   3.510   6.722  0.2068 -0.0326  1.2149
 2571TIP3   OH229271   4.907   3.681   6.375  0.2719  0.2305  0.0751
 2571TIP3    H129272   4.995   3.645   6.381  0.5218  0.8086 -0.0568
 2571TIP3    H229273   4.889   3.716   6.462  0.2600  0.3087  0.0414
 2572TIP3   OH229274   3.139   3.078   0.699  0.2858 -0.1189  0.1611
 2572TIP3    H129275   3.198   3.069   0.624  1.6485  0.9146  1.0722
 2572TIP3    H229276   3.165   3.007   0.758 -1.8129 -1.9129 -0.9418
 2573TIP3   OH229277   1.526   2.692   0.622 -0.1445 -0.1404  0.4605
 2573TIP3    H129278   1.449   2.637   0.610  0.4053 -0.4949 -1.7739
 2573TIP3    H229279   1.592   2.655   0.564  0.9225  1.6303  0.4700
 2574TIP3   OH229280   0.894   5.218   7.135 -0.5712 -0.0242  0.6136
 2574TIP3    H129281   0.873   5.141   7.083  0.3265  0.5918 -0.7101
 2574TIP3    H229282   0.828   5.283   7.111 -0.5419  0.0501  0.7319
 2575TIP3   OH229283   4.663   0.800   0.618  0.5357 -0.3849 -0.4364
 2575TIP3    H129284   4.626   0.715   0.595 -0.0808 -0.5493  1.0887
 2575TIP3    H229285   4.758   0.786   0.615  0.4460 -1.4562  0.8648
 2576TIP3   OH229286   5.925   0.136   8.223 -0.3591 -0.4570 -0.2963
 2576TIP3    H129287   5.840   0.146   8.266  0.1412  1.0288  0.4383
 2576TIP3    H229288   5.989   0.147   8.294  0.4745 -2.8560 -0.5901
 2577TIP3   OH229289   2.896   4.760   6.463  0.4833 -0.3748  0.4783
 2577TIP3    H129290   2.924   4.719   6.381 -0.4405 -0.1245  0.0229
 2577TIP3    H229291   2.864   4.688   6.516 -1.6117 -0.2385 -0.5169
 2578TIP3   OH229292   2.561   2.972   7.769  0.0711 -0.1596 -0.1535
 2578TIP3    H129293   2.534   3.063   7.751 -0.0545 -0.4363 -1.5203
 2578TIP3    H229294   2.528   2.923   7.694  3.7350 -0.6399 -1.6880
 2579TIP3   OH229295   4.498   2.648   6.057 -0.5304  0.9693 -0.0857
 2579TIP3    H129296   4.425   2.612   6.007 -1.2106  1.2693  0.6722
 2579TIP3    H229297   4.474   2.739   6.072  0.8558  1.6069 -1.3917
 2580TIP3   OH229298   4.578   2.949   6.628  0.3689 -0.1130  0.1322
 2580TIP3    H129299   4.554   2.861   6.599  0.6786  0.1815 -1.0857
 2580TIP3    H229300   4.503   3.004   6.601  0.6167  0.1524 -0.0244
 2581TIP3   OH229301   6.617   5.722   8.437  0.5445  0.4489  0.5561
 2581TIP3    H129302   6.679   5.708   8.366  0.2891  1.1648  0.1821
 2581TIP3    H229303   6.566   5.799   8.410 -0.7473 -0.3296  0.6876
 2582TIP3   OH229304   1.675   5.819   2.282 -0.4694  0.0688 -0.3668
 2582TIP3    H129305   1.646   5.734   2.249 -0.2741 -1.6233  3.3504
 2582TIP3    H229306   1.771   5.816   2.276 -0.3943 -0.5436  0.9036
 2583TIP3   OH229307   3.377   6.650   7.656 -0.1317  0.4001 -0.0299
 2583TIP3    H129308   3.449   6.651   7.719 -0.7878  0.3057  0.7381
 2583TIP3    H229309   3.403   6.713   7.589  1.2956 -0.6431 -0.5001
 2584TIP3   OH229310   2.799   3.603   0.429  0.1407 -0.0735  0.3003
 2584TIP3    H129311   2.797   3.593   0.524  1.3012  0.5121  0.3895
 2584TIP3    H229312   2.777   3.515   0.396 -0.6209 -0.1987  1.0901
 2585TIP3   OH229313   3.028   2.863   1.422 -0.0738  0.7822  0.2979
 2585TIP3    H129314   2.976   2.928   1.469  1.4520  1.0534  1.7015
 2585TIP3    H229315   3.107   2.853   1.475  0.6675 -0.6668 -1.0083
 2586TIP3   OH229316   4.934   2.453   8.436 -0.0389 -0.0141 -0.2255
 2586TIP3    H129317   4.839   2.465   8.439 -0.1080 -0.7092  1.1011
 2586TIP3    H229318   4.969   2.541   8.418 -0.9048  0.3313 -0.2517
 2587TIP3   OH229319   6.598   2.614   6.946 -0.7005 -0.6281  0.2328
 2587TIP3    H129320   6.603   2.703   6.910 -2.4361 -1.2466 -1.7075
 2587TIP3    H229321   6.672   2.568   6.907 -0.9260 -0.5438 -0.3001
 2588TIP3   OH229322   2.876   4.621   0.527  0.2125 -0.5042 -0.1364
 2588TIP3    H129323   2.919   4.623   0.441  1.2099 -1.6346  0.3102
 2588TIP3    H229324   2.791   4.663   0.512  0.9479  0.6237 -1.3338
 2589TIP3   OH229325   0.973   6.440   7.021  0.2378  0.0492 -0.1040
 2589TIP3    H129326   1.002   6.423   7.110  0.2105 -0.3483 -0.1695
 2589TIP3    H229327   0.877   6.439   7.026  0.2343  0.6100 -0.0292
 2590TIP3   OH229328   4.596   1.150   1.177 -0.3655  0.1006  0.4060
 2590TIP3    H129329   4.525   1.120   1.234 -0.8709 -0.0780 -0.2911
 2590TIP3    H229330   4.672   1.158   1.234 -1.0135  0.5381  1.2161
 2591TIP3   OH229331   2.690   4.849   1.508  0.3829 -0.2709  0.2664
 2591TIP3    H129332   2.731   4.936   1.507  0.6403 -0.3232  2.2865
 2591TIP3    H229333   2.596   4.867   1.499  0.5037  0.1554 -0.1795
 2592TIP3   OH229334   0.776   1.302   2.047  0.3995 -0.4499  0.1260
 2592TIP3    H129335   0.727   1.379   2.015 -1.2596 -1.0534  1.0927
 2592TIP3    H229336   0.861   1.309   2.004 -0.0332  1.4235 -0.5430
 2593TIP3   OH229337   4.659   0.047   6.869 -0.1479  0.6963  0.0959
 2593TIP3    H129338   4.686  -0.042   6.848  0.9658  0.9462  0.4010
 2593TIP3    H229339   4.563   0.045   6.865 -0.1013  0.0359 -2.1081
 2594TIP3   OH229340   1.076   4.140   7.608  0.8113  0.0697 -0.0521
 2594TIP3    H129341   1.033   4.057   7.591  2.4090 -0.7301 -0.4453
 2594TIP3    H229342   1.170   4.121   7.599  1.2243  1.9217 -0.2063
 2595TIP3   OH229343   5.120   3.982   6.939  0.1338  0.4648  0.4716
 2595TIP3    H129344   5.139   3.997   6.846 -0.2793  0.8987  0.4563
 2595TIP3    H229345   5.074   3.898   6.940  0.6921  0.1479  0.3541
 2596TIP3   OH229346   1.422   0.432   0.437 -0.4070  0.5320  0.2835
 2596TIP3    H129347   1.405   0.350   0.483  1.0433 -0.5223 -0.9903
 2596TIP3    H229348   1.450   0.492   0.506  2.2104 -1.1505  0.8128
 2597TIP3   OH229349   2.305   2.644   7.428 -0.2401 -0.0027 -0.1374
 2597TIP3    H129350   2.271   2.569   7.476 -0.1052  0.0526  0.0468
 2597TIP3    H229351   2.267   2.636   7.340 -0.8392  0.1432  0.1059
 2598TIP3   OH229352   3.591   5.971   7.290  0.3908  0.0568 -1.2253
 2598TIP3    H129353   3.645   5.982   7.369 -1.2680  0.5305 -0.1094
 2598TIP3    H229354   3.651   5.932   7.226  1.9661  0.2561  0.0467
 2599TIP3   OH229355   2.540   4.175   0.553  0.0650  0.1477  0.0059
 2599TIP3    H129356   2.485   4.174   0.632 -1.1861 -1.2112 -0.8354
 2599TIP3    H229357   2.599   4.100   0.564  0.6734  0.6313  0.1414
 2600TIP3   OH229358   2.497   3.823   0.771  0.2258  0.4484  0.4879
 2600TIP3    H129359   2.409   3.818   0.810  0.0075  0.3182 -0.0215
 2600TIP3    H229360   2.548   3.872   0.836 -0.2576  0.6523  0.7240
 2601TIP3   OH229361   2.696   3.844   1.385  0.0056  0.1441  0.2399
 2601TIP3    H129362   2.779   3.842   1.431 -0.0484 -2.1178  0.3503
 2601TIP3    H229363   2.658   3.929   1.406  1.8858  0.8584  0.8789
 2602TIP3   OH229364   6.131   1.268   0.670  0.0564  0.3242  0.2741
 2602TIP3    H129365   6.159   1.177   0.655 -0.5851  0.2143 -0.3449
 2602TIP3    H229366   6.160   1.288   0.758  1.9217  0.1605 -0.2647
 2603TIP3   OH229367   4.949   3.749   6.953 -0.4263 -0.7742 -0.1355
 2603TIP3    H129368   4.944   3.755   7.049  2.1557 -2.4196  0.2105
 2603TIP3    H229369   4.932   3.657   6.934 -0.3816 -0.5726 -1.2036
 2604TIP3   OH229370   2.497   5.775   8.717  0.6297 -0.0104 -0.6458
 2604TIP3    H129371   2.407   5.780   8.750  1.3143 -2.5061  2.0699
 2604TIP3    H229372   2.492   5.716   8.642 -0.0436  0.1307 -0.7170
 2605TIP3   OH229373   4.749   0.041   8.170  0.0001  0.5944  0.0685
 2605TIP3    H129374   4.706   0.106   8.226 -1.4228  0.3384 -0.6800
 2605TIP3    H229375   4.825   0.087   8.134  0.0585  1.2463  0.9922
 2606TIP3   OH229376   1.955   2.590   7.691 -0.6999 -0.2816  0.4231
 2606TIP3    H129377   2.006   2.522   7.647 -0.5975  1.2323 -2.0224
 2606TIP3    H229378   1.864   2.572   7.666 -0.7400  0.0905  0.2925
 2607TIP3   OH229379   3.150   2.516   1.077  0.4499  0.0479 -0.3753
 2607TIP3    H129380   3.219   2.449   1.073 -0.4665 -0.9995  0.6258
 2607TIP3    H229381   3.140   2.533   1.170  0.1989  1.1097 -0.5913
 2608TIP3   OH229382   6.146   2.301   8.537 -0.2582 -0.0034 -0.4183
 2608TIP3    H129383   6.151   2.302   8.633  1.3343 -0.1462 -0.4703
 2608TIP3    H229384   6.190   2.221   8.511  2.4355  1.6285 -1.3382
 2609TIP3   OH229385   6.693   2.084   7.423 -0.5881  0.2799  0.5166
 2609TIP3    H129386   6.689   2.033   7.504 -0.9390 -0.5159  0.0134
 2609TIP3    H229387   6.786   2.105   7.413 -0.2006 -1.5128 -0.0006
 2610TIP3   OH229388   1.344   1.067   0.880 -0.7688  0.4067  0.2000
 2610TIP3    H129389   1.291   1.129   0.930  0.0399  1.4334 -0.1766
 2610TIP3    H229390   1.397   1.122   0.822  0.3554 -0.6042  0.2170
 2611TIP3   OH229391   5.060   0.987   8.498 -0.1185 -0.7259  0.4095
 2611TIP3    H129392   5.000   0.964   8.427 -1.8064  0.5301  1.3553
 2611TIP3    H229393   5.057   0.912   8.557  0.8138 -1.5113 -0.5145
 2612TIP3   OH229394   1.583   6.141   6.481  0.3628  0.4910 -0.6668
 2612TIP3    H129395   1.577   6.091   6.399 -1.6843 -2.0844  0.8905
 2612TIP3    H229396   1.498   6.185   6.488  0.4210  0.4843  0.1716
 2613TIP3   OH229397   4.364   1.779   1.112 -0.1716  0.3902 -0.1331
 2613TIP3    H129398   4.341   1.849   1.051 -1.5091  0.7398  0.7285
 2613TIP3    H229399   4.294   1.780   1.177  0.5452 -0.8154  0.6966
 2614TIP3   OH229400   6.269   3.980   7.784 -0.2836  0.2532 -0.2565
 2614TIP3    H129401   6.302   3.916   7.721  1.3919  1.7423 -0.9985
 2614TIP3    H229402   6.307   3.952   7.868  1.5410  0.9280 -0.7974
 2615TIP3   OH229403   2.996   2.456   1.498 -0.2531  0.7881  0.4642
 2615TIP3    H129404   2.916   2.417   1.536  0.7363 -2.3672 -0.3693
 2615TIP3    H229405   2.964   2.522   1.438 -2.2448  0.0743  0.6541
 2616TIP3   OH229406   2.942   5.352   7.637  0.1305  0.3607  0.8151
 2616TIP3    H129407   2.999   5.284   7.602 -0.1584 -0.1994  1.4104
 2616TIP3    H229408   2.995   5.432   7.634 -0.8787  1.1606 -3.9823
 2617TIP3   OH229409   4.087   6.333   7.081 -0.3135  0.3508  0.3080
 2617TIP3    H129410   4.003   6.310   7.042 -0.1693 -0.9628  0.7400
 2617TIP3    H229411   4.149   6.330   7.008 -0.4452  0.1903  0.2021
 2618TIP3   OH229412   0.263   1.131   0.886 -0.2056  0.0243  0.5669
 2618TIP3    H129413   0.287   1.071   0.816 -1.1748  0.0710  0.1793
 2618TIP3    H229414   0.167   1.129   0.887 -0.2689  1.8269  0.3170
 2619TIP3   OH229415   6.039   0.619   1.965 -0.2162 -0.1537  0.0117
 2619TIP3    H129416   5.957   0.644   1.922  1.2224  1.4895 -2.0150
 2619TIP3    H229417   6.031   0.654   2.054 -0.9198  1.8863 -0.7892
 2620TIP3   OH229418   2.850   4.877   1.971  0.0271 -0.3260  0.4527
 2620TIP3    H129419   2.911   4.875   2.045 -2.3872  0.3362  2.5964
 2620TIP3    H229420   2.830   4.785   1.955  0.5124 -0.4739  0.6798
 2621TIP3   OH229421   1.597   4.044   1.194 -0.2352 -0.0198 -0.8835
 2621TIP3    H129422   1.571   4.056   1.103  1.1958  0.6367 -1.2410
 2621TIP3    H229423   1.687   4.078   1.198 -0.9502  1.8590  1.2075
 2622TIP3   OH229424   2.103   6.306   0.983  0.4833  0.7184  0.3200
 2622TIP3    H129425   2.187   6.299   1.027 -0.1147 -0.2433  1.3643
 2622TIP3    H229426   2.101   6.231   0.923 -0.3273 -0.3281  1.5943
 2623TIP3   OH229427   2.348   5.400   6.256 -0.1072 -0.3712  0.2175
 2623TIP3    H129428   2.416   5.449   6.210 -0.7567 -0.0858 -0.4378
 2623TIP3    H229429   2.396   5.353   6.325  0.8199 -0.5220 -0.5110
 2624TIP3   OH229430   6.480   1.449   1.157  0.3109 -0.3548  0.1795
 2624TIP3    H129431   6.567   1.490   1.152  0.7298 -1.0031  1.6692
 2624TIP3    H229432   6.438   1.491   1.232 -0.6004 -0.2137 -0.3884
 2625TIP3   OH229433   6.383   5.151   1.180  0.1146 -0.0729  0.3080
 2625TIP3    H129434   6.404   5.136   1.272 -0.7195  1.5191  0.7958
 2625TIP3    H229435   6.290   5.134   1.174  0.5965 -2.6752 -0.8461
 2626TIP3   OH229436   3.788   3.182   1.014  0.6304 -0.1020  0.3600
 2626TIP3    H129437   3.825   3.225   0.937  1.7716 -1.2150  0.2607
 2626TIP3    H229438   3.720   3.242   1.044  0.6650  0.6977 -1.0738
 2627TIP3   OH229439   3.524   1.448   0.116  0.1225  0.6701  0.0503
 2627TIP3    H129440   3.578   1.500   0.176 -1.5365  0.7831  1.5403
 2627TIP3    H229441   3.544   1.357   0.139  0.7834  0.6816 -0.4575
 2628TIP3   OH229442   6.453   1.934   8.617  0.4482  0.5689  0.4646
 2628TIP3    H129443   6.459   1.987   8.696  1.2211  0.1526  0.6913
 2628TIP3    H229444   6.461   1.843   8.647  2.8026  0.4733 -0.2483
 2629TIP3   OH229445   1.846   4.099   7.015 -0.5240 -0.1769 -0.2560
 2629TIP3    H129446   1.906   4.071   6.946  0.7486  1.3453  0.1691
 2629TIP3    H229447   1.782   4.028   7.022  0.3147 -1.1372 -1.8040
 2630TIP3   OH229448   2.993   0.204   6.914  0.3720 -0.1728 -0.2714
 2630TIP3    H129449   2.939   0.147   6.969  0.4549 -1.0938 -1.1246
 2630TIP3    H229450   2.938   0.281   6.899 -1.2982 -1.6261 -2.1953
 2631TIP3   OH229451   4.454   4.122   7.544 -0.6474  0.1239  0.2380
 2631TIP3    H129452   4.541   4.133   7.583 -1.0808  0.6442  1.0980
 2631TIP3    H229453   4.454   4.180   7.468 -0.7578  1.3503  1.1411
 2632TIP3   OH229454   1.549   2.192   1.232 -0.4301 -0.6186 -0.0929
 2632TIP3    H129455   1.475   2.198   1.172 -1.5545  3.0055  1.3672
 2632TIP3    H229456   1.529   2.116   1.287 -2.2726 -0.6600 -0.7435
 2633TIP3   OH229457   4.841   1.927   2.260  0.4566 -0.4032  0.1864
 2633TIP3    H129458   4.920   1.937   2.207  1.6863 -1.0881  1.7948
 2633TIP3    H229459   4.788   1.862   2.213  0.5391  0.4962 -1.2100
 2634TIP3   OH229460   0.121   4.903   1.552 -0.2153  0.3778 -0.2366
 2634TIP3    H129461   0.113   4.851   1.472 -1.6279 -1.9969  1.3210
 2634TIP3    H229462   0.212   4.889   1.580  0.3008  1.2435 -1.3387
 2635TIP3   OH229463   4.934   2.766   6.571  0.3210  0.4537 -0.5899
 2635TIP3    H129464   5.015   2.775   6.521  0.8802 -0.0390  0.2027
 2635TIP3    H229465   4.886   2.697   6.526  0.4051  0.6468 -0.9793
 2636TIP3   OH229466   6.689   4.089   8.133 -0.2373  0.0038 -0.4751
 2636TIP3    H129467   6.744   4.167   8.127 -0.3000 -0.0537 -2.8303
 2636TIP3    H229468   6.741   4.026   8.182  0.4707  0.9910  0.0674
 2637TIP3   OH229469   3.603   0.566   6.881 -0.2329 -0.1294 -0.0551
 2637TIP3    H129470   3.550   0.487   6.883 -0.1645 -0.1807 -0.2963
 2637TIP3    H229471   3.578   0.610   6.800 -3.4321  2.2617  1.9946
 2638TIP3   OH229472   4.173   0.330   8.296 -0.7158 -0.3617 -0.8052
 2638TIP3    H129473   4.260   0.295   8.279  0.2916  1.1758  0.7474
 2638TIP3    H229474   4.144   0.366   8.212  1.5919  1.9752 -0.7263
 2639TIP3   OH229475   2.704   1.104   7.866  0.2641 -0.1970  0.2686
 2639TIP3    H129476   2.780   1.049   7.885 -0.0999 -0.8506 -0.1198
 2639TIP3    H229477   2.701   1.108   7.770 -0.3854 -0.4710  0.2683
 2640TIP3   OH229478   4.680   3.318   0.287 -0.0329  0.7721 -0.0006
 2640TIP3    H129479   4.755   3.277   0.244 -0.0531  0.8247 -0.0864
 2640TIP3    H229480   4.604   3.276   0.248 -0.0524  0.8485 -0.0446
 2641TIP3   OH229481   2.059   5.743   1.033 -0.0837 -0.2615 -0.1930
 2641TIP3    H129482   2.053   5.818   0.974 -0.1915 -0.5287 -0.5228
 2641TIP3    H229483   2.080   5.781   1.118  0.7487  0.0816 -0.5348
 2642TIP3   OH229484   4.169   4.404   6.945  0.2588 -0.2016 -0.3134
 2642TIP3    H129485   4.218   4.443   6.873 -0.3663 -1.1341 -1.2866
 2642TIP3    H229486   4.078   4.406   6.915  0.2382 -2.7246 -0.6108
 2643TIP3   OH229487   0.624   3.868   0.678  0.7682 -0.0225 -0.0258
 2643TIP3    H129488   0.614   3.839   0.768  2.6218 -0.3035  0.1290
 2643TIP3    H229489   0.542   3.841   0.635 -0.5733  0.9986  1.7497
 2644TIP3   OH229490   2.966   3.885   0.581 -0.2839 -0.0964  0.7776
 2644TIP3    H129491   2.912   3.872   0.659  0.5432 -3.1164  0.9789
 2644TIP3    H229492   2.902   3.901   0.511 -1.3392 -1.4673  1.3795
 2645TIP3   OH229493   5.184   4.105   7.852  0.0787  0.7937 -0.3221
 2645TIP3    H129494   5.185   4.029   7.910  0.0670  1.5027  0.6290
 2645TIP3    H229495   5.221   4.073   7.770 -0.8432 -0.4876 -0.2648
 2646TIP3   OH229496   0.340   6.572   8.160  0.4688 -1.0578  0.4854
 2646TIP3    H129497   0.314   6.485   8.129  0.0270 -0.4126 -1.0440
 2646TIP3    H229498   0.283   6.589   8.235 -0.6205 -1.4075 -0.2398
 2647TIP3   OH229499   5.308   5.712   8.786 -0.9279 -0.0725 -0.5251
 2647TIP3    H129500   5.326   5.688   8.877  2.0673 -0.7036 -1.1693
 2647TIP3    H229501   5.264   5.636   8.749 -1.2151 -0.2284  0.1267
 2648TIP3   OH229502   6.535   4.986   1.058  0.4907 -0.5963 -0.3648
 2648TIP3    H129503   6.494   5.068   1.086  1.4549  0.2148 -1.2471
 2648TIP3    H229504   6.463   4.924   1.052 -0.2572  0.1753  0.3346
 2649TIP3   OH229505   4.539   4.018   0.355 -0.5341  0.3954 -0.1224
 2649TIP3    H129506   4.572   4.107   0.342  1.5827 -0.2353  0.4024
 2649TIP3    H229507   4.539   3.979   0.268 -0.6207  0.6413 -0.2324
 2650TIP3   OH229508   5.398   0.538   0.446  0.1453 -0.2289  0.3128
 2650TIP3    H129509   5.399   0.564   0.354 -1.0562 -1.9582 -0.2452
 2650TIP3    H229510   5.490   0.538   0.472  0.5112  0.1793 -0.9243
 2651TIP3   OH229511   5.323   4.658   0.166  0.8420  0.1768  0.3973
 2651TIP3    H129512   5.348   4.583   0.113  1.5373  0.8117 -0.1872
 2651TIP3    H229513   5.278   4.620   0.242  1.1051 -0.8174  0.0632
 2652TIP3   OH229514   3.664   4.729   0.499 -0.0749  0.0088 -0.1251
 2652TIP3    H129515   3.744   4.684   0.473  1.0831  0.7918  1.8361
 2652TIP3    H229516   3.661   4.807   0.445  0.4908 -0.0294 -0.2149
 2653TIP3   OH229517   6.617   5.321   7.984  0.4172 -0.0846  0.7278
 2653TIP3    H129518   6.629   5.259   8.056  0.0094  0.5620  1.3545
 2653TIP3    H229519   6.679   5.291   7.917 -1.8749 -3.0185 -0.2519
 2654TIP3   OH229520   0.818   3.955   6.331  0.0559  0.1676 -0.7789
 2654TIP3    H129521   0.900   3.979   6.288 -0.5936 -0.1851 -2.3018
 2654TIP3    H229522   0.791   3.874   6.287 -1.9796  1.2041 -1.5712
 2655TIP3   OH229523   1.663   5.270   0.517  0.5708  0.1442 -0.1295
 2655TIP3    H129524   1.643   5.361   0.543 -1.7347  0.3320 -2.1345
 2655TIP3    H229525   1.583   5.222   0.537  1.3201 -1.1906 -0.2400
 2656TIP3   OH229526   3.621   0.573   1.509  0.7503 -0.4591 -0.2762
 2656TIP3    H129527   3.529   0.549   1.519  0.5032  0.0848 -1.1413
 2656TIP3    H229528   3.661   0.553   1.594 -0.0280 -1.2797 -0.0906
 2657TIP3   OH229529   0.252   1.481   2.066  0.1578  0.4410  0.2628
 2657TIP3    H129530   0.238   1.531   1.985 -0.0882  2.3673  1.4345
 2657TIP3    H229531   0.188   1.516   2.127 -0.5549 -1.9032  0.9479
 2658TIP3   OH229532   1.522   5.609   6.955  0.4288  0.1284  0.3157
 2658TIP3    H129533   1.439   5.647   6.925  0.5964  0.0449 -0.2528
 2658TIP3    H229534   1.507   5.514   6.952  0.5269  0.1144  0.2631
 2659TIP3   OH229535   6.184   5.933   1.083 -0.1511  0.4157  0.6041
 2659TIP3    H129536   6.094   5.902   1.082  0.5499 -1.7676 -0.3250
 2659TIP3    H229537   6.212   5.931   0.992  1.3525 -0.6595  1.0370
 2660TIP3   OH229538   3.537   6.020   0.923  0.2814  0.2381  0.0810
 2660TIP3    H129539   3.551   6.060   0.837 -0.3990 -0.8067 -0.5255
 2660TIP3    H229540   3.454   6.056   0.954  1.4296  2.0961  1.1895
 2661TIP3   OH229541   1.365   4.160   7.570 -0.2076  0.6392  0.4661
 2661TIP3    H129542   1.456   4.144   7.594  0.0333 -0.7316 -1.2256
 2661TIP3    H229543   1.351   4.252   7.592  0.8353  0.2953  2.9450
 2662TIP3   OH229544   6.455   5.789   8.716 -0.2017  0.1421  0.1771
 2662TIP3    H129545   6.486   5.868   8.672 -0.4653  0.2129  0.1147
 2662TIP3    H229546   6.526   5.726   8.705  0.2590  0.5566  0.7534
 2663TIP3   OH229547   6.217   0.912   2.383 -0.2994  0.0312  0.2552
 2663TIP3    H129548   6.154   0.899   2.454 -0.8502  0.4602 -0.1419
 2663TIP3    H229549   6.175   0.977   2.326  0.3453  0.0460 -0.2088
 2664TIP3   OH229550   3.266   5.963   7.821 -0.1213  0.1894 -0.0969
 2664TIP3    H129551   3.299   5.954   7.731 -0.6606 -0.2855 -0.2479
 2664TIP3    H229552   3.314   6.039   7.856  1.2002 -0.5345 -0.2794
 2665TIP3   OH229553   4.903   0.673   0.632  0.1014  0.5672 -0.0021
 2665TIP3    H129554   4.849   0.682   0.711  0.0818 -0.0601  0.0605
 2665TIP3    H229555   4.970   0.609   0.655 -0.1966  0.0073 -0.6441
 2666TIP3   OH229556   6.608   2.567   1.296  0.0881 -0.3469  0.4409
 2666TIP3    H129557   6.675   2.595   1.359 -0.7771 -0.9637  1.6934
 2666TIP3    H229558   6.528   2.559   1.349 -0.1564 -3.1899 -0.2013
 2667TIP3   OH229559   4.487   5.017   7.735 -0.3131 -0.5318  0.0853
 2667TIP3    H129560   4.549   5.058   7.795 -0.3030 -0.9804  0.3838
 2667TIP3    H229561   4.508   5.054   7.649  0.0481 -0.3217  0.2634
 2668TIP3   OH229562   6.048   3.702   8.605  0.0010  0.5003 -0.7214
 2668TIP3    H129563   6.016   3.770   8.665  1.0757  0.7564 -0.4085
 2668TIP3    H229564   6.081   3.634   8.662 -1.7204 -0.6604 -1.0268
 2669TIP3   OH229565   4.590   4.239   0.020 -1.0944  0.4088  0.6643
 2669TIP3    H129566   4.636   4.220  -0.061 -2.8450 -0.1456 -0.2665
 2669TIP3    H229567   4.646   4.300   0.067  0.3490  0.0771 -0.5738
 2670TIP3   OH229568   4.996   4.537   7.608 -0.6906  0.0293 -0.1981
 2670TIP3    H129569   5.031   4.454   7.639 -1.8351 -1.2577 -2.1275
 2670TIP3    H229570   4.903   4.519   7.591 -0.7184  1.3442 -1.7308
 2671TIP3   OH229571   0.574   5.858   8.069  0.3583  1.0915  0.2335
 2671TIP3    H129572   0.602   5.831   7.982  0.6638 -1.4198  1.0289
 2671TIP3    H229573   0.653   5.851   8.123 -0.5326 -0.7584  1.3853
 2672TIP3   OH229574   4.967   3.488   1.959  0.1076 -0.0155  0.0932
 2672TIP3    H129575   5.019   3.563   1.928 -0.2125 -0.8306 -2.7410
 2672TIP3    H229576   5.030   3.435   2.008  1.3855  0.2299 -1.1828
 2673TIP3   OH229577   3.033   5.267   7.101  0.1342 -0.1705  0.1849
 2673TIP3    H129578   3.096   5.332   7.069 -0.2407 -0.7622 -1.9287
 2673TIP3    H229579   2.961   5.271   7.038 -0.1190 -2.2807  0.2687
 2674TIP3   OH229580   4.223   5.989   1.444  0.5285 -0.6293  0.8846
 2674TIP3    H129581   4.217   6.063   1.383 -0.2069 -1.5581 -0.2085
 2674TIP3    H229582   4.167   5.922   1.405  2.6370 -2.4678  0.8702
 2675TIP3   OH229583   0.021   2.698   1.486  0.4219  0.4851  0.5638
 2675TIP3    H129584  -0.004   2.742   1.567  0.6082  2.3844 -0.3367
 2675TIP3    H229585   0.104   2.739   1.461  0.9677 -0.8970  0.0168
 2676TIP3   OH229586   1.479   4.416   7.263  0.8492 -0.2609  0.0265
 2676TIP3    H129587   1.472   4.345   7.199  0.8137 -0.2585  0.0276
 2676TIP3    H229588   1.534   4.381   7.333 -0.8052 -1.0264  1.0169
 2677TIP3   OH229589   6.334   4.061   0.004  0.2991 -0.9542  0.2684
 2677TIP3    H129590   6.388   3.993  -0.037 -0.5915 -2.0653  0.8906
 2677TIP3    H229591   6.244   4.039  -0.021  0.1043  1.2196 -1.2845
 2678TIP3   OH229592   0.710   2.394   1.403  0.2073 -0.6706  0.3310
 2678TIP3    H129593   0.719   2.488   1.388  1.1520 -0.9239 -0.9069
 2678TIP3    H229594   0.615   2.380   1.410  0.0088  0.2764 -0.2028
 2679TIP3   OH229595   2.838   6.666   7.891  0.0240 -0.2737  0.5465
 2679TIP3    H129596   2.834   6.695   7.800  0.5832 -0.0769  0.5803
 2679TIP3    H229597   2.761   6.706   7.932  1.2126  1.9145  0.7900
 2680TIP3   OH229598   1.452   2.411   6.644 -0.0823  0.2915 -0.4910
 2680TIP3    H129599   1.514   2.358   6.593  1.1055  1.1438  0.0299
 2680TIP3    H229600   1.372   2.358   6.646  1.2833 -1.8828  0.6492
 2681TIP3   OH229601   0.145   2.141   7.511 -0.2936 -0.2537 -0.4893
 2681TIP3    H129602   0.174   2.125   7.600 -0.3233 -0.9340 -0.5922
 2681TIP3    H229603   0.225   2.147   7.459  0.0296  4.1570  0.1094
 2682TIP3   OH229604   6.319   2.680   1.191  0.5442  0.0722  0.4847
 2682TIP3    H129605   6.343   2.770   1.169  1.3042 -0.2763 -0.1212
 2682TIP3    H229606   6.362   2.626   1.125  2.9836 -1.0317  2.8248
 2683TIP3   OH229607   3.486   3.517   1.256 -0.4097 -0.3009  0.3092
 2683TIP3    H129608   3.474   3.598   1.207 -0.6692 -0.7779 -0.4220
 2683TIP3    H229609   3.424   3.455   1.218  0.3867 -1.1064  0.2716
 2684TIP3   OH229610   3.221   6.792   8.773  0.2335  0.2116  0.8092
 2684TIP3    H129611   3.280   6.841   8.830 -0.3366  2.1629 -0.2037
 2684TIP3    H229612   3.251   6.812   8.685 -0.8163 -0.2299  0.3386
 2685TIP3   OH229613   2.531   0.163   2.028  0.1244 -0.5719 -0.1627
 2685TIP3    H129614   2.444   0.192   2.055  0.0573 -0.0289 -0.9230
 2685TIP3    H229615   2.533   0.070   2.049 -1.1278 -0.8926 -1.2898
 2686TIP3   OH229616   1.233   2.166   7.637  0.2171 -0.7484 -0.4481
 2686TIP3    H129617   1.219   2.163   7.542 -0.0973  0.8182 -0.4812
 2686TIP3    H229618   1.146   2.177   7.674  0.4226 -0.5082 -0.0269
 2687TIP3   OH229619   1.740   5.902   7.669 -0.3978  0.6661 -0.4033
 2687TIP3    H129620   1.719   5.837   7.735  0.6705 -0.8251 -1.4587
 2687TIP3    H229621   1.820   5.944   7.700  0.7145 -0.7744 -1.1784
 2688TIP3   OH229622   3.409   1.848   7.352  0.2691  0.4487 -0.3548
 2688TIP3    H129623   3.467   1.791   7.301 -2.6395 -2.1879 -1.0228
 2688TIP3    H229624   3.343   1.877   7.289 -1.1914  0.3510  1.0589
 2689TIP3   OH229625   3.587   5.014   6.482  0.2835 -0.0377 -0.1198
 2689TIP3    H129626   3.514   4.980   6.533  1.2930 -2.2431 -0.0175
 2689TIP3    H229627   3.596   4.952   6.409  1.0118  1.1277 -1.0579
 2690TIP3   OH229628   5.861   5.376   0.110  0.4705  0.3477  0.2894
 2690TIP3    H129629   5.884   5.323   0.186  1.2458  0.2152 -0.0344
 2690TIP3    H229630   5.937   5.432   0.095  0.4629  0.1410 -0.5850
 2691TIP3   OH229631   1.847   5.890   0.631 -0.6722 -0.0211  0.0704
 2691TIP3    H129632   1.921   5.835   0.604 -1.2864 -1.0484  0.4243
 2691TIP3    H229633   1.771   5.848   0.591 -1.2003  0.3243  0.6960
 2692TIP3   OH229634   1.970   0.480   7.684  0.1756  0.0613  0.0526
 2692TIP3    H129635   2.060   0.510   7.673  0.0931  0.9118  1.4912
 2692TIP3    H229636   1.946   0.506   7.773 -0.7754 -2.0294  0.4852
 2693TIP3   OH229637   3.179   4.809   1.620  0.5786 -0.6249  0.1482
 2693TIP3    H129638   3.109   4.781   1.561  0.1154 -2.0104  1.2867
 2693TIP3    H229639   3.196   4.732   1.674  1.1892  0.4991  1.6133
 2694TIP3   OH229640   3.277   5.258   1.552  0.3234 -0.1649 -0.3090
 2694TIP3    H129641   3.348   5.321   1.568  0.8599 -1.1386  1.3824
 2694TIP3    H229642   3.284   5.195   1.623 -1.3844 -1.0969 -0.9029
 2695TIP3   OH229643   4.282   0.916   7.757  0.5095  0.1516  0.6620
 2695TIP3    H129644   4.338   0.966   7.697 -0.2907 -1.3276 -1.4268
 2695TIP3    H229645   4.333   0.838   7.778 -0.1774 -0.5242 -0.1197
 2696TIP3   OH229646   4.468   6.528   0.725  0.2162 -0.2758 -0.0919
 2696TIP3    H129647   4.469   6.436   0.696  0.7622 -0.1392 -0.5259
 2696TIP3    H229648   4.543   6.568   0.680  0.1420  0.3192  0.3069
 2697TIP3   OH229649   0.313   5.689   8.847  0.0126 -0.9243 -0.0068
 2697TIP3    H129650   0.231   5.666   8.803 -1.0188 -0.5832  1.6535
 2697TIP3    H229651   0.328   5.780   8.821  0.8167 -1.4767 -1.6560
 2698TIP3   OH229652   2.601   0.713   0.954 -0.1542  0.0301  0.2868
 2698TIP3    H129653   2.616   0.633   1.005  0.2227  1.6281  2.8454
 2698TIP3    H229654   2.673   0.715   0.891 -0.0047 -1.5003  0.3742
 2699TIP3   OH229655   5.652   3.065   7.875 -0.4162  0.3052  0.6017
 2699TIP3    H129656   5.631   2.972   7.867 -0.4092  0.2857  0.7960
 2699TIP3    H229657   5.732   3.075   7.824  0.1752 -0.0133  1.4467
 2700TIP3   OH229658   5.452   6.399   8.633 -0.4954  0.1209 -0.0412
 2700TIP3    H129659   5.447   6.467   8.700  1.9262  0.6676 -0.3347
 2700TIP3    H229660   5.396   6.431   8.563 -0.5598  1.0796  0.4284
 2701TIP3   OH229661   5.514   3.136   1.936 -0.0210 -0.1446 -0.0019
 2701TIP3    H129662   5.423   3.118   1.912 -0.2841 -0.7417  1.3780
 2701TIP3    H229663   5.558   3.150   1.852 -1.0661 -1.3613 -0.7951
 2702TIP3   OH229664   5.719   3.736   1.545 -0.4073  0.3446 -0.0057
 2702TIP3    H129665   5.805   3.774   1.562 -0.5777  1.4202 -1.3475
 2702TIP3    H229666   5.658   3.808   1.558 -0.8693  0.2062 -1.2829
 2703TIP3   OH229667   5.784   6.106   8.418 -0.3236 -0.0645 -0.6800
 2703TIP3    H129668   5.865   6.057   8.408 -0.2353  0.0406 -0.4708
 2703TIP3    H229669   5.760   6.095   8.510 -0.6395 -0.2414 -0.7810
 2704TIP3   OH229670   5.526   4.971   7.873 -0.3073  0.1753 -0.0948
 2704TIP3    H129671   5.532   5.009   7.961  2.9955  0.5012 -0.3447
 2704TIP3    H229672   5.531   4.876   7.889  1.3514  0.2591  0.0948
 2705TIP3   OH229673   2.327   5.225   6.491 -0.0456 -0.1158  0.5148
 2705TIP3    H129674   2.395   5.239   6.558 -1.8644 -0.3301  2.5337
 2705TIP3    H229675   2.244   5.240   6.538 -1.4215 -0.3421 -1.7127
 2706TIP3   OH229676   3.846   6.231   0.871  0.4321  0.1885 -0.4726
 2706TIP3    H129677   3.868   6.154   0.923 -2.1608 -1.6365 -1.8551
 2706TIP3    H229678   3.840   6.302   0.935 -0.8117 -1.5477  1.4815
 2707TIP3   OH229679   0.042   5.075   7.823  0.1948 -0.2933  0.3051
 2707TIP3    H129680   0.006   5.134   7.757  1.0911  0.8356  0.7903
 2707TIP3    H229681   0.137   5.080   7.810  0.2919 -1.9565  0.1008
 2708TIP3   OH229682   2.153   0.937   7.949 -0.5497  0.1970 -0.3427
 2708TIP3    H129683   2.157   1.031   7.934 -2.1894  0.0307 -2.2549
 2708TIP3    H229684   2.060   0.918   7.958 -0.2490 -1.2511 -0.0887
 2709TIP3   OH229685   5.251   2.917   8.791  0.0886 -0.4802 -0.0605
 2709TIP3    H129686   5.158   2.928   8.772 -0.2134 -1.0209  1.0020
 2709TIP3    H229687   5.286   3.006   8.790 -0.5906 -0.1988  0.2254
 2710TIP3   OH229688   6.267   1.036   8.091  0.0122  0.1299  0.1570
 2710TIP3    H129689   6.223   1.112   8.128  0.7612  0.3252  0.6844
 2710TIP3    H229690   6.307   0.992   8.167 -0.6059 -0.9206 -0.1061
 2711TIP3   OH229691   1.939   1.086   0.085  0.5248  0.1461  0.1866
 2711TIP3    H129692   2.005   1.155   0.078  0.0916  0.4296 -1.6784
 2711TIP3    H229693   1.959   1.027   0.012 -0.7495 -0.2419  0.1379
 2712TIP3   OH229694   2.909   5.053   2.365  0.3121  0.2909  0.3508
 2712TIP3    H129695   2.906   5.124   2.300  0.6184  1.9556  2.0773
 2712TIP3    H229696   2.822   5.053   2.405 -0.8637 -2.6080 -1.8534
 2713TIP3   OH229697   1.804   0.866   6.783 -0.0478 -0.1641  0.9266
 2713TIP3    H129698   1.756   0.788   6.810 -1.1585 -0.1878 -0.9188
 2713TIP3    H229699   1.895   0.837   6.779 -0.4679 -1.4663  0.0328
 2714TIP3   OH229700   0.183   1.431   7.306  0.3400  0.7161  0.4021
 2714TIP3    H129701   0.249   1.484   7.261  0.2050  0.1469 -0.4891
 2714TIP3    H229702   0.223   1.344   7.312  0.2348  0.7116  1.1322
 2715TIP3   OH229703   6.682   5.016   1.308 -0.3624  0.6810  0.5760
 2715TIP3    H129704   6.657   4.965   1.231  1.9382 -0.1647  0.2864
 2715TIP3    H229705   6.646   4.968   1.382 -1.1246  0.5464  0.1320
 2716TIP3   OH229706   1.245   1.176   8.846  0.2609  0.5569  0.1510
 2716TIP3    H129707   1.304   1.145   8.777  0.6751  1.2341  0.2022
 2716TIP3    H229708   1.292   1.246   8.889 -0.3999  0.8008  0.4927
 2717TIP3   OH229709   2.413   5.734   6.674  0.8430  0.5880  0.2142
 2717TIP3    H129710   2.382   5.805   6.617  0.1861 -0.3827 -0.6769
 2717TIP3    H229711   2.437   5.664   6.613 -0.0840 -0.5615  1.1359
 2718TIP3   OH229712   0.349   2.260   7.010 -0.1088 -0.0499  0.4298
 2718TIP3    H129713   0.323   2.258   6.918 -0.9058 -0.5365  0.6555
 2718TIP3    H229714   0.444   2.270   7.008  0.1898 -2.4769 -0.4851
 2719TIP3   OH229715   1.500   5.107   8.645 -0.6238  0.7708 -0.1657
 2719TIP3    H129716   1.428   5.067   8.694 -0.0998 -0.9941 -0.7343
 2719TIP3    H229717   1.520   5.043   8.576  1.7496  0.9925  0.2209
 2720TIP3   OH229718   0.877   3.995   1.616  0.2713 -0.3814  0.2114
 2720TIP3    H129719   0.937   4.051   1.665 -0.1049  0.1656  0.0566
 2720TIP3    H229720   0.841   3.936   1.682  2.3596 -1.9965  0.0231
 2721TIP3   OH229721   6.060   4.578   2.065 -0.3606 -0.1802 -0.3123
 2721TIP3    H129722   6.118   4.528   2.122  0.0900  0.8744  0.1921
 2721TIP3    H229723   5.977   4.531   2.067  0.1329 -1.0637 -0.1041
 2722TIP3   OH229724   5.940   2.223   6.648 -0.1235 -0.6268 -0.1913
 2722TIP3    H129725   5.865   2.277   6.670 -0.1782 -1.3089  1.3686
 2722TIP3    H229726   5.945   2.226   6.552 -1.6921 -0.0018 -0.2654
 2723TIP3   OH229727   3.667   4.994   8.198 -0.3489 -0.3152 -0.4124
 2723TIP3    H129728   3.652   4.977   8.291 -0.1559  1.7040  0.0243
 2723TIP3    H229729   3.600   5.057   8.173  0.6126  0.4302 -1.2158
 2724TIP3   OH229730   2.513   4.103   1.928  0.2043  0.2536 -0.7402
 2724TIP3    H129731   2.539   4.130   1.840  0.9624  1.9192 -0.0693
 2724TIP3    H229732   2.595   4.103   1.978 -0.3489  0.3374  0.1912
 2725TIP3   OH229733   6.454   1.797   1.754  0.4793  0.0216  0.1377
 2725TIP3    H129734   6.387   1.792   1.823  1.4927 -2.1514  1.0727
 2725TIP3    H229735   6.516   1.863   1.786 -0.2672  0.7556  0.1165
 2726TIP3   OH229736   1.471   5.372   1.481 -0.4778  0.0977  0.2941
 2726TIP3    H129737   1.520   5.325   1.548 -0.9076 -0.6420  0.1060
 2726TIP3    H229738   1.393   5.405   1.526  1.3600  3.6332  1.2850
 2727TIP3   OH229739   5.753   1.793   6.787 -0.2323  0.2363 -0.5072
 2727TIP3    H129740   5.837   1.839   6.793  0.1367 -0.6255  1.5417
 2727TIP3    H229741   5.688   1.857   6.816 -0.1116  0.4217 -0.6423
 2728TIP3   OH229742   3.012   1.470   0.231 -0.6111 -0.0169 -0.0482
 2728TIP3    H129743   3.057   1.547   0.266 -0.9039  0.8162 -1.4007
 2728TIP3    H229744   2.936   1.459   0.286  0.7226 -0.8789  1.7045
 2729TIP3   OH229745   5.371   5.333   1.206  0.0292  0.7478  0.5531
 2729TIP3    H129746   5.348   5.264   1.145 -2.6481  0.5246  1.6788
 2729TIP3    H229747   5.364   5.414   1.155 -1.6577  0.5246  0.3946
 2730TIP3   OH229748   6.160   6.197   1.462  0.8743 -0.1699 -0.2041
 2730TIP3    H129749   6.217   6.177   1.387  0.9480 -1.7093  0.2355
 2730TIP3    H229750   6.214   6.251   1.520  0.9355  0.7331 -1.0681
 2731TIP3   OH229751   1.320   5.752   6.856 -0.0377  0.2948 -0.5317
 2731TIP3    H129752   1.372   5.799   6.791 -0.4494 -0.3015 -1.3052
 2731TIP3    H229753   1.245   5.809   6.872  0.2402  0.6041 -0.3038
 2732TIP3   OH229754   0.302   3.438   2.436  0.1207  0.2711  0.5086
 2732TIP3    H129755   0.366   3.501   2.404 -0.6891  0.8064 -0.0885
 2732TIP3    H229756   0.286   3.380   2.361 -0.1822  0.2072  0.6225
 2733TIP3   OH229757   6.340   6.428   8.541 -0.6021  0.2359 -0.5322
 2733TIP3    H129758   6.359   6.519   8.565  2.4070 -0.6516  1.0220
 2733TIP3    H229759   6.413   6.403   8.484 -1.5862 -1.1110 -1.2485
 2734TIP3   OH229760   1.331   4.709   0.431 -0.1332  0.5798  0.2536
 2734TIP3    H129761   1.282   4.786   0.399 -2.5587 -0.6107  0.8404
 2734TIP3    H229762   1.336   4.722   0.525  0.0513  0.3389  0.2777
 2735TIP3   OH229763   6.374   5.094   2.574 -0.0406  0.1586 -0.4548
 2735TIP3    H129764   6.348   5.011   2.615  1.0554  0.3421  0.6528
 2735TIP3    H229765   6.448   5.071   2.518  0.7993  0.4936  0.4821
 2736TIP3   OH229766   3.090   5.720   8.562  0.5253 -0.3364 -0.1847
 2736TIP3    H129767   3.087   5.815   8.549  2.7291 -0.4731 -2.4132
 2736TIP3    H229768   3.015   5.687   8.513  0.9639  0.1409 -1.2156
 2737TIP3   OH229769   5.407   1.413   6.772 -0.1655 -0.4606 -0.3396
 2737TIP3    H129770   5.361   1.497   6.779 -1.5398 -1.0621 -1.7033
 2737TIP3    H229771   5.499   1.438   6.765 -0.5407  0.9533 -0.7563
 2738TIP3   OH229772   0.846   5.452   1.551  0.4696  0.4908  0.2435
 2738TIP3    H129773   0.914   5.407   1.601  0.9918  1.2408  0.2224
 2738TIP3    H229774   0.773   5.462   1.612  1.1454  1.5105  0.9130
 2739TIP3   OH229775   5.381   2.667   8.118  0.2354 -0.6317  0.2492
 2739TIP3    H129776   5.426   2.744   8.151  2.1846 -2.0319  1.0403
 2739TIP3    H229777   5.370   2.611   8.195 -1.7473 -0.9008 -0.1784
 2740TIP3   OH229778   5.409   6.507   0.845 -0.1047 -0.1245  0.6776
 2740TIP3    H129779   5.378   6.423   0.879 -0.9037 -1.0670 -2.1287
 2740TIP3    H229780   5.457   6.485   0.765 -1.0906  2.1327 -0.6224
 2741TIP3   OH229781   4.866   3.702   1.501  0.7146  0.0748 -0.4143
 2741TIP3    H129782   4.827   3.636   1.443  0.6475  0.0079 -0.2918
 2741TIP3    H229783   4.951   3.665   1.525 -0.0160 -0.7546  1.0271
 2742TIP3   OH229784   2.794   1.601   1.585 -0.1088  0.4074  0.0134
 2742TIP3    H129785   2.873   1.550   1.565 -0.9294 -0.5161 -0.9557
 2742TIP3    H229786   2.828   1.685   1.618  1.2662 -0.3110  0.4987
 2743TIP3   OH229787   4.296   1.030   0.440  0.0516  0.0861  0.6499
 2743TIP3    H129788   4.275   1.007   0.531 -0.9267  1.1955  0.7158
 2743TIP3    H229789   4.229   1.093   0.415 -0.5550 -1.2499 -1.3290
 2744TIP3   OH229790   3.185   5.488   1.255 -0.4119 -0.3703 -0.0914
 2744TIP3    H129791   3.092   5.499   1.276 -0.7604 -0.5402 -1.4696
 2744TIP3    H229792   3.187   5.475   1.160  0.9204 -1.5764  0.0719
 2745TIP3   OH229793   2.525   5.185   8.055  0.4031 -0.3885  0.3595
 2745TIP3    H129794   2.545   5.202   7.963 -1.2163 -0.5290 -0.0578
 2745TIP3    H229795   2.610   5.172   8.096  1.1725 -0.1395 -1.0785
 2746TIP3   OH229796   0.347   4.191   6.884  0.6583  0.1771  0.5121
 2746TIP3    H129797   0.401   4.117   6.856 -0.3229 -0.1574 -0.6073
 2746TIP3    H229798   0.344   4.183   6.979 -0.2273 -1.8382  0.3802
 2747TIP3   OH229799   4.944   0.970   2.024  0.1142  0.4729  0.9853
 2747TIP3    H129800   4.877   1.039   2.027 -0.7714 -0.0781 -2.0912
 2747TIP3    H229801   5.026   1.018   2.014 -0.5712  1.2666 -2.1315
 2748TIP3   OH229802   4.989   1.204   7.033 -0.4738  0.0563  0.2030
 2748TIP3    H129803   4.941   1.138   6.983  0.8053 -0.9820  0.2950
 2748TIP3    H229804   4.942   1.210   7.116 -1.5286  0.4491 -0.3967
 2749TIP3   OH229805   6.645   3.712   0.249  0.3734  0.0364  0.6337
 2749TIP3    H129806   6.587   3.693   0.323 -1.9809  0.3785 -1.0269
 2749TIP3    H229807   6.587   3.746   0.181  2.8232  2.5605 -0.4132
 2750TIP3   OH229808   6.260   6.022   0.829  0.1995 -0.2724 -0.1532
 2750TIP3    H129809   6.226   6.001   0.742  0.2896 -1.6013  0.1017
 2750TIP3    H229810   6.355   6.007   0.822  0.6376  2.2338 -0.5334
 2751TIP3   OH229811   2.897   4.631   0.803  0.1619  0.3814 -0.2261
 2751TIP3    H129812   2.909   4.636   0.708 -0.1301  3.2197 -0.1790
 2751TIP3    H229813   2.838   4.703   0.825  2.4868  1.6761  2.4242
 2752TIP3   OH229814   0.757   1.345   6.856  0.3549  0.3146  0.5799
 2752TIP3    H129815   0.735   1.406   6.786 -0.9080  0.7621  1.3454
 2752TIP3    H229816   0.689   1.357   6.922  0.1448 -1.8145  0.8392
 2753TIP3   OH229817   5.848   4.199   0.319  0.5654 -0.5472 -0.0016
 2753TIP3    H129818   5.884   4.184   0.232 -0.2310  0.5883 -0.5448
 2753TIP3    H229819   5.779   4.264   0.306  0.2630 -0.5451  1.4412
 2754TIP3   OH229820   0.548   4.646   0.104 -0.0070  0.2805 -0.0222
 2754TIP3    H129821   0.519   4.729   0.065 -1.2308 -0.4511 -0.7483
 2754TIP3    H229822   0.481   4.583   0.078  1.6680 -1.2868 -0.8117
 2755TIP3   OH229823   3.205   2.326   6.947  0.1500  0.3434  0.5187
 2755TIP3    H129824   3.215   2.366   6.861  0.7548 -0.7075  0.0911
 2755TIP3    H229825   3.241   2.391   7.008 -0.7993  1.3395  0.0624
 2756TIP3   OH229826   0.659   2.070   6.996 -0.6062 -0.4675 -0.3023
 2756TIP3    H129827   0.742   2.024   6.988  0.5766  1.3203  0.8410
 2756TIP3    H229828   0.661   2.108   7.084 -3.7465 -2.3539  0.7564
 2757TIP3   OH229829   1.063   6.669   7.695  0.5332 -0.6620  0.3562
 2757TIP3    H129830   1.018   6.745   7.732  0.8940  0.9726 -2.2737
 2757TIP3    H229831   1.156   6.692   7.701  0.7800 -1.8693  1.4237
 2758TIP3   OH229832   1.170   2.824   1.244  0.4686  0.1665 -0.4507
 2758TIP3    H129833   1.157   2.919   1.246 -0.9815  0.0088 -1.0923
 2758TIP3    H229834   1.127   2.792   1.323  1.6495  0.0970  0.1822
 2759TIP3   OH229835   2.518   3.758   1.186  0.2336  0.1383  0.1950
 2759TIP3    H129836   2.575   3.780   1.260 -0.8131  2.1124  0.4890
 2759TIP3    H229837   2.429   3.760   1.223 -0.2021 -0.2014 -0.8186
 2760TIP3   OH229838   3.529   2.981   0.889 -0.0365  0.1163 -0.2542
 2760TIP3    H129839   3.586   2.932   0.948 -0.9191  0.2462  0.7403
 2760TIP3    H229840   3.548   3.073   0.906 -0.5999  0.1623  0.1575
 2761TIP3   OH229841   4.289   0.824   6.852  0.4068 -0.1070 -0.3223
 2761TIP3    H129842   4.322   0.897   6.905 -0.0266  0.9234 -1.4240
 2761TIP3    H229843   4.356   0.811   6.785  0.5999 -0.9015  0.0208
 2762TIP3   OH229844   6.038   6.446   8.791  0.3652  0.3903 -0.2015
 2762TIP3    H129845   6.000   6.402   8.715  1.8992  1.2032 -1.4829
 2762TIP3    H229846   6.092   6.378   8.832  0.8634  0.4139 -0.8096
 2763TIP3   OH229847   1.867   0.005   6.305 -0.2103  0.4369  0.8955
 2763TIP3    H129848   1.889   0.088   6.348  1.1792 -0.2212  1.5284
 2763TIP3    H229849   1.951  -0.034   6.283 -0.8612 -0.3875 -0.2389
 2764TIP3   OH229850   2.574   1.390   8.716  0.0769  0.2553 -0.2372
 2764TIP3    H129851   2.614   1.313   8.677 -0.5066 -0.7272  1.0342
 2764TIP3    H229852   2.483   1.387   8.689 -0.0637  0.2019  0.2270
 2765TIP3   OH229853   3.383   3.789   7.101  0.2372  0.0457  0.4496
 2765TIP3    H129854   3.454   3.743   7.145 -1.5762 -0.0756  3.5501
 2765TIP3    H229855   3.322   3.720   7.074 -0.0202  0.3050  0.3590
 2766TIP3   OH229856   1.863   2.815   7.832 -0.2475 -0.1827  0.3325
 2766TIP3    H129857   1.931   2.872   7.868  0.7965 -1.3497  0.2772
 2766TIP3    H229858   1.912   2.746   7.786 -1.4909 -0.6747 -0.2913
 2767TIP3   OH229859   4.571   5.517   7.573  0.2860 -0.3334 -0.1564
 2767TIP3    H129860   4.598   5.448   7.634 -0.1119 -0.0660  0.3274
 2767TIP3    H229861   4.503   5.565   7.620 -3.0819 -2.5738 -2.2754
 2768TIP3   OH229862   6.482   4.370   0.940  0.3497  0.2041 -0.3366
 2768TIP3    H129863   6.483   4.286   0.985  0.4914 -0.1253 -0.9386
 2768TIP3    H229864   6.504   4.434   1.008  0.7699 -0.3025  0.0161
 2769TIP3   OH229865   3.700   6.583   0.525  0.6055  0.1495  0.3485
 2769TIP3    H129866   3.606   6.595   0.534  0.8958  2.2810  0.9539
 2769TIP3    H229867   3.717   6.598   0.432  0.3717 -0.1842  0.2496
 2770TIP3   OH229868   2.640   3.923   0.979 -0.0699  0.1899  0.1540
 2770TIP3    H129869   2.626   4.013   1.007 -0.1299  0.2729 -0.1385
 2770TIP3    H229870   2.590   3.871   1.041  1.9745  0.1596  1.8826
 2771TIP3   OH229871   0.752   0.062   8.422 -0.1781  0.1138  0.0876
 2771TIP3    H129872   0.810   0.138   8.414  0.9299 -0.6857  0.3149
 2771TIP3    H229873   0.794  -0.006   8.370 -0.4650 -0.7433  0.9528
 2772TIP3   OH229874   3.263   3.430   1.114  0.2639 -0.7632 -0.1350
 2772TIP3    H129875   3.266   3.341   1.078  0.4289 -0.7499 -0.1579
 2772TIP3    H229876   3.185   3.431   1.170 -0.1287 -0.7070 -0.6787
 2773TIP3   OH229877   0.713   0.097   8.705  0.0834  0.2894  0.1050
 2773TIP3    H129878   0.627   0.139   8.714 -0.8048 -0.6703 -2.7352
 2773TIP3    H229879   0.722   0.081   8.611  1.2182 -4.0200  0.7241
 2774TIP3   OH229880   6.778   1.426   7.490 -0.1764  0.0633  0.1247
 2774TIP3    H129881   6.709   1.461   7.435 -0.6122  0.0205  0.6393
 2774TIP3    H229882   6.859   1.465   7.455 -0.4154 -0.1452 -0.6803
 2775TIP3   OH229883   0.724   3.518   7.565  0.2920  0.2839 -0.2657
 2775TIP3    H129884   0.739   3.427   7.589 -1.3323 -1.1111 -3.7925
 2775TIP3    H229885   0.784   3.534   7.491 -0.0892  1.7764 -0.2989
 2776TIP3   OH229886   5.283   4.193   1.128  0.0856 -0.0315  0.5154
 2776TIP3    H129887   5.339   4.260   1.169  1.9333 -0.2951 -1.3957
 2776TIP3    H229888   5.248   4.235   1.050  0.7311 -1.0547 -0.3533
 2777TIP3   OH229889   0.373   6.474   1.266 -0.1189  0.3261  0.1133
 2777TIP3    H129890   0.410   6.450   1.181  1.2711 -1.1595  1.0681
 2777TIP3    H229891   0.289   6.428   1.270  0.0351  0.0036 -0.2741
 2778TIP3   OH229892   0.413   5.577   6.637 -0.0642  0.5862 -0.0860
 2778TIP3    H129893   0.465   5.526   6.576 -0.9203  0.7850 -1.0140
 2778TIP3    H229894   0.432   5.668   6.615  0.0103  0.6652  0.2895
 2779TIP3   OH229895   1.671   6.445   8.467  0.5404 -0.2336 -0.2498
 2779TIP3    H129896   1.658   6.421   8.375 -1.0425 -0.9714  0.1329
 2779TIP3    H229897   1.588   6.425   8.509  1.4559 -0.5687  1.5018
 2780TIP3   OH229898   6.231   6.642   8.358 -0.7505 -0.4063 -0.2460
 2780TIP3    H129899   6.136   6.635   8.368 -0.6468 -1.1079  0.2690
 2780TIP3    H229900   6.263   6.552   8.366 -0.0992 -0.2667 -1.0955
 2781TIP3   OH229901   2.086   4.955   1.390 -0.2958 -0.5923  0.3545
 2781TIP3    H129902   2.132   5.021   1.339 -0.0890 -1.5399 -0.7421
 2781TIP3    H229903   2.128   4.956   1.476  1.1182 -0.7623 -0.3145
 2782TIP3   OH229904   4.325   6.318   6.575  0.3015  0.0964 -0.2943
 2782TIP3    H129905   4.294   6.228   6.561 -0.0440 -0.1911  2.0021
 2782TIP3    H229906   4.248   6.372   6.557  0.7185  0.0437 -2.4579
 2783TIP3   OH229907   5.366   4.784   1.331 -0.1075 -0.4798  0.2535
 2783TIP3    H129908   5.425   4.817   1.398  1.9912 -1.9695 -0.7655
 2783TIP3    H229909   5.374   4.846   1.259  0.4885 -0.8475 -0.0038
 2784TIP3   OH229910   2.194   3.157   7.392 -0.2475  0.1252 -0.0282
 2784TIP3    H129911   2.134   3.092   7.428  0.2641 -0.9107 -0.9765
 2784TIP3    H229912   2.277   3.111   7.384  0.1394  0.9115 -0.6999
 2785TIP3   OH229913   6.712   2.428   1.078 -0.4412  0.2464  0.3245
 2785TIP3    H129914   6.645   2.462   1.137 -0.1654  1.2392  0.0754
 2785TIP3    H229915   6.665   2.365   1.022 -1.2030  1.0423  0.0509
 2786TIP3   OH229916   6.781   2.239   0.153  0.2552  0.0360  0.2181
 2786TIP3    H129917   6.693   2.266   0.176 -1.2779 -3.3346 -1.0596
 2786TIP3    H229918   6.812   2.188   0.228 -0.0367 -1.0490 -0.3679
 2787TIP3   OH229919   5.281   3.210   8.771 -0.6217 -0.0875 -0.0208
 2787TIP3    H129920   5.320   3.247   8.851  1.3157  2.1785 -1.8761
 2787TIP3    H229921   5.197   3.254   8.764 -1.5469 -1.4866  1.5318
 2788TIP3   OH229922   2.592   0.951   6.929 -0.5568  0.3578 -0.1632
 2788TIP3    H129923   2.613   1.044   6.917  0.7654 -0.1277 -2.1219
 2788TIP3    H229924   2.629   0.908   6.852 -0.4287 -1.9190  1.0823
 2789TIP3   OH229925   3.870   4.765   8.574 -0.4153 -0.2668  0.2343
 2789TIP3    H129926   3.828   4.846   8.543 -0.8895  0.3990  2.4632
 2789TIP3    H229927   3.956   4.793   8.605 -1.3267 -0.1376  2.9219
 2790TIP3   OH229928   2.490   2.958   7.258 -0.0116 -0.2085 -0.5523
 2790TIP3    H129929   2.574   2.980   7.218  0.1247  2.4237  1.0056
 2790TIP3    H229930   2.446   2.905   7.192  2.7325 -1.4771 -1.5077
 2791TIP3   OH229931   4.330   1.981   0.904  0.6641 -0.4365 -0.3187
 2791TIP3    H129932   4.365   2.046   0.965  0.1935  0.2297 -0.7484
 2791TIP3    H229933   4.300   2.033   0.829 -2.4845 -0.8096  0.5545
 2792TIP3   OH229934   6.794   6.229   8.133  0.2109 -0.7680  0.0832
 2792TIP3    H129935   6.760   6.308   8.092  0.3810 -0.2700  0.8941
 2792TIP3    H229936   6.803   6.167   8.060  2.2798  0.6866 -1.0115
 2793TIP3   OH229937   2.324   3.253   8.605  0.0846  0.0313  0.1056
 2793TIP3    H129938   2.332   3.163   8.636 -0.5837  0.1920  0.7567
 2793TIP3    H229939   2.399   3.299   8.642 -0.1497 -0.0187  0.6506
 2794TIP3   OH229940   2.112   1.255   8.237  0.1195 -0.3291 -0.1877
 2794TIP3    H129941   2.145   1.345   8.242  0.1554 -0.2901 -1.0044
 2794TIP3    H229942   2.099   1.240   8.143  2.1144 -1.9038 -0.2645
 2795TIP3   OH229943   0.567   1.381   7.056 -0.6955 -0.2388 -0.4243
 2795TIP3    H129944   0.583   1.305   7.112 -1.2479 -0.4835 -0.5915
 2795TIP3    H229945   0.506   1.435   7.106  0.4352  0.5890  0.1230
 2796TIP3   OH229946   1.408   6.004   7.514  0.1485 -0.4863  0.1008
 2796TIP3    H129947   1.367   5.920   7.495 -0.1662 -0.2909 -0.1006
 2796TIP3    H229948   1.437   6.036   7.428  0.9462 -0.7364  0.2712
 2797TIP3   OH229949   3.816   2.429   8.325  0.0245 -0.5147 -0.3635
 2797TIP3    H129950   3.764   2.497   8.367  1.0904  0.6211 -0.8165
 2797TIP3    H229951   3.888   2.476   8.283  2.3580 -2.0827  1.5513
 2798TIP3   OH229952   3.075   0.580   0.248  0.1016 -0.7788  0.5947
 2798TIP3    H129953   3.013   0.630   0.302  1.3236  1.2890  0.1975
 2798TIP3    H229954   3.085   0.497   0.295 -3.3929 -1.5066  0.3449
 2799TIP3   OH229955   2.842   6.090   0.544  0.2833  0.0269 -0.6053
 2799TIP3    H129956   2.927   6.090   0.589  0.0167  1.8825 -0.0021
 2799TIP3    H229957   2.852   6.154   0.473 -0.6240  0.3159 -0.4898
 2800TIP3   OH229958   1.910   3.995   7.518 -0.0297  0.9164  0.6805
 2800TIP3    H129959   1.824   3.952   7.518 -0.3874  1.6114  1.2058
 2800TIP3    H229960   1.919   4.031   7.430  0.1212  0.0765  0.3437
 2801TIP3   OH229961   4.639   2.385   0.935 -0.4644 -0.2154 -0.3271
 2801TIP3    H129962   4.699   2.311   0.921 -1.6168 -0.9891 -1.3510
 2801TIP3    H229963   4.696   2.462   0.928  0.8977 -0.9820  1.4800
 2802TIP3   OH229964   4.694   6.283   7.314 -0.1814  0.2374 -0.1086
 2802TIP3    H129965   4.725   6.232   7.390 -0.4537 -0.1047 -0.2268
 2802TIP3    H229966   4.761   6.268   7.247  0.3921  1.0467  0.2597
 2803TIP3   OH229967   4.588   5.522   0.256  0.4070 -0.0559 -0.5005
 2803TIP3    H129968   4.581   5.500   0.349  2.4926 -2.2415 -0.7539
 2803TIP3    H229969   4.554   5.445   0.210 -0.9424  1.1408 -1.6112
 2804TIP3   OH229970   2.559   3.881   7.340  0.1745  0.0595  0.2107
 2804TIP3    H129971   2.481   3.904   7.391 -0.6828  0.2859 -1.1586
 2804TIP3    H229972   2.626   3.943   7.369 -0.0877 -0.2270  1.5050
 2805TIP3   OH229973   4.901   0.397   6.502  0.2001  0.2497  0.4260
 2805TIP3    H129974   4.897   0.438   6.415 -0.1070 -0.6718 -0.0106
 2805TIP3    H229975   4.911   0.471   6.563  0.8541  0.8752 -0.4172
 2806TIP3   OH229976   0.512   6.596   0.718 -0.5116  0.5284  0.1883
 2806TIP3    H129977   0.446   6.642   0.666 -0.6866 -0.2341 -0.2699
 2806TIP3    H229978   0.535   6.659   0.787 -0.8032  1.2717 -0.3778
 2807TIP3   OH229979   0.011   1.470   8.763 -0.3329 -0.1926 -0.1847
 2807TIP3    H129980  -0.038   1.530   8.819 -1.0346 -1.2914  0.3983
 2807TIP3    H229981  -0.045   1.457   8.686  0.3253  0.7692 -0.8582
 2808TIP3   OH229982   1.735   5.831   8.805 -0.8516 -0.1895  0.2511
 2808TIP3    H129983   1.751   5.865   8.892 -1.5631 -1.1617  0.7850
 2808TIP3    H229984   1.640   5.840   8.792 -1.0352 -1.6899  0.3237
 2809TIP3   OH229985   4.481   4.392   7.899  0.0961 -0.0363 -0.4535
 2809TIP3    H129986   4.484   4.339   7.978  1.8307  1.6322  0.6960
 2809TIP3    H229987   4.564   4.374   7.855  0.3570  1.0766 -0.4475
 2810TIP3   OH229988   3.281   2.186   0.080 -0.3642  0.1982  0.1073
 2810TIP3    H129989   3.377   2.179   0.077 -0.2220  1.0670  1.6373
 2810TIP3    H229990   3.250   2.107   0.035  1.0741 -0.2968 -0.0682
 2811TIP3   OH229991   3.165   3.502   0.424 -0.0107 -0.1901 -0.2939
 2811TIP3    H129992   3.147   3.563   0.495  1.0937 -0.2653  0.0700
 2811TIP3    H229993   3.103   3.431   0.437 -0.5722  0.3225 -0.0778
 2812TIP3   OH229994   1.125   6.348   0.102 -0.2597  0.0313  0.3840
 2812TIP3    H129995   1.052   6.371   0.043 -0.2900  0.4517  0.5840
 2812TIP3    H229996   1.131   6.422   0.162 -0.1137 -0.3221  0.8041
 2813TIP3   OH229997   2.877   4.449   1.374  0.3177 -0.8628  0.0840
 2813TIP3    H129998   2.847   4.482   1.290  0.4213 -1.9437 -0.3975
 2813TIP3    H229999   2.805   4.468   1.435  0.8395  1.2203  0.0921
 2814TIP3   OH230000   5.423   0.656   6.467  0.0345 -0.0443  0.1731
 2814TIP3    H130001   5.393   0.739   6.504  0.5946 -1.0687  3.2664
 2814TIP3    H230002   5.502   0.678   6.417 -0.9583  1.5013 -0.7686
 2815TIP3   OH230003   4.667   2.140   0.115 -0.1290  0.3628 -0.0629
 2815TIP3    H130004   4.645   2.069   0.054  0.7113  0.9586 -1.0912
 2815TIP3    H230005   4.736   2.103   0.171 -2.7837 -1.1586  2.4952
 2816TIP3   OH230006   2.996   6.053   7.577  0.0914 -0.6904 -0.2304
 2816TIP3    H130007   3.049   6.110   7.521 -1.1528 -0.0571 -0.7974
 2816TIP3    H230008   2.913   6.044   7.531  0.1903 -2.8716 -0.0880
 2817TIP3   OH230009   3.482   0.650   8.690 -0.3535  0.2809  0.4413
 2817TIP3    H130010   3.522   0.660   8.604  1.8179 -0.9585  1.2081
 2817TIP3    H230011   3.469   0.739   8.722 -0.6212  0.7391 -0.9091
 2818TIP3   OH230012   4.697   5.485   0.761 -0.0542 -0.1334  0.4501
 2818TIP3    H130013   4.704   5.396   0.795  2.1197 -0.0776  0.3205
 2818TIP3    H230014   4.656   5.534   0.832 -0.3492 -1.0390  0.9217
 2819TIP3   OH230015   3.848   3.473   0.172 -0.1311  0.4764 -0.2979
 2819TIP3    H130016   3.820   3.472   0.081 -0.0535  0.6204 -0.3247
 2819TIP3    H230017   3.863   3.382   0.195 -2.7658  0.1227  0.3754
 2820TIP3   OH230018   1.171   1.490   7.267 -0.2366  0.2949  0.1352
 2820TIP3    H130019   1.102   1.430   7.239 -0.3399  0.9418 -1.0257
 2820TIP3    H230020   1.231   1.494   7.192 -0.0160  1.3233  0.3531
 2821TIP3   OH230021   0.365   6.719   7.650 -0.0474 -0.4488 -0.1584
 2821TIP3    H130022   0.339   6.717   7.742 -0.5577  1.3759 -0.2273
 2821TIP3    H230023   0.289   6.755   7.604  0.8049  0.3026 -1.0374
 2822TIP3   OH230024   2.245   1.020   0.567 -0.3322  0.0419  0.1668
 2822TIP3    H130025   2.159   1.036   0.607 -0.3383  0.6494 -0.0760
 2822TIP3    H230026   2.265   1.102   0.521  0.5666  0.0533  0.5648
 2823TIP3   OH230027   4.428   5.831   0.268  0.2360  0.2558 -0.2220
 2823TIP3    H130028   4.477   5.749   0.261  1.3560  0.8425  0.3424
 2823TIP3    H230029   4.389   5.829   0.355 -1.5750 -0.6230 -1.0102
 2824TIP3   OH230030   1.370   4.679   0.721  0.2157 -0.0827  0.3934
 2824TIP3    H130031   1.415   4.763   0.717 -0.8931  0.4966 -0.9291
 2824TIP3    H230032   1.310   4.688   0.796 -0.5030  0.6459 -0.2502
 2825TIP3   OH230033   3.514   0.269   8.396 -0.0247  0.1348  0.1783
 2825TIP3    H130034   3.537   0.204   8.330 -0.6280 -0.2214  0.3173
 2825TIP3    H230035   3.457   0.330   8.351  0.4108  0.4816  0.0928
 2826TIP3   OH230036   2.983   1.031   7.971  0.4491  0.0448  0.1647
 2826TIP3    H130037   3.057   1.053   8.029 -0.6748  3.0185  0.6525
 2826TIP3    H230038   2.921   0.985   8.028  0.7512  0.0017  0.4632
 2827TIP3   OH230039   3.420   4.789   7.499  0.4922 -0.7040  0.3589
 2827TIP3    H130040   3.336   4.755   7.468  0.3862 -0.0279 -0.1141
 2827TIP3    H230041   3.401   4.827   7.584 -0.1649  1.3907 -0.6692
 2828TIP3   OH230042   2.884   3.742   6.435 -0.7917 -0.2983  0.2226
 2828TIP3    H130043   2.856   3.661   6.477 -0.5231 -0.8326 -0.6159
 2828TIP3    H230044   2.828   3.809   6.474  0.4232 -0.5066  2.5434
 2829TIP3   OH230045   3.673   3.703   0.225 -0.3079  0.3756 -0.8709
 2829TIP3    H130046   3.733   3.638   0.190  0.6907  0.6713  0.2235
 2829TIP3    H230047   3.722   3.785   0.221 -0.3048  0.4861  0.8094
 2830TIP3   OH230048   4.350   0.379   1.045  0.4222 -0.2265  0.0918
 2830TIP3    H130049   4.293   0.303   1.044 -0.8653  0.6336  2.0438
 2830TIP3    H230050   4.381   0.387   0.955 -0.6097 -2.1384 -0.4864
 2831TIP3   OH230051   0.527   5.694   6.935  0.3493 -0.3400  0.7672
 2831TIP3    H130052   0.515   5.660   6.846  0.9224  1.0475  0.1402
 2831TIP3    H230053   0.608   5.744   6.931 -0.9166  1.8689  1.4183
 2832TIP3   OH230054   1.326   2.381   8.223  0.2381 -0.2175 -0.2541
 2832TIP3    H130055   1.261   2.450   8.231 -0.6560 -0.9094 -1.3701
 2832TIP3    H230056   1.399   2.423   8.177  0.0525  0.2015 -0.1766
 2833TIP3   OH230057   4.540   6.187   1.213 -0.2767 -0.4996 -0.4100
 2833TIP3    H130058   4.566   6.171   1.122 -1.4443  1.9856 -1.2547
 2833TIP3    H230059   4.445   6.180   1.212 -0.2830 -0.6300  0.6722
 2834TIP3   OH230060   4.918   5.366   7.089 -0.2833 -0.0590 -0.3225
 2834TIP3    H130061   4.953   5.426   7.023  0.0869  0.9503  0.7524
 2834TIP3    H230062   4.970   5.384   7.167 -2.5800  0.8224  1.0717
 2835TIP3   OH230063   4.454   2.375   6.408  0.7297 -0.3034  0.0307
 2835TIP3    H130064   4.447   2.328   6.491  0.9524  0.0703  0.2656
 2835TIP3    H230065   4.394   2.330   6.349  0.0033 -0.1088  0.6122
 2836TIP3   OH230066   3.676   3.371   7.602 -0.7491  0.3635 -0.6017
 2836TIP3    H130067   3.696   3.461   7.577 -1.3710  0.6700 -0.0196
 2836TIP3    H230068   3.753   3.343   7.653 -2.2123  2.0480  2.9219
 2837TIP3   OH230069   5.516   5.424   0.367  0.0792 -0.1823  0.2836
 2837TIP3    H130070   5.543   5.437   0.458  1.0495  0.8999 -0.1281
 2837TIP3    H230071   5.555   5.340   0.343  1.0691  0.2010  0.4595
 2838TIP3   OH230072   2.191   4.105   8.583 -0.0010  0.2639  0.6900
 2838TIP3    H130073   2.286   4.095   8.582  0.0559  0.1100 -3.0684
 2838TIP3    H230074   2.170   4.117   8.676  3.4669 -1.3089  1.8578
 2839TIP3   OH230075   3.038   2.496   7.351 -0.3624 -0.4251  0.2676
 2839TIP3    H130076   2.984   2.574   7.348  2.3209  1.6211 -3.0549
 2839TIP3    H230077   3.045   2.468   7.259  0.6286 -3.2594  1.0840
 2840TIP3   OH230078   0.381   1.030   7.021 -0.0530  0.3332  0.1576
 2840TIP3    H130079   0.305   1.024   6.964  0.9811  0.2462 -1.2716
 2840TIP3    H230080   0.453   1.052   6.962  1.3568 -1.3239  1.1641
 2841TIP3   OH230081   0.435   4.891   8.138  0.2574 -0.2823 -0.4694
 2841TIP3    H130082   0.462   4.867   8.227  0.2637  0.5010 -0.2512
 2841TIP3    H230083   0.465   4.981   8.128 -3.7230  1.3601  0.4323
 2842TIP3   OH230084   2.697   1.185   0.563  0.5327  0.0791  0.0231
 2842TIP3    H130085   2.613   1.177   0.608  0.3744  0.1929 -0.2529
 2842TIP3    H230086   2.695   1.272   0.522  1.3193  0.6465  1.1191
 2843TIP3   OH230087   4.038   0.378   8.039 -0.5310  0.0284 -0.3056
 2843TIP3    H130088   3.965   0.429   8.003 -0.0849 -0.4663 -2.0330
 2843TIP3    H230089   4.007   0.288   8.039  0.2596 -0.2861 -1.7162
 2844TIP3   OH230090   1.296   3.201   1.682 -0.3205  0.2820  0.7733
 2844TIP3    H130091   1.333   3.127   1.730  0.7284  0.4502  0.2521
 2844TIP3    H230092   1.315   3.277   1.738  1.5607  0.5802 -0.1849
 2845TIP3   OH230093   0.456   2.307   1.493 -0.5770  0.7127  0.3914
 2845TIP3    H130094   0.485   2.217   1.503 -1.5250  0.4764  1.2865
 2845TIP3    H230095   0.381   2.302   1.433  0.3348  1.1248 -0.8070
 2846TIP3   OH230096   2.718   5.577   1.581  0.2190  0.6910 -0.0744
 2846TIP3    H130097   2.635   5.619   1.602 -0.0209  0.1719  0.0284
 2846TIP3    H230098   2.694   5.493   1.544  0.6789  0.9274 -0.9391
 2847TIP3   OH230099   5.977   3.160   0.447 -0.0258  0.1147  0.7304
 2847TIP3    H130100   6.052   3.125   0.497  1.9321  1.9033 -0.7832
 2847TIP3    H230101   5.930   3.214   0.510  2.7573  2.8639  0.6839
 2848TIP3   OH230102   6.631   4.215   0.478 -0.5683 -0.1613  0.3129
 2848TIP3    H130103   6.672   4.134   0.447 -2.5414 -0.4522 -1.8676
 2848TIP3    H230104   6.690   4.285   0.448 -0.0234 -0.7007  0.1144
 2849TIP3   OH230105   1.010   0.341   2.014  0.2152  0.5207 -0.4175
 2849TIP3    H130106   0.990   0.257   1.973  0.0315  0.6441 -0.5805
 2849TIP3    H230107   0.944   0.351   2.082  0.5424  0.2986 -0.0592
 2850TIP3   OH230108   2.401   3.217   7.695 -0.0926  0.2175 -0.1412
 2850TIP3    H130109   2.411   3.206   7.790 -0.0988  1.1077 -0.0378
 2850TIP3    H230110   2.362   3.303   7.684  0.1825  0.2450 -0.9745
 2851TIP3   OH230111   3.088   1.916   1.142 -0.6389  0.5776  0.2210
 2851TIP3    H130112   3.141   1.855   1.193  0.5546  1.1186 -0.3380
 2851TIP3    H230113   3.052   1.977   1.207  1.3151  1.6045  0.4199
 2852TIP3   OH230114   2.092   1.227   1.097  0.1889  0.3388 -0.0206
 2852TIP3    H130115   2.132   1.155   1.049 -0.1376  0.6583 -0.7865
 2852TIP3    H230116   2.159   1.294   1.099 -0.0376  0.5963 -0.6692
 2853TIP3   OH230117   3.470   0.245   1.203  0.7302 -0.3992 -0.3401
 2853TIP3    H130118   3.438   0.199   1.125 -0.8868  0.1159 -0.0036
 2853TIP3    H230119   3.494   0.332   1.171 -4.0173  1.4287  0.2911
 2854TIP3   OH230120   4.715   5.146   7.145  0.5207  0.4284 -0.2141
 2854TIP3    H130121   4.785   5.212   7.144  0.3012  0.7703  1.9590
 2854TIP3    H230122   4.635   5.198   7.158  0.3238 -0.1984  1.3072
 2855TIP3   OH230123   4.461   1.461   0.188 -0.4562 -0.0994 -0.3117
 2855TIP3    H130124   4.414   1.428   0.111 -0.7407 -1.2953  0.3479
 2855TIP3    H230125   4.444   1.396   0.256 -1.3030  1.5981  1.1737
 2856TIP3   OH230126   4.378   5.596   8.163  0.2685  0.6725  0.4221
 2856TIP3    H130127   4.376   5.501   8.178  1.7494  0.6692  0.8262
 2856TIP3    H230128   4.341   5.608   8.076 -0.5698 -0.2091  0.6459
 2857TIP3   OH230129   1.720   6.438   0.709  0.4539  0.3013  0.3607
 2857TIP3    H130130   1.814   6.440   0.727  0.4335 -0.8792  0.6482
 2857TIP3    H230131   1.684   6.508   0.764  1.1580  0.7951  0.2137
 2858TIP3   OH230132   3.537   4.203   7.863  0.0384  0.1195 -0.3275
 2858TIP3    H130133   3.624   4.231   7.892  0.5353 -0.7452 -0.9366
 2858TIP3    H230134   3.530   4.236   7.773 -0.5785  0.8233 -0.0395
 2859TIP3   OH230135   6.428   1.756   7.951 -0.1393 -0.6062 -0.2229
 2859TIP3    H130136   6.496   1.822   7.965  0.7779 -1.6823  0.5376
 2859TIP3    H230137   6.356   1.805   7.910  0.6518  0.7810 -0.0330
 2860TIP3   OH230138   0.826   4.436   1.345  0.4361 -0.1213  0.2153
 2860TIP3    H130139   0.874   4.453   1.265  0.6932 -1.9169 -0.0498
 2860TIP3    H230140   0.878   4.476   1.414  0.7755  0.4916 -0.3933
 2861TIP3   OH230141   1.371   0.700   7.718  0.1423  0.5299  0.1472
 2861TIP3    H130142   1.283   0.683   7.752  0.2391  0.1783  0.2298
 2861TIP3    H230143   1.429   0.651   7.777  0.1953 -1.7334 -1.6153
 2862TIP3   OH230144   5.368   5.827   1.535 -0.1688  0.0634 -0.0476
 2862TIP3    H130145   5.451   5.816   1.489 -1.1205 -0.8403 -1.6529
 2862TIP3    H230146   5.308   5.861   1.469 -0.8293  1.7775  1.3626
 2863TIP3   OH230147   2.975   3.593   6.153 -0.1967  0.2154 -0.2635
 2863TIP3    H130148   2.904   3.568   6.213  2.2001 -2.3738  1.7994
 2863TIP3    H230149   3.024   3.660   6.201  1.3014 -1.3259  0.4631
 2864TIP3   OH230150   2.047   2.138   6.918  0.9717 -0.4930  0.3637
 2864TIP3    H130151   2.090   2.223   6.917  0.3689 -0.1576  1.6313
 2864TIP3    H230152   2.053   2.107   6.827  4.2120 -0.6572  0.5170
 2865TIP3   OH230153   4.016   2.027   8.625 -0.5125  0.2436 -0.2722
 2865TIP3    H130154   3.963   2.090   8.575 -1.3699 -0.8607 -0.7826
 2865TIP3    H230155   3.952   1.970   8.667  0.2596 -0.3302  0.1457
 2866TIP3   OH230156   1.670   2.557   7.654  0.6708  0.4455  0.3682
 2866TIP3    H130157   1.607   2.592   7.716  0.1926  0.1455  0.0607
 2866TIP3    H230158   1.635   2.581   7.568  1.2140  0.6772  0.2055
 2867TIP3   OH230159   3.259   6.752   1.219 -0.8394  0.3656 -0.5144
 2867TIP3    H130160   3.276   6.813   1.147 -1.6656  0.1727 -0.8850
 2867TIP3    H230161   3.232   6.807   1.292  0.2315  0.5839 -0.2617
 2868TIP3   OH230162   4.741   1.704   6.705  0.7317 -0.3327  0.2326
 2868TIP3    H130163   4.802   1.729   6.636  3.2211  1.0240  2.7216
 2868TIP3    H230164   4.756   1.610   6.718 -0.5945 -0.8739 -1.7089
 2869TIP3   OH230165   3.130   6.110   1.652 -0.4537  0.3068  0.1617
 2869TIP3    H130166   3.099   6.197   1.628  0.0715  0.9643  1.7540
 2869TIP3    H230167   3.176   6.123   1.735  0.6383 -1.2901 -0.1449
 2870TIP3   OH230168   5.224   1.950   0.961 -0.3671  0.6892 -0.0388
 2870TIP3    H130169   5.303   1.997   0.987  0.2411 -0.2047 -0.2311
 2870TIP3    H230170   5.231   1.865   1.005 -2.5908  1.5659  2.2488
 2871TIP3   OH230171   5.987   4.443   8.331 -0.0524  0.1853  0.2454
 2871TIP3    H130172   5.937   4.525   8.333  0.7929  0.7248  2.4554
 2871TIP3    H230173   5.972   4.408   8.243 -1.3102  2.1578 -0.4015
 2872TIP3   OH230174   5.500   1.073   1.788  0.0521 -0.2373 -0.3725
 2872TIP3    H130175   5.459   1.027   1.715 -0.4299 -0.5631  0.0980
 2872TIP3    H230176   5.460   1.159   1.788 -1.7041 -0.9910  0.9291
 2873TIP3   OH230177   3.741   6.436   8.403  0.0542  0.0736 -0.1118
 2873TIP3    H130178   3.816   6.479   8.444  0.3954 -1.7392  1.3524
 2873TIP3    H230179   3.695   6.394   8.476 -2.7445  1.5371 -0.8824
 2874TIP3   OH230180   5.397   5.518   1.661 -0.0860 -0.0658 -0.1365
 2874TIP3    H130181   5.418   5.576   1.734  0.3228  2.7167 -2.2896
 2874TIP3    H230182   5.453   5.548   1.590 -0.9604 -2.1833 -1.8255
 2875TIP3   OH230183   6.415   0.032   7.390  0.2187  0.5933  0.1049
 2875TIP3    H130184   6.335   0.036   7.337 -0.6229 -1.6300  1.0874
 2875TIP3    H230185   6.476  -0.020   7.337 -0.0303 -0.1750  0.5512
 2876TIP3   OH230186   4.001   0.443   6.740 -0.4695 -0.1121 -0.0341
 2876TIP3    H130187   4.041   0.517   6.695 -1.1113 -0.3670 -1.0594
 2876TIP3    H230188   4.063   0.371   6.726  1.5613  0.7344  3.2517
 2877TIP3   OH230189   6.022   4.834   0.184 -0.2944  0.3143  0.0221
 2877TIP3    H130190   5.994   4.910   0.133 -0.7479  0.5400  0.5854
 2877TIP3    H230191   5.942   4.784   0.199  0.3598 -1.7536 -2.6158
 2878TIP3   OH230192   6.491   5.327   7.602 -0.2113  0.0557 -0.5224
 2878TIP3    H130193   6.515   5.417   7.579  1.5433 -0.0651  0.5820
 2878TIP3    H230194   6.573   5.278   7.595 -0.8911 -1.2182  0.0085
 2879TIP3   OH230195   4.068   3.597   7.581 -0.0283 -0.0584  0.7083
 2879TIP3    H130196   4.009   3.526   7.605  0.2685 -0.2862  0.7630
 2879TIP3    H230197   4.101   3.630   7.665 -0.9354  0.8054  0.7411
 2880TIP3   OH230198   1.138   4.086   8.555  0.4509 -0.0414 -0.5019
 2880TIP3    H130199   1.149   4.181   8.551  0.3441  0.0172  0.4155
 2880TIP3    H230200   1.047   4.071   8.529  0.9452 -0.0564 -2.3856
 2881TIP3   OH230201   5.878   5.002   7.073  0.1647 -0.3295  0.1275
 2881TIP3    H130202   5.882   5.017   6.978  0.8437 -0.7712  0.0824
 2881TIP3    H230203   5.811   4.935   7.083  0.7366 -0.9438 -0.1254
 2882TIP3   OH230204   1.616   3.545   0.853  0.2328 -0.1698  0.4832
 2882TIP3    H130205   1.557   3.491   0.906  0.4067 -0.3465  0.5003
 2882TIP3    H230206   1.622   3.628   0.900  1.1649 -0.6602  1.2879
 2883TIP3   OH230207   5.226   3.054   6.498 -0.2139 -0.2698 -0.1953
 2883TIP3    H130208   5.234   3.147   6.479  0.5113 -0.3359 -0.2317
 2883TIP3    H230209   5.170   3.050   6.576 -1.9966  0.0784 -1.3968
 2884TIP3   OH230210   4.481   3.463   1.703  0.3123  0.2672  0.2090
 2884TIP3    H130211   4.415   3.437   1.767 -0.1593  1.5113  0.2427
 2884TIP3    H230212   4.553   3.499   1.756 -0.2171  1.6061  0.0479
 2885TIP3   OH230213   0.342   5.995   8.733 -0.1685  0.1297  0.5114
 2885TIP3    H130214   0.316   6.014   8.823  2.2104 -1.0165  1.5296
 2885TIP3    H230215   0.433   6.025   8.728 -0.3674  0.5486 -1.6747
 2886TIP3   OH230216   3.217   3.681   7.870 -0.4045 -0.1003 -0.2095
 2886TIP3    H130217   3.192   3.773   7.879  0.0134 -0.0030 -0.0030
 2886TIP3    H230218   3.227   3.668   7.776  0.7882  0.4163 -0.1717
 2887TIP3   OH230219   0.543   2.853   0.370 -0.1797  0.4830  0.0367
 2887TIP3    H130220   0.527   2.928   0.428 -0.7341  0.9795 -0.7338
 2887TIP3    H230221   0.635   2.831   0.384  0.3821  2.1619 -0.6836
 2888TIP3   OH230222   5.478   2.995   8.477  0.0027  0.0652 -0.6563
 2888TIP3    H130223   5.385   2.990   8.499 -0.2661  1.1130 -1.4563
 2888TIP3    H230224   5.485   3.073   8.422  1.6600  1.1996  1.0218
 2889TIP3   OH230225   6.227   4.272   8.392 -0.4259 -0.3369  0.1737
 2889TIP3    H130226   6.279   4.280   8.312  0.5438 -2.2626  0.5598
 2889TIP3    H230227   6.138   4.296   8.365  0.0434 -0.1028 -1.2619
 2890TIP3   OH230228   3.612   3.873   7.477 -0.0709 -0.0065  0.4062
 2890TIP3    H130229   3.521   3.843   7.487 -0.5356  1.5592  1.2981
 2890TIP3    H230230   3.627   3.930   7.553  1.4605  0.2433 -0.0515
 2891TIP3   OH230231   4.801   3.171   1.488 -0.1708 -0.6952  0.5059
 2891TIP3    H130232   4.742   3.245   1.473 -0.5521 -1.4531 -2.4007
 2891TIP3    H230233   4.749   3.109   1.539 -0.6111  0.1009  1.0544
 2892TIP3   OH230234   2.916   4.762   8.579  0.1705  0.6112 -0.2213
 2892TIP3    H130235   2.954   4.698   8.640  0.2347  0.4168 -0.4641
 2892TIP3    H230236   2.938   4.847   8.617 -0.8816  0.4945  0.7189
 2893TIP3   OH230237   3.223   5.776   1.397  0.1358  0.1610  0.6229
 2893TIP3    H130238   3.288   5.834   1.436  1.3501  0.5441 -1.8106
 2893TIP3    H230239   3.268   5.692   1.387 -1.0115 -0.7248  2.3742
 2894TIP3   OH230240   3.609   4.946   0.354 -0.7032  0.1581  0.5094
 2894TIP3    H130241   3.647   5.003   0.288 -2.9875  2.3186  0.9038
 2894TIP3    H230242   3.615   4.995   0.436 -0.5677 -1.2153  1.3576
 2895TIP3   OH230243   4.569   0.403   8.102  0.1237 -0.1588  0.8479
 2895TIP3    H130244   4.595   0.450   8.023 -1.3548 -1.9035 -0.7704
 2895TIP3    H230245   4.515   0.465   8.151  1.4411  1.1033  0.7970
 2896TIP3   OH230246   2.846   5.736   1.394 -0.0944  0.0100 -0.1120
 2896TIP3    H130247   2.810   5.820   1.422 -3.2048 -0.9752 -0.7456
 2896TIP3    H230248   2.799   5.671   1.446  1.0083 -1.4308 -0.8250
 2897TIP3   OH230249   3.759   5.409   1.138  0.0385  0.4272 -0.2359
 2897TIP3    H130250   3.810   5.414   1.218 -0.8291 -1.2554  0.4757
 2897TIP3    H230251   3.756   5.499   1.106  2.0310  0.8252  0.5518
 2898TIP3   OH230252   5.154   5.344   8.148  0.0781  0.6573  0.4852
 2898TIP3    H130253   5.081   5.350   8.087 -1.2032  1.1577  1.9971
 2898TIP3    H230254   5.183   5.434   8.160  0.5348  0.5273  0.3841
 2899TIP3   OH230255   4.829   0.560   8.180 -0.2474 -0.3823 -0.3943
 2899TIP3    H130256   4.756   0.501   8.200 -0.2268 -0.9268 -1.8229
 2899TIP3    H230257   4.798   0.610   8.105  1.1981 -1.3104 -1.6563
 2900TIP3   OH230258   1.644   1.674   7.116  0.3273 -0.2439  0.5111
 2900TIP3    H130259   1.727   1.640   7.084 -0.4299 -0.4278 -1.3918
 2900TIP3    H230260   1.634   1.759   7.072 -0.3956 -0.1408  0.8607
 2901TIP3   OH230261   1.057   3.150   2.057 -0.3214 -0.0538  0.0930
 2901TIP3    H130262   1.060   3.057   2.035  0.5648  0.4125 -2.0116
 2901TIP3    H230263   0.970   3.163   2.095 -0.5645 -1.6741  0.1547
 2902TIP3   OH230264   3.379   4.045   0.831 -0.1866  0.3049 -0.1602
 2902TIP3    H130265   3.285   4.061   0.844 -0.0960  1.2011 -0.5200
 2902TIP3    H230266   3.387   4.020   0.739  0.2280  3.1413 -1.0058
 2903TIP3   OH230267   4.037   1.892   0.226  0.0131  0.4640  0.5004
 2903TIP3    H130268   4.107   1.957   0.220  0.7006 -0.2573  0.6358
 2903TIP3    H230269   3.956   1.943   0.218  0.5302  1.3902  1.0711
 2904TIP3   OH230270   0.947   6.089   0.220 -0.2955 -0.0293 -0.5878
 2904TIP3    H130271   0.996   6.013   0.188  1.1628  0.5013  0.2520
 2904TIP3    H230272   0.986   6.163   0.174  0.9572  0.5977  1.3379
 2905TIP3   OH230273   0.027   0.932   0.327  0.2230 -0.0979 -0.3572
 2905TIP3    H130274  -0.006   0.844   0.342  0.4025 -0.0135  0.6036
 2905TIP3    H230275   0.117   0.919   0.298  1.0682 -0.2115  2.0514
 2906TIP3   OH230276   6.709   4.011   7.206  0.4621  0.1355 -0.3025
 2906TIP3    H130277   6.789   3.980   7.164  2.3333  2.8557  0.9132
 2906TIP3    H230278   6.659   4.053   7.135  1.1525  0.2518 -0.7322
 2907TIP3   OH230279   4.985   1.713   6.288 -0.1791  0.0403  0.0148
 2907TIP3    H130280   5.056   1.777   6.278  2.4487 -2.7938 -1.0571
 2907TIP3    H230281   4.911   1.765   6.320  2.1070  3.3371  0.5316
 2908TIP3   OH230282   1.574   3.586   7.869  0.2811  0.0265  0.0212
 2908TIP3    H130283   1.489   3.557   7.834  0.2047 -0.3719  0.5182
 2908TIP3    H230284   1.619   3.505   7.893  1.1012  0.1946 -0.8785
 2909TIP3   OH230285   0.677   0.161   7.204 -0.4492 -0.0401  0.8135
 2909TIP3    H130286   0.701   0.071   7.227 -0.4423 -0.1071  0.5516
 2909TIP3    H230287   0.589   0.154   7.167  0.3845 -0.2735 -1.2789
 2910TIP3   OH230288   2.817   4.184   0.122  0.2900  0.0354  0.3309
 2910TIP3    H130289   2.791   4.097   0.093  0.9000 -0.2483  0.6307
 2910TIP3    H230290   2.820   4.236   0.041  0.0352 -0.2451  0.1392
 2911TIP3   OH230291   3.756   0.071   0.669  0.2225 -0.0970  0.2448
 2911TIP3    H130292   3.761   0.166   0.665 -1.9485  0.0777  0.2597
 2911TIP3    H230293   3.817   0.040   0.602 -0.8786  1.3864 -1.5338
 2912TIP3   OH230294   1.906   6.294   8.607  0.7468  0.3500  0.2210
 2912TIP3    H130295   1.826   6.337   8.577 -0.0988 -1.1254  0.3058
 2912TIP3    H230296   1.919   6.327   8.696  0.9138  1.4922 -0.2020
 2913TIP3   OH230297   5.287   3.947   0.027  0.0982 -0.0843 -0.1024
 2913TIP3    H130298   5.197   3.919   0.011  0.2032 -0.0831 -0.7568
 2913TIP3    H230299   5.339   3.868   0.013  0.0937 -0.4244  1.6302
 2914TIP3   OH230300   5.212   6.194   8.731 -0.5238 -0.3724 -0.1192
 2914TIP3    H130301   5.178   6.105   8.735 -0.6782 -0.2889  0.7897
 2914TIP3    H230302   5.209   6.218   8.639 -0.6468 -1.2423 -0.3447
 2915TIP3   OH230303   4.404   4.603   7.580  0.0333 -0.2708 -0.1618
 2915TIP3    H130304   4.339   4.569   7.641  0.4327 -2.7451 -0.9896
 2915TIP3    H230305   4.466   4.651   7.635 -2.5490  2.4769  0.6066
 2916TIP3   OH230306   6.200   2.386   1.580  0.3470 -0.1066 -0.1712
 2916TIP3    H130307   6.166   2.298   1.566 -1.6341  0.3992  1.0160
 2916TIP3    H230308   6.245   2.382   1.664  0.6720 -0.0894 -0.3428
 2917TIP3   OH230309   4.556   5.976   7.033  0.1943  0.6061 -0.1759
 2917TIP3    H130310   4.504   5.991   6.955 -0.7074 -0.2992  0.2218
 2917TIP3    H230311   4.534   6.048   7.092 -1.1147 -0.0991  0.2307
 2918TIP3   OH230312   0.263   6.209   7.101 -1.2173  0.0429 -0.0174
 2918TIP3    H130313   0.355   6.189   7.086 -1.3047  0.1347 -0.6958
 2918TIP3    H230314   0.238   6.153   7.174 -0.9462 -0.8837 -0.6155
 2919TIP3   OH230315   1.617   6.023   2.455 -0.3166  0.1272 -0.2136
 2919TIP3    H130316   1.647   5.961   2.388  0.8389 -0.3404  0.7043
 2919TIP3    H230317   1.684   6.019   2.523 -1.2153  0.9576  0.7550
 2920TIP3   OH230318   0.547   5.823   6.601 -0.6954  0.0441 -0.2440
 2920TIP3    H130319   0.578   5.899   6.551  0.7450 -0.5998 -0.3776
 2920TIP3    H230320   0.625   5.792   6.648 -0.0707 -3.7965 -3.3052
 2921TIP3   OH230321   1.739   4.272   8.002  0.7874 -0.7224  0.0716
 2921TIP3    H130322   1.652   4.300   7.972  0.9063 -1.2721 -0.8241
 2921TIP3    H230323   1.736   4.176   7.997  1.9397 -0.7221 -1.4675
 2922TIP3   OH230324   4.677   3.844   8.113 -0.8553  0.1065 -0.2154
 2922TIP3    H130325   4.763   3.882   8.132 -0.9522  0.1695  0.1031
 2922TIP3    H230326   4.652   3.881   8.029 -0.6322  0.1969 -0.2413
 2923TIP3   OH230327   4.832   0.839   1.419 -0.3601  0.3922  0.2358
 2923TIP3    H130328   4.902   0.904   1.418  0.0639 -0.0293 -1.8755
 2923TIP3    H230329   4.862   0.771   1.479  0.0594  1.2274  0.9777
 2924TIP3   OH230330   4.447   5.746   1.212 -0.1397  0.5134  0.2819
 2924TIP3    H130331   4.533   5.714   1.239  0.4666 -0.8395 -2.7487
 2924TIP3    H230332   4.384   5.693   1.260  0.7618  0.0417  0.9519
 2925TIP3   OH230333   1.510   0.899   7.071 -0.1375  0.4459  0.2629
 2925TIP3    H130334   1.500   0.955   6.995 -2.0535  1.7341  1.3978
 2925TIP3    H230335   1.421   0.870   7.093  0.2679  0.5514  2.3086
 2926TIP3   OH230336   1.190   4.036   1.033  0.4072  0.4349  0.6157
 2926TIP3    H130337   1.167   4.108   0.974 -1.8389 -0.8233 -0.1454
 2926TIP3    H230338   1.253   4.075   1.094  1.4457  2.2585 -1.4870
 2927TIP3   OH230339   0.052   6.515   7.557  0.7633 -0.0383 -0.3590
 2927TIP3    H130340   0.128   6.462   7.532  0.3141 -0.4018 -0.9791
 2927TIP3    H230341  -0.008   6.508   7.483 -0.5768 -1.0718  0.7753
 2928TIP3   OH230342   5.900   6.245   7.962 -0.1257 -0.0396  0.4904
 2928TIP3    H130343   5.950   6.287   8.032  1.1201  0.4059 -0.6229
 2928TIP3    H230344   5.846   6.180   8.007  1.5823 -0.6775  1.7562
 2929TIP3   OH230345   4.925   5.710   6.895  0.0010 -1.0015  0.2526
 2929TIP3    H130346   4.908   5.653   6.820 -0.6887  0.4818 -0.7594
 2929TIP3    H230347   4.930   5.798   6.858 -1.9373 -0.0092  2.1108
 2930TIP3   OH230348   6.082   1.636   7.622 -0.2737 -0.3394  0.2293
 2930TIP3    H130349   6.059   1.715   7.671 -0.9827 -0.1659 -0.3628
 2930TIP3    H230350   6.028   1.640   7.543 -0.0934 -1.2659  0.0445
 2931TIP3   OH230351   4.316   1.541   8.045 -0.4443  0.1836  0.1149
 2931TIP3    H130352   4.406   1.555   8.074 -1.3322 -0.7156  3.9657
 2931TIP3    H230353   4.318   1.455   8.003  0.5159  0.2558 -0.0102
 2932TIP3   OH230354   6.026   2.977   7.150 -0.3383 -0.3637  0.3774
 2932TIP3    H130355   6.022   2.923   7.070  0.5303 -1.2107  0.8765
 2932TIP3    H230356   5.938   2.971   7.187 -1.1529  1.1512 -1.1937
 2933TIP3   OH230357   0.039   6.633   2.649  0.8256  0.3842 -0.2214
 2933TIP3    H130358   0.004   6.622   2.738  1.1011  0.7045 -0.0704
 2933TIP3    H230359  -0.033   6.609   2.591  0.0062  2.0947  0.0585
 2934TIP3   OH230360   4.336   2.960   8.063 -0.0662 -0.0009 -0.2716
 2934TIP3    H130361   4.320   3.050   8.034  1.0515  0.5098  0.6011
 2934TIP3    H230362   4.390   2.922   7.993  1.2934  0.7223  0.3379
 2935TIP3   OH230363   1.482   3.628   8.281 -0.3997 -0.5777  0.1189
 2935TIP3    H130364   1.467   3.705   8.226 -2.2217  1.1860  2.8275
 2935TIP3    H230365   1.409   3.570   8.260 -1.1645  0.1449  0.7383
 2936TIP3   OH230366   3.006   6.788   0.932 -0.2748  0.2296 -0.0668
 2936TIP3    H130367   2.918   6.793   0.895 -1.2070 -1.3635  1.7213
 2936TIP3    H230368   3.061   6.759   0.860 -1.8870 -2.1395 -0.4557
 2937TIP3   OH230369   5.247   4.007   0.341 -0.9553 -0.7341  0.0500
 2937TIP3    H130370   5.169   4.055   0.372 -0.7278 -0.5968  0.4114
 2937TIP3    H230371   5.313   4.075   0.330 -0.2259 -1.0949  1.8012
 2938TIP3   OH230372   2.738   0.899   7.369  0.0227 -0.5703  0.6337
 2938TIP3    H130373   2.797   0.832   7.403 -1.1954 -1.8297  0.3959
 2938TIP3    H230374   2.785   0.936   7.294 -0.3040 -3.1217 -0.9718
 2939TIP3   OH230375   0.652   6.186   7.811 -0.1841  0.2723 -0.0003
 2939TIP3    H130376   0.700   6.181   7.728  0.3880 -0.4404  0.3564
 2939TIP3    H230377   0.561   6.196   7.786 -0.2291 -1.7070 -0.7568
 2940TIP3   OH230378   5.433   0.837   0.225 -0.2857  0.2869 -0.2769
 2940TIP3    H130379   5.513   0.881   0.198  0.2600 -1.1830 -1.1759
 2940TIP3    H230380   5.436   0.837   0.321  0.4161  0.8836 -0.2908
 2941TIP3   OH230381   0.190   4.708   0.824  0.0200  0.2227  0.2784
 2941TIP3    H130382   0.193   4.617   0.795  0.8036  0.4792 -0.5117
 2941TIP3    H230383   0.279   4.726   0.855  0.4386  1.2778 -1.4072
 2942TIP3   OH230384   1.537   1.139   8.376  0.1928 -0.0713 -0.2514
 2942TIP3    H130385   1.468   1.176   8.321  0.1187 -1.2361 -0.9814
 2942TIP3    H230386   1.610   1.199   8.365 -0.9416  1.6937  1.2473
 2943TIP3   OH230387   6.257   2.109   1.887 -0.0456 -0.0376 -0.0922
 2943TIP3    H130388   6.292   2.190   1.851  0.6903 -0.1878  0.2618
 2943TIP3    H230389   6.173   2.134   1.926 -0.7407  0.1697 -1.6724
 2944TIP3   OH230390   6.696   0.172   7.545 -0.1479 -0.3928  0.0426
 2944TIP3    H130391   6.603   0.152   7.555 -0.2618  0.5366  1.0161
 2944TIP3    H230392   6.702   0.267   7.555  1.0802 -0.5877  1.7432
 2945TIP3   OH230393   1.747   5.514   0.230 -0.5401 -0.0578 -0.7955
 2945TIP3    H130394   1.688   5.439   0.221 -0.6164  0.0348 -1.0972
 2945TIP3    H230395   1.690   5.590   0.228 -0.7458 -0.0333  2.1411
 2946TIP3   OH230396   1.526   2.519   8.103  0.1529  0.3202  0.5892
 2946TIP3    H130397   1.556   2.598   8.058  0.9100 -0.7486 -0.8707
 2946TIP3    H230398   1.586   2.451   8.073 -1.5560 -1.1656  0.4323
 2947TIP3   OH230399   0.664   1.183   7.475  0.7787  0.1976 -0.0398
 2947TIP3    H130400   0.603   1.121   7.434  1.0378  0.2882 -0.5799
 2947TIP3    H230401   0.722   1.209   7.404  1.2335  0.3765  0.3922
 2948TIP3   OH230402   5.076   5.730   8.203 -0.2785  0.4886 -0.0678
 2948TIP3    H130403   5.004   5.784   8.237  0.5168  1.0368  0.7951
 2948TIP3    H230404   5.099   5.771   8.120 -1.1666  0.1036 -0.5272
 2949TIP3   OH230405   1.959   4.363   7.335 -0.3960  0.0430 -0.0966
 2949TIP3    H130406   2.030   4.378   7.272 -1.1242 -1.7441 -1.4268
 2949TIP3    H230407   1.951   4.446   7.382  2.7029  0.2369  0.2882
 2950TIP3   OH230408   2.490   1.496   6.033  0.1918  0.2802 -0.1367
 2950TIP3    H130409   2.452   1.561   6.093 -1.6266 -0.3006 -0.6041
 2950TIP3    H230410   2.487   1.538   5.947 -0.1744 -0.0958 -0.3059
 2951TIP3   OH230411   0.463   3.920   6.771 -0.0448  0.4480  0.4417
 2951TIP3    H130412   0.381   3.910   6.721  0.2034  0.2548  0.0659
 2951TIP3    H230413   0.531   3.922   6.704  0.1823  1.6963  0.6872
 2952TIP3   OH230414   3.419   0.326   6.880  0.6903 -0.9283 -0.4044
 2952TIP3    H130415   3.392   0.235   6.887  0.0143 -0.7968 -1.1343
 2952TIP3    H230416   3.474   0.329   6.801 -0.9145 -0.3551 -1.5495
 2953TIP3   OH230417   2.374   0.438   2.306 -0.0074 -0.3775 -0.2041
 2953TIP3    H130418   2.431   0.504   2.267 -1.3036  0.5407 -0.6168
 2953TIP3    H230419   2.354   0.378   2.235 -2.7625  1.5643 -1.2432
 2954TIP3   OH230420   5.287   3.603   0.170 -0.8143 -0.1117 -0.6763
 2954TIP3    H130421   5.366   3.658   0.166 -2.6366  2.6247 -2.3665
 2954TIP3    H230422   5.236   3.641   0.241 -0.7101 -1.8215  0.3567
 2955TIP3   OH230423   0.663   4.971   0.414  0.2772 -0.5382 -0.3052
 2955TIP3    H130424   0.634   4.977   0.505 -0.3000 -1.9798 -0.3607
 2955TIP3    H230425   0.676   4.877   0.400 -1.5093 -0.5612 -2.2640
 2956TIP3   OH230426   5.318   2.782   2.222 -0.7222  0.0698 -0.0559
 2956TIP3    H130427   5.322   2.839   2.298 -1.7452  1.8119 -1.2395
 2956TIP3    H230428   5.312   2.841   2.147  0.6935 -1.5667 -1.5612
 2957TIP3   OH230429   5.266   1.520   8.143 -0.4023  0.1517  0.1469
 2957TIP3    H130430   5.251   1.433   8.108  0.0319 -0.7558  2.0822
 2957TIP3    H230431   5.339   1.555   8.091  0.4231 -1.2394  0.3199
 2958TIP3   OH230432   3.116   4.149   7.723 -0.1464 -0.4629  0.4697
 2958TIP3    H130433   3.126   4.058   7.694  0.3485 -0.7468  1.4672
 2958TIP3    H230434   3.048   4.185   7.666 -0.4760 -1.5079  0.1703
 2959TIP3   OH230435   2.671   4.058   6.832  0.1511 -0.0534  0.2454
 2959TIP3    H130436   2.677   4.140   6.784  0.4265 -0.6020 -0.6789
 2959TIP3    H230437   2.599   4.011   6.790  0.5869 -0.6661  0.1779
 2960TIP3   OH230438   5.561   4.809   0.178  0.0869 -0.5840 -0.3228
 2960TIP3    H130439   5.486   4.750   0.175  1.5889 -2.5892 -2.3305
 2960TIP3    H230440   5.573   4.828   0.271 -2.0175 -1.3303  0.1627
 2961TIP3   OH230441   0.004   2.405   6.595  0.2594  0.0088  0.3258
 2961TIP3    H130442   0.056   2.324   6.587  0.3493  0.0974  0.0263
 2961TIP3    H230443  -0.087   2.375   6.593  0.2913 -0.1644  1.0182
 2962TIP3   OH230444   4.072   3.487   0.579 -0.1343 -0.7816 -0.7095
 2962TIP3    H130445   4.038   3.537   0.504  0.8615  1.3689  0.2035
 2962TIP3    H230446   4.016   3.513   0.652  0.8748 -0.4024 -0.0585
 2963TIP3   OH230447   1.744   1.586   7.399 -0.2922  0.0034 -0.1256
 2963TIP3    H130448   1.823   1.624   7.438 -0.5271 -0.7238  1.0760
 2963TIP3    H230449   1.732   1.636   7.318  1.5707 -0.0783 -0.4932
 2964TIP3   OH230450   6.248   0.461   1.879 -0.1773  0.0093 -0.1550
 2964TIP3    H130451   6.289   0.520   1.816  0.1865 -0.2482 -0.1596
 2964TIP3    H230452   6.164   0.502   1.899 -0.3048  0.0765 -0.8280
 2965TIP3   OH230453   3.150   0.983   1.284  0.1328 -0.5674 -0.1210
 2965TIP3    H130454   3.243   1.006   1.283  0.7985 -2.4550  3.6602
 2965TIP3    H230455   3.113   1.036   1.354 -1.2854 -1.1042 -0.4342
 2966TIP3   OH230456   5.031   6.270   6.896  0.8034  0.2452  0.5472
 2966TIP3    H130457   5.046   6.342   6.834 -0.5368  0.8733  0.9091
 2966TIP3    H230458   5.045   6.191   6.845  1.1518  0.7588 -0.1742
 2967TIP3   OH230459   1.246   5.090   1.687 -0.0600 -0.1879  0.7884
 2967TIP3    H130460   1.182   5.026   1.656 -1.2441  0.7419  1.2240
 2967TIP3    H230461   1.203   5.130   1.763 -0.0702  2.2654 -0.4432
 2968TIP3   OH230462   1.508   1.310   8.000 -0.1760  0.2213 -0.8981
 2968TIP3    H130463   1.453   1.278   8.072 -0.2606  0.5398 -0.8218
 2968TIP3    H230464   1.478   1.399   7.984  0.9331  0.7374 -0.2226
 2969TIP3   OH230465   2.683   1.537   0.820  0.4438  0.2818  0.3498
 2969TIP3    H130466   2.698   1.444   0.799  0.8018  0.3428  0.3226
 2969TIP3    H230467   2.680   1.539   0.916 -1.3264 -0.0163  0.3334
 2970TIP3   OH230468   0.705   0.873   8.082  0.0738  0.2101 -0.2644
 2970TIP3    H130469   0.640   0.893   8.150 -0.6579 -0.1387 -0.8433
 2970TIP3    H230470   0.689   0.939   8.014  1.1886  0.9245  0.1401
 2971TIP3   OH230471   6.368   2.322   1.796  0.5194  0.6617 -0.6585
 2971TIP3    H130472   6.411   2.408   1.798  1.2026  0.3289 -0.6930
 2971TIP3    H230473   6.432   2.265   1.754  0.0262  0.1558 -0.7222
 2972TIP3   OH230474   0.320   1.387   0.871 -0.7382 -0.2293  0.6210
 2972TIP3    H130475   0.411   1.404   0.897 -0.1240 -1.7709 -0.3640
 2972TIP3    H230476   0.311   1.292   0.877 -1.8759 -0.2213 -0.5575
 2973TIP3   OH230477   4.484   1.723   6.650  0.3344  0.3789 -0.0674
 2973TIP3    H130478   4.513   1.796   6.595  0.5225  0.4454  0.1192
 2973TIP3    H230479   4.560   1.703   6.705  0.4269 -0.2496 -0.4227
 2974TIP3   OH230480   0.303   4.227   7.224  0.2043 -0.0982  0.3609
 2974TIP3    H130481   0.337   4.299   7.277 -2.0433  1.1909  0.1833
 2974TIP3    H230482   0.317   4.149   7.278  2.6593  0.3964  0.5694
 2975TIP3   OH230483   4.916   0.213   0.854  0.0947 -0.0092 -0.2482
 2975TIP3    H130484   4.969   0.273   0.906  0.3720 -0.4286 -0.0350
 2975TIP3    H230485   4.972   0.191   0.779  0.6606 -1.2533  0.4966
 2976TIP3   OH230486   6.068   0.339   7.273 -0.2178 -0.3357  0.2559
 2976TIP3    H130487   6.079   0.347   7.178 -0.2488 -0.1705  0.2653
 2976TIP3    H230488   5.974   0.355   7.287 -0.2119 -0.3544  0.3154
 2977TIP3   OH230489   0.793   2.415   7.281  0.2813  0.0204 -0.1747
 2977TIP3    H130490   0.857   2.475   7.321  0.4587 -0.4483  0.2508
 2977TIP3    H230491   0.710   2.439   7.322  0.5994 -1.0389  1.1701
 2978TIP3   OH230492   5.850   6.412   1.926 -0.1253  0.7711  0.0045
 2978TIP3    H130493   5.786   6.467   1.973  0.5549  1.8228 -0.2682
 2978TIP3    H230494   5.881   6.350   1.993  0.4155  1.8873  0.8180
 2979TIP3   OH230495   5.570   6.380   1.150 -0.1807 -0.2982  0.3897
 2979TIP3    H130496   5.630   6.308   1.168  1.9303  1.4691  0.8297
 2979TIP3    H230497   5.613   6.457   1.188 -1.1698  1.6288 -2.1192
 2980TIP3   OH230498   4.213   2.762   0.014  0.5340  0.1638  0.7740
 2980TIP3    H130499   4.277   2.824  -0.021 -0.4783  1.3197  0.8943
 2980TIP3    H230500   4.176   2.719  -0.063  1.3963 -0.4661  0.7015
 2981TIP3   OH230501   3.680   3.963   0.538 -0.0033  0.7910  0.1662
 2981TIP3    H130502   3.684   4.014   0.457  0.0906 -0.4281 -0.6214
 2981TIP3    H230503   3.722   3.880   0.517 -2.1726 -0.5346  0.7130
 2982TIP3   OH230504   4.897   6.503   1.723 -0.3379  0.6812 -0.2511
 2982TIP3    H130505   4.867   6.532   1.637 -2.2076 -2.4171 -0.7904
 2982TIP3    H230506   4.855   6.563   1.784 -1.9662  0.7299 -1.3506
 2983TIP3   OH230507   3.675   6.737   8.000 -0.0682  0.6842 -0.2361
 2983TIP3    H130508   3.646   6.743   8.091 -2.5078  0.0836 -0.8981
 2983TIP3    H230509   3.747   6.674   8.002 -1.7552 -1.3250  0.9872
 2984TIP3   OH230510   2.868   5.067   1.481 -0.6482  0.7564 -0.0890
 2984TIP3    H130511   2.917   5.133   1.432 -1.3771  0.4608 -1.2568
 2984TIP3    H230512   2.876   5.095   1.573 -1.1308  2.6032 -0.5617
 2985TIP3   OH230513   3.404   4.862   0.050  0.2856 -0.1251 -0.3478
 2985TIP3    H130514   3.496   4.855   0.025  0.8377  1.4289  1.0273
 2985TIP3    H230515   3.402   4.934   0.113 -1.6714 -1.0056  0.6969
 2986TIP3   OH230516   5.396   2.014   1.500 -0.3114 -0.0033  0.2291
 2986TIP3    H130517   5.394   1.961   1.580  0.3431  0.9132  0.8813
 2986TIP3    H230518   5.438   1.959   1.435  1.3044  0.0562  1.1734
 2987TIP3   OH230519   0.797   1.670   7.200  0.1556 -0.7241 -0.0341
 2987TIP3    H130520   0.769   1.690   7.111  0.9633  1.4768  0.1382
 2987TIP3    H230521   0.719   1.683   7.253  0.4013  1.1356 -0.0699
 2988TIP3   OH230522   6.505   2.485   6.380  0.3634  0.1070  0.2747
 2988TIP3    H130523   6.418   2.523   6.369  0.1311  0.0941  1.8391
 2988TIP3    H230524   6.490   2.406   6.431  0.8253 -2.2278 -2.8947
 2989TIP3   OH230525   2.648   5.121   2.459  0.4124  0.5795  0.0662
 2989TIP3    H130526   2.573   5.114   2.517  0.9341  1.7572  0.9282
 2989TIP3    H230527   2.618   5.085   2.376 -0.8466  0.3162  0.6226
 2990TIP3   OH230528   4.857   1.641   2.294  0.2793 -0.1925 -0.4328
 2990TIP3    H130529   4.806   1.561   2.304  0.2450  0.0114  1.4515
 2990TIP3    H230530   4.812   1.706   2.348  1.9649  0.2379  0.5424
 2991TIP3   OH230531   0.447   0.137   7.921  0.0411 -0.3302  0.8144
 2991TIP3    H130532   0.396   0.058   7.906 -0.0186  0.0325 -1.2576
 2991TIP3    H230533   0.413   0.200   7.857  1.2269  0.8032  1.2528
 2992TIP3   OH230534   5.603   2.798   7.810 -0.0539  0.2937 -0.2350
 2992TIP3    H130535   5.653   2.745   7.747  0.9479  0.5044  0.3671
 2992TIP3    H230536   5.512   2.772   7.795  0.3170 -0.8585 -0.6465
 2993TIP3   OH230537   5.348   0.741   7.632  0.3899 -0.3706 -0.0128
 2993TIP3    H130538   5.427   0.697   7.599  0.0315 -1.2144  0.2110
 2993TIP3    H230539   5.285   0.670   7.644 -0.0194  0.1312  0.9354
 2994TIP3   OH230540   3.374   5.206   7.672  0.4921 -0.1044 -0.3352
 2994TIP3    H130541   3.304   5.177   7.732  1.9614 -0.4647  1.2802
 2994TIP3    H230542   3.362   5.300   7.666  0.4898 -0.0187  0.7995
 2995TIP3   OH230543   4.192   4.247   7.753 -0.4189  0.0264  0.2656
 2995TIP3    H130544   4.242   4.299   7.815  0.9725 -1.8274  0.7834
 2995TIP3    H230545   4.194   4.158   7.789 -1.8928 -0.6024 -1.0641
 2996TIP3   OH230546   1.822   3.072   8.659  0.8025 -0.5141 -0.4736
 2996TIP3    H130547   1.897   3.084   8.602  1.1356  2.3808  0.4444
 2996TIP3    H230548   1.759   3.138   8.630  0.1861 -0.3227  1.2064
 2997TIP3   OH230549   0.020   0.825   1.458 -0.3882 -0.2428 -0.2556
 2997TIP3    H130550  -0.053   0.882   1.432 -1.2726 -0.8721  0.7535
 2997TIP3    H230551   0.096   0.884   1.462 -1.5512  1.2657  2.2422
 2998TIP3   OH230552   5.763   6.274   7.153  0.3598  0.5858  0.3095
 2998TIP3    H130553   5.846   6.234   7.128 -0.3144 -1.3490  0.9519
 2998TIP3    H230554   5.756   6.258   7.248 -1.3094 -0.5091  0.0603
 2999TIP3   OH230555   4.435   0.991   7.040  0.0988  0.3655  0.1633
 2999TIP3    H130556   4.437   0.996   7.136  0.9629 -2.3326  0.3803
 2999TIP3    H230557   4.480   0.909   7.020 -0.3913  0.6797 -2.5597
 3000TIP3   OH230558   5.474   1.890   1.264  0.1173  0.2398 -0.0440
 3000TIP3    H130559   5.436   1.841   1.191  0.8289 -0.0132 -0.2539
 3000TIP3    H230560   5.559   1.921   1.231  0.2525  0.4986  0.5264
 3001TIP3   OH230561   6.123   0.950   0.636  0.0701 -1.1748 -0.4731
 3001TIP3    H130562   6.170   0.898   0.571 -0.3017 -0.7104 -1.1275
 3001TIP3    H230563   6.048   0.985   0.589  1.0290  1.0918 -0.4611
 3002TIP3   OH230564   2.946   0.921   1.780 -0.0921 -0.4266  0.1119
 3002TIP3    H130565   2.909   0.916   1.868 -0.3938 -0.8043 -0.0339
 3002TIP3    H230566   2.870   0.930   1.722  0.1294  0.2488 -0.0790
 3003TIP3   OH230567   2.180   4.090   0.706  0.2413 -0.4467  0.4067
 3003TIP3    H130568   2.251   4.048   0.658  0.9434 -1.6282  2.3692
 3003TIP3    H230569   2.224   4.151   0.766 -0.4476 -0.5526  1.0366
 3004TIP3   OH230570   5.251   5.555   6.709  0.3325 -0.0285  0.0776
 3004TIP3    H130571   5.209   5.629   6.665 -0.4289  0.3268  1.3517
 3004TIP3    H230572   5.336   5.547   6.666  0.1851  1.2032 -0.4870
 3005TIP3   OH230573   6.449   5.678   0.898 -0.2531 -0.0892  0.1230
 3005TIP3    H130574   6.467   5.711   0.986  3.0498  1.8554 -1.0728
 3005TIP3    H230575   6.460   5.755   0.841  1.5017 -1.9866 -2.3154
 3006TIP3   OH230576   3.361   5.576   6.259 -0.3995  0.5777  0.5211
 3006TIP3    H130577   3.414   5.496   6.263  0.2871  1.0019 -0.0280
 3006TIP3    H230578   3.404   5.636   6.320 -1.3569  0.2928  1.5260
 3007TIP3   OH230579   5.624   1.858   7.465 -0.2317  0.0772  0.1788
 3007TIP3    H130580   5.605   1.775   7.508 -1.8364  0.2587 -0.1214
 3007TIP3    H230581   5.691   1.837   7.400 -1.5568 -1.2684 -0.8018
 3008TIP3   OH230582   2.334   4.619   0.939  0.1574 -0.3693  0.0148
 3008TIP3    H130583   2.366   4.574   1.017  2.1076 -0.1960 -0.6206
 3008TIP3    H230584   2.313   4.707   0.969 -0.1281 -0.6055  0.5315
 3009TIP3   OH230585   4.927   6.657   1.183 -0.2007  0.4683 -0.3775
 3009TIP3    H130586   4.993   6.588   1.174 -0.5687  0.2117 -1.2327
 3009TIP3    H230587   4.936   6.709   1.103 -1.5734 -0.0559 -0.9058
 3010TIP3   OH230588   0.048   3.545   0.555 -0.3131  0.0265 -0.2518
 3010TIP3    H130589   0.010   3.633   0.561  0.3650  0.2777  0.4118
 3010TIP3    H230590   0.042   3.510   0.644 -0.4246 -0.5381 -0.4781
 3011TIP3   OH230591   2.411   3.510   0.951  0.7201  0.1812  0.2745
 3011TIP3    H130592   2.407   3.463   1.034 -2.6608 -0.6825 -0.2196
 3011TIP3    H230593   2.417   3.442   0.884 -2.3495  0.3919 -0.3603
 3012TIP3   OH230594   4.536   6.374   2.219 -0.4529 -0.3547 -0.0742
 3012TIP3    H130595   4.576   6.287   2.215  0.4038  0.0565 -1.2098
 3012TIP3    H230596   4.583   6.424   2.152 -0.0215  1.3552  1.4505
 3013TIP3   OH230597   3.645   5.235   0.068  0.2862 -0.0668  0.8428
 3013TIP3    H130598   3.698   5.168   0.111  2.3716  2.0623  1.8095
 3013TIP3    H230599   3.677   5.236  -0.022 -0.7988 -1.3083  0.4063
 3014TIP3   OH230600   5.721   1.937   8.064  0.6140 -0.6279  0.6820
 3014TIP3    H130601   5.689   2.010   8.117  0.4497  1.1022 -1.6303
 3014TIP3    H230602   5.644   1.881   8.052 -0.6650  1.4196 -1.5145
 3015TIP3   OH230603   3.998   3.451   8.527  0.5520 -0.0145  0.4427
 3015TIP3    H130604   3.954   3.401   8.596  0.4976  0.2460  0.5966
 3015TIP3    H230605   4.079   3.481   8.566 -0.2559  1.5902  0.9676
 3016TIP3   OH230606   2.598   1.428   1.621 -0.0474 -0.5923  0.2323
 3016TIP3    H130607   2.671   1.488   1.613 -0.6811  0.2024  0.2725
 3016TIP3    H230608   2.574   1.431   1.713 -1.4989  0.8525 -0.1336
 3017TIP3   OH230609   3.391   1.093   0.848  0.0447  0.7153  0.2952
 3017TIP3    H130610   3.371   1.095   0.754 -1.0075  1.8199  0.5309
 3017TIP3    H230611   3.469   1.038   0.854 -0.5648 -0.3623 -1.0921
 3018TIP3   OH230612   5.513   5.725   0.826  0.1546  0.1605 -0.5592
 3018TIP3    H130613   5.599   5.737   0.787  0.7563  3.7987  1.4594
 3018TIP3    H230614   5.530   5.679   0.909  0.3215  1.4626  0.1562
 3019TIP3   OH230615   5.157   1.170   1.875  0.4088  0.2161  0.0805
 3019TIP3    H130616   5.187   1.161   1.966  1.5709 -0.0336 -0.3011
 3019TIP3    H230617   5.225   1.223   1.833  0.0671  0.0339 -0.7167
 3020TIP3   OH230618   4.583   0.542   0.424 -0.2625  0.4598 -0.3299
 3020TIP3    H130619   4.662   0.505   0.464  0.0908 -1.0627 -2.2559
 3020TIP3    H230620   4.550   0.471   0.369 -1.9060  1.7295 -1.0398
 3021TIP3   OH230621   3.172   5.164   1.074  0.2798  0.1146  0.0833
 3021TIP3    H130622   3.252   5.129   1.114  0.3822  0.5169  0.2348
 3021TIP3    H230623   3.202   5.201   0.990  0.4429  1.1814  0.5890
 3022TIP3   OH230624   0.698   5.872   2.286  0.1739  0.3600  0.2452
 3022TIP3    H130625   0.763   5.804   2.305  0.0841  0.4001  0.7028
 3022TIP3    H230626   0.740   5.926   2.220  0.6255  0.3991  0.5562
 3023TIP3   OH230627   6.106   6.169   1.804 -0.7362  0.5350  0.0651
 3023TIP3    H130628   6.048   6.215   1.864  0.0177 -1.0311  2.0992
 3023TIP3    H230629   6.179   6.229   1.789 -1.5102  1.4031 -0.2551
 3024TIP3   OH230630   5.001   2.996   8.700  0.3418  0.0042 -0.2898
 3024TIP3    H130631   4.938   3.069   8.699  1.9939  1.5368  1.4092
 3024TIP3    H230632   4.955   2.925   8.745 -0.8672  0.3909 -0.8711
 3025TIP3   OH230633   3.166   0.357   0.391  0.3984  0.0615  0.5318
 3025TIP3    H130634   3.256   0.342   0.359  0.5184 -1.5677  1.5099
 3025TIP3    H230635   3.177   0.410   0.470  0.4681  0.2120  0.4212
 3026TIP3   OH230636   5.706   5.005   0.050 -0.4097  0.7637 -0.4911
 3026TIP3    H130637   5.711   5.087   0.099  1.1513  0.4043  0.0242
 3026TIP3    H230638   5.646   4.950   0.101  0.3902  0.7650  0.4771
 3027TIP3   OH230639   1.478   2.974   1.514  0.4293  0.0751  0.2880
 3027TIP3    H130640   1.464   2.971   1.609  1.5560  0.6504  0.4813
 3027TIP3    H230641   1.468   2.883   1.486 -0.6655  0.0054  0.8330
 3028TIP3   OH230642   6.165   3.780   0.932  0.6543  0.3224 -0.0760
 3028TIP3    H130643   6.253   3.796   0.899  0.6594  1.1347  0.3069
 3028TIP3    H230644   6.116   3.860   0.911  0.2166  0.1874  0.4024
 3029TIP3   OH230645   2.285   4.052   2.082  0.3663  0.0980  0.7380
 3029TIP3    H130646   2.363   4.060   2.027 -0.4328 -0.1863 -0.4913
 3029TIP3    H230647   2.286   3.961   2.112  0.6548  0.1741  0.9602
 3030TIP3   OH230648   1.934   4.104   7.274 -0.6894  0.2452 -0.3546
 3030TIP3    H130649   1.931   4.198   7.291 -0.0815  0.5730 -1.8341
 3030TIP3    H230650   1.917   4.097   7.180 -2.8802 -1.3101  0.0897
 3031TIP3   OH230651   2.846   6.254   6.139  0.1001 -0.3675 -0.4729
 3031TIP3    H130652   2.858   6.349   6.140  1.0124 -0.4707  0.6424
 3031TIP3    H230653   2.916   6.222   6.083 -0.4453 -0.3680 -1.1670
 3032TIP3   OH230654   3.453   1.112   6.391 -0.3504 -0.2360 -0.3645
 3032TIP3    H130655   3.462   1.020   6.366 -0.5543 -0.3113 -0.1648
 3032TIP3    H230656   3.366   1.136   6.358 -0.7592 -0.4264  0.5517
 3033TIP3   OH230657   4.989   0.831   8.745  0.4426 -0.0790  0.5550
 3033TIP3    H130658   4.926   0.839   8.817  0.2046  0.1143  0.3249
 3033TIP3    H230659   5.074   0.835   8.788  0.2994 -0.6477  0.9018
 3034TIP3   OH230660   5.224   3.102   0.381  0.2425  0.4964 -0.3927
 3034TIP3    H130661   5.278   3.026   0.401  0.2018  0.5794  0.0373
 3034TIP3    H230662   5.284   3.166   0.342  0.7213  1.0797  1.2446
 3035TIP3   OH230663   2.253   3.621   7.390  0.9943 -0.7780 -0.0869
 3035TIP3    H130664   2.264   3.672   7.310 -0.8983 -2.8229 -1.7887
 3035TIP3    H230665   2.215   3.682   7.452  1.9516  0.7131 -0.8905
 3036TIP3   OH230666   2.057   0.159   1.954  0.2695 -0.7429  0.2325
 3036TIP3    H130667   2.087   0.069   1.938 -0.8195 -1.1464  0.3359
 3036TIP3    H230668   1.980   0.148   2.010  0.4891  0.3040  0.7645
 3037TIP3   OH230669   0.160   2.556   0.511 -0.1716  0.2917 -0.4209
 3037TIP3    H130670   0.210   2.523   0.585  1.8840  0.9063 -1.4430
 3037TIP3    H230671   0.096   2.616   0.550  2.0629  2.0252  0.7894
 3038TIP3   OH230672   5.925   5.521   6.603  0.1756  0.0706  0.3803
 3038TIP3    H130673   5.956   5.604   6.640 -1.4492  0.5333  0.7839
 3038TIP3    H230674   5.860   5.547   6.539  0.2028 -0.8866 -0.0398
 3039TIP3   OH230675   3.431   1.476   8.719  0.2354  0.5610  0.0331
 3039TIP3    H130676   3.467   1.476   8.808  1.3417  2.4968 -0.3452
 3039TIP3    H230677   3.431   1.569   8.694 -2.0138  0.2678 -1.2396
 3040TIP3   OH230678   6.482   3.219   8.674 -0.4000  0.2157  0.3520
 3040TIP3    H130679   6.433   3.138   8.691 -0.0262  0.2216  1.5660
 3040TIP3    H230680   6.548   3.194   8.609  1.1085 -1.0583  2.2358
 3041TIP3   OH230681   5.384   2.761   0.741  0.2481  0.1062 -0.3048
 3041TIP3    H130682   5.400   2.819   0.667  1.0436 -0.7432 -0.8197
 3041TIP3    H230683   5.309   2.708   0.715  0.2525  0.1079 -0.3208
 3042TIP3   OH230684   5.276   4.980   7.744  0.4052 -0.0740  0.0912
 3042TIP3    H130685   5.358   4.957   7.790  0.1747  0.9345  1.0535
 3042TIP3    H230686   5.213   4.916   7.776  0.4781  0.0268  0.4417
 3043TIP3   OH230687   3.988   2.592   8.196  0.0144 -0.2384 -0.0147
 3043TIP3    H130688   3.921   2.599   8.128 -2.9627 -2.4336  2.4053
 3043TIP3    H230689   4.068   2.571   8.149 -1.2587  1.0462 -2.9796
 3044TIP3   OH230690   6.277   5.149   8.086  0.3632 -0.3721 -0.5890
 3044TIP3    H130691   6.223   5.139   8.008  1.0157 -1.4581 -0.9238
 3044TIP3    H230692   6.270   5.242   8.108  0.6005  0.0756 -2.2588
 3045TIP3   OH230693   2.647   4.525   0.912 -0.0442  0.0851 -0.4050
 3045TIP3    H130694   2.565   4.574   0.915  0.2659  0.5671  0.7556
 3045TIP3    H230695   2.699   4.571   0.846  0.1155  1.1359  0.4314
 3046TIP3   OH230696   0.795   0.306   0.277 -0.2177 -0.5552 -0.6497
 3046TIP3    H130697   0.831   0.383   0.233  1.0408 -1.4771 -1.3080
 3046TIP3    H230698   0.839   0.305   0.363 -0.7152 -0.1919 -0.3890
 3047TIP3   OH230699   5.089   0.194   2.152  0.2067 -0.0090  0.1782
 3047TIP3    H130700   5.102   0.241   2.070  0.9407 -0.6913 -0.1065
 3047TIP3    H230701   5.013   0.236   2.192 -0.3039  0.1838 -0.9602
 3048TIP3   OH230702   1.007   5.135   1.370 -0.1365  0.0120  0.1920
 3048TIP3    H130703   0.965   5.208   1.324 -0.8428 -0.8525 -0.5974
 3048TIP3    H230704   0.941   5.104   1.432 -0.0238 -0.2573  0.1802
 3049TIP3   OH230705   2.431   0.018   8.520 -0.0735 -0.5114 -0.3908
 3049TIP3    H130706   2.347  -0.002   8.478 -0.7139 -2.1579  1.5499
 3049TIP3    H230707   2.409   0.036   8.611  1.3582  2.3161 -0.4633
 3050TIP3   OH230708   5.605   5.247   7.811  0.4497 -0.0134  0.4683
 3050TIP3    H130709   5.528   5.260   7.866 -0.8974 -0.5885 -1.2383
 3050TIP3    H230710   5.617   5.152   7.809  1.2354  0.0720  0.7358
 3051TIP3   OH230711   6.578   2.163   1.656  0.6833 -0.7486 -0.0075
 3051TIP3    H130712   6.593   2.080   1.701 -1.4659 -1.5022 -0.5672
 3051TIP3    H230713   6.642   2.163   1.585 -1.5673 -3.7788 -2.3103
 3052TIP3   OH230714   4.710   6.515   1.101  0.0382 -0.0202  0.1409
 3052TIP3    H130715   4.728   6.480   1.014 -0.9646 -0.6326  0.1739
 3052TIP3    H230716   4.786   6.570   1.120 -0.8686  2.2735 -2.2039
 3053TIP3   OH230717   2.880   5.113   1.761  0.1121 -0.2826 -0.0278
 3053TIP3    H130718   2.816   5.050   1.792 -1.7863  1.5311 -0.0072
 3053TIP3    H230719   2.949   5.112   1.827 -0.2985 -1.6716  0.4121
 3054TIP3   OH230720   2.062   2.928   1.166  0.1465 -0.1051  0.0240
 3054TIP3    H130721   2.136   2.958   1.219  0.3100 -2.0822  1.0191
 3054TIP3    H230722   2.100   2.866   1.104 -0.4955 -0.2025 -0.2832
 3055TIP3   OH230723   0.501   6.418   0.505  0.6217 -0.0947  0.0741
 3055TIP3    H130724   0.515   6.463   0.422  3.1371  0.9602  0.9552
 3055TIP3    H230725   0.508   6.487   0.572  1.9400 -1.3444  1.3049
 3056TIP3   OH230726   3.957   4.388   8.265  0.3212  0.4366  0.4406
 3056TIP3    H130727   3.941   4.425   8.178 -1.3208  0.6754  0.8072
 3056TIP3    H230728   3.870   4.377   8.303  0.9798 -0.0981  1.8889
 3057TIP3   OH230729   6.281   1.838   1.955  0.1666 -0.2207  0.2233
 3057TIP3    H130730   6.292   1.932   1.943  1.2722 -0.5250 -1.4124
 3057TIP3    H230731   6.209   1.830   2.017  0.8693  1.7152  1.3665
 3058TIP3   OH230732   5.355   1.713   1.047  0.6448  0.5642  0.9998
 3058TIP3    H130733   5.308   1.635   1.075 -1.9435  1.1095 -1.3392
 3058TIP3    H230734   5.447   1.688   1.048 -0.0162 -2.0910  1.4831
 3059TIP3   OH230735   0.473   2.140   8.356  0.0856 -0.1120 -0.1937
 3059TIP3    H130736   0.441   2.153   8.267  0.5195  1.0988 -0.1862
 3059TIP3    H230737   0.506   2.049   8.357  0.2442 -0.0777 -1.3130
 3060TIP3   OH230738   4.746   4.501   0.094 -0.7719  0.4957  0.1779
 3060TIP3    H130739   4.833   4.504   0.054 -0.6812  4.0406  0.2926
 3060TIP3    H230740   4.761   4.473   0.184  0.0797 -0.0709 -0.1353
 3061TIP3   OH230741   1.421   3.145   6.930 -0.3473 -0.8087  0.1108
 3061TIP3    H130742   1.343   3.102   6.895 -0.4306 -0.6905  0.1488
 3061TIP3    H230743   1.386   3.210   6.991 -0.2722  0.0408 -0.7392
 3062TIP3   OH230744   2.403   0.330   8.193 -0.4792 -0.4598 -0.1315
 3062TIP3    H130745   2.365   0.335   8.280 -1.6808  0.6786 -0.6937
 3062TIP3    H230746   2.352   0.262   8.148 -0.2361 -0.6505 -0.1186
 3063TIP3   OH230747   6.328   5.544   1.391  0.2126 -0.3596 -0.0625
 3063TIP3    H130748   6.274   5.539   1.312 -0.4977 -1.3712  0.4747
 3063TIP3    H230749   6.321   5.635   1.419 -1.2954 -0.4903  0.0472
 3064TIP3   OH230750   0.548   3.141   6.970 -0.3119  0.0658  0.1706
 3064TIP3    H130751   0.618   3.110   7.028  0.7271 -0.7325 -1.4496
 3064TIP3    H230752   0.543   3.075   6.901  1.3599  2.8777 -2.9505
 3065TIP3   OH230753   3.781   2.813   7.695 -0.2643  0.1585 -0.2995
 3065TIP3    H130754   3.855   2.832   7.637 -0.4131 -0.9711 -0.8904
 3065TIP3    H230755   3.809   2.845   7.781  1.0809 -0.6162 -0.4201
 3066TIP3   OH230756   6.068   4.321   1.536  0.5383 -0.1643 -1.0504
 3066TIP3    H130757   6.006   4.393   1.546  1.0839  0.3305 -1.1604
 3066TIP3    H230758   6.097   4.327   1.445  1.3132  0.0804 -0.7968
 3067TIP3   OH230759   3.228   3.168   1.036  0.3022  0.2236 -0.2035
 3067TIP3    H130760   3.134   3.154   1.021  0.2357  1.2547 -0.8863
 3067TIP3    H230761   3.268   3.083   1.019 -0.3438  0.1441 -1.5218
 3068TIP3   OH230762   3.998   1.577   6.859  0.5608  0.2373  0.2417
 3068TIP3    H130763   3.968   1.582   6.768 -1.7668 -1.0017  0.8786
 3068TIP3    H230764   4.075   1.520   6.855  0.6227  0.3655 -0.9737
 3069TIP3   OH230765   5.911   4.149   0.592 -0.1253 -0.5111  0.0459
 3069TIP3    H130766   5.911   4.241   0.620  0.3670 -1.0515  1.9499
 3069TIP3    H230767   5.894   4.153   0.497  1.8220  1.6350 -0.3083
 3070TIP3   OH230768   1.728   0.058   0.418 -0.0017  0.4324  0.2031
 3070TIP3    H130769   1.786   0.126   0.453 -2.2699  1.8664  1.4135
 3070TIP3    H230770   1.722  -0.007   0.488 -1.4387  1.3519  0.9947
 3071TIP3   OH230771   4.302   1.278   2.265  0.0965  0.6125  0.2632
 3071TIP3    H130772   4.270   1.211   2.204 -1.7027  0.7578  0.9998
 3071TIP3    H230773   4.261   1.359   2.235 -0.4490  0.7671  1.3732
 3072TIP3   OH230774   1.673   4.365   6.201  0.0017  0.0941 -0.0179
 3072TIP3    H130775   1.596   4.398   6.154  1.0220  0.6393 -1.3415
 3072TIP3    H230776   1.660   4.270   6.203 -0.4370  0.1343 -0.7149
 3073TIP3   OH230777   0.278   5.130   2.230 -0.0514 -0.0601 -0.4145
 3073TIP3    H130778   0.237   5.046   2.210 -1.9985  0.6211  0.5026
 3073TIP3    H230779   0.347   5.107   2.293  0.3013 -1.1077 -1.1483
 3074TIP3   OH230780   5.209   3.047   8.230  0.1759  0.0194  0.1276
 3074TIP3    H130781   5.301   3.071   8.223 -0.0783  1.2073  0.6018
 3074TIP3    H230782   5.162   3.115   8.182 -0.7775  2.3568  3.9488
 3075TIP3   OH230783   2.788   3.434   8.721  0.1790 -1.2690 -0.0477
 3075TIP3    H130784   2.883   3.422   8.711  0.5941 -0.0986  1.9338
 3075TIP3    H230785   2.751   3.407   8.637  2.4070 -0.2418 -1.4410
 3076TIP3   OH230786   0.641   4.805   8.627  0.4098  0.4863 -0.2692
 3076TIP3    H130787   0.632   4.710   8.634  1.0774  0.3894 -0.6478
 3076TIP3    H230788   0.564   4.840   8.672 -0.1155 -0.2434 -0.5856
 3077TIP3   OH230789   2.001   2.806   8.640 -0.7401 -0.1219 -0.0504
 3077TIP3    H130790   1.942   2.833   8.569  0.9680 -0.1006 -1.5540
 3077TIP3    H230791   2.001   2.880   8.701  0.8569  1.7802 -2.1441
 3078TIP3   OH230792   5.436   2.367   1.552 -0.8929 -0.7252  0.0627
 3078TIP3    H130793   5.454   2.298   1.488 -0.0292 -1.9084  1.5148
 3078TIP3    H230794   5.480   2.338   1.632 -1.4122  1.0042  1.0349
 3079TIP3   OH230795   2.390   1.536   0.594 -0.2445 -0.0156  0.0433
 3079TIP3    H130796   2.330   1.547   0.520 -0.0251  1.0074  0.0031
 3079TIP3    H230797   2.477   1.529   0.554 -0.1847 -0.0497  0.1774
 3080TIP3   OH230798   0.216   5.487   0.474  0.0863 -0.1575  0.0972
 3080TIP3    H130799   0.286   5.550   0.456  0.4050 -0.5807 -0.1695
 3080TIP3    H230800   0.225   5.467   0.567 -0.6692  0.9694  0.4171
 3081TIP3   OH230801   5.042   5.940   1.283 -0.4848  0.1122 -0.3074
 3081TIP3    H130802   4.975   5.979   1.227 -1.2272  0.6584  0.9084
 3081TIP3    H230803   5.058   6.005   1.351  2.5696  0.7559 -1.4734
 3082TIP3   OH230804   4.725   3.915   6.902  0.1705  0.0833 -0.2716
 3082TIP3    H130805   4.688   3.931   6.988  1.7304 -1.1581  0.6962
 3082TIP3    H230806   4.802   3.859   6.919  0.4994 -0.2244 -2.4589
 3083TIP3   OH230807   5.136   1.963   1.466 -0.0436  0.4416 -0.2495
 3083TIP3    H130808   5.106   1.932   1.381  1.7142 -2.1294 -0.0685
 3083TIP3    H230809   5.229   1.984   1.452 -0.0034  0.9971  0.7784
 3084TIP3   OH230810   1.875   6.202   0.167 -0.4977 -0.2093  0.4958
 3084TIP3    H130811   1.835   6.117   0.184  0.2142 -0.5330  0.6270
 3084TIP3    H230812   1.808   6.266   0.191 -2.0368 -0.7158 -2.0540
 3085TIP3   OH230813   1.137   6.251   6.819 -0.3905 -0.1419 -0.5053
 3085TIP3    H130814   1.204   6.300   6.770  1.1155 -0.6021  0.9655
 3085TIP3    H230815   1.115   6.309   6.892  0.1161 -0.9138  0.2789
 3086TIP3   OH230816   4.214   1.223   1.724 -0.2525 -0.4977 -0.1072
 3086TIP3    H130817   4.304   1.215   1.694 -0.2449  2.1583 -1.0628
 3086TIP3    H230818   4.218   1.285   1.797 -1.2299 -0.9081  0.3131
 3087TIP3   OH230819   5.964   1.790   8.112 -0.0373  0.1082  0.1533
 3087TIP3    H130820   5.887   1.818   8.062  0.7242  1.4614 -0.3004
 3087TIP3    H230821   5.948   1.823   8.200  0.0855  0.5053  0.0268
 3088TIP3   OH230822   3.292   1.794   0.683 -0.5053  0.3939 -0.1696
 3088TIP3    H130823   3.331   1.710   0.708 -1.2349  0.3585  0.9157
 3088TIP3    H230824   3.323   1.855   0.749 -2.2999  0.3489  0.7659
 3089TIP3   OH230825   4.194   6.395   8.648 -0.2827  0.5755 -0.0452
 3089TIP3    H130826   4.278   6.435   8.672 -0.3480  0.5286  0.2705
 3089TIP3    H230827   4.133   6.469   8.645 -0.5546  0.4277  1.2220
 3090TIP3   OH230828   0.448   1.717   1.748  0.2812 -0.3294  0.1605
 3090TIP3    H130829   0.438   1.714   1.652  2.2816 -1.2092 -0.0665
 3090TIP3    H230830   0.450   1.625   1.774 -0.3944 -0.0933  1.0965
 3091TIP3   OH230831   5.469   3.956   7.236  0.3791  0.3000  0.2841
 3091TIP3    H130832   5.492   3.863   7.227  2.0281  0.5780  1.2272
 3091TIP3    H230833   5.496   3.979   7.325  4.3230  2.7434 -1.2852
 3092TIP3   OH230834   4.734   5.253   0.556  0.1200  0.4573 -0.0049
 3092TIP3    H130835   4.761   5.274   0.645 -0.8188  0.8748  0.1906
 3092TIP3    H230836   4.799   5.295   0.500  0.7858  0.0848  0.4785
 3093TIP3   OH230837   5.917   5.104   1.434 -0.4071 -0.2581  0.1963
 3093TIP3    H130838   5.969   5.184   1.445 -0.4845 -0.1098 -0.4767
 3093TIP3    H230839   5.828   5.135   1.420 -1.2046 -0.5388  3.6895
 3094TIP3   OH230840   1.976   6.213   2.543  0.4963 -0.3603 -0.6932
 3094TIP3    H130841   2.053   6.168   2.507 -0.0114 -1.2416 -0.7093
 3094TIP3    H230842   1.916   6.142   2.565  0.2707  0.2305  0.6977
 3095TIP3   OH230843   6.341   5.008   6.736  0.5447  0.8141 -0.1496
 3095TIP3    H130844   6.282   5.069   6.692  0.2276 -0.4251 -1.5100
 3095TIP3    H230845   6.425   5.020   6.692  0.1370 -0.6899 -1.4078
 3096TIP3   OH230846   5.763   4.479   1.113 -0.0128 -0.4802  0.0740
 3096TIP3    H130847   5.732   4.567   1.093 -0.2082 -0.7032 -0.6278
 3096TIP3    H230848   5.704   4.421   1.065 -0.2836 -1.0271  1.0388
 3097TIP3   OH230849   6.731   5.152   1.622 -0.9112  0.0221 -0.0870
 3097TIP3    H130850   6.653   5.107   1.656 -1.1290  0.3725 -0.1192
 3097TIP3    H230851   6.765   5.093   1.555  0.1997 -1.2587  1.4981
 3098TIP3   OH230852   3.553   1.163   7.375 -0.1714 -0.3567 -0.2216
 3098TIP3    H130853   3.558   1.071   7.401 -1.0567  0.2166  2.2798
 3098TIP3    H230854   3.463   1.174   7.344 -0.5503 -0.0353  0.9396
 3099TIP3   OH230855   0.053   4.480   8.354 -0.3832 -0.1215 -0.0082
 3099TIP3    H130856   0.033   4.482   8.260 -1.5751  1.5339  0.2381
 3099TIP3    H230857   0.010   4.401   8.386  0.0115 -0.6866 -0.8388
 3100TIP3   OH230858   6.194   3.951   6.992  0.1233 -0.0926 -0.6309
 3100TIP3    H130859   6.258   3.881   6.987  0.9833  0.6211 -0.0688
 3100TIP3    H230860   6.111   3.910   6.968  0.2483 -1.7619  1.4626
 3101TIP3   OH230861   1.177   5.095   7.090 -0.2404 -0.1700  0.1036
 3101TIP3    H130862   1.102   5.101   7.150  0.0852 -0.2558  0.5295
 3101TIP3    H230863   1.138   5.080   7.004 -0.7029 -0.6185  0.3803
 3102TIP3   OH230864   3.344   6.342   1.285  0.2880  0.0468  0.6337
 3102TIP3    H130865   3.266   6.321   1.337  0.7182 -0.1549  1.2014
 3102TIP3    H230866   3.398   6.264   1.290  1.5989  1.0006  2.1950
 3103TIP3   OH230867   5.821   6.560   6.750 -0.2414 -0.3754  0.0208
 3103TIP3    H130868   5.771   6.494   6.798  0.5989 -0.1011  1.3330
 3103TIP3    H230869   5.759   6.596   6.686 -1.5984 -0.3588  1.2850
 3104TIP3   OH230870   4.917   4.012   1.525  0.0936 -0.2721  0.1605
 3104TIP3    H130871   4.925   3.920   1.549  0.2065 -0.1795  0.4829
 3104TIP3    H230872   4.976   4.022   1.450  1.3111 -0.1105  1.1139
 3105TIP3   OH230873   6.645   5.060   6.022 -0.1920  0.4707 -0.2616
 3105TIP3    H130874   6.584   4.997   5.984 -0.2702  1.2952 -1.5987
 3105TIP3    H230875   6.676   5.019   6.103 -1.5670 -0.4915 -0.1960
 3106TIP3   OH230876   2.655   2.658   1.360  0.5015  0.1071  0.3141
 3106TIP3    H130877   2.622   2.605   1.433 -2.4826  0.7195 -0.4800
 3106TIP3    H230878   2.653   2.748   1.392  1.3996  0.1827  0.2001
 3107TIP3   OH230879   0.446   6.025   8.267  0.1172 -0.2746  0.3109
 3107TIP3    H130880   0.519   5.976   8.229  0.9915  1.7162 -0.7642
 3107TIP3    H230881   0.384   6.036   8.195  0.1269  0.4799  0.4020
 3108TIP3   OH230882   4.078   5.996   6.448 -0.0506 -0.0825 -0.4815
 3108TIP3    H130883   4.059   6.006   6.354  1.2232  0.3543 -0.7173
 3108TIP3    H230884   4.060   6.083   6.484  0.2894 -0.0083 -0.4867
 3109TIP3   OH230885   1.038   5.189   8.747  0.3259 -0.1972 -0.3866
 3109TIP3    H130886   1.047   5.235   8.664  2.0021  1.6781  0.7628
 3109TIP3    H230887   0.947   5.159   8.747  0.0986  0.3025 -2.5938
 3110TIP3   OH230888   5.804   2.103   0.317 -0.0254 -0.0503 -0.5119
 3110TIP3    H130889   5.807   2.010   0.335 -3.3208 -0.6293 -2.1982
 3110TIP3    H230890   5.781   2.144   0.401  1.7793 -0.6466  0.3129
 3111TIP3   OH230891   2.226   2.499   8.108  0.1453 -0.7051 -0.2544
 3111TIP3    H130892   2.203   2.417   8.064  1.1747 -0.9379 -0.3806
 3111TIP3    H230893   2.202   2.567   8.045 -1.8491 -0.7968  0.3235
 3112TIP3   OH230894   1.060   4.764   6.424  0.1424 -0.2047 -0.2754
 3112TIP3    H130895   0.977   4.723   6.398  0.1296  0.2212 -0.9232
 3112TIP3    H230896   1.044   4.858   6.414 -0.0485  0.0345  1.8402
 3113TIP3   OH230897   3.877   4.991   8.013 -0.3800  0.0697 -0.4133
 3113TIP3    H130898   3.838   4.933   7.948 -2.4945  1.3624 -0.3944
 3113TIP3    H230899   3.813   4.994   8.084  0.1490  1.5768  0.0356
 3114TIP3   OH230900   4.536   3.040   7.048  0.4867  0.1241  0.5036
 3114TIP3    H130901   4.603   2.971   7.047  0.4033 -0.0048 -1.8984
 3114TIP3    H230902   4.461   2.999   7.092  0.6682 -1.0934 -0.2604
 3115TIP3   OH230903   4.390   2.381   1.253 -0.4611 -0.5595 -0.5136
 3115TIP3    H130904   4.352   2.410   1.170 -1.3580  0.1741  0.1377
 3115TIP3    H230905   4.372   2.452   1.314  2.1086 -0.0835 -0.1824
 3116TIP3   OH230906   6.690   6.205   6.582  0.7156 -0.1581  0.2428
 3116TIP3    H130907   6.625   6.144   6.616 -0.2218  1.4359  1.4434
 3116TIP3    H230908   6.647   6.246   6.507  1.6251 -1.4349 -1.0401
 3117TIP3   OH230909   6.458   0.330   0.128  0.1518  0.0056 -0.3265
 3117TIP3    H130910   6.532   0.278   0.158  1.6568  1.9637 -0.3794
 3117TIP3    H230911   6.493   0.419   0.122 -2.3824  1.1315  0.2182
 3118TIP3   OH230912   2.599   4.195   8.498 -0.4478  0.9196 -0.6069
 3118TIP3    H130913   2.601   4.260   8.568  1.9983 -0.6523  0.9294
 3118TIP3    H230914   2.672   4.219   8.441  0.3661 -0.2932 -0.1249
 3119TIP3   OH230915   2.616   5.322   1.495  0.0264  0.3659 -0.2790
 3119TIP3    H130916   2.629   5.285   1.582 -0.2327  1.2489  0.1427
 3119TIP3    H230917   2.521   5.328   1.485  0.0616  0.6891 -0.4387
 3120TIP3   OH230918   5.621   0.186   1.004 -0.3685 -0.1943 -0.5485
 3120TIP3    H130919   5.588   0.104   0.967  3.0626 -2.7723  1.5645
 3120TIP3    H230920   5.612   0.175   1.099  2.8111  0.4985 -0.0510
 3121TIP3   OH230921   3.512   4.955   0.934  0.1235  0.4570  0.8503
 3121TIP3    H130922   3.468   4.871   0.942  0.9044  0.1166  1.7308
 3121TIP3    H230923   3.527   4.966   0.840 -2.6975  1.0664  0.3598
 3122TIP3   OH230924   1.284   4.832   0.961  0.2877  0.7158  0.2683
 3122TIP3    H130925   1.287   4.827   1.057  1.4722 -0.1837  0.2093
 3122TIP3    H230926   1.343   4.904   0.939  0.1915  0.7779  0.2172
 3123TIP3   OH230927   6.019   0.711   2.233  0.0237 -0.1705 -0.8976
 3123TIP3    H130928   5.930   0.744   2.233 -0.0324 -0.2985 -1.5019
 3123TIP3    H230929   6.069   0.774   2.284 -0.3017  0.2252 -1.0663
 3124TIP3   OH230930   1.020   1.233   7.355 -0.0884 -0.6344  0.0468
 3124TIP3    H130931   0.950   1.226   7.290  0.3605 -0.5435 -0.4529
 3124TIP3    H230932   1.100   1.218   7.306  0.2143 -1.2546  0.7081
 3125TIP3   OH230933   3.514   3.921   8.535 -0.6278 -0.5968  0.4701
 3125TIP3    H130934   3.565   3.989   8.491 -0.7887  1.0732  2.6972
 3125TIP3    H230935   3.579   3.862   8.572 -0.3248  0.3919  1.5678
 3126TIP3   OH230936   5.176   2.701   1.315  0.3871 -0.2056 -0.1063
 3126TIP3    H130937   5.256   2.648   1.308  1.0710  0.6931  0.6300
 3126TIP3    H230938   5.107   2.645   1.282  1.3100 -1.0588 -0.6332
 3127TIP3   OH230939   2.022   3.892   8.556  0.0906  0.6053 -0.1715
 3127TIP3    H130940   2.088   3.823   8.550 -0.8050 -0.1914 -1.5251
 3127TIP3    H230941   2.071   3.973   8.550  0.8902  0.0126 -2.4926
 3128TIP3   OH230942   1.378   6.541   6.972 -0.4734 -0.1139 -0.1127
 3128TIP3    H130943   1.431   6.607   7.017  1.1506 -0.8814 -0.8375
 3128TIP3    H230944   1.316   6.510   7.039  0.1161  0.6708  0.8085
 3129TIP3   OH230945   5.285   0.270   0.469  0.6447  0.2867  1.0801
 3129TIP3    H130946   5.238   0.230   0.396  1.6667  0.6487  0.2019
 3129TIP3    H230947   5.296   0.362   0.443 -0.1899  0.7846  2.3167
 3130TIP3   OH230948   0.772   4.741   7.139 -0.0608  0.0312 -0.2491
 3130TIP3    H130949   0.708   4.782   7.080  0.7338  0.4326 -0.8379
 3130TIP3    H230950   0.800   4.811   7.197 -1.2040 -0.4715  0.9582
 3131TIP3   OH230951   5.020   5.742   7.154 -0.2478 -0.1663  0.6662
 3131TIP3    H130952   4.981   5.736   7.066 -0.0697  1.0389  0.4871
 3131TIP3    H230953   5.105   5.698   7.145  0.8589  1.9863 -0.4700
 3132TIP3   OH230954   3.024   2.077   6.210 -0.6056  0.5692 -0.6698
 3132TIP3    H130955   3.091   2.141   6.235 -0.6337 -0.0431  1.1105
 3132TIP3    H230956   2.980   2.116   6.134  0.2508  2.0301 -0.4429
 3133TIP3   OH230957   5.116   2.910   6.155  0.2869 -0.4143  0.2468
 3133TIP3    H130958   5.086   2.859   6.080 -2.0484  0.8326  0.2574
 3133TIP3    H230959   5.166   2.982   6.116 -2.3120  1.1874 -0.3481
 3134TIP3   OH230960   6.624   6.108   1.548 -0.1156 -0.0685 -0.2518
 3134TIP3    H130961   6.657   6.022   1.522 -1.5271 -0.3688 -1.1705
 3134TIP3    H230962   6.622   6.105   1.644 -1.3913 -1.5918 -0.2798
 3135TIP3   OH230963   5.664   1.741   1.915 -0.0870 -0.3540 -0.4557
 3135TIP3    H130964   5.666   1.713   1.824  1.7735 -0.7105 -0.3511
 3135TIP3    H230965   5.722   1.817   1.918 -1.7640  0.9605  0.0689
 3136TIP3   OH230966   1.315   2.737   6.444 -0.3730  0.4698  0.1027
 3136TIP3    H130967   1.263   2.659   6.463  0.1831  0.4470  1.5851
 3136TIP3    H230968   1.378   2.708   6.378 -0.8309 -0.0602 -0.1142
 3137TIP3   OH230969   5.352   5.832   8.373  0.2689  0.2791  0.3442
 3137TIP3    H130970   5.422   5.832   8.307  1.5862  3.4581  1.5216
 3137TIP3    H230971   5.284   5.887   8.334 -1.6455 -2.6381 -0.7090
 3138TIP3   OH230972   6.502   3.479   2.209  0.2360 -0.2318  0.5161
 3138TIP3    H130973   6.562   3.538   2.163 -0.9702  0.4959 -0.1878
 3138TIP3    H230974   6.554   3.443   2.281  1.4617  0.4864  0.0208
 3139TIP3   OH230975   3.273   5.481   7.579 -0.3942 -0.3942 -0.2316
 3139TIP3    H130976   3.202   5.502   7.518 -0.4089  0.3196  0.0258
 3139TIP3    H230977   3.283   5.559   7.632  0.7698 -0.3889 -0.4335
 3140TIP3   OH230978   0.736   1.581   8.770  0.2899 -0.6558  0.0272
 3140TIP3    H130979   0.743   1.649   8.703 -0.1842  0.8310  1.4144
 3140TIP3    H230980   0.791   1.612   8.841  1.7945 -2.8272 -0.1053
 3141TIP3   OH230981   0.160   4.824   7.214  0.1899 -0.4499 -0.1491
 3141TIP3    H130982   0.176   4.740   7.170 -0.1199  0.1329 -1.4351
 3141TIP3    H230983   0.223   4.884   7.173  1.0998 -0.2661  1.4621
 3142TIP3   OH230984   0.037   2.575   8.382  0.2865  0.3943 -0.2184
 3142TIP3    H130985  -0.038   2.546   8.331  1.1121 -0.5318 -0.9472
 3142TIP3    H230986   0.025   2.535   8.468 -0.0462  0.2307 -0.3415
 3143TIP3   OH230987   6.708   3.953   0.410  0.0336 -0.1803  0.3345
 3143TIP3    H130988   6.726   3.895   0.336 -0.7933 -1.3493  1.0230
 3143TIP3    H230989   6.662   3.898   0.474 -0.5088  1.1530  1.1413
 3144TIP3   OH230990   5.736   6.374   8.508  0.5307  0.1126  0.3790
 3144TIP3    H130991   5.654   6.396   8.552  0.3677  0.1838  0.0501
 3144TIP3    H230992   5.728   6.281   8.489  0.4657  0.1465  0.2319
 3145TIP3   OH230993   6.227   3.664   1.431  0.7118  0.1664  0.0828
 3145TIP3    H130994   6.302   3.604   1.437  0.8454  0.0454 -1.9181
 3145TIP3    H230995   6.265   3.751   1.436  0.6599  0.1176  1.7300
 3146TIP3   OH230996   6.100   4.113   8.028 -0.0199 -0.5340 -0.4935
 3146TIP3    H130997   6.083   4.020   8.019  0.0610 -0.4361 -1.9422
 3146TIP3    H230998   6.195   4.121   8.030 -0.0109 -0.4443 -1.0536
 3147TIP3   OH230999   3.907   0.189   0.021  0.4543 -0.0081 -0.0451
 3147TIP3    H131000   3.858   0.205   0.102  0.4560  2.8012 -0.4876
 3147TIP3    H231001   3.956   0.270   0.007  0.9610 -0.6719 -2.5315
 3148TIP3   OH231002   6.387   5.870   6.763  0.3451  0.4094 -0.2591
 3148TIP3    H131003   6.436   5.949   6.738 -0.9366  1.4720  0.4371
 3148TIP3    H231004   6.300   5.903   6.786 -0.2330 -1.2344 -0.0036
 3149TIP3   OH231005   2.007   2.558   1.057 -0.1911  0.1978  0.3948
 3149TIP3    H131006   2.043   2.478   1.020  1.1243 -0.0390  2.0411
 3149TIP3    H231007   2.079   2.621   1.051 -1.2399  1.3347 -0.9730
 3150TIP3   OH231008   4.026   6.729   0.080 -0.3986 -0.1432 -0.2050
 3150TIP3    H131009   4.002   6.817   0.049  0.4275 -0.1710 -0.9817
 3150TIP3    H231010   4.069   6.689   0.004  1.5409 -0.2866  0.9102
 3151TIP3   OH231011   0.158   1.489   0.223 -0.1104 -0.2694  0.2709
 3151TIP3    H131012   0.123   1.533   0.301  0.1602  1.1218 -0.3526
 3151TIP3    H231013   0.104   1.522   0.151  1.1807  0.3646 -0.4416
 3152TIP3   OH231014   1.275   3.930   6.154 -0.5220 -0.1893  0.0309
 3152TIP3    H131015   1.198   3.879   6.130 -0.1330 -0.1486 -1.3845
 3152TIP3    H231016   1.349   3.870   6.142 -0.2575 -0.0283  0.7562
 3153TIP3   OH231017   2.924   6.510   1.398  0.3703  0.3283  0.2122
 3153TIP3    H131018   2.955   6.551   1.317  1.7231 -0.5700  0.2429
 3153TIP3    H231019   2.842   6.555   1.417  0.2269  0.8547 -1.4281
 3154TIP3   OH231020   3.955   2.387   7.805 -0.0718  0.2722  0.6614
 3154TIP3    H131021   3.975   2.464   7.752  0.0586  1.1737  1.9828
 3154TIP3    H231022   4.000   2.315   7.760 -0.4539  0.8859 -0.7672
 3155TIP3   OH231023   2.864   6.512   8.344  0.2509  0.5691  0.1704
 3155TIP3    H131024   2.782   6.470   8.317  0.6233  0.5975 -1.1160
 3155TIP3    H231025   2.864   6.597   8.299  1.5573  0.0268 -0.9712
 3156TIP3   OH231026   1.694   2.389   8.420 -0.1405 -0.0614 -0.3012
 3156TIP3    H131027   1.711   2.434   8.337  1.7323 -3.0485 -1.7065
 3156TIP3    H231028   1.780   2.373   8.458 -0.8638 -0.5494  1.2378
 3157TIP3   OH231029   5.979   4.397   6.883 -0.0026 -0.0118 -0.2103
 3157TIP3    H131030   5.889   4.431   6.891  0.1911  0.2215  1.5316
 3157TIP3    H231031   6.003   4.375   6.973  1.8708  0.3720 -0.5947
 3158TIP3   OH231032   1.034   1.762   6.726 -0.1503  0.2055 -0.0345
 3158TIP3    H131033   0.953   1.797   6.690  1.3076  2.0388 -1.7318
 3158TIP3    H231034   1.101   1.782   6.660  1.7420 -1.0234  1.3962
 3159TIP3   OH231035   4.510   6.506   7.369 -1.0889  0.8283  0.0801
 3159TIP3    H131036   4.502   6.553   7.286  0.6175  1.3683  0.1746
 3159TIP3    H231037   4.550   6.422   7.345 -0.2954  1.1122  0.3690
 3160TIP3   OH231038   1.203   5.818   0.666 -0.2050 -0.4812  0.1494
 3160TIP3    H131039   1.163   5.755   0.725  0.6087 -0.5868  0.6077
 3160TIP3    H231040   1.162   5.902   0.687  0.5975 -0.3827  1.3899
 3161TIP3   OH231041   1.001   5.038   2.318 -0.0689 -0.2848 -0.1375
 3161TIP3    H131042   1.053   4.979   2.371 -0.1994 -0.7423 -0.5102
 3161TIP3    H231043   0.915   4.995   2.311 -0.0568 -0.2275 -0.7042
 3162TIP3   OH231044   6.602   6.616   6.917  0.1857  0.1882  0.3462
 3162TIP3    H131045   6.521   6.663   6.900 -1.5594 -1.9013  2.1559
 3162TIP3    H231046   6.579   6.524   6.904  2.8359 -0.3902 -0.9691
 3163TIP3   OH231047   5.661   5.152   8.211  0.5484  0.2637  1.0099
 3163TIP3    H131048   5.590   5.143   8.274  0.6835 -0.9663  1.0067
 3163TIP3    H231049   5.713   5.073   8.222  0.2132 -0.3081 -1.0831
 3164TIP3   OH231050   3.028   4.042   0.252  0.4451 -0.0290  0.5357
 3164TIP3    H131051   3.062   3.993   0.177  2.6161  1.5939  0.3761
 3164TIP3    H231052   2.954   4.092   0.216  1.1822  0.3978 -0.4362
 3165TIP3   OH231053   5.702   5.773   0.601  0.0757  0.5220  0.1938
 3165TIP3    H131054   5.764   5.733   0.539  1.1804 -0.4778  1.8614
 3165TIP3    H231055   5.751   5.843   0.643  0.5210 -1.0057  2.3431
 3166TIP3   OH231056   0.899   3.375   0.128  0.1961  0.2532  0.2553
 3166TIP3    H131057   0.807   3.383   0.156  0.2035 -1.3642  0.8325
 3166TIP3    H231058   0.946   3.355   0.209  1.0626  1.0189 -0.0492
 3167TIP3   OH231059   5.554   4.644   7.496 -0.0246 -0.8082  0.2292
 3167TIP3    H131060   5.519   4.732   7.486  0.5940 -0.6144 -0.2958
 3167TIP3    H231061   5.477   4.588   7.506 -0.4975 -0.3950 -0.9556
 3168TIP3   OH231062   3.230   3.157   7.341 -0.0804  0.2154  0.5167
 3168TIP3    H131063   3.316   3.161   7.382 -0.0174 -0.0043  0.4066
 3168TIP3    H231064   3.214   3.064   7.328 -1.0761  0.1359  2.0913
 3169TIP3   OH231065   5.498   6.487   0.128  0.5979 -0.5563  0.5735
 3169TIP3    H131066   5.581   6.497   0.081  0.2002  2.9975  0.3295
 3169TIP3    H231067   5.469   6.577   0.145 -2.8542 -1.6348  1.2937
 3170TIP3   OH231068   4.990   5.233   1.551  0.5526  0.7665 -0.1764
 3170TIP3    H131069   4.939   5.259   1.474 -0.8655 -0.7264  0.1996
 3170TIP3    H231070   5.064   5.184   1.515 -0.9456 -1.3017 -0.5999
 3171TIP3   OH231071   0.490   1.743   1.266  0.3058  0.2615  0.0894
 3171TIP3    H131072   0.572   1.694   1.273 -0.7032 -1.3334  1.4364
 3171TIP3    H231073   0.439   1.716   1.342 -1.4971  1.2021 -0.7222
 3172TIP3   OH231074   2.584   1.448   6.809  0.0745 -0.0931 -0.1420
 3172TIP3    H131075   2.489   1.440   6.801 -0.1540  2.2229 -0.3512
 3172TIP3    H231076   2.618   1.437   6.720  0.0273 -1.0774 -0.0424
 3173TIP3   OH231077   6.503   3.536   7.508 -0.6864  0.2218 -0.0342
 3173TIP3    H131078   6.560   3.482   7.562 -0.9343 -0.9411 -0.9114
 3173TIP3    H231079   6.467   3.600   7.569  0.3330  0.0004  0.8393
 3174TIP3   OH231080   2.425   0.314   7.862  0.5212 -0.3940 -0.2457
 3174TIP3    H131081   2.499   0.347   7.913  0.7987 -1.0810 -0.1961
 3174TIP3    H231082   2.371   0.266   7.925 -0.0605  0.2371 -0.2465
 3175TIP3   OH231083   5.368   5.893   0.993 -0.3998  0.8600 -0.0936
 3175TIP3    H131084   5.388   5.823   0.932  2.0093  0.5403  0.9631
 3175TIP3    H231085   5.428   5.964   0.969 -0.5663  1.3454  0.8728
 3176TIP3   OH231086   1.735   4.325   0.547  0.0939 -0.5877 -0.1479
 3176TIP3    H131087   1.657   4.272   0.559 -0.8199  0.5868 -0.7020
 3176TIP3    H231088   1.807   4.263   0.551 -1.0323 -2.2697 -2.8908
 3177TIP3   OH231089   2.543   3.683   8.099 -0.2532  0.5294 -0.4018
 3177TIP3    H131090   2.448   3.672   8.093 -0.2569 -0.8284  1.2188
 3177TIP3    H231091   2.556   3.762   8.151 -0.4959  0.6375 -0.5073
 3178TIP3   OH231092   4.553   3.932   6.158  0.6997 -0.2340  0.2266
 3178TIP3    H131093   4.526   3.942   6.067  0.3984  0.0663  0.3477
 3178TIP3    H231094   4.524   4.012   6.201  1.0155 -0.2858  0.5460
 3179TIP3   OH231095   5.922   0.847   1.413  0.0658  0.6660 -0.4110
 3179TIP3    H131096   5.839   0.871   1.454 -0.1952 -0.8595  0.0266
 3179TIP3    H231097   5.901   0.769   1.361  1.5181 -0.7039  0.9520
 3180TIP3   OH231098   4.814   3.896   7.419  0.7457  0.6001  0.1031
 3180TIP3    H131099   4.811   3.834   7.492 -0.2290 -0.0665 -0.4732
 3180TIP3    H231100   4.783   3.978   7.455 -2.6733 -0.4235 -0.1549
 3181TIP3   OH231101   4.023   3.154   6.249 -0.2080 -0.1216  0.3276
 3181TIP3    H131102   4.084   3.186   6.182 -1.2322 -0.4483 -0.7836
 3181TIP3    H231103   4.063   3.181   6.332  0.9951  0.4499 -0.4092
 3182TIP3   OH231104   6.328   4.141   6.814 -0.3978  0.3111 -0.0082
 3182TIP3    H131105   6.415   4.102   6.806 -0.2300  0.8477 -0.9830
 3182TIP3    H231106   6.278   4.078   6.866 -0.1914 -1.3405 -1.6683
 3183TIP3   OH231107   2.845   3.639   1.767  0.1311 -0.1486  0.4285
 3183TIP3    H131108   2.888   3.631   1.852  0.6353  0.7764  0.2776
 3183TIP3    H231109   2.769   3.582   1.773  0.0521  0.0572  1.5744
 3184TIP3   OH231110   0.616   2.327   6.854  0.6704  0.3864 -0.1905
 3184TIP3    H131111   0.659   2.380   6.922  0.2387 -1.6050  1.7599
 3184TIP3    H231112   0.623   2.237   6.887  1.1401 -0.7908 -3.2202
 3185TIP3   OH231113   3.218   5.269   0.808 -0.2495  0.2523 -0.0312
 3185TIP3    H131114   3.196   5.302   0.721 -0.9447  0.6947  0.3053
 3185TIP3    H231115   3.214   5.173   0.799 -0.0244  0.2877 -0.5553
 3186TIP3   OH231116   5.438   0.823   0.672 -0.1104  0.3668 -0.0163
 3186TIP3    H131117   5.391   0.763   0.615  0.5459  0.8772 -1.1522
 3186TIP3    H231118   5.478   0.768   0.739  1.1454 -0.6037 -1.4958
 3187TIP3   OH231119   3.082   0.054   0.443  0.6038  0.2124  0.0834
 3187TIP3    H131120   3.068   0.056   0.538 -0.3693 -0.6558 -0.0309
 3187TIP3    H231121   3.110   0.143   0.422  1.0570  0.3582  1.2101
 3188TIP3   OH231122   5.447   2.127   1.006  0.2104  0.1400  0.4436
 3188TIP3    H131123   5.523   2.110   1.061  0.8128  1.9258  0.2370
 3188TIP3    H231124   5.423   2.218   1.026 -0.3118  0.4276 -1.3328
 3189TIP3   OH231125   6.395   6.203   8.264  0.3241  0.6337  0.1850
 3189TIP3    H131126   6.322   6.239   8.212 -0.3488 -0.9049  0.0062
 3189TIP3    H231127   6.433   6.280   8.307 -0.9536  1.5820 -0.2756
 3190TIP3   OH231128   4.834   3.842   0.349  0.2769  0.1116  0.1298
 3190TIP3    H131129   4.848   3.814   0.439  0.1396 -0.3854 -0.0033
 3190TIP3    H231130   4.777   3.775   0.311  1.8290 -0.7101 -0.8716
 3191TIP3   OH231131   2.740   6.694   6.806 -0.0151 -0.2294  0.0943
 3191TIP3    H131132   2.742   6.777   6.759 -0.3291  0.8648  1.9352
 3191TIP3    H231133   2.653   6.658   6.787 -0.8028  1.0260  1.1484
 3192TIP3   OH231134   5.045   6.730   8.242  0.1267  0.2715 -0.4784
 3192TIP3    H131135   5.059   6.767   8.329  0.9647  0.6362 -0.7501
 3192TIP3    H231136   4.971   6.670   8.252  1.8389 -1.7274  1.0905
 3193TIP3   OH231137   3.121   0.837   8.611  0.0367  0.6180  0.3799
 3193TIP3    H131138   3.216   0.830   8.607  0.1138  1.9445 -2.9762
 3193TIP3    H231139   3.102   0.929   8.591 -1.9722  0.1554 -0.1171
 3194TIP3   OH231140   4.589   6.016   8.198  0.3488  0.3028 -0.2734
 3194TIP3    H131141   4.655   6.015   8.129  1.3517 -0.5836  0.6558
 3194TIP3    H231142   4.633   6.058   8.272 -0.2206 -0.0786  0.2907
 3195TIP3   OH231143   4.242   0.863   0.985 -0.6224 -0.1518  0.2792
 3195TIP3    H131144   4.336   0.841   0.986 -0.5009  0.3667  0.3906
 3195TIP3    H231145   4.238   0.952   1.018 -1.2380 -0.4645  1.0751
 3196TIP3   OH231146   6.022   1.230   8.611 -0.8935 -0.1005  0.4201
 3196TIP3    H131147   6.012   1.264   8.522  0.1433 -0.2963  0.2090
 3196TIP3    H231148   5.994   1.301   8.668 -0.3737  0.4906 -0.0494
 3197TIP3   OH231149   6.048   1.046   2.012 -0.1220 -0.4514 -0.3695
 3197TIP3    H131150   6.009   1.127   1.979  0.1762  0.3146  1.0342
 3197TIP3    H231151   6.066   1.065   2.104 -0.1190 -2.1614  0.0096
 3198TIP3   OH231152   3.703   1.378   0.489  0.2654 -0.1185 -0.6302
 3198TIP3    H131153   3.706   1.302   0.547  0.7415 -0.2754 -0.8544
 3198TIP3    H231154   3.645   1.440   0.534 -1.2277 -1.1362 -1.0900
 3199TIP3   OH231155   3.028   3.409   0.926 -0.2329  0.4179 -0.4578
 3199TIP3    H131156   3.102   3.449   0.972 -0.6611  2.0438 -1.1184
 3199TIP3    H231157   2.951   3.432   0.979 -0.3847 -0.5948 -0.2001
 3200TIP3   OH231158   6.278   3.118   8.391  0.0809  0.2632 -0.3250
 3200TIP3    H131159   6.215   3.072   8.446  0.2731  0.6478  0.2248
 3200TIP3    H231160   6.274   3.209   8.420 -1.0248  0.8340 -2.0581
 3201TIP3   OH231161   0.574   5.594   0.062  0.2817  0.4802 -0.7235
 3201TIP3    H131162   0.577   5.523  -0.002  0.8500  0.8138 -1.0846
 3201TIP3    H231163   0.485   5.627   0.058  0.1132  0.0148 -0.8094
 3202TIP3   OH231164   1.973   1.544   0.599  0.0468  0.2984  0.0964
 3202TIP3    H131165   2.009   1.601   0.667  1.1223  1.3061 -1.2502
 3202TIP3    H231166   2.012   1.458   0.617 -2.5823 -0.4693  2.9151
 3203TIP3   OH231167   1.688   6.289   1.569  0.2716  0.6437  0.2481
 3203TIP3    H131168   1.746   6.362   1.547 -0.2060  0.5101 -1.6184
 3203TIP3    H231169   1.704   6.224   1.500  0.1813 -0.7357  1.4770
 3204TIP3   OH231170   0.255   2.763   1.383  0.3510  0.4109 -0.3085
 3204TIP3    H131171   0.329   2.811   1.345  0.1988 -0.2914 -1.5486
 3204TIP3    H231172   0.296   2.689   1.427  0.4159  0.1196 -0.8439
 3205TIP3   OH231173   3.505   5.558   8.709  0.8216 -0.3796 -0.3015
 3205TIP3    H131174   3.512   5.477   8.659  1.4382  0.7421 -2.1503
 3205TIP3    H231175   3.581   5.610   8.680  0.5635  0.7649  0.9881
 3206TIP3   OH231176   5.496   3.334   6.516 -0.0096  0.0483  1.4186
 3206TIP3    H131177   5.403   3.353   6.522  0.3417  1.6542  2.3348
 3206TIP3    H231178   5.504   3.244   6.549 -1.4116 -0.7992 -0.4045
 3207TIP3   OH231179   3.945   3.755   7.390 -0.6691 -0.4555 -0.5523
 3207TIP3    H131180   3.874   3.695   7.415 -1.1094 -0.6313 -2.0847
 3207TIP3    H231181   4.025   3.707   7.409 -0.9911 -0.8146 -0.0882
 3208TIP3   OH231182   2.430   0.645   7.915  0.2425 -0.2076  0.4640
 3208TIP3    H131183   2.509   0.692   7.942  1.2600 -2.5682  1.9078
 3208TIP3    H231184   2.457   0.592   7.840 -0.0720 -0.6787  0.6737
 3209TIP3   OH231185   6.457   4.123   7.513 -0.2978  0.0864 -0.2459
 3209TIP3    H131186   6.419   4.099   7.597  1.1227  0.6304  0.5898
 3209TIP3    H231187   6.443   4.217   7.506 -2.8198 -0.2858 -1.9404
 3210TIP3   OH231188   1.310   4.133   7.122 -0.0224  0.1891  0.4353
 3210TIP3    H131189   1.240   4.171   7.068  0.3275  1.7264  0.9824
 3210TIP3    H231190   1.265   4.106   7.202 -0.2890 -0.6217  0.0174
 3211TIP3   OH231191   3.677   4.891   0.018 -0.3393  0.2883  0.1301
 3211TIP3    H131192   3.741   4.866  -0.049 -1.2852 -1.0652 -0.2968
 3211TIP3    H231193   3.721   4.960   0.067  2.0795 -1.5391  0.7534
 3212TIP3   OH231194   5.295   3.490   7.034  0.2840  0.4684 -0.3777
 3212TIP3    H131195   5.386   3.469   7.054  0.3084 -0.0859 -1.0203
 3212TIP3    H231196   5.285   3.466   6.942 -0.5853  0.2826 -0.2400
 3213TIP3   OH231197   1.808   1.298   8.053  0.2753  0.2574 -0.7985
 3213TIP3    H131198   1.713   1.303   8.039  0.3282 -1.4172 -2.0706
 3213TIP3    H231199   1.835   1.389   8.064 -1.5297  0.7416  0.0371
 3214TIP3   OH231200   3.542   1.393   6.269  0.0928 -0.0271 -0.6658
 3214TIP3    H131201   3.576   1.320   6.218 -0.1722 -1.6751  1.3745
 3214TIP3    H231202   3.448   1.392   6.252 -0.1325 -1.1621  0.4614
 3215TIP3   OH231203   4.404   4.569   7.312  0.2151  0.0061 -0.0786
 3215TIP3    H131204   4.460   4.640   7.281  1.5576 -1.2208 -0.5617
 3215TIP3    H231205   4.401   4.581   7.407 -1.3094  1.9055 -0.2936
 3216TIP3   OH231206   4.904   4.636   6.622  0.9127 -0.3443 -0.0864
 3216TIP3    H131207   4.967   4.583   6.573 -0.3150 -1.7367 -0.2220
 3216TIP3    H231208   4.821   4.588   6.615 -0.0003  1.0347  0.7395
 3217TIP3   OH231209   4.131   0.164   1.352  0.4416 -0.0869  0.0311
 3217TIP3    H131210   4.063   0.160   1.284 -0.3252  0.8724  0.7106
 3217TIP3    H231211   4.082   0.157   1.434  0.8939  2.6457  0.6177
 3218TIP3   OH231212   1.402   6.250   8.241 -0.0206  0.6034 -0.5568
 3218TIP3    H131213   1.451   6.306   8.180  0.7415 -1.2566 -1.7221
 3218TIP3    H231214   1.433   6.162   8.222  0.0125 -0.0921  2.3339
 3219TIP3   OH231215   0.156   0.042   0.399 -0.1144 -0.5875 -0.7421
 3219TIP3    H131216   0.185   0.085   0.318 -0.1832  0.4763 -0.2162
 3219TIP3    H231217   0.136   0.114   0.458  1.9808 -1.3038  0.9703
 3220TIP3   OH231218   5.617   1.404   6.140  0.1299 -0.1399  0.1689
 3220TIP3    H131219   5.614   1.366   6.228 -0.9398  0.9132  0.6084
 3220TIP3    H231220   5.700   1.372   6.104  1.0650  0.1844  1.8994
 3221TIP3   OH231221   4.783   5.649   7.746 -0.4347 -0.2971 -0.1527
 3221TIP3    H131222   4.765   5.669   7.654 -2.0564 -0.2628  0.1530
 3221TIP3    H231223   4.869   5.606   7.744  0.2363  0.9897 -1.5065
 3222TIP3   OH231224   2.235   0.793   6.490 -0.1827  0.3789  0.1129
 3222TIP3    H131225   2.307   0.841   6.448 -2.0365  2.0793 -1.3462
 3222TIP3    H231226   2.237   0.707   6.449  0.9680  0.4091  0.0646
 3223TIP3   OH231227   0.811   1.557   0.902  0.3858 -0.0886 -0.7833
 3223TIP3    H131228   0.748   1.485   0.900 -0.0474  0.2806 -0.5191
 3223TIP3    H231229   0.869   1.537   0.976  1.4002 -1.1022 -1.8020
 3224TIP3   OH231230   2.993   1.684   1.822 -0.5256 -0.3716  0.2819
 3224TIP3    H131231   3.055   1.634   1.770  0.0735 -0.3120  0.9265
 3224TIP3    H231232   2.968   1.757   1.766 -0.5176 -0.7543 -0.2244
 3225TIP3   OH231233   0.608   3.566   7.845  0.0130  0.1150  0.2493
 3225TIP3    H131234   0.607   3.559   7.750  1.9391 -1.1576  0.2774
 3225TIP3    H231235   0.573   3.482   7.876  0.7334 -0.0377  0.6613
 3226TIP3   OH231236   2.297   6.646   1.230 -0.3004 -0.3364 -0.1067
 3226TIP3    H131237   2.210   6.614   1.207 -0.4702  0.7026 -1.0378
 3226TIP3    H231238   2.288   6.741   1.230  0.1424 -0.2277  2.7172
 3227TIP3   OH231239   4.261   3.872   1.917  0.2950  0.7592 -0.9059
 3227TIP3    H131240   4.325   3.867   1.846  0.4497 -0.0729 -0.7213
 3227TIP3    H231241   4.313   3.889   1.996  0.0090  3.0993 -1.1422
 3228TIP3   OH231242   0.380   3.153   7.487  0.2676 -0.0255  1.0753
 3228TIP3    H131243   0.293   3.161   7.447  0.8173  0.1414 -0.1041
 3228TIP3    H231244   0.420   3.239   7.478  0.6909 -0.1915  1.3162
 3229TIP3   OH231245   2.911   4.557   7.947  0.2698  0.2887 -0.6415
 3229TIP3    H131246   2.838   4.523   7.999  0.3493  1.6812  0.4344
 3229TIP3    H231247   2.975   4.486   7.947  0.0430  0.0656  0.7241
 3230TIP3   OH231248   5.920   0.343   6.830 -0.7857 -0.4394 -0.1119
 3230TIP3    H131249   5.925   0.419   6.888 -0.8232 -2.5687  2.9007
 3230TIP3    H231250   5.883   0.378   6.749 -1.4641  2.5995  1.3475
 3231TIP3   OH231251   5.332   1.648   7.538  0.2459 -0.2801  0.4869
 3231TIP3    H131252   5.320   1.739   7.565 -0.9368 -0.3174  0.1949
 3231TIP3    H231253   5.280   1.597   7.600 -2.0976 -0.4038 -1.3856
 3232TIP3   OH231254   0.823   0.028   0.746 -0.5446 -0.3198  0.3766
 3232TIP3    H131255   0.918   0.041   0.752 -0.6559  0.0509  1.8253
 3232TIP3    H231256   0.787   0.117   0.746 -0.8285 -0.2832 -3.3649
 3233TIP3   OH231257   4.725   5.542   8.293 -0.4158  0.0152  0.3697
 3233TIP3    H131258   4.735   5.636   8.280  0.8315 -0.2077 -0.4818
 3233TIP3    H231259   4.711   5.507   8.205 -1.6343 -0.5337  0.7605
 3234TIP3   OH231260   1.590   3.871   7.764 -0.2828  0.0471 -0.0469
 3234TIP3    H131261   1.677   3.855   7.728 -0.3753 -0.7843  0.0883
 3234TIP3    H231262   1.547   3.786   7.762 -0.2572 -0.0709  2.1205
 3235TIP3   OH231263   1.653   0.849   8.400  0.3439 -0.0842 -0.0023
 3235TIP3    H131264   1.620   0.933   8.432  2.1159  1.8259 -2.8456
 3235TIP3    H231265   1.574   0.797   8.384 -0.8255  1.2615  1.1472
 3236TIP3   OH231266   4.048   0.902   6.303 -0.2075 -0.2753  0.6811
 3236TIP3    H131267   4.051   0.991   6.268 -0.9815 -0.6528 -0.3869
 3236TIP3    H231268   4.087   0.910   6.390 -0.1455  1.0829  0.5576
 3237TIP3   OH231269   5.857   1.939   8.433 -0.1707 -0.3317 -0.4988
 3237TIP3    H131270   5.829   1.857   8.473 -0.7332  0.5528  1.0311
 3237TIP3    H231271   5.950   1.944   8.453 -0.2906 -0.2612  0.0855
 3238TIP3   OH231272   3.795   5.999   8.773  0.1129 -0.5652 -0.2500
 3238TIP3    H131273   3.751   5.917   8.749  0.2472 -0.6764 -0.1186
 3238TIP3    H231274   3.875   5.971   8.817 -0.3278 -0.3798  0.7110
 3239TIP3   OH231275   6.047   3.136   1.270 -0.5052 -0.1773 -0.5163
 3239TIP3    H131276   6.069   3.116   1.361 -2.1700 -1.3131 -0.3167
 3239TIP3    H231277   6.030   3.051   1.229 -2.1784  0.4412 -1.2054
 3240TIP3   OH231278   0.634   6.535   8.195 -0.6316 -0.1705 -0.4578
 3240TIP3    H131279   0.549   6.556   8.235  0.3999  2.1649  0.7003
 3240TIP3    H231280   0.625   6.565   8.104 -1.5615 -1.5276 -0.8501
 3241TIP3   OH231281   6.402   4.723   2.017 -0.6383  0.4475 -0.4684
 3241TIP3    H131282   6.308   4.727   1.996 -0.7687  0.2551  0.0653
 3241TIP3    H231283   6.442   4.785   1.956 -1.0600  0.2317 -0.9809
 3242TIP3   OH231284   2.888   4.689   1.647  0.2457  0.1290 -0.1965
 3242TIP3    H131285   2.868   4.769   1.599  0.0994  0.8322  1.0192
 3242TIP3    H231286   2.840   4.696   1.729  0.1242 -1.2726 -0.1168
 3243TIP3   OH231287   0.619   0.037   0.292 -0.4030 -0.1478  0.2701
 3243TIP3    H131288   0.654  -0.021   0.360 -0.3720 -0.0790  0.3139
 3243TIP3    H231289   0.693   0.094   0.270  0.5892 -2.1719 -2.0717
 3244TIP3   OH231290   3.065   4.983   7.909 -0.2528  0.3288  0.6627
 3244TIP3    H131291   3.123   4.915   7.875 -1.1040  0.4669 -1.2005
 3244TIP3    H231292   2.979   4.940   7.917 -0.6976  1.0409 -0.1128
 3245TIP3   OH231293   0.317   3.853   8.298 -0.3933 -0.4302  0.2774
 3245TIP3    H131294   0.384   3.913   8.332  0.0775 -0.2365 -0.9569
 3245TIP3    H231295   0.327   3.774   8.351  1.3830 -0.7099 -0.3968
 3246TIP3   OH231296   6.799   6.789   7.000  0.0208 -1.1006  0.1088
 3246TIP3    H131297   6.739   6.863   7.007  0.7090 -0.6495  1.5930
 3246TIP3    H231298   6.742   6.714   6.979 -1.0145 -0.5992  1.0440
 3247TIP3   OH231299   4.918   3.113   7.529 -0.1766  0.2552  0.1074
 3247TIP3    H131300   4.898   3.050   7.460  0.2100  0.3833 -0.1263
 3247TIP3    H231301   4.912   3.198   7.486 -2.5492  0.5394  0.8458
 3248TIP3   OH231302   6.610   6.680   7.226 -0.0155 -0.4579  1.0477
 3248TIP3    H131303   6.573   6.657   7.141 -2.1515 -0.7863  2.0101
 3248TIP3    H231304   6.657   6.601   7.254  0.8849 -0.2760  0.1233
 3249TIP3   OH231305   2.143   2.236   1.276  0.2331 -0.3404 -0.3181
 3249TIP3    H131306   2.151   2.142   1.293  1.5976 -0.3343 -0.8006
 3249TIP3    H231307   2.057   2.247   1.235 -0.7206 -1.1118  1.3632
 3250TIP3   OH231308   5.683   1.495   6.840  0.5407 -0.0438  0.5474
 3250TIP3    H131309   5.709   1.404   6.855  1.8401  0.3270  0.6559
 3250TIP3    H231310   5.666   1.530   6.927 -0.0487 -0.1953  0.4996
 3251TIP3   OH231311   4.928   0.132   6.579  0.2075 -0.4320 -0.1173
 3251TIP3    H131312   5.012   0.104   6.542  0.0403  1.1270 -1.8251
 3251TIP3    H231313   4.931   0.227   6.575 -0.4730 -0.2248  2.6324
 3252TIP3   OH231314   2.134   4.716   8.239  0.2606  0.1732 -0.2389
 3252TIP3    H131315   2.137   4.785   8.305  1.1513  0.7013 -0.8017
 3252TIP3    H231316   2.060   4.660   8.265  0.1110  0.8065  0.7466
 3253TIP3   OH231317   4.978   4.729   7.801 -0.4263 -0.3407  0.5894
 3253TIP3    H131318   4.977   4.669   7.726  0.5293  0.4274 -0.0515
 3253TIP3    H231319   5.030   4.683   7.867 -0.2445 -0.4999  0.3381
 3254TIP3   OH231320   1.078   0.831   0.635 -0.6205 -0.0573  0.1719
 3254TIP3    H131321   1.108   0.765   0.573  1.9147  0.1396  1.0329
 3254TIP3    H231322   1.131   0.816   0.713 -2.4384  0.8271  1.6646
 3255TIP3   OH231323   4.508   1.605   7.815  0.3116 -0.4333 -0.2333
 3255TIP3    H131324   4.417   1.630   7.799  0.6487  0.5737 -0.6729
 3255TIP3    H231325   4.556   1.642   7.741  1.3123  0.5230  0.8591
 3256TIP3   OH231326   3.898   0.949   7.734  0.4740 -0.9922  0.2971
 3256TIP3    H131327   3.943   0.994   7.663 -0.3369 -0.1949  0.2709
 3256TIP3    H231328   3.928   0.859   7.728  1.6849 -0.5875 -0.0201
 3257TIP3   OH231329   1.098   5.891   0.145  0.2158 -0.0607  0.4765
 3257TIP3    H131330   1.124   5.853   0.061 -0.7968 -0.8256  0.4868
 3257TIP3    H231331   1.177   5.885   0.199  1.5532  2.4514 -1.0425
 3258TIP3   OH231332   0.289   5.430   7.705 -0.7650 -0.0751  0.2263
 3258TIP3    H131333   0.210   5.464   7.746 -1.9424 -1.4819 -0.7718
 3258TIP3    H231334   0.315   5.498   7.642 -2.0927 -0.2537 -0.5423
 3259TIP3   OH231335   5.189   0.351   8.730  0.1878 -1.1104 -0.4272
 3259TIP3    H131336   5.121   0.386   8.673 -0.9309 -1.0717  0.8802
 3259TIP3    H231337   5.250   0.307   8.670  0.3007  0.8671 -1.8515
 3260TIP3   OH231338   5.017   5.212   0.694  0.0618 -0.0785 -0.2977
 3260TIP3    H131339   4.988   5.268   0.621  0.9288  0.9739  0.1412
 3260TIP3    H231340   5.062   5.139   0.651 -1.3819 -0.6503 -0.8946
 3261TIP3   OH231341   6.130   3.750   7.296  0.8150  0.9052  0.1559
 3261TIP3    H131342   6.146   3.726   7.205 -0.3224  1.2664 -0.1585
 3261TIP3    H231343   6.210   3.794   7.324  1.1133  0.9391 -0.7228
 3262TIP3   OH231344   0.928   0.632   0.796  0.5135 -0.5271  0.2001
 3262TIP3    H131345   0.939   0.608   0.888 -1.7975 -1.2811  0.3480
 3262TIP3    H231346   1.017   0.641   0.763  1.4131 -0.9848  2.3109
 3263TIP3   OH231347   3.207   1.994   8.213  0.1854 -0.5368 -0.0177
 3263TIP3    H131348   3.191   2.036   8.128  2.6870  1.1044  0.2312
 3263TIP3    H231349   3.167   1.908   8.204 -4.0858  1.2411 -1.0384
 3264TIP3   OH231350   0.434   1.172   7.838  0.1967  0.5332 -0.2887
 3264TIP3    H131351   0.379   1.237   7.882 -0.6288  1.3459 -2.3989
 3264TIP3    H231352   0.372   1.115   7.793  0.9991 -0.5992 -0.0183
 3265TIP3   OH231353   0.067   0.351   0.202  0.1206  0.5100  0.4156
 3265TIP3    H131354   0.043   0.434   0.243 -0.4684  0.2916  0.5239
 3265TIP3    H231355   0.158   0.337   0.227 -0.3547  0.1416  2.0595
 3266TIP3   OH231356   3.197   5.641   6.057  0.1351  0.3511  0.0812
 3266TIP3    H131357   3.109   5.664   6.088 -0.1012  0.3800 -0.5727
 3266TIP3    H231358   3.244   5.613   6.135 -0.0510  1.5869  0.6555
 3267TIP3   OH231359   0.130   5.946   1.084  0.4376  0.0735  0.3324
 3267TIP3    H131360   0.213   5.915   1.120  0.9188  1.8111  0.7884
 3267TIP3    H231361   0.072   5.870   1.088  2.3972 -1.6270 -1.3827
 3268TIP3   OH231362   0.869   4.784   6.762  0.1697 -0.1191  0.4669
 3268TIP3    H131363   0.785   4.780   6.717 -0.4938  0.1871  1.6468
 3268TIP3    H231364   0.911   4.863   6.727 -0.5143  0.3496  0.6906
 3269TIP3   OH231365   2.305   5.504   7.713  0.3402  0.2627  0.0958
 3269TIP3    H131366   2.238   5.573   7.713 -1.9662 -1.8391 -0.6434
 3269TIP3    H231367   2.343   5.508   7.625  0.1266  0.5101  0.0110
 3270TIP3   OH231368   2.242   5.847   1.659  0.2355 -0.1761 -0.5642
 3270TIP3    H131369   2.182   5.905   1.613 -0.9091 -1.1909 -0.3981
 3270TIP3    H231370   2.276   5.900   1.731  0.2754  0.6958 -1.1999
 3271TIP3   OH231371   1.213   4.835   7.407  0.0828 -0.0445 -0.5274
 3271TIP3    H131372   1.277   4.768   7.383 -1.2515 -1.6057  0.1045
 3271TIP3    H231373   1.206   4.829   7.503 -1.3664 -0.2546 -0.6281
 3272TIP3   OH231374   5.155   1.059   8.150  0.4944  0.0459  0.5268
 3272TIP3    H131375   5.092   1.123   8.180  0.9949  0.5323  0.5517
 3272TIP3    H231376   5.231   1.110   8.122  0.5328 -0.4755 -0.3576
 3273TIP3   OH231377   3.525   0.674   7.340 -0.0258  0.3430  0.3831
 3273TIP3    H131378   3.555   0.690   7.429  0.4755 -1.0265  0.4770
 3273TIP3    H231379   3.432   0.697   7.341  0.2903  1.7242  0.8614
 3274TIP3   OH231380   0.893   4.852   8.536  0.3297 -0.2872 -0.3191
 3274TIP3    H131381   0.811   4.820   8.574  0.2221  0.6918  0.3066
 3274TIP3    H231382   0.921   4.782   8.477 -1.1375 -0.4976 -0.8050
 3275TIP3   OH231383   6.672   0.363   0.633 -0.1453 -0.4904  0.3185
 3275TIP3    H131384   6.697   0.426   0.700  1.0234 -1.0485  0.4290
 3275TIP3    H231385   6.642   0.416   0.559  0.7015  0.1982  0.4621
 3276TIP3   OH231386   2.007   5.992   7.446  0.0914 -0.1937 -0.4654
 3276TIP3    H131387   1.937   6.022   7.388  0.3909  3.2223  0.7372
 3276TIP3    H231388   2.080   5.974   7.387 -0.8723 -1.0072 -1.4677
 3277TIP3   OH231389   2.622   5.388   0.571 -0.6395 -0.0402 -0.2756
 3277TIP3    H131390   2.539   5.416   0.533 -0.5684 -2.4242 -2.5275
 3277TIP3    H231391   2.684   5.457   0.548 -1.1473 -0.2559 -2.5360
 3278TIP3   OH231392   6.489   2.734   8.560 -0.4487  0.4584 -0.1015
 3278TIP3    H131393   6.406   2.686   8.557 -0.7978  0.8910  1.7340
 3278TIP3    H231394   6.497   2.772   8.472 -2.4908  0.9020 -0.1523
 3279TIP3   OH231395   3.512   5.370   6.640 -0.0158  0.2768 -0.1642
 3279TIP3    H131396   3.545   5.319   6.715  0.0246 -0.2013 -0.5029
 3279TIP3    H231397   3.419   5.382   6.659  0.1375  0.7530  0.2984
 3280TIP3   OH231398   1.802   4.881   1.770  0.1369  0.3497  0.0536
 3280TIP3    H131399   1.806   4.972   1.741  2.6061  1.0209  2.0603
 3280TIP3    H231400   1.848   4.831   1.702 -2.3256  0.2895 -1.6948
 3281TIP3   OH231401   4.289   1.723   8.674 -0.3426 -0.6092  0.0690
 3281TIP3    H131402   4.375   1.715   8.715  0.9768  0.3452 -2.3256
 3281TIP3    H231403   4.231   1.670   8.729  1.6738 -0.9942  1.9543
 3282TIP3   OH231404   4.800   1.979   1.927 -0.2684 -0.1588  0.1232
 3282TIP3    H131405   4.894   1.963   1.926 -0.4234 -1.1703 -1.6102
 3282TIP3    H231406   4.762   1.897   1.957 -0.7252 -0.8254 -2.1431
 3283TIP3   OH231407   0.192   1.760   7.087  0.4953  0.0507 -0.1416
 3283TIP3    H131408   0.230   1.843   7.057  0.9054 -0.5596 -1.3793
 3283TIP3    H231409   0.115   1.786   7.137 -0.4222  1.1431 -2.0340
 3284TIP3   OH231410   5.282   1.095   7.256 -0.2388 -0.0176  0.5303
 3284TIP3    H131411   5.325   1.169   7.299 -0.9287 -0.4879  2.1345
 3284TIP3    H231412   5.320   1.018   7.298 -0.1829 -0.5563 -0.4716
 3285TIP3   OH231413   1.948   3.463   1.909  0.1501  0.4114 -0.5302
 3285TIP3    H131414   1.983   3.376   1.893 -2.0010 -0.3456 -1.4898
 3285TIP3    H231415   1.962   3.478   2.003 -1.7868 -2.1384  0.2834
 3286TIP3   OH231416   4.059   2.176   6.340  0.6140 -0.1901  0.2316
 3286TIP3    H131417   4.112   2.212   6.269  0.5663  4.9974  2.3254
 3286TIP3    H231418   4.123   2.137   6.400  1.2781  0.1501 -0.2470
 3287TIP3   OH231419   4.677   1.896   8.815 -0.9795 -0.3141 -0.0808
 3287TIP3    H131420   4.711   1.884   8.726 -1.9624  1.5328 -0.7585
 3287TIP3    H231421   4.602   1.837   8.820 -0.0534 -1.5283  0.0822
 3288TIP3   OH231422   1.612   5.741   7.463 -0.2172  0.4125  0.4295
 3288TIP3    H131423   1.628   5.818   7.517 -0.8275 -0.6919  2.3106
 3288TIP3    H231424   1.526   5.709   7.491 -0.3941 -0.4304 -0.9621
 3289TIP3   OH231425   0.760   4.481   8.844 -0.7580  0.6269  0.3484
 3289TIP3    H131426   0.706   4.474   8.765 -0.4806 -0.2967  0.2359
 3289TIP3    H231427   0.712   4.542   8.900 -1.0544  1.1463 -0.4515
 3290TIP3   OH231428   6.657   1.868   7.617 -0.5590 -0.1091 -0.3965
 3290TIP3    H131429   6.587   1.833   7.673  1.1819 -0.2450  1.8280
 3290TIP3    H231430   6.716   1.795   7.604 -0.2274  0.3043 -1.3173
 3291TIP3   OH231431   3.004   6.442   1.642  0.2248  0.5007 -0.3592
 3291TIP3    H131432   2.915   6.412   1.662  0.9923 -1.9268 -0.3570
 3291TIP3    H231433   2.999   6.473   1.551 -0.4496 -0.3895 -0.6366
 3292TIP3   OH231434   0.975   4.893   7.286  0.0031 -0.2619  0.6538
 3292TIP3    H131435   0.940   4.968   7.334  1.6066  1.4138 -0.6358
 3292TIP3    H231436   1.049   4.863   7.340  0.6755  0.4719  0.1711
 3293TIP3   OH231437   1.124   3.959   7.263 -0.0115  0.4622  0.0955
 3293TIP3    H131438   1.041   3.937   7.221  0.2593  0.2818 -0.3503
 3293TIP3    H231439   1.111   4.047   7.297  0.5099  1.5543 -2.3587
 3294TIP3   OH231440   6.236   2.578   8.575  0.0466  0.4190  0.2288
 3294TIP3    H131441   6.200   2.492   8.597  1.6054 -0.5832 -0.9243
 3294TIP3    H231442   6.225   2.630   8.654 -0.6639 -0.9258  1.0481
 3295TIP3   OH231443   6.205   3.714   8.260 -0.1035  0.1181 -0.4232
 3295TIP3    H131444   6.255   3.790   8.290 -0.4730  0.5395 -0.8486
 3295TIP3    H231445   6.115   3.746   8.252 -0.3933 -0.5528  0.0542
 3296TIP3   OH231446   0.206   3.830   8.024  0.9007 -0.6035 -0.5201
 3296TIP3    H131447   0.226   3.745   7.986 -0.9344 -1.7658  0.9617
 3296TIP3    H231448   0.248   3.828   8.110  1.9155  0.5264 -0.9643
 3297TIP3   OH231449   2.470   2.591   0.769 -0.1490 -0.2286 -0.5797
 3297TIP3    H131450   2.531   2.602   0.696 -0.2251 -0.4396 -0.6757
 3297TIP3    H231451   2.424   2.509   0.750 -0.9749  0.2899 -0.8837
 3298TIP3   OH231452   0.507   1.774   0.308 -0.1228 -0.2701 -0.6527
 3298TIP3    H131453   0.501   1.685   0.342  0.0525 -0.0172  0.0635
 3298TIP3    H231454   0.520   1.828   0.386 -0.3905  0.3980 -1.0675
 3299TIP3   OH231455   1.924   1.989   0.807 -0.0132 -0.3846  0.4014
 3299TIP3    H131456   1.854   2.028   0.860  0.2238  0.5360  0.0528
 3299TIP3    H231457   1.998   2.049   0.817  0.0401 -0.1936 -0.9440
 3300TIP3   OH231458   0.532   2.467   8.264  0.2269  0.1393  0.0183
 3300TIP3    H131459   0.455   2.477   8.209 -0.2115  2.1623  0.9264
 3300TIP3    H231460   0.498   2.474   8.354  1.0998 -1.7986  0.5486
 3301TIP3   OH231461   2.475   1.053   7.411 -0.0848 -0.1491 -0.0110
 3301TIP3    H131462   2.540   1.119   7.389  0.0790 -0.2563  0.1504
 3301TIP3    H231463   2.464   1.002   7.331  0.5505 -0.5760  0.1712
 3302TIP3   OH231464   2.996   3.889   6.203  0.2728  0.1700  0.8699
 3302TIP3    H131465   2.934   3.856   6.268 -1.3825  1.8853  0.2553
 3302TIP3    H231466   2.990   3.984   6.211 -0.5910  0.4806 -2.2551
 3303TIP3   OH231467   4.964   1.506   8.301  0.6685  0.2043 -0.5849
 3303TIP3    H131468   4.936   1.556   8.378  1.0313 -0.8140  0.2185
 3303TIP3    H231469   5.058   1.523   8.295  0.6747  0.1277 -0.6994
 3304TIP3   OH231470   1.312   4.759   7.684  0.2097  0.0985 -0.0042
 3304TIP3    H131471   1.240   4.726   7.737 -0.7346 -0.7575 -1.7134
 3304TIP3    H231472   1.309   4.854   7.695  1.1118 -0.1087  2.7065
 3305TIP3   OH231473   6.625   4.397   6.889 -0.2699 -0.5361  0.1166
 3305TIP3    H131474   6.721   4.394   6.887 -0.2530  0.1136 -0.3311
 3305TIP3    H231475   6.599   4.307   6.911  0.4437 -0.6718  0.4427
 3306TIP3   OH231476   4.617   3.980   0.969  0.2964 -0.1870 -0.0241
 3306TIP3    H131477   4.705   4.017   0.955  0.4748 -0.8052 -0.5858
 3306TIP3    H231478   4.579   3.977   0.882 -0.2629  0.0165  0.2132
 3307TIP3   OH231479   6.194   4.344   6.660  0.3071  0.3174 -0.5209
 3307TIP3    H131480   6.219   4.260   6.697  1.7209  1.2265  0.7425
 3307TIP3    H231481   6.147   4.389   6.730  1.0883  1.2253 -0.5506
 3308TIP3   OH231482   0.945   0.494   1.052  0.0679  0.0797 -0.5290
 3308TIP3    H131483   1.040   0.505   1.058  0.1448 -0.6139 -0.4278
 3308TIP3    H231484   0.912   0.530   1.134  0.1198  1.5446 -1.1227
 3309TIP3   OH231485   4.151   4.041   2.349  0.7344  0.2847 -0.1030
 3309TIP3    H131486   4.063   4.040   2.313  0.4111  1.2512  0.6253
 3309TIP3    H231487   4.187   3.955   2.326 -0.7372 -0.5197  0.4473
 3310TIP3   OH231488   5.190   2.565   2.074  0.6610 -0.2303  0.2954
 3310TIP3    H131489   5.215   2.636   2.133  1.7385  0.2008 -0.6370
 3310TIP3    H231490   5.110   2.529   2.112 -0.8733  2.5295 -0.0300
 3311TIP3   OH231491   6.526   5.925   0.740  0.0159 -0.0408  0.3331
 3311TIP3    H131492   6.566   5.900   0.657  0.0576 -0.1925  0.3994
 3311TIP3    H231493   6.589   5.984   0.781 -1.5585  3.2370 -1.4629
 3312TIP3   OH231494   6.769   4.239   1.354  0.1827 -0.2927 -0.1300
 3312TIP3    H131495   6.770   4.237   1.258 -2.7101 -1.5515 -0.2499
 3312TIP3    H231496   6.714   4.315   1.375  1.3259  0.3620  0.5922
 3313TIP3   OH231497   0.297   2.001   7.016 -0.0355 -0.1321  0.1540
 3313TIP3    H131498   0.315   2.088   7.051  1.6527  0.1590 -1.2708
 3313TIP3    H231499   0.276   2.016   6.924 -0.1748 -1.1894 -0.0011
 3314TIP3   OH231500   1.978   3.202   0.629  0.2416 -0.1696  0.3570
 3314TIP3    H131501   2.069   3.197   0.659  0.4248 -3.6282 -0.4437
 3314TIP3    H231502   1.926   3.193   0.709  0.5857  0.3067  0.6434
 3315TIP3   OH231503   1.375   2.568   0.833 -0.0223  0.6534 -0.2488
 3315TIP3    H131504   1.437   2.496   0.823 -0.7724  0.0399 -0.6358
 3315TIP3    H231505   1.429   2.646   0.845  0.7950 -0.0252  0.5440
 3316TIP3   OH231506   5.737   2.372   1.552  0.2862 -0.3672  0.2072
 3316TIP3    H131507   5.663   2.381   1.612 -0.5787  0.1324 -0.8900
 3316TIP3    H231508   5.804   2.327   1.603 -0.6169 -0.4575  1.3628
 3317TIP3   OH231509   6.213   0.218   0.731  0.0845 -0.2996  0.3387
 3317TIP3    H131510   6.308   0.220   0.733  0.0791 -0.3839  0.8865
 3317TIP3    H231511   6.190   0.227   0.638  0.5835  1.2825  0.3473
 3318TIP3   OH231512   1.513   0.871   7.535  0.0684  0.2746  0.0141
 3318TIP3    H131513   1.456   0.813   7.585 -0.5191  2.3995  1.9849
 3318TIP3    H231514   1.459   0.902   7.463  0.1364 -0.9707 -0.5869
 3319TIP3   OH231515   5.669   0.895   1.555  0.0415 -0.3291  0.4173
 3319TIP3    H131516   5.596   0.927   1.502  0.5312 -2.1242 -1.4605
 3319TIP3    H231517   5.665   0.800   1.547 -0.1634 -0.8072  4.1271
 3320TIP3   OH231518   6.685   6.728   0.384  0.3002  0.4355 -0.0960
 3320TIP3    H131519   6.647   6.663   0.324 -1.3968  1.1828  0.1035
 3320TIP3    H231520   6.779   6.724   0.368  0.2444 -2.0078 -0.1328
 3321TIP3   OH231521   3.549   6.401   7.566 -0.4222  0.2239 -0.2782
 3321TIP3    H131522   3.542   6.488   7.526  1.3102  0.2368 -0.6326
 3321TIP3    H231523   3.493   6.407   7.644  0.9080  2.2566  0.6425
 3322TIP3   OH231524   6.170   0.023   7.654  0.1504  0.4049 -0.3175
 3322TIP3    H131525   6.176   0.099   7.711 -0.3429 -0.9207  1.5918
 3322TIP3    H231526   6.260  -0.008   7.646  0.2855  0.8840 -0.6815
 3323TIP3   OH231527   2.703   5.121   8.513  0.0901 -0.0393 -0.0956
 3323TIP3    H131528   2.784   5.080   8.544 -0.2202 -0.3708  0.2955
 3323TIP3    H231529   2.634   5.061   8.543 -0.5837  1.8560  2.4430
 3324TIP3   OH231530   0.816   4.862   2.223 -0.3009  0.2962  0.4417
 3324TIP3    H131531   0.841   4.807   2.298  1.6983  0.5025 -0.0181
 3324TIP3    H231532   0.812   4.801   2.149  1.4275  0.6472  0.0283
 3325TIP3   OH231533   1.954   5.301   7.956  0.7097 -0.1949  0.4706
 3325TIP3    H131534   1.923   5.386   7.984  2.5766  1.0999 -1.1019
 3325TIP3    H231535   1.875   5.254   7.928 -0.3757  0.9050  1.5726
 3326TIP3   OH231536   3.586   0.552   0.183  0.5828  0.4864 -0.5200
 3326TIP3    H131537   3.497   0.569   0.152  0.2620 -1.2355 -0.6701
 3326TIP3    H231538   3.609   0.628   0.235 -1.1668  0.7472 -0.0748
 3327TIP3   OH231539   3.883   0.158   8.019 -0.5545  0.2973  0.4176
 3327TIP3    H131540   3.801   0.172   8.066 -1.4506  0.0271 -1.0040
 3327TIP3    H231541   3.860   0.167   7.926  0.7752 -0.9476 -0.0840
 3328TIP3   OH231542   1.500   5.593   6.158 -0.6688 -0.3237  0.3003
 3328TIP3    H131543   1.545   5.524   6.205  0.7218 -0.8675 -1.6960
 3328TIP3    H231544   1.568   5.657   6.136 -1.1308 -0.3522 -1.3662
 3329TIP3   OH231545   2.065   2.836   0.279 -0.9860 -0.2908  0.7645
 3329TIP3    H131546   1.995   2.899   0.263 -1.3577 -0.7613  0.5228
 3329TIP3    H231547   2.137   2.888   0.316 -1.1927  0.3159  0.3179
 3330TIP3   OH231548   3.378   4.313   6.915 -0.2104  0.1520 -0.1819
 3330TIP3    H131549   3.355   4.339   6.826  0.1147 -0.0877 -0.3408
 3330TIP3    H231550   3.362   4.218   6.917  1.9835 -0.2892 -0.7182
 3331TIP3   OH231551   2.807   4.413   7.708  0.8224  0.2235  0.1377
 3331TIP3    H131552   2.736   4.472   7.685  0.7666  0.0219 -0.2075
 3331TIP3    H231553   2.783   4.379   7.794  0.5860  0.2833  0.0936
 3332TIP3   OH231554   6.758   5.626   0.387 -0.4582 -0.2035 -0.1874
 3332TIP3    H131555   6.842   5.590   0.416 -0.1193 -0.8239 -1.7947
 3332TIP3    H231556   6.766   5.629   0.292 -2.2864 -0.3342 -0.3713
 3333TIP3   OH231557   3.612   3.557   6.803 -0.0653  0.4026  0.6323
 3333TIP3    H131558   3.671   3.632   6.810 -0.1855  0.6012 -0.4058
 3333TIP3    H231559   3.537   3.590   6.754  0.4998 -0.7440 -1.0872
 3334TIP3   OH231560   5.419   6.633   7.945 -0.7435 -0.2451 -0.4010
 3334TIP3    H131561   5.505   6.595   7.928  0.1296  1.5305 -0.1021
 3334TIP3    H231562   5.373   6.623   7.861  0.3869  0.3979 -1.1268
 3335TIP3   OH231563   2.047   6.043   8.502  0.1464  0.0560 -0.0675
 3335TIP3    H131564   2.115   6.024   8.567  0.5273  0.4815 -0.3313
 3335TIP3    H231565   1.996   6.114   8.539 -1.6511 -1.7696  1.1860
 3336TIP3   OH231566   0.388   0.432   8.843  0.2716  0.1258  0.0335
 3336TIP3    H131567   0.447   0.360   8.867 -1.6490 -1.4951  0.1033
 3336TIP3    H231568   0.397   0.439   8.748  2.5885  1.7890  0.2961
 3337TIP3   OH231569   6.118   4.857   2.066  0.2666  0.1921  0.3912
 3337TIP3    H131570   6.168   4.890   2.141  3.3752 -2.3812 -0.3013
 3337TIP3    H231571   6.100   4.765   2.087  0.4277 -0.3438 -1.5700
 3338TIP3   OH231572   5.048   1.155   8.776  0.0928 -0.4271 -0.5352
 3338TIP3    H131573   5.068   1.182   8.687  1.2951 -1.2774 -0.5491
 3338TIP3    H231574   5.119   1.095   8.799 -1.0586 -1.4522  0.4283
 3339TIP3   OH231575   6.483   4.706   0.753 -0.3263  0.9710  0.7666
 3339TIP3    H131576   6.538   4.653   0.694 -1.3698 -0.4011  0.9740
 3339TIP3    H231577   6.522   4.793   0.749  1.3861  0.2425  0.2926
 3340TIP3   OH231578   3.096   6.233   7.359 -0.3721  0.0574 -0.2329
 3340TIP3    H131579   3.003   6.226   7.340 -0.6005  0.6203  0.6467
 3340TIP3    H231580   3.139   6.216   7.275 -1.2025 -1.6996 -0.3491
 3341TIP3   OH231581   6.691   1.719   8.574  0.1479  0.2333  0.0259
 3341TIP3    H131582   6.757   1.788   8.587  2.7166 -1.9423 -0.4536
 3341TIP3    H231583   6.622   1.739   8.637  2.2487  1.5133  2.0917
 3342TIP3   OH231584   4.159   4.933   8.071 -0.1482  0.1558 -0.5654
 3342TIP3    H131585   4.182   4.902   7.983 -0.2678 -1.7411  0.0306
 3342TIP3    H231586   4.065   4.950   8.066  0.0477  1.1049 -1.0940
 3343TIP3   OH231587   4.674   2.195   8.212 -0.2513 -0.2750 -0.6697
 3343TIP3    H131588   4.746   2.259   8.217  0.5407 -1.1646 -0.3501
 3343TIP3    H231589   4.712   2.121   8.165 -0.5997 -1.2032  0.4572
 3344TIP3   OH231590   2.200   4.381   0.802  0.3670  0.0687 -0.0086
 3344TIP3    H131591   2.251   4.448   0.847  0.1626  0.2202 -0.0011
 3344TIP3    H231592   2.199   4.408   0.710 -0.7571  0.7546  0.1813
 3345TIP3   OH231593   4.720   3.556   7.958 -0.3396 -0.0805  0.6199
 3345TIP3    H131594   4.713   3.643   7.997  0.0940 -0.2539  1.0853
 3345TIP3    H231595   4.657   3.558   7.886 -1.0703  0.2731  1.2555
 3346TIP3   OH231596   2.025   2.055   6.671 -0.3909 -0.5426  0.0938
 3346TIP3    H131597   1.941   2.090   6.644  0.2906  0.4447 -0.8168
 3346TIP3    H231598   2.050   1.995   6.600 -0.5556 -1.2453  0.6156
 3347TIP3   OH231599   4.957   6.684   0.447 -0.3446  0.5115 -0.4568
 3347TIP3    H131600   4.864   6.709   0.447 -0.3766  0.4160 -1.2206
 3347TIP3    H231601   4.958   6.596   0.410 -0.1734 -0.4387  1.6701
 3348TIP3   OH231602   5.856   5.625   7.426 -0.0443 -0.7062 -0.0185
 3348TIP3    H131603   5.816   5.559   7.483  1.0957 -2.1983 -0.8620
 3348TIP3    H231604   5.949   5.622   7.448  0.1425  0.0604 -0.6421
 3349TIP3   OH231605   5.057   6.358   0.735 -0.6237 -0.0679 -0.3211
 3349TIP3    H131606   5.095   6.423   0.676  1.0556  0.4485  1.2623
 3349TIP3    H231607   5.101   6.276   0.711  0.0322  0.1353  0.1465
 3350TIP3   OH231608   6.374   2.622   0.919  0.1182  0.0112  0.4484
 3350TIP3    H131609   6.279   2.611   0.917 -0.0054  1.1564 -0.8055
 3350TIP3    H231610   6.408   2.543   0.877 -0.4703  1.2061 -2.4577
 3351TIP3   OH231611   2.570   4.467   6.930 -0.2397  0.2980  0.0956
 3351TIP3    H131612   2.639   4.420   6.977 -1.8349 -0.3587  1.8981
 3351TIP3    H231613   2.608   4.553   6.913  0.4339  0.6188  2.7126
 3352TIP3   OH231614   6.583   1.563   6.734 -0.3680  0.2486  0.2321
 3352TIP3    H131615   6.494   1.562   6.700 -0.7735  2.2828  1.0421
 3352TIP3    H231616   6.577   1.519   6.819 -0.1354 -1.4673 -0.6101
 3353TIP3   OH231617   2.531   5.381   2.130  0.0653 -0.1659  0.2417
 3353TIP3    H131618   2.580   5.405   2.209  1.4495  0.8024 -0.8633
 3353TIP3    H231619   2.463   5.322   2.162 -0.1874  1.1233  2.3386
 3354TIP3   OH231620   6.689   5.741   1.327  0.5404  0.3982  0.2578
 3354TIP3    H131621   6.653   5.829   1.316 -1.7798 -0.5471 -0.1505
 3354TIP3    H231622   6.726   5.720   1.242  1.6797  1.1761  0.5323
 3355TIP3   OH231623   4.523   5.067   8.060 -0.8681 -0.1269 -0.3230
 3355TIP3    H131624   4.491   4.989   8.015 -0.7943  0.3239 -1.1882
 3355TIP3    H231625   4.465   5.137   8.030  0.1982  0.4919 -1.0228
 3356TIP3   OH231626   2.858   1.832   7.549  0.2912 -0.1057  0.7650
 3356TIP3    H131627   2.792   1.772   7.581 -0.4170 -0.5184 -1.3274
 3356TIP3    H231628   2.837   1.916   7.590  1.3318 -1.1714  3.7690
 3357TIP3   OH231629   3.508   5.873   8.051 -0.1488 -0.1108  0.4697
 3357TIP3    H131630   3.550   5.932   7.989 -1.5524  0.4646  0.0372
 3357TIP3    H231631   3.493   5.793   8.002 -3.6140  1.1984 -0.8404
 3358TIP3   OH231632   0.847   0.742   0.323  0.1043 -0.6972 -0.1562
 3358TIP3    H131633   0.818   0.767   0.411 -0.0815 -0.4101 -0.2942
 3358TIP3    H231634   0.882   0.654   0.332 -0.8636 -1.0737  0.0138
 3359TIP3   OH231635   4.076   3.499   8.255 -0.3477 -0.2501  0.2761
 3359TIP3    H131636   4.048   3.422   8.207  0.5074 -1.1319  1.1419
 3359TIP3    H231637   4.045   3.484   8.345  0.3595  0.1174  0.5907
 3360TIP3   OH231638   2.990   4.164   6.190  0.0411  0.5165 -0.4225
 3360TIP3    H131639   3.021   4.230   6.252  1.3759 -0.5481  0.0821
 3360TIP3    H231640   3.003   4.204   6.104  0.7154  0.9645 -0.1209
 3361TIP3   OH231641   2.864   2.041   8.086 -0.0726 -0.5114 -0.7982
 3361TIP3    H131642   2.827   2.100   8.151 -0.4666 -0.3455 -1.1681
 3361TIP3    H231643   2.940   2.089   8.051  0.0325 -0.5258 -0.5931
 3362TIP3   OH231644   3.087   5.121   7.555 -0.1964 -0.1418 -0.2119
 3362TIP3    H131645   3.146   5.087   7.487  0.8445  0.8858  0.1532
 3362TIP3    H231646   3.094   5.057   7.626  3.0042  1.4819  1.1379
 3363TIP3   OH231647   3.667   6.284   1.387 -0.3102  0.2888 -0.2565
 3363TIP3    H131648   3.622   6.359   1.427 -1.1983  1.8234 -3.7345
 3363TIP3    H231649   3.597   6.221   1.370 -0.3446  0.5809 -1.2571
 3364TIP3   OH231650   0.575   4.511   1.296  0.4012 -0.1037 -0.0298
 3364TIP3    H131651   0.667   4.484   1.299  0.3756 -0.2850 -0.8378
 3364TIP3    H231652   0.526   4.430   1.285  0.2609  0.1436 -1.3845
 3365TIP3   OH231653   0.440   1.488   8.025  0.0783 -0.0643  0.4047
 3365TIP3    H131654   0.374   1.433   8.067 -1.0591  0.0719 -1.1372
 3365TIP3    H231655   0.406   1.577   8.032 -0.6597 -0.1447 -1.6682
 3366TIP3   OH231656   5.927   2.456   0.186 -0.3093 -0.7039  0.0860
 3366TIP3    H131657   5.970   2.370   0.185  0.5277 -0.2989 -0.3124
 3366TIP3    H231658   5.984   2.510   0.242  1.0613  0.4829 -2.2988
 3367TIP3   OH231659   3.872   2.793   1.301 -0.2192 -0.5392  0.3543
 3367TIP3    H131660   3.873   2.764   1.210 -1.5653 -3.0629  1.0678
 3367TIP3    H231661   3.942   2.743   1.342  0.1622  0.3442  0.8060
 3368TIP3   OH231662   4.616   1.606   6.411 -0.0824  0.1190  0.2324
 3368TIP3    H131663   4.657   1.522   6.434  0.2764 -0.1786 -1.3579
 3368TIP3    H231664   4.670   1.672   6.454  1.7445 -0.3055 -1.2887
 3369TIP3   OH231665   4.193   0.022   7.204  0.0090  0.3291  0.6330
 3369TIP3    H131666   4.124   0.088   7.213 -0.5006 -0.2060  0.7643
 3369TIP3    H231667   4.146  -0.062   7.206  0.6196 -0.0294  0.2066
 3370TIP3   OH231668   2.015   6.401   0.543  0.1288 -1.0228 -0.4859
 3370TIP3    H131669   2.011   6.471   0.608 -2.5975 -0.6582 -0.9290
 3370TIP3    H231670   2.005   6.445   0.459  1.7586 -1.6626 -1.0445
 3371TIP3   OH231671   0.907   4.797   7.739 -0.4787 -0.1257  0.4401
 3371TIP3    H131672   0.837   4.850   7.701  1.1267  1.9381  0.1958
 3371TIP3    H231673   0.930   4.735   7.670 -1.1595  0.0563  0.0413
 3372TIP3   OH231674   5.989   5.940   1.695 -0.1848  0.1486 -0.0586
 3372TIP3    H131675   5.999   5.872   1.762  0.7123 -1.2066 -1.4905
 3372TIP3    H231676   6.059   6.002   1.715  2.6313 -2.1768 -1.8253
 3373TIP3   OH231677   4.327   4.619   0.337  0.2278 -0.0559  0.6951
 3373TIP3    H131678   4.363   4.550   0.393 -0.2873  0.4586  1.6775
 3373TIP3    H231679   4.252   4.652   0.385 -1.0800 -0.5289 -0.9395
 3374TIP3   OH231680   4.481   1.350   1.391  0.0740  0.7231 -0.5986
 3374TIP3    H131681   4.517   1.408   1.458 -0.5986  0.5668 -0.0925
 3374TIP3    H231682   4.530   1.269   1.399  0.2800  0.8489 -0.5812
 3375TIP3   OH231683   2.518   6.626   8.721 -0.2004  0.2222 -0.2225
 3375TIP3    H131684   2.435   6.587   8.745 -1.4472  2.8007  0.0415
 3375TIP3    H231685   2.512   6.641   8.627 -0.2937  0.9360 -0.1093
 3376TIP3   OH231686   3.270   3.215   0.338 -0.1134 -0.3414  0.4130
 3376TIP3    H131687   3.204   3.285   0.338 -1.3116 -1.3868 -1.6639
 3376TIP3    H231688   3.227   3.142   0.382  0.2444 -0.5651  0.3942
 3377TIP3   OH231689   4.646   1.186   0.076  0.8469 -0.0111  0.5813
 3377TIP3    H131690   4.557   1.154   0.092  0.4782  0.9940  0.5945
 3377TIP3    H231691   4.691   1.173   0.160  0.4917  0.1670  0.8047
 3378TIP3   OH231692   4.864   0.313   8.577 -0.3764 -0.2523  0.2676
 3378TIP3    H131693   4.891   0.404   8.591  0.7432 -0.4297 -0.6234
 3378TIP3    H231694   4.893   0.267   8.656 -2.2057  0.3791  1.3804
 3379TIP3   OH231695   1.784   4.732   7.649  0.3418 -0.6307  0.1188
 3379TIP3    H131696   1.859   4.714   7.592 -0.6264 -1.8689 -0.7969
 3379TIP3    H231697   1.794   4.671   7.722 -0.1387 -1.2841 -0.3556
 3380TIP3   OH231698   0.210   1.010   7.717 -0.8912 -0.6372 -0.0124
 3380TIP3    H131699   0.229   0.989   7.626 -0.0879 -0.1977  0.0466
 3380TIP3    H231700   0.117   1.033   7.717 -0.6665  0.3820 -0.9261
 3381TIP3   OH231701   5.167   2.397   7.490  0.3754  0.0822 -0.3066
 3381TIP3    H131702   5.132   2.426   7.575 -0.4821 -0.2750 -0.5288
 3381TIP3    H231703   5.261   2.414   7.496  0.2319  0.6789  0.4666
 3382TIP3   OH231704   5.395   4.647   7.075  0.7705  0.6404  0.7236
 3382TIP3    H131705   5.452   4.582   7.116 -0.2679 -2.6344 -2.5355
 3382TIP3    H231706   5.451   4.694   7.014  0.5031 -1.1369 -0.9564
 3383TIP3   OH231707   1.536   0.351   8.740  0.0510 -0.1061  0.1933
 3383TIP3    H131708   1.541   0.443   8.714  0.5511 -0.0101  0.6067
 3383TIP3    H231709   1.528   0.354   8.835 -0.3086 -0.4825  0.1756
 3384TIP3   OH231710   4.683   6.017   7.759  0.1253  0.0292 -0.1733
 3384TIP3    H131711   4.624   6.089   7.784  0.5387  0.6539 -0.9586
 3384TIP3    H231712   4.626   5.952   7.717 -0.2411 -0.0827  0.4885
 3385TIP3   OH231713   6.366   6.468   1.183 -0.0045  0.1485 -0.5816
 3385TIP3    H131714   6.392   6.530   1.250 -0.7601 -0.9945  0.8378
 3385TIP3    H231715   6.271   6.460   1.193  0.2209 -2.3750  0.4026
 3386TIP3   OH231716   0.465   3.302   6.216  0.4431 -0.2965 -0.1114
 3386TIP3    H131717   0.387   3.352   6.241 -0.3439 -0.8465 -1.3785
 3386TIP3    H231718   0.458   3.220   6.264  0.7186  0.0073  0.4592
 3387TIP3   OH231719   5.907   6.679   7.696  0.3840  0.6013  0.1157
 3387TIP3    H131720   5.975   6.739   7.727 -1.2328  2.4733  0.2624
 3387TIP3    H231721   5.936   6.593   7.726  0.4107  1.8492  4.4927
 3388TIP3   OH231722   1.533   5.461   8.564 -0.5067 -0.3930 -0.2661
 3388TIP3    H131723   1.589   5.516   8.509 -0.6217  1.4678  1.3873
 3388TIP3    H231724   1.578   5.457   8.648 -1.2009 -1.7265  0.0656
 3389TIP3   OH231725   3.905   0.291   1.778 -0.0434  0.3033  0.0507
 3389TIP3    H131726   3.830   0.233   1.789 -0.2180  0.0887 -1.9145
 3389TIP3    H231727   3.925   0.322   1.866 -1.9381 -0.2378  0.7048
 3390TIP3   OH231728   1.503   6.603   1.865  0.2335  0.5016 -0.5706
 3390TIP3    H131729   1.454   6.657   1.927  1.2126 -0.5683  1.2262
 3390TIP3    H231730   1.594   6.631   1.876  0.5805 -0.5983 -0.5556
 3391TIP3   OH231731   1.013   1.680   1.467 -0.3887 -0.0288  0.1882
 3391TIP3    H131732   1.076   1.750   1.488 -0.7196  0.7601 -1.3169
 3391TIP3    H231733   1.058   1.599   1.493  0.5008  0.6461  0.8265
 3392TIP3   OH231734   1.551   4.721   1.140  0.0934  0.0458 -0.3312
 3392TIP3    H131735   1.571   4.641   1.092 -1.6649 -1.0104  0.5642
 3392TIP3    H231736   1.457   4.714   1.159 -0.9035  3.7298 -2.7690
 3393TIP3   OH231737   6.499   4.570   1.132  0.1372  0.0922 -0.4213
 3393TIP3    H131738   6.489   4.572   1.227  0.9644  0.9026 -0.3438
 3393TIP3    H231739   6.435   4.634   1.100 -0.5064 -0.5540 -0.4563
 3394TIP3   OH231740   0.713   0.417   1.267  0.1952  0.1794 -1.0322
 3394TIP3    H131741   0.646   0.483   1.252 -0.8355 -0.9518 -1.5764
 3394TIP3    H231742   0.711   0.362   1.189 -1.0359 -2.2170  0.5371
 3395TIP3   OH231743   3.240   4.503   7.364 -0.2900  0.0554 -0.4348
 3395TIP3    H131744   3.218   4.438   7.430 -1.7456 -0.3145 -1.2348
 3395TIP3    H231745   3.302   4.459   7.306  1.2568  0.4909  0.8118
 3396TIP3   OH231746   6.169   6.224   0.064 -0.2527 -0.0840 -0.4434
 3396TIP3    H131747   6.184   6.130   0.054  0.7363  0.1886 -1.6669
 3396TIP3    H231748   6.214   6.247   0.146 -1.7381 -0.9064  0.6628
 3397TIP3   OH231749   5.782   5.377   7.600  0.2796  0.2246  0.1072
 3397TIP3    H131750   5.869   5.407   7.629  1.7336 -2.4463 -1.1390
 3397TIP3    H231751   5.749   5.326   7.674  0.0948  0.5973  0.2861
 3398TIP3   OH231752   6.124   4.436   7.329 -0.3598 -0.4476  0.4806
 3398TIP3    H131753   6.199   4.440   7.269 -1.5005  0.2058 -0.9402
 3398TIP3    H231754   6.101   4.528   7.344 -2.0571 -0.6497 -0.6516
 3399TIP3   OH231755   0.574   2.190   8.607 -0.0345  0.3044 -0.2521
 3399TIP3    H131756   0.519   2.189   8.529 -1.2103  0.7286  0.5576
 3399TIP3    H231757   0.663   2.205   8.573 -0.6214  1.2639 -1.4555
 3400TIP3   OH231758   3.236   0.340   1.301  0.4213  0.6711  0.0135
 3400TIP3    H131759   3.227   0.391   1.220  1.6683  2.2896  0.8273
 3400TIP3    H231760   3.319   0.294   1.291 -0.7450 -1.4009 -0.7555
 3401TIP3   OH231761   0.947   5.521   1.319 -0.7580 -0.3241  0.2823
 3401TIP3    H131762   1.040   5.542   1.327 -0.6571 -0.4962 -0.4126
 3401TIP3    H231763   0.913   5.530   1.409 -0.1403  0.0337  0.4888
 3402TIP3   OH231764   2.457   6.748   1.813 -0.3237 -0.2916  0.2610
 3402TIP3    H131765   2.383   6.790   1.771  0.5933 -0.8238 -2.0210
 3402TIP3    H231766   2.534   6.791   1.775  0.5785 -2.1010 -0.0639
 3403TIP3   OH231767   5.835   2.896   0.495 -0.0597  0.0619  0.1914
 3403TIP3    H131768   5.859   2.984   0.465 -1.9934  0.6945  0.3465
 3403TIP3    H231769   5.847   2.899   0.590 -0.9090  0.4548  0.2976
 3404TIP3   OH231770   5.814   2.725   0.831  0.0532  0.6319 -0.4279
 3404TIP3    H131771   5.882   2.703   0.894  0.2809  0.2430 -0.7982
 3404TIP3    H231772   5.826   2.818   0.814 -0.1559  0.7927  0.2691
 3405TIP3   OH231773   0.639   0.327   8.224 -0.2141  0.1311 -0.0541
 3405TIP3    H131774   0.673   0.353   8.309  1.9559  0.7175 -1.0421
 3405TIP3    H231775   0.616   0.410   8.181 -0.1249 -0.0710 -0.4958
 3406TIP3   OH231776   2.348   2.726   0.395 -0.0104 -0.2785 -0.2027
 3406TIP3    H131777   2.348   2.792   0.465 -0.0507 -1.2185  0.7133
 3406TIP3    H231778   2.387   2.770   0.320 -0.0512  0.7890  0.3852
 3407TIP3   OH231779   2.056   5.224   0.209 -0.4831  0.5162  0.0349
 3407TIP3    H131780   2.102   5.239   0.126  0.3546  0.7214  0.5215
 3407TIP3    H231781   2.121   5.179   0.264 -1.4294 -0.7383  0.1707
 3408TIP3   OH231782   0.736   2.231   0.053 -0.5758  0.2977  0.4297
 3408TIP3    H131783   0.755   2.264   0.141 -1.0366 -1.3324  1.1663
 3408TIP3    H231784   0.662   2.285   0.023 -1.5769 -0.2826  1.7671
 3409TIP3   OH231785   6.028   1.393   8.836  0.2013 -0.2583  0.6094
 3409TIP3    H131786   5.972   1.468   8.856  0.1175 -0.4867  1.2373
 3409TIP3    H231787   6.112   1.433   8.812 -0.2097  0.0841 -0.3400
 3410TIP3   OH231788   6.167   5.356   7.125  0.0242 -0.6778 -0.9389
 3410TIP3    H131789   6.217   5.316   7.195 -1.1173 -0.0032  0.3054
 3410TIP3    H231790   6.219   5.433   7.099  0.3154 -0.7715 -0.6355
 3411TIP3   OH231791   0.468   4.057   8.425 -0.2667  0.3522 -0.2661
 3411TIP3    H131792   0.406   4.118   8.388 -0.3613  0.1656 -0.4175
 3411TIP3    H231793   0.553   4.099   8.414 -0.5757  1.9479  2.5444
 3412TIP3   OH231794   5.759   2.677   7.616 -0.6027  0.2978 -0.5782
 3412TIP3    H131795   5.836   2.724   7.586 -0.4989  0.0317 -0.7406
 3412TIP3    H231796   5.745   2.610   7.549 -2.1791  1.6014 -1.6345
 3413TIP3   OH231797   0.942   1.509   7.889  0.3645 -0.3223  0.5176
 3413TIP3    H131798   0.961   1.477   7.800 -0.5750 -0.1748  0.2447
 3413TIP3    H231799   0.866   1.457   7.916  0.7966 -0.5398  1.3450
 3414TIP3   OH231800   1.400   3.621   8.552  0.3296  0.0260 -0.3091
 3414TIP3    H131801   1.487   3.626   8.512  0.1357 -1.2811 -0.9467
 3414TIP3    H231802   1.340   3.614   8.478 -0.2169 -0.2999  0.1544
 3415TIP3   OH231803   2.828   5.604   7.323  0.3221  0.1590  0.6524
 3415TIP3    H131804   2.803   5.514   7.305  0.3754 -0.4806  3.3457
 3415TIP3    H231805   2.799   5.653   7.246 -0.9325 -1.9271 -0.2928
 3416TIP3   OH231806   2.926   5.236   7.352 -0.5436 -0.2365  0.4708
 3416TIP3    H131807   2.971   5.251   7.269 -1.1122  2.5833  0.5996
 3416TIP3    H231808   2.993   5.197   7.408  1.0139  1.4019 -0.1589
 3417TIP3   OH231809   2.912   6.708   7.024  0.0486 -0.0927  0.0040
 3417TIP3    H131810   2.965   6.628   7.028 -0.7422 -0.6673 -0.5796
 3417TIP3    H231811   2.880   6.710   6.934  0.3562  1.0913 -0.0915
 3418TIP3   OH231812   5.519   4.708   7.927 -0.5678  0.2945 -0.1575
 3418TIP3    H131813   5.559   4.662   8.001 -2.7622 -0.9962  0.3236
 3418TIP3    H231814   5.479   4.639   7.874 -1.0282  1.3929 -1.3090
 3419TIP3   OH231815   2.133   4.991   8.359  0.2520 -0.7753  0.2288
 3419TIP3    H131816   2.178   4.987   8.443 -0.8028  0.3079  0.8706
 3419TIP3    H231817   2.197   5.032   8.300 -0.1489  1.7013  1.3772
 3420TIP3   OH231818   0.358   4.394   0.147  0.0508 -0.0317  0.3313
 3420TIP3    H131819   0.314   4.310   0.140  0.0414  0.0426 -0.6198
 3420TIP3    H231820   0.287   4.458   0.146  0.1295  0.0499 -0.3852
 3421TIP3   OH231821   1.992   3.521   7.475  0.0237 -0.1941  0.2276
 3421TIP3    H131822   1.996   3.448   7.537  0.6637  0.3818  0.8836
 3421TIP3    H231823   2.072   3.513   7.423 -0.5992 -0.7859 -0.6857
 3422TIP3   OH231824   0.336   3.261   2.206 -0.0415 -0.8395 -0.0676
 3422TIP3    H131825   0.319   3.338   2.150  0.0622  0.1217  1.1830
 3422TIP3    H231826   0.426   3.273   2.236 -0.2971 -1.0246  0.7873
 3423TIP3   OH231827   4.599   4.664   6.738 -0.1945 -0.2232 -0.1426
 3423TIP3    H131828   4.624   4.581   6.698  0.7362  1.3044 -3.0800
 3423TIP3    H231829   4.507   4.677   6.714 -0.3561 -0.4206  0.3627
 3424TIP3   OH231830   4.895   5.046   7.408  0.0930  0.0516 -0.2689
 3424TIP3    H131831   4.814   5.041   7.357  0.8041 -0.3235 -1.4064
 3424TIP3    H231832   4.896   5.135   7.443 -0.2514  0.4495 -1.2276
 3425TIP3   OH231833   0.329   6.708   1.422  0.1189 -0.2285  0.3734
 3425TIP3    H131834   0.343   6.631   1.367  0.6011  0.7501 -0.9307
 3425TIP3    H231835   0.415   6.749   1.428 -0.1234  0.2064  1.0886
 3426TIP3   OH231836   0.633   5.588   7.948 -0.1691 -0.2230 -0.3268
 3426TIP3    H131837   0.648   5.671   7.903 -0.4307  0.1815  0.3229
 3426TIP3    H231838   0.642   5.522   7.879  1.4733  0.2244 -0.5798
 3427TIP3   OH231839   6.374   2.081   1.431  0.3024  0.2993 -0.2214
 3427TIP3    H131840   6.433   2.089   1.356  0.2197  3.8786 -0.1032
 3427TIP3    H231841   6.433   2.084   1.507  0.2742 -1.8098 -0.0602
 3428TIP3   OH231842   6.353   2.958   1.151  0.1827 -0.2351 -0.1557
 3428TIP3    H131843   6.386   3.008   1.225  2.3522 -2.3916  0.4572
 3428TIP3    H231844   6.360   3.017   1.076  0.3979  1.1263  0.9172
 3429TIP3   OH231845   3.492   1.773   8.182 -0.7279 -0.0847 -0.8433
 3429TIP3    H131846   3.539   1.711   8.125 -0.3305 -0.2932 -0.2957
 3429TIP3    H231847   3.527   1.858   8.158  2.3084 -0.4448  1.6611
 3430TIP3   OH231848   6.347   6.167   7.722 -0.0210 -0.1035 -0.4200
 3430TIP3    H131849   6.404   6.094   7.697 -0.0797 -0.5363  0.6490
 3430TIP3    H231850   6.396   6.214   7.790 -1.6561 -1.6384  1.9953
 3431TIP3   OH231851   2.899   2.721   7.354  0.2552  0.1358 -0.3220
 3431TIP3    H131852   2.891   2.807   7.396 -1.5231 -0.2346  0.1615
 3431TIP3    H231853   2.921   2.742   7.263  1.5186  1.0249  0.1544
 3432TIP3   OH231854   0.317   4.497   8.549 -0.3032  0.0840 -0.2623
 3432TIP3    H131855   0.260   4.515   8.623  0.4453  1.1133  0.0852
 3432TIP3    H231856   0.305   4.572   8.490  1.0043  0.5581  0.0312
 3433TIP3   OH231857   6.478   2.674   0.041  0.2134  0.1087  0.5898
 3433TIP3    H131858   6.564   2.693   0.005  0.6356  0.8630  1.9491
 3433TIP3    H231859   6.452   2.754   0.085 -1.7530  0.3245 -0.8265
 3434TIP3   OH231860   1.353   5.395   8.364  0.1784  0.0128  0.5450
 3434TIP3    H131861   1.414   5.417   8.434  2.1367  1.3671 -1.4635
 3434TIP3    H231862   1.346   5.475   8.312 -0.0838 -1.3267 -1.6086
 3435TIP3   OH231863   0.332   1.816   7.375 -0.1077 -0.3138  0.1840
 3435TIP3    H131864   0.316   1.760   7.298  0.7924 -0.5138  0.1351
 3435TIP3    H231865   0.421   1.794   7.402  0.5292  1.6183 -0.2528
 3436TIP3   OH231866   0.935   1.101   8.032  0.2301  0.3545 -0.6627
 3436TIP3    H131867   0.925   1.129   7.941 -2.4588 -1.7033 -1.1383
 3436TIP3    H231868   0.894   1.172   8.083 -2.5723 -0.5211 -1.5062
 3437TIP3   OH231869   3.348   5.517   8.364  0.2070 -0.1941 -0.2505
 3437TIP3    H131870   3.354   5.555   8.277  4.1352  0.0434 -0.0555
 3437TIP3    H231871   3.341   5.593   8.423  0.7626 -0.1448 -0.2385
 3438TIP3   OH231872   2.907   1.344   2.331  0.6544  0.1841 -0.1900
 3438TIP3    H131873   2.843   1.307   2.270  0.4967  0.5244 -0.2358
 3438TIP3    H231874   2.942   1.269   2.378  0.7795 -0.0807 -0.7029
 3439TIP3   OH231875   5.212   0.814   0.473  0.4837 -0.1736 -0.3248
 3439TIP3    H131876   5.212   0.830   0.379 -0.9195 -0.2859 -0.3687
 3439TIP3    H231877   5.157   0.737   0.484  0.8175 -0.2940  0.5684
 3440TIP3   OH231878   0.753   6.280   1.665 -0.1042  0.1706 -0.3114
 3440TIP3    H131879   0.780   6.188   1.674  0.8465  0.4546 -0.1532
 3440TIP3    H231880   0.699   6.297   1.742 -2.0087 -0.8243 -1.3574
 3441TIP3   OH231881   2.754   3.234   7.544  0.2150 -0.2785 -0.2683
 3441TIP3    H131882   2.671   3.194   7.518 -0.0624 -0.2775  0.5712
 3441TIP3    H231883   2.757   3.222   7.639  1.6471 -1.1825 -0.3943
 3442TIP3   OH231884   1.235   3.537   6.539 -0.3974  0.2858  0.3434
 3442TIP3    H131885   1.282   3.470   6.589  0.9459  0.6224 -0.4074
 3442TIP3    H231886   1.157   3.493   6.506  1.0207 -1.2880 -1.0886
 3443TIP3   OH231887   3.223   5.472   5.863  0.0478  0.1243  0.7808
 3443TIP3    H131888   3.214   5.531   5.938 -0.9040  0.4177  0.4457
 3443TIP3    H231889   3.134   5.463   5.829  0.8169  2.5213 -2.2547
 3444TIP3   OH231890   4.443   1.072   8.711 -0.8233  0.4112 -0.4376
 3444TIP3    H131891   4.459   0.988   8.755 -2.4785  0.7514  0.8728
 3444TIP3    H231892   4.521   1.124   8.730 -1.2832  0.3883  1.7885
 3445TIP3   OH231893   0.688   1.716   2.449 -0.5456 -0.0919 -0.0869
 3445TIP3    H131894   0.659   1.625   2.442  0.1623 -0.2999 -0.4303
 3445TIP3    H231895   0.734   1.720   2.532 -4.2446  1.0388  2.1465
 3446TIP3   OH231896   5.988   1.362   7.911 -0.8126  0.3326  0.5662
 3446TIP3    H131897   5.992   1.391   8.002  1.7930  0.3125  0.5370
 3446TIP3    H231898   6.071   1.390   7.873 -0.7906 -1.7386 -1.1402
 3447TIP3   OH231899   5.952   2.593   7.276  0.0083  0.3048 -0.0370
 3447TIP3    H131900   5.898   2.542   7.336 -0.3301  0.2646 -0.3722
 3447TIP3    H231901   5.891   2.627   7.211  0.4031  0.1328 -0.5070
 3448TIP3   OH231902   0.138   1.394   1.078  0.3876  0.1949 -0.6472
 3448TIP3    H131903   0.177   1.445   1.149 -0.2429  1.6408 -1.2854
 3448TIP3    H231904   0.213   1.360   1.029  0.8424  1.0191 -0.5446
 3449TIP3   OH231905   0.022   5.124   7.141  0.2339  0.2427 -0.2227
 3449TIP3    H131906   0.048   5.034   7.125  0.7822  0.5846 -1.3462
 3449TIP3    H231907   0.089   5.157   7.201 -0.6796 -0.4417  1.2335
 3450TIP3   OH231908   3.441   1.375   1.601  0.0230  0.1255  0.5085
 3450TIP3    H131909   3.415   1.466   1.614 -0.2205  0.2908 -0.9524
 3450TIP3    H231910   3.362   1.324   1.621 -0.8425  0.4785 -1.6933
 3451TIP3   OH231911   3.247   2.130   1.794 -0.4003  0.2489  0.4090
 3451TIP3    H131912   3.310   2.075   1.748  0.7078  0.0217  2.1136
 3451TIP3    H231913   3.183   2.069   1.830 -0.6744  0.3292  0.0609
 3452TIP3   OH231914   4.927   1.460   0.807  0.2749  0.0987 -0.0403
 3452TIP3    H131915   4.950   1.409   0.729 -2.4964  1.4317 -1.8975
 3452TIP3    H231916   4.908   1.395   0.874  2.9459 -1.0945 -0.3111
 3453TIP3   OH231917   2.344   0.140   1.185  0.4458  0.3523 -0.0070
 3453TIP3    H131918   2.258   0.122   1.223  0.4346 -0.8080 -0.5442
 3453TIP3    H231919   2.406   0.116   1.254  0.4216 -1.6152 -0.6337
 3454TIP3   OH231920   2.456   1.841   7.417 -0.0788 -0.6608  0.7613
 3454TIP3    H131921   2.389   1.851   7.484 -0.7029 -1.2690  0.2524
 3454TIP3    H231922   2.447   1.918   7.361 -1.3311 -1.4177 -0.1258
 3455TIP3   OH231923   1.858   6.444   0.982  0.6435  0.2215  0.1550
 3455TIP3    H131924   1.938   6.393   0.966  0.8043  0.3699  0.4599
 3455TIP3    H231925   1.867   6.522   0.927  0.3049 -0.1683 -0.4632
 3456TIP3   OH231926   2.519   4.466   8.833  0.2192 -0.0968 -0.0943
 3456TIP3    H131927   2.456   4.394   8.836 -0.7217  0.6373 -1.0852
 3456TIP3    H231928   2.541   4.483   8.925 -1.5761  0.0579  0.3479
 3457TIP3   OH231929   5.846   0.395   0.165 -0.3832 -0.4610  0.3329
 3457TIP3    H131930   5.823   0.488   0.168 -0.7641 -0.5799  2.0026
 3457TIP3    H231931   5.826   0.368   0.075 -0.2667  1.0630 -0.1734
 3458TIP3   OH231932   2.999   0.997   1.058 -0.0373  0.0168 -0.1642
 3458TIP3    H131933   3.067   1.044   1.010 -0.0848  0.2001 -0.0510
 3458TIP3    H231934   3.039   0.976   1.142 -0.4299  0.9396  0.2628
 3459TIP3   OH231935   2.189   4.494   7.621 -0.5264  0.0563  0.0787
 3459TIP3    H131936   2.129   4.453   7.683  0.0743 -0.6848  0.1754
 3459TIP3    H231937   2.257   4.534   7.675 -1.1995  1.3715 -0.0033
 3460TIP3   OH231938   1.665   3.923   6.992 -0.6575 -0.3836  0.1374
 3460TIP3    H131939   1.574   3.931   6.962  0.0759 -0.8256 -2.4328
 3460TIP3    H231940   1.672   3.834   7.026 -1.0662 -0.4934 -0.0642
 3461TIP3   OH231941   1.922   6.776   1.735  0.1281 -0.1093 -0.5721
 3461TIP3    H131942   1.973   6.756   1.813  1.2546  0.7542 -1.0665
 3461TIP3    H231943   1.898   6.868   1.744 -1.0486 -0.4032 -0.5285
 3462TIP3   OH231944   4.935   1.282   7.303  0.4732  0.3750 -0.9764
 3462TIP3    H131945   4.858   1.338   7.294 -1.1753 -1.5334  0.1920
 3462TIP3    H231946   4.974   1.308   7.387 -0.5914 -0.4814 -0.1797
 3463TIP3   OH231947   5.998   1.759   0.511 -0.2817  0.0934  0.2937
 3463TIP3    H131948   6.052   1.690   0.551 -0.1876  0.2779  0.4851
 3463TIP3    H231949   5.914   1.754   0.558 -1.2521 -1.6622 -1.4515
 3464TIP3   OH231950   6.049   3.981   2.037  0.1416 -0.5388 -0.1499
 3464TIP3    H131951   6.088   4.017   2.117 -0.7153  1.2912 -0.4945
 3464TIP3    H231952   5.965   4.026   2.029  0.3904 -0.3577 -2.2877
 3465TIP3   OH231953   5.704   1.990   1.162 -0.0921  0.0515  0.1390
 3465TIP3    H131954   5.736   2.078   1.143 -0.2292  0.1096  0.1730
 3465TIP3    H231955   5.766   1.931   1.119 -1.0336  0.1987 -1.5027
 3466TIP3   OH231956   2.191   0.923   1.451  0.3463 -0.3716  0.1340
 3466TIP3    H131957   2.146   0.967   1.379  0.2679  0.5601  0.7461
 3466TIP3    H231958   2.264   0.878   1.409  0.6346  0.6212 -0.4640
 3467TIP3   OH231959   2.193   3.117   8.258 -0.2596  0.3978 -0.1562
 3467TIP3    H131960   2.227   3.031   8.280  1.0974  0.8649 -0.3102
 3467TIP3    H231961   2.165   3.109   8.167 -0.8371 -0.0805  0.0621
 3468TIP3   OH231962   2.823   4.776   0.041 -0.2477 -0.1803  0.3335
 3468TIP3    H131963   2.735   4.803   0.014  0.3087  0.7011 -0.6660
 3468TIP3    H231964   2.870   4.858   0.056  0.5592 -0.6371  0.3450
 3469TIP3   OH231965   4.636   6.641   0.552 -0.4582 -0.3272 -0.0353
 3469TIP3    H131966   4.706   6.648   0.618 -0.7722  0.6025  0.2122
 3469TIP3    H231967   4.651   6.556   0.511  0.7694 -0.1923  0.0750
 3470TIP3   OH231968   2.649   4.305   6.704 -0.2473 -0.3268 -0.0708
 3470TIP3    H131969   2.727   4.348   6.669 -0.0841  0.1379  0.8261
 3470TIP3    H231970   2.617   4.366   6.771 -1.0080 -0.8159  0.0159
 3471TIP3   OH231971   4.577   2.729   7.558  0.1425  0.1997  0.4939
 3471TIP3    H131972   4.609   2.685   7.479  0.2200  0.2027  0.5233
 3471TIP3    H231973   4.603   2.820   7.546 -0.5811  0.3667  0.1342
 3472TIP3   OH231974   4.487   5.855   8.431  0.6103 -0.5457  0.0577
 3472TIP3    H131975   4.462   5.928   8.488  2.4546 -0.7087  1.1890
 3472TIP3    H231976   4.446   5.778   8.471  0.3206 -0.3977  0.0438
 3473TIP3   OH231977   5.291   5.838   1.253  0.1334 -0.0054 -0.0132
 3473TIP3    H131978   5.199   5.855   1.273 -0.7451 -1.1748 -2.6238
 3473TIP3    H231979   5.304   5.876   1.165  1.5788 -1.5291 -0.5063
 3474TIP3   OH231980   2.134   5.482   0.601 -0.8117 -0.1986  0.7940
 3474TIP3    H131981   2.083   5.482   0.682 -1.3157  1.7426  0.5378
 3474TIP3    H231982   2.225   5.483   0.631 -0.9023  3.7695  1.6007
 3475TIP3   OH231983   6.177   0.344   7.012 -0.2659 -0.0797  0.7558
 3475TIP3    H131984   6.251   0.359   7.071  1.1968 -0.5073 -0.8714
 3475TIP3    H231985   6.176   0.249   6.998 -0.7366 -0.0171  0.3115
 3476TIP3   OH231986   1.688   1.831   0.599 -0.3002 -0.2099 -0.0667
 3476TIP3    H131987   1.609   1.786   0.567 -1.9832  1.9525  0.8274
 3476TIP3    H231988   1.677   1.834   0.694 -0.1533  1.8577 -0.0828
 3477TIP3   OH231989   5.978   5.661   1.481 -0.9095  0.5157  0.2231
 3477TIP3    H131990   6.021   5.746   1.470  0.4030  0.0006  1.0995
 3477TIP3    H231991   6.015   5.626   1.562  0.1605 -1.8144 -1.1903
 3478TIP3   OH231992   1.681   2.448   0.575  0.0185  0.5845  0.3239
 3478TIP3    H131993   1.591   2.444   0.543 -0.3319 -2.0128  1.3232
 3478TIP3    H231994   1.735   2.420   0.501  0.1090  2.7247 -0.4596
 3479TIP3   OH231995   2.439   2.982   8.653 -0.2089  0.1430  0.1560
 3479TIP3    H131996   2.389   2.904   8.630 -3.0367  1.5637  1.0903
 3479TIP3    H231997   2.432   2.987   8.749  0.5511  1.1689  0.1741
 3480TIP3   OH231998   0.282   5.382   0.730 -0.3383 -0.2101 -0.0923
 3480TIP3    H131999   0.336   5.304   0.741 -1.0908 -1.0457 -1.9637
 3480TIP3    H232000   0.338   5.453   0.762  0.9661 -1.3138  0.1937
 3481TIP3   OH232001   0.096   3.477   6.731  0.2471 -0.0899 -0.5078
 3481TIP3    H132002   0.005   3.477   6.761 -0.3748 -2.0332 -2.2244
 3481TIP3    H232003   0.140   3.411   6.785 -0.3126 -1.8686 -2.1241
 3482TIP3   OH232004   1.642   1.676   8.030  0.0716 -0.5188  0.4578
 3482TIP3    H132005   1.579   1.612   7.999  0.5839 -1.3239  1.0507
 3482TIP3    H232006   1.690   1.702   7.951  0.8137 -1.9381  0.4062
 3483TIP3   OH232007   6.123   2.354   8.793  0.1233 -0.6865 -0.4700
 3483TIP3    H132008   6.100   2.301   8.870 -0.6501  0.0976 -0.1454
 3483TIP3    H232009   6.164   2.433   8.830  1.0635 -0.9414 -0.9381
 3484TIP3   OH232010   2.887   4.509   8.765 -0.0966  0.2556 -0.8643
 3484TIP3    H132011   2.979   4.537   8.763  0.3968 -1.2625 -1.5237
 3484TIP3    H232012   2.842   4.577   8.815  1.4441  0.8698 -0.2390
 3485TIP3   OH232013   3.946   5.420   0.316 -0.0092 -0.0189 -0.2368
 3485TIP3    H132014   3.938   5.334   0.357  0.2233  0.5121  0.9701
 3485TIP3    H232015   3.980   5.401   0.228 -1.8631 -1.2917 -0.7402
 3486TIP3   OH232016   2.511   5.121   1.223  0.8080 -0.2017 -0.4527
 3486TIP3    H132017   2.485   5.173   1.147  0.8515  0.0767 -0.2770
 3486TIP3    H232018   2.607   5.117   1.217  0.7425 -1.4365 -1.2406
 3487TIP3   OH232019   3.312   4.842   7.739  0.4202 -0.7944 -0.3937
 3487TIP3    H132020   3.246   4.795   7.790  1.1725 -0.1679  1.2538
 3487TIP3    H232021   3.376   4.870   7.804  0.2979  2.0055 -1.3319
 3488TIP3   OH232022   3.975   5.965   6.869 -0.5463  0.2680 -0.0390
 3488TIP3    H132023   3.957   6.027   6.798 -0.4345  2.8028  1.9950
 3488TIP3    H232024   4.060   5.992   6.903 -0.5368 -0.9693  0.9939
 3489TIP3   OH232025   2.603   3.741   2.055  0.8417 -0.3068  0.1912
 3489TIP3    H132026   2.655   3.819   2.038  0.6111 -0.6999 -2.8579
 3489TIP3    H232027   2.668   3.671   2.065  1.0050  0.0297  1.6826
 3490TIP3   OH232028   4.466   1.519   1.659  0.5309 -1.0771  0.1895
 3490TIP3    H132029   4.374   1.495   1.671  0.7608 -1.2562  2.0037
 3490TIP3    H232030   4.479   1.594   1.718  1.3077 -0.4044 -0.8029
 3491TIP3   OH232031   5.675   6.010   0.770 -0.2522 -0.9165  0.2623
 3491TIP3    H132032   5.711   6.013   0.859  1.6661  3.7587 -0.4030
 3491TIP3    H232033   5.586   6.043   0.779  0.1257  0.0776  0.4168
 3492TIP3   OH232034   2.053   5.051   1.005 -0.1652 -0.4170  0.4157
 3492TIP3    H132035   2.097   5.032   0.922 -0.4833  1.8141 -0.3178
 3492TIP3    H232036   1.964   5.074   0.981 -0.0383  1.1204  1.2484
 3493TIP3   OH232037   0.489   1.814   7.078 -0.2742  0.2950  0.1541
 3493TIP3    H132038   0.412   1.870   7.070  0.6364  1.6019  0.2387
 3493TIP3    H232039   0.557   1.859   7.029  0.1491 -1.4513 -0.9711
 3494TIP3   OH232040   6.530   1.513   0.119 -0.1821  0.9291 -0.2359
 3494TIP3    H132041   6.436   1.532   0.114 -0.2995  0.6354  0.8048
 3494TIP3    H232042   6.559   1.551   0.202  0.6358  1.0565 -0.5642
 3495TIP3   OH232043   4.410   4.393   1.020  0.1852  0.1240  0.2030
 3495TIP3    H132044   4.481   4.428   1.074  0.4713  0.0427 -0.1137
 3495TIP3    H232045   4.353   4.469   1.003 -0.5878 -0.1101  1.6510
 3496TIP3   OH232046   3.311   0.997   0.091 -0.4211  0.2502 -0.2556
 3496TIP3    H132047   3.348   0.966   0.009 -0.9701 -1.0618 -0.0292
 3496TIP3    H232048   3.224   0.957   0.096 -0.1682 -0.1960  1.2387
 3497TIP3   OH232049   4.207   3.662   6.700 -0.0914  0.1816  0.1186
 3497TIP3    H132050   4.223   3.633   6.790 -0.9495  0.4582  0.3734
 3497TIP3    H232051   4.278   3.723   6.682  1.0703 -1.1588 -0.0150
 3498TIP3   OH232052   6.310   0.753   0.823 -0.0187  0.3045  0.5047
 3498TIP3    H132053   6.364   0.689   0.870 -0.4485 -0.1249  0.4215
 3498TIP3    H232054   6.368   0.828   0.809  0.5951 -0.2083  0.2831
 3499TIP3   OH232055   3.597   6.141   6.499  0.2050  0.1634 -0.2317
 3499TIP3    H132056   3.615   6.210   6.434  0.3430  1.1995  0.8675
 3499TIP3    H232057   3.509   6.110   6.477 -0.8079  2.2641  0.5597
 3500TIP3   OH232058   1.699   4.280   0.001 -0.0773  0.2003  0.2962
 3500TIP3    H132059   1.617   4.291  -0.048 -0.6431  0.3939  1.2668
 3500TIP3    H232060   1.746   4.362  -0.013  1.2911 -0.9370 -2.6156
 3501TIP3   OH232061   4.731   6.478   8.716  0.0707 -0.5922  0.2270
 3501TIP3    H132062   4.763   6.389   8.701 -1.7958 -1.1592 -0.6896
 3501TIP3    H232063   4.747   6.493   8.809 -0.9739 -2.5052  0.7679
 3502TIP3   OH232064   5.164   5.098   8.525  0.0182  0.2547 -0.5056
 3502TIP3    H132065   5.107   5.040   8.575  0.0787 -1.0851 -1.8994
 3502TIP3    H232066   5.119   5.182   8.524  0.4421  0.6311  2.5003
 3503TIP3   OH232067   2.601   0.828   7.608  0.5617 -0.1794  0.1340
 3503TIP3    H132068   2.647   0.868   7.534 -0.2398 -0.9919 -0.8312
 3503TIP3    H232069   2.671   0.808   7.671  1.4322 -0.6701 -0.9510
 3504TIP3   OH232070   4.126   2.348   8.406  0.2694  0.7043 -0.3351
 3504TIP3    H132071   4.081   2.395   8.335  0.0190  0.1521 -0.5431
 3504TIP3    H232072   4.057   2.297   8.448  0.8006 -0.6757 -1.0701
 3505TIP3   OH232073   6.148   4.287   2.142  0.0364 -0.3908  0.0727
 3505TIP3    H132074   6.071   4.293   2.199  0.3428  1.1804  0.3653
 3505TIP3    H232075   6.217   4.251   2.198 -0.0047 -0.0332  0.3634
 3506TIP3   OH232076   4.390   3.404   1.311  0.1183 -0.0202  0.2901
 3506TIP3    H132077   4.362   3.335   1.251  0.4203 -1.1095  1.3601
 3506TIP3    H232078   4.368   3.485   1.266 -1.7871 -0.7999 -0.2949
 3507TIP3   OH232079   6.059   0.627   0.297  0.3461  0.3145 -0.3492
 3507TIP3    H132080   6.074   0.713   0.257  0.6943 -0.0100 -0.9288
 3507TIP3    H232081   6.129   0.572   0.263 -0.0349 -0.2752 -0.2010
 3508TIP3   OH232082   5.350   3.507   7.342  0.2828 -0.2165 -0.1768
 3508TIP3    H132083   5.306   3.498   7.257 -0.4889 -0.9104  0.2804
 3508TIP3    H232084   5.281   3.495   7.406  1.3047 -2.4135  0.5907
 3509TIP3   OH232085   2.980   6.699   0.171 -0.0714 -0.1229  0.5116
 3509TIP3    H132086   2.963   6.690   0.264 -2.1144 -0.6709  0.1341
 3509TIP3    H232087   2.965   6.792   0.152 -1.5890 -0.3609  0.4220
 3510TIP3   OH232088   2.010   1.436   8.604 -0.0162 -0.2942  0.4722
 3510TIP3    H132089   2.046   1.365   8.550 -0.7798 -0.6291  0.3887
 3510TIP3    H232090   1.922   1.406   8.626 -0.7859  1.1637 -0.5336
 3511TIP3   OH232091   4.087   5.572   8.366  0.0132  0.1869  0.5291
 3511TIP3    H132092   4.122   5.657   8.340  0.5988 -0.0290  0.6042
 3511TIP3    H232093   4.027   5.548   8.295  0.7260  0.1327 -0.0598
 3512TIP3   OH232094   6.653   5.194   0.800 -0.3348 -0.4111 -0.0040
 3512TIP3    H132095   6.681   5.280   0.768  1.1685 -1.5264 -1.9633
 3512TIP3    H232096   6.653   5.202   0.895 -0.5213  1.8194 -0.1432
 3513TIP3   OH232097   1.811   3.581   0.679  0.1734  0.0610 -0.4975
 3513TIP3    H132098   1.875   3.618   0.740  2.4061 -2.7056 -0.9455
 3513TIP3    H232099   1.738   3.554   0.734  0.3911  1.1181  0.3611
 3514TIP3   OH232100   2.110   2.883   7.472  0.3585  0.1352 -0.0298
 3514TIP3    H132101   2.026   2.838   7.473  0.2184  0.2310 -2.2198
 3514TIP3    H232102   2.166   2.828   7.417  0.6535  1.7525 -1.4704
 3515TIP3   OH232103   0.992   1.048   0.050 -0.0130  0.0105 -0.5888
 3515TIP3    H132104   1.078   1.087   0.037  0.2277 -0.4143 -0.3044
 3515TIP3    H232105   0.951   1.051  -0.037 -0.2469  1.4379 -0.4566
 3516TIP3   OH232106   0.175   1.897   8.360 -0.3740 -0.7586  0.3404
 3516TIP3    H132107   0.105   1.878   8.297 -0.8182 -1.6128  1.0678
 3516TIP3    H232108   0.255   1.875   8.313 -0.5119  0.9784 -0.7837
 3517TIP3   OH232109   4.942   6.021   7.297  0.0017 -0.4700 -0.0411
 3517TIP3    H132110   4.993   5.941   7.312  0.5332 -0.1791 -0.2535
 3517TIP3    H232111   4.914   6.015   7.206 -0.2503 -0.5786  0.0441
 3518TIP3   OH232112   1.789   4.209   0.261  0.7049 -0.6297  0.1698
 3518TIP3    H132113   1.799   4.298   0.295  0.5046 -0.1608 -0.9353
 3518TIP3    H232114   1.705   4.211   0.214 -0.0094 -1.8209  1.3492
 3519TIP3   OH232115   1.963   5.640   7.244 -0.2935 -0.4038  0.4434
 3519TIP3    H132116   1.917   5.720   7.217 -0.8830 -1.3439 -1.5499
 3519TIP3    H232117   1.972   5.648   7.339  0.5617  2.4871  0.2132
 3520TIP3   OH232118   3.531   1.264   8.395  0.7520 -0.2569  0.5110
 3520TIP3    H132119   3.619   1.238   8.370  0.2208 -0.3364 -1.4774
 3520TIP3    H232120   3.475   1.234   8.322 -0.6090  1.6426  0.6711
 3521TIP3   OH232121   2.161   0.014   0.172  0.1372 -0.0215  0.2566
 3521TIP3    H132122   2.232   0.030   0.111  0.3645  0.8964  0.7410
 3521TIP3    H232123   2.163   0.090   0.231 -0.4064 -0.6313  1.0720
 3522TIP3   OH232124   1.768   0.654   1.272 -0.0851  0.3862  0.4970
 3522TIP3    H132125   1.740   0.615   1.189  0.5219  0.0356  0.4523
 3522TIP3    H232126   1.751   0.586   1.337 -0.6849  0.7091  0.6877
 3523TIP3   OH232127   2.703   6.764   0.019 -0.1015  0.2230  0.4338
 3523TIP3    H132128   2.788   6.757  -0.025 -0.8090  0.4458 -1.0442
 3523TIP3    H232129   2.642   6.723  -0.042 -1.4477  2.3565  0.2548
 3524TIP3   OH232130   2.184   6.121   1.823 -0.0273  0.4914  0.3098
 3524TIP3    H132131   2.117   6.115   1.755 -0.2893  0.1586  0.5920
 3524TIP3    H232132   2.220   6.210   1.815 -0.4598  0.6482  0.1182
 3525TIP3   OH232133   3.138   0.438   7.824 -0.2955 -0.6321  0.1069
 3525TIP3    H132134   3.119   0.386   7.902  1.0452 -1.5388 -0.1241
 3525TIP3    H232135   3.205   0.388   7.778  0.5178  0.9528 -0.5161
 3526TIP3   OH232136   2.804   5.082   7.684  0.2102  0.1300  0.2225
 3526TIP3    H132137   2.756   4.999   7.692  1.2413 -0.5573 -0.4275
 3526TIP3    H232138   2.762   5.126   7.610  0.3899 -0.3449 -0.1697
 3527TIP3   OH232139   4.908   6.286   8.623  0.6160  0.8774 -0.2706
 3527TIP3    H132140   4.934   6.197   8.647  0.5537  0.8098 -0.4549
 3527TIP3    H232141   4.961   6.342   8.679 -1.7558  0.7053  2.3871
 3528TIP3   OH232142   4.259   6.199   0.715 -0.4169 -0.6179  0.0544
 3528TIP3    H132143   4.253   6.159   0.802  0.1338 -0.6887  0.0661
 3528TIP3    H232144   4.203   6.276   0.720  1.0183  0.4252  1.0679
 3529TIP3   OH232145   1.643   0.539   1.523  0.5678  0.1247 -0.6388
 3529TIP3    H132146   1.696   0.553   1.601  1.6130  0.2225 -1.3425
 3529TIP3    H232147   1.558   0.579   1.543 -0.0755 -2.0266  1.3855
 3530TIP3   OH232148   6.129   1.409   1.583 -0.0335 -0.7548  0.0621
 3530TIP3    H132149   6.115   1.412   1.677 -0.7100 -2.6969  0.0680
 3530TIP3    H232150   6.068   1.473   1.547 -0.2965 -0.5267  0.8974
 3531TIP3   OH232151   6.481   4.239   0.135 -0.2738 -0.2904 -0.2380
 3531TIP3    H132152   6.419   4.243   0.208 -1.4664  1.4235 -1.2489
 3531TIP3    H232153   6.433   4.193   0.066  0.5006 -1.0855 -0.2599
 3532TIP3   OH232154   5.675   3.460   1.597  0.2124 -0.5864  0.2193
 3532TIP3    H132155   5.704   3.460   1.688  0.6440 -0.5404  0.0878
 3532TIP3    H232156   5.710   3.542   1.561  0.0363 -0.5988  0.0153
 3533TIP3   OH232157   3.474   2.372   7.709 -0.2727  0.1738  0.4900
 3533TIP3    H132158   3.501   2.460   7.735 -2.4332  0.9339  0.3640
 3533TIP3    H232159   3.530   2.350   7.635  0.5572  1.2794  0.7711
 3534TIP3   OH232160   2.439   2.037   5.655 -0.6134 -0.4034 -0.2250
 3534TIP3    H132161   2.368   2.100   5.668  0.1193 -0.1626  4.0485
 3534TIP3    H232162   2.518   2.090   5.658 -0.0918 -1.2153  0.7950
 3535TIP3   OH232163   2.650   3.941   8.414  0.6262  0.4255  0.1429
 3535TIP3    H132164   2.620   4.023   8.454  1.7200  1.0538 -0.2566
 3535TIP3    H232165   2.571   3.892   8.396  0.0378  0.6215  2.0238
 3536TIP3   OH232166   4.377   3.888   1.092  0.1943  0.0434  0.4749
 3536TIP3    H132167   4.325   3.967   1.078  0.1810  0.1452  1.0597
 3536TIP3    H232168   4.457   3.903   1.043 -0.1125  0.1078 -0.0107
 3537TIP3   OH232169   5.546   3.530   0.205  0.0915 -0.2144 -0.1249
 3537TIP3    H132170   5.545   3.440   0.171 -0.7211  0.4025 -1.8472
 3537TIP3    H232171   5.639   3.550   0.219  0.2916 -1.2266  0.0663
 3538TIP3   OH232172   2.057   3.715   7.792  0.5611  0.1412 -0.3305
 3538TIP3    H132173   1.998   3.752   7.858  0.2451 -0.8130 -0.0661
 3538TIP3    H232174   2.106   3.648   7.838  3.0713  1.9808 -0.1256
 3539TIP3   OH232175   2.357   0.355   1.760  0.5226  0.4814 -0.3805
 3539TIP3    H132176   2.377   0.285   1.823  1.0520  0.2327 -0.8216
 3539TIP3    H232177   2.286   0.404   1.802  1.3043  0.7253  0.7299
 3540TIP3   OH232178   1.287   1.164   7.196 -0.3189 -0.0952 -0.7681
 3540TIP3    H132179   1.215   1.144   7.136 -0.0963 -2.4320 -0.3801
 3540TIP3    H232180   1.362   1.181   7.138  0.0601 -2.9738 -1.2950
 3541TIP3   OH232181   5.211   2.330   0.911  0.7166  0.1032 -0.2487
 3541TIP3    H132182   5.212   2.259   0.847  0.3068  2.3185 -2.8832
 3541TIP3    H232183   5.303   2.344   0.933  0.7488 -1.7337  0.9801
 3542TIP3   OH232184   0.128   1.180   6.317  0.2478  0.4585 -0.2095
 3542TIP3    H132185   0.175   1.123   6.378  1.4207  0.1016 -1.3975
 3542TIP3    H232186   0.194   1.207   6.254 -0.7972  1.3074 -0.9768
 3543TIP3   OH232187   2.400   1.829   8.607  0.0423 -0.3209 -0.5103
 3543TIP3    H132188   2.389   1.757   8.670 -1.4012 -0.6885 -1.1329
 3543TIP3    H232189   2.360   1.905   8.651  4.1132  0.9752  1.3950
 3544TIP3   OH232190   5.816   2.066   7.834 -0.2498 -0.2982  0.8795
 3544TIP3    H132191   5.850   2.156   7.839  0.4891 -0.4596 -0.8308
 3544TIP3    H232192   5.801   2.042   7.926  1.7099  0.7612  1.5529
 3545TIP3   OH232193   0.097   0.388   8.776  0.9346  0.3758  0.2389
 3545TIP3    H132194   0.081   0.359   8.865  0.9998  0.2146  0.1974
 3545TIP3    H232195   0.159   0.325   8.740  0.3588  0.0326 -0.1532
 3546TIP3   OH232196   5.784   4.091   1.482  0.1529  0.4783 -0.0916
 3546TIP3    H132197   5.845   4.161   1.457  1.9005 -0.1896  2.0016
 3546TIP3    H232198   5.698   4.131   1.474  1.0310  2.5048 -0.1186
 3547TIP3   OH232199   2.664   6.678   1.406  0.0050 -0.4980 -0.3811
 3547TIP3    H132200   2.601   6.738   1.366 -1.2745 -0.6376  1.3405
 3547TIP3    H232201   2.729   6.736   1.447 -0.1711 -0.3125 -0.3622
 3548TIP3   OH232202   6.470   1.299   7.167 -0.6154  0.6855 -0.4514
 3548TIP3    H132203   6.416   1.328   7.241 -0.8105 -0.0494 -0.2998
 3548TIP3    H232204   6.499   1.212   7.191  0.1547  0.8403 -0.8045
 3549TIP3   OH232205   4.145   3.318   0.875 -0.2204  0.0741 -0.3271
 3549TIP3    H132206   4.229   3.280   0.853 -0.1892 -0.5791  0.8246
 3549TIP3    H232207   4.092   3.309   0.796  0.4065 -0.5868 -0.6802
 3550TIP3   OH232208   5.075   4.864   8.669  0.6351 -0.3960  0.3197
 3550TIP3    H132209   5.082   4.779   8.625  2.1212 -0.2900  0.3001
 3550TIP3    H232210   5.166   4.892   8.681  0.2542 -0.0027  2.6816
 3551TIP3   OH232211   2.363   5.517   0.739  0.0873 -0.0170 -0.3076
 3551TIP3    H132212   2.410   5.435   0.752  1.3906  0.7979  0.2507
 3551TIP3    H232213   2.430   5.579   0.712 -0.7211  1.1099  0.2171
 3552TIP3   OH232214   3.409   1.624   2.028  0.0341 -0.7173 -0.5782
 3552TIP3    H132215   3.488   1.667   1.995 -0.4655  0.6211 -0.1131
 3552TIP3    H232216   3.433   1.594   2.116 -0.1255  0.2396 -0.1886
 3553TIP3   OH232217   4.478   0.713   6.695  0.4167  0.0105  0.0678
 3553TIP3    H132218   4.559   0.713   6.645  0.2933 -0.4673 -0.1393
 3553TIP3    H232219   4.442   0.625   6.682 -0.2361  0.2860 -0.0098
 3554TIP3   OH232220   6.031   1.240   7.064 -0.2103 -0.2628 -0.1155
 3554TIP3    H132221   6.004   1.228   7.155 -3.5217  0.6855 -0.8310
 3554TIP3    H232222   6.063   1.330   7.061 -0.8457 -0.0246 -0.0025
 3555TIP3   OH232223   4.024   1.247   8.113  0.5707 -0.6298 -0.3435
 3555TIP3    H132224   4.020   1.288   8.027 -0.6254  1.3444  0.5858
 3555TIP3    H232225   4.006   1.154   8.096  2.5111 -0.7151 -2.4131
 3556TIP3   OH232226   3.013   2.669   0.239  0.6664 -0.7240  0.0713
 3556TIP3    H132227   2.989   2.722   0.163  1.1248 -2.8458 -1.6662
 3556TIP3    H232228   3.086   2.716   0.279  0.4036  0.4652 -0.7966
 3557TIP3   OH232229   2.031   6.265   1.440  0.4875  0.6070  0.0354
 3557TIP3    H132230   1.999   6.335   1.383 -0.5804  1.3599  1.4839
 3557TIP3    H232231   2.013   6.297   1.528  1.1057 -0.9805  0.7629
 3558TIP3   OH232232   3.124   6.535   1.868  0.0730 -0.1890  0.1439
 3558TIP3    H132233   3.195   6.581   1.822 -0.8477  0.2435 -0.8963
 3558TIP3    H232234   3.069   6.499   1.798 -0.3715 -1.1068  0.9358
 3559TIP3   OH232235   6.684   4.579   7.730  0.1757 -0.3948 -0.5142
 3559TIP3    H132236   6.757   4.639   7.742  0.8477 -1.2948  0.1197
 3559TIP3    H232237   6.618   4.629   7.682  1.3983  0.2837 -1.5370
 3560TIP3   OH232238   3.321   1.202   7.276 -0.2243  0.1104 -0.4003
 3560TIP3    H132239   3.345   1.202   7.183 -0.0448  0.2601 -0.3538
 3560TIP3    H232240   3.229   1.174   7.277 -0.0056 -0.6300 -0.5694
 3561TIP3   OH232241   1.553   1.036   8.024 -0.2841 -0.3655 -0.3178
 3561TIP3    H132242   1.534   1.119   7.980  1.9010 -0.9551 -2.5722
 3561TIP3    H232243   1.467   1.000   8.046 -1.3579  1.3329 -1.5500
 3562TIP3   OH232244   4.679   3.310   0.573 -0.3772 -0.5404  0.2294
 3562TIP3    H132245   4.696   3.328   0.480  1.2804  0.2001  0.6386
 3562TIP3    H232246   4.621   3.234   0.572  0.1542 -0.9752 -1.4077
 3563TIP3   OH232247   4.988   0.287   7.753 -0.5696 -0.5014  0.0625
 3563TIP3    H132248   4.968   0.283   7.846 -3.1270  0.7514 -0.3450
 3563TIP3    H232249   4.972   0.198   7.721  0.0032 -0.8543  0.7327
 3564TIP3   OH232250   1.773   4.806   8.834 -0.2204  0.2595  0.1170
 3564TIP3    H132251   1.825   4.831   8.910  0.0224  1.0851 -0.3150
 3564TIP3    H232252   1.688   4.849   8.847 -0.3983 -0.1212  0.2334
 3565TIP3   OH232253   3.757   0.295   6.504 -0.4288 -0.3039  0.0273
 3565TIP3    H132254   3.693   0.332   6.565  0.6999 -0.8673  1.6343
 3565TIP3    H232255   3.704   0.254   6.435 -1.7366  1.0983  0.1490
 3566TIP3   OH232256   5.150   0.174   0.258 -0.2216 -0.2794  0.1073
 3566TIP3    H132257   5.125   0.126   0.179  0.2661  3.0257 -2.2956
 3566TIP3    H232258   5.069   0.180   0.308 -0.0307 -4.4848  1.2466
 3567TIP3   OH232259   6.365   5.245   8.395 -0.0559 -0.4849 -0.0323
 3567TIP3    H132260   6.374   5.157   8.433  3.4428 -0.1356  0.2985
 3567TIP3    H232261   6.307   5.291   8.456 -0.1309 -1.9405  1.0550
 3568TIP3   OH232262   0.182   2.870   6.559  0.5101  0.2860 -0.4100
 3568TIP3    H132263   0.213   2.920   6.483  2.0440 -1.0321 -0.7130
 3568TIP3    H232264   0.230   2.908   6.633 -0.2984  0.9625 -0.2163
 3569TIP3   OH232265   1.369   2.765   7.667 -0.0941  0.2923  0.2286
 3569TIP3    H132266   1.338   2.702   7.602  1.1552 -0.3999  0.2780
 3569TIP3    H232267   1.292   2.783   7.722 -0.1793 -2.2252  1.0416
 3570TIP3   OH232268   3.186   2.948   0.468  0.2388  0.2501  0.2796
 3570TIP3    H132269   3.106   2.902   0.494 -1.0051  1.2352 -1.5573
 3570TIP3    H232270   3.230   2.888   0.408 -0.9085  0.9784 -1.3760
 3571TIP3   OH232271   1.867   1.864   7.280 -0.4230  0.3006 -0.0522
 3571TIP3    H132272   1.923   1.890   7.353 -0.1594  0.7988 -0.4266
 3571TIP3    H232273   1.813   1.942   7.262 -0.9392 -0.0305  0.0283
 3572TIP3   OH232274   6.617   2.353   7.409 -0.7895 -0.0444  0.5552
 3572TIP3    H132275   6.642   2.261   7.411 -1.1303 -0.1929 -1.0196
 3572TIP3    H232276   6.522   2.353   7.402 -0.6812  0.3417 -1.6713
 3573TIP3   OH232277   2.205   6.380   1.820  0.1369  0.3018 -0.3928
 3573TIP3    H132278   2.298   6.399   1.807  0.1647 -0.4319 -1.4079
 3573TIP3    H232279   2.181   6.431   1.897  2.0746 -1.6934  1.7012
 3574TIP3   OH232280   2.257   3.492   0.155  0.0720  0.1760  0.4747
 3574TIP3    H132281   2.328   3.505   0.218 -0.4355 -0.1248  1.1240
 3574TIP3    H232282   2.177   3.502   0.206 -0.3525 -0.2716 -0.0767
 3575TIP3   OH232283   2.285   4.679   1.724  0.4687  0.2631 -0.0405
 3575TIP3    H132284   2.253   4.590   1.707  0.8840 -0.0282  0.6387
 3575TIP3    H232285   2.327   4.673   1.810  1.6066  0.8188 -0.5376
 3576TIP3   OH232286   6.079   2.280   0.838  0.3117  0.0285  0.7073
 3576TIP3    H132287   6.053   2.188   0.839  0.8259 -0.1222  0.5543
 3576TIP3    H232288   6.041   2.316   0.919  2.2458 -0.9370  2.1313
 3577TIP3   OH232289   0.825   2.964   8.796  0.6283  0.2593 -0.2183
 3577TIP3    H132290   0.791   3.023   8.864  0.6654  2.2600 -1.8512
 3577TIP3    H232291   0.878   2.901   8.845  1.8459  2.4594  1.5612
 3578TIP3   OH232292   2.701   5.991   1.123  0.0341  0.1459 -0.2846
 3578TIP3    H132293   2.672   6.080   1.137  0.4285  0.3090 -0.4705
 3578TIP3    H232294   2.634   5.936   1.162 -0.7229  0.4970 -1.0632
 3579TIP3   OH232295   6.553   6.276   1.355 -0.3888  0.0213 -0.7171
 3579TIP3    H132296   6.460   6.287   1.334 -0.9101  1.3449  1.8963
 3579TIP3    H232297   6.554   6.233   1.441  1.5229 -2.2382 -1.7234
 3580TIP3   OH232298   3.607   2.026   8.074  0.6593  0.2416 -0.0436
 3580TIP3    H132299   3.589   1.997   7.984 -0.2965  1.1015 -0.1540
 3580TIP3    H232300   3.638   2.116   8.063  0.0147  0.5401  0.5095
 3581TIP3   OH232301   2.671   2.362   7.610 -0.6130 -0.1008 -0.2496
 3581TIP3    H132302   2.680   2.452   7.580 -0.5979 -0.2729 -0.7767
 3581TIP3    H232303   2.655   2.369   7.704  1.9999  0.3530  0.2479
 3582TIP3   OH232304   6.579   6.347   6.383  0.4926 -0.4760  0.6485
 3582TIP3    H132305   6.636   6.348   6.306 -0.9609 -1.3943 -0.5101
 3582TIP3    H232306   6.509   6.408   6.362  0.3468 -0.3532  1.4646
 3583TIP3   OH232307   5.897   3.291   7.448 -0.2237  0.5801  0.0783
 3583TIP3    H132308   5.918   3.339   7.368  0.6369  0.5633  0.2896
 3583TIP3    H232309   5.981   3.278   7.491 -0.5962 -0.0457  0.6306
 3584TIP3   OH232310   3.958   0.678   7.698 -0.3316 -0.9452  0.4075
 3584TIP3    H132311   4.041   0.632   7.713  0.3466  0.1522  0.1186
 3584TIP3    H232312   3.963   0.708   7.607 -0.3396  0.4870  0.8508
 3585TIP3   OH232313   3.982   5.729   0.763 -0.0376 -1.0469  0.0949
 3585TIP3    H132314   3.956   5.658   0.705 -1.2914 -1.0312  0.6009
 3585TIP3    H232315   3.950   5.702   0.849 -0.6082  0.1514  0.2815
 3586TIP3   OH232316   4.590   3.829   0.577 -0.0609  1.1106 -0.1070
 3586TIP3    H132317   4.577   3.890   0.504 -0.1991  2.8783  1.3214
 3586TIP3    H232318   4.586   3.743   0.537 -0.1324  2.0161 -2.1867
 3587TIP3   OH232319   5.534   5.698   8.222  0.6734  0.3738  0.1712
 3587TIP3    H132320   5.599   5.708   8.292  1.0725  0.6646 -0.2393
 3587TIP3    H232321   5.571   5.631   8.164  0.9493  1.0682 -0.4575
 3588TIP3   OH232322   4.537   3.516   0.741  0.0258  0.3678  0.1442
 3588TIP3    H132323   4.571   3.519   0.831  2.1957 -1.2529 -0.5238
 3588TIP3    H232324   4.600   3.462   0.694 -2.3984 -0.9881 -1.7976
 3589TIP3   OH232325   6.205   1.660   7.243 -0.0117 -0.0794  0.4410
 3589TIP3    H132326   6.172   1.736   7.196  0.4794 -0.4359 -0.4966
 3589TIP3    H232327   6.131   1.629   7.295 -0.2314  1.0046  0.8075
 3590TIP3   OH232328   0.404   5.449   7.008  0.3761 -0.4547  0.2560
 3590TIP3    H132329   0.443   5.533   7.031  1.0050 -0.9611  1.0899
 3590TIP3    H232330   0.341   5.470   6.939 -0.4383  0.8982  1.3512
 3591TIP3   OH232331   5.177   2.983   6.779  0.2083  0.2714 -0.0076
 3591TIP3    H132332   5.217   3.070   6.781 -1.0740  0.8600  0.8279
 3591TIP3    H232333   5.250   2.923   6.794  0.9730  1.2455  0.2899
 3592TIP3   OH232334   5.629   1.505   7.382 -0.1027 -0.1021  0.3861
 3592TIP3    H132335   5.575   1.558   7.440  0.4037 -0.1733  0.9289
 3592TIP3    H232336   5.700   1.562   7.355  0.4504 -0.4911  0.9810
 3593TIP3   OH232337   2.817   3.495   0.695  0.0056 -0.2527 -0.0544
 3593TIP3    H132338   2.911   3.514   0.700  0.0367 -0.2317 -0.6354
 3593TIP3    H232339   2.793   3.469   0.784  0.5945 -0.4034  0.0648
 3594TIP3   OH232340   3.023   0.112   8.204 -0.2453  0.7611 -0.1795
 3594TIP3    H132341   3.051   0.112   8.296 -3.5284  2.9947  1.0292
 3594TIP3    H232342   2.954   0.045   8.200  1.5360 -1.0952 -1.7520
 3595TIP3   OH232343   4.092   3.026   0.067  0.4307  0.1089  0.3307
 3595TIP3    H132344   4.028   2.957   0.049 -1.5878  1.8325  0.4529
 3595TIP3    H232345   4.156   3.018  -0.003  0.3257 -1.9107  0.3931
 3596TIP3   OH232346   5.325   5.579   1.105 -0.2358  0.4441  0.0604
 3596TIP3    H132347   5.286   5.631   1.175  0.6219  2.9625 -1.2353
 3596TIP3    H232348   5.266   5.589   1.031 -1.7937 -3.1917  0.5945
 3597TIP3   OH232349   6.386   6.005   7.098  0.0201  0.3472  0.0477
 3597TIP3    H132350   6.335   6.081   7.071 -1.2719 -0.3051  0.5673
 3597TIP3    H232351   6.321   5.935   7.108  0.9445 -0.3735  1.2565
 3598TIP3   OH232352   6.356   1.396   7.420 -0.0152  0.0304 -0.2046
 3598TIP3    H132353   6.273   1.401   7.467  0.1620 -1.3473  0.3162
 3598TIP3    H232354   6.393   1.312   7.447  1.8717  0.9215  0.1042
 3599TIP3   OH232355   3.844   5.733   1.573  0.5699  0.4637  0.1494
 3599TIP3    H132356   3.787   5.763   1.644  0.4070  1.7079 -0.4805
 3599TIP3    H232357   3.795   5.662   1.531 -0.5063  1.4408 -0.3176
 3600TIP3   OH232358   4.553   1.014   8.103  0.0703  0.4743  0.0121
 3600TIP3    H132359   4.613   1.063   8.047 -1.4381  1.7614 -0.5551
 3600TIP3    H232360   4.599   1.008   8.187  1.6069  0.0796 -0.8257
 3601TIP3   OH232361   5.278   5.353   8.815  0.0989  0.1627 -0.4732
 3601TIP3    H132362   5.300   5.367   8.723 -1.0157  0.8888 -0.6489
 3601TIP3    H232363   5.309   5.265   8.834 -0.9839 -0.5825 -1.9594
 3602TIP3   OH232364   0.715   0.555   0.017 -0.4995 -0.0404  0.4277
 3602TIP3    H132365   0.798   0.560  -0.031  0.1308 -1.3172  1.3396
 3602TIP3    H232366   0.702   0.643   0.052 -1.0355  0.9770 -2.1203
 3603TIP3   OH232367   4.765   0.388   7.553  0.8660  0.7256  0.1131
 3603TIP3    H132368   4.780   0.461   7.492  2.9746  0.6907  0.5280
 3603TIP3    H232369   4.852   0.351   7.568  0.2788  0.1712  2.4756
 3604TIP3   OH232370   2.749   0.320   1.954 -0.1975  0.1344 -0.4024
 3604TIP3    H132371   2.680   0.266   1.993  0.5061  0.5860  1.5849
 3604TIP3    H232372   2.707   0.405   1.940 -0.2781  0.1682  0.0305
 3605TIP3   OH232373   6.135   0.458   0.870  0.0732 -0.2093  0.0208
 3605TIP3    H132374   6.150   0.375   0.825 -0.6101 -0.5924  0.4833
 3605TIP3    H232375   6.041   0.475   0.859  0.1971  0.4720 -0.0201
 3606TIP3   OH232376   1.853   3.118   7.994  0.6194  0.8176 -0.5869
 3606TIP3    H132377   1.798   3.111   8.072  0.7002  1.9197 -0.4143
 3606TIP3    H232378   1.914   3.044   8.001 -1.0741 -0.7020 -1.0118
 3607TIP3   OH232379   3.666   3.678   7.809  0.4828 -0.1548 -0.1621
 3607TIP3    H132380   3.742   3.638   7.851  1.1921  1.2475 -0.0711
 3607TIP3    H232381   3.602   3.689   7.879  0.4946 -0.5709 -0.0802
 3608TIP3   OH232382   4.726   1.507   0.031  0.0395  0.1319  0.0096
 3608TIP3    H132383   4.674   1.445   0.081 -1.4012  1.4008  0.1534
 3608TIP3    H232384   4.805   1.521   0.084  0.9490 -2.3326 -0.5400
 3609TIP3   OH232385   6.719   2.867   0.290 -0.4631 -0.4706 -0.4747
 3609TIP3    H132386   6.797   2.909   0.254 -0.6467 -1.3115 -1.9300
 3609TIP3    H232387   6.689   2.927   0.359 -0.7971  1.8982 -2.5182
 3610TIP3   OH232388   1.310   0.544   8.724 -0.1557  0.4320 -0.0614
 3610TIP3    H132389   1.259   0.464   8.738  2.0721 -1.2275 -0.6948
 3610TIP3    H232390   1.360   0.555   8.804 -1.1838  1.8229  0.4143
 3611TIP3   OH232391   6.001   3.054   1.549 -0.0928  0.0601 -0.2703
 3611TIP3    H132392   6.034   2.982   1.605 -1.4770  0.2816  0.8807
 3611TIP3    H232393   6.044   3.132   1.583  0.4854 -0.0484 -0.7375
 3612TIP3   OH232394   0.162   4.117   1.503  0.5887  0.1144 -0.5167
 3612TIP3    H132395   0.209   4.066   1.437 -0.8946 -0.5328 -1.1154
 3612TIP3    H232396   0.082   4.146   1.459  0.2924  0.9943  0.5379
 3613TIP3   OH232397   2.603   2.770   6.555  0.2055 -0.0848 -0.0076
 3613TIP3    H132398   2.547   2.694   6.544 -0.0771 -0.1651  1.7680
 3613TIP3    H232399   2.549   2.844   6.529 -1.0161 -0.0878  2.3320
 3614TIP3   OH232400   1.490   3.884   0.241  0.1230  0.0561 -0.0535
 3614TIP3    H132401   1.403   3.847   0.255  0.7200 -0.9839  1.0527
 3614TIP3    H232402   1.548   3.830   0.294  1.1607  2.0485  0.9482
 3615TIP3   OH232403   3.158   4.738   0.173 -0.3490  0.0177  0.0369
 3615TIP3    H132404   3.206   4.810   0.132 -0.4531 -0.2708 -0.6019
 3615TIP3    H232405   3.224   4.670   0.186 -0.3712  0.0079  0.0972
 3616TIP3   OH232406   1.904   3.433   0.455 -0.5179  0.5554 -0.5929
 3616TIP3    H132407   1.955   3.367   0.502 -0.8209  0.4067 -0.4693
 3616TIP3    H232408   1.851   3.476   0.522 -1.3932 -0.0574 -0.8625
 3617TIP3   OH232409   3.456   4.229   0.389 -0.6058 -0.4795  0.2509
 3617TIP3    H132410   3.380   4.288   0.386 -0.8490 -0.8190 -0.4305
 3617TIP3    H232411   3.424   4.150   0.432 -1.6862 -2.0367 -3.0735
 3618TIP3   OH232412   0.927   0.620   6.486  0.1693 -0.1228  0.6928
 3618TIP3    H132413   0.907   0.656   6.399 -0.6255 -2.4506 -0.1654
 3618TIP3    H232414   1.023   0.616   6.489  0.2175  0.4995  0.1595
 3619TIP3   OH232415   6.140   5.937   0.058  0.3080 -0.4020 -0.5010
 3619TIP3    H132416   6.129   5.940   0.153  0.5784 -1.9139 -0.4063
 3619TIP3    H232417   6.056   5.964   0.023  0.0193 -0.4127  0.1707
 3620TIP3   OH232418   6.255   3.304   8.017  0.1200  0.1510 -1.2847
 3620TIP3    H132419   6.186   3.357   7.978 -0.8290  0.4855  0.7375
 3620TIP3    H232420   6.292   3.359   8.085  1.6443 -0.4572 -1.5790
 3621TIP3   OH232421   3.103   6.447   0.801 -0.1949 -0.5500 -0.2776
 3621TIP3    H132422   3.155   6.429   0.879 -0.0428 -0.9182 -0.4618
 3621TIP3    H232423   3.154   6.511   0.751 -0.2327 -0.4107 -0.1388
 3622TIP3   OH232424   5.553   0.878   6.696  0.9369 -0.0084  0.0797
 3622TIP3    H132425   5.474   0.867   6.643  0.6655 -1.6969  0.7857
 3622TIP3    H232426   5.522   0.905   6.782  1.3462  2.1582 -0.3902
 3623TIP3   OH232427   2.820   2.446   8.079 -0.2280 -0.1421  0.3647
 3623TIP3    H132428   2.883   2.389   8.123  0.3320  0.0629 -0.1597
 3623TIP3    H232429   2.748   2.455   8.142  0.3561 -0.2099  1.0603
 3624TIP3   OH232430   0.967   5.818   1.629  0.2666  0.2645  0.4100
 3624TIP3    H132431   1.045   5.841   1.578  2.1044 -0.6389  2.6535
 3624TIP3    H232432   0.971   5.723   1.640 -0.6172  0.3160  1.4062
 3625TIP3   OH232433   4.614   2.324   7.726 -0.0567 -0.2007 -0.1664
 3625TIP3    H132434   4.688   2.299   7.781 -0.7893 -0.2541  0.8018
 3625TIP3    H232435   4.586   2.409   7.760 -1.0782 -0.6476  0.1281
 3626TIP3   OH232436   2.620   6.427   0.318  0.2293  0.3690  0.1085
 3626TIP3    H132437   2.713   6.411   0.307  0.9928  3.4433  1.1628
 3626TIP3    H232438   2.604   6.416   0.411 -0.8881 -1.7174 -0.2717
 3627TIP3   OH232439   1.193   5.173   6.737  0.2681 -0.5767 -0.2742
 3627TIP3    H132440   1.208   5.200   6.646  0.9282 -0.0303 -0.0105
 3627TIP3    H232441   1.263   5.111   6.755  0.3598 -0.3986 -0.0196
 3628TIP3   OH232442   0.676   6.019   0.905  0.1287 -0.3367 -0.4199
 3628TIP3    H132443   0.714   5.981   0.826  0.5937  0.7847 -0.7697
 3628TIP3    H232444   0.586   6.040   0.881  0.2587 -0.0304 -0.6469
 3629TIP3   OH232445   4.797   3.356   8.321  0.2310  0.1738 -0.1702
 3629TIP3    H132446   4.792   3.403   8.404 -0.1170 -0.9756  0.4924
 3629TIP3    H232447   4.710   3.318   8.310  1.2199 -2.6193  0.7601
 3630TIP3   OH232448   4.080   0.057   8.317 -0.0034  0.2126 -0.2727
 3630TIP3    H132449   4.028   0.046   8.396  0.6982 -0.9404  0.0494
 3630TIP3    H232450   4.112   0.147   8.321 -0.9939  0.5623  0.1077
 3631TIP3   OH232451   1.688   0.641   7.837 -0.4204 -0.0122  0.1642
 3631TIP3    H132452   1.766   0.642   7.892 -0.8996  0.0079  0.8512
 3631TIP3    H232453   1.616   0.630   7.898 -0.9055 -0.8110 -0.5242
 3632TIP3   OH232454   4.169   5.878   7.208 -0.1301  0.4224  0.6699
 3632TIP3    H132455   4.114   5.936   7.262  1.0768  0.0352  2.3787
 3632TIP3    H232456   4.251   5.870   7.256  0.3799 -1.3342 -0.3989
 3633TIP3   OH232457   0.286   1.526   6.565 -0.0768 -0.1578 -0.1749
 3633TIP3    H132458   0.195   1.506   6.545 -0.4918  0.8297  0.6317
 3633TIP3    H232459   0.287   1.538   6.660  1.1254 -1.2482 -0.0227
 3634TIP3   OH232460   0.873   2.925   7.304  0.1448 -0.6246  0.0379
 3634TIP3    H132461   0.938   2.881   7.248  0.2734  2.5122 -2.6061
 3634TIP3    H232462   0.910   2.919   7.392  2.1825 -2.1000 -0.8270
 3635TIP3   OH232463   5.936   5.536   0.538  0.4552 -0.3211 -0.4865
 3635TIP3    H132464   6.030   5.555   0.529  0.6416  1.3112  3.1066
 3635TIP3    H232465   5.896   5.579   0.462  2.3179  2.7062  0.0392
 3636TIP3   OH232466   6.303   1.283   8.566 -0.1356  0.8747  0.1882
 3636TIP3    H132467   6.271   1.242   8.486 -0.1879  0.4545  0.4237
 3636TIP3    H232468   6.295   1.215   8.633 -0.2264  1.2702  0.5829
 3637TIP3   OH232469   0.095   3.005   1.084 -0.1786  0.1730  0.3177
 3637TIP3    H132470   0.077   3.063   1.158 -1.7925 -0.5938  0.5837
 3637TIP3    H232471   0.061   2.920   1.111 -2.0169  0.1529 -1.7471
 3638TIP3   OH232472   5.958   1.862   1.231  0.0767  0.0892 -0.8241
 3638TIP3    H132473   6.048   1.864   1.263 -0.3028 -3.2861  0.8838
 3638TIP3    H232474   5.912   1.925   1.287  1.2060  1.5614 -1.4562
 3639TIP3   OH232475   1.308   6.148   8.467 -0.1254 -0.1145 -0.1609
 3639TIP3    H132476   1.235   6.095   8.435  0.2120 -0.7999  0.1789
 3639TIP3    H232477   1.343   6.191   8.389  0.1971 -1.1477 -0.6018
 3640TIP3   OH232478   5.297   5.239   1.979 -0.0934 -0.0657  0.3310
 3640TIP3    H132479   5.244   5.224   2.057 -1.3775  1.5894 -0.1564
 3640TIP3    H232480   5.351   5.315   2.002  1.4572 -1.1774  0.4968
 3641TIP3   OH232481   2.363   4.648   8.123  0.0729 -0.3727  0.4246
 3641TIP3    H132482   2.284   4.697   8.145 -0.1514  0.1354 -1.3456
 3641TIP3    H232483   2.339   4.556   8.138 -1.2876 -0.3308 -1.1810
 3642TIP3   OH232484   4.525   6.512   6.931 -0.4740  0.0299 -0.1162
 3642TIP3    H132485   4.540   6.417   6.927 -0.3691  0.0793 -1.1093
 3642TIP3    H232486   4.456   6.528   6.868  1.8922  1.0420 -2.6637
 3643TIP3   OH232487   5.096   1.464   1.657  0.2865 -0.1532  0.0405
 3643TIP3    H132488   5.181   1.491   1.624  0.1197 -0.2286 -0.4520
 3643TIP3    H232489   5.055   1.546   1.688  0.6859 -0.1698  0.6405
 3644TIP3   OH232490   0.375   3.800   0.075 -0.4087  0.1975 -0.0152
 3644TIP3    H132491   0.332   3.880   0.105  1.0259  1.8081 -2.0007
 3644TIP3    H232492   0.382   3.810  -0.020  0.1413 -2.1423 -0.2900
 3645TIP3   OH232493   2.619   1.508   1.935 -0.0354 -0.1894 -0.3954
 3645TIP3    H132494   2.715   1.509   1.933  0.0608 -2.6995 -0.7480
 3645TIP3    H232495   2.597   1.488   2.026 -0.2621  0.6631 -0.2536
 3646TIP3   OH232496   6.447   1.754   7.138 -0.1987  0.1694 -0.2993
 3646TIP3    H132497   6.368   1.726   7.184 -2.1441  1.9307 -2.2712
 3646TIP3    H232498   6.440   1.714   7.051  0.7398  0.8531 -0.7098
 3647TIP3   OH232499   3.467   2.223   8.507 -0.1377  0.0568  0.6764
 3647TIP3    H132500   3.444   2.316   8.504 -1.5319 -0.2740  0.3420
 3647TIP3    H232501   3.442   2.190   8.420  1.6444 -0.3606  0.2905
 3648TIP3   OH232502   4.433   1.074   0.188 -0.3569 -0.6674  0.5655
 3648TIP3    H132503   4.440   0.987   0.227 -0.6813 -0.5230  0.9580
 3648TIP3    H232504   4.423   1.133   0.263  2.3033  0.0120  0.5004
 3649TIP3   OH232505   1.434   3.559   0.539  0.0163  0.5301  0.2944
 3649TIP3    H132506   1.339   3.559   0.532  0.0737  3.0101 -2.9912
 3649TIP3    H232507   1.464   3.503   0.467  1.0395  0.2878  0.8920
 3650TIP3   OH232508   3.375   1.370   1.031  0.0873  0.4967  0.0317
 3650TIP3    H132509   3.280   1.381   1.031 -0.1048 -1.0326 -0.4087
 3650TIP3    H232510   3.404   1.416   1.110 -1.2691 -0.9448  1.4394
 3651TIP3   OH232511   4.184   6.683   8.709  0.0931 -0.0555  0.6277
 3651TIP3    H132512   4.124   6.747   8.670  0.7118  0.7586  0.9906
 3651TIP3    H232513   4.270   6.726   8.707  0.1134  0.1309  3.0914
 3652TIP3   OH232514   2.782   1.628   7.307  0.3453 -0.0251  0.5605
 3652TIP3    H132515   2.726   1.694   7.267 -0.5624  0.0858  1.9378
 3652TIP3    H232516   2.796   1.660   7.397 -0.5127 -1.8892  1.4243
 3653TIP3   OH232517   4.571   3.970   0.094  0.3168  0.1579 -0.4825
 3653TIP3    H132518   4.603   4.060   0.100  1.0840 -0.1910  1.7020
 3653TIP3    H232519   4.618   3.932   0.020  2.1455  0.7840  0.2902
 3654TIP3   OH232520   6.031   3.078   0.189 -0.1181 -0.4532 -0.3331
 3654TIP3    H132521   5.985   3.113   0.265 -1.8989 -1.6121 -0.8176
 3654TIP3    H232522   6.093   3.147   0.165 -1.5236  1.1552  0.4197
 3655TIP3   OH232523   4.520   2.670   7.063  0.0954 -0.1261  0.4578
 3655TIP3    H132524   4.600   2.721   7.055  1.0978 -1.4842  1.3400
 3655TIP3    H232525   4.476   2.706   7.140  1.6764 -1.6213  2.1763
 3656TIP3   OH232526   0.468   1.304   2.263 -0.2395  0.1647  0.3466
 3656TIP3    H132527   0.373   1.302   2.262 -0.2361 -0.6373 -1.0543
 3656TIP3    H232528   0.494   1.212   2.254  0.6835  0.2567  1.7455
 3657TIP3   OH232529   4.020   0.799   8.659  0.3673  0.2424  0.0005
 3657TIP3    H132530   4.079   0.750   8.717 -0.1840 -0.3791  0.0437
 3657TIP3    H232531   4.076   0.865   8.619  0.9822  0.0026  0.4435
 3658TIP3   OH232532   3.250   6.535   7.284 -0.1386 -0.5743  0.0672
 3658TIP3    H132533   3.223   6.469   7.348 -0.5122 -0.2652  0.2275
 3658TIP3    H232534   3.255   6.617   7.334  1.5018 -0.6902  0.1395
 3659TIP3   OH232535   0.887   1.734   8.059 -0.2137 -0.6857  0.0519
 3659TIP3    H132536   0.915   1.668   7.995 -2.1083  0.0968 -1.6792
 3659TIP3    H232537   0.793   1.719   8.069 -0.4345  0.9147  0.6166
 3660TIP3   OH232538   5.233   2.698   7.890 -0.4961  0.0974  0.4370
 3660TIP3    H132539   5.293   2.686   7.964 -0.7026 -2.1538  0.3088
 3660TIP3    H232540   5.269   2.642   7.821 -0.3743  2.0443 -1.1981
 3661TIP3   OH232541   2.166   3.036   0.421  0.4815 -0.0896  0.2762
 3661TIP3    H132542   2.240   3.014   0.477 -0.4236  0.8151  1.8714
 3661TIP3    H232543   2.101   3.074   0.479 -1.1431 -0.5590 -1.1293
 3662TIP3   OH232544   4.766   5.463   7.996 -0.0584 -0.4523  0.3642
 3662TIP3    H132545   4.805   5.538   7.951  0.3660 -1.2287 -0.5929
 3662TIP3    H232546   4.840   5.405   8.016 -0.1006  0.2432  2.8766
 3663TIP3   OH232547   0.417   0.707   1.873 -0.1088  0.8274 -0.3095
 3663TIP3    H132548   0.343   0.752   1.914  0.0136  0.2824  0.5168
 3663TIP3    H232549   0.492   0.729   1.928  0.4924  1.8978 -1.4964
 3664TIP3   OH232550   1.372   2.347   7.135 -0.5926 -0.2963 -0.3372
 3664TIP3    H132551   1.338   2.282   7.073  0.6400 -2.0430  0.7163
 3664TIP3    H232552   1.396   2.422   7.080 -2.3385 -0.5790 -1.5608
 3665TIP3   OH232553   2.445   2.241   0.151 -0.0769 -0.4397  0.5511
 3665TIP3    H132554   2.419   2.303   0.220 -1.7486 -0.5746  0.0816
 3665TIP3    H232555   2.388   2.165   0.164 -0.6679 -0.3319 -1.1643
 3666TIP3   OH232556   3.421   3.099   8.731  0.2770 -0.3619  0.4757
 3666TIP3    H132557   3.328   3.080   8.735  0.2468 -0.0561  1.3868
 3666TIP3    H232558   3.431   3.183   8.776  1.1727 -1.1213  1.7626
 3667TIP3   OH232559   5.674   6.689   6.560  0.1196  0.0767  0.9956
 3667TIP3    H132560   5.649   6.755   6.624 -0.2495 -0.6662  1.6324
 3667TIP3    H232561   5.734   6.734   6.500 -0.1629  0.9871  1.3962
 3668TIP3   OH232562   1.008   2.527   8.758 -0.0993  0.0143 -0.5039
 3668TIP3    H132563   1.092   2.485   8.775 -0.0315 -0.2961 -1.5117
 3668TIP3    H232564   0.961   2.521   8.841 -0.8505 -3.7988 -1.0027
 3669TIP3   OH232565   3.026   4.316   8.509  0.1530  0.1023 -0.0989
 3669TIP3    H132566   3.071   4.391   8.471  0.0952 -0.1731 -0.7260
 3669TIP3    H232567   3.096   4.259   8.542  0.1648  1.2211  1.9759
 3670TIP3   OH232568   4.525   2.031   1.572 -0.2145  0.3415  0.1200
 3670TIP3    H132569   4.478   1.947   1.581 -0.9631  0.9107  2.3198
 3670TIP3    H232570   4.498   2.064   1.486  0.7363 -2.0044 -1.1629
 3671TIP3   OH232571   4.031   5.980   0.064  0.4054 -0.1145  0.2236
 3671TIP3    H132572   4.072   5.970   0.150 -0.3199  0.2061  0.6195
 3671TIP3    H232573   4.084   5.926   0.005  2.2004  1.3018  0.4424
 3672TIP3   OH232574   5.346   1.222   7.612  0.1878 -0.0639  0.3281
 3672TIP3    H132575   5.403   1.153   7.647 -1.4636 -1.7991 -0.2389
 3672TIP3    H232576   5.401   1.268   7.548  1.1524 -1.2898  0.2308
 3673TIP3   OH232577   1.264   1.822   6.518 -0.2259  0.7871 -0.1007
 3673TIP3    H132578   1.256   1.753   6.452  1.4965 -0.6957  1.1324
 3673TIP3    H232579   1.318   1.889   6.476 -0.5814  0.6626 -0.7741
 3674TIP3   OH232580   1.418   1.087   8.627 -0.0284  0.0663 -0.3520
 3674TIP3    H132581   1.416   0.994   8.607 -2.0315  0.0905 -0.4322
 3674TIP3    H232582   1.448   1.129   8.546  2.1069 -0.5294  0.0539
 3675TIP3   OH232583   4.628   3.022   7.643  0.5411  0.4987 -0.1277
 3675TIP3    H132584   4.651   3.077   7.569 -0.1488 -0.9144 -1.4664
 3675TIP3    H232585   4.698   3.035   7.707  2.5108 -0.1233 -2.0675
 3676TIP3   OH232586   5.435   2.801   1.891 -0.2939 -0.0240  0.3788
 3676TIP3    H132587   5.516   2.849   1.906  0.4436 -1.6491  1.8050
 3676TIP3    H232588   5.366   2.861   1.921  0.5659  0.3468  1.7032
 3677TIP3   OH232589   1.200   0.491   7.455  0.7064 -1.0185  0.2763
 3677TIP3    H132590   1.131   0.426   7.465 -0.5069  0.0582 -0.7677
 3677TIP3    H232591   1.170   0.566   7.507  0.8443 -0.3506 -0.5980
 3678TIP3   OH232592   4.680   1.092   7.502  0.0930 -0.0933 -0.0294
 3678TIP3    H132593   4.646   1.059   7.419  1.4234  2.3126 -1.6446
 3678TIP3    H232594   4.673   1.187   7.495 -0.2028  0.1793  2.8633
 3679TIP3   OH232595   0.266   4.372   7.704 -0.0218 -0.0364 -0.5078
 3679TIP3    H132596   0.318   4.451   7.719  0.2264 -0.0682 -1.1322
 3679TIP3    H232597   0.328   4.300   7.720 -0.2834 -0.1129  0.1906
 3680TIP3   OH232598   2.503   1.717   1.801  0.0381 -0.0719 -0.0802
 3680TIP3    H132599   2.438   1.761   1.855  2.5661  1.9951  1.5094
 3680TIP3    H232600   2.537   1.646   1.856  1.8469  1.3483  0.6989
 3681TIP3   OH232601   6.006   5.116   0.074  0.0408  0.2571  0.4322
 3681TIP3    H132602   5.940   5.131   0.006  0.5031 -0.0069 -0.0778
 3681TIP3    H232603   6.089   5.137   0.032  0.3555 -0.1492  0.8455
 3682TIP3   OH232604   6.692   3.790   7.405 -0.0077  0.5603  1.1236
 3682TIP3    H132605   6.631   3.719   7.388  0.8719  0.2812 -1.1852
 3682TIP3    H232606   6.692   3.842   7.325 -0.2511  2.9448  2.5483
 3683TIP3   OH232607   5.722   1.264   7.487 -0.0289 -0.3823 -0.4913
 3683TIP3    H132608   5.672   1.189   7.519  0.6067 -0.1056  1.3004
 3683TIP3    H232609   5.657   1.320   7.444 -1.0417 -0.6236  0.6689
 3684TIP3   OH232610   1.827   4.519   6.334 -0.0177  0.0608 -0.0718
 3684TIP3    H132611   1.811   4.593   6.276 -2.6825 -0.1096  0.3339
 3684TIP3    H232612   1.767   4.451   6.303 -0.4644 -0.5313  1.9814
 3685TIP3   OH232613   6.619   1.968   8.000  0.3339  0.6763  0.2116
 3685TIP3    H132614   6.611   2.063   8.008  0.2927  0.6074  1.0034
 3685TIP3    H232615   6.713   1.952   7.990  0.3296  0.8024 -0.0498
 3686TIP3   OH232616   3.736   0.465   7.234  0.2487 -0.9858 -0.0557
 3686TIP3    H132617   3.766   0.474   7.144  0.0094  0.2294 -0.0354
 3686TIP3    H232618   3.676   0.538   7.247  2.8262  1.0159  2.0727
 3687TIP3   OH232619   2.241   4.824   6.152 -0.4355  0.2155  0.2501
 3687TIP3    H132620   2.282   4.795   6.070 -0.7044 -1.7312  0.7711
 3687TIP3    H232621   2.278   4.911   6.168  1.8597 -0.5882 -0.3986
 3688TIP3   OH232622   4.100   2.669   1.328 -0.8606  0.2899  0.0591
 3688TIP3    H132623   4.175   2.632   1.374  0.0591 -0.0625 -1.6664
 3688TIP3    H232624   4.134   2.746   1.283 -1.2847 -0.3420 -1.4216
 3689TIP3   OH232625   5.053   6.776   8.545  0.8168  0.7621 -0.1547
 3689TIP3    H132626   4.968   6.746   8.578  0.6379  0.3710 -0.9354
 3689TIP3    H232627   5.112   6.765   8.618  0.9200 -2.2175 -0.5377
 3690TIP3   OH232628   1.955   0.575   7.942 -0.1239  0.0435 -0.1317
 3690TIP3    H132629   2.037   0.613   7.973 -0.0961  0.3158 -0.5290
 3690TIP3    H232630   1.899   0.572   8.019 -0.5654  2.0671 -0.3161
 3691TIP3   OH232631   3.879   3.080   7.173  0.2236 -0.1368 -0.3250
 3691TIP3    H132632   3.950   3.024   7.204 -0.3956 -0.6553  0.1959
 3691TIP3    H232633   3.896   3.091   7.079  0.0338 -1.7154 -0.5771
 3692TIP3   OH232634   1.995   1.122   8.426  0.6533  0.1199 -0.8172
 3692TIP3    H132635   2.058   1.156   8.363  0.1105  0.1176 -1.3637
 3692TIP3    H232636   1.985   1.029   8.403  0.2618  0.1782 -0.9012
 3693TIP3   OH232637   0.122   4.621   0.240 -0.3064 -0.5917 -0.7031
 3693TIP3    H132638   0.184   4.609   0.312  0.4529 -2.3446 -1.5870
 3693TIP3    H232639   0.082   4.706   0.257 -0.0184 -0.8594  1.6724
 3694TIP3   OH232640   2.117   3.560   8.762 -0.1962 -0.2802 -0.3936
 3694TIP3    H132641   2.076   3.646   8.768 -2.2960 -1.2685  0.4805
 3694TIP3    H232642   2.156   3.545   8.849 -0.8105 -0.6455 -0.1732
 3695TIP3   OH232643   0.500   2.070   0.205 -0.3644 -0.1027  0.0659
 3695TIP3    H132644   0.493   2.162   0.178 -0.7146 -0.1112  0.1172
 3695TIP3    H232645   0.588   2.062   0.242  0.3137 -0.1979 -1.4881
 3696TIP3   OH232646   4.537   2.118   1.841 -0.1399  0.1201 -0.1259
 3696TIP3    H132647   4.455   2.122   1.891 -1.4011 -3.4074 -1.5901
 3696TIP3    H232648   4.511   2.140   1.752  1.2132  2.0308 -0.0987
 3697TIP3   OH232649   0.062   1.940   0.990  0.4070 -0.6197  0.2024
 3697TIP3    H132650  -0.033   1.931   0.993  0.0304  2.3714  0.4088
 3697TIP3    H232651   0.091   1.867   0.935 -1.8535 -2.1986  0.9510
 3698TIP3   OH232652   2.641   5.709   8.269  0.2773 -0.4563 -0.1134
 3698TIP3    H132653   2.729   5.708   8.307  0.1935  1.0846  0.2109
 3698TIP3    H232654   2.648   5.768   8.194 -0.4052 -0.5517 -0.2571
 3699TIP3   OH232655   2.435   5.921   6.897  0.4134  0.4177 -0.6560
 3699TIP3    H132656   2.345   5.952   6.888  0.9038  1.7105 -1.4729
 3699TIP3    H232657   2.439   5.843   6.842 -0.9121 -1.3780  1.6310
 3700TIP3   OH232658   5.981   0.097   6.751 -0.1040 -0.3259 -0.2058
 3700TIP3    H132659   5.939   0.119   6.667  2.6881  1.1974 -1.3146
 3700TIP3    H232660   5.974   0.177   6.803 -0.6299 -0.8400  0.5301
 3701TIP3   OH232661   4.755   3.164   1.791 -0.5935  0.0106  0.6734
 3701TIP3    H132662   4.826   3.158   1.728  0.6947 -1.9980  2.2021
 3701TIP3    H232663   4.682   3.117   1.749 -0.0736 -0.4783  0.3074
 3702TIP3   OH232664   6.108   4.044   1.543 -0.1745  0.8260  0.0266
 3702TIP3    H132665   6.194   4.040   1.586 -0.1020 -0.2981 -0.2049
 3702TIP3    H232666   6.086   4.137   1.544  0.1923  0.9262  1.7791
 3703TIP3   OH232667   0.743   6.641   6.446 -0.1957  0.3819 -0.4059
 3703TIP3    H132668   0.823   6.590   6.463 -1.0103 -0.4944  0.9836
 3703TIP3    H232669   0.695   6.590   6.382 -0.5368 -0.1090  0.2276
 3704TIP3   OH232670   5.922   3.595   8.401 -0.3343  0.2784 -0.4361
 3704TIP3    H132671   5.944   3.620   8.312  1.1349 -1.3311 -0.5742
 3704TIP3    H232672   5.973   3.656   8.456  2.7405 -1.7416 -0.7688
 3705TIP3   OH232673   2.507   6.490   8.275  0.3075  0.5574 -0.2144
 3705TIP3    H132674   2.430   6.443   8.307 -0.1091 -0.2791 -2.2907
 3705TIP3    H232675   2.514   6.465   8.183  3.2202  0.4482 -0.0456
 3706TIP3   OH232676   4.544   0.880   2.077 -0.0352  0.6101 -0.5905
 3706TIP3    H132677   4.625   0.843   2.043 -0.1546  0.1829 -0.4171
 3706TIP3    H232678   4.522   0.950   2.016  1.9652  2.6618  0.9112
 3707TIP3   OH232679   1.557   1.748   8.416  0.4151  0.5631 -0.2609
 3707TIP3    H132680   1.475   1.772   8.372  0.1833  0.8222  0.3046
 3707TIP3    H232681   1.555   1.653   8.422  0.3824  0.5345 -0.6776
 3708TIP3   OH232682   5.711   2.519   0.523 -0.1059 -0.4903  0.1381
 3708TIP3    H132683   5.789   2.493   0.473 -0.2340  0.8764 -0.8386
 3708TIP3    H232684   5.744   2.537   0.611  1.1546  2.0677 -0.7468
 3709TIP3   OH232685   6.288   0.780   1.153  0.3554 -0.1990  0.0868
 3709TIP3    H132686   6.372   0.798   1.110  0.5377 -1.3635 -0.0807
 3709TIP3    H232687   6.253   0.866   1.175  0.2870  0.4361 -2.3000
 3710TIP3   OH232688   5.930   3.567   6.942 -0.4040  0.5643  0.1097
 3710TIP3    H132689   5.941   3.599   6.852  0.2121  2.7867  0.9279
 3710TIP3    H232690   6.017   3.572   6.980 -0.6972 -0.2076  0.9074
 3711TIP3   OH232691   6.053   0.444   8.416 -0.3416 -0.2141 -0.1723
 3711TIP3    H132692   6.063   0.520   8.359  0.1805  0.5443  0.9040
 3711TIP3    H232693   6.110   0.377   8.378 -0.5188  0.0433 -0.9085
 3712TIP3   OH232694   3.588   6.381   7.931 -0.1314  0.0090  0.0877
 3712TIP3    H132695   3.542   6.297   7.924 -1.9313  0.8366  1.0904
 3712TIP3    H232696   3.662   6.363   7.988  1.4439 -1.5796 -2.3018
 3713TIP3   OH232697   1.259   2.334   1.108  0.3066  0.2965 -0.0447
 3713TIP3    H132698   1.232   2.425   1.124  0.5713  0.3107  0.3207
 3713TIP3    H232699   1.343   2.341   1.063  0.3768  0.2315  0.0759
 3714TIP3   OH232700   6.720   5.670   0.832  0.9692  0.4321  0.0490
 3714TIP3    H132701   6.625   5.683   0.830  0.7686 -0.9128 -2.3100
 3714TIP3    H232702   6.755   5.755   0.805  0.3746  0.5552 -0.3672
 3715TIP3   OH232703   3.217   0.713   8.307  0.1425  0.3057 -0.5282
 3715TIP3    H132704   3.264   0.781   8.356 -0.5033 -1.0330  2.1138
 3715TIP3    H232705   3.128   0.717   8.340 -0.0120 -1.5329 -0.6281
 3716TIP3   OH232706   2.931   5.590   0.090  0.3016 -0.3689  0.1393
 3716TIP3    H132707   2.960   5.666   0.039 -0.8887 -0.7268 -1.1380
 3716TIP3    H232708   2.986   5.591   0.168  0.1508  1.9782  0.2987
 3717TIP3   OH232709   4.123   3.157   6.781 -0.4630 -0.1431  0.0863
 3717TIP3    H132710   4.166   3.168   6.696  2.2138  1.7144  1.5245
 3717TIP3    H232711   4.165   3.079   6.819 -0.0423  0.2915  0.5361
 3718TIP3   OH232712   3.635   3.536   0.437 -0.5969  0.0857 -0.1130
 3718TIP3    H132713   3.684   3.555   0.517  0.7562 -1.4353 -0.5305
 3718TIP3    H232714   3.662   3.604   0.375 -1.0791  0.8208  0.4674
 3719TIP3   OH232715   2.021   2.964   0.004  0.0410  0.0859 -0.5525
 3719TIP3    H132716   1.985   2.944   0.090  1.3426  0.8610  0.2022
 3719TIP3    H232717   2.031   3.059   0.004  1.2776 -0.0269 -1.0547
 3720TIP3   OH232718   1.352   5.624   1.656 -0.5314 -0.2116  0.4512
 3720TIP3    H132719   1.376   5.559   1.723 -0.2533  0.7670  1.3263
 3720TIP3    H232720   1.257   5.621   1.653 -0.4819 -2.1695 -1.0716
 3721TIP3   OH232721   6.675   2.757   7.525  0.3792  0.4398 -0.5100
 3721TIP3    H132722   6.699   2.841   7.565  0.7643  0.2339 -0.2974
 3721TIP3    H232723   6.678   2.774   7.431  0.8178  0.5715 -0.4761
 3722TIP3   OH232724   0.142   0.541   2.343  0.7977  0.4137  0.1378
 3722TIP3    H132725   0.097   0.600   2.404 -0.4204 -0.7481  0.3981
 3722TIP3    H232726   0.076   0.477   2.318  2.2820 -1.3459  0.5055
 3723TIP3   OH232727   3.353   6.340   2.106  0.4890 -0.2420  0.4278
 3723TIP3    H132728   3.384   6.426   2.134 -1.0488 -0.8299  4.7123
 3723TIP3    H232729   3.258   6.348   2.106  0.3442 -1.3580 -1.6049
 3724TIP3   OH232730   4.558   1.845   0.851  0.2195  0.3833  0.3236
 3724TIP3    H132731   4.559   1.913   0.784  0.0394 -1.1390 -1.3042
 3724TIP3    H232732   4.476   1.859   0.899 -0.4464  0.5324 -0.8382
 3725TIP3   OH232733   3.164   0.050   1.468 -0.4661 -0.5092 -0.2926
 3725TIP3    H132734   3.219   0.127   1.487  0.0464 -0.5834 -1.3807
 3725TIP3    H232735   3.148   0.010   1.553  1.8397 -0.9171  0.0166
 3726TIP3   OH232736   5.652   2.273   8.467 -0.5385  0.2578  0.2685
 3726TIP3    H132737   5.613   2.351   8.506  0.4396 -0.4435  2.8742
 3726TIP3    H232738   5.719   2.246   8.530  1.8466 -0.5204 -2.3687
 3727TIP3   OH232739   4.768   1.947   8.554  0.0862 -0.1414  0.0441
 3727TIP3    H132740   4.835   1.936   8.486 -0.2517  1.1166 -0.5249
 3727TIP3    H232741   4.785   2.033   8.591  1.1185 -1.3362  2.5703
 3728TIP3   OH232742   1.637   3.061   7.177  0.1920  0.4570 -0.3196
 3728TIP3    H132743   1.564   3.002   7.161 -0.0584  0.4008  0.9263
 3728TIP3    H232744   1.711   3.003   7.197  0.4192  0.5320 -0.9126
 3729TIP3   OH232745   0.155   3.426   2.019 -0.0684 -0.0210  0.1533
 3729TIP3    H132746   0.136   3.485   2.093  0.0763  0.2109  0.0052
 3729TIP3    H232747   0.096   3.455   1.950  0.3285  0.2496 -0.0754
 3730TIP3   OH232748   2.425   2.437   7.004 -0.1226  0.2052 -0.0572
 3730TIP3    H132749   2.481   2.371   7.045 -0.9614 -0.5009 -0.0177
 3730TIP3    H232750   2.443   2.518   7.053  0.3033 -0.1823  0.4403
 3731TIP3   OH232751   1.066   4.817   6.995  0.1964  0.2139  0.1402
 3731TIP3    H132752   1.058   4.805   7.089  0.6484 -0.4290  0.1009
 3731TIP3    H232753   0.992   4.874   6.972  0.5570  1.0584  0.9952
 3732TIP3   OH232754   1.350   4.754   8.482  0.0928  0.3121 -0.2184
 3732TIP3    H132755   1.297   4.799   8.547 -0.7793  0.7100 -1.1789
 3732TIP3    H232756   1.347   4.662   8.508 -1.3030  0.2891 -0.4032
 3733TIP3   OH232757   0.291   3.585   7.937 -0.8648 -0.0670  0.5245
 3733TIP3    H132758   0.321   3.599   7.847  1.2311 -0.8907  1.0461
 3733TIP3    H232759   0.242   3.502   7.933  0.7718 -1.0730  0.4285
 3734TIP3   OH232760   1.038   3.741   6.101 -0.2852 -0.5906 -0.0587
 3734TIP3    H132761   1.035   3.667   6.162  1.1784 -0.7211 -0.1099
 3734TIP3    H232762   0.990   3.710   6.024  0.1127 -1.4208  0.0070
 3735TIP3   OH232763   4.485   3.165   0.147 -0.7090  0.0661 -0.1171
 3735TIP3    H132764   4.427   3.160   0.071 -2.5820 -0.5699  1.2795
 3735TIP3    H232765   4.522   3.078   0.156 -0.5178  0.1311 -0.2576
 3736TIP3   OH232766   3.231   6.366   1.024  0.3110  0.2785  0.1184
 3736TIP3    H132767   3.299   6.311   0.987 -0.2882 -0.9032  0.7333
 3736TIP3    H232768   3.235   6.351   1.118 -0.8535  0.0910  0.1644
 3737TIP3   OH232769   5.761   1.551   7.867  0.4887 -0.3930 -0.3076
 3737TIP3    H132770   5.823   1.479   7.865 -0.7141 -1.4419 -1.6505
 3737TIP3    H232771   5.744   1.565   7.960  3.4876  0.6778  0.1924
 3738TIP3   OH232772   4.141   5.965   0.332 -0.6630  0.4264 -0.5805
 3738TIP3    H132773   4.196   5.892   0.362 -1.5815 -0.2785 -0.5311
 3738TIP3    H232774   4.179   6.043   0.372  0.8137  0.0886 -1.2656
 3739TIP3   OH232775   3.028   1.363   6.964 -0.1285 -0.1089  0.1592
 3739TIP3    H132776   2.979   1.363   7.046  1.1865 -1.7464  0.9952
 3739TIP3    H232777   2.973   1.313   6.903 -0.7618  0.4600  0.2564
 3740TIP3   OH232778   6.487   5.698   6.966  0.1788  0.0715  0.5305
 3740TIP3    H132779   6.474   5.774   6.910 -0.2532  0.7345  1.4929
 3740TIP3    H232780   6.582   5.687   6.972  0.2694  1.0414  1.0224
 3741TIP3   OH232781   5.171   1.057   6.904  0.4339 -0.0626 -0.2517
 3741TIP3    H132782   5.121   1.008   6.970 -2.0368  0.8739 -1.3056
 3741TIP3    H232783   5.174   0.999   6.828 -0.9149  0.6728 -0.8898
 3742TIP3   OH232784   2.192   0.248   1.003  0.0721  0.2668  0.1177
 3742TIP3    H132785   2.238   0.314   0.950  0.7941 -0.7123 -0.4987
 3742TIP3    H232786   2.257   0.220   1.067  0.3431 -1.0633 -0.7024
 3743TIP3   OH232787   3.499   4.066   8.772  0.0126 -0.0566 -0.1477
 3743TIP3    H132788   3.483   4.014   8.693 -0.8891  0.2765 -0.1985
 3743TIP3    H232789   3.415   4.067   8.818 -0.5414  2.8061 -1.0195
 3744TIP3   OH232790   3.621   3.512   7.208 -0.0366 -0.2927  0.2182
 3744TIP3    H132791   3.642   3.604   7.196  0.0644 -0.4127 -0.6156
 3744TIP3    H232792   3.704   3.470   7.230  0.4993 -0.6054 -2.0939
 3745TIP3   OH232793   3.643   4.665   6.905 -0.2692 -0.1294 -0.1890
 3745TIP3    H132794   3.706   4.681   6.975  1.7793  1.0332 -2.1442
 3745TIP3    H232795   3.641   4.570   6.896 -0.6552 -0.2972  1.4794
 3746TIP3   OH232796   3.617   6.043   7.868  0.3970  0.4528  0.0743
 3746TIP3    H132797   3.648   6.047   7.777  0.2678  0.0155  0.0046
 3746TIP3    H232798   3.532   6.088   7.866  0.5369  0.7163  0.0432
 3747TIP3   OH232799   3.558   6.640   7.327 -0.4040  0.1515  0.1205
 3747TIP3    H132800   3.603   6.628   7.243 -1.8387  2.9255 -1.1671
 3747TIP3    H232801   3.466   6.647   7.304 -1.1100 -1.1886  2.2394
 3748TIP3   OH232802   1.347   4.631   7.138 -0.3210  0.2245 -0.0650
 3748TIP3    H132803   1.372   4.706   7.193 -1.7344 -1.0407  2.4855
 3748TIP3    H232804   1.386   4.555   7.182 -1.0034 -0.8059 -1.1924
 3749TIP3   OH232805   0.484   3.214   1.288 -0.0310  0.1643 -0.5388
 3749TIP3    H132806   0.512   3.147   1.226 -1.6835 -0.6391 -0.4629
 3749TIP3    H232807   0.397   3.241   1.257 -0.4215  0.5347  0.7967
 3750TIP3   OH232808   0.214   2.812   7.593 -0.3656 -0.2544  0.3917
 3750TIP3    H132809   0.240   2.770   7.511 -2.5163 -1.8101  0.4297
 3750TIP3    H232810   0.291   2.862   7.619  1.1579 -1.5075 -1.4104
 3751TIP3   OH232811   3.812   1.437   7.900  0.2085  0.0734  0.6858
 3751TIP3    H132812   3.907   1.446   7.901  0.2431  0.4913 -1.3323
 3751TIP3    H232813   3.782   1.508   7.843 -1.2150 -0.6326  0.5071
 3752TIP3   OH232814   3.152   5.185   0.529 -0.3256 -0.2546  0.0159
 3752TIP3    H132815   3.120   5.174   0.439 -2.7359  1.3530  0.5709
 3752TIP3    H232816   3.178   5.097   0.556 -1.6587 -1.1912 -1.5370
 3753TIP3   OH232817   0.446   0.537   1.126 -0.7183 -0.2056 -0.9497
 3753TIP3    H132818   0.472   0.529   1.034  0.7034 -0.2695 -0.5727
 3753TIP3    H232819   0.387   0.612   1.128  0.9902  1.2331 -1.6020
 3754TIP3   OH232820   5.244   6.746   0.792 -0.5917  0.0682  0.2134
 3754TIP3    H132821   5.302   6.821   0.779 -0.8330  0.0625 -1.0042
 3754TIP3    H232822   5.302   6.670   0.793 -0.2777  0.2720  2.0536
 3755TIP3   OH232823   2.469   1.889   0.076 -0.1151  0.0468  0.2128
 3755TIP3    H132824   2.497   1.807   0.034  0.5334 -0.8624  2.2664
 3755TIP3    H232825   2.430   1.861   0.159  0.7093  1.8387  1.2663
 3756TIP3   OH232826   1.102   6.574   0.316  0.1924  0.9574  0.3567
 3756TIP3    H132827   1.184   6.624   0.318  0.3153  0.8978 -1.4049
 3756TIP3    H232828   1.118   6.499   0.373  3.1935 -1.6127 -3.3836
 3757TIP3   OH232829   4.885   2.953   8.422 -0.2766  0.2842 -0.7440
 3757TIP3    H132830   4.879   2.968   8.327 -2.2822  1.9587 -0.4017
 3757TIP3    H232831   4.824   3.015   8.461  0.5574 -0.3089  1.6924
 3758TIP3   OH232832   1.770   5.452   6.788 -0.8590  0.1365 -0.2701
 3758TIP3    H132833   1.779   5.374   6.734 -0.0042 -0.2373  0.3819
 3758TIP3    H232834   1.703   5.505   6.744 -1.7694 -1.1552 -0.4825
 3759TIP3   OH232835   5.269   4.623   1.867  0.1653 -0.2262  0.0234
 3759TIP3    H132836   5.218   4.656   1.941 -0.0721  0.5098 -0.4565
 3759TIP3    H232837   5.272   4.697   1.806 -0.2713 -1.0612 -1.0236
 3760TIP3   OH232838   1.471   3.759   1.381 -0.0065 -0.4660  0.6087
 3760TIP3    H132839   1.461   3.845   1.422  1.0982  0.4790 -0.9688
 3760TIP3    H232840   1.473   3.778   1.287 -3.5836 -2.6130 -0.1137
 3761TIP3   OH232841   4.297   5.655   1.654 -0.2024 -0.1573 -0.0719
 3761TIP3    H132842   4.341   5.728   1.698  0.2040 -0.5617  0.2044
 3761TIP3    H232843   4.301   5.583   1.718 -1.0554 -0.2743 -0.1370
 3762TIP3   OH232844   3.295   5.717   8.796 -0.1354 -0.2799 -0.5294
 3762TIP3    H132845   3.367   5.660   8.770  0.4552  0.4398 -0.4900
 3762TIP3    H232846   3.247   5.733   8.715 -1.3206 -2.1755 -0.2782
 3763TIP3   OH232847   6.582   1.036   1.677  0.3211 -0.5180 -0.1380
 3763TIP3    H132848   6.663   1.071   1.716 -0.4845  1.6989 -0.3169
 3763TIP3    H232849   6.534   1.000   1.752  0.1978  0.8193  0.4551
 3764TIP3   OH232850   2.825   5.207   2.163  0.3860 -0.2153 -0.3240
 3764TIP3    H132851   2.761   5.135   2.166 -0.7783  0.8368  0.9789
 3764TIP3    H232852   2.773   5.286   2.178  2.1188  0.5861  1.9660
 3765TIP3   OH232853   1.788   2.209   7.482  0.7748 -0.3694 -0.1668
 3765TIP3    H132854   1.772   2.115   7.491  1.8901 -0.5787 -0.2660
 3765TIP3    H232855   1.882   2.219   7.498  0.5670  0.8078  0.4377
 3766TIP3   OH232856   1.399   6.179   0.088  0.5065 -0.6953  0.0223
 3766TIP3    H132857   1.391   6.123   0.011 -1.7009  0.6685 -0.8440
 3766TIP3    H232858   1.324   6.238   0.082  1.2095  0.5479  2.3539
 3767TIP3   OH232859   5.789   3.183   7.185 -0.3336  0.5123 -0.3605
 3767TIP3    H132860   5.789   3.095   7.222  2.0642 -0.1427 -1.6845
 3767TIP3    H232861   5.734   3.234   7.244 -1.0064 -1.6285  0.9961
 3768TIP3   OH232862   1.968   1.141   7.298 -0.1735  0.1990  0.0373
 3768TIP3    H132863   2.000   1.052   7.283 -1.8418 -0.2525 -1.1858
 3768TIP3    H232864   1.959   1.148   7.393  1.2908 -0.4287  0.2412
 3769TIP3   OH232865   5.053   0.984   7.446 -0.6194  0.4943  0.2822
 3769TIP3    H132866   5.085   0.897   7.422  0.2639  0.6774  0.7673
 3769TIP3    H232867   5.007   1.014   7.367  1.9320  0.9425 -1.1463
 3770TIP3   OH232868   5.160   3.402   8.371 -0.0154 -0.3051 -0.2859
 3770TIP3    H132869   5.102   3.449   8.430 -0.2824  0.2994 -1.0179
 3770TIP3    H232870   5.214   3.347   8.429 -0.1381  0.4086  0.5237
 3771TIP3   OH232871   6.664   2.505   6.166 -0.4109 -0.2103 -0.2446
 3771TIP3    H132872   6.665   2.598   6.188 -0.1591 -0.3973  0.5623
 3771TIP3    H232873   6.625   2.463   6.242  0.3347 -0.8645 -0.2144
 3772TIP3   OH232874   2.937   5.029   8.637 -0.1906 -0.1236 -0.5343
 3772TIP3    H132875   2.921   5.042   8.730 -1.0737 -1.4773 -0.4749
 3772TIP3    H232876   3.018   5.078   8.620 -0.4661  0.8324  0.7396
 3773TIP3   OH232877   2.841   5.231   0.965 -0.1321 -0.3993  0.1999
 3773TIP3    H132878   2.853   5.320   0.999  0.0566  0.4065 -1.8092
 3773TIP3    H232879   2.922   5.185   0.988 -0.2830 -0.1081  1.3677
 3774TIP3   OH232880   0.619   6.743   0.928 -0.6027 -0.1270  0.3540
 3774TIP3    H132881   0.668   6.734   1.010 -1.1923 -0.3261  0.6944
 3774TIP3    H232882   0.670   6.804   0.876  0.2981 -0.7650  0.4742
 3775TIP3   OH232883   4.381   6.092   8.543 -0.0124  0.0865 -0.1250
 3775TIP3    H132884   4.426   6.176   8.534  1.4091 -0.7399 -1.1033
 3775TIP3    H232885   4.288   6.115   8.545  0.3540  1.6937 -0.1303
 3776TIP3   OH232886   0.470   2.920   1.391 -0.1566  0.1085 -0.6170
 3776TIP3    H132887   0.510   2.914   1.478 -0.6488 -1.6062 -0.4623
 3776TIP3    H232888   0.539   2.956   1.335  0.6770 -0.2018  0.1838
 3777TIP3   OH232889   5.664   0.849   8.469  0.0466 -0.3174 -0.5198
 3777TIP3    H132890   5.598   0.879   8.406  0.6403  0.0907 -0.9654
 3777TIP3    H232891   5.646   0.756   8.481 -0.7242 -0.1691 -0.4880
 3778TIP3   OH232892   5.916   0.053   1.134 -0.1367 -0.4322  0.5844
 3778TIP3    H132893   5.824   0.031   1.141 -0.6018  1.0906 -0.2705
 3778TIP3    H232894   5.941   0.083   1.221 -0.3718 -1.0718  0.8752
 3779TIP3   OH232895   1.797   2.063   8.793  0.7985 -0.2490 -0.0298
 3779TIP3    H132896   1.741   2.140   8.781  1.7087  0.5987  0.8969
 3779TIP3    H232897   1.864   2.092   8.854 -0.0648 -2.4066  2.1172
 3780TIP3   OH232898   0.014   1.109   8.595 -0.3535 -0.0106 -0.3227
 3780TIP3    H132899   0.076   1.037   8.589  0.4401  0.7228 -1.3350
 3780TIP3    H232900   0.063   1.185   8.563 -2.0495  0.3996 -2.1393
 3781TIP3   OH232901   5.694   6.773   0.049 -0.4183 -0.3696  0.5406
 3781TIP3    H132902   5.757   6.707   0.022 -0.2656 -1.0026  2.2969
 3781TIP3    H232903   5.650   6.735   0.125 -0.4240  1.4678  1.5152
 3782TIP3   OH232904   5.981   4.036   6.649  0.2080  0.1375 -0.2392
 3782TIP3    H132905   5.950   4.123   6.624 -1.8029 -0.4610 -0.0311
 3782TIP3    H232906   5.906   3.978   6.632  1.5160 -1.5732 -0.4538
 3783TIP3   OH232907   3.523   5.284   1.421 -0.1952  0.0867 -0.0186
 3783TIP3    H132908   3.497   5.246   1.505  1.8211 -0.4221  0.4302
 3783TIP3    H232909   3.483   5.228   1.355  0.3509 -1.1051  0.6358
 3784TIP3   OH232910   0.991   0.332   8.537  0.0953  0.0637 -0.0802
 3784TIP3    H132911   1.061   0.295   8.591 -0.1440 -0.0663  0.1470
 3784TIP3    H232912   1.003   0.291   8.451  1.2788  1.2589 -0.5257
 3785TIP3   OH232913   4.746   2.576   2.144 -0.1480 -0.0748 -0.0623
 3785TIP3    H132914   4.728   2.643   2.078 -1.3008  0.0234  0.3209
 3785TIP3    H232915   4.670   2.518   2.140 -1.3525  1.1406  2.6385
 3786TIP3   OH232916   2.748   0.307   0.941 -0.0963  0.4938 -0.1505
 3786TIP3    H132917   2.694   0.322   1.019  0.3673  1.0610  0.0666
 3786TIP3    H232918   2.836   0.335   0.966  0.2604 -0.2015 -0.5777
 3787TIP3   OH232919   4.880   5.999   1.824  0.2191 -0.2731  0.2749
 3787TIP3    H132920   4.927   6.082   1.832  2.2439 -1.4521  1.5510
 3787TIP3    H232921   4.811   6.005   1.891  1.1323 -0.0572  1.2347
 3788TIP3   OH232922   4.257   1.990   8.749 -0.4082  0.4265  0.0908
 3788TIP3    H132923   4.249   1.897   8.727 -2.1219  0.2109  1.4134
 3788TIP3    H232924   4.171   2.027   8.732 -0.0737  1.5411  0.6689
 3789TIP3   OH232925   5.619   4.858   8.687 -0.6852 -0.5378  0.1937
 3789TIP3    H132926   5.680   4.893   8.622 -1.1976  1.6558  0.8152
 3789TIP3    H232927   5.627   4.917   8.762 -2.7019 -0.8625  0.7353
 3790TIP3   OH232928   4.492   3.684   6.239  0.0102 -0.0161 -0.5070
 3790TIP3    H132929   4.402   3.684   6.271  0.1933 -1.1342  0.0538
 3790TIP3    H232930   4.508   3.775   6.211 -1.5009  0.0410 -1.2657
 3791TIP3   OH232931   2.454   4.932   2.007  0.2539 -0.3369 -0.4514
 3791TIP3    H132932   2.379   4.980   1.973  1.2934 -0.2911 -2.9298
 3791TIP3    H232933   2.420   4.845   2.028 -0.6101 -0.1412 -1.0054
 3792TIP3   OH232934   0.759   0.437   8.464 -0.5032  0.1253 -0.3035
 3792TIP3    H132935   0.830   0.396   8.514 -0.4179  1.4173  0.6765
 3792TIP3    H232936   0.789   0.527   8.449 -0.3877 -0.2618 -2.9842
 3793TIP3   OH232937   5.421   3.518   1.609  0.1929 -0.6199  0.7107
 3793TIP3    H132938   5.511   3.487   1.602  0.4444  0.1116  0.5956
 3793TIP3    H232939   5.409   3.575   1.532  0.1142  0.4428  1.4904
 3794TIP3   OH232940   1.247   4.070   0.236 -0.1950 -0.4141 -0.2112
 3794TIP3    H132941   1.252   3.989   0.185 -1.4267  0.9572 -2.6813
 3794TIP3    H232942   1.272   4.139   0.175 -0.7222  1.2379  1.3514
 3795TIP3   OH232943   0.731   5.874   0.112  0.2401  0.0268 -0.2557
 3795TIP3    H132944   0.653   5.928   0.128 -0.3172 -1.5460  3.1115
 3795TIP3    H232945   0.805   5.932   0.133 -0.1997  0.4323  0.2183
 3796TIP3   OH232946   2.727   1.298   6.052  0.2764 -0.2869  0.5735
 3796TIP3    H132947   2.784   1.318   6.126  0.0441  0.3997  0.5839
 3796TIP3    H232948   2.657   1.364   6.058  0.5518  0.1346 -0.5703
 3797TIP3   OH232949   0.272   0.712   2.167  0.7679 -0.2010  0.3914
 3797TIP3    H132950   0.252   0.654   2.240  1.2993 -1.3166 -0.3232
 3797TIP3    H232951   0.367   0.710   2.159  0.6279 -1.7718 -1.6170
 3798TIP3   OH232952   0.171   0.898   7.458  0.9049  0.9523  0.4317
 3798TIP3    H132953   0.093   0.933   7.415  1.3198 -0.4034 -1.6043
 3798TIP3    H232954   0.138   0.824   7.510  0.8829 -0.2980 -1.2688
 3799TIP3   OH232955   3.126   3.731   1.757 -0.0075 -0.1243 -0.0491
 3799TIP3    H132956   3.172   3.647   1.761  0.9793  0.3261 -1.2419
 3799TIP3    H232957   3.039   3.709   1.723 -0.4377 -0.8883  1.4849
 3800TIP3   OH232958   1.841   4.744   0.991 -0.2974 -0.1758 -0.0660
 3800TIP3    H132959   1.922   4.753   1.042  0.1873  0.4633 -0.8947
 3800TIP3    H232960   1.810   4.656   1.009 -0.5537  0.2848  1.8854
 3801TIP3   OH232961   3.326   2.283   7.447 -0.0245  0.5056  0.4018
 3801TIP3    H132962   3.260   2.314   7.509 -1.3886  1.9349 -1.6123
 3801TIP3    H232963   3.320   2.188   7.451 -2.5968  0.5632 -0.0018
 3802TIP3   OH232964   3.115   4.130   0.520 -0.6949  0.1143  0.4649
 3802TIP3    H132965   3.092   4.133   0.427 -1.4234  1.1600  0.6619
 3802TIP3    H232966   3.080   4.047   0.551  1.9322 -1.6060 -0.7510
 3803TIP3   OH232967   1.145   0.478   7.181 -0.5201  0.6100 -0.1182
 3803TIP3    H132968   1.074   0.419   7.155  0.4756 -0.8554  0.3791
 3803TIP3    H232969   1.142   0.478   7.276  0.7196 -0.2191 -0.0626
 3804TIP3   OH232970   5.204   5.583   7.974  0.2236 -0.8930  0.0574
 3804TIP3    H132971   5.296   5.583   7.951  0.4781 -1.0218  1.0273
 3804TIP3    H232972   5.175   5.673   7.962  0.1107 -1.1176 -1.5802
 3805TIP3   OH232973   1.494   5.446   0.684  0.1062  0.0134  0.3019
 3805TIP3    H132974   1.578   5.490   0.675 -0.3838  0.7951 -0.5661
 3805TIP3    H232975   1.457   5.481   0.766  0.1074  0.5637  0.0719
 3806TIP3   OH232976   4.128   4.706   7.368  0.0719 -0.0497  0.0064
 3806TIP3    H132977   4.106   4.671   7.281  0.5641 -0.5302  0.0754
 3806TIP3    H232978   4.145   4.629   7.422  2.7467  0.2602 -0.2532
 3807TIP3   OH232979   0.799   2.746   2.175 -0.3632 -0.5864  0.2768
 3807TIP3    H132980   0.837   2.810   2.115  0.6413 -0.9267  0.5338
 3807TIP3    H232981   0.705   2.747   2.155 -0.4863  1.4691  0.7656
 3808TIP3   OH232982   4.235   0.261   0.128 -0.5018 -0.4448 -0.2834
 3808TIP3    H132983   4.184   0.298   0.055  0.0599  1.5440  0.2912
 3808TIP3    H232984   4.187   0.288   0.206  1.1436  1.0921  0.2498
 3809TIP3   OH232985   3.033   2.331   8.278 -0.0809  0.3667 -0.1959
 3809TIP3    H132986   3.106   2.269   8.277 -0.1278  0.3141 -0.6075
 3809TIP3    H232987   3.004   2.332   8.370  0.9956  1.0735  0.1560
 3810TIP3   OH232988   1.722   0.486   8.396  0.5108 -0.1359  0.0001
 3810TIP3    H132989   1.644   0.445   8.434  1.1379 -2.1950 -0.8190
 3810TIP3    H232990   1.725   0.454   8.306  1.6423  0.8907 -0.3491
 3811TIP3   OH232991   4.210   6.233   1.310  0.3289 -0.3863  0.7474
 3811TIP3    H132992   4.129   6.222   1.262  1.2158 -0.7565 -0.7242
 3811TIP3    H232993   4.222   6.328   1.316  1.0284 -0.3067 -1.2843
 3812TIP3   OH232994   1.783   2.375   1.015  0.4861  0.5419  0.0434
 3812TIP3    H132995   1.841   2.451   1.013  1.0701  0.1678  1.4032
 3812TIP3    H232996   1.787   2.339   0.926  1.3938  1.2189 -0.2048
 3813TIP3   OH232997   6.702   5.822   7.791  0.2760  0.6291 -0.3393
 3813TIP3    H132998   6.622   5.856   7.752  0.6345  2.0781  0.1318
 3813TIP3    H232999   6.674   5.743   7.838 -0.3560 -0.4892 -2.4754
 3814TIP3   OH233000   4.527   5.148   0.388 -0.2697 -0.0850  0.2472
 3814TIP3    H133001   4.501   5.204   0.314  0.1339 -0.5434 -0.2535
 3814TIP3    H233002   4.587   5.203   0.439 -1.4323  0.6387  0.8885
 3815TIP3   OH233003   2.431   3.457   7.261 -0.7024  0.6617  0.2348
 3815TIP3    H133004   2.355   3.503   7.295  0.0489  1.7465  0.4999
 3815TIP3    H233005   2.396   3.396   7.197 -1.6849  1.9560 -0.4955
 3816TIP3   OH233006   3.649   4.128   1.068  0.2321 -0.1781 -0.4380
 3816TIP3    H133007   3.718   4.065   1.048 -0.0223 -1.2264  1.6499
 3816TIP3    H233008   3.657   4.143   1.163 -0.1947  2.4009 -0.7309
 3817TIP3   OH233009   1.311   0.036   1.845  0.1333 -0.2896  0.0240
 3817TIP3    H133010   1.304   0.130   1.861 -0.5416 -0.2100 -0.6682
 3817TIP3    H233011   1.347   0.000   1.926  1.4706  0.6994 -0.0938
 3818TIP3   OH233012   6.446   2.020   7.244 -0.3290  0.2219 -0.1482
 3818TIP3    H133013   6.452   1.934   7.203  0.2743  1.6361 -3.2986
 3818TIP3    H233014   6.520   2.023   7.304  1.8318 -0.2737 -2.6134
 3819TIP3   OH233015   4.466   5.859   7.583 -0.6789  0.3944  0.1341
 3819TIP3    H133016   4.470   5.849   7.488  0.1894  2.2114 -0.0686
 3819TIP3    H233017   4.400   5.928   7.598  0.1657  1.1082  0.7243
 3820TIP3   OH233018   1.132   4.246   0.853 -0.6830  0.0946 -0.0068
 3820TIP3    H133019   1.100   4.164   0.815  0.7013  0.1204 -1.3099
 3820TIP3    H233020   1.204   4.272   0.797 -0.6129  1.8391  0.8218
 3821TIP3   OH233021   6.568   6.382   8.394  0.4970 -0.1604 -0.4342
 3821TIP3    H133022   6.621   6.383   8.474 -0.8733  1.0237  0.5184
 3821TIP3    H233023   6.612   6.444   8.336 -0.3800  1.6894  0.7797
 3822TIP3   OH233024   1.751   0.584   6.779  0.0254  0.0185 -0.5838
 3822TIP3    H133025   1.690   0.529   6.729 -1.6357  2.5383 -1.4907
 3822TIP3    H233026   1.816   0.612   6.715  0.8806 -0.8417 -0.1188
 3823TIP3   OH233027   6.146   0.635   8.180 -0.2397 -0.1175 -0.3887
 3823TIP3    H133028   6.083   0.637   8.108  1.1024  0.5522 -1.5871
 3823TIP3    H233029   6.230   0.652   8.139  0.4700  1.1696  1.4645
 3824TIP3   OH233030   5.827   5.072   0.421  0.3002  0.5368 -1.0408
 3824TIP3    H133031   5.801   5.153   0.465  0.5003  0.0507  0.0201
 3824TIP3    H233032   5.919   5.086   0.397  0.2726  0.7024 -1.0457
 3825TIP3   OH233033   2.653   6.265   1.177  0.1778 -0.2428  0.4244
 3825TIP3    H133034   2.643   6.288   1.270  0.2110  0.6575  0.2188
 3825TIP3    H233035   2.744   6.289   1.156 -0.5812  2.1599 -0.4986
 3826TIP3   OH233036   2.375   6.349   2.124 -0.9377 -0.1336  0.2937
 3826TIP3    H133037   2.442   6.379   2.062 -1.5777 -0.0633 -0.3767
 3826TIP3    H233038   2.297   6.400   2.101 -0.9663  0.4792  1.6978
 3827TIP3   OH233039   1.998   4.012   2.123 -0.2056 -0.1909 -0.1247
 3827TIP3    H133040   1.978   3.992   2.032 -0.0634  1.8489 -0.6496
 3827TIP3    H233041   2.092   4.031   2.124  0.0315 -1.2621  0.6836
 3828TIP3   OH233042   0.267   5.786   7.862  0.8034  0.3779 -0.2636
 3828TIP3    H133043   0.270   5.709   7.804 -0.1857  1.0828 -1.3062
 3828TIP3    H233044   0.244   5.858   7.803 -0.6865  1.0543  1.0831
 3829TIP3   OH233045   5.107   2.016   0.500  0.7771 -0.0000 -0.9221
 3829TIP3    H133046   5.147   1.965   0.430  0.5356  0.4726 -1.4172
 3829TIP3    H233047   5.166   2.090   0.513  0.9477 -0.2169 -0.4534
 3830TIP3   OH233048   5.624   2.661   6.623  0.4068  0.1735 -0.0753
 3830TIP3    H133049   5.644   2.752   6.604 -0.9591  0.9861  2.1098
 3830TIP3    H233050   5.531   2.652   6.604  0.9412 -1.3799 -2.2925
 3831TIP3   OH233051   1.867   5.165   1.507 -0.3225 -0.3442  0.0172
 3831TIP3    H133052   1.962   5.163   1.497 -0.4361 -0.4304 -1.1665
 3831TIP3    H233053   1.853   5.169   1.602  0.8651  0.2955  0.1885
 3832TIP3   OH233054   0.230   5.853   0.530  0.1660  0.0194 -0.8556
 3832TIP3    H133055   0.287   5.777   0.539 -0.0249 -0.1163 -0.7663
 3832TIP3    H233056   0.206   5.876   0.620  1.5161  1.1936 -0.7558
 3833TIP3   OH233057   6.604   3.772   0.616 -0.3324 -0.1064 -0.4777
 3833TIP3    H133058   6.510   3.761   0.630  0.0524 -0.5403  2.4726
 3833TIP3    H233059   6.635   3.812   0.697  2.0748 -0.1957 -1.2890
 3834TIP3   OH233060   2.668   4.295   0.336  0.1202  0.2657 -1.0046
 3834TIP3    H133061   2.726   4.255   0.271 -0.9539 -0.8899 -1.2947
 3834TIP3    H233062   2.700   4.263   0.420 -0.3327 -0.6939 -1.1915
 3835TIP3   OH233063   2.018   4.273   8.437  0.0118 -0.0222  0.0573
 3835TIP3    H133064   2.082   4.226   8.490  0.2835 -0.3387 -0.5410
 3835TIP3    H233065   2.012   4.223   8.356 -1.4500 -0.3367  0.3412
 3836TIP3   OH233066   1.980   6.698   8.506 -0.2233  0.0807  0.3497
 3836TIP3    H133067   2.003   6.724   8.595  0.7537  1.6617 -0.3287
 3836TIP3    H233068   1.941   6.776   8.467 -1.0892 -0.7341 -0.4875
 3837TIP3   OH233069   3.267   3.592   8.684 -0.0733  0.1759 -0.5237
 3837TIP3    H133070   3.329   3.606   8.755  0.4039  0.3485 -0.9676
 3837TIP3    H233071   3.228   3.678   8.668 -0.8940 -0.0541  0.1716
 3838TIP3   OH233072   6.412   5.690   1.716 -0.0843 -0.1424  0.8139
 3838TIP3    H133073   6.471   5.746   1.666 -0.5532 -1.5043 -1.3714
 3838TIP3    H233074   6.336   5.746   1.734 -2.7670 -0.9778 -5.4432
 3839TIP3   OH233075   6.431   0.441   0.894 -0.5489 -0.2139  0.2715
 3839TIP3    H133076   6.451   0.353   0.865 -0.6414 -0.3214  0.5273
 3839TIP3    H233077   6.339   0.437   0.921  0.0490 -0.6317  2.4507
 3840TIP3   OH233078   2.480   1.559   7.061  0.2896  0.7064  0.1860
 3840TIP3    H133079   2.575   1.566   7.069  0.2754 -0.5935  2.5623
 3840TIP3    H233080   2.462   1.465   7.069 -1.1903  0.9100 -0.4243
 3841TIP3   OH233081   2.467   6.796   0.990  0.0007  0.0375  0.1783
 3841TIP3    H133082   2.427   6.851   1.058  1.1163 -0.8733  1.6175
 3841TIP3    H233083   2.553   6.773   1.025  0.5924 -0.4888 -1.5497
 3842TIP3   OH233084   4.276   2.401   6.826 -0.2751 -0.1984 -0.3592
 3842TIP3    H133085   4.284   2.342   6.751 -1.6871 -1.4206  0.4109
 3842TIP3    H233086   4.188   2.385   6.860 -0.0971  1.2067  0.8462
 3843TIP3   OH233087   5.939   1.198   7.328  0.0397  0.3083 -0.8642
 3843TIP3    H133088   5.865   1.206   7.388 -1.2274 -0.1485 -2.3002
 3843TIP3    H233089   6.013   1.174   7.384 -0.5188  2.2290  0.8151
 3844TIP3   OH233090   5.592   1.462   0.951 -0.6426 -0.2523 -0.6269
 3844TIP3    H133091   5.635   1.388   0.909  0.3682  1.0671 -2.0566
 3844TIP3    H233092   5.506   1.468   0.908 -1.1945 -1.2507  0.3033
 3845TIP3   OH233093   0.176   4.895   5.937  0.6049  0.0555 -0.0461
 3845TIP3    H133094   0.134   4.973   5.902  1.0933  0.8458  1.0684
 3845TIP3    H233095   0.104   4.835   5.955  0.1859  0.4087 -0.5069
 3846TIP3   OH233096   4.161   6.454   0.706  0.5585  0.5391 -0.4441
 3846TIP3    H133097   4.217   6.529   0.686 -0.4462  1.7935  1.2530
 3846TIP3    H233098   4.097   6.452   0.635  0.0428  1.8638 -0.0396
 3847TIP3   OH233099   4.091   1.867   1.579 -0.0197  0.1816  0.4386
 3847TIP3    H133100   4.101   1.953   1.538 -0.2472  1.1999  2.4132
 3847TIP3    H233101   4.174   1.823   1.562  0.1692  0.8488 -0.4430
 3848TIP3   OH233102   0.580   1.118   7.181  0.2557 -0.1125  0.0307
 3848TIP3    H133103   0.674   1.101   7.174  0.5224  1.0469  0.5483
 3848TIP3    H233104   0.539   1.051   7.126  1.3945 -0.4522 -0.4235
 3849TIP3   OH233105   0.342   3.393   7.727 -0.7264  0.0918  0.0328
 3849TIP3    H133106   0.413   3.345   7.770 -1.6318 -1.0333  0.3207
 3849TIP3    H233107   0.372   3.401   7.636  0.1021  0.3075  0.3111
 3850TIP3   OH233108   3.327   5.237   8.780  0.0880 -0.6837 -0.5158
 3850TIP3    H133109   3.373   5.244   8.696  1.2308  0.7765  0.1912
 3850TIP3    H233110   3.234   5.245   8.757  0.3932 -0.1804 -1.6300
 3851TIP3   OH233111   3.522   3.171   7.996 -0.0932 -0.6317  0.0043
 3851TIP3    H133112   3.552   3.253   8.034 -1.1493 -0.2553  0.0540
 3851TIP3    H233113   3.464   3.197   7.924  0.0127 -1.3314 -0.3471
 3852TIP3   OH233114   4.656   2.792   8.456  0.0717  0.2944 -0.1474
 3852TIP3    H133115   4.585   2.809   8.393  0.3511 -0.1692 -0.5962
 3852TIP3    H233116   4.734   2.828   8.414  0.5391 -1.3613 -0.7817
 3853TIP3   OH233117   3.829   5.859   0.467 -0.1699  0.1061  0.3431
 3853TIP3    H133118   3.862   5.916   0.536 -2.3508  0.6702  1.0153
 3853TIP3    H233119   3.820   5.916   0.390 -0.6595  0.2432  0.4991
 3854TIP3   OH233120   5.864   0.806   6.184 -0.0173 -0.0148  0.3283
 3854TIP3    H133121   5.842   0.893   6.152  0.7365  0.0742  0.0357
 3854TIP3    H233122   5.959   0.799   6.171 -0.1695 -1.1256 -0.2674
 3855TIP3   OH233123   6.627   3.916   7.638 -0.2237 -0.0134 -0.0415
 3855TIP3    H133124   6.674   3.904   7.556 -1.3306  1.8899 -1.0115
 3855TIP3    H233125   6.650   4.004   7.667 -0.0813 -0.5390  1.5663
 3856TIP3   OH233126   1.824   0.115   1.427 -0.4053 -0.4013 -0.6593
 3856TIP3    H133127   1.771   0.035   1.426  0.5534 -1.0995  0.4473
 3856TIP3    H233128   1.787   0.168   1.497  0.1580 -0.7741 -0.0618
 3857TIP3   OH233129   6.641   1.265   0.394 -0.3290  0.3789 -0.5899
 3857TIP3    H133130   6.697   1.271   0.316 -0.9309  0.0826 -1.0537
 3857TIP3    H233131   6.552   1.276   0.360 -0.6134 -0.0276  0.0157
 3858TIP3   OH233132   5.617   0.605   0.205  0.4010 -0.5716  0.0454
 3858TIP3    H133133   5.538   0.554   0.188  0.5207 -1.2755  1.3928
 3858TIP3    H233134   5.622   0.668   0.133 -2.1101  0.3871  0.6058
 3859TIP3   OH233135   6.590   6.629   6.246 -0.2325  0.3793 -0.0484
 3859TIP3    H133136   6.600   6.548   6.195 -1.9867 -0.4852  0.8913
 3859TIP3    H233137   6.679   6.658   6.263  0.4229 -0.9805 -0.9794
 3860TIP3   OH233138   4.082   1.845   7.755 -0.8210  0.0598  0.4222
 3860TIP3    H133139   4.167   1.863   7.795 -0.3445  1.9372 -1.2758
 3860TIP3    H233140   4.018   1.860   7.825  0.1238  0.4690  1.2179
 3861TIP3   OH233141   4.363   2.122   0.337 -0.2869  0.4078  0.4621
 3861TIP3    H133142   4.284   2.116   0.391  0.3075  1.1805  1.4577
 3861TIP3    H233143   4.434   2.129   0.401  0.4425  1.2815 -0.4359
 3862TIP3   OH233144   0.385   6.115   2.420  0.4529  0.1039  0.2597
 3862TIP3    H133145   0.457   6.085   2.475 -0.1181  1.3458  1.7407
 3862TIP3    H233146   0.415   6.198   2.383  0.4700 -0.2686 -0.6014
 3863TIP3   OH233147   5.073   2.085   1.717  0.1759  0.0471 -0.7610
 3863TIP3    H133148   5.095   2.063   1.627  1.7655  0.4367 -0.5045
 3863TIP3    H233149   5.117   2.018   1.770  1.3618  1.1993 -0.1977
 3864TIP3   OH233150   0.529   1.004   8.275 -0.4219 -0.1788 -0.0956
 3864TIP3    H133151   0.501   1.094   8.255 -1.1089 -1.0288 -3.6551
 3864TIP3    H233152   0.621   1.012   8.298 -0.4005  1.4527 -0.5910
 3865TIP3   OH233153   0.467   6.531   0.069  0.5816  0.1680 -0.5272
 3865TIP3    H133154   0.442   6.611   0.024 -1.3493  1.1176  2.0327
 3865TIP3    H233155   0.457   6.462   0.003 -3.9241  1.2140 -1.2021
 3866TIP3   OH233156   0.832   0.612   7.198  0.0900  0.4281 -0.0565
 3866TIP3    H133157   0.852   0.662   7.277  2.4438  0.6674 -0.7142
 3866TIP3    H233158   0.894   0.539   7.199 -1.6106 -1.0806 -0.3915
 3867TIP3   OH233159   3.435   0.539   7.979  0.2357  0.1447 -0.0211
 3867TIP3    H133160   3.375   0.612   7.996 -0.1368 -0.0057 -0.6545
 3867TIP3    H233161   3.411   0.472   8.043  0.6874  0.6338  0.6700
 3868TIP3   OH233162   3.353   6.418   6.946  0.0803  0.1769  0.2381
 3868TIP3    H133163   3.348   6.368   6.864  2.4379 -0.2344  0.2637
 3868TIP3    H233164   3.301   6.367   7.008 -0.1299 -0.5544 -0.5207
 3869TIP3   OH233165   3.015   4.362   0.262  0.0223 -0.2762 -0.0590
 3869TIP3    H133166   2.945   4.320   0.212 -0.9350  0.6773  0.4624
 3869TIP3    H233167   3.001   4.456   0.251  1.1241 -0.0633  0.1885
 3870TIP3   OH233168   6.354   4.336   0.699  0.0659 -0.0798  0.1302
 3870TIP3    H133169   6.404   4.322   0.779  1.9758 -1.4572 -1.2291
 3870TIP3    H233170   6.348   4.431   0.690  1.3433  0.1007  0.9876
 3871TIP3   OH233171   5.841   1.821   7.315 -0.0537  0.2088  0.3697
 3871TIP3    H133172   5.830   1.807   7.221  1.1913 -0.5674  0.3060
 3871TIP3    H233173   5.894   1.901   7.321  1.0971 -0.5173  0.3193
 3872TIP3   OH233174   0.753   5.997   1.668  0.2196 -0.1092 -0.2327
 3872TIP3    H133175   0.695   5.983   1.594 -0.9987  1.1407  0.4470
 3872TIP3    H233176   0.827   5.939   1.651  0.1491  0.3654 -2.6006
 3873TIP3   OH233177   0.311   4.132   1.066 -0.0400 -0.1429 -0.0144
 3873TIP3    H133178   0.359   4.052   1.091  0.1334  0.4131  1.5880
 3873TIP3    H233179   0.353   4.161   0.985 -0.1743 -1.7149 -0.6859
 3874TIP3   OH233180   4.868   2.308   7.888 -0.4981  0.3808  0.2592
 3874TIP3    H133181   4.853   2.217   7.913  1.0576 -0.1621 -0.6424
 3874TIP3    H233182   4.856   2.358   7.969 -0.3960 -0.7384  0.9783
 3875TIP3   OH233183   0.025   2.866   8.464  0.4617 -0.0038 -0.1712
 3875TIP3    H133184   0.065   2.874   8.377 -0.0766 -0.6242 -0.4818
 3875TIP3    H233185   0.079   2.802   8.510  0.3350 -0.2021 -0.2957
 3876TIP3   OH233186   5.411   0.209   8.342  0.0574  0.0516 -0.3707
 3876TIP3    H133187   5.362   0.129   8.364 -0.2012  0.5142  0.8294
 3876TIP3    H233188   5.358   0.251   8.274 -0.4810 -0.1668 -0.1006
 3877TIP3   OH233189   3.044   3.940   1.939 -0.1041 -0.3469 -0.1788
 3877TIP3    H133190   3.098   3.867   1.909  0.5713 -0.5205  1.3954
 3877TIP3    H233191   3.106   4.012   1.952 -0.5969  0.1652 -0.5449
 3878TIP3   OH233192   6.298   3.059   7.824 -0.2526 -0.2014  0.9287
 3878TIP3    H133193   6.268   3.110   7.900 -3.4755  0.9636 -0.9653
 3878TIP3    H233194   6.350   3.121   7.773 -2.0822  0.5051 -0.1303
 3879TIP3   OH233195   3.093   6.400   0.239  0.4454  0.3263  0.0617
 3879TIP3    H133196   3.032   6.433   0.173  1.1703  1.4409 -0.0666
 3879TIP3    H233197   3.174   6.385   0.191  0.9707  1.1081  0.6784
 3880TIP3   OH233198   5.140   5.238   7.670  1.3677  0.4476  0.4692
 3880TIP3    H133199   5.147   5.153   7.712  1.2789 -0.3238 -1.0120
 3880TIP3    H233200   5.133   5.218   7.576 -0.4221  1.9993  0.2218
 3881TIP3   OH233201   2.790   1.846   0.991 -0.1975 -0.3912 -0.2151
 3881TIP3    H133202   2.825   1.757   0.993 -0.2753 -0.4164  0.0494
 3881TIP3    H233203   2.861   1.901   1.024 -1.1339 -0.6929  2.6126
 3882TIP3   OH233204   0.365   3.376   1.604  0.1158  0.5952  0.0241
 3882TIP3    H133205   0.437   3.337   1.556  0.9933  1.8607  0.2440
 3882TIP3    H233206   0.380   3.351   1.695 -1.0442 -1.0574 -0.2080
 3883TIP3   OH233207   3.431   6.107   8.735  0.0871  0.0106 -0.2384
 3883TIP3    H133208   3.479   6.143   8.660  0.3805  0.2653  0.0697
 3883TIP3    H233209   3.344   6.087   8.700  0.2197  0.1313 -0.6470
 3884TIP3   OH233210   5.425   3.605   7.741 -0.0718 -0.1581  0.5370
 3884TIP3    H133211   5.511   3.625   7.779 -0.1294 -1.9281  1.7510
 3884TIP3    H233212   5.432   3.514   7.714 -1.7865 -0.5846  1.3859
 3885TIP3   OH233213   0.727   5.703   0.325  0.2808 -0.2463  0.2835
 3885TIP3    H133214   0.693   5.614   0.313 -0.0955 -0.1774  0.8124
 3885TIP3    H233215   0.735   5.738   0.237 -0.5932 -0.4271  0.1299
 3886TIP3   OH233216   4.061   0.667   1.757  0.3778  0.2529  0.5493
 3886TIP3    H133217   4.028   0.609   1.688  0.9360  1.5064 -0.8320
 3886TIP3    H233218   4.121   0.613   1.807  0.5883 -0.4735 -0.4545
 3887TIP3   OH233219   0.678   0.236   0.535  0.5272 -0.4807  0.7557
 3887TIP3    H133220   0.666   0.326   0.504  1.8070 -0.1787  1.0807
 3887TIP3    H233221   0.658   0.181   0.459  3.1736  0.2198 -0.5725
 3888TIP3   OH233222   2.664   2.162   0.788 -0.3743 -0.1423  0.3324
 3888TIP3    H133223   2.744   2.215   0.791  0.3500 -1.1465 -0.3305
 3888TIP3    H233224   2.696   2.072   0.787 -1.6266 -0.7115  3.3253
 3889TIP3   OH233225   5.458   6.091   0.547 -0.0510  0.0806 -0.1674
 3889TIP3    H133226   5.507   6.170   0.524 -0.7102  0.6245  0.2564
 3889TIP3    H233227   5.513   6.019   0.517  1.6477  0.6179  1.4335
 3890TIP3   OH233228   5.040   4.949   2.124  0.6350  0.6359  0.1297
 3890TIP3    H133229   4.969   4.928   2.184  0.8732  1.2960  0.6532
 3890TIP3    H233230   5.004   5.015   2.066 -0.2242 -1.3347 -1.7365
 3891TIP3   OH233231   3.665   3.768   7.206 -0.4033 -0.0463 -0.1971
 3891TIP3    H133232   3.671   3.812   7.121  0.2338 -0.9894 -0.6587
 3891TIP3    H233233   3.667   3.838   7.270 -0.8573  0.6799 -0.9650
 3892TIP3   OH233234   5.918   3.824   7.498  0.7141 -0.0551  0.4605
 3892TIP3    H133235   6.005   3.826   7.459  0.3925  0.9504 -0.2399
 3892TIP3    H233236   5.931   3.859   7.586  1.2369 -1.2090  0.8642
 3893TIP3   OH233237   4.657   0.666   7.996  0.5257  0.1236 -0.5180
 3893TIP3    H133238   4.591   0.730   8.023 -0.2162 -0.9058  0.2084
 3893TIP3    H233239   4.618   0.622   7.920 -0.5214 -1.7337  0.9784
 3894TIP3   OH233240   6.617   3.215   2.096 -0.3204 -0.0361 -0.6595
 3894TIP3    H133241   6.580   3.295   2.134 -0.9932  0.1714 -1.6993
 3894TIP3    H233242   6.712   3.227   2.102 -0.4048  1.2501 -1.6041
 3895TIP3   OH233243   4.285   5.022   6.423  0.3272 -0.6619 -0.0315
 3895TIP3    H133244   4.230   5.070   6.361  1.6225  1.6585  0.5048
 3895TIP3    H233245   4.257   4.931   6.414 -2.3087  0.1582 -1.0770
 3896TIP3   OH233246   1.993   4.589   7.476  0.0213 -0.7567 -0.3155
 3896TIP3    H133247   1.993   4.639   7.394  1.1521 -1.1085 -0.5569
 3896TIP3    H233248   2.086   4.568   7.490 -0.2906 -1.6414  0.4776
 3897TIP3   OH233249   6.401   1.748   2.278 -0.4813  0.3706  0.0726
 3897TIP3    H133250   6.374   1.838   2.296  0.9351  1.2190 -1.6850
 3897TIP3    H233251   6.497   1.752   2.274 -0.3849 -1.2410  0.0683
 3898TIP3   OH233252   1.603   4.995   0.290  0.0015 -0.4542  0.2459
 3898TIP3    H133253   1.537   5.058   0.262  0.2180 -0.0328  0.6757
 3898TIP3    H233254   1.676   5.048   0.321 -0.6711 -0.8347  2.7178
 3899TIP3   OH233255   3.207   1.428   8.114  0.6099 -0.1054 -0.1472
 3899TIP3    H133256   3.202   1.358   8.179  0.7002  0.9356  1.0465
 3899TIP3    H233257   3.240   1.503   8.164 -2.6374  1.7520 -0.5251
 3900TIP3   OH233258   5.529   0.153   1.285 -0.1797 -0.1486 -0.3444
 3900TIP3    H133259   5.447   0.175   1.330  0.3895  0.9580  0.2106
 3900TIP3    H233260   5.589   0.128   1.355  0.5166  0.9305 -0.5327
 3901TIP3   OH233261   6.479   6.756   6.639 -0.5515  0.2577  0.5699
 3901TIP3    H133262   6.448   6.760   6.730 -0.8207 -0.7827  0.5353
 3901TIP3    H233263   6.517   6.668   6.630  2.0805  1.2930  0.4893
 3902TIP3   OH233264   5.343   2.465   1.294  0.0975  0.1604 -0.5807
 3902TIP3    H133265   5.302   2.379   1.294  0.2372  0.0858  0.1641
 3902TIP3    H233266   5.371   2.478   1.385  2.0836  0.0385 -1.1305
 3903TIP3   OH233267   6.698   2.647   6.535  0.5099  0.2684  0.0763
 3903TIP3    H133268   6.769   2.587   6.558  0.4188  0.3371  0.5534
 3903TIP3    H233269   6.630   2.591   6.498  1.0206  0.2686 -0.8945
 3904TIP3   OH233270   5.863   1.275   0.727  0.2057 -0.1394  0.0838
 3904TIP3    H133271   5.949   1.262   0.686  0.4664  1.4270  0.0916
 3904TIP3    H233272   5.874   1.351   0.783 -0.6417 -1.1530  1.7156
 3905TIP3   OH233273   3.652   0.109   0.276 -0.1095 -0.2315 -0.0344
 3905TIP3    H133274   3.692   0.194   0.296 -2.2520  0.5684  1.2869
 3905TIP3    H233275   3.725   0.049   0.265  1.4491  1.3813  0.9956
 3906TIP3   OH233276   2.563   5.743   0.333  0.2313 -0.3627 -0.0324
 3906TIP3    H133277   2.618   5.668   0.308  0.9333  0.0951  0.1201
 3906TIP3    H233278   2.606   5.779   0.411  0.2320  0.5525 -0.4484
 3907TIP3   OH233279   1.955   6.120   7.005  0.3366  0.5955 -0.3781
 3907TIP3    H133280   1.874   6.097   6.960  0.3391 -0.6373  0.1855
 3907TIP3    H233281   1.991   6.036   7.034  0.8856  1.2552  0.9588
 3908TIP3   OH233282   0.660   3.423   7.153 -0.1605 -0.2075  0.7630
 3908TIP3    H133283   0.739   3.423   7.207  0.8243 -0.6540 -0.6094
 3908TIP3    H233284   0.691   3.400   7.065 -1.3445  2.5313 -0.5053
 3909TIP3   OH233285   3.627   6.151   0.684 -0.1359 -0.1512  0.3405
 3909TIP3    H133286   3.695   6.169   0.748 -1.3676 -0.3427  1.7670
 3909TIP3    H233287   3.568   6.227   0.690  0.3650  0.4226 -1.4780
 3910TIP3   OH233288   4.840   1.505   7.797  0.3362  0.0738  0.1056
 3910TIP3    H133289   4.794   1.472   7.874 -0.6215  0.5948 -0.2408
 3910TIP3    H233290   4.869   1.593   7.821  1.2237 -0.2699  0.3425
 3911TIP3   OH233291   0.684   4.551   0.905  0.4230  0.1620 -0.3533
 3911TIP3    H133292   0.702   4.482   0.968  1.1167  0.6775  0.0292
 3911TIP3    H233293   0.703   4.511   0.820  2.3824  0.3360 -0.0367
 3912TIP3   OH233294   4.736   0.787   1.166  0.9169 -0.6889  0.1558
 3912TIP3    H133295   4.678   0.848   1.210  0.2847  0.8241 -2.5255
 3912TIP3    H233296   4.808   0.772   1.228 -0.4499  0.3371  2.0752
 3913TIP3   OH233297   5.149   4.383   8.339 -0.4943  0.2019 -0.0181
 3913TIP3    H133298   5.055   4.399   8.329 -0.3121  1.1117 -0.4040
 3913TIP3    H233299   5.184   4.396   8.251  0.3533  2.6014  0.5774
 3914TIP3   OH233300   4.519   0.322   7.621  0.1160  0.4201 -0.3319
 3914TIP3    H133301   4.456   0.327   7.549 -1.1797 -0.9399  0.6368
 3914TIP3    H233302   4.602   0.304   7.579 -0.1037  2.1557 -1.6494
 3915TIP3   OH233303   1.551   0.439   6.675  0.3206  0.1329  0.1876
 3915TIP3    H133304   1.508   0.430   6.590  0.0990 -0.8486  0.3887
 3915TIP3    H233305   1.499   0.385   6.734  2.1671 -1.6524  0.3113
 3916TIP3   OH233306   5.601   0.965   2.011  0.3117  0.4030  0.1997
 3916TIP3    H133307   5.595   1.021   1.935  0.8447  0.5704  0.2760
 3916TIP3    H233308   5.520   0.979   2.059  0.5878  1.3685  0.3949
 3917TIP3   OH233309   5.541   5.500   1.408  0.3518 -0.1183 -0.2646
 3917TIP3    H133310   5.472   5.478   1.346  1.2815 -2.0193 -0.6910
 3917TIP3    H233311   5.553   5.595   1.398 -1.4267  0.0666 -0.9422
 3918TIP3   OH233312   4.723   4.574   0.760  0.1670  0.3518  0.4225
 3918TIP3    H133313   4.735   4.604   0.850 -2.0991  1.7114  0.3602
 3918TIP3    H233314   4.696   4.483   0.768 -1.2080  0.7893  1.2734
 3919TIP3   OH233315   2.668   1.303   2.160  0.7290 -0.6649  0.5546
 3919TIP3    H133316   2.642   1.246   2.088  0.4121 -0.5527  0.5770
 3919TIP3    H233317   2.597   1.294   2.224  0.6528 -0.2073  0.5380
 3920TIP3   OH233318   5.207   0.218   6.488 -0.3878 -0.4887  0.2417
 3920TIP3    H133319   5.268   0.292   6.488 -0.5964 -0.3077  0.9282
 3920TIP3    H233320   5.225   0.172   6.406  1.3144 -0.9827  0.8497
 3921TIP3   OH233321   1.746   1.326   6.137  0.2547  0.3112  0.3781
 3921TIP3    H133322   1.792   1.285   6.064  0.9428  0.9384  0.4515
 3921TIP3    H233323   1.763   1.268   6.211  0.0914  0.0194  0.1934
 3922TIP3   OH233324   0.468   2.895   5.857 -0.1202 -0.0542  0.2080
 3922TIP3    H133325   0.409   2.821   5.869  0.4437 -0.6900 -0.7586
 3922TIP3    H233326   0.510   2.908   5.942  0.5598 -1.5521  0.1224
 3923TIP3   OH233327   3.415   6.449   8.425  0.1208  0.2707 -0.6053
 3923TIP3    H133328   3.322   6.471   8.423 -0.1564 -0.4081  1.4733
 3923TIP3    H233329   3.449   6.478   8.341 -2.1277 -0.1706 -1.7574
 3924TIP3   OH233330   2.662   0.917   1.654  0.5544  0.5121 -0.0548
 3924TIP3    H133331   2.660   1.007   1.622 -1.2887  0.8134  0.7808
 3924TIP3    H233332   2.585   0.910   1.709  0.7441 -1.5615  0.0079
 3925TIP3   OH233333   4.101   3.879   8.417  0.3814  0.0575 -0.0957
 3925TIP3    H133334   4.132   3.829   8.342 -2.0530 -1.7018 -0.0531
 3925TIP3    H233335   4.167   3.947   8.431  2.0447 -1.0093 -2.3565
 3926TIP3   OH233336   2.590   6.135   8.099  0.4660 -0.2553 -0.1611
 3926TIP3    H133337   2.659   6.200   8.085  0.7468 -0.6941 -0.8616
 3926TIP3    H233338   2.557   6.154   8.187  2.0889 -0.6023  0.5632
 3927TIP3   OH233339   2.983   4.443   1.044  0.0643 -0.1794 -0.3155
 3927TIP3    H133340   2.961   4.500   0.971  0.5305  0.5181  0.0677
 3927TIP3    H233341   2.973   4.499   1.121  2.9722  0.2274 -0.0883
 3928TIP3   OH233342   3.638   6.627   7.767  0.1727 -0.0019 -0.2211
 3928TIP3    H133343   3.610   6.545   7.808 -0.0480 -0.3040 -0.9644
 3928TIP3    H233344   3.654   6.686   7.841 -0.6018 -0.4094  0.2912
 3929TIP3   OH233345   4.169   2.191   1.537  0.0813  0.0903 -0.1047
 3929TIP3    H133346   4.116   2.263   1.503  0.3256  0.4856  0.3442
 3929TIP3    H233347   4.225   2.165   1.464  1.0145  1.3148  0.1457
 3930TIP3   OH233348   1.197   1.058   7.644 -0.2381  0.4580  0.3961
 3930TIP3    H133349   1.243   1.053   7.728  1.3529  0.2899 -0.4301
 3930TIP3    H233350   1.244   0.997   7.588 -1.8300 -0.1015 -0.3879
 3931TIP3   OH233351   0.069   1.638   0.477 -0.2554  0.2540  0.3440
 3931TIP3    H133352   0.038   1.720   0.515 -0.0207  0.2047  0.6422
 3931TIP3    H233353   0.105   1.589   0.551  0.6694  0.3704 -0.0129
 3932TIP3   OH233354   5.407   5.905   7.701  0.0146  0.4204  0.3358
 3932TIP3    H133355   5.496   5.921   7.670  0.0639 -0.1132  0.1821
 3932TIP3    H233356   5.388   5.979   7.758 -0.0248  1.3479 -0.8325
 3933TIP3   OH233357   6.541   0.672   8.326  0.3952  0.2959 -0.4514
 3933TIP3    H133358   6.522   0.593   8.276  0.5554  0.7470 -1.2357
 3933TIP3    H233359   6.500   0.657   8.411  3.0103 -1.9681  0.5625
 3934TIP3   OH233360   6.599   5.720   6.630 -0.1707 -0.2996  0.0423
 3934TIP3    H133361   6.675   5.758   6.585  0.6937 -2.1425 -0.1237
 3934TIP3    H233362   6.589   5.776   6.708  2.6626 -1.1305  1.1590
 3935TIP3   OH233363   1.673   5.435   7.222  0.4100  0.1047 -0.2624
 3935TIP3    H133364   1.654   5.348   7.188  1.3761  0.1184 -0.8853
 3935TIP3    H233365   1.749   5.422   7.279  0.3939  0.4993 -0.1477
 3936TIP3   OH233366   5.343   1.049   8.545 -0.1989  0.5437  0.6343
 3936TIP3    H133367   5.256   1.039   8.505 -0.5996  1.2736  1.3016
 3936TIP3    H233368   5.404   1.021   8.477 -0.9424  0.3221  0.0456
 3937TIP3   OH233369   1.250   2.887   2.022  0.4285 -0.2414  0.2806
 3937TIP3    H133370   1.269   2.809   1.970  1.1350 -2.3924  3.4123
 3937TIP3    H233371   1.328   2.942   2.011 -0.2989  0.3654 -2.3839
 3938TIP3   OH233372   1.467   4.456   8.403  1.0105 -0.7424  0.3720
 3938TIP3    H133373   1.432   4.515   8.336 -1.6113 -2.3394  0.1647
 3938TIP3    H233374   1.557   4.439   8.377  1.2028  1.5562 -0.6463
 3939TIP3   OH233375   1.682   1.444   8.693  0.2972 -0.2133  0.5503
 3939TIP3    H133376   1.732   1.363   8.682 -0.0953 -0.6329  1.6719
 3939TIP3    H233377   1.663   1.447   8.787 -1.7589 -0.0680  0.1871
 3940TIP3   OH233378   5.201   0.943   7.777  0.1579 -0.1016 -0.3238
 3940TIP3    H133379   5.263   0.885   7.732  0.5269  1.9232 -2.5926
 3940TIP3    H233380   5.199   0.909   7.867  1.2237 -2.8789 -1.2137
 3941TIP3   OH233381   3.118   1.742   8.594  0.0734  0.3058 -0.3863
 3941TIP3    H133382   3.078   1.699   8.519 -2.0501  1.4596 -0.0021
 3941TIP3    H233383   3.095   1.686   8.669 -1.5531  1.3454 -0.0648
 3942TIP3   OH233384   4.642   6.643   8.333  0.4011  0.0190  0.0942
 3942TIP3    H133385   4.682   6.716   8.287 -1.3278  0.6404 -0.4998
 3942TIP3    H233386   4.548   6.657   8.323  0.0155 -1.2611  1.6037
 3943TIP3   OH233387   2.133   0.993   7.506  0.4243  0.5049 -0.0032
 3943TIP3    H133388   2.107   1.075   7.548 -1.3044 -0.8636  1.8155
 3943TIP3    H233389   2.087   0.925   7.557  1.7922 -1.5867 -1.4265
 3944TIP3   OH233390   0.347   0.115   1.623 -0.2519 -0.3324  0.2778
 3944TIP3    H133391   0.443   0.119   1.628 -0.1384 -0.8131 -1.1261
 3944TIP3    H233392   0.329   0.060   1.547 -1.6540  0.5783 -0.0761
 3945TIP3   OH233393   4.424   3.895   7.405 -0.3102 -0.2677  0.0550
 3945TIP3    H133394   4.369   3.903   7.327 -0.3212 -0.5729  0.0323
 3945TIP3    H233395   4.420   3.982   7.446  0.4605  0.1915 -0.8014
 3946TIP3   OH233396   1.065   2.435   6.892  0.1346  0.0353 -0.0612
 3946TIP3    H133397   1.120   2.390   6.829 -2.2654 -0.8138 -1.7040
 3946TIP3    H233398   1.049   2.371   6.961  1.9179  0.6220  0.9617
 3947TIP3   OH233399   1.942   4.593   8.411  0.0362 -0.1157 -0.6578
 3947TIP3    H133400   1.894   4.531   8.466  0.2627 -0.3297 -0.6997
 3947TIP3    H233401   1.992   4.646   8.472 -1.2653  0.9922 -0.5161
 3948TIP3   OH233402   6.162   3.380   1.147 -0.2410 -0.4711 -0.7187
 3948TIP3    H133403   6.234   3.369   1.085 -2.1077  0.5424 -3.2415
 3948TIP3    H233404   6.134   3.290   1.168  2.2607 -0.9276  1.1045
 3949TIP3   OH233405   2.212   1.077   0.898  0.5005 -0.3523  0.2130
 3949TIP3    H133406   2.290   1.037   0.937  1.6197  1.7816  0.3142
 3949TIP3    H233407   2.200   1.029   0.816  0.8014 -1.9292  1.0530
 3950TIP3   OH233408   6.553   2.548   1.767  0.1613 -0.1551  0.0532
 3950TIP3    H133409   6.543   2.572   1.859  0.6066 -0.2110  0.1178
 3950TIP3    H233410   6.637   2.502   1.763  0.3223  0.1742 -0.4479
 3951TIP3   OH233411   2.609   1.675   7.562  0.4067  0.7392 -0.6000
 3951TIP3    H133412   2.572   1.736   7.498 -1.9601  2.2573  2.0108
 3951TIP3    H233413   2.533   1.625   7.594  1.0540  1.4515  2.3793
 3952TIP3   OH233414   4.899   3.453   0.826 -0.8650 -0.5325  0.0257
 3952TIP3    H133415   4.849   3.451   0.907 -0.0990 -1.2783  0.4857
 3952TIP3    H233416   4.885   3.367   0.786 -0.5962 -0.4580 -0.2387
 3953TIP3   OH233417   5.410   1.305   0.406  0.6290  0.3587 -0.2570
 3953TIP3    H133418   5.397   1.219   0.446  1.9181  0.5424  0.5889
 3953TIP3    H233419   5.388   1.291   0.314 -1.4362 -0.3037  0.2680
 3954TIP3   OH233420   4.557   3.476   7.520 -0.8229  0.2281 -0.1710
 3954TIP3    H133421   4.476   3.493   7.472  0.3505  2.1243 -1.6343
 3954TIP3    H233422   4.533   3.410   7.585 -3.3786  0.2986 -0.9307
 3955TIP3   OH233423   3.247   5.165   7.958  0.4081 -0.4582 -0.0356
 3955TIP3    H133424   3.197   5.086   7.938 -0.3405 -0.1157  0.4634
 3955TIP3    H233425   3.182   5.233   7.969  1.0106  0.0881  0.2046
 3956TIP3   OH233426   2.683   6.734   0.299 -0.7685 -0.2948 -0.5692
 3956TIP3    H133427   2.764   6.714   0.345 -1.2346  1.5764  1.1853
 3956TIP3    H233428   2.711   6.750   0.208  0.6826 -0.6232 -0.2039
 3957TIP3   OH233429   0.892   3.983   8.046 -0.1696  0.1273  0.0608
 3957TIP3    H133430   0.824   4.044   8.073 -1.1636  0.0713 -2.1304
 3957TIP3    H233431   0.848   3.898   8.039  0.4010 -0.1460 -0.3121
 3958TIP3   OH233432   2.597   0.321   1.596  0.0711 -0.2192 -0.0990
 3958TIP3    H133433   2.625   0.386   1.532  1.4456 -1.5725 -0.9462
 3958TIP3    H233434   2.513   0.353   1.628  1.7256  3.2069  1.3137
 3959TIP3   OH233435   0.309   2.633   1.087  0.1729 -0.4230 -0.0227
 3959TIP3    H133436   0.247   2.691   1.131  0.4391 -0.1827  0.0441
 3959TIP3    H233437   0.269   2.547   1.090 -1.5067  0.1650 -2.4627
 3960TIP3   OH233438   3.197   5.157   8.530  0.0984 -0.2413  0.1086
 3960TIP3    H133439   3.250   5.083   8.561 -1.2563 -1.1753  0.3023
 3960TIP3    H233440   3.191   5.145   8.435  1.3711  0.6594 -0.1020
 3961TIP3   OH233441   4.257   1.515   7.665  0.5267  0.4759  0.2070
 3961TIP3    H133442   4.313   1.437   7.673 -1.2496 -0.8252  0.6083
 3961TIP3    H233443   4.199   1.495   7.592 -3.2941 -0.9384  3.2372
 3962TIP3   OH233444   3.667   1.509   6.756 -0.5062  0.2815 -0.3105
 3962TIP3    H133445   3.619   1.443   6.707  1.1056 -0.3364 -1.1439
 3962TIP3    H233446   3.665   1.587   6.701 -1.8164  0.7577  0.3600
 3963TIP3   OH233447   4.476   2.516   0.722 -0.6111 -0.0411  0.2309
 3963TIP3    H133448   4.538   2.571   0.673 -0.9220  0.1877  0.0882
 3963TIP3    H233449   4.530   2.470   0.786 -0.2688  0.0334  0.0010
 3964TIP3   OH233450   2.850   5.680   6.550 -0.4471  0.5178  0.2498
 3964TIP3    H133451   2.941   5.651   6.542 -0.6870 -0.1660 -0.0990
 3964TIP3    H233452   2.819   5.688   6.460 -0.1130  2.8425  0.2860
 3965TIP3   OH233453   1.795   5.896   6.532 -0.1076 -0.1053 -0.0046
 3965TIP3    H133454   1.760   5.810   6.554  1.3256 -0.8629 -0.5737
 3965TIP3    H233455   1.763   5.913   6.443  0.3685 -0.4872 -0.2559
 3966TIP3   OH233456   0.422   0.071   6.769  0.3421  0.6390  0.0980
 3966TIP3    H133457   0.454  -0.006   6.721 -0.3208  1.4030 -1.6583
 3966TIP3    H233458   0.485   0.083   6.840  0.5972 -1.3632  0.2643
 3967TIP3   OH233459   4.485   6.190   7.184 -0.2491  0.1452  0.0778
 3967TIP3    H133460   4.560   6.224   7.233  1.2359 -0.5976 -1.5548
 3967TIP3    H233461   4.411   6.240   7.216  1.0677  1.4895  1.1979
 3968TIP3   OH233462   1.489   4.675   6.917  0.1001  0.1596 -0.1637
 3968TIP3    H133463   1.434   4.634   6.850  0.4305 -0.1143 -0.2642
 3968TIP3    H233464   1.435   4.672   6.996  0.8417 -2.2048  0.3138
 3969TIP3   OH233465   5.987   3.314   8.545  0.8934 -0.0378 -0.4387
 3969TIP3    H133466   5.997   3.221   8.566 -0.1804 -0.7015 -2.5913
 3969TIP3    H233467   6.051   3.331   8.476  0.4146  0.5558 -0.7492
 3970TIP3   OH233468   6.470   6.499   6.613  0.1157  0.4298  0.2560
 3970TIP3    H133469   6.450   6.437   6.683  0.9531  1.4751  1.4691
 3970TIP3    H233470   6.512   6.445   6.545 -0.4328 -0.5518  0.6751
 3971TIP3   OH233471   0.414   1.569   7.204 -0.4064 -0.4262  0.5874
 3971TIP3    H133472   0.397   1.652   7.160  2.8379 -1.1455 -2.4559
 3971TIP3    H233473   0.494   1.583   7.254 -0.1956 -1.5228  0.5937
 3972TIP3   OH233474   4.756   1.037   8.699 -0.1971  0.2747 -0.3712
 3972TIP3    H133475   4.851   1.045   8.695 -0.1974  0.6432  0.2855
 3972TIP3    H233476   4.731   1.081   8.780 -0.6659 -2.1338  0.9100
 3973TIP3   OH233477   4.725   1.740   2.064 -0.0304 -0.4901  0.3476
 3973TIP3    H133478   4.657   1.703   2.008  0.6041 -1.1787  0.0073
 3973TIP3    H233479   4.727   1.683   2.140 -1.9017  1.2732  1.8525
 3974TIP3   OH233480   3.990   1.373   7.089  0.2862  0.1070 -0.9070
 3974TIP3    H133481   4.066   1.378   7.031  1.2767  0.1138  0.3469
 3974TIP3    H233482   3.972   1.465   7.112 -0.0711  0.1012 -1.1625
 3975TIP3   OH233483   4.817   6.539   6.894  0.2801 -0.6234 -0.2560
 3975TIP3    H133484   4.860   6.484   6.960  1.1939 -0.5776 -0.7964
 3975TIP3    H233485   4.725   6.517   6.901  0.1521  0.3279  1.9513
 3976TIP3   OH233486   4.130   2.599   8.659 -0.5391 -0.0824  0.4593
 3976TIP3    H133487   4.105   2.542   8.586  1.1999  0.9436 -0.9992
 3976TIP3    H233488   4.109   2.687   8.630  0.5477  0.3817  1.0216
 3977TIP3   OH233489   3.739   2.431   1.055 -0.2804  0.1586  0.6631
 3977TIP3    H133490   3.652   2.468   1.036  0.9883  2.6055 -0.8809
 3977TIP3    H233491   3.789   2.505   1.090  1.8050 -0.6249 -0.4929
 3978TIP3   OH233492   4.698   5.365   8.821  1.0553  0.2451 -0.3123
 3978TIP3    H133493   4.685   5.383   8.728  2.9636 -0.9274 -0.8690
 3978TIP3    H233494   4.793   5.357   8.831  0.8114 -1.1207  1.4495
 3979TIP3   OH233495   5.445   4.413   1.206  0.1429 -0.4374  0.6041
 3979TIP3    H133496   5.477   4.410   1.296 -1.6456 -0.6595  1.2574
 3979TIP3    H233497   5.415   4.504   1.194  0.7366 -0.2989  0.0846
 3980TIP3   OH233498   0.365   1.524   0.450  0.5378  0.5654  0.6146
 3980TIP3    H133499   0.411   1.511   0.367  1.2659  1.7900  0.7927
 3980TIP3    H233500   0.282   1.477   0.440 -0.0780  1.9290 -1.4101
 3981TIP3   OH233501   4.380   4.941   8.513 -0.2530 -0.1313 -0.3055
 3981TIP3    H133502   4.416   5.020   8.554  0.2896  0.1239 -1.2330
 3981TIP3    H233503   4.454   4.902   8.467 -0.6315 -0.9149 -0.2603
 3982TIP3   OH233504   5.371   1.101   1.129 -0.2356 -0.1585 -0.0641
 3982TIP3    H133505   5.276   1.108   1.119 -0.1025  0.2867 -1.1885
 3982TIP3    H233506   5.401   1.192   1.135  0.3154 -0.1612 -2.0562
 3983TIP3   OH233507   0.019   5.262   8.774 -0.2963 -0.0371 -0.4951
 3983TIP3    H133508   0.074   5.267   8.852 -1.2429 -1.1841  0.2772
 3983TIP3    H233509   0.080   5.241   8.703  0.5855  1.0791 -0.1017
 3984TIP3   OH233510   5.974   6.791   7.990 -0.0257  0.3459 -0.0795
 3984TIP3    H133511   6.003   6.718   8.044  0.8639  1.1705  0.6013
 3984TIP3    H233512   5.927   6.848   8.051  0.8830  1.2251 -0.1603
 3985TIP3   OH233513   6.456   3.331   7.751 -0.0654  0.1276 -0.3809
 3985TIP3    H133514   6.529   3.384   7.785 -0.5077 -0.4497  1.5983
 3985TIP3    H233515   6.379   3.386   7.762 -0.5325 -0.8374  1.7152
 3986TIP3   OH233516   3.440   2.641   7.915  0.6322 -0.9304  0.2484
 3986TIP3    H133517   3.428   2.736   7.914 -0.6076 -1.0660 -1.3688
 3986TIP3    H233518   3.502   2.623   7.844  1.0830 -1.3218  0.7299
 3987TIP3   OH233519   1.323   2.702   0.051 -0.0163 -0.1167  0.5149
 3987TIP3    H133520   1.319   2.776  -0.009  1.7250 -1.4620 -1.4173
 3987TIP3    H233521   1.318   2.741   0.138 -1.9035  1.9769 -0.4424
 3988TIP3   OH233522   5.175   4.893   7.214  0.6634  0.2991  0.3047
 3988TIP3    H133523   5.231   4.923   7.142  0.9186 -2.0910 -0.5934
 3988TIP3    H233524   5.223   4.917   7.293  1.8882  0.2863 -0.3956
 3989TIP3   OH233525   0.809   4.018   1.347  0.4342 -0.1455 -0.1129
 3989TIP3    H133526   0.837   4.013   1.438  2.2530 -0.0025 -0.6089
 3989TIP3    H233527   0.872   4.079   1.307  1.1868 -2.0085 -1.9469
 3990TIP3   OH233528   1.256   5.133   0.836 -0.1889  0.1495  0.6802
 3990TIP3    H133529   1.214   5.090   0.762 -1.7713  2.2052  0.2939
 3990TIP3    H233530   1.209   5.100   0.913 -2.7567  2.4168  0.2545
 3991TIP3   OH233531   2.304   4.518   0.248  0.0012  0.0680 -0.0810
 3991TIP3    H133532   2.355   4.576   0.192  0.2846 -0.2609 -0.1684
 3991TIP3    H233533   2.361   4.442   0.262 -0.0521  0.1597  0.6762
 3992TIP3   OH233534   1.192   1.736   8.025  0.2429  0.2556  0.7723
 3992TIP3    H133535   1.182   1.791   7.947 -0.1872  1.2016  1.4669
 3992TIP3    H233536   1.107   1.739   8.068  0.1895 -1.0380  0.7984
 3993TIP3   OH233537   3.224   5.692   7.776 -0.3937  0.2660  1.1674
 3993TIP3    H133538   3.153   5.663   7.834 -0.7893  1.4882  1.3161
 3993TIP3    H233539   3.247   5.779   7.808 -1.1734  1.3221 -0.9824
 3994TIP3   OH233540   2.325   2.304   5.691  0.3749  0.1726 -0.1888
 3994TIP3    H133541   2.308   2.381   5.744 -0.1951 -0.0634 -0.0226
 3994TIP3    H233542   2.421   2.299   5.686  0.4556 -0.0918  1.2532
 3995TIP3   OH233543   0.536   1.083   0.086 -0.1458  0.0748 -0.2899
 3995TIP3    H133544   0.610   1.120   0.134  0.6536 -0.4153 -1.1184
 3995TIP3    H233545   0.560   1.092  -0.006 -0.9705 -0.3997 -0.5664
 3996TIP3   OH233546   0.037   2.762   1.206 -0.0167  0.1890 -0.2486
 3996TIP3    H133547  -0.054   2.777   1.233  0.3000 -0.2621  1.1974
 3996TIP3    H233548   0.080   2.733   1.286  1.5823  1.1053 -0.7533
 3997TIP3   OH233549   2.839   3.078   6.980 -0.0133  0.6770 -0.1092
 3997TIP3    H133550   2.914   3.138   6.986  0.8754 -0.2758 -1.3488
 3997TIP3    H233551   2.851   3.032   6.897 -1.3669 -0.3189  0.2157
 3998TIP3   OH233552   3.461   5.596   7.929 -0.2120 -0.4468 -0.1008
 3998TIP3    H133553   3.497   5.543   7.999 -0.0851 -0.2257  0.0017
 3998TIP3    H233554   3.515   5.577   7.853  0.2821  0.0709  0.1130
 3999TIP3   OH233555   1.146   4.389   1.599  0.0825  0.1648  0.1073
 3999TIP3    H133556   1.199   4.311   1.582  0.4356  0.6585 -1.1446
 3999TIP3    H233557   1.169   4.414   1.689  1.8614  0.2796 -0.3546
 4000TIP3   OH233558   3.363   0.816   0.311  0.1198 -0.1016 -0.1495
 4000TIP3    H133559   3.447   0.825   0.357  0.8475  1.2579 -1.6409
 4000TIP3    H233560   3.352   0.900   0.266 -2.2417 -0.1232  0.2867
 4001TIP3   OH233561   3.966   0.459   1.562  0.5749 -0.4082 -0.0085
 4001TIP3    H133562   3.920   0.391   1.515  0.2549  0.1567 -0.5202
 4001TIP3    H233563   3.978   0.423   1.650  2.1613 -1.9315 -0.7769
 4002TIP3   OH233564   4.611   0.232   8.749  0.0600 -0.1980 -0.1439
 4002TIP3    H133565   4.695   0.212   8.707  0.2034  0.7665 -0.3404
 4002TIP3    H233566   4.593   0.322   8.725 -1.1526 -0.4619 -0.2709
 4003TIP3   OH233567   4.500   5.229   8.559  0.2758 -0.4517 -0.3896
 4003TIP3    H133568   4.435   5.298   8.548 -2.0313 -2.0207  2.1129
 4003TIP3    H233569   4.541   5.220   8.473 -1.0385  2.3061 -1.4164
 4004TIP3   OH233570   6.080   0.352   1.287 -0.1310 -0.2663 -0.2461
 4004TIP3    H133571   6.112   0.280   1.233 -3.1673 -1.6381 -0.4468
 4004TIP3    H233572   6.085   0.428   1.230 -1.4263 -1.3211 -1.8793
 4005TIP3   OH233573   4.016   4.576   7.136  0.3249 -0.0985 -0.3158
 4005TIP3    H133574   3.922   4.574   7.157  0.5690  1.8941  1.2096
 4005TIP3    H233575   4.021   4.626   7.055  0.1202  0.5957  0.0902
 4006TIP3   OH233576   6.398   6.092   2.030 -0.2861 -0.1788 -0.7916
 4006TIP3    H133577   6.386   6.183   2.002 -3.0822 -0.5360 -1.0430
 4006TIP3    H233578   6.318   6.071   2.078  0.5246 -2.3725 -0.2797
 4007TIP3   OH233579   0.547   3.679   8.478 -0.6976 -0.4251 -0.1466
 4007TIP3    H133580   0.544   3.588   8.508  2.1284 -1.0992 -1.5242
 4007TIP3    H233581   0.578   3.729   8.554  1.0987 -1.2229 -0.3087
 4008TIP3   OH233582   6.793   3.500   1.791 -0.0527 -0.1959 -0.9921
 4008TIP3    H133583   6.727   3.562   1.824  0.5201 -0.1337  0.0843
 4008TIP3    H233584   6.742   3.434   1.744 -0.7370  0.7082 -1.5476
 4009TIP3   OH233585   6.691   4.836   7.293  0.4932  0.1857 -0.3299
 4009TIP3    H133586   6.700   4.860   7.385 -1.4574  0.7712 -0.2520
 4009TIP3    H233587   6.781   4.829   7.261  1.2672  3.1664  0.8236
 4010TIP3   OH233588   1.020   0.783   1.210 -0.2872 -0.0680  0.2102
 4010TIP3    H133589   0.957   0.802   1.141  2.3739 -0.5287 -2.5362
 4010TIP3    H233590   0.995   0.697   1.242 -1.8253  0.3357  0.1870
 4011TIP3   OH233591   3.044   4.691   1.375  0.5989 -0.1255  0.0542
 4011TIP3    H133592   3.000   4.765   1.334  1.3766  1.4450  1.9145
 4011TIP3    H233593   2.972   4.631   1.399 -0.1625  0.6160 -0.3325
 4012TIP3   OH233594   2.344   2.624   1.524 -0.2125  0.1538  0.6120
 4012TIP3    H133595   2.412   2.567   1.561  1.3950  0.1133 -2.1141
 4012TIP3    H233596   2.341   2.698   1.584  2.8718  0.5158  0.5259
 4013TIP3   OH233597   2.271   0.401   7.651 -0.4680  0.1991 -0.9885
 4013TIP3    H133598   2.315   0.349   7.718  0.7232  0.6438 -1.3854
 4013TIP3    H233599   2.336   0.467   7.625 -2.7532  3.8176  1.4869
 4014TIP3   OH233600   6.365   0.046   0.206  0.0961  0.2668 -0.3089
 4014TIP3    H133601   6.311   0.124   0.213 -0.2836  0.0113 -0.3285
 4014TIP3    H233602   6.394   0.045   0.115  0.6521  0.7396 -0.1401
 4015TIP3   OH233603   1.068   2.775   7.197 -0.1481 -0.1665  0.0820
 4015TIP3    H133604   1.066   2.729   7.113 -1.0031 -0.1081  0.0557
 4015TIP3    H233605   1.160   2.778   7.221 -0.0856 -2.1676  0.2363
 4016TIP3   OH233606   2.023   0.686   0.852 -0.2242  0.5227 -0.3316
 4016TIP3    H133607   2.021   0.594   0.877 -0.2772  0.9341  1.3035
 4016TIP3    H233608   2.105   0.719   0.888 -1.5966  1.7962  1.8938
 4017TIP3   OH233609   0.324   3.632   6.863  0.0685 -0.4246 -0.3620
 4017TIP3    H133610   0.311   3.611   6.770  0.5314  1.6675 -0.9440
 4017TIP3    H233611   0.236   3.631   6.900 -0.7603  3.1360 -1.8859
 4018TIP3   OH233612   5.112   5.606   7.462 -0.2234 -0.7789 -0.9170
 4018TIP3    H133613   5.171   5.590   7.535  0.1252 -0.0376 -1.0260
 4018TIP3    H233614   5.127   5.697   7.439 -2.9221  0.1258  0.4262
 4019TIP3   OH233615   1.789   2.664   1.232 -0.0434  0.1322 -0.5576
 4019TIP3    H133616   1.754   2.618   1.307 -0.6526 -0.3216 -1.1065
 4019TIP3    H233617   1.865   2.613   1.205  0.9863  1.0417  0.5521
 4020TIP3   OH233618   0.340   2.792   8.621  0.0817 -0.4451  0.0587
 4020TIP3    H133619   0.417   2.788   8.677  0.8184  0.4486 -0.8541
 4020TIP3    H233620   0.330   2.885   8.601  1.2836 -0.8611 -3.1882
 4021TIP3   OH233621   4.493   1.333   8.259 -0.2761 -0.6013 -0.1684
 4021TIP3    H133622   4.535   1.289   8.333 -0.4104 -0.4459  0.0026
 4021TIP3    H233623   4.400   1.336   8.283 -0.1906  0.2826  0.0851
 4022TIP3   OH233624   5.084   3.584   1.576  0.1090 -0.4361  0.4165
 4022TIP3    H133625   5.130   3.597   1.659  0.5089  1.4121 -0.0598
 4022TIP3    H233626   5.142   3.528   1.525  0.0558 -1.2347  1.1976
 4023TIP3   OH233627   4.641   3.301   8.808 -0.1912 -0.0232  0.5469
 4023TIP3    H133628   4.677   3.245   8.739  0.0561  0.0530  0.6124
 4023TIP3    H233629   4.643   3.245   8.886 -0.2732 -0.0398  0.5367
 4024TIP3   OH233630   2.479   5.532   8.489 -0.3210  0.1437 -1.1588
 4024TIP3    H133631   2.420   5.468   8.451 -0.4160 -1.1718  1.0113
 4024TIP3    H233632   2.547   5.480   8.532  1.1983  1.5855 -1.7157
 4025TIP3   OH233633   1.138   4.588   6.868  0.2629 -0.5864 -0.2479
 4025TIP3    H133634   1.114   4.671   6.910 -0.7620 -1.5844  1.2058
 4025TIP3    H233635   1.215   4.610   6.815 -0.8429  1.6178 -1.0986
 4026TIP3   OH233636   2.830   3.924   8.106 -0.7688  0.2116  0.7694
 4026TIP3    H133637   2.808   3.838   8.142 -1.1773 -0.9999 -2.0703
 4026TIP3    H233638   2.856   3.906   8.016 -0.0859  3.0128  0.3172
 4027TIP3   OH233639   5.334   6.762   8.435  0.0598  0.2694 -0.0191
 4027TIP3    H133640   5.242   6.789   8.447  0.0605  1.0560 -1.4893
 4027TIP3    H233641   5.367   6.750   8.524 -0.9366  1.8569  0.6213
 4028TIP3   OH233642   4.224   1.497   8.843 -0.2593  0.1363 -0.5136
 4028TIP3    H133643   4.263   1.443   8.774  0.0989 -0.0337 -0.1843
 4028TIP3    H233644   4.132   1.471   8.844  0.1256 -1.3288  0.4009
 4029TIP3   OH233645   4.487   1.214   1.689 -0.0401  0.1229  0.2434
 4029TIP3    H133646   4.550   1.146   1.664  0.1116  0.8498 -1.4385
 4029TIP3    H233647   4.541   1.292   1.701  0.0426 -0.2886  3.8234
 4030TIP3   OH233648   5.242   5.151   0.313 -0.1161  0.3227  0.0988
 4030TIP3    H133649   5.249   5.075   0.255  0.5943 -0.2296  0.9016
 4030TIP3    H233650   5.173   5.205   0.273  0.6623  0.1757 -1.5071
 4031TIP3   OH233651   6.353   3.444   7.279 -0.3409  0.1379 -0.5570
 4031TIP3    H133652   6.418   3.493   7.330  0.1260  1.2164 -2.1421
 4031TIP3    H233653   6.385   3.354   7.279 -0.5167  0.0245  1.2715
 4032TIP3   OH233654   3.590   4.618   7.320  0.7377 -0.5017 -0.2786
 4032TIP3    H133655   3.523   4.564   7.278  0.1374  0.9043 -1.1771
 4032TIP3    H233656   3.547   4.654   7.397  0.6979 -0.1902 -0.4468
 4033TIP3   OH233657   6.176   2.221   6.779  0.3366 -0.6055  0.0490
 4033TIP3    H133658   6.250   2.192   6.725  1.7007  0.9256  1.0029
 4033TIP3    H233659   6.100   2.214   6.721  1.5587 -0.1689 -1.6967
 4034TIP3   OH233660   3.989   3.915   7.977 -0.4815 -0.0839 -0.0983
 4034TIP3    H133661   3.989   3.857   8.053 -0.6714  1.6946  1.3259
 4034TIP3    H233662   4.054   3.982   7.998  0.0482  0.0055 -1.8898
 4035TIP3   OH233663   0.684   1.972   0.665 -0.3934  0.8436  0.6321
 4035TIP3    H133664   0.742   1.930   0.729 -0.7439 -1.5104 -0.5045
 4035TIP3    H233665   0.600   1.929   0.677 -0.6898  0.9736 -0.8438
 4036TIP3   OH233666   1.841   2.219   1.495  0.2146  0.4660 -0.4727
 4036TIP3    H133667   1.922   2.225   1.545 -1.1754  0.9397  1.8654
 4036TIP3    H233668   1.789   2.154   1.541 -2.8592  3.9450  1.5553
 4037TIP3   OH233669   5.491   5.631   6.580 -0.2622 -0.0410  0.3879
 4037TIP3    H133670   5.422   5.671   6.526  0.0482  0.3458  0.2761
 4037TIP3    H233671   5.573   5.658   6.538  0.0611  1.7143  2.0275
 4038TIP3   OH233672   1.050   0.464   1.747 -0.5633  0.7226 -0.1084
 4038TIP3    H133673   1.071   0.426   1.833 -1.3237  0.2941 -0.1039
 4038TIP3    H233674   1.056   0.559   1.761 -0.6010  0.6554  0.4007
 4039TIP3   OH233675   3.772   0.358   0.276 -0.7126 -0.1059  0.0575
 4039TIP3    H133676   3.828   0.412   0.331 -1.2457  1.4967 -0.8921
 4039TIP3    H233677   3.707   0.419   0.241 -1.3268 -1.3670 -1.0930
 4040TIP3   OH233678   3.083   5.101   8.267 -0.5620  0.4312  0.3070
 4040TIP3    H133679   3.162   5.049   8.250  0.2445  1.6638  0.1867
 4040TIP3    H233680   3.017   5.036   8.291  0.0880 -0.7698 -0.9851
 4041TIP3   OH233681   1.419   6.278   7.590  0.0135 -0.5397  0.1221
 4041TIP3    H133682   1.409   6.202   7.532 -0.3283 -1.2564  1.0858
 4041TIP3    H233683   1.360   6.344   7.554 -1.5099 -1.5797  0.6112
 4042TIP3   OH233684   1.255   5.045   6.288 -0.4365 -0.0919 -0.3597
 4042TIP3    H133685   1.161   5.031   6.277 -0.8377  0.9236  1.3507
 4042TIP3    H233686   1.295   4.962   6.263 -2.1403 -2.0345  2.7773
 4043TIP3   OH233687   2.660   5.588   0.018  0.5262  0.1049  0.1545
 4043TIP3    H133688   2.638   5.652  -0.050  0.4153  0.8234  0.8568
 4043TIP3    H233689   2.753   5.600   0.034  0.4342  0.3222  0.5274
 4044TIP3   OH233690   3.990   6.253   6.524  0.8982  0.4003  0.3242
 4044TIP3    H133691   3.938   6.266   6.445 -0.2217  1.3014  1.1843
 4044TIP3    H233692   4.030   6.338   6.542  1.5154  0.0839  0.4799
 4045TIP3   OH233693   0.859   4.055   8.565  0.0546 -0.8751  0.1100
 4045TIP3    H133694   0.868   3.960   8.560 -0.2170 -0.8648 -0.6145
 4045TIP3    H233695   0.821   4.071   8.652  0.6231 -1.3840  0.4595
 4046TIP3   OH233696   5.790   5.512   8.263 -0.0808  0.1398 -0.5322
 4046TIP3    H133697   5.881   5.541   8.266  0.0342 -0.1475 -1.0650
 4046TIP3    H233698   5.772   5.501   8.169 -0.5991 -0.0089 -0.4171
 4047TIP3   OH233699   4.347   4.708   8.056  0.0093  0.1290 -0.0713
 4047TIP3    H133700   4.313   4.642   8.115 -1.1303 -0.1062 -0.9532
 4047TIP3    H233701   4.291   4.784   8.069 -0.9031 -0.2551 -1.5268
 4048TIP3   OH233702   5.759   0.718   7.838  0.0020  0.3596 -0.3676
 4048TIP3    H133703   5.753   0.641   7.781 -1.3493 -0.1379  0.4193
 4048TIP3    H233704   5.686   0.773   7.812  0.7701  1.2605 -0.7008
 4049TIP3   OH233705   1.809   5.167   0.310 -0.2310 -0.2828 -0.3917
 4049TIP3    H133706   1.771   5.220   0.381  0.6187 -1.1665  0.7698
 4049TIP3    H233707   1.882   5.220   0.278 -0.4118 -0.0235 -0.3808
 4050TIP3   OH233708   1.939   5.121   0.635  0.1497 -0.4180 -0.3130
 4050TIP3    H133709   1.938   5.028   0.654 -0.3961 -0.3600 -0.0573
 4050TIP3    H233710   1.854   5.139   0.595  0.3848 -0.0941 -0.6779
 4051TIP3   OH233711   1.354   2.895   0.789 -0.0424 -0.4641  0.0359
 4051TIP3    H133712   1.409   2.964   0.752 -2.3376  0.5121 -1.8525
 4051TIP3    H233713   1.326   2.843   0.713 -2.9558  0.1067  0.5960
 4052TIP3   OH233714   5.172   0.535   7.679 -0.2380  0.2138 -0.0369
 4052TIP3    H133715   5.180   0.491   7.763  0.7861 -0.8096 -0.6500
 4052TIP3    H233716   5.131   0.471   7.621  2.6202 -0.6242 -1.3392
 4053TIP3   OH233717   4.463   2.735   8.229  0.3737  0.1972  0.1739
 4053TIP3    H133718   4.415   2.813   8.201  0.4548  0.3563  0.4716
 4053TIP3    H233719   4.403   2.662   8.211 -0.8036  0.5467  2.3257
 4054TIP3   OH233720   4.471   3.283   7.196 -0.0971 -0.0624  0.5812
 4054TIP3    H133721   4.485   3.208   7.137 -3.2180  0.4062 -0.9922
 4054TIP3    H233722   4.542   3.344   7.174 -0.8282 -0.1198 -2.5122
 4055TIP3   OH233723   0.093   3.490   7.644 -0.1937 -0.7838 -0.3898
 4055TIP3    H133724   0.096   3.566   7.586 -0.7733 -0.2845  0.2226
 4055TIP3    H233725   0.185   3.473   7.665 -0.0860  0.0872 -0.1081
 4056TIP3   OH233726   3.934   2.153   7.122 -0.2009 -0.0995 -0.3885
 4056TIP3    H133727   3.982   2.184   7.045  1.4524  0.3568  0.7794
 4056TIP3    H233728   3.905   2.233   7.166  1.9032 -0.1873  1.2952
 4057TIP3   OH233729   4.825   2.043   8.030  0.4954  0.4350 -0.0006
 4057TIP3    H133730   4.768   1.972   7.998 -0.4359  1.9696 -1.9901
 4057TIP3    H233731   4.901   1.998   8.067  0.1409 -1.6010 -1.5673
 4058TIP3   OH233732   6.226   6.597   0.277 -0.0477 -0.6581  0.2175
 4058TIP3    H133733   6.206   6.690   0.268  1.1515 -0.2314  1.5828
 4058TIP3    H233734   6.300   6.582   0.218  0.6945 -0.3867  1.0523
 4059TIP3   OH233735   1.467   6.675   0.660 -0.5573 -0.3285  0.5973
 4059TIP3    H133736   1.459   6.615   0.586  0.2726  0.2283  0.0365
 4059TIP3    H233737   1.501   6.622   0.732 -0.1133 -0.5987  0.1893
 4060TIP3   OH233738   1.084   5.899   6.916 -0.1215 -0.0498 -0.1917
 4060TIP3    H133739   1.016   5.835   6.937  0.7087 -0.4770  1.3972
 4060TIP3    H233740   1.120   5.925   7.001 -0.3408  2.4839 -0.8019
 4061TIP3   OH233741   0.428   6.191   1.683  0.4748  0.0156  0.5014
 4061TIP3    H133742   0.338   6.219   1.701  0.0356 -1.2258  0.3674
 4061TIP3    H233743   0.479   6.224   1.757 -0.1916  0.2804  0.8473
 4062TIP3   OH233744   1.041   1.444   8.146 -0.2764 -0.3950  0.4314
 4062TIP3    H133745   0.976   1.501   8.185 -0.1940 -0.1690  0.2450
 4062TIP3    H233746   1.047   1.473   8.055 -0.4440 -0.8911  0.2567
 4063TIP3   OH233747   6.561   5.563   7.523  0.0178 -0.4613  0.0995
 4063TIP3    H133748   6.488   5.555   7.462  0.7516 -3.6414 -0.5659
 4063TIP3    H233749   6.625   5.618   7.478 -0.8089  0.0014 -0.5306
 4064TIP3   OH233750   5.130   2.389   7.028 -0.2816  0.4743  0.3944
 4064TIP3    H133751   5.177   2.472   7.029  0.7126  0.0418 -2.1881
 4064TIP3    H233752   5.173   2.338   6.959 -3.1525 -0.7609 -0.6517
 4065TIP3   OH233753   0.494   2.692   8.023 -0.4787  0.3738 -0.1100
 4065TIP3    H133754   0.524   2.704   8.113  0.2103  1.2516 -0.4484
 4065TIP3    H233755   0.477   2.780   7.991 -0.2256  0.1069 -1.0145
 4066TIP3   OH233756   1.502   2.635   6.261 -0.7220 -0.2359 -0.5936
 4066TIP3    H133757   1.527   2.573   6.192 -1.0068  0.6798 -1.5382
 4066TIP3    H233758   1.543   2.717   6.236 -1.0532  0.1817  0.1982
 4067TIP3   OH233759   3.570   3.414   8.738  0.0228  0.0931 -0.2614
 4067TIP3    H133760   3.536   3.366   8.814  0.1299 -0.3338 -0.4798
 4067TIP3    H233761   3.551   3.506   8.758  0.7097  0.0599  0.6176
 4068TIP3   OH233762   4.227   5.189   0.332 -0.0512  0.2209 -0.3541
 4068TIP3    H133763   4.244   5.200   0.239  1.8152  0.9125  0.0165
 4068TIP3    H233764   4.281   5.114   0.357 -2.5988 -1.7448 -0.2858
 4069TIP3   OH233765   1.015   6.025   1.229  0.3343 -0.2036  0.7307
 4069TIP3    H133766   1.063   6.048   1.149 -0.4267 -0.1279  0.2819
 4069TIP3    H233767   0.923   6.037   1.205 -0.0295 -2.2410  0.9350
 4070TIP3   OH233768   4.855   6.057   8.427 -0.0930  0.1881 -1.2029
 4070TIP3    H133769   4.832   6.029   8.516  0.5227  0.1613 -1.0483
 4070TIP3    H233770   4.788   6.121   8.404  0.6614  1.4456 -0.0764
 4071TIP3   OH233771   4.011   4.932   1.087 -0.1618 -0.2295 -0.0479
 4071TIP3    H133772   3.989   4.914   1.178  0.1456  0.2309  0.1177
 4071TIP3    H233773   4.032   5.025   1.085 -3.2005  0.5651 -1.1792
 4072TIP3   OH233774   2.562   3.970   8.084  0.4262  0.3545  0.1128
 4072TIP3    H133775   2.651   3.942   8.063  0.6376 -0.3547  1.7240
 4072TIP3    H233776   2.574   4.045   8.143  0.0508 -0.6596  1.5577
 4073TIP3   OH233777   3.494   4.953   7.908  0.5168 -0.1849  0.6946
 4073TIP3    H133778   3.544   5.032   7.883  0.9673  0.0991  2.4060
 4073TIP3    H233779   3.445   4.979   7.985 -0.4162 -1.2004  0.4623
 4074TIP3   OH233780   5.072   2.637   0.220 -0.0390 -0.0958 -0.5302
 4074TIP3    H133781   5.168   2.641   0.216 -0.0334  0.3197 -0.1552
 4074TIP3    H233782   5.048   2.562   0.166  0.3705  1.1037 -2.4738
 4075TIP3   OH233783   6.570   1.573   7.400  0.1779  0.0359  0.1805
 4075TIP3    H133784   6.490   1.523   7.385 -0.5460  0.6531  1.8019
 4075TIP3    H233785   6.550   1.630   7.475  1.1681  2.3216 -1.1825
 4076TIP3   OH233786   6.681   0.239   6.423  0.5477  0.0667 -0.3160
 4076TIP3    H133787   6.725   0.165   6.382 -0.1067  0.8027 -2.4552
 4076TIP3    H233788   6.616   0.268   6.359 -0.6138  1.2337  1.2991
 4077TIP3   OH233789   1.786   1.433   1.432  0.1478 -0.0371  0.1774
 4077TIP3    H133790   1.748   1.349   1.405  0.0112  0.1128 -0.1033
 4077TIP3    H233791   1.713   1.479   1.473  0.4509 -0.4202  1.1679
 4078TIP3   OH233792   4.813   1.015   0.764 -0.3739 -0.1050 -0.2452
 4078TIP3    H133793   4.759   0.996   0.687 -2.7118 -0.0556  1.2897
 4078TIP3    H233794   4.827   0.929   0.805  1.7105 -0.2671 -1.1890
 4079TIP3   OH233795   4.174   3.184   0.607 -0.4065 -0.2426  0.3440
 4079TIP3    H133796   4.135   3.167   0.521 -2.6867  0.0542  1.2740
 4079TIP3    H233797   4.207   3.274   0.601  1.7655 -1.0309 -0.9714
 4080TIP3   OH233798   5.558   4.872   0.486  0.2030  0.2905  0.4013
 4080TIP3    H133799   5.544   4.919   0.568  0.2077  0.5740  0.2437
 4080TIP3    H233800   5.506   4.792   0.495 -0.1606  0.5316  0.5048
 4081TIP3   OH233801   1.901   0.917   7.051 -0.8082 -0.0852 -0.3167
 4081TIP3    H133802   1.908   0.822   7.037  1.8739  0.1940 -1.5842
 4081TIP3    H233803   1.983   0.940   7.096 -1.5365  1.6089  0.1990
 4082TIP3   OH233804   3.403   5.066   7.440  0.1362  0.1309  0.1632
 4082TIP3    H133805   3.412   4.976   7.470 -0.4082  0.2345  0.6577
 4082TIP3    H233806   3.395   5.117   7.521  0.1064  0.5840 -0.1219
 4083TIP3   OH233807   0.298   0.389   1.302  0.3837 -0.3768  0.4281
 4083TIP3    H133808   0.341   0.445   1.237  0.3182 -0.0141  0.6914
 4083TIP3    H233809   0.205   0.394   1.280  0.0592  1.7005  1.9859
 4084TIP3   OH233810   0.450   2.517   7.773 -0.3896 -0.6128  0.0541
 4084TIP3    H133811   0.363   2.522   7.734 -0.3852  0.1131  0.1261
 4084TIP3    H233812   0.458   2.597   7.825  0.8523  0.0328 -1.0556
 4085TIP3   OH233813   0.652   3.570   1.241  0.2848 -0.7718 -0.3787
 4085TIP3    H133814   0.655   3.531   1.328 -1.6496  1.0121  0.5788
 4085TIP3    H233815   0.675   3.498   1.181 -0.6791 -2.6915  1.4252
 4086TIP3   OH233816   2.843   3.038   6.697 -0.8581  0.2558 -0.0356
 4086TIP3    H133817   2.920   3.058   6.644 -0.9421  1.7058  0.3624
 4086TIP3    H233818   2.770   3.076   6.648 -1.2145 -0.3062  0.0494
 4087TIP3   OH233819   0.630   2.520   0.121 -0.7157 -0.0626  0.0054
 4087TIP3    H133820   0.572   2.465   0.068 -2.7559  1.4746  0.5249
 4087TIP3    H233821   0.573   2.556   0.189  0.8641  1.5339  0.5611
 4088TIP3   OH233822   3.337   0.483   0.542  0.0954  0.4416  0.2281
 4088TIP3    H133823   3.373   0.403   0.579  0.2505  0.4146  0.0199
 4088TIP3    H233824   3.412   0.531   0.509  0.0227  0.7715  0.5360
 4089TIP3   OH233825   3.736   4.869   7.574  0.4186  0.3325 -0.0784
 4089TIP3    H133826   3.795   4.798   7.549  1.1971  0.7952  0.3856
 4089TIP3    H233827   3.676   4.830   7.638 -2.3745 -1.2056 -3.3123
 4090TIP3   OH233828   5.961   4.197   7.798 -0.1161  1.0513  0.0464
 4090TIP3    H133829   6.005   4.190   7.883  1.0716 -0.5479 -0.6458
 4090TIP3    H233830   5.986   4.284   7.765 -0.5490  1.6672  1.2866
 4091TIP3   OH233831   4.057   1.190   0.442  0.1007 -0.0195  0.2632
 4091TIP3    H133832   4.035   1.132   0.515  1.0343  0.6611  1.1130
 4091TIP3    H233833   3.990   1.258   0.444  0.5734  0.4387  1.0048
 4092TIP3   OH233834   4.994   3.258   1.699  0.4356  0.0399  0.0688
 4092TIP3    H133835   4.964   3.316   1.629 -0.2401  0.4599  0.6815
 4092TIP3    H233836   5.049   3.193   1.656  0.8766  0.9052 -0.6916
 4093TIP3   OH233837   4.645   5.291   1.417 -0.4386 -0.1405  0.1867
 4093TIP3    H133838   4.703   5.220   1.389 -0.4620  0.2149 -0.8000
 4093TIP3    H233839   4.654   5.357   1.349 -0.8893  0.5484  0.7832
 4094TIP3   OH233840   3.929   6.659   2.158  0.3582  0.1315 -0.3790
 4094TIP3    H133841   3.844   6.643   2.199 -0.0410 -0.1872 -1.3110
 4094TIP3    H233842   3.977   6.712   2.223 -0.7691  0.8591 -0.1062
 4095TIP3   OH233843   5.647   4.288   7.619  0.5384 -0.3284  0.2492
 4095TIP3    H133844   5.596   4.367   7.637  0.4594 -0.6682  1.6615
 4095TIP3    H233845   5.733   4.321   7.593  0.0078  0.2292 -0.8871
 4096TIP3   OH233846   1.874   4.069   1.627  0.1170  0.2128 -0.4409
 4096TIP3    H133847   1.840   4.054   1.715  0.2684 -2.1082 -0.7043
 4096TIP3    H233848   1.798   4.060   1.570  0.4891 -1.1763 -0.7409
 4097TIP3   OH233849   0.284   5.156   8.592  0.8385 -0.0135  0.4320
 4097TIP3    H133850   0.374   5.185   8.580  1.7174 -2.7522 -0.3893
 4097TIP3    H233851   0.282   5.069   8.552 -1.9628 -0.3793  1.1859
 4098TIP3   OH233852   4.362   5.636   2.085  0.1467  0.0234 -0.0759
 4098TIP3    H133853   4.331   5.683   2.007 -1.1435  0.7663  0.8426
 4098TIP3    H233854   4.398   5.554   2.051 -3.2933 -1.1539 -1.2694
 4099TIP3   OH233855   0.509   0.509   6.642  0.2244 -0.4502 -0.1254
 4099TIP3    H133856   0.565   0.577   6.606  0.5862 -0.6236  0.1034
 4099TIP3    H233857   0.561   0.469   6.712  0.0182 -0.9661 -0.2632
 4100TIP3   OH233858   4.143   0.504   7.772 -0.2652 -0.3301 -0.2458
 4100TIP3    H133859   4.118   0.416   7.745  0.8482 -1.0692  1.0197
 4100TIP3    H233860   4.109   0.512   7.862 -0.9057  0.7826 -0.5599
 4101TIP3   OH233861   1.192   5.883   1.414  0.1964 -0.2496 -0.0482
 4101TIP3    H133862   1.144   5.913   1.337  3.0091  1.0188 -1.4344
 4101TIP3    H233863   1.199   5.789   1.403 -1.4638 -0.4147 -0.0351
 4102TIP3   OH233864   3.671   0.159   1.915  0.5044  0.1007 -0.0684
 4102TIP3    H133865   3.619   0.239   1.905 -0.0806 -0.4114 -1.4447
 4102TIP3    H233866   3.671   0.141   2.009  0.2170  1.4286  0.2036
 4103TIP3   OH233867   6.768   3.480   8.495  0.1137  0.3899  0.2876
 4103TIP3    H133868   6.703   3.504   8.561 -0.1193 -0.8594  0.5446
 4103TIP3    H233869   6.797   3.392   8.522  3.0351  1.4696  1.0823
 4104TIP3   OH233870   6.427   2.807   7.978 -0.0589 -0.3482  0.0159
 4104TIP3    H133871   6.432   2.747   7.903 -0.0395 -0.6005  0.2192
 4104TIP3    H233872   6.519   2.825   8.000 -0.0487 -1.1807  0.7026
 4105TIP3   OH233873   4.764   2.570   0.146 -0.2597 -0.7036  0.1280
 4105TIP3    H133874   4.804   2.490   0.112  1.0466  0.1497 -0.4125
 4105TIP3    H233875   4.768   2.561   0.241  3.5643  0.3494  0.2320
 4106TIP3   OH233876   0.056   0.420   1.177  0.5019 -0.2914  0.2298
 4106TIP3    H133877   0.104   0.405   1.095 -0.4560  0.9676 -0.6115
 4106TIP3    H233878   0.030   0.512   1.172 -1.3368 -0.7284  1.0050
 4107TIP3   OH233879   5.182   4.672   8.459 -0.4079  0.7422  0.2793
 4107TIP3    H133880   5.215   4.745   8.406  1.4442 -0.8375 -0.9210
 4107TIP3    H233881   5.133   4.618   8.397  0.1358 -0.1500  0.6034
 4108TIP3   OH233882   4.666   5.237   1.092 -0.2903 -0.4294  0.0756
 4108TIP3    H133883   4.680   5.331   1.081 -1.0342 -0.4543 -1.2981
 4108TIP3    H233884   4.731   5.196   1.035 -0.4575 -0.7273  0.0938
 4109TIP3   OH233885   4.137   0.675   2.291 -0.5106  0.3040  0.1217
 4109TIP3    H133886   4.074   0.691   2.221  0.2582 -0.8892 -0.8841
 4109TIP3    H233887   4.177   0.760   2.307  1.4033  0.1563 -3.0184
 4110TIP3   OH233888   1.420   6.302   6.815  0.4573  0.1423 -0.2275
 4110TIP3    H133889   1.395   6.386   6.853  2.2075  0.4062  0.4508
 4110TIP3    H233890   1.503   6.320   6.770  0.2567 -0.9703 -1.0902
 4111TIP3   OH233891   4.445   4.252   8.115 -0.2809 -0.2490 -0.2921
 4111TIP3    H133892   4.449   4.156   8.123  1.2275 -0.1272  0.8812
 4111TIP3    H233893   4.504   4.284   8.184 -2.9799  1.6300  1.3554
 4112TIP3   OH233894   4.432   3.485   8.789  0.3122  0.3205  0.0886
 4112TIP3    H133895   4.500   3.418   8.796  0.8622  0.9503  0.9343
 4112TIP3    H233896   4.425   3.521   8.878 -0.5173  0.8625 -0.1852
 4113TIP3   OH233897   3.689   5.539   0.417 -0.6949 -0.4915 -0.7702
 4113TIP3    H133898   3.779   5.526   0.446 -0.5779 -1.1348 -1.3950
 4113TIP3    H233899   3.646   5.584   0.490 -0.2390 -1.4575  0.1139
 4114TIP3   OH233900   4.492   2.831   8.697  0.1314  0.0444  0.0133
 4114TIP3    H133901   4.557   2.804   8.632 -0.9745  0.4321 -1.3163
 4114TIP3    H233902   4.497   2.764   8.765 -1.4517 -2.7800 -2.4028
 4115TIP3   OH233903   6.137   5.709   0.288  0.4414  0.3029 -0.1272
 4115TIP3    H133904   6.169   5.768   0.357 -0.3965  1.4244 -0.6543
 4115TIP3    H233905   6.043   5.728   0.281  0.4572  0.0392 -1.3918
 4116TIP3   OH233906   1.679   4.634   8.278  0.7867  1.1749  0.1864
 4116TIP3    H133907   1.673   4.541   8.254  0.5542  1.1933  0.1774
 4116TIP3    H233908   1.745   4.637   8.347 -0.1720  0.8282  1.1371
 4117TIP3   OH233909   2.403   2.301   0.782  0.2871  0.1777 -0.6359
 4117TIP3    H133910   2.494   2.279   0.803  0.6376 -0.1389 -2.3618
 4117TIP3    H233911   2.373   2.229   0.727 -2.0018 -1.2828  2.2054
 4118TIP3   OH233912   1.267   3.780   7.108 -0.4872 -0.2195  0.0587
 4118TIP3    H133913   1.256   3.833   7.030  0.6777 -0.7402 -0.4708
 4118TIP3    H233914   1.235   3.835   7.179 -0.6353  0.6327 -0.6598
 4119TIP3   OH233915   2.491   2.355   7.252  0.2878 -0.0819 -0.1702
 4119TIP3    H133916   2.548   2.287   7.286  0.8966  0.3831 -0.2457
 4119TIP3    H233917   2.542   2.436   7.259 -0.5821  0.4468  0.3287
 4120TIP3   OH233918   3.969   4.099   0.885  0.1508 -0.1871 -0.0483
 4120TIP3    H133919   3.995   4.123   0.974  3.0949 -1.1395 -0.5513
 4120TIP3    H233920   3.979   4.180   0.835 -0.0486 -0.0057  0.2025
 4121TIP3   OH233921   6.276   5.085   8.815 -0.1995  0.1662 -0.1053
 4121TIP3    H133922   6.260   5.159   8.756  1.1470  1.3947  0.9786
 4121TIP3    H233923   6.361   5.106   8.855 -0.8971 -0.8117  1.9712
 4122TIP3   OH233924   4.634   1.906   7.848  0.0318  1.0335 -0.3974
 4122TIP3    H133925   4.584   1.864   7.778  0.7575 -0.9828  0.2162
 4122TIP3    H233926   4.722   1.914   7.813  0.4827 -0.3172  0.3729
 4123TIP3   OH233927   4.916   3.461   6.931  0.2868 -0.4108 -0.0950
 4123TIP3    H133928   4.944   3.449   7.022 -0.2935 -0.0192  0.1378
 4123TIP3    H233929   4.928   3.375   6.891  1.8199 -0.2698 -0.0071
 4124TIP3   OH233930   5.592   1.651   8.225 -0.5448  0.1973  0.0841
 4124TIP3    H133931   5.547   1.646   8.309 -1.3185 -2.8994 -0.4012
 4124TIP3    H233932   5.536   1.705   8.171 -1.3296  0.1490  0.8344
 4125TIP3   OH233933   1.279   3.106   1.392 -0.3133 -0.2669 -0.7549
 4125TIP3    H133934   1.356   3.069   1.436 -1.9991 -2.9160  0.2529
 4125TIP3    H233935   1.214   3.116   1.461 -1.5727 -0.1499 -1.9069
 4126TIP3   OH233936   5.707   0.569   6.330 -0.0821 -0.0887 -0.1649
 4126TIP3    H133937   5.780   0.628   6.311 -0.9498  0.7718 -0.9015
 4126TIP3    H233938   5.749   0.487   6.357  1.2341 -0.3822 -2.7928
 4127TIP3   OH233939   6.587   4.174   7.857  0.0854  0.6020  0.0423
 4127TIP3    H133940   6.661   4.155   7.914  0.6219  1.0669 -0.4965
 4127TIP3    H233941   6.610   4.255   7.813 -1.0017  1.0693  0.3019
 4128TIP3   OH233942   3.629   2.690   6.783  0.0973 -0.3199  0.3839
 4128TIP3    H133943   3.628   2.694   6.687  0.5315  1.0267  0.4235
 4128TIP3    H233944   3.655   2.778   6.811  1.2413 -1.0321  1.7071
 4129TIP3   OH233945   5.986   4.868   7.980  0.4182 -0.1160 -0.2729
 4129TIP3    H133946   5.930   4.944   7.967 -0.4240 -0.8746 -1.2014
 4129TIP3    H233947   6.036   4.861   7.899  1.4273  0.1906  0.3086
 4130TIP3   OH233948   2.852   0.984   0.515  0.1920  0.0404 -0.1304
 4130TIP3    H133949   2.886   0.945   0.595  0.3511 -2.8295 -1.4678
 4130TIP3    H233950   2.781   1.041   0.545 -0.2233 -1.4632  2.0259
 4131TIP3   OH233951   0.396   4.275   1.296 -0.1490  0.2689 -0.2774
 4131TIP3    H133952   0.342   4.235   1.228  2.0363 -2.0927 -0.7389
 4131TIP3    H233953   0.394   4.213   1.369  1.7717  0.1588 -0.2606
 4132TIP3   OH233954   4.303   3.522   7.454 -0.0733 -0.0380 -0.2629
 4132TIP3    H133955   4.239   3.586   7.485  1.3621  1.3001  0.0718
 4132TIP3    H233956   4.256   3.471   7.388 -0.9031  2.2492 -1.5544
 4133TIP3   OH233957   2.731   3.271   7.811 -0.5824  0.2287 -0.2755
 4133TIP3    H133958   2.740   3.257   7.905 -1.5367 -1.9862 -0.4354
 4133TIP3    H233959   2.695   3.359   7.803 -0.5484  0.4368  1.4274
 4134TIP3   OH233960   3.493   5.323   0.666  0.2781 -0.3180  0.1729
 4134TIP3    H133961   3.480   5.383   0.740  2.4131  0.1819  0.1935
 4134TIP3    H233962   3.447   5.365   0.593  0.2729  0.4731  0.6143
 4135TIP3   OH233963   3.873   6.578   7.439  0.0492  0.7911 -0.2826
 4135TIP3    H133964   3.785   6.609   7.417  0.6492  1.5437 -1.7005
 4135TIP3    H233965   3.883   6.602   7.531 -1.0136  1.2048 -0.2507
 4136TIP3   OH233966   6.496   0.298   1.762 -0.3438  0.0933  0.3937
 4136TIP3    H133967   6.528   0.349   1.688  0.6879  1.5424  1.7838
 4136TIP3    H233968   6.417   0.345   1.790 -0.1784  0.1331  0.8022
 4137TIP3   OH233969   5.444   4.216   0.358 -0.0240  0.3223 -0.3920
 4137TIP3    H133970   5.511   4.281   0.337 -0.0474  0.9430  1.2965
 4137TIP3    H233971   5.470   4.180   0.442 -1.8962  0.7621  0.4392
 4138TIP3   OH233972   0.570   5.528   7.385 -0.1301  0.1954  0.2997
 4138TIP3    H133973   0.591   5.570   7.301  1.0444  1.6232  1.2525
 4138TIP3    H233974   0.514   5.591   7.430  0.1119 -0.0815  1.0053
 4139TIP3   OH233975   2.288   4.979   7.517 -0.2800  0.1829 -0.1850
 4139TIP3    H133976   2.193   4.972   7.510 -0.3908  0.9574  0.4373
 4139TIP3    H233977   2.305   5.073   7.519  0.5531  0.0627 -0.9274
 4140TIP3   OH233978   2.131   5.277   7.037 -0.4684  0.2705 -0.2795
 4140TIP3    H133979   2.210   5.321   7.006 -1.1384  1.3702 -0.4833
 4140TIP3    H233980   2.061   5.340   7.022 -1.3953 -0.6909 -0.1230
 4141TIP3   OH233981   2.498   0.379   0.376  0.1283 -0.3286 -0.1442
 4141TIP3    H133982   2.469   0.446   0.315 -1.1569 -0.1537  0.6365
 4141TIP3    H233983   2.426   0.368   0.437  0.4499 -2.1638 -0.0200
 4142TIP3   OH233984   0.469   1.736   0.599  0.4326 -0.2711 -0.0551
 4142TIP3    H133985   0.401   1.801   0.580  0.6431 -0.1401 -0.3752
 4142TIP3    H233986   0.437   1.655   0.559  0.2284 -0.3364  0.2361
 4143TIP3   OH233987   0.167   6.209   1.115  0.1288  0.1896  0.6613
 4143TIP3    H133988   0.141   6.119   1.094  0.7337 -0.0663  0.9841
 4143TIP3    H233989   0.180   6.208   1.210  0.1115  0.6258  0.6689
 4144TIP3   OH233990   4.931   0.472   7.157  0.2042  0.8223 -0.4926
 4144TIP3    H133991   4.884   0.389   7.159 -0.3511  1.0865 -1.6344
 4144TIP3    H233992   4.965   0.478   7.067  1.8598  0.9597  0.1021
 4145TIP3   OH233993   1.071   1.304   8.386 -0.9071 -0.3473 -0.0965
 4145TIP3    H133994   1.061   1.352   8.304  0.1761 -1.0691 -0.6874
 4145TIP3    H233995   1.092   1.371   8.451 -0.0974  0.0755 -0.7620
 4146TIP3   OH233996   6.353   5.416   8.144 -0.0482  0.0697 -0.2250
 4146TIP3    H133997   6.435   5.461   8.126  0.1486 -0.0267  0.3880
 4146TIP3    H233998   6.370   5.367   8.225 -0.5874 -0.2585 -0.3047
 4147TIP3   OH233999   2.248   0.077   1.601  1.2145 -0.0306 -0.0154
 4147TIP3    H134000   2.163   0.036   1.588 -0.2349  1.2618  3.9993
 4147TIP3    H234001   2.235   0.168   1.574  0.9047  0.4476  1.6581
 4148TIP3   OH234002   0.144   3.210   7.714 -0.7555 -0.3309  0.6868
 4148TIP3    H134003   0.233   3.245   7.722 -0.5640 -0.8376  0.8163
 4148TIP3    H234004   0.087   3.285   7.732 -0.3571  0.0654  0.3094
 4149TIP3   OH234005   4.861   1.881   7.464 -0.5899 -0.5044  0.5297
 4149TIP3    H134006   4.792   1.943   7.440 -1.0986 -1.2508  0.0282
 4149TIP3    H234007   4.942   1.921   7.430 -0.4534  1.2800  2.7106
 4150TIP3   OH234008   4.705   3.600   0.281  0.4847  0.0180 -0.1316
 4150TIP3    H134009   4.672   3.594   0.192 -1.2623  1.3694  0.3731
 4150TIP3    H234010   4.742   3.514   0.299 -0.3815 -0.7112 -1.6678
 4151TIP3   OH234011   0.418   3.889   0.516  0.6747 -0.4853 -0.2744
 4151TIP3    H134012   0.367   3.924   0.443  0.6843 -0.1776 -0.1339
 4151TIP3    H234013   0.414   3.957   0.583  0.4245 -0.8883  0.1238
 4152TIP3   OH234014   5.331   6.226   0.119 -0.1640  0.4108  0.4628
 4152TIP3    H134015   5.276   6.218   0.041 -0.1121  1.8690  0.2486
 4152TIP3    H234016   5.326   6.319   0.143  0.3282  0.1155  1.8305
 4153TIP3   OH234017   3.426   1.575   7.683 -0.0344 -0.3126 -0.3516
 4153TIP3    H134018   3.403   1.482   7.684 -1.9958  0.0376  2.9020
 4153TIP3    H234019   3.517   1.577   7.710 -1.0150 -1.3349  3.7655
 4154TIP3   OH234020   4.662   6.686   7.958  0.6286  0.4085  0.0052
 4154TIP3    H134021   4.688   6.725   8.041  0.5202 -1.6877  1.0959
 4154TIP3    H234022   4.731   6.622   7.939 -0.6510 -0.9810 -0.1525
 4155TIP3   OH234023   4.406   1.268   7.709  0.1472  0.1509  0.2997
 4155TIP3    H134024   4.402   1.257   7.804  1.7991  1.2047  0.5452
 4155TIP3    H234025   4.494   1.302   7.693 -0.2194  0.3212 -1.5811
 4156TIP3   OH234026   5.067   6.247   7.382 -0.5979 -0.6831  0.0092
 4156TIP3    H134027   5.155   6.210   7.385 -0.8434 -1.2817 -0.0039
 4156TIP3    H234028   5.010   6.172   7.365 -1.0315 -0.1861 -0.8106
 4157TIP3   OH234029   2.266   0.750   0.480  0.0484 -0.5321 -0.7368
 4157TIP3    H134030   2.251   0.843   0.494  0.3510 -0.6875  0.7699
 4157TIP3    H234031   2.276   0.741   0.385  1.7277  1.2283 -0.7750
 4158TIP3   OH234032   1.860   4.375   7.003 -0.1317 -0.3812 -0.3406
 4158TIP3    H134033   1.946   4.394   6.965  0.6326 -0.1573  1.3968
 4158TIP3    H234034   1.860   4.280   7.014 -1.2355 -0.7395 -2.7966
 4159TIP3   OH234035   6.740   5.908   0.554  0.3507 -0.1816 -0.1781
 4159TIP3    H134036   6.771   5.998   0.564 -0.3115 -0.2081  3.8242
 4159TIP3    H234037   6.817   5.859   0.525  0.5129  1.6759 -3.2984
 4160TIP3   OH234038   2.452   5.167   0.170 -0.4243  0.2064 -0.1858
 4160TIP3    H134039   2.388   5.186   0.101 -0.1551 -1.5200 -0.9691
 4160TIP3    H234040   2.405   5.112   0.232 -0.1429  0.2424  0.0624
 4161TIP3   OH234041   0.981   6.127   1.495  0.0169  0.4910  0.3938
 4161TIP3    H134042   1.019   6.103   1.410 -0.6259  0.4367  0.1142
 4161TIP3    H234043   0.890   6.098   1.489  0.1448 -0.1528  1.3680
 4162TIP3   OH234044   6.143   5.593   1.685 -0.5861  0.2337  0.1794
 4162TIP3    H134045   6.239   5.597   1.675 -0.5679 -0.5989 -0.0349
 4162TIP3    H234046   6.126   5.631   1.771 -0.1838  1.6467 -0.3330
 4163TIP3   OH234047   0.002   2.426   1.598  0.1198 -0.4040  0.5561
 4163TIP3    H134048   0.036   2.513   1.578 -1.0240  0.4130  2.0214
 4163TIP3    H234049  -0.023   2.390   1.512  0.3442  0.8058 -0.0342
 4164TIP3   OH234050   0.557   4.617   1.924  0.1174 -0.0963 -0.4866
 4164TIP3    H134051   0.544   4.564   1.846  0.1542 -1.6334  0.5120
 4164TIP3    H234052   0.505   4.696   1.909 -0.5419 -0.7381 -1.6942
 4165TIP3   OH234053   2.579   2.787   0.926 -0.8819 -0.5336  0.4582
 4165TIP3    H134054   2.645   2.820   0.864  0.9772 -0.2765  2.4392
 4165TIP3    H234055   2.530   2.722   0.876  1.2802 -1.1864 -0.9817
 4166TIP3   OH234056   0.237   2.575   6.515 -0.3052  0.3066 -0.1401
 4166TIP3    H134057   0.209   2.653   6.467  0.4708  1.0890  0.6423
 4166TIP3    H234058   0.156   2.525   6.529 -0.6960  0.6050 -1.2780
 4167TIP3   OH234059   6.472   2.784   7.330  0.2849  0.1495  0.9355
 4167TIP3    H134060   6.401   2.816   7.274  0.2507 -0.2241  0.7590
 4167TIP3    H234061   6.454   2.822   7.416  0.8342  1.4670  0.5003
 4168TIP3   OH234062   1.519   0.167   2.094 -0.1308  0.4127  0.1399
 4168TIP3    H134063   1.461   0.232   2.133 -1.0835  0.8571 -1.9035
 4168TIP3    H234064   1.466   0.087   2.092  0.9818 -0.5020  2.5031
 4169TIP3   OH234065   1.807   5.037   1.258  0.3016  0.4972 -0.4771
 4169TIP3    H134066   1.817   5.064   1.349 -0.4776 -0.4133 -0.1048
 4169TIP3    H234067   1.814   4.942   1.260 -2.0212  0.2486 -1.0003
 4170TIP3   OH234068   0.822   0.737   6.268  0.1403 -0.0584 -0.4629
 4170TIP3    H134069   0.884   0.730   6.196  0.1691  0.6266 -0.5096
 4170TIP3    H234070   0.836   0.825   6.303 -1.4854  0.4862 -1.1085
 4171TIP3   OH234071   4.018   6.631   1.574 -0.0114  0.2514 -0.0276
 4171TIP3    H134072   3.987   6.618   1.664  1.5516 -0.5517  0.4194
 4171TIP3    H234073   3.938   6.626   1.521 -0.8729  0.0401  1.2308
 4172TIP3   OH234074   3.924   3.105   8.452  0.3589  0.1682 -0.4388
 4172TIP3    H134075   3.890   3.187   8.489  0.3548  0.8740 -1.9141
 4172TIP3    H234076   4.017   3.121   8.441  0.5987 -0.5334  0.4854
 4173TIP3   OH234077   6.172   0.046   8.539  0.0459  0.1919 -0.2303
 4173TIP3    H134078   6.087   0.045   8.582 -0.3771  1.7007 -0.9549
 4173TIP3    H234079   6.161  -0.009   8.462  0.2661 -1.0118  0.5630
 4174TIP3   OH234080   1.916   4.491   0.325 -0.8189 -0.4017 -0.1350
 4174TIP3    H134081   1.943   4.560   0.264 -0.2943  0.9781  1.5643
 4174TIP3    H234082   1.848   4.532   0.379 -0.1028 -0.9940  1.2803
 4175TIP3   OH234083   5.468   2.413   0.579  0.4377  0.0449  0.6351
 4175TIP3    H134084   5.450   2.469   0.655 -0.4601 -0.7987  1.0627
 4175TIP3    H234085   5.562   2.424   0.563  1.0364 -1.0654  2.9646
 4176TIP3   OH234086   3.516   4.567   0.682 -0.4821 -0.1826  0.7999
 4176TIP3    H134087   3.513   4.475   0.658 -0.9134 -0.4816  1.9584
 4176TIP3    H234088   3.524   4.613   0.598  2.0360 -1.3447  0.3062
 4177TIP3   OH234089   3.762   2.890   8.318 -0.0350 -0.0733  0.3085
 4177TIP3    H134090   3.812   2.952   8.371  0.2112 -0.8758  1.0273
 4177TIP3    H234091   3.816   2.877   8.240 -0.4073  1.1195 -0.1807
 4178TIP3   OH234092   4.488   4.856   1.988 -0.3866  0.2646 -0.5100
 4178TIP3    H134093   4.413   4.807   1.954 -0.8307  0.3612  0.2946
 4178TIP3    H234094   4.564   4.800   1.972 -0.6859 -0.0084 -0.9826
 4179TIP3   OH234095   0.925   1.944   6.997  0.1081  0.0510  0.3790
 4179TIP3    H134096   0.906   1.855   6.966  0.8342 -0.1421  0.4716
 4179TIP3    H234097   0.943   1.994   6.918  0.7591 -0.1513  0.3882
 4180TIP3   OH234098   4.673   4.825   1.539 -0.1732  0.1507 -0.3992
 4180TIP3    H134099   4.655   4.739   1.576  0.0057 -0.6835 -2.1462
 4180TIP3    H234100   4.738   4.863   1.597 -0.9271 -0.4967  0.9166
 4181TIP3   OH234101   6.627   2.759   0.630  0.3630 -0.5100  0.0891
 4181TIP3    H134102   6.625   2.835   0.571 -1.8040  2.3337  3.4157
 4181TIP3    H234103   6.719   2.750   0.655  0.5820  1.7064  0.2937
 4182TIP3   OH234104   4.818   3.221   8.623 -0.2790  0.4546  0.4652
 4182TIP3    H134105   4.737   3.215   8.572  0.2156 -0.7916 -0.2054
 4182TIP3    H234106   4.819   3.311   8.656  0.9195  2.5409 -4.3264
 4183TIP3   OH234107   0.867   3.447   7.923 -0.2788  0.3181 -0.4123
 4183TIP3    H134108   0.802   3.490   7.978 -0.0783 -0.3614  0.3797
 4183TIP3    H234109   0.902   3.517   7.867 -2.4974  0.4933 -1.6991
 4184TIP3   OH234110   1.207   2.546   7.856 -0.2346  0.3911  0.0219
 4184TIP3    H134111   1.149   2.499   7.796  1.3169 -0.0715 -1.2011
 4184TIP3    H234112   1.210   2.635   7.822 -1.2030  0.7398  0.8365
 4185TIP3   OH234113   3.901   5.179   7.314 -0.4344  0.2617 -1.2807
 4185TIP3    H134114   3.908   5.084   7.320 -0.8599  0.2574 -0.8520
 4185TIP3    H234115   3.844   5.204   7.387  1.3282  1.0466 -0.1004
 4186TIP3   OH234116   3.710   1.516   8.164 -0.4165 -0.2282 -0.0909
 4186TIP3    H134117   3.794   1.526   8.208  0.2666 -1.2398 -1.1005
 4186TIP3    H234118   3.733   1.509   8.071 -1.7251  0.7548 -0.5112
 4187TIP3   OH234119   3.637   2.093   0.714 -0.5012 -0.3674 -0.2556
 4187TIP3    H134120   3.573   2.147   0.668 -0.7747 -0.7159 -0.2914
 4187TIP3    H234121   3.722   2.134   0.695 -0.6022 -0.5356 -1.1176
 4188TIP3   OH234122   1.597   0.445   6.985  0.4529 -0.3543 -0.2370
 4188TIP3    H134123   1.623   0.489   6.904  1.7489  1.4552  1.0696
 4188TIP3    H234124   1.559   0.362   6.956  0.1168  0.5712 -2.7183
 4189TIP3   OH234125   5.556   5.183   8.656  0.0244 -0.2509 -0.5105
 4189TIP3    H134126   5.506   5.173   8.737 -1.3570 -0.5522 -1.3744
 4189TIP3    H234127   5.646   5.194   8.686 -0.4497 -0.3146  1.0699
 4190TIP3   OH234128   5.925   0.929   2.433 -0.1094  0.5322 -0.0166
 4190TIP3    H134129   5.966   1.011   2.405  0.2318  0.6388  0.7905
 4190TIP3    H234130   5.831   0.942   2.418 -0.1369  1.3558  0.8204
 4191TIP3   OH234131   4.962   0.335   1.862  0.5457  0.1715 -0.3385
 4191TIP3    H134132   4.951   0.396   1.789  0.1775  1.2239  0.5600
 4191TIP3    H234133   4.887   0.353   1.919  0.7411 -0.7403  0.2251
 4192TIP3   OH234134   2.229   0.334   1.473  0.0461 -0.2804 -0.3151
 4192TIP3    H134135   2.241   0.390   1.549 -1.2541 -1.2282  0.6339
 4192TIP3    H234136   2.199   0.393   1.404 -0.5017  0.3119  0.4187
 4193TIP3   OH234137   4.267   2.640   7.676  0.1394 -0.3674 -0.4545
 4193TIP3    H134138   4.268   2.545   7.671 -0.6982 -0.4062  0.0283
 4193TIP3    H234139   4.351   2.666   7.638  0.7875 -1.3400  0.2388
 4194TIP3   OH234140   4.209   5.092   1.670 -0.6672  0.0472 -0.2705
 4194TIP3    H134141   4.159   5.110   1.749 -1.4270 -1.8523 -0.2818
 4194TIP3    H234142   4.147   5.106   1.598 -0.4095  0.2954 -0.4483
 4195TIP3   OH234143   1.965   1.721   0.823  0.2797 -0.0398 -0.6430
 4195TIP3    H134144   1.931   1.811   0.817 -1.7250 -0.5934  1.1459
 4195TIP3    H234145   2.024   1.723   0.898 -0.9881 -0.5032  0.4099
 4196TIP3   OH234146   5.431   5.122   7.559 -0.1023  0.0228  0.3828
 4196TIP3    H134147   5.433   5.126   7.654 -0.5741 -2.2500  0.5406
 4196TIP3    H234148   5.339   5.138   7.536  0.0815  0.9462  0.2740
 4197TIP3   OH234149   3.827   0.302   1.315  0.0163  0.1288 -0.2580
 4197TIP3    H134150   3.823   0.266   1.226 -1.3225 -0.0159 -0.1516
 4197TIP3    H234151   3.771   0.244   1.367  0.7102  0.2622  0.6738
 4198TIP3   OH234152   3.905   0.669   0.755  0.1949 -0.0087 -0.5576
 4198TIP3    H134153   3.934   0.719   0.832  3.2793 -1.8481 -0.3581
 4198TIP3    H234154   3.853   0.597   0.791  1.0429 -0.4690 -0.2306
 4199TIP3   OH234155   6.235   5.603   2.519 -0.4153  0.4367  0.1652
 4199TIP3    H134156   6.305   5.638   2.573 -1.2289  3.1095 -0.3566
 4199TIP3    H234157   6.216   5.517   2.556  2.1500  0.2318  1.1752
 4200TIP3   OH234158   5.699   2.529   0.038 -0.6371  1.2820  0.0520
 4200TIP3    H134159   5.675   2.591   0.107  0.3558 -1.1754  2.8358
 4200TIP3    H234160   5.776   2.484   0.072 -1.9153 -2.2193 -1.2545
 4201TIP3   OH234161   5.641   2.961   2.152  0.6287  1.1453  0.5170
 4201TIP3    H134162   5.721   2.998   2.191  1.1647 -0.0471  0.6030
 4201TIP3    H234163   5.627   2.879   2.200 -0.5699  1.2587  0.3903
 4202TIP3   OH234164   4.809   4.048   0.711  0.0236  0.1559 -0.3435
 4202TIP3    H134165   4.880   3.984   0.719  0.5266  0.9514  2.8181
 4202TIP3    H234166   4.732   3.995   0.689  1.1585 -0.9715 -1.8123
 4203TIP3   OH234167   1.810   2.399   0.016  0.7219  0.2339 -0.0420
 4203TIP3    H134168   1.825   2.458  -0.058  0.6518  1.0094  0.5410
 4203TIP3    H234169   1.761   2.326  -0.020  1.9684 -0.1221 -1.0624
 4204TIP3   OH234170   0.016   5.697   1.774  0.8051  0.3028  0.7214
 4204TIP3    H134171   0.016   5.644   1.854 -0.4031 -1.1329 -0.1969
 4204TIP3    H234172   0.044   5.637   1.705 -2.6610  0.1379 -0.7256
 4205TIP3   OH234173   0.542   0.990   1.591  0.3896 -0.4010  0.0473
 4205TIP3    H134174   0.585   1.021   1.671 -0.7018  1.0014  0.1189
 4205TIP3    H234175   0.546   0.894   1.598  1.8202 -0.3085  0.9340
 4206TIP3   OH234176   6.361   3.730   7.989 -0.4569  0.6625  0.1978
 4206TIP3    H134177   6.287   3.724   8.050 -1.2052 -1.3550 -0.8413
 4206TIP3    H234178   6.425   3.783   8.037 -1.5821  0.3958  2.1510
 4207TIP3   OH234179   3.622   4.407   6.861 -0.2576 -0.2139  0.3383
 4207TIP3    H134180   3.660   4.347   6.798 -1.4059  0.1018 -0.7040
 4207TIP3    H234181   3.536   4.369   6.881 -0.4926  0.4499  0.6088
 4208TIP3   OH234182   5.607   3.805   0.433  0.0017 -1.2759  0.1410
 4208TIP3    H134183   5.613   3.899   0.447  4.9555 -1.6293  2.3448
 4208TIP3    H234184   5.540   3.776   0.495 -0.3033  0.5780  0.7556
 4209TIP3   OH234185   4.381   0.060   8.636  0.6255  0.2176  0.5581
 4209TIP3    H134186   4.428   0.141   8.652 -0.9171  1.1069  0.7631
 4209TIP3    H234187   4.448  -0.008   8.640  1.7221  1.3209  1.7934
 4210TIP3   OH234188   1.152   2.582   6.589  0.2888 -0.4601 -0.1108
 4210TIP3    H134189   1.096   2.506   6.605 -1.1084  0.6017  0.2942
 4210TIP3    H234190   1.236   2.559   6.630 -0.7232 -1.0124  1.7864
 4211TIP3   OH234191   3.653   6.221   8.847  0.5604 -0.0608  0.5083
 4211TIP3    H134192   3.570   6.181   8.820  1.6252 -1.8710 -0.2038
 4211TIP3    H234193   3.720   6.157   8.824  2.3020  1.8210  0.0636
 4212TIP3   OH234194   4.982   5.251   2.096  0.6005  0.0297  0.0879
 4212TIP3    H134195   4.997   5.231   2.004  0.6047  0.1609  0.0609
 4212TIP3    H234196   4.892   5.284   2.099  0.4548 -0.3653  0.1901
 4213TIP3   OH234197   3.792   0.767   1.443  0.1346 -0.0011  0.3778
 4213TIP3    H134198   3.754   0.781   1.356 -0.1248  1.9770  0.7676
 4213TIP3    H234199   3.764   0.678   1.467 -0.4122 -0.3035 -1.2317
 4214TIP3   OH234200   0.474   3.068   8.367 -0.1397 -0.0466  0.1831
 4214TIP3    H134201   0.424   3.097   8.291  0.4573  5.4974  1.4508
 4214TIP3    H234202   0.410   3.060   8.437 -0.3102 -2.4168 -0.1645
 4215TIP3   OH234203   0.115   3.474   1.556 -0.2900 -0.6304 -0.1029
 4215TIP3    H134204   0.076   3.489   1.642 -2.6426 -2.4132 -0.7385
 4215TIP3    H234205   0.206   3.452   1.574 -0.6820 -0.8108  1.9208
 4216TIP3   OH234206   4.653   5.990   1.391  0.0848 -0.2256 -0.3027
 4216TIP3    H134207   4.693   5.916   1.344 -0.4779 -0.6390 -0.1443
 4216TIP3    H234208   4.577   6.014   1.338  0.8124  0.8970 -0.8773
 4217TIP3   OH234209   6.747   5.422   7.242 -0.1104 -0.3178 -0.2307
 4217TIP3    H134210   6.707   5.335   7.254 -0.2438 -0.5668 -2.1175
 4217TIP3    H234211   6.744   5.436   7.147 -0.0331  1.7348  0.0302
 4218TIP3   OH234212   1.136   2.023   2.236 -0.0089 -0.5210 -0.4363
 4218TIP3    H134213   1.150   1.985   2.323  1.4526  0.1723 -0.3326
 4218TIP3    H234214   1.171   1.958   2.175 -1.5033 -1.2363 -0.5662
 4219TIP3   OH234215   5.130   1.362   2.243 -0.2490  0.4982 -0.6183
 4219TIP3    H134216   5.147   1.270   2.223  1.4555  1.1529 -2.5616
 4219TIP3    H234217   5.151   1.371   2.336 -3.4982 -1.6612  0.4899
 4220TIP3   OH234218   1.896   5.569   8.030  0.5390  0.4034  0.0249
 4220TIP3    H134219   1.955   5.625   8.080  0.1070  1.1027 -0.2445
 4220TIP3    H234220   1.862   5.506   8.095  1.6111 -0.0478  0.1707
 4221TIP3   OH234221   5.255   3.373   1.986 -0.2268  0.4627 -0.1036
 4221TIP3    H134222   5.265   3.285   1.951  1.3565  0.7240 -0.3973
 4221TIP3    H234223   5.263   3.363   2.081  0.0266  0.3079 -0.1423
 4222TIP3   OH234224   5.988   4.132   8.286  0.4535  0.7055  0.0734
 4222TIP3    H134225   6.028   4.123   8.199 -0.4666  1.6070 -0.4617
 4222TIP3    H234226   5.910   4.186   8.271 -0.0196  0.4120  1.3750
 4223TIP3   OH234227   5.294   0.780   1.439 -0.3696 -0.1907 -0.1172
 4223TIP3    H134228   5.292   0.793   1.534 -0.1903  0.7322 -0.2323
 4223TIP3    H234229   5.232   0.845   1.405 -2.3236 -2.1027 -0.4904
 4224TIP3   OH234230   3.286   0.003   7.374  0.4459  0.0265 -0.6365
 4224TIP3    H134231   3.204   0.050   7.358  0.8011  0.4706 -1.1828
 4224TIP3    H234232   3.346   0.069   7.408  0.4898 -0.3675  0.0854
 4225TIP3   OH234233   5.970   6.603   1.405 -0.2080 -0.2730 -0.0117
 4225TIP3    H134234   5.958   6.697   1.419  0.2069  0.0786 -1.7265
 4225TIP3    H234235   5.942   6.562   1.487  0.0630  1.3672  0.9369
 4226TIP3   OH234236   1.094   2.871   8.370 -0.2037  0.0658  0.3587
 4226TIP3    H134237   1.015   2.870   8.425 -0.0134 -0.8358  0.6301
 4226TIP3    H234238   1.131   2.958   8.382 -0.8410  0.2942  0.6928
 4227TIP3   OH234239   1.772   0.322   7.597  0.6825 -0.7253 -0.0346
 4227TIP3    H134240   1.815   0.398   7.636  0.6705 -1.6141  1.8175
 4227TIP3    H234241   1.825   0.247   7.625  0.1252 -1.4982 -0.9639
 4228TIP3   OH234242   5.002   5.001   8.135 -0.0975  0.7069 -0.0989
 4228TIP3    H134243   5.068   5.071   8.142 -1.2990  2.0056 -1.2639
 4228TIP3    H234244   4.989   4.989   8.041 -1.1687  0.1066  0.1106
 4229TIP3   OH234245   6.718   3.455   0.781 -0.3509  0.2516  0.6767
 4229TIP3    H134246   6.749   3.439   0.870 -0.9338 -2.2331  0.5063
 4229TIP3    H234247   6.624   3.469   0.791 -0.4606 -0.3001  0.4303
 4230TIP3   OH234248   1.217   0.698   2.459  0.1157  0.6107 -0.1964
 4230TIP3    H134249   1.240   0.658   2.375 -0.3385 -0.1305  0.0184
 4230TIP3    H234250   1.244   0.633   2.524 -0.2779  0.8290  0.1887
 4231TIP3   OH234251   2.963   6.114   0.059  0.4007  0.5252 -0.3540
 4231TIP3    H134252   2.951   6.175  -0.014  0.1666 -1.1446 -1.7631
 4231TIP3    H234253   2.899   6.045   0.043  0.7312 -0.1685  1.1444
 4232TIP3   OH234254   4.249   5.639   1.388  0.0114  0.2877  0.3094
 4232TIP3    H134255   4.266   5.627   1.482  1.1814  1.4492  0.2854
 4232TIP3    H234256   4.166   5.686   1.384  0.5669  1.3805  0.8641
 4233TIP3   OH234257   5.674   4.900   7.622 -0.4246 -0.5851  0.2247
 4233TIP3    H134258   5.614   4.936   7.688  1.3542  0.6024  1.2548
 4233TIP3    H234259   5.650   4.946   7.541 -0.1445  0.7839  0.8839
 4234TIP3   OH234260   1.427   0.506   0.824 -0.0873 -0.1992 -0.1790
 4234TIP3    H134261   1.468   0.432   0.780  0.0477  0.2436 -0.8176
 4234TIP3    H234262   1.482   0.581   0.800  2.5761 -0.4664  4.1177
 4235TIP3   OH234263   0.963   0.531   1.341 -0.2239  0.7684  0.6535
 4235TIP3    H134264   0.898   0.467   1.313  2.1776 -0.8589 -1.6079
 4235TIP3    H234265   0.979   0.509   1.433 -1.9375  0.4068  0.8944
 4236TIP3   OH234266   5.294   6.152   1.344  0.6705  0.1312  0.2195
 4236TIP3    H134267   5.305   6.240   1.308  0.2147  0.2476  0.3614
 4236TIP3    H234268   5.337   6.156   1.429  2.8337 -0.4872 -0.7719
 4237TIP3   OH234269   6.765   5.487   6.662  0.1829 -0.6061 -0.3981
 4237TIP3    H134270   6.734   5.569   6.625 -1.9708 -1.7416 -1.2729
 4237TIP3    H234271   6.693   5.425   6.648  1.1085 -2.2643  1.6156
 4238TIP3   OH234272   2.990   0.141   6.625  0.4854  0.1933  0.6220
 4238TIP3    H134273   3.008   0.186   6.708 -1.0968  1.1687  0.4846
 4238TIP3    H234274   2.895   0.127   6.626  0.7094 -1.6722 -0.1114
 4239TIP3   OH234275   3.683   1.767   7.513  0.2014 -0.6338 -0.0456
 4239TIP3    H134276   3.714   1.842   7.463 -2.1476  1.1238  0.9230
 4239TIP3    H234277   3.587   1.772   7.507 -0.2991 -0.1552  4.5894
 4240TIP3   OH234278   6.490   0.028   8.325  0.2633  0.2601 -0.8098
 4240TIP3    H134279   6.486   0.049   8.232  1.0217  0.1889 -0.8645
 4240TIP3    H234280   6.422  -0.039   8.338  0.7065 -0.3252 -1.4717
 4241TIP3   OH234281   2.640   4.561   1.509  0.6654 -0.0673 -0.4839
 4241TIP3    H134282   2.684   4.646   1.509  1.4209 -0.4471 -1.1948
 4241TIP3    H234283   2.636   4.537   1.601  1.1416  0.3873 -0.3371
 4242TIP3   OH234284   3.636   5.124   0.563  0.0602  0.0719  0.2257
 4242TIP3    H134285   3.582   5.049   0.591 -0.6485  0.7400  0.7026
 4242TIP3    H234286   3.592   5.200   0.601  1.3457  0.6462  0.6284
 4243TIP3   OH234287   3.673   5.689   0.672 -0.0407 -0.8897  0.0615
 4243TIP3    H134288   3.753   5.731   0.641 -0.2999  0.0379  0.6167
 4243TIP3    H234289   3.602   5.736   0.627 -0.2543 -2.5944 -1.4873
 4244TIP3   OH234290   3.008   0.056   1.701 -0.0846 -0.2220 -0.3836
 4244TIP3    H134291   3.005   0.089   1.791  1.9148  0.1518 -0.4152
 4244TIP3    H234292   2.917   0.058   1.672 -0.5757  1.1412  1.1010
 4245TIP3   OH234293   2.733   1.256   1.289  0.4626 -0.1982  0.6680
 4245TIP3    H134294   2.768   1.244   1.201  2.2374  2.4833  0.8876
 4245TIP3    H234295   2.639   1.239   1.280  0.1709  2.2063 -2.3072
 4246TIP3   OH234296   3.794   3.278   8.632 -0.0746 -0.0674  0.0417
 4246TIP3    H134297   3.719   3.328   8.664 -0.8328 -1.6863  0.9242
 4246TIP3    H234298   3.763   3.188   8.627  1.7026 -0.7317  0.1126
 4247TIP3   OH234299   0.699   4.661   0.349 -0.0911 -0.0050  0.2463
 4247TIP3    H134300   0.792   4.679   0.335 -0.0095 -0.7403 -0.2345
 4247TIP3    H234301   0.662   4.653   0.261 -0.4161 -0.6229  0.4318
 4248TIP3   OH234302   5.066   2.111   8.143  0.2319 -0.6816  0.3775
 4248TIP3    H134303   5.115   2.136   8.221  0.2074 -0.6606  0.3864
 4248TIP3    H234304   4.997   2.178   8.137  0.1075 -0.8031  0.4563
 4249TIP3   OH234305   4.048   2.804   7.348  0.3548 -0.7211 -0.4587
 4249TIP3    H134306   4.111   2.737   7.321  0.5898 -0.2708 -1.0624
 4249TIP3    H234307   3.963   2.761   7.344  0.3692 -0.6540 -2.0298
 4250TIP3   OH234308   6.293   1.241   1.407  0.0891  0.3532  0.3198
 4250TIP3    H134309   6.247   1.297   1.470  0.4833  0.5906  0.4067
 4250TIP3    H234310   6.234   1.235   1.332 -0.5660 -0.2672  0.8666
 4251TIP3   OH234311   0.591   5.972   7.550  0.6238 -0.1551 -0.1592
 4251TIP3    H134312   0.525   5.992   7.484  1.2805 -2.1865 -1.5162
 4251TIP3    H234313   0.669   6.019   7.520  0.3774  0.5652  0.3083
 4252TIP3   OH234314   5.362   2.473   7.254  0.0614 -0.0027  0.1339
 4252TIP3    H134315   5.372   2.493   7.347 -1.0730  1.3495  0.0036
 4252TIP3    H234316   5.413   2.393   7.240  0.0401 -0.3610  1.9602
 4253TIP3   OH234317   5.071   0.292   8.272  0.2299 -0.1586 -0.3565
 4253TIP3    H134318   5.024   0.284   8.355 -0.7795 -0.7376 -0.9579
 4253TIP3    H234319   5.139   0.357   8.289  0.0171 -0.2321  0.9050
 4254TIP3   OH234320   5.876   6.246   1.481  0.1002  0.0721 -0.4348
 4254TIP3    H134321   5.965   6.217   1.463 -0.6007 -2.2466 -0.5340
 4254TIP3    H234322   5.884   6.306   1.555  1.5825 -1.4997  0.7587
 4255TIP3   OH234323   5.308   2.177   0.623  0.0872  0.6570  0.0155
 4255TIP3    H134324   5.380   2.128   0.584  0.8164  0.6114  1.3678
 4255TIP3    H234325   5.346   2.261   0.648 -0.8973  1.5472 -1.3009
 4256TIP3   OH234326   6.192   3.345   0.831  0.7746 -0.0075 -0.0870
 4256TIP3    H134327   6.152   3.258   0.825 -0.3294  0.0422  3.5190
 4256TIP3    H234328   6.269   3.332   0.887  0.7659  1.2514  0.2475
 4257TIP3   OH234329   4.013   2.650   0.812 -0.2328  0.1363 -0.5057
 4257TIP3    H134330   4.049   2.561   0.807 -1.0747 -0.6266  3.2584
 4257TIP3    H234331   4.089   2.707   0.806  0.4266 -0.8366 -2.0898
 4258TIP3   OH234332   0.717   4.655   1.666  0.6028  0.1457 -0.6619
 4258TIP3    H134333   0.796   4.605   1.687  1.3094  1.2736 -0.5205
 4258TIP3    H234334   0.650   4.589   1.650  0.8455 -0.8395  1.9673
 4259TIP3   OH234335   3.744   5.272   8.094 -0.5865  0.7534 -0.1747
 4259TIP3    H134336   3.742   5.210   8.167 -2.4087  0.9564  0.0054
 4259TIP3    H234337   3.720   5.220   8.017  1.1724  0.5735 -0.6267
 4260TIP3   OH234338   2.277   3.755   0.936 -0.2143  0.6167  0.1700
 4260TIP3    H134339   2.271   3.795   1.023 -1.6509 -0.7376  0.7384
 4260TIP3    H234340   2.340   3.684   0.948  0.2170  0.9459 -0.1231
 4261TIP3   OH234341   0.406   0.834   8.679  0.5481 -0.1655 -0.0046
 4261TIP3    H134342   0.374   0.924   8.680 -0.0914 -0.3819  1.5941
 4261TIP3    H234343   0.382   0.799   8.765 -0.3593 -2.2590 -1.0293
 4262TIP3   OH234344   0.716   5.293   7.404 -0.2842  0.2685  0.2647
 4262TIP3    H134345   0.669   5.374   7.384 -1.4150  0.5207  3.3367
 4262TIP3    H234346   0.667   5.225   7.357 -0.0515  1.1908 -1.3745
 4263TIP3   OH234347   2.015   0.935   6.473 -0.1295 -0.1373  0.3790
 4263TIP3    H134348   1.951   0.912   6.406 -2.1520 -0.3532  2.2608
 4263TIP3    H234349   2.092   0.883   6.452 -0.4391  0.3170 -2.1225
 4264TIP3   OH234350   4.722   1.094   1.721 -0.2520 -0.1023 -0.3554
 4264TIP3    H134351   4.705   1.181   1.757 -0.6425  0.3757 -1.6564
 4264TIP3    H234352   4.817   1.091   1.709  0.2798 -1.2196  2.9839
 4265TIP3   OH234353   3.374   4.568   7.742 -0.2390  0.2768  0.0231
 4265TIP3    H134354   3.352   4.655   7.709 -3.3569 -0.6768 -0.7227
 4265TIP3    H234355   3.352   4.572   7.835 -0.5242  0.2573 -0.0422
 4266TIP3   OH234356   4.060   2.404   1.415  0.1993  0.5961  0.1619
 4266TIP3    H134357   4.068   2.486   1.367 -1.3735 -0.1550 -1.4868
 4266TIP3    H234358   3.967   2.381   1.410  0.3677 -0.6680  1.6812
 4267TIP3   OH234359   6.247   1.898   1.017  0.1213 -0.3244 -0.1096
 4267TIP3    H134360   6.336   1.863   1.007  1.3463  2.3538  0.2560
 4267TIP3    H234361   6.230   1.895   1.111 -0.7818 -2.0778 -0.3025
 4268TIP3   OH234362   3.280   0.771   7.415 -0.3405  0.4918 -0.3978
 4268TIP3    H134363   3.224   0.839   7.379 -0.8771  0.4469  0.3235
 4268TIP3    H234364   3.309   0.806   7.499 -1.2032 -0.4379  0.3186
 4269TIP3   OH234365   5.575   2.209   1.361  0.0284  0.0099 -0.5524
 4269TIP3    H134366   5.538   2.121   1.360 -0.3878  0.1867 -1.2483
 4269TIP3    H234367   5.660   2.198   1.405 -0.6207 -0.4749  0.6393
 4270TIP3   OH234368   4.812   3.079   8.035 -0.0019 -0.5216  0.5590
 4270TIP3    H134369   4.764   3.158   8.010  0.8858  1.3426  4.0262
 4270TIP3    H234370   4.852   3.048   7.954 -2.7390  0.8572 -1.4727
 4271TIP3   OH234371   2.084   5.698   7.525  0.4148  0.0844  0.3080
 4271TIP3    H134372   2.054   5.637   7.593 -0.3308 -0.3260 -0.3830
 4271TIP3    H234373   2.051   5.783   7.554 -1.8701 -0.4073 -0.6390
 4272TIP3   OH234374   4.342   0.548   6.935  0.5621  0.3236 -0.1876
 4272TIP3    H134375   4.375   0.636   6.919 -1.4327  1.1637 -0.0815
 4272TIP3    H234376   4.363   0.499   6.856 -0.4719  1.6352 -1.3247
 4273TIP3   OH234377   0.474   1.225   1.439  0.2499  0.3589  0.5478
 4273TIP3    H134378   0.500   1.306   1.482 -1.9124 -0.1130  2.9394
 4273TIP3    H234379   0.504   1.155   1.497 -0.2688 -0.4282 -0.0987
 4274TIP3   OH234380   2.284   2.864   8.386  0.1049 -0.1621 -0.3061
 4274TIP3    H134381   2.289   2.782   8.337  0.7570 -0.2669 -0.0700
 4274TIP3    H234382   2.193   2.868   8.416 -0.3806  0.0222 -1.7082
 4275TIP3   OH234383   1.651   3.768   8.687  0.3891  0.5817  0.3598
 4275TIP3    H134384   1.562   3.768   8.723  1.0382 -1.1596  2.1443
 4275TIP3    H234385   1.706   3.801   8.758  1.2071  1.6960 -0.7446
 4276TIP3   OH234386   3.313   2.031   6.649  0.9545 -0.1783  0.2829
 4276TIP3    H134387   3.379   2.094   6.620  1.5032 -0.9700 -0.2354
 4276TIP3    H234388   3.339   1.948   6.608 -1.8452  0.0203 -2.2432
 4277TIP3   OH234389   3.675   0.491   8.772 -0.7253  0.5198 -0.1803
 4277TIP3    H134390   3.652   0.445   8.853  1.0796  1.3212  0.8344
 4277TIP3    H234391   3.603   0.553   8.758 -1.2892  0.0390  0.5271
 4278TIP3   OH234392   6.470   0.118   8.769 -0.1722 -0.2890 -0.4669
 4278TIP3    H134393   6.435   0.174   8.701 -0.1497  1.4031  0.8602
 4278TIP3    H234394   6.509   0.178   8.833  2.1071 -1.9172 -0.1989
 4279TIP3   OH234395   3.948   1.574   0.262  0.6890  0.0896  0.1492
 4279TIP3    H134396   4.015   1.638   0.240 -0.7018  1.6239  0.2426
 4279TIP3    H234397   3.966   1.551   0.353  0.9024  0.7047  0.2621
 4280TIP3   OH234398   2.323   0.594   1.342 -0.2904 -0.0499  0.2693
 4280TIP3    H134399   2.381   0.573   1.415  0.1247  1.5204  0.4137
 4280TIP3    H234400   2.349   0.682   1.315  1.3785 -1.4572 -3.4437
 4281TIP3   OH234401   3.974   3.628   0.802 -0.7290  0.2963  0.0421
 4281TIP3    H134402   3.979   3.722   0.783 -0.5502  0.3977  0.5543
 4281TIP3    H234403   3.977   3.624   0.898  1.4884 -0.3636 -0.0087
 4282TIP3   OH234404   5.409   2.886   1.557 -0.0416  0.4510  0.1022
 4282TIP3    H134405   5.458   2.965   1.535  0.5628 -0.5829 -2.5420
 4282TIP3    H234406   5.475   2.818   1.569 -0.6704 -0.2811 -0.4557
 4283TIP3   OH234407   3.358   4.744   6.830 -0.4377  0.2271  0.0525
 4283TIP3    H134408   3.412   4.668   6.811 -1.3875 -0.1244 -1.4317
 4283TIP3    H234409   3.404   4.818   6.789  0.9376  0.6618  2.2416
 4284TIP3   OH234410   1.991   2.425   7.157 -0.0317 -0.0174  0.5106
 4284TIP3    H134411   1.941   2.355   7.199 -2.9909  1.6613  0.0378
 4284TIP3    H234412   1.985   2.405   7.063 -1.0572  0.8931  0.3588
 4285TIP3   OH234413   5.025   4.787   1.484 -0.7278  0.0339 -0.0919
 4285TIP3    H134414   5.108   4.743   1.501 -0.7283  0.3404  0.7069
 4285TIP3    H234415   4.990   4.742   1.407 -0.3005 -0.7669  0.1715
 4286TIP3   OH234416   2.323   1.150   8.810 -0.2080  0.2898  0.3123
 4286TIP3    H134417   2.248   1.206   8.833 -0.4303  0.8290 -1.5341
 4286TIP3    H234418   2.291   1.097   8.737  0.0777 -2.1659  1.8601
 4287TIP3   OH234419   0.230   4.042   0.074  0.4446 -1.1174  0.3308
 4287TIP3    H134420   0.146   4.087   0.076  0.5887 -0.7974 -0.5564
 4287TIP3    H234421   0.274   4.069   0.155 -0.0181 -0.7409  0.4597
 4288TIP3   OH234422   5.141   1.000   1.379  0.1664  0.4527 -0.3745
 4288TIP3    H134423   5.133   1.037   1.291  1.6553 -0.5715 -0.9900
 4288TIP3    H234424   5.177   1.071   1.433 -1.6819  1.3926 -0.3225
 4289TIP3   OH234425   5.048   2.476   7.714 -0.1344 -0.2860  0.3450
 4289TIP3    H134426   5.007   2.562   7.723 -0.0203 -0.1962  0.0143
 4289TIP3    H234427   4.983   2.415   7.750  0.2997  0.0538  1.7613
 4290TIP3   OH234428   1.556   2.362   1.582 -0.0378  0.3216  0.6120
 4290TIP3    H134429   1.582   2.274   1.557 -1.0002 -0.4020  2.0118
 4290TIP3    H234430   1.556   2.412   1.501 -0.0330 -1.1157 -0.2952
 4291TIP3   OH234431   3.765   5.900   2.054  0.0710  0.5210 -0.1337
 4291TIP3    H134432   3.744   5.971   2.115 -1.1867 -1.1101  1.4488
 4291TIP3    H234433   3.858   5.882   2.070 -0.3646 -0.2806  1.8506
 4292TIP3   OH234434   5.051   2.077   0.012  0.3841 -0.1861  0.2148
 4292TIP3    H134435   4.988   2.117  -0.046  1.3963  2.1050  0.5711
 4292TIP3    H234436   5.124   2.139   0.015  2.1195 -2.1359  0.7640
 4293TIP3   OH234437   0.491   0.073   2.103 -0.1113  0.1808  0.4334
 4293TIP3    H134438   0.483   0.104   2.193  0.0884 -0.5685  0.7147
 4293TIP3    H234439   0.585   0.068   2.087 -0.0917  2.7129 -0.6806
 4294TIP3   OH234440   3.834   4.900   0.887 -0.2737  0.5830  0.3340
 4294TIP3    H134441   3.912   4.905   0.942 -1.5690  2.7302  2.1325
 4294TIP3    H234442   3.801   4.990   0.884 -1.8300  0.0134 -1.6813
 4295TIP3   OH234443   0.613   6.312   8.400 -0.0396 -0.2867 -0.0932
 4295TIP3    H134444   0.634   6.371   8.328  0.6547  3.2109  2.6692
 4295TIP3    H234445   0.692   6.260   8.412  0.1337 -0.3242 -1.2978
 4296TIP3   OH234446   2.630   5.867   8.047  0.7703  0.1090 -0.0517
 4296TIP3    H134447   2.681   5.863   7.966 -0.5047 -1.1624 -0.8379
 4296TIP3    H234448   2.612   5.961   8.058  0.2615  0.2473 -1.7169
 4297TIP3   OH234449   3.684   5.490   1.495  0.4667 -0.6910 -0.2719
 4297TIP3    H134450   3.621   5.501   1.566 -0.0955 -0.4565 -0.8000
 4297TIP3    H234451   3.651   5.416   1.445 -0.7526  0.8873 -1.9355
 4298TIP3   OH234452   5.329   3.599   2.272  0.6043  0.0129  0.2578
 4298TIP3    H134453   5.285   3.524   2.314 -1.8956  0.4428 -1.3710
 4298TIP3    H234454   5.299   3.675   2.323  2.1572  0.0702  1.1454
 4299TIP3   OH234455   4.661   1.498   1.258 -0.6690 -0.1845 -0.1335
 4299TIP3    H134456   4.586   1.440   1.269 -2.4985  2.0541 -0.0168
 4299TIP3    H234457   4.650   1.535   1.170  1.6041 -1.4649 -1.0397
 4300TIP3   OH234458   4.915   4.683   1.225  0.2089  0.0471 -0.4311
 4300TIP3    H134459   4.862   4.659   1.150  0.4963  0.1953 -0.6833
 4300TIP3    H234460   4.884   4.770   1.249  1.2868  0.7409 -1.4569
 4301TIP3   OH234461   0.975   3.092   1.181  0.3753 -0.1778  0.2204
 4301TIP3    H134462   1.014   3.179   1.169  1.4757 -0.6584  0.2457
 4301TIP3    H234463   0.963   3.084   1.276  0.9435 -0.3350  0.2814
 4302TIP3   OH234464   1.659   4.058   1.455  0.8871 -0.1461 -0.0077
 4302TIP3    H134465   1.601   4.015   1.519  0.5257  1.0235  0.4843
 4302TIP3    H234466   1.623   4.035   1.370  0.8030 -0.9432  0.2369
 4303TIP3   OH234467   5.112   5.147   7.039 -0.6277  0.3479  0.3385
 4303TIP3    H134468   5.093   5.239   7.022  0.8962  0.8065  0.8692
 4303TIP3    H234469   5.207   5.140   7.024 -0.7660 -1.1954  0.0582
 4304TIP3   OH234470   1.807   3.953   0.801  0.4111 -0.1191  0.4578
 4304TIP3    H134471   1.717   3.926   0.819  0.3800 -0.1949  0.2013
 4304TIP3    H234472   1.801   4.046   0.781  0.5751  0.1917  1.7578
 4305TIP3   OH234473   2.060   2.309   0.100 -0.1519 -0.2122 -0.0660
 4305TIP3    H134474   1.976   2.354   0.095 -0.5232 -0.6869  1.4967
 4305TIP3    H234475   2.065   2.276   0.189  0.9539 -1.6492 -0.6068
 4306TIP3   OH234476   6.443   6.592   0.545  0.2742  0.4108  0.5981
 4306TIP3    H134477   6.356   6.626   0.524 -0.2163 -1.7412 -1.2819
 4306TIP3    H234478   6.493   6.603   0.464  1.5067  0.8459  1.3946
 4307TIP3   OH234479   0.537   3.274   7.892  0.4744  0.1234  0.7658
 4307TIP3    H134480   0.548   3.275   7.987  1.1758 -1.3214  0.7405
 4307TIP3    H234481   0.555   3.183   7.867 -2.5229 -0.2417 -0.4549
 4308TIP3   OH234482   3.036   1.553   1.442  0.6995 -0.2348 -0.0984
 4308TIP3    H134483   3.057   1.489   1.374 -1.2346 -0.1888 -0.8245
 4308TIP3    H234484   2.978   1.616   1.398 -1.1453 -0.5607  1.7167
 4309TIP3   OH234485   0.127   2.960   8.196 -0.0920  0.1547  0.3709
 4309TIP3    H134486   0.178   2.886   8.164 -0.0652 -0.7211  2.3347
 4309TIP3    H234487   0.165   3.036   8.152  1.0270 -0.7965 -0.3661
 4310TIP3   OH234488   5.619   5.494   0.618 -0.3691 -0.1127  0.0320
 4310TIP3    H134489   5.582   5.579   0.595  0.1799  0.2076  0.3347
 4310TIP3    H234490   5.595   5.482   0.710  0.3773  0.1500  0.2644
 4311TIP3   OH234491   3.115   1.177   0.905 -0.4573  0.4188  0.0294
 4311TIP3    H134492   3.210   1.186   0.910 -0.4915  0.5403  0.4704
 4311TIP3    H234493   3.092   1.213   0.819  0.1120 -1.4764 -0.9753
 4312TIP3   OH234494   5.631   3.204   8.610 -0.2506 -0.5694 -0.6350
 4312TIP3    H134495   5.598   3.114   8.609  1.1724 -1.1318 -0.2862
 4312TIP3    H234496   5.690   3.209   8.535  1.5732 -0.7452  0.6868
 4313TIP3   OH234497   3.503   5.327   8.543  0.1045  0.8866 -0.5761
 4313TIP3    H134498   3.445   5.359   8.474  0.4078  1.0455 -0.7593
 4313TIP3    H234499   3.589   5.320   8.501  0.2772  0.9153 -0.2356
 4314TIP3   OH234500   5.103   1.169   1.120 -0.6395 -0.0639  0.2481
 4314TIP3    H134501   5.052   1.238   1.162  1.0750  1.5331 -0.1405
 4314TIP3    H234502   5.082   1.177   1.027  0.9838  1.2951 -0.0538
 4315TIP3   OH234503   0.016   4.907   0.356  0.0208 -0.4083 -0.1568
 4315TIP3    H134504   0.019   4.881   0.448  1.4481 -1.3201 -0.4191
 4315TIP3    H234505  -0.075   4.893   0.330 -0.3770 -0.2263  1.0856
 4316TIP3   OH234506   3.567   0.514   1.225  0.6078 -0.7430  0.0640
 4316TIP3    H134507   3.561   0.601   1.186 -0.2162 -1.3225 -1.1797
 4316TIP3    H234508   3.582   0.530   1.318  1.6252  0.7075 -0.3114
 4317TIP3   OH234509   5.365   5.035   6.921  0.4242 -0.5786 -0.0832
 4317TIP3    H134510   5.444   5.079   6.888  1.3071 -2.6521 -0.8914
 4317TIP3    H234511   5.340   4.975   6.851 -1.5436 -0.4200  0.4281
 4318TIP3   OH234512   6.387   0.093   1.089 -0.6550 -0.4358  0.6810
 4318TIP3    H134513   6.307   0.141   1.070  0.4451  0.2489 -2.8215
 4318TIP3    H234514   6.391   0.024   1.023  1.1002 -1.1710  1.4739
 4319TIP3   OH234515   4.874   4.078   8.058 -0.5800  0.3222 -0.4614
 4319TIP3    H134516   4.860   4.114   8.145 -1.3225  1.5044 -1.0508
 4319TIP3    H234517   4.922   3.997   8.073 -0.2034  0.7927  1.0060
 4320TIP3   OH234518   5.485   5.099   0.704  0.2147 -0.2098 -0.2401
 4320TIP3    H134519   5.411   5.159   0.713  0.3530 -0.0423 -0.1864
 4320TIP3    H234520   5.562   5.154   0.723  0.3432 -0.4040 -0.1919
 4321TIP3   OH234521   5.091   0.177   1.227 -0.2404  0.2564  0.1976
 4321TIP3    H134522   4.997   0.159   1.218 -0.1942  1.0060 -2.7610
 4321TIP3    H234523   5.129   0.093   1.256 -1.8316  0.1721  2.3378
 4322TIP3   OH234524   3.367   1.109   7.840  0.6052  0.4468 -0.0100
 4322TIP3    H134525   3.295   1.171   7.850 -1.4643 -1.9350  1.1576
 4322TIP3    H234526   3.381   1.075   7.929  1.9068 -0.5019 -0.5477
 4323TIP3   OH234527   5.287   6.541   7.362 -0.3808  0.2628  0.4504
 4323TIP3    H134528   5.285   6.520   7.269 -0.0099  2.4901 -0.1278
 4323TIP3    H234529   5.379   6.529   7.387 -0.6155 -1.0543  0.7479
 4324TIP3   OH234530   2.052   0.245   7.511 -0.2173  0.2788 -0.3270
 4324TIP3    H134531   1.997   0.169   7.528  0.9609 -0.5621 -0.1002
 4324TIP3    H234532   1.994   0.320   7.524 -1.0228 -0.5250  1.0788
 4325TIP3   OH234533   6.390   2.454   0.219 -0.3234 -0.5812  0.2447
 4325TIP3    H134534   6.438   2.374   0.199  0.4408 -0.6150  2.0431
 4325TIP3    H234535   6.454   2.525   0.209 -1.1155 -0.0866 -1.8203
 4326TIP3   OH234536   3.694   0.091   0.952  0.2603 -0.3343  0.2252
 4326TIP3    H134537   3.700   0.099   0.857 -0.9643 -0.4672  0.1263
 4326TIP3    H234538   3.723   0.176   0.985  2.5495 -0.9078 -0.1605
 4327TIP3   OH234539   1.558   6.036   0.265  0.2728 -0.1804 -0.0588
 4327TIP3    H134540   1.486   6.046   0.326  0.8877  0.5658  0.5684
 4327TIP3    H234541   1.527   6.075   0.183  0.4873  1.5742  0.6445
 4328TIP3   OH234542   1.958   5.907   6.805  0.3235 -0.3866  0.5276
 4328TIP3    H134543   1.876   5.910   6.755  1.1211 -0.7275 -0.8695
 4328TIP3    H234544   1.986   5.815   6.798  1.8734  0.1388 -0.8548
 4329TIP3   OH234545   2.282   1.449   7.864 -0.2766 -0.2857  0.7229
 4329TIP3    H134546   2.334   1.384   7.911  0.9045 -0.3393 -0.5703
 4329TIP3    H234547   2.251   1.509   7.932 -0.4878 -1.5773  1.8006
 4330TIP3   OH234548   4.608   0.221   7.267  0.1241  0.3568  0.1456
 4330TIP3    H134549   4.579   0.190   7.181  2.0364 -2.1351  0.2802
 4330TIP3    H234550   4.558   0.168   7.330  0.4121  0.5236  0.5211
 4331TIP3   OH234551   5.478   4.224   8.117  0.2660 -0.2714  0.0074
 4331TIP3    H134552   5.481   4.165   8.041 -1.4099 -2.6456  1.6240
 4331TIP3    H234553   5.520   4.174   8.187  0.8788  1.4598  0.9229
 4332TIP3   OH234554   4.920   4.931   0.277 -0.1233  0.7634 -0.2429
 4332TIP3    H134555   4.919   4.914   0.183  0.7266  0.0323 -0.1292
 4332TIP3    H234556   4.876   4.855   0.316  0.9885  0.2556  0.0556
 4333TIP3   OH234557   0.210   3.940   2.160 -0.4183 -0.2767  0.1653
 4333TIP3    H134558   0.200   3.976   2.248  0.9789  0.0189  0.2278
 4333TIP3    H234559   0.188   4.013   2.102 -1.2314 -0.4396  0.2625
 4334TIP3   OH234560   4.200   3.191   8.456  0.3274  0.0185 -0.5274
 4334TIP3    H134561   4.259   3.208   8.530  0.4573 -1.2301 -0.3253
 4334TIP3    H234562   4.232   3.110   8.417  0.9165  1.1863 -2.6467
 4335TIP3   OH234563   4.814   4.089   0.222 -0.2097 -0.2472 -0.2683
 4335TIP3    H134564   4.860   4.068   0.140  1.5043  0.4632  0.4503
 4335TIP3    H234565   4.809   4.006   0.269 -3.4184 -1.2232 -2.0275
 4336TIP3   OH234566   3.344   0.502   1.492  0.1910 -0.5778  0.2692
 4336TIP3    H134567   3.280   0.464   1.431  0.4780 -0.8794  0.1551
 4336TIP3    H234568   3.339   0.596   1.476 -0.8462 -0.5099  0.8671
 4337TIP3   OH234569   6.068   3.976   0.720  0.1693  0.1332 -0.1990
 4337TIP3    H134570   5.997   4.038   0.703  0.0724 -0.2432 -1.2853
 4337TIP3    H234571   6.143   4.012   0.671  0.0630 -0.6789 -0.9793
 4338TIP3   OH234572   3.773   0.452   8.278  0.0569 -1.0212 -0.1768
 4338TIP3    H134573   3.821   0.401   8.344 -0.5932 -1.2256  0.1459
 4338TIP3    H234574   3.718   0.510   8.330 -2.4898 -3.0179 -0.4361
 4339TIP3   OH234575   4.114   6.493   6.595 -0.0987 -0.6261 -0.4325
 4339TIP3    H134576   4.178   6.541   6.648  0.0366 -0.6394 -0.5837
 4339TIP3    H234577   4.040   6.553   6.586 -0.2611 -0.7417  0.0447
 4340TIP3   OH234578   4.462   2.196   6.626  0.9001  0.1823  0.4998
 4340TIP3    H134579   4.531   2.157   6.573 -0.3086 -0.9232 -0.3226
 4340TIP3    H234580   4.484   2.173   6.716  1.6732 -0.0366  0.2609
 4341TIP3   OH234581   1.707   3.054   7.739  0.1471 -0.3003 -0.2466
 4341TIP3    H134582   1.760   3.084   7.813  0.1581 -1.0227  0.0481
 4341TIP3    H234583   1.631   3.012   7.780 -1.1436  1.5013 -0.6607
 4342TIP3   OH234584   6.647   3.102   0.122 -0.2701 -0.6739 -0.2236
 4342TIP3    H134585   6.555   3.123   0.137 -0.0781 -0.8634  1.4427
 4342TIP3    H234586   6.675   3.057   0.202  0.7165 -2.5829 -1.5536
 4343TIP3   OH234587   2.266   0.275   2.112 -0.3165  0.3458  0.7176
 4343TIP3    H134588   2.202   0.207   2.090 -0.3961  0.9299 -1.0362
 4343TIP3    H234589   2.231   0.354   2.071 -0.9414  1.8390  3.8220
 4344TIP3   OH234590   6.671   5.565   6.010 -0.2758 -0.1136 -0.3044
 4344TIP3    H134591   6.646   5.625   6.080 -0.8919  0.1389 -0.7273
 4344TIP3    H234592   6.592   5.514   5.992 -0.7552  1.1966 -2.1673
 4345TIP3   OH234593   2.354   4.887   1.044  0.5207  0.2271  0.2732
 4345TIP3    H134594   2.352   4.973   1.003 -2.0857  0.1899  0.1321
 4345TIP3    H234595   2.269   4.880   1.088  0.6675 -2.2827  0.2742
 4346TIP3   OH234596   4.535   2.431   2.029 -0.5267 -0.5331 -0.6072
 4346TIP3    H134597   4.483   2.410   1.951  0.7622 -2.2039 -1.0703
 4346TIP3    H234598   4.583   2.351   2.048 -0.1660  0.1195  1.4225
 4347TIP3   OH234599   4.426   2.459   8.173  0.2606  0.1201 -0.0900
 4347TIP3    H134600   4.436   2.425   8.262  1.0621  1.1194  0.2295
 4347TIP3    H234601   4.515   2.477   8.144  0.0422 -0.6602 -1.3003
 4348TIP3   OH234602   6.291   1.055   7.248  0.1647 -0.2060 -0.1131
 4348TIP3    H134603   6.206   1.081   7.284  0.4485  1.6049 -0.6674
 4348TIP3    H234604   6.350   1.057   7.323 -0.3671 -2.1855  0.4284
 4349TIP3   OH234605   0.382   0.178   8.199 -0.3647 -0.3115  0.0020
 4349TIP3    H134606   0.349   0.164   8.110 -1.1772 -0.5490  0.3260
 4349TIP3    H234607   0.465   0.224   8.187 -0.7820  0.2543 -0.8533
 4350TIP3   OH234608   0.143   2.370   7.166 -0.2033  0.5471  0.0946
 4350TIP3    H134609   0.196   2.407   7.237  0.6508  0.6414 -0.5851
 4350TIP3    H234610   0.206   2.338   7.102 -0.9219  2.4688 -1.6874
 4351TIP3   OH234611   6.042   2.804   0.173  0.3200 -0.2007 -0.1878
 4351TIP3    H134612   6.037   2.896   0.197 -0.4759 -0.6667  1.6303
 4351TIP3    H234613   6.026   2.757   0.255 -2.1778 -1.9469 -1.5224
 4352TIP3   OH234614   5.472   6.367   0.376  1.0606  0.3786  0.0828
 4352TIP3    H134615   5.564   6.346   0.392  0.9259 -1.5801 -1.2977
 4352TIP3    H234616   5.470   6.405   0.288  0.3804 -1.5014 -0.7713
 4353TIP3   OH234617   3.886   3.626   8.784  0.2917 -0.6597  0.2813
 4353TIP3    H134618   3.954   3.558   8.783  1.6428  0.6574 -0.2948
 4353TIP3    H234619   3.934   3.708   8.777 -1.0634  0.6353  3.9680
 4354TIP3   OH234620   1.586   5.135   7.273 -0.3443 -0.5013  0.1543
 4354TIP3    H134621   1.617   5.077   7.204 -0.0764 -1.4931  1.0738
 4354TIP3    H234622   1.492   5.121   7.277 -0.2778 -0.9362  0.3943
 4355TIP3   OH234623   1.837   0.144   8.460 -0.0952  0.4949 -0.3991
 4355TIP3    H134624   1.784   0.223   8.455 -0.2886  0.4892  1.0623
 4355TIP3    H234625   1.925   0.175   8.480 -0.3402  0.3351  1.0604
 4356TIP3   OH234626   3.516   2.152   8.774  0.2145 -0.8052 -0.1313
 4356TIP3    H134627   3.606   2.172   8.800  0.9798 -1.5140 -2.0657
 4356TIP3    H234628   3.519   2.141   8.679 -1.5477 -2.6229 -0.0721
 4357TIP3   OH234629   2.542   1.959   8.191  0.4233 -0.1159 -0.1971
 4357TIP3    H134630   2.515   1.958   8.099  1.1648  0.8037 -0.4373
 4357TIP3    H234631   2.604   2.031   8.197 -0.7491  0.8367  1.3533
 4358TIP3   OH234632   5.893   4.977   7.730  0.1788 -0.2234 -0.0886
 4358TIP3    H134633   5.826   4.918   7.697 -2.2887  1.6021  1.2747
 4358TIP3    H234634   5.930   5.019   7.652 -2.3541  0.8013 -0.8234
 4359TIP3   OH234635   2.338   5.047   8.190  0.1834  0.3247 -0.2417
 4359TIP3    H134636   2.405   5.112   8.169 -0.7151  1.2260 -0.4541
 4359TIP3    H234637   2.383   4.963   8.187  1.1361  0.8451 -1.0766
 4360TIP3   OH234638   6.104   1.797   8.368 -0.6942  0.1746  1.1829
 4360TIP3    H134639   6.132   1.765   8.454  0.4645  0.1106  0.8018
 4360TIP3    H234640   6.182   1.788   8.313 -1.6445 -0.5857 -0.1086
 4361TIP3   OH234641   5.582   0.353   6.683 -0.5209 -0.1362  0.0153
 4361TIP3    H134642   5.524   0.345   6.607  0.5605 -0.2236 -0.8107
 4361TIP3    H234643   5.635   0.431   6.665  0.3643 -0.6776  0.2484
 4362TIP3   OH234644   2.754   3.020   8.659  0.2237  0.0981  0.6696
 4362TIP3    H134645   2.660   3.032   8.644  0.3300 -0.6948 -0.7569
 4362TIP3    H234646   2.781   2.955   8.594  2.1351  1.7023 -0.2655
 4363TIP3   OH234647   0.722   1.026   0.326  0.0538 -0.7004  0.8842
 4363TIP3    H134648   0.676   1.014   0.408  1.0704 -3.0320  1.2065
 4363TIP3    H234649   0.815   1.025   0.350  0.3452 -0.2410 -0.1558
 4364TIP3   OH234650   1.650   6.780   7.774  0.3446 -0.2197 -0.1925
 4364TIP3    H134651   1.589   6.766   7.701  1.1257  0.0956 -0.9160
 4364TIP3    H234652   1.622   6.717   7.840 -0.4220 -0.4646 -0.7341
 4365TIP3   OH234653   6.173   4.967   0.940 -0.6912  0.4198  0.0779
 4365TIP3    H134654   6.236   5.025   0.897 -0.5367  0.2472  0.0710
 4365TIP3    H234655   6.149   4.903   0.872 -0.1836 -0.0628  0.3488
 4366TIP3   OH234656   6.793   1.725   1.914  0.0539 -0.4661 -0.3238
 4366TIP3    H134657   6.762   1.731   2.005  0.5846  1.0484 -0.2272
 4366TIP3    H234658   6.755   1.801   1.870  1.0479 -0.3311 -0.9887
 4367TIP3   OH234659   4.009   0.220   0.758 -0.3711 -0.1876 -0.1354
 4367TIP3    H134660   4.077   0.255   0.701  1.4841  0.9628  2.5421
 4367TIP3    H234661   3.951   0.293   0.775  1.0134  0.5303  1.9749
 4368TIP3   OH234662   1.451   1.764   0.491  0.2165  0.1056  0.1382
 4368TIP3    H134663   1.433   1.713   0.412  0.7046 -0.7749  0.5789
 4368TIP3    H234664   1.371   1.814   0.506  0.0296  0.0981 -0.7698
 4369TIP3   OH234665   0.352   2.937   7.998  0.1468 -0.6887  0.1569
 4369TIP3    H134666   0.366   2.969   7.909  0.8280 -0.2928  0.3989
 4369TIP3    H234667   0.342   3.017   8.051  2.0089 -0.8400  0.7922
 4370TIP3   OH234668   3.794   2.242   8.836  0.5780  0.0319  0.0498
 4370TIP3    H134669   3.811   2.221   8.744  0.3426 -0.9614  0.2167
 4370TIP3    H234670   3.841   2.324   8.851  3.8408 -1.6718  0.0339
 4371TIP3   OH234671   0.152   5.436   8.126 -0.0485 -0.2149 -0.2476
 4371TIP3    H134672   0.238   5.394   8.124  0.5688  0.6035  3.2627
 4371TIP3    H234673   0.092   5.367   8.153  0.0458 -0.0832  0.3037
 4372TIP3   OH234674   6.412   4.998   8.444 -0.6045  0.0548 -0.1157
 4372TIP3    H134675   6.468   4.952   8.507 -0.8921 -1.0531 -0.6518
 4372TIP3    H234676   6.326   4.959   8.456 -0.9453  0.7242 -0.3304
 4373TIP3   OH234677   1.987   1.557   0.097 -0.5281 -0.3595 -0.2124
 4373TIP3    H134678   1.988   1.588   0.007  1.1205  0.1005 -0.0773
 4373TIP3    H234679   1.955   1.632   0.148 -0.2927 -0.1926 -0.3047
 4374TIP3   OH234680   4.641   0.154   1.382  0.6659  0.4955 -0.2981
 4374TIP3    H134681   4.559   0.122   1.420  0.4721  1.4118  0.0888
 4374TIP3    H234682   4.707   0.133   1.448  0.5789  0.6514 -0.1580
 4375TIP3   OH234683   1.310   2.598   7.256  0.1855  0.1193  0.8850
 4375TIP3    H134684   1.335   2.511   7.224  2.2895  0.9545  0.1010
 4375TIP3    H234685   1.335   2.598   7.348  0.3435 -0.0513  0.8427
 4376TIP3   OH234686   3.085   3.867   0.061  0.8503  0.5227  0.3686
 4376TIP3    H134687   3.093   3.789   0.116 -0.3466 -0.3678 -0.6511
 4376TIP3    H234688   3.086   3.833  -0.029  0.2870  1.6716 -0.0953
 4377TIP3   OH234689   0.919   5.093   7.439  0.8263 -0.5048 -0.0148
 4377TIP3    H134690   0.920   5.117   7.531  1.2647  0.7082 -0.3107
 4377TIP3    H234691   0.862   5.158   7.398  0.6085 -1.0520 -0.6010
 4378TIP3   OH234692   2.708   5.344   1.252 -0.4136 -0.4906 -0.4000
 4378TIP3    H134693   2.803   5.353   1.239 -0.5322  1.1568 -0.3156
 4378TIP3    H234694   2.698   5.332   1.346 -0.3444  0.6263 -0.2349
 4379TIP3   OH234695   0.479   4.917   8.840 -0.1956 -0.2479 -0.2615
 4379TIP3    H134696   0.414   4.908   8.770  0.4349 -1.1699 -0.7583
 4379TIP3    H234697   0.433   4.964   8.910 -0.0567  3.2593 -2.2823
 4380TIP3   OH234698   2.337   3.961   1.487 -0.6207 -0.1476  0.5917
 4380TIP3    H134699   2.294   3.995   1.565 -2.0862  0.0054 -0.2376
 4380TIP3    H234700   2.415   4.016   1.477 -0.8351  0.3494  1.4966
 4381TIP3   OH234701   5.518   1.660   0.171 -0.4156  0.0912 -0.0569
 4381TIP3    H134702   5.540   1.577   0.129 -0.9832  0.0878 -0.3538
 4381TIP3    H234703   5.603   1.704   0.183 -0.2606  0.3669 -1.7827
 4382TIP3   OH234704   0.962   5.536   8.564  0.3414 -0.6949  0.2288
 4382TIP3    H134705   0.867   5.543   8.574  0.2949 -0.9638 -0.0007
 4382TIP3    H234706   0.975   5.451   8.522  0.6512 -0.4339 -0.2101
 4383TIP3   OH234707   6.367   3.121   0.310 -0.2041  0.1639  0.3736
 4383TIP3    H134708   6.342   3.209   0.338 -0.0660  0.4332 -0.3321
 4383TIP3    H234709   6.441   3.098   0.366 -0.2422  0.4986  0.5637
 4384TIP3   OH234710   1.041   4.705   0.876  0.2945  0.3635 -0.1505
 4384TIP3    H134711   1.020   4.664   0.960 -1.5474  3.2866  0.9825
 4384TIP3    H234712   1.118   4.759   0.895  1.5208 -0.9615 -1.1211
 4385TIP3   OH234713   1.462   0.576   7.981  0.2782 -0.4493 -0.3739
 4385TIP3    H134714   1.473   0.485   8.009 -0.5542 -0.5333 -0.2873
 4385TIP3    H234715   1.453   0.625   8.062 -1.5034 -0.6063 -0.4466
 4386TIP3   OH234716   0.248   3.805   1.160  0.3488  0.3457 -0.0544
 4386TIP3    H134717   0.249   3.862   1.237  1.0984  1.2427 -0.7047
 4386TIP3    H234718   0.290   3.724   1.190 -0.9746  0.0041  0.9550
 4387TIP3   OH234719   1.318   1.596   6.351 -0.5186 -0.6480 -0.1891
 4387TIP3    H134720   1.290   1.619   6.262 -0.8284  1.4106  0.4036
 4387TIP3    H234721   1.411   1.575   6.343 -0.4921 -0.2619 -0.9661
 4388TIP3   OH234722   0.704   4.063   8.799  0.0227  0.0789 -1.1171
 4388TIP3    H134723   0.658   4.124   8.857 -1.5493 -1.3511 -0.8006
 4388TIP3    H234724   0.786   4.044   8.846 -1.3705 -1.3368  0.9394
 4389TIP3   OH234725   3.970   5.328   7.618 -0.8964 -0.5755  0.4692
 4389TIP3    H134726   3.920   5.351   7.695 -2.1071 -0.3772 -0.3474
 4389TIP3    H234727   3.944   5.238   7.598 -1.2531 -0.3303 -0.1986
 4390TIP3   OH234728   6.025   1.142   0.073 -0.0121 -0.3428 -0.2326
 4390TIP3    H134729   6.037   1.237   0.074  0.4357 -0.3976  0.3301
 4390TIP3    H234730   6.080   1.111   0.000  0.0247 -0.1899 -0.2697
 4391TIP3   OH234731   2.557   6.742   8.227 -0.0358 -0.0671  0.3929
 4391TIP3    H134732   2.531   6.780   8.310  0.4401 -2.4899  1.7533
 4391TIP3    H234733   2.544   6.647   8.239  1.1276 -0.5880 -1.8885
 4392TIP3   OH234734   2.498   1.107   0.712  0.3743  0.1329  0.3117
 4392TIP3    H134735   2.488   1.101   0.807 -0.3361  0.2577  0.2469
 4392TIP3    H234736   2.412   1.087   0.677  0.2753  1.4456 -0.2581
 4393TIP3   OH234737   1.608   6.614   0.891 -0.4558  0.0405  0.1330
 4393TIP3    H134738   1.594   6.606   0.985  0.8490 -1.2291  0.2561
 4393TIP3    H234739   1.660   6.694   0.880  0.1986 -0.3112  0.6032
 4394TIP3   OH234740   5.661   0.448   7.743  0.2279 -0.4114 -0.5676
 4394TIP3    H134741   5.602   0.462   7.669  2.7532 -0.1958 -2.7238
 4394TIP3    H234742   5.611   0.395   7.805 -2.1356 -0.3145 -2.2681
 4395TIP3   OH234743   1.436   3.041   0.581  0.1795  0.4163  0.3366
 4395TIP3    H134744   1.344   3.065   0.575  0.2414  0.6602  0.3357
 4395TIP3    H234745   1.481   3.106   0.527  0.1588 -0.9333 -1.4016
 4396TIP3   OH234746   5.557   4.083   7.802 -0.5382  0.4435  0.5629
 4396TIP3    H134747   5.483   4.100   7.744 -0.8376 -0.8424  0.5420
 4396TIP3    H234748   5.628   4.136   7.767 -1.1370  0.8306 -0.0822
 4397TIP3   OH234749   3.336   3.910   7.559  0.3636 -0.2292  0.3570
 4397TIP3    H134750   3.357   3.983   7.501 -1.5612  2.0444  2.2665
 4397TIP3    H234751   3.318   3.952   7.643 -3.3231 -2.5582  0.9389
 4398TIP3   OH234752   4.853   5.988   7.039  0.3444 -0.2756 -1.2047
 4398TIP3    H134753   4.891   5.990   6.951  1.7064  1.8350 -0.6247
 4398TIP3    H234754   4.761   6.009   7.025  0.6220  0.4148 -2.1040
 4399TIP3   OH234755   3.502   3.650   0.003  0.0302 -0.1330 -0.1183
 4399TIP3    H134756   3.517   3.669   0.096 -0.0367  1.2341 -0.3679
 4399TIP3    H234757   3.536   3.727  -0.043 -0.1812 -0.6754 -1.2182
 4400TIP3   OH234758   6.160   0.290   7.778  0.3240 -0.1050  0.7009
 4400TIP3    H134759   6.197   0.331   7.699 -0.0556 -1.3816 -0.1792
 4400TIP3    H234760   6.065   0.296   7.766  0.2361 -2.3748 -0.1203
 4401TIP3   OH234761   5.406   1.350   7.283  0.3351  0.1622 -0.1827
 4401TIP3    H134762   5.499   1.375   7.289  0.5257 -0.2208 -1.2759
 4401TIP3    H234763   5.372   1.404   7.211 -0.2934  0.2794  0.1960
 4402TIP3   OH234764   1.157   5.403   2.081 -0.5319  0.2277  0.2340
 4402TIP3    H134765   1.097   5.474   2.103 -1.5856 -0.1003 -1.4744
 4402TIP3    H234766   1.101   5.332   2.050  0.5400 -1.1652  1.3276
 4403TIP3   OH234767   1.970   5.194   8.562  0.3440  0.0273  0.2206
 4403TIP3    H134768   1.904   5.143   8.610 -0.8468 -0.0016 -1.3870
 4403TIP3    H234769   1.930   5.280   8.552  1.8087  0.9548  1.7780
 4404TIP3   OH234770   2.569   5.504   6.791 -0.2955  0.3929  0.2111
 4404TIP3    H134771   2.543   5.543   6.708 -2.6234  0.3838  0.8377
 4404TIP3    H234772   2.660   5.529   6.803 -0.0234  0.7046 -2.1345
 4405TIP3   OH234773   4.396   4.132   6.680  0.3981 -0.3875  0.4154
 4405TIP3    H134774   4.312   4.174   6.697  0.5197 -0.9276  2.6024
 4405TIP3    H234775   4.427   4.172   6.599 -1.7166  0.1778 -0.1697
 4406TIP3   OH234776   1.333   1.732   1.164 -0.0965  0.1338  0.1834
 4406TIP3    H134777   1.262   1.688   1.117  0.8804 -1.1111 -0.1615
 4406TIP3    H234778   1.310   1.825   1.159 -1.8725 -0.2581  0.3836
 4407TIP3   OH234779   5.739   0.888   8.193 -0.6510 -0.1457  0.2837
 4407TIP3    H134780   5.669   0.929   8.142 -0.8616  0.4246  1.0187
 4407TIP3    H234781   5.733   0.929   8.279  1.5995  1.1027 -0.0742
 4408TIP3   OH234782   4.613   5.644   6.180  0.2604  0.0880 -0.1779
 4408TIP3    H134783   4.650   5.698   6.250  2.9255 -1.4902 -0.2023
 4408TIP3    H234784   4.580   5.566   6.225  0.7988 -0.3487 -0.5200
 4409TIP3   OH234785   2.421   2.538   6.533 -0.1941 -0.0875 -0.0462
 4409TIP3    H134786   2.335   2.521   6.569 -0.8692 -1.4439 -2.0882
 4409TIP3    H234787   2.430   2.475   6.461  2.9406 -0.7487  0.7561
 4410TIP3   OH234788   2.104   2.588   0.388  0.1782  0.0063 -0.4036
 4410TIP3    H134789   2.199   2.593   0.396  0.2700 -0.8767 -0.7802
 4410TIP3    H234790   2.079   2.663   0.334  0.7713 -0.2940 -1.1055
 4411TIP3   OH234791   3.504   1.715   8.616 -0.0907  0.4409  0.3809
 4411TIP3    H134792   3.589   1.720   8.573 -1.3864 -2.3640 -2.9997
 4411TIP3    H234793   3.453   1.786   8.579 -0.0144  0.5168  0.4197
 4412TIP3   OH234794   4.782   1.729   7.241  0.4718  0.3531 -0.1417
 4412TIP3    H134795   4.823   1.755   7.158  0.8610 -0.8507 -0.3563
 4412TIP3    H234796   4.748   1.810   7.278  0.3636  0.9326 -1.4441
 4413TIP3   OH234797   1.807   2.571   0.792  0.3536  0.2054  0.4351
 4413TIP3    H134798   1.892   2.547   0.755  0.9095  0.0461  1.7320
 4413TIP3    H234799   1.746   2.565   0.719  1.4932  0.5538 -0.5906
 4414TIP3   OH234800   3.604   1.023   0.490 -0.5999 -0.4106 -0.0795
 4414TIP3    H134801   3.617   1.074   0.410 -0.7186  0.5215  0.4804
 4414TIP3    H234802   3.639   1.079   0.560 -1.1872 -0.8813  0.6092
 4415TIP3   OH234803   2.758   6.485   0.833 -0.0825 -0.0301 -0.1242
 4415TIP3    H134804   2.771   6.580   0.826  0.2074 -0.0446  0.2072
 4415TIP3    H234805   2.664   6.475   0.849 -0.0217  0.2423  0.4509
 4416TIP3   OH234806   3.887   4.884   0.583  0.1173  0.3644  0.0102
 4416TIP3    H134807   3.855   4.908   0.670  1.4798 -2.3637  1.4120
 4416TIP3    H234808   3.983   4.887   0.591  0.2667  0.0434 -1.4050
 4417TIP3   OH234809   1.201   4.913   0.271 -0.8278  1.2118 -0.6608
 4417TIP3    H134810   1.134   4.956   0.323 -0.9046 -0.3006  0.5804
 4417TIP3    H234811   1.160   4.901   0.185 -0.8427  3.3838 -1.0097
 4418TIP3   OH234812   6.471   0.903   0.242 -0.4899  0.5009  0.4892
 4418TIP3    H134813   6.381   0.871   0.240 -0.4092  0.2713  0.4465
 4418TIP3    H234814   6.467   0.990   0.202 -0.3504 -0.3623 -1.5328
 4419TIP3   OH234815   4.706   4.362   7.220  0.6682 -0.3353 -0.4416
 4419TIP3    H134816   4.710   4.374   7.125  2.5705  2.4557 -0.1557
 4419TIP3    H234817   4.613   4.351   7.239  0.3372 -2.0299 -2.6754
 4420TIP3   OH234818   6.158   0.870   6.803  0.1551 -0.4719  0.4249
 4420TIP3    H134819   6.183   0.785   6.838 -0.9759 -0.7488  0.6128
 4420TIP3    H234820   6.163   0.859   6.708  4.8322  0.7591  0.2829
 4421TIP3   OH234821   1.981   5.327   0.854 -0.1084  0.0801 -0.3095
 4421TIP3    H134822   1.942   5.267   0.918 -2.8664 -0.5081 -2.3726
 4421TIP3    H234823   1.979   5.279   0.772  0.3651  1.9645 -1.4846
 4422TIP3   OH234824   2.677   5.945   0.857 -0.8219 -0.0581 -0.2906
 4422TIP3    H134825   2.627   6.026   0.850 -2.5696 -1.0226  0.3837
 4422TIP3    H234826   2.696   5.936   0.951 -2.5591 -1.4641 -0.0135
 4423TIP3   OH234827   6.177   2.621   0.001  0.9063 -0.1433  0.4125
 4423TIP3    H134828   6.262   2.653   0.031 -0.0068  0.8004  2.1507
 4423TIP3    H234829   6.113   2.670   0.053 -0.6729 -1.9112  0.2583
 4424TIP3   OH234830   3.842   1.904   7.102 -0.7486  0.6386 -0.2882
 4424TIP3    H134831   3.840   1.875   7.010 -0.0345  0.6392 -0.3104
 4424TIP3    H234832   3.905   1.976   7.102 -0.8122  0.6927  0.1918
 4425TIP3   OH234833   4.233   2.109   6.976 -0.4680 -0.3384  0.4670
 4425TIP3    H134834   4.166   2.111   6.907  0.7079 -2.0173 -0.7970
 4425TIP3    H234835   4.315   2.096   6.929  0.7001  0.9256  2.0464
 4426TIP3   OH234836   6.112   6.694   7.424 -0.0138 -0.1205 -0.2072
 4426TIP3    H134837   6.116   6.753   7.349 -0.5576  0.3836  0.1554
 4426TIP3    H234838   6.125   6.750   7.501 -1.0291 -0.3828  0.1689
 4427TIP3   OH234839   2.391   2.094   7.315 -0.4539 -0.4668 -0.2513
 4427TIP3    H134840   2.379   2.189   7.306 -1.9845 -0.4746  1.2234
 4427TIP3    H234841   2.345   2.057   7.240 -0.1322 -0.0776 -0.6503
 4428TIP3   OH234842   2.596   0.168   7.689  0.0509 -0.8127  0.0724
 4428TIP3    H134843   2.544   0.209   7.758  1.2085  1.5516 -0.3771
 4428TIP3    H234844   2.687   0.182   7.715  0.5020 -0.5986 -1.5074
 4429TIP3   OH234845   3.061   3.867   7.695 -0.0953  0.3157 -0.1929
 4429TIP3    H134846   2.995   3.843   7.630  0.5475 -0.0777 -0.7199
 4429TIP3    H234847   3.145   3.857   7.649  0.4105 -0.6386  0.8890
 4430TIP3   OH234848   0.915   5.766   8.294  0.1449  0.0650 -0.1883
 4430TIP3    H134849   0.842   5.725   8.340  0.0618  2.7055  2.3048
 4430TIP3    H234850   0.992   5.721   8.328 -0.0883 -0.1408  0.0787
 4431TIP3   OH234851   1.213   1.851   7.088 -0.1201 -0.0365  0.6439
 4431TIP3    H134852   1.137   1.803   7.121 -0.1436  0.4158  1.2588
 4431TIP3    H234853   1.289   1.807   7.128 -0.0634 -0.3826  0.1636
 4432TIP3   OH234854   2.166   3.291   1.124  0.7112  0.7156  0.0590
 4432TIP3    H134855   2.109   3.253   1.058 -0.7246 -0.6931  1.9956
 4432TIP3    H234856   2.238   3.228   1.134  0.7205  0.7334  0.1075
 4433TIP3   OH234857   3.335   2.470   0.212  0.1498  0.2327  0.2455
 4433TIP3    H134858   3.394   2.542   0.235 -0.5593  0.6589  0.8136
 4433TIP3    H234859   3.332   2.472   0.117  0.2414  0.8897  0.2462
 4434TIP3   OH234860   5.379   5.041   8.135 -0.6360  0.2694 -0.0283
 4434TIP3    H134861   5.387   4.950   8.164 -0.3591  0.7820  1.6230
 4434TIP3    H234862   5.414   5.092   8.208  2.9724  1.6097 -2.3871
 4435TIP3   OH234863   5.154   6.281   1.746 -0.2003 -0.1305  0.3761
 4435TIP3    H134864   5.076   6.226   1.740  0.1981 -0.5875 -0.7901
 4435TIP3    H234865   5.165   6.296   1.840 -2.9355  1.7464  0.5333
 4436TIP3   OH234866   5.594   5.149   6.833  0.4598  0.0232  0.7584
 4436TIP3    H134867   5.597   5.236   6.792  2.0505  0.7399  2.2157
 4436TIP3    H234868   5.607   5.088   6.761  1.1010  1.1067 -0.0862
 4437TIP3   OH234869   5.960   0.486   8.663 -0.8577  0.2197 -0.0255
 4437TIP3    H134870   5.974   0.463   8.571  0.5602  0.5664  0.0741
 4437TIP3    H234871   5.959   0.401   8.708  1.4210  0.1308 -0.0246
 4438TIP3   OH234872   3.969   1.199   8.537  0.0729 -0.1448  0.1671
 4438TIP3    H134873   4.048   1.145   8.538  0.3753  0.2721 -0.4773
 4438TIP3    H234874   3.923   1.177   8.619  0.4928 -0.9192  0.2010
 4439TIP3   OH234875   5.409   3.002   7.997  0.3206  0.3286  0.4353
 4439TIP3    H134876   5.452   2.957   8.070  2.1481  0.1931 -0.6628
 4439TIP3    H234877   5.481   3.040   7.946 -0.9624  1.3200 -0.7329
 4440TIP3   OH234878   1.495   0.921   1.115 -0.7439  0.2161 -0.5258
 4440TIP3    H134879   1.434   0.846   1.108 -0.7435  0.3564 -3.3691
 4440TIP3    H234880   1.440   0.993   1.146 -1.6739 -0.0887 -1.3813
 4441TIP3   OH234881   0.454   3.038   0.555 -0.4136  0.7813  0.1808
 4441TIP3    H134882   0.374   3.052   0.505 -0.3478 -1.5434 -0.7081
 4441TIP3    H234883   0.426   3.040   0.646 -1.4761  0.1189 -0.1130
 4442TIP3   OH234884   2.823   3.543   7.942 -0.0666  0.1930  0.2752
 4442TIP3    H134885   2.807   3.632   7.910 -0.0462 -0.1277 -0.6559
 4442TIP3    H234886   2.915   3.544   7.969  0.8217 -0.2799 -2.3884
 4443TIP3   OH234887   3.298   0.464   8.590  0.2791 -0.2697  0.0190
 4443TIP3    H134888   3.336   0.546   8.619  1.6861 -0.4761 -1.1492
 4443TIP3    H234889   3.329   0.399   8.654 -0.4396  0.0124  0.6656
 4444TIP3   OH234890   2.308   0.481   0.900  0.4547  0.2743 -0.4195
 4444TIP3    H134891   2.326   0.567   0.863  2.2478  0.3010  0.4171
 4444TIP3    H234892   2.393   0.450   0.932 -0.6918 -0.4173  2.2456
 4445TIP3   OH234893   4.463   0.233   8.277 -0.0810  0.0844  0.1655
 4445TIP3    H134894   4.514   0.304   8.238  0.0091 -1.0034 -1.8445
 4445TIP3    H234895   4.528   0.179   8.322  0.3106 -0.3273 -0.8667
 4446TIP3   OH234896   3.883   3.730   8.150  0.2294 -1.0729  0.6719
 4446TIP3    H134897   3.832   3.669   8.097  0.3479 -2.2185  1.8162
 4446TIP3    H234898   3.880   3.693   8.239  0.6214  0.3954  1.3365
 4447TIP3   OH234899   5.301   3.086   7.721  0.4823  0.3626 -0.6252
 4447TIP3    H134900   5.226   3.144   7.735  1.2527  1.5455 -1.1743
 4447TIP3    H234901   5.323   3.055   7.809 -1.5187 -1.1976 -0.6082
 4448TIP3   OH234902   3.390   2.756   8.520  0.0377 -0.0678  0.1489
 4448TIP3    H134903   3.414   2.813   8.446  0.2970 -0.2312  0.1063
 4448TIP3    H234904   3.300   2.781   8.541  0.2918  0.6636  0.4110
 4449TIP3   OH234905   0.662   6.765   1.707 -0.2815 -0.3273 -0.2343
 4449TIP3    H134906   0.738   6.785   1.762 -0.6027  0.1774  0.0313
 4449TIP3    H234907   0.624   6.687   1.747  0.3501 -0.8493 -0.6334
 4450TIP3   OH234908   3.554   3.709   0.958  0.6519 -0.2418 -0.1024
 4450TIP3    H134909   3.512   3.636   0.912  1.0233 -0.4049 -0.1890
 4450TIP3    H234910   3.522   3.787   0.913  0.2290 -0.3473  0.0097
 4451TIP3   OH234911   0.306   5.152   7.721  0.3793  0.0942  0.5582
 4451TIP3    H134912   0.295   5.246   7.713 -1.7426 -0.0452  1.0698
 4451TIP3    H234913   0.354   5.126   7.642  0.2783  1.4955  0.0167
 4452TIP3   OH234914   4.697   6.398   0.428  0.2572  0.2363 -0.0977
 4452TIP3    H134915   4.642   6.337   0.478  2.0625 -0.5333  1.0675
 4452TIP3    H234916   4.763   6.342   0.386  0.8975  1.2121 -0.4225
 4453TIP3   OH234917   2.974   3.294   0.464  0.3777 -0.1299 -0.1301
 4453TIP3    H134918   3.013   3.266   0.547 -3.7305  0.0269  2.0883
 4453TIP3    H234919   2.930   3.216   0.431 -0.7801  0.6330 -0.4232
 4454TIP3   OH234920   1.761   5.121   8.738  0.0645  0.2356 -0.0041
 4454TIP3    H134921   1.777   5.186   8.806 -1.7649 -0.3015  0.9995
 4454TIP3    H234922   1.666   5.120   8.728  0.2035 -0.7697 -1.5257
 4455TIP3   OH234923   0.282   3.056   0.773 -0.3605  0.1053  0.1838
 4455TIP3    H134924   0.220   2.984   0.782  1.4798 -1.6747 -0.5080
 4455TIP3    H234925   0.340   3.048   0.848 -0.2786  1.0255  0.2285
 4456TIP3   OH234926   6.432   4.628   8.458 -0.0328  0.2069  0.1524
 4456TIP3    H134927   6.351   4.612   8.410 -0.6692  2.2869  0.4494
 4456TIP3    H234928   6.406   4.685   8.531  1.2083 -1.4412  2.0076
 4457TIP3   OH234929   0.627   0.551   6.292  0.0509  0.1033 -0.1061
 4457TIP3    H134930   0.679   0.630   6.275 -1.4544  1.0912 -0.3286
 4457TIP3    H234931   0.586   0.531   6.207  1.1346 -1.5020 -0.2961
 4458TIP3   OH234932   3.329   2.453   8.786 -0.3521 -0.3052  0.2784
 4458TIP3    H134933   3.331   2.360   8.807  1.1471 -0.5123 -0.6351
 4458TIP3    H234934   3.403   2.466   8.727  0.5634  1.8046  1.7561
 4459TIP3   OH234935   1.193   3.143   0.508 -0.6305 -0.0919  0.7316
 4459TIP3    H134936   1.133   3.142   0.583 -0.0346 -3.2622  1.3418
 4459TIP3    H234937   1.150   3.089   0.442  1.0806 -1.8348  0.9166
 4460TIP3   OH234938   3.014   2.141   0.311 -0.2224  0.7339 -0.2191
 4460TIP3    H134939   3.010   2.058   0.264  0.8587  0.2700  0.4688
 4460TIP3    H234940   3.001   2.117   0.403  0.4756  1.2731  0.0286
 4461TIP3   OH234941   4.666   3.272   7.937 -0.0875 -0.2354  0.9473
 4461TIP3    H134942   4.584   3.222   7.936 -0.0988 -0.3126 -1.6343
 4461TIP3    H234943   4.639   3.361   7.960 -1.3661  0.2911 -2.1493
 4462TIP3   OH234944   0.350   0.174   0.267  0.0460  0.1572 -0.1898
 4462TIP3    H134945   0.441   0.154   0.244  0.2159  0.6431  0.0456
 4462TIP3    H234946   0.348   0.270   0.275 -0.5354  0.1673 -0.4029
 4463TIP3   OH234947   4.505   0.004   7.404  0.1681 -0.3323  0.0882
 4463TIP3    H134948   4.417   0.010   7.442 -0.4023 -0.5162 -1.1565
 4463TIP3    H234949   4.495  -0.056   7.330  1.3978 -0.5282  0.0652
 4464TIP3   OH234950   2.807   0.387   6.836  0.0653  0.1774  0.1108
 4464TIP3    H134951   2.740   0.380   6.767  0.7972 -1.2689 -0.5112
 4464TIP3    H234952   2.759   0.416   6.914 -0.9059  1.1647 -0.8193
 4465TIP3   OH234953   5.125   4.087   8.308  0.0783 -0.1148  0.3270
 4465TIP3    H134954   5.131   4.175   8.344  0.1180 -0.3666  0.9575
 4465TIP3    H234955   5.216   4.058   8.302  0.0885  0.0204 -0.2315
 4466TIP3   OH234956   2.199   0.934   7.144  0.1497 -0.1540 -0.0370
 4466TIP3    H134957   2.214   0.885   7.063 -0.8479 -0.5703  0.0147
 4466TIP3    H234958   2.274   0.912   7.199 -0.8125 -2.6241  0.4500
 4467TIP3   OH234959   5.589   6.152   8.634 -0.1539 -0.1973  0.0913
 4467TIP3    H134960   5.530   6.077   8.641 -0.3623  0.0802  1.7411
 4467TIP3    H234961   5.532   6.228   8.640  0.3224  0.0735  1.4321
 4468TIP3   OH234962   1.548   4.977   6.868  0.2279 -0.4688  0.4055
 4468TIP3    H134963   1.597   4.900   6.898 -1.1606 -1.7325 -0.4487
 4468TIP3    H234964   1.457   4.948   6.862 -0.0046  0.5224 -2.1980
 4469TIP3   OH234965   1.048   5.128   8.280 -0.0769  0.4611 -0.5189
 4469TIP3    H134966   1.087   5.049   8.241 -0.5840 -0.2490  0.3667
 4469TIP3    H234967   0.971   5.145   8.226 -1.2323 -0.9939  0.5812
 4470TIP3   OH234968   2.826   0.917   8.207  0.4074 -0.6598 -0.4344
 4470TIP3    H134969   2.805   0.992   8.262 -0.8286 -0.2036 -1.4718
 4470TIP3    H234970   2.888   0.865   8.259 -1.5230 -0.8411  1.8569
 4471TIP3   OH234971   3.453   6.793   0.716  0.2543  0.6645  0.5112
 4471TIP3    H134972   3.414   6.717   0.759 -0.5492  1.0593  0.4998
 4471TIP3    H234973   3.548   6.782   0.729  0.2647 -1.0791 -0.7378
 4472TIP3   OH234974   2.212   5.913   7.305 -0.1312  0.1246  0.3587
 4472TIP3    H134975   2.307   5.928   7.305 -0.3570  1.8174 -0.0438
 4472TIP3    H234976   2.199   5.838   7.247  0.9014  0.4244 -0.2747
 4473TIP3   OH234977   2.954   5.974   2.709 -0.1058  0.6186  0.6433
 4473TIP3    H134978   2.932   5.889   2.671 -0.1502  1.3480 -1.0472
 4473TIP3    H234979   2.909   5.975   2.794  1.7595 -1.9577  1.8122
 4474TIP3   OH234980   6.034   1.536   6.895 -0.1373  0.0175  0.7234
 4474TIP3    H134981   6.057   1.551   6.803 -0.9208 -0.7346  0.3969
 4474TIP3    H234982   6.118   1.515   6.937  0.2914  0.7724  0.2824
 4475TIP3   OH234983   5.671   3.123   7.577  0.3467 -0.0020 -0.2400
 4475TIP3    H134984   5.751   3.147   7.623 -0.5404  3.0945 -0.0652
 4475TIP3    H234985   5.684   3.155   7.488  0.2381 -1.7892 -0.9461
 4476TIP3   OH234986   0.929   0.805   7.350 -0.9465 -0.3626  0.5664
 4476TIP3    H134987   0.990   0.757   7.407  0.2757 -0.4538 -0.7647
 4476TIP3    H234988   0.932   0.895   7.383  1.8553  0.1988 -0.9150
 4477TIP3   OH234989   1.529   4.301   1.714  0.6829 -0.3309  0.0241
 4477TIP3    H134990   1.501   4.354   1.788 -1.1709  1.7886 -2.0199
 4477TIP3    H234991   1.483   4.217   1.725 -2.2721  1.1069 -0.3211
 4478TIP3   OH234992   3.747   5.386   6.875  0.0216  0.5068 -0.5334
 4478TIP3    H134993   3.828   5.425   6.842  1.7328 -2.8450 -0.7394
 4478TIP3    H234994   3.772   5.347   6.959 -0.5793 -2.7772 -1.7331
 4479TIP3   OH234995   2.938   2.297   6.043  0.3644 -0.3788  0.9734
 4479TIP3    H134996   2.969   2.357   5.975 -1.3736  1.9492  2.1018
 4479TIP3    H234997   2.853   2.266   6.012 -0.3661  0.5731  1.9341
 4480TIP3   OH234998   2.977   4.190   8.162 -0.7617 -0.1001  0.1223
 4480TIP3    H134999   3.040   4.132   8.205  0.6596  0.5851 -0.9807
 4480TIP3    H235000   2.913   4.130   8.123  0.2790 -0.9093 -0.3831
 4481TIP3   OH235001   5.832   3.601   7.832 -0.4977 -0.1989 -0.6904
 4481TIP3    H135002   5.796   3.534   7.774  1.4950 -0.4854 -1.6690
 4481TIP3    H235003   5.761   3.665   7.842 -2.1167 -1.9395 -0.4915
 4482TIP3   OH235004   5.706   0.472   8.259  0.1316  0.4071 -0.5179
 4482TIP3    H135005   5.764   0.518   8.198  1.7623 -1.0204 -0.1142
 4482TIP3    H235006   5.742   0.384   8.265 -1.4010 -0.1876  0.6949
 4483TIP3   OH235007   0.901   1.658   7.525  0.1852 -0.3421 -0.0713
 4483TIP3    H135008   0.863   1.719   7.589 -0.8031 -1.5226  0.4979
 4483TIP3    H235009   0.920   1.712   7.449  1.7297  1.1985  1.3093
 4484TIP3   OH235010   4.385   4.549   2.315 -0.5844 -0.2740  0.1128
 4484TIP3    H135011   4.360   4.563   2.223  0.1399 -0.5141 -0.1284
 4484TIP3    H235012   4.350   4.463   2.336 -1.1239 -0.0364  0.1966
 4485TIP3   OH235013   2.917   0.707   8.408  0.8512 -0.4240  0.3289
 4485TIP3    H135014   2.874   0.625   8.431 -0.1020  0.1845  0.8115
 4485TIP3    H235015   2.934   0.750   8.492 -0.1278  0.5750  0.0490
 4486TIP3   OH235016   2.065   4.607   0.131  0.0176  0.2047  0.1381
 4486TIP3    H135017   2.141   4.555   0.156 -0.4395  0.0291  1.2245
 4486TIP3    H235018   2.031   4.564   0.053 -0.1418 -0.9430  0.8137
 4487TIP3   OH235019   4.570   4.464   1.223 -0.3652  0.1222 -0.0838
 4487TIP3    H135020   4.620   4.444   1.302  0.0753  0.4821 -0.2705
 4487TIP3    H235021   4.479   4.445   1.247 -0.1538 -0.4395  0.2857
 4488TIP3   OH235022   4.846   2.230   1.761 -0.1427 -0.1492  0.0650
 4488TIP3    H135023   4.871   2.321   1.744  3.2467 -1.1754 -1.3267
 4488TIP3    H235024   4.929   2.182   1.763 -1.8575 -3.5258 -1.1577
 4489TIP3   OH235025   3.020   4.956   0.380 -0.0453  0.0615 -0.1218
 4489TIP3    H135026   2.995   4.985   0.292  0.5096 -1.8968 -0.9731
 4489TIP3    H235027   2.937   4.947   0.426 -0.4303  0.0596 -0.7959
 4490TIP3   OH235028   0.254   4.072   6.170 -0.2312  0.6077  0.1833
 4490TIP3    H135029   0.297   4.101   6.089 -1.4733  1.9988 -0.0239
 4490TIP3    H235030   0.221   3.985   6.149  0.7426  0.3410 -0.3100
 4491TIP3   OH235031   4.414   1.867   7.634  0.0565  0.2839 -0.3902
 4491TIP3    H135032   4.461   1.814   7.569  0.8739  1.0188 -0.4300
 4491TIP3    H235033   4.327   1.881   7.596  0.1218 -0.3083 -0.7663
 4492TIP3   OH235034   4.773   2.355   0.365 -0.3833 -0.2648  0.0488
 4492TIP3    H135035   4.737   2.276   0.406  0.2918  0.5004  2.2602
 4492TIP3    H235036   4.819   2.323   0.287 -0.1587 -2.0429  0.8729
 4493TIP3   OH235037   3.661   5.848   6.819  0.3101 -0.6417  0.1445
 4493TIP3    H135038   3.632   5.934   6.850  0.2142 -1.3939  2.3188
 4493TIP3    H235039   3.757   5.854   6.820  0.3031 -0.5303  0.1950
 4494TIP3   OH235040   3.689   3.786   8.684  0.0532 -0.1570  0.3595
 4494TIP3    H135041   3.751   3.728   8.728  0.2506 -1.0668 -1.0523
 4494TIP3    H235042   3.743   3.858   8.651 -0.0802  0.4735  1.4759
 4495TIP3   OH235043   3.688   2.012   8.366 -0.4929 -0.3546  0.2957
 4495TIP3    H135044   3.621   2.079   8.381 -1.9755 -2.0790  2.1551
 4495TIP3    H235045   3.694   2.005   8.271 -0.7473  1.9101  0.0504
 4496TIP3   OH235046   5.549   2.316   8.767 -0.2998 -0.4296  0.3691
 4496TIP3    H135047   5.581   2.403   8.791 -1.0124 -0.2684  0.7591
 4496TIP3    H235048   5.610   2.255   8.810  0.1607 -0.1259  0.1497
 4497TIP3   OH235049   3.116   5.589   7.389 -0.1218  0.1395 -0.0647
 4497TIP3    H135050   3.131   5.676   7.426 -1.6998  1.5160 -2.3823
 4497TIP3    H235051   3.022   5.585   7.374 -0.0710 -1.9527 -0.1535
 4498TIP3   OH235052   5.453   2.386   1.022 -0.1830 -0.3038 -0.0973
 4498TIP3    H135053   5.456   2.423   1.110  1.1288 -0.1128 -0.2047
 4498TIP3    H235054   5.474   2.459   0.964  0.6458 -0.7936 -0.4359
 4499TIP3   OH235055   4.778   3.491   8.542 -0.7774 -0.3616  0.3378
 4499TIP3    H135056   4.731   3.555   8.594 -1.6446 -0.4141 -0.3513
 4499TIP3    H235057   4.867   3.527   8.533 -1.7066  1.6566 -1.5388
 4500TIP3   OH235058   0.937   6.309   7.796 -0.4916  0.6999  0.2894
 4500TIP3    H135059   0.889   6.258   7.861  0.1068  0.5276  0.6023
 4500TIP3    H235060   1.026   6.316   7.832 -0.1558  0.6010 -0.5146
 4501TIP3   OH235061   1.811   1.958   7.882  0.0691  0.3917  0.7012
 4501TIP3    H135062   1.724   1.980   7.916 -0.1983 -0.1300  0.3814
 4501TIP3    H235063   1.857   2.041   7.875 -0.7592  0.7924 -0.0807
 4502TIP3   OH235064   2.872   3.815   8.545  0.8477  0.7539 -0.4340
 4502TIP3    H135065   2.811   3.866   8.491  1.1275 -1.0159 -2.5581
 4502TIP3    H235066   2.816   3.771   8.609  0.1454  0.7520 -1.0342
 4503TIP3   OH235067   2.848   2.890   8.423  0.4707 -0.0270  0.2229
 4503TIP3    H135068   2.902   2.931   8.355  0.2164  0.2310  0.1712
 4503TIP3    H235069   2.776   2.850   8.374  0.1259  0.4152  0.3628
 4504TIP3   OH235070   3.814   2.017   6.389 -0.8533  0.0969  0.4033
 4504TIP3    H135071   3.892   2.066   6.363 -1.4050  0.0625 -1.4730
 4504TIP3    H235072   3.848   1.949   6.448  0.8658 -1.0316 -1.7167
 4505TIP3   OH235073   0.590   0.291   1.501  0.0591  0.0638 -0.6509
 4505TIP3    H135074   0.637   0.367   1.466  0.0210  0.7038  0.6189
 4505TIP3    H235075   0.658   0.240   1.544 -0.2364  0.5294  0.4067
 4506TIP3   OH235076   1.455   1.295   1.337 -0.3761 -0.3633  0.1506
 4506TIP3    H135077   1.388   1.276   1.403 -0.3796 -1.0671 -0.0380
 4506TIP3    H235078   1.457   1.390   1.331 -1.5374 -0.3339 -0.0148
 4507TIP3   OH235079   6.339   4.815   0.538  0.6284  0.1613  0.2073
 4507TIP3    H135080   6.258   4.824   0.587  0.1135 -0.0061 -0.5846
 4507TIP3    H235081   6.405   4.790   0.602  0.5547  2.4371  1.2747
 4508TIP3   OH235082   1.166   5.079   2.096 -0.4808 -0.0673  0.6398
 4508TIP3    H135083   1.104   5.087   2.168 -0.2255  1.1724  0.7405
 4508TIP3    H235084   1.112   5.061   2.019 -0.8166 -0.6064  0.9984
 4509TIP3   OH235085   2.906   4.409   6.985  0.3145  0.6442  0.1259
 4509TIP3    H135086   2.974   4.411   7.053  1.0684 -0.3907 -0.5663
 4509TIP3    H235087   2.886   4.316   6.974  1.0291  0.6929 -1.8515
 4510TIP3   OH235088   4.824   5.829   8.267  0.2749  0.1332 -0.1556
 4510TIP3    H135089   4.786   5.874   8.192 -0.7600  0.0669  0.3092
 4510TIP3    H235090   4.829   5.896   8.335 -0.2837 -0.1897  0.2081
 4511TIP3   OH235091   5.136   3.204   7.242  0.3940 -0.5228  0.2723
 4511TIP3    H135092   5.181   3.197   7.326  3.3905  0.4473 -1.1128
 4511TIP3    H235093   5.085   3.284   7.248 -0.6277 -1.2285  1.6140
 4512TIP3   OH235094   1.957   0.442   1.655 -0.0056 -0.3767  0.0225
 4512TIP3    H135095   1.949   0.464   1.562 -0.8279  1.3183  0.4517
 4512TIP3    H235096   1.914   0.514   1.700 -0.1715 -1.4856  1.7093
 4513TIP3   OH235097   5.616   4.085   8.559  0.2727  0.0955 -0.1540
 4513TIP3    H135098   5.586   4.058   8.646  0.7649  2.3971  0.8125
 4513TIP3    H235099   5.712   4.080   8.565  0.3343  0.9109 -0.2989
 4514TIP3   OH235100   1.462   5.936   0.633  0.2132  0.2173 -0.0148
 4514TIP3    H135101   1.427   6.011   0.585 -1.6153 -0.7267 -0.2261
 4514TIP3    H235102   1.387   5.901   0.681  1.3335 -0.6925  1.1345
 4515TIP3   OH235103   4.723   2.652   0.627  0.0782 -0.6722 -0.0943
 4515TIP3    H135104   4.785   2.629   0.557  0.1650 -0.5830 -0.0456
 4515TIP3    H235105   4.667   2.719   0.588  0.9043  0.2831  0.3219
 4516TIP3   OH235106   0.774   4.411   0.669  0.1038 -0.3204  0.8676
 4516TIP3    H135107   0.847   4.470   0.648 -1.2288  0.9011 -0.6524
 4516TIP3    H235108   0.785   4.336   0.611 -0.2040  0.1867  0.1409
 4517TIP3   OH235109   2.245   3.853   8.087  0.2084  0.9460 -0.3509
 4517TIP3    H135110   2.223   3.776   8.034  0.6172  0.9539 -0.5295
 4517TIP3    H235111   2.176   3.916   8.068 -0.4915  0.3985  0.2706
 4518TIP3   OH235112   0.978   6.167   5.968 -0.1476  0.2407 -0.0206
 4518TIP3    H135113   1.062   6.127   5.944  0.3207  0.4413  1.1761
 4518TIP3    H235114   1.003   6.245   6.018 -1.0349 -0.2246  1.2094
 4519TIP3   OH235115   1.666   3.305   8.189  0.5406  0.2199  0.4093
 4519TIP3    H135116   1.622   3.283   8.107 -0.4031  0.3987  0.8522
 4519TIP3    H235117   1.715   3.384   8.169  0.7366 -0.0306 -0.1220
 4520TIP3   OH235118   0.150   2.904   0.140 -0.3962  0.0818 -0.5831
 4520TIP3    H135119   0.152   2.971   0.073  2.1186  1.8083  1.0614
 4520TIP3    H235120   0.242   2.886   0.160 -0.9757  0.4552  3.0651
 4521TIP3   OH235121   3.606   2.169   1.346 -0.5870  0.1145  0.0591
 4521TIP3    H135122   3.540   2.232   1.318 -0.9268 -0.1441  0.2746
 4521TIP3    H235123   3.558   2.104   1.397 -0.1518 -0.0182  0.3106
 4522TIP3   OH235124   3.631   0.901   7.202  0.4602 -0.0656  0.5047
 4522TIP3    H135125   3.575   0.841   7.252  1.4930 -2.3447 -0.9147
 4522TIP3    H235126   3.720   0.871   7.220  0.9119 -0.3708 -1.8652
 4523TIP3   OH235127   3.996   2.950   7.589 -0.6509  0.3479  0.3770
 4523TIP3    H135128   4.034   2.902   7.515 -0.6397 -2.1518  1.8946
 4523TIP3    H235129   4.035   3.037   7.583 -1.7978  0.7836 -3.3722
 4524TIP3   OH235130   1.670   3.516   1.639  0.4336  0.1083  0.1384
 4524TIP3    H135131   1.580   3.543   1.656  0.8924  0.8608  1.4930
 4524TIP3    H235132   1.712   3.593   1.601  0.8269  0.1846  0.7100
 4525TIP3   OH235133   1.262   4.541   8.705 -0.6687  0.2901 -0.4960
 4525TIP3    H135134   1.182   4.568   8.751  0.1611  0.7387  0.7445
 4525TIP3    H235135   1.331   4.595   8.743  0.3620 -0.6237 -1.0004
 4526TIP3   OH235136   6.572   1.415   8.600  0.2323  0.2136 -0.4483
 4526TIP3    H135137   6.572   1.364   8.681  0.2032  1.6044  0.4523
 4526TIP3    H235138   6.480   1.416   8.572  0.4919 -1.8602 -1.5778
 4527TIP3   OH235139   1.350   4.158   1.233 -0.2703 -0.0125 -0.3181
 4527TIP3    H135140   1.346   4.148   1.328  1.3295 -1.3534 -0.3381
 4527TIP3    H235141   1.444   4.156   1.212 -0.5317  1.1988 -1.8602
 4528TIP3   OH235142   2.031   1.733   7.098  0.9502  0.2375 -0.4683
 4528TIP3    H135143   1.998   1.797   7.035  0.6173  0.1601 -0.3692
 4528TIP3    H235144   1.985   1.752   7.179 -0.1643 -0.9883 -0.7810
 4529TIP3   OH235145   2.272   0.086   6.755  0.5648  0.3761 -0.0805
 4529TIP3    H135146   2.204   0.140   6.714  1.6067  0.4038 -1.8838
 4529TIP3    H235147   2.354   0.127   6.727  1.3482 -0.4488  0.9445
 4530TIP3   OH235148   2.667   3.311   8.116  0.8590 -0.1199 -0.7459
 4530TIP3    H135149   2.638   3.378   8.054  0.3866 -0.4263 -0.8602
 4530TIP3    H235150   2.597   3.307   8.180  0.4300 -1.1779 -1.2657
 4531TIP3   OH235151   1.052   6.791   1.704  0.4954 -0.1980 -0.3167
 4531TIP3    H135152   1.127   6.850   1.699  1.5025 -1.3783  0.3716
 4531TIP3    H235153   1.005   6.820   1.783  1.8159 -1.2049  0.8943
 4532TIP3   OH235154   6.433   1.753   1.243  0.1238  0.2086  0.1109
 4532TIP3    H135155   6.348   1.791   1.268 -0.1967  0.1089 -0.8114
 4532TIP3    H235156   6.486   1.760   1.323 -1.1377 -0.8850  1.0966
 4533TIP3   OH235157   6.179   0.847   0.143  0.0044 -0.2885 -0.1526
 4533TIP3    H135158   6.146   0.785   0.078 -3.4528 -0.8742  1.9177
 4533TIP3    H235159   6.155   0.933   0.108 -0.0769 -0.4675 -0.5428
 4534TIP3   OH235160   1.901   5.411   7.037  0.2356  0.1132  0.4436
 4534TIP3    H135161   1.891   5.485   7.096 -0.9026  0.5891 -0.3021
 4534TIP3    H235162   1.838   5.429   6.966  0.1230 -1.4344  0.1238
 4535TIP3   OH235163   6.240   2.175   7.330 -0.0576  0.2250  0.3649
 4535TIP3    H135164   6.315   2.124   7.299 -0.8267 -0.5311 -0.3163
 4535TIP3    H235165   6.225   2.240   7.262 -1.3779 -1.0582 -0.6532
 4536TIP3   OH235166   3.134   4.685   6.583 -0.0372 -0.3177 -0.1369
 4536TIP3    H135167   3.113   4.695   6.676  2.3545  3.1330  0.2427
 4536TIP3    H235168   3.220   4.642   6.583  0.9944  1.6254 -0.5150
 4537TIP3   OH235169   3.186   4.672   2.231  0.0514  0.6304  0.2551
 4537TIP3    H135170   3.202   4.583   2.201 -0.5102 -0.0394  1.8243
 4537TIP3    H235171   3.266   4.695   2.279  0.1616  0.9558 -0.0759
 4538TIP3   OH235172   6.754   6.454   1.642 -0.5703  0.1833 -0.2775
 4538TIP3    H135173   6.818   6.522   1.664  0.9433 -1.9247  2.3057
 4538TIP3    H235174   6.778   6.428   1.553  1.0975  0.6150 -0.0010
 4539TIP3   OH235175   0.158   1.320   8.528 -0.1559  0.2309  0.3908
 4539TIP3    H135176   0.095   1.392   8.526 -0.5682 -0.0992  0.9600
 4539TIP3    H235177   0.234   1.353   8.481 -0.1969  1.1657  0.9533
 4540TIP3   OH235178   5.157   3.744   0.398  0.0032  0.7363 -0.0697
 4540TIP3    H135179   5.093   3.759   0.468 -0.4655  0.6424 -0.4741
 4540TIP3    H235180   5.180   3.832   0.368 -0.9825  0.7438 -0.8543
 4541TIP3   OH235181   1.803   6.535   1.802  0.3314  0.0324  0.3745
 4541TIP3    H135182   1.849   6.608   1.761 -0.4874 -0.0149 -0.6796
 4541TIP3    H235183   1.770   6.570   1.885 -2.2439  1.7068 -1.2276
 4542TIP3   OH235184   2.261   6.151   7.974 -0.6686 -0.6193 -0.3112
 4542TIP3    H135185   2.252   6.073   8.029  1.9880 -0.4469  0.5112
 4542TIP3    H235186   2.171   6.172   7.948 -1.9871 -1.2921  3.1149
 4543TIP3   OH235187   2.829   1.723   8.109 -0.1811 -0.5160 -0.1452
 4543TIP3    H135188   2.780   1.805   8.114  2.6306  1.2480  2.2114
 4543TIP3    H235189   2.852   1.714   8.016 -0.9506  1.1194 -0.5255
 4544TIP3   OH235190   4.282   5.175   2.013  0.0093  0.5254 -0.0677
 4544TIP3    H135191   4.238   5.237   2.071 -0.6817  0.5760 -0.6336
 4544TIP3    H235192   4.317   5.108   2.072 -1.3221  0.1797  0.3633
 4545TIP3   OH235193   2.456   3.658   0.561  0.1266  0.1407 -0.4980
 4545TIP3    H135194   2.365   3.632   0.573  0.9502 -2.0342  2.0737
 4545TIP3    H235195   2.471   3.723   0.630  0.6902 -0.0605 -0.4233
 4546TIP3   OH235196   6.294   2.069   8.431 -0.4873  0.1819  0.5910
 4546TIP3    H135197   6.317   2.012   8.505 -0.9212 -1.7827 -0.7274
 4546TIP3    H235198   6.377   2.111   8.407 -0.1751  0.2044  1.6497
 4547TIP3   OH235199   1.352   1.117   6.608 -0.0262 -0.3827  0.1855
 4547TIP3    H135200   1.370   1.087   6.519  1.2582  1.1310 -0.1202
 4547TIP3    H235201   1.352   1.213   6.601  0.9262 -0.2124  1.9506
 4548TIP3   OH235202   5.382   6.363   8.060  0.2798 -0.2592 -0.2995
 4548TIP3    H135203   5.463   6.377   8.011  0.5511 -0.8577 -0.0336
 4548TIP3    H235204   5.404   6.390   8.149  0.2005 -0.4582 -0.2194
 4549TIP3   OH235205   6.360   4.790   7.270 -0.3827 -0.1460 -0.2036
 4549TIP3    H135206   6.273   4.771   7.236  0.1607 -3.1214 -0.1367
 4549TIP3    H235207   6.408   4.826   7.196 -0.6023 -2.0822 -1.3469
 4550TIP3   OH235208   1.675   2.630   6.546 -0.1022 -1.0588 -0.7398
 4550TIP3    H135209   1.595   2.642   6.496 -0.9343 -1.5584  0.4238
 4550TIP3    H235210   1.688   2.536   6.549  0.1658 -1.0123 -0.3793
 4551TIP3   OH235211   4.176   2.829   8.307  0.2741  0.3334  0.1804
 4551TIP3    H135212   4.139   2.836   8.395  3.0694 -1.0463  1.5862
 4551TIP3    H235213   4.105   2.791   8.255 -1.3404  0.8298  1.8976
 4552TIP3   OH235214   5.045   1.694   6.607  0.3217  0.1305 -0.9390
 4552TIP3    H135215   5.135   1.667   6.587 -0.2477 -1.4851 -1.4689
 4552TIP3    H235216   4.990   1.626   6.568 -1.0670 -0.0530  1.1540
 4553TIP3   OH235217   6.047   3.512   8.031 -0.1569  0.5636  0.3368
 4553TIP3    H135218   6.001   3.484   8.109  0.7775  0.2218  0.7771
 4553TIP3    H235219   5.978   3.531   7.968 -0.8764 -1.1777  0.5472
 4554TIP3   OH235220   4.204   4.834   1.475  0.1876  0.6090  0.2437
 4554TIP3    H135221   4.239   4.827   1.564 -0.2353  0.2838  0.3917
 4554TIP3    H235222   4.179   4.925   1.466 -2.0576  0.1767  1.3695
 4555TIP3   OH235223   5.829   1.318   1.404  0.2882 -0.3426 -0.4495
 4555TIP3    H135224   5.820   1.259   1.479 -1.2477 -0.4059 -0.6543
 4555TIP3    H235225   5.825   1.261   1.328  0.6195 -0.1513 -0.6120
 4556TIP3   OH235226   1.727   0.061   0.920 -0.3483 -0.0171  0.3836
 4556TIP3    H135227   1.810   0.014   0.934 -0.9259 -0.8646  1.0371
 4556TIP3    H235228   1.703   0.093   1.007 -0.1344  1.2145 -0.0013
 4557TIP3   OH235229   3.775   1.250   1.172 -0.1421 -0.1291  0.5668
 4557TIP3    H135230   3.764   1.331   1.221  0.8232  0.6331 -0.4181
 4557TIP3    H235231   3.809   1.188   1.236  0.6942  0.7159  0.9660
 4558TIP3   OH235232   5.772   3.164   1.403  0.3375 -0.1878  0.1253
 4558TIP3    H135233   5.865   3.161   1.428  0.6125  0.2262 -0.7817
 4558TIP3    H235234   5.769   3.121   1.318 -0.2948 -0.1244  0.1105
 4559TIP3   OH235235   6.090   5.515   8.267 -0.4486 -0.0061  0.1712
 4559TIP3    H135236   6.094   5.609   8.285 -0.7170  0.0593 -0.1035
 4559TIP3    H235237   6.174   5.495   8.225 -1.1097  0.4686 -1.4288
 4560TIP3   OH235238   1.762   0.262   7.299 -0.3406 -0.4403 -0.0881
 4560TIP3    H135239   1.793   0.172   7.304 -2.4931 -1.4082 -2.0777
 4560TIP3    H235240   1.716   0.276   7.383 -3.3071 -2.6880 -1.1385
 4561TIP3   OH235241   6.578   6.002   1.820  0.1228  0.5126 -0.1025
 4561TIP3    H135242   6.514   5.953   1.769 -0.1198 -0.8024  1.3935
 4561TIP3    H235243   6.529   6.037   1.894  0.8909  0.4577  0.4460
 4562TIP3   OH235244   4.568   1.854   8.099  0.0267  0.1989 -0.3730
 4562TIP3    H135245   4.522   1.770   8.106  0.1415  0.1872  0.2904
 4562TIP3    H235246   4.567   1.874   8.005 -2.8452  1.0278 -0.2653
 4563TIP3   OH235247   5.278   1.873   7.147  0.8062 -0.4117  0.2138
 4563TIP3    H135248   5.309   1.954   7.107 -1.6384  1.1032  1.2025
 4563TIP3    H235249   5.211   1.839   7.088  0.6849 -0.8504  0.5869
 4564TIP3   OH235250   4.264   1.640   0.336  0.5553  0.6557 -0.2552
 4564TIP3    H135251   4.256   1.710   0.272 -0.3249  0.2679 -0.5851
 4564TIP3    H235252   4.326   1.578   0.296  1.9041  1.5669  0.3562
 4565TIP3   OH235253   0.960   4.677   0.225 -0.0037 -0.3988  0.0134
 4565TIP3    H135254   1.036   4.730   0.202 -0.1824 -0.3826 -0.5608
 4565TIP3    H235255   0.960   4.605   0.163 -1.1706  0.2985 -0.8567
 4566TIP3   OH235256   3.153   4.219   7.171 -0.1198  0.7091 -0.1274
 4566TIP3    H135257   3.168   4.130   7.141  0.7293  0.0257  2.0923
 4566TIP3    H235258   3.078   4.212   7.230  1.2125  1.0041  1.6936
 4567TIP3   OH235259   5.754   0.811   2.180 -0.0904 -0.5307 -0.2574
 4567TIP3    H135260   5.710   0.854   2.253 -0.3982 -0.5911 -0.4061
 4567TIP3    H235261   5.710   0.844   2.102 -0.4088 -1.1939 -0.3685
 4568TIP3   OH235262   1.159   5.440   8.008 -0.4231 -0.0421 -0.0765
 4568TIP3    H135263   1.085   5.444   8.068 -2.1091 -3.1271 -1.6929
 4568TIP3    H235264   1.133   5.495   7.934 -0.4062  0.1283  0.0457
 4569TIP3   OH235265   3.105   2.162   7.982  0.2359  0.1035 -0.3989
 4569TIP3    H135266   3.184   2.141   7.932  0.6316 -0.7404  0.5488
 4569TIP3    H235267   3.084   2.252   7.956  1.3514  0.2455 -0.8752
 4570TIP3   OH235268   6.083   4.821   1.768 -0.2060  0.1559 -0.4282
 4570TIP3    H135269   6.030   4.900   1.755 -0.7766 -0.1073  0.2231
 4570TIP3    H235270   6.094   4.815   1.862  0.0704 -0.3940 -0.4914
 4571TIP3   OH235271   4.116   3.306   7.029  0.2027 -0.0518 -0.6811
 4571TIP3    H135272   4.101   3.238   6.963 -0.0989 -0.4523 -0.2021
 4571TIP3    H235273   4.143   3.383   6.978  0.6027 -0.5428 -1.2182
 4572TIP3   OH235274   6.213   1.994   0.778 -0.3016  0.0343  0.1388
 4572TIP3    H135275   6.223   1.971   0.870 -0.8478  1.2444  0.5266
 4572TIP3    H235276   6.285   1.951   0.734 -1.0437 -2.0335  0.8477
 4573TIP3   OH235277   1.980   2.834   8.347 -0.2137  0.4198  0.2996
 4573TIP3    H135278   1.913   2.902   8.337 -1.2295 -0.7167 -1.1111
 4573TIP3    H235279   1.943   2.758   8.302  2.0854 -0.2197 -0.6341
 4574TIP3   OH235280   4.505   4.062   0.708 -0.0322  0.5145  0.5093
 4574TIP3    H135281   4.540   3.983   0.668  1.1318  0.7560  0.9986
 4574TIP3    H235282   4.417   4.039   0.735 -0.6953  0.1940 -1.7303
 4575TIP3   OH235283   4.118   6.345   0.273 -0.3442  0.1476  0.2597
 4575TIP3    H135284   4.148   6.313   0.187  0.2327  0.6615  0.2614
 4575TIP3    H235285   4.174   6.299   0.336 -1.2694 -0.7961  0.4127
 4576TIP3   OH235286   1.304   3.417   8.200  0.1480  0.7362 -0.6879
 4576TIP3    H135287   1.265   3.431   8.113 -1.9479 -0.6046 -0.0542
 4576TIP3    H235288   1.339   3.328   8.196 -2.2852 -0.3804  0.5329
 4577TIP3   OH235289   0.622   4.070   1.134 -0.0363  0.5059  0.3038
 4577TIP3    H135290   0.614   4.164   1.116 -0.5937  0.3162 -0.4783
 4577TIP3    H235291   0.679   4.066   1.211 -1.8248  1.5804  1.7519
 4578TIP3   OH235292   1.432   3.989   6.904 -0.3321  0.1440  0.0542
 4578TIP3    H135293   1.384   4.004   6.823 -1.4181  0.2337  0.6915
 4578TIP3    H235294   1.379   4.032   6.971  0.9063  0.6946  0.7239
 4579TIP3   OH235295   2.708   3.428   7.331  0.1912 -0.3325 -0.2038
 4579TIP3    H135296   2.741   3.370   7.401  2.1753  0.3266 -0.5393
 4579TIP3    H235297   2.616   3.404   7.322  0.3943 -1.8451  1.2444
 4580TIP3   OH235298   3.886   3.935   1.326  0.1642  0.0460 -0.1154
 4580TIP3    H135299   3.831   4.005   1.288 -1.5459 -0.2715  1.6386
 4580TIP3    H235300   3.952   3.982   1.377  0.2070  0.3919 -0.4768
 4581TIP3   OH235301   1.166   4.327   6.908  0.3214  0.8329 -0.2321
 4581TIP3    H135302   1.252   4.322   6.867  3.2206  2.6576  4.7666
 4581TIP3    H235303   1.152   4.420   6.924  0.2820  0.2912  3.9871
 4582TIP3   OH235304   1.290   1.975   0.134 -0.3393  0.0729  0.1298
 4582TIP3    H135305   1.274   2.040   0.066  0.1646  0.3145  0.2386
 4582TIP3    H235306   1.225   1.907   0.118 -1.1588  0.8032  0.2845
 4583TIP3   OH235307   2.323   1.058   8.311  0.3581 -0.5888  0.4627
 4583TIP3    H135308   2.233   1.049   8.280  0.2855 -1.3091  0.8583
 4583TIP3    H235309   2.374   0.997   8.258  0.9408  1.0266 -0.9357
 4584TIP3   OH235310   4.291   2.098   1.289  0.1329  0.2794  0.2595
 4584TIP3    H135311   4.298   2.180   1.240  1.1022  0.1416  0.1433
 4584TIP3    H235312   4.381   2.065   1.292  0.1544  0.4107  2.3340
 4585TIP3   OH235313   6.044   2.175   0.163  0.5152 -0.0087  0.0995
 4585TIP3    H135314   5.963   2.135   0.196  0.0456 -1.4043 -2.5324
 4585TIP3    H235315   6.110   2.151   0.228 -0.5431 -1.7666  0.5887
 4586TIP3   OH235316   2.073   2.465   1.416 -0.2661 -0.0996 -0.0085
 4586TIP3    H135317   2.062   2.370   1.402  1.9252 -0.2113 -1.5276
 4586TIP3    H235318   2.103   2.472   1.507 -2.1616 -0.6629  0.6997
 4587TIP3   OH235319   0.995   5.707   0.846  0.8984 -0.0964 -0.3629
 4587TIP3    H135320   0.956   5.624   0.873  0.6719 -0.1774 -0.9370
 4587TIP3    H235321   0.929   5.773   0.868  0.8439 -0.1287 -0.4298
 4588TIP3   OH235322   0.848   6.105   2.458 -0.1841 -0.0812 -0.1904
 4588TIP3    H135323   0.942   6.122   2.449 -0.5700  2.2280 -0.4393
 4588TIP3    H235324   0.828   6.043   2.388  1.3828 -1.7598  0.7707
 4589TIP3   OH235325   4.245   4.740   6.991 -0.2091  0.6980 -0.4019
 4589TIP3    H135326   4.209   4.758   6.904  1.1275  2.1602 -0.7174
 4589TIP3    H235327   4.331   4.782   6.989 -0.3688  1.2147  1.8033
 4590TIP3   OH235328   0.239   6.303   0.464 -0.1141 -0.3099 -0.0018
 4590TIP3    H135329   0.311   6.360   0.490  0.0363 -1.1124  1.4679
 4590TIP3    H235330   0.230   6.316   0.370 -0.8667  3.0350  0.3965
 4591TIP3   OH235331   6.786   0.467   7.129 -0.5314  0.5439  0.3492
 4591TIP3    H135332   6.760   0.506   7.213 -0.2706 -0.4504  0.9149
 4591TIP3    H235333   6.706   0.469   7.076 -0.7096  1.1494  0.6377
 4592TIP3   OH235334   1.069   5.978   8.630  0.1258 -0.1307 -0.0564
 4592TIP3    H135335   1.070   5.891   8.670  0.8954 -0.0690  0.0649
 4592TIP3    H235336   1.052   5.961   8.537 -2.2249 -0.2393  0.3397
 4593TIP3   OH235337   2.249   5.073   1.895  0.3280  0.3476 -0.2908
 4593TIP3    H135338   2.195   5.016   1.949  2.1381  0.1193  1.3777
 4593TIP3    H235339   2.188   5.140   1.863 -1.1083 -0.3981  0.7585
 4594TIP3   OH235340   0.877   3.195   7.991 -0.1535  0.5652  0.3177
 4594TIP3    H135341   0.868   3.282   7.953 -0.6468  1.1590  1.7012
 4594TIP3    H235342   0.798   3.148   7.962  0.5837  0.2235 -1.2303
 4595TIP3   OH235343   0.809   4.873   8.181 -0.1448  0.1328  0.0375
 4595TIP3    H135344   0.870   4.814   8.225  1.5711  1.7792 -0.0104
 4595TIP3    H235345   0.769   4.819   8.112  0.1856 -1.3594  0.9779
 4596TIP3   OH235346   4.227   4.110   8.586 -0.3493 -0.0942  0.4618
 4596TIP3    H135347   4.228   4.120   8.681 -0.7269 -0.7521  0.5399
 4596TIP3    H235348   4.319   4.094   8.563 -0.4176 -1.0905  0.8479
 4597TIP3   OH235349   3.319   0.609   0.116 -0.4100 -0.1696 -0.2017
 4597TIP3    H135350   3.247   0.568   0.164  1.8318 -3.0478  1.0461
 4597TIP3    H235351   3.343   0.685   0.170 -1.2059 -0.3605  0.4524
 4598TIP3   OH235352   0.412   6.319   8.775  0.0335 -0.2766 -0.1448
 4598TIP3    H135353   0.485   6.260   8.759 -1.0446 -1.0774 -2.5175
 4598TIP3    H235354   0.358   6.274   8.839  0.0673 -1.1164 -0.6953
 4599TIP3   OH235355   1.925   2.917   0.593  0.7091  0.9975  0.3421
 4599TIP3    H135356   1.923   2.996   0.538  1.9986  1.2156  0.5602
 4599TIP3    H235357   1.898   2.846   0.535 -0.1941  1.5513  0.0663
 4600TIP3   OH235358   3.032   4.338   6.388  0.2272 -0.3066  0.2033
 4600TIP3    H135359   3.127   4.326   6.397  0.0700 -1.2271  0.7333
 4600TIP3    H235360   3.004   4.373   6.473 -0.4522 -3.7891  1.5746
 4601TIP3   OH235361   0.864   1.830   0.842 -0.3329 -1.0794 -0.1269
 4601TIP3    H135362   0.921   1.863   0.912 -1.7292 -2.8151  1.9739
 4601TIP3    H235363   0.856   1.737   0.860  0.1855 -1.8675 -3.3983
 4602TIP3   OH235364   5.020   2.306   1.131  0.0094  0.1977 -0.1809
 4602TIP3    H135365   4.941   2.285   1.080  0.0714  0.5000 -0.4053
 4602TIP3    H235366   5.088   2.319   1.065  0.8654 -2.4212  0.0646
 4603TIP3   OH235367   5.164   0.403   0.860  0.2724 -0.5461  0.0546
 4603TIP3    H135368   5.205   0.462   0.923  0.0323  0.6693 -0.8957
 4603TIP3    H235369   5.192   0.316   0.888  2.2176  0.1229  0.3844
 4604TIP3   OH235370   1.437   4.412   1.424  0.3780 -0.0880 -0.1722
 4604TIP3    H135371   1.365   4.350   1.432  0.8958 -0.7214 -0.3352
 4604TIP3    H235372   1.512   4.367   1.462  0.7192  0.5204 -0.1045
 4605TIP3   OH235373   0.889   5.721   1.144  0.4945 -0.6727 -0.0162
 4605TIP3    H135374   0.924   5.648   1.195  1.4122 -0.6631 -0.6047
 4605TIP3    H235375   0.967   5.768   1.113  0.0346 -1.4698 -2.5789
 4606TIP3   OH235376   4.917   2.776   7.447  0.0379  0.7747  0.2695
 4606TIP3    H135377   4.970   2.774   7.527 -0.3009 -1.6330  0.5178
 4606TIP3    H235378   4.974   2.816   7.381  2.3907 -1.9501  0.4516
 4607TIP3   OH235379   6.699   0.153   7.260 -0.3033 -0.0357  0.2732
 4607TIP3    H135380   6.706   0.169   7.354 -1.1946 -0.4850  0.4252
 4607TIP3    H235381   6.701   0.058   7.251  0.3854  0.0183 -0.2225
 4608TIP3   OH235382   0.324   4.956   0.216 -0.3204 -0.0825 -0.4026
 4608TIP3    H135383   0.297   5.045   0.240  1.1796  0.0888  0.8436
 4608TIP3    H235384   0.264   4.899   0.263  1.0878  0.2853  2.0000
 4609TIP3   OH235385   0.377   3.266   7.155  0.0769 -0.0020 -0.0977
 4609TIP3    H135386   0.445   3.226   7.101  1.1061 -0.7263  1.6606
 4609TIP3    H235387   0.425   3.319   7.219 -0.9679 -0.6011  1.2433
 4610TIP3   OH235388   3.845   1.934   1.278 -0.1013  0.0993  0.3627
 4610TIP3    H135389   3.930   1.971   1.254  0.1484  0.0645  1.1684
 4610TIP3    H235390   3.784   2.008   1.272 -0.2867 -0.1692 -1.5429
 4611TIP3   OH235391   5.738   6.595   6.214  0.0313  0.1350  0.3888
 4611TIP3    H135392   5.794   6.639   6.150  0.3183  0.6405  0.9723
 4611TIP3    H235393   5.794   6.583   6.291  0.1599 -1.8579  0.0413
 4612TIP3   OH235394   6.316   3.949   8.283  0.1552  0.3219  0.3647
 4612TIP3    H135395   6.271   4.016   8.335  0.1266  0.8748 -0.3636
 4612TIP3    H235396   6.351   3.996   8.207  2.3055 -0.0198  1.0850
 4613TIP3   OH235397   1.076   5.590   1.713  0.1553  0.6250 -0.4037
 4613TIP3    H135398   1.049   5.500   1.731  1.5112  0.1081 -0.8158
 4613TIP3    H235399   1.102   5.625   1.798  1.3123  0.0184 -0.4905
 4614TIP3   OH235400   2.280   2.527   5.861  0.0056  0.7379  0.3098
 4614TIP3    H135401   2.341   2.601   5.870  1.4501 -0.5782  1.8928
 4614TIP3    H235402   2.202   2.555   5.908  0.1012  1.6770 -0.0557
 4615TIP3   OH235403   5.850   4.661   8.375  0.6728 -0.0202  0.2777
 4615TIP3    H135404   5.877   4.692   8.462 -0.0828  3.0131 -0.4590
 4615TIP3    H235405   5.798   4.732   8.339 -2.1922 -2.6569 -1.2787
 4616TIP3   OH235406   5.343   2.772   0.331 -0.0982  0.4378 -0.3048
 4616TIP3    H135407   5.269   2.756   0.390  0.2496 -1.0553 -0.2323
 4616TIP3    H235408   5.414   2.799   0.389  0.0407 -0.3374 -0.1013
 4617TIP3   OH235409   0.379   0.427   0.796 -0.2117  0.1793 -0.1928
 4617TIP3    H135410   0.455   0.484   0.808 -0.5939  0.7713 -0.5845
 4617TIP3    H235411   0.416   0.345   0.762  0.3309  0.1911  0.3441
 4618TIP3   OH235412   2.029   2.888   8.039  0.7064  0.4426 -0.4855
 4618TIP3    H135413   2.125   2.884   8.049  0.6328 -2.5989 -0.1938
 4618TIP3    H235414   1.995   2.844   8.117 -0.8631 -0.0363 -1.3938
 4619TIP3   OH235415   3.862   0.933   1.652  0.1328  0.1001  0.1345
 4619TIP3    H135416   3.833   0.867   1.589  0.7445 -1.2499  1.2249
 4619TIP3    H235417   3.848   0.893   1.737  3.3463  0.0933  0.7943
 4620TIP3   OH235418   1.773   2.378   0.318  0.2325  0.2302  0.3368
 4620TIP3    H135419   1.793   2.433   0.242 -1.0738 -0.2494 -0.3764
 4620TIP3    H235420   1.775   2.288   0.284  1.5105 -0.1379  1.3062
 4621TIP3   OH235421   4.717   5.765   8.565 -0.1684  0.0861 -0.1784
 4621TIP3    H135422   4.681   5.758   8.653  1.4915  1.8280  0.7157
 4621TIP3    H235423   4.654   5.820   8.518  0.3383  1.6229  0.8450
 4622TIP3   OH235424   0.025   6.615   0.092  0.0772  0.6273 -0.5267
 4622TIP3    H135425   0.073   6.691   0.059 -0.5145  1.4952  0.5624
 4622TIP3    H235426  -0.054   6.612   0.039 -0.2726  1.2492 -0.0398
 4623TIP3   OH235427   0.174   1.542   1.789  0.8410 -0.1405 -0.0126
 4623TIP3    H135428   0.203   1.512   1.703  1.4309  0.3072  0.0193
 4623TIP3    H235429   0.102   1.603   1.770  3.2920  2.8460 -0.5025
 4624TIP3   OH235430   2.510   3.171   7.437 -0.3137 -0.2428 -0.1078
 4624TIP3    H135431   2.477   3.095   7.388 -1.2564 -1.2763  1.9791
 4624TIP3    H235432   2.461   3.169   7.520  1.1720  1.4109  0.8833
 4625TIP3   OH235433   4.319   5.113   1.275 -0.3988 -0.0440  0.4760
 4625TIP3    H135434   4.326   5.202   1.308  0.6210  0.6393 -1.4525
 4625TIP3    H235435   4.226   5.102   1.254 -0.0886  1.9113 -2.5738
 4626TIP3   OH235436   5.658   0.364   6.949  0.4070  0.1741  0.3716
 4626TIP3    H135437   5.627   0.376   6.860  2.2400  0.8110 -0.2207
 4626TIP3    H235438   5.739   0.313   6.940  2.1215  2.5510  1.3805
 4627TIP3   OH235439   1.272   3.118   0.146 -0.1965  0.0095 -0.1032
 4627TIP3    H135440   1.255   3.053   0.078  0.4428  0.0095 -0.2715
 4627TIP3    H235441   1.367   3.118   0.155 -0.2919 -0.2216  1.0209
 4628TIP3   OH235442   5.681   5.747   1.394  0.1439  0.1593 -0.0919
 4628TIP3    H135443   5.675   5.811   1.323 -2.9726 -0.4664 -0.5579
 4628TIP3    H235444   5.710   5.797   1.470 -0.9919  1.8765 -0.7306
 4629TIP3   OH235445   4.972   2.907   8.170  0.1572  0.3955 -0.4115
 4629TIP3    H135446   4.917   2.969   8.123  2.3550  3.1712  0.4196
 4629TIP3    H235447   5.061   2.934   8.150  1.2178 -1.9021  0.8478
 4630TIP3   OH235448   2.656   1.950   6.315  0.2914  0.2949  0.2877
 4630TIP3    H135449   2.591   2.019   6.302 -0.3641  0.7357  4.5454
 4630TIP3    H235450   2.610   1.869   6.293 -0.4145  0.8700 -0.4203
 4631TIP3   OH235451   6.215   1.670   0.827  0.0989 -0.7617 -0.2167
 4631TIP3    H135452   6.181   1.736   0.888 -0.7560 -2.0957  0.8112
 4631TIP3    H235453   6.297   1.707   0.795 -1.3477  1.7592 -1.3352
 4632TIP3   OH235454   1.782   2.993   1.180  0.4923  0.6716 -0.1226
 4632TIP3    H135455   1.777   3.082   1.144 -1.2666 -0.2508 -2.4219
 4632TIP3    H235456   1.872   2.965   1.160 -0.0740  0.6018 -3.0451
 4633TIP3   OH235457   2.963   2.334   7.816  0.1888  0.4767  0.5429
 4633TIP3    H135458   2.888   2.275   7.824 -0.1638  1.0597  1.7998
 4633TIP3    H235459   3.011   2.301   7.740 -1.2393 -0.0140 -0.1834
 4634TIP3   OH235460   2.989   4.641   7.366  0.0665  0.5511 -0.4199
 4634TIP3    H135461   2.976   4.641   7.460  0.1798 -1.1276 -0.3789
 4634TIP3    H235462   3.083   4.627   7.354 -0.0241  0.2332 -0.7853
 4635TIP3   OH235463   1.591   5.454   7.818 -0.2666  0.0377  0.1553
 4635TIP3    H135464   1.587   5.413   7.732  1.0244  0.5559 -0.1760
 4635TIP3    H235465   1.595   5.381   7.879  0.2862 -0.3374 -0.3184
 4636TIP3   OH235466   0.528   5.593   1.992  0.0235  0.4978  0.4694
 4636TIP3    H135467   0.547   5.570   2.083  1.0955  1.1867  0.4414
 4636TIP3    H235468   0.533   5.688   1.990 -1.0510  0.5535 -0.0963
 4637TIP3   OH235469   2.771   4.587   1.161 -0.4309  0.3349  0.5587
 4637TIP3    H135470   2.722   4.669   1.156  2.9191  2.4323 -1.4703
 4637TIP3    H235471   2.771   4.553   1.072  0.3346 -0.5433  0.8763
 4638TIP3   OH235472   3.226   3.567   6.024 -0.0227 -0.8819  0.1664
 4638TIP3    H135473   3.228   3.657   5.993  0.8936 -0.4632  1.3447
 4638TIP3    H235474   3.135   3.552   6.050 -0.1658 -0.2696  0.0220
 4639TIP3   OH235475   3.033   0.373   8.527  0.1024  0.0408  0.3220
 4639TIP3    H135476   3.127   0.362   8.514  0.0619 -0.8449  0.7168
 4639TIP3    H235477   3.026   0.444   8.591  0.4439  0.9819 -0.6414
 4640TIP3   OH235478   1.092   6.404   6.068  0.1790  0.1175  0.1452
 4640TIP3    H135479   1.125   6.419   6.157  2.2238 -1.2344 -0.3219
 4640TIP3    H235480   1.124   6.478   6.017 -3.7443  2.7436  1.0146
 4641TIP3   OH235481   3.261   1.129   0.598 -0.4452  0.8607 -0.4336
 4641TIP3    H135482   3.236   1.192   0.531  0.9332  0.7334 -1.0917
 4641TIP3    H235483   3.218   1.048   0.572  1.0363  0.4831 -1.8975
 4642TIP3   OH235484   3.732   3.639   7.568 -0.7645  0.6608 -0.0468
 4642TIP3    H135485   3.706   3.728   7.541  2.9809  2.2020  0.8462
 4642TIP3    H235486   3.708   3.634   7.660 -0.5188  0.9535  0.0339
 4643TIP3   OH235487   2.794   4.936   8.011 -0.1021 -0.3913  0.0768
 4643TIP3    H135488   2.704   4.914   8.035 -0.0279 -0.3771  0.3688
 4643TIP3    H235489   2.798   5.031   8.016 -0.3446 -0.3213 -0.9113
 4644TIP3   OH235490   4.733   4.370   6.928  0.3033  0.1559 -0.1925
 4644TIP3    H135491   4.795   4.339   6.862  0.2035  0.8520 -0.6199
 4644TIP3    H235492   4.662   4.305   6.926  0.4276  0.0263 -0.5787
 4645TIP3   OH235493   6.409   3.333   1.004  0.8025 -0.3486  0.0110
 4645TIP3    H135494   6.472   3.270   0.970 -0.3511 -2.0350  0.8476
 4645TIP3    H235495   6.458   3.415   1.011  1.8740 -0.6440 -2.7815
 4646TIP3   OH235496   2.618   4.178   7.082  0.6090 -0.1686 -0.3231
 4646TIP3    H135497   2.612   4.117   7.009 -0.3000  2.4504 -2.6431
 4646TIP3    H235498   2.530   4.215   7.089  1.3142  1.4563  0.4093
 4647TIP3   OH235499   2.563   5.932   0.110 -0.5512 -0.0948  0.3993
 4647TIP3    H135500   2.599   5.881   0.182  0.0807  0.6287  0.6081
 4647TIP3    H235501   2.540   5.867   0.043 -0.3435 -0.6982  0.9100
 4648TIP3   OH235502   3.536   6.566   0.885  0.2295 -1.0349  0.3033
 4648TIP3    H135503   3.630   6.570   0.874  0.1181 -1.6432 -1.0733
 4648TIP3    H235504   3.523   6.551   0.979  1.3854  1.5349  0.9480
 4649TIP3   OH235505   3.267   0.449   8.324  0.6618 -0.0613 -0.4552
 4649TIP3    H135506   3.286   0.436   8.417 -1.0574 -0.9945 -0.2008
 4649TIP3    H235507   3.242   0.541   8.317 -2.3795 -0.7026  0.6582
 4650TIP3   OH235508   1.992   1.147   6.878  0.1589  0.2842  0.2748
 4650TIP3    H135509   2.034   1.064   6.856 -0.9778 -0.1220 -0.4898
 4650TIP3    H235510   2.028   1.171   6.963  2.4486  0.3420 -0.6594
 4651TIP3   OH235511   6.113   5.485   1.225 -0.7858  0.8037 -0.0627
 4651TIP3    H135512   6.084   5.420   1.290 -0.2658  0.5068 -0.1222
 4651TIP3    H235513   6.140   5.432   1.150  0.4242  1.0308  0.1879
 4652TIP3   OH235514   1.873   1.557   6.117  0.1786  0.2699  0.4574
 4652TIP3    H135515   1.921   1.561   6.035 -1.1854  1.8962 -0.3315
 4652TIP3    H235516   1.804   1.492   6.102 -0.2800  0.8097  0.1559
 4653TIP3   OH235517   1.984   5.762   8.704 -0.0093  0.3376  0.3783
 4653TIP3    H135518   1.925   5.812   8.761 -0.4200  2.5421 -1.8089
 4653TIP3    H235519   1.926   5.714   8.646  0.2536  1.8546 -1.2297
 4654TIP3   OH235520   6.592   5.429   0.586 -0.9128 -0.2564  1.1459
 4654TIP3    H135521   6.621   5.501   0.531 -2.2443 -0.3080  0.3423
 4654TIP3    H235522   6.647   5.435   0.664  0.5949  0.1845  0.0901
 4655TIP3   OH235523   2.003   3.994   7.973  0.2973  0.1797  0.0306
 4655TIP3    H135524   1.960   3.915   7.941  2.5643 -0.3280 -2.1430
 4655TIP3    H235525   2.045   4.031   7.895  1.6217  1.9805  1.5089
 4656TIP3   OH235526   1.517   4.331   8.653  0.0258 -0.4745 -0.1941
 4656TIP3    H135527   1.508   4.292   8.566 -0.4435 -1.1466  0.1473
 4656TIP3    H235528   1.479   4.418   8.645 -0.8498 -0.8710 -0.4350
 4657TIP3   OH235529   4.626   1.707   7.550 -0.2946 -0.1360  0.0683
 4657TIP3    H135530   4.674   1.773   7.501 -2.1348  0.9353 -0.4100
 4657TIP3    H235531   4.661   1.623   7.519 -0.0483  0.5655 -1.6285
 4658TIP3   OH235532   4.471   6.247   6.327  0.2974 -0.1927 -0.5346
 4658TIP3    H135533   4.491   6.336   6.298  0.4046  0.0433  0.2315
 4658TIP3    H235534   4.383   6.253   6.363 -0.1189 -0.6398 -1.4594
 4659TIP3   OH235535   0.778   1.072   1.143 -0.3589  0.3416 -0.3080
 4659TIP3    H135536   0.733   1.032   1.218 -0.5367  0.8280 -0.1498
 4659TIP3    H235537   0.714   1.133   1.107 -0.5084 -0.3570 -1.2547
 4660TIP3   OH235538   4.041   6.742   0.777 -0.1087 -0.0804 -1.1561
 4660TIP3    H135539   4.023   6.834   0.762  0.7147  0.1907 -0.5044
 4660TIP3    H235540   4.107   6.719   0.711 -0.3642 -0.2246 -1.3639
 4661TIP3   OH235541   2.670   5.405   7.222  0.2391  0.0908  0.0407
 4661TIP3    H135542   2.596   5.464   7.235 -0.0230 -0.4718  1.1276
 4661TIP3    H235543   2.678   5.357   7.304  0.9313 -0.8534 -0.5605
 4662TIP3   OH235544   6.433   0.755   2.423  0.1582  0.0227 -0.1976
 4662TIP3    H135545   6.449   0.766   2.329  0.2107  0.3448 -0.1522
 4662TIP3    H235546   6.370   0.824   2.445  1.3281  0.9569  0.3112
 4663TIP3   OH235547   2.573   3.396   6.473  0.0189  0.3172 -0.2574
 4663TIP3    H135548   2.550   3.481   6.511 -1.0255  0.8381 -1.9466
 4663TIP3    H235549   2.496   3.371   6.423  1.2344 -0.4293 -1.8407
 4664TIP3   OH235550   0.971   5.437   8.254  0.2680  0.3832 -0.2455
 4664TIP3    H135551   0.998   5.352   8.287 -0.8363  0.1469  0.0975
 4664TIP3    H235552   0.890   5.457   8.301  1.2271  2.2624  0.7121
 4665TIP3   OH235553   5.647   3.827   7.833 -0.4770  0.0279 -0.1049
 4665TIP3    H135554   5.736   3.846   7.802 -0.7700 -0.5243 -1.3290
 4665TIP3    H235555   5.602   3.912   7.830 -0.0858  0.2482  0.2123
 4666TIP3   OH235556   3.965   0.120   1.134 -0.1736 -0.5001 -0.3200
 4666TIP3    H135557   3.932   0.031   1.141  0.1710 -0.5875  0.2773
 4666TIP3    H235558   3.940   0.149   1.046 -2.2435 -0.3712  0.2673
 4667TIP3   OH235559   0.969   1.966   0.289 -0.8993 -0.1608 -0.3979
 4667TIP3    H135560   1.019   1.982   0.208  0.6660  0.4547  0.6357
 4667TIP3    H235561   1.036   1.956   0.357 -2.2004  0.9799  1.1326
 4668TIP3   OH235562   4.943   3.800   2.245  0.1811  0.1977  0.5842
 4668TIP3    H135563   4.945   3.727   2.306 -0.2264  1.2786  1.9392
 4668TIP3    H235564   5.023   3.849   2.263 -0.0646  0.6627  0.4350
 4669TIP3   OH235565   5.436   4.986   1.142 -0.4493 -0.1238  0.2922
 4669TIP3    H135566   5.479   5.063   1.106 -2.4941  0.5875 -0.7793
 4669TIP3    H235567   5.406   5.014   1.229  0.4445 -0.3551  0.6909
 4670TIP3   OH235568   0.991   6.780   6.735  0.4370 -0.0493 -0.4035
 4670TIP3    H135569   1.072   6.737   6.764 -0.1552  2.0321  5.8668
 4670TIP3    H235570   1.019   6.863   6.697  1.2789 -0.6140 -1.0356
 4671TIP3   OH235571   3.069   4.901   1.005  0.2696  0.0379  0.2584
 4671TIP3    H135572   3.100   4.980   1.050  0.1587  0.4180 -0.3253
 4671TIP3    H235573   2.975   4.898   1.022  0.2957 -0.0360  0.3871
 4672TIP3   OH235574   0.013   6.636   7.832  0.0488 -0.0203 -0.3849
 4672TIP3    H135575  -0.007   6.624   7.740  0.6485  2.5509 -0.9146
 4672TIP3    H235576  -0.023   6.722   7.854  0.8829 -0.0963  1.4784
 4673TIP3   OH235577   0.893   5.488   0.046  0.3963  0.3640  0.0795
 4673TIP3    H135578   0.933   5.521  -0.034 -2.3149 -1.1544 -2.0534
 4673TIP3    H235579   0.831   5.557   0.072  0.0940  0.1433 -0.0606
 4674TIP3   OH235580   0.833   0.311   1.664 -0.8884  0.4350 -0.6553
 4674TIP3    H135581   0.888   0.379   1.702 -0.7266  0.4666 -0.9434
 4674TIP3    H235582   0.754   0.311   1.718 -1.0872  1.1776 -0.9377
 4675TIP3   OH235583   6.198   4.236   1.256  0.4779 -0.0660 -0.3288
 4675TIP3    H135584   6.278   4.232   1.309  0.6950 -0.9818 -0.7218
 4675TIP3    H235585   6.218   4.300   1.188  0.9146 -0.3565 -0.4792
 4676TIP3   OH235586   2.675   3.192   0.632  0.0004 -0.3441  0.4686
 4676TIP3    H135587   2.756   3.175   0.679 -0.1908  1.5240  1.5690
 4676TIP3    H235588   2.701   3.243   0.556 -0.1784  0.7537  1.1290
 4677TIP3   OH235589   5.605   1.651   7.648  0.0400  0.2331  0.2544
 4677TIP3    H135590   5.515   1.641   7.678  0.1996 -3.9208 -0.1398
 4677TIP3    H235591   5.658   1.606   7.714  1.5505  0.3110 -0.8474
 4678TIP3   OH235592   1.535   3.173   0.077  0.6413  0.3904  0.3510
 4678TIP3    H135593   1.600   3.106   0.052 -0.8456 -0.4658 -1.5008
 4678TIP3    H235594   1.532   3.232   0.002  1.4595  2.2568  1.7047
 4679TIP3   OH235595   0.590   1.304   0.595  0.1213 -0.3098  0.2080
 4679TIP3    H135596   0.533   1.380   0.583 -0.9690 -0.9634  1.0860
 4679TIP3    H235597   0.676   1.341   0.613 -0.0227  0.7011 -1.0668
 4680TIP3   OH235598   1.693   6.058   1.397  0.0181  0.2771 -0.3648
 4680TIP3    H135599   1.608   6.042   1.356 -0.0052 -2.4511  0.5735
 4680TIP3    H235600   1.740   5.975   1.390  1.4605  0.8214  1.7619
 4681TIP3   OH235601   3.958   4.915   7.342  0.5271 -0.4846 -0.3732
 4681TIP3    H135602   3.869   4.885   7.322 -0.5082  0.2646  2.4808
 4681TIP3    H235603   4.003   4.837   7.375  0.3813 -0.5406 -0.3042
 4682TIP3   OH235604   4.033   5.406   6.812  0.4543  0.3977  0.1470
 4682TIP3    H135605   4.086   5.349   6.868  0.9341  0.1155 -0.5842
 4682TIP3    H235606   4.097   5.449   6.755 -0.1231 -0.2470 -1.0156
 4683TIP3   OH235607   2.436   4.503   0.595 -0.2795  0.3250  0.6316
 4683TIP3    H135608   2.481   4.418   0.589  1.1446  0.9836  1.3950
 4683TIP3    H235609   2.347   4.481   0.619 -0.5604 -1.0732 -1.3751
 4684TIP3   OH235610   5.190   0.503   7.935 -0.0234 -0.2271  0.5431
 4684TIP3    H135611   5.155   0.544   8.014 -1.8963 -0.5743 -0.0518
 4684TIP3    H235612   5.218   0.416   7.963 -1.5876 -0.7228  0.6965
 4685TIP3   OH235613   2.853   5.548   8.451 -0.2564  0.1918 -0.1689
 4685TIP3    H135614   2.790   5.483   8.417 -0.6252  0.3379  0.2310
 4685TIP3    H235615   2.910   5.498   8.508 -0.3165  0.1507 -0.1447
 4686TIP3   OH235616   2.175   0.426   8.586  0.0419 -0.1614 -0.3262
 4686TIP3    H135617   2.149   0.513   8.555 -0.3164  0.2151  0.9546
 4686TIP3    H235618   2.130   0.365   8.529  0.1853  0.4902 -1.1554
 4687TIP3   OH235619   2.188   0.673   8.045  0.6283 -0.0326  0.0881
 4687TIP3    H135620   2.192   0.764   8.014  1.2370  0.1365  0.6360
 4687TIP3    H235621   2.277   0.640   8.034  0.2738 -0.7637 -0.6732
 4688TIP3   OH235622   1.555   0.908   0.242 -0.3014  0.2208 -0.8347
 4688TIP3    H135623   1.630   0.853   0.219 -1.0455 -0.6997 -1.1548
 4688TIP3    H235624   1.492   0.894   0.171 -2.0954 -1.6114  0.9830
 4689TIP3   OH235625   2.528   6.255   7.826  0.2726 -0.6223  0.2216
 4689TIP3    H135626   2.500   6.229   7.913 -0.8347 -1.3666 -0.3386
 4689TIP3    H235627   2.552   6.172   7.783 -1.4984 -0.5737 -0.9599
 4690TIP3   OH235628   5.746   2.425   6.656 -0.1913 -0.1617 -0.2343
 4690TIP3    H135629   5.671   2.483   6.663 -0.4723 -0.5685  0.1525
 4690TIP3    H235630   5.767   2.425   6.563  1.8084  3.0600  0.0358
 4691TIP3   OH235631   6.299   4.767   1.620 -0.0263  0.3000  0.1379
 4691TIP3    H135632   6.224   4.775   1.679  0.5052  2.5154  0.6136
 4691TIP3    H235633   6.370   4.811   1.666  2.1659 -3.2022  0.4839
 4692TIP3   OH235634   6.447   5.047   7.899  0.1382  0.1929  0.1661
 4692TIP3    H135635   6.403   5.114   7.953  0.7294  0.2202  0.6220
 4692TIP3    H235636   6.398   5.047   7.817 -0.1172  0.9078  0.3078
 4693TIP3   OH235637   1.277   0.222   7.271 -0.1513 -0.1126  0.2146
 4693TIP3    H135638   1.358   0.172   7.255  0.5747  0.7337  1.1203
 4693TIP3    H235639   1.285   0.298   7.214  0.0064  0.2963  0.7723
 4694TIP3   OH235640   6.450   2.236   1.044 -0.0238  0.3009 -0.2631
 4694TIP3    H135641   6.487   2.209   1.128 -0.7175 -0.2303 -0.1249
 4694TIP3    H235642   6.356   2.234   1.057 -0.1505 -0.1659 -1.1644
 4695TIP3   OH235643   4.830   2.169   0.915  0.9079  0.4396  0.0156
 4695TIP3    H135644   4.908   2.143   0.866  0.1872 -0.6411 -0.5828
 4695TIP3    H235645   4.805   2.091   0.964  0.0481  0.6987  0.0073
 4696TIP3   OH235646   5.554   6.204   7.549 -0.5304 -0.0543 -0.8220
 4696TIP3    H135647   5.582   6.209   7.458 -1.2895  0.4999 -1.0346
 4696TIP3    H235648   5.632   6.178   7.597  0.4440  1.7723 -1.3425
 4697TIP3   OH235649   1.461   6.381   8.657  0.1662 -0.0622 -0.1047
 4697TIP3    H135650   1.469   6.326   8.735 -1.1676  1.2546  1.0298
 4697TIP3    H235651   1.367   6.403   8.653  0.6021  1.8968 -0.6266
 4698TIP3   OH235652   1.526   0.389   0.189  0.3836  0.3568  0.0244
 4698TIP3    H135653   1.588   0.460   0.174  0.7201 -0.0899 -0.6971
 4698TIP3    H235654   1.472   0.420   0.263  0.6360  1.2804 -0.1706
 4699TIP3   OH235655   2.527   0.597   8.246  0.3982  0.0621  0.0581
 4699TIP3    H135656   2.503   0.508   8.221 -1.1794  0.3371  0.4947
 4699TIP3    H235657   2.582   0.629   8.174 -0.7480 -0.5316 -1.1137
 4700TIP3   OH235658   4.265   4.154   6.972 -0.3060 -0.0602  0.0559
 4700TIP3    H135659   4.225   4.240   6.980 -0.6287 -0.2210  0.1568
 4700TIP3    H235660   4.193   4.095   6.951 -0.1007 -0.3239  0.0806
 4701TIP3   OH235661   2.217   5.271   7.860  0.0214 -0.2360  0.1478
 4701TIP3    H135662   2.219   5.343   7.797  0.9887  1.3909  1.9585
 4701TIP3    H235663   2.125   5.264   7.885 -0.3019 -0.6085 -1.0664
 4702TIP3   OH235664   3.370   4.532   0.142  0.3986 -0.2697  0.8608
 4702TIP3    H135665   3.361   4.485   0.225  1.0017  1.6979  2.1266
 4702TIP3    H235666   3.450   4.584   0.153 -0.3774  1.2479 -0.3105
 4703TIP3   OH235667   3.803   3.517   7.986 -0.5073 -0.4264 -0.0518
 4703TIP3    H135668   3.875   3.456   7.970  0.4427 -0.1034  2.5242
 4703TIP3    H235669   3.736   3.465   8.029 -0.1477  0.0904  1.1569
 4704TIP3   OH235670   0.260   0.223   8.622 -1.0845  0.3820 -0.5514
 4704TIP3    H135671   0.352   0.219   8.596 -1.1756  0.1348 -0.8449
 4704TIP3    H235672   0.212   0.226   8.539 -1.4539 -1.9951 -0.4981
 4705TIP3   OH235673   4.466   3.609   6.994 -0.1276  0.4496 -0.0083
 4705TIP3    H135674   4.486   3.686   7.047 -0.5249 -0.1806  1.0910
 4705TIP3    H235675   4.522   3.541   7.029  0.5798  0.3378 -1.3008
 4706TIP3   OH235676   1.390   1.545   7.923 -0.0452 -0.3430  0.4738
 4706TIP3    H135677   1.312   1.579   7.966  0.3998  0.6573  0.5415
 4706TIP3    H235678   1.378   1.567   7.830 -0.7735 -2.0451  0.1380
 4707TIP3   OH235679   2.366   5.188   0.964 -0.2890 -0.2698 -0.2357
 4707TIP3    H135680   2.430   5.200   0.895 -1.6048  1.0620 -1.2926
 4707TIP3    H235681   2.312   5.267   0.961 -0.5378 -0.2664  2.1816
 4708TIP3   OH235682   6.484   4.769   8.736  0.2697 -0.5441 -0.2913
 4708TIP3    H135683   6.553   4.774   8.670 -0.8481  0.8593 -1.4432
 4708TIP3    H235684   6.484   4.854   8.778 -0.4868 -0.6600 -0.0376
 4709TIP3   OH235685   3.420   0.866   8.428  0.2940  0.1739 -0.1809
 4709TIP3    H135686   3.445   0.934   8.365 -0.3509  0.6640  0.0877
 4709TIP3    H235687   3.419   0.911   8.513 -1.4264  0.1710 -0.1680
 4710TIP3   OH235688   5.258   3.888   8.028  0.2318  0.1477 -0.2123
 4710TIP3    H135689   5.306   3.882   8.111  0.1323  1.8619  0.0052
 4710TIP3    H235690   5.269   3.801   7.988  0.7329 -0.5413  1.3337
 4711TIP3   OH235691   2.626   3.359   0.362  0.2584 -0.5177 -0.1691
 4711TIP3    H135692   2.557   3.413   0.322  0.6877  0.0546 -0.1634
 4711TIP3    H235693   2.665   3.312   0.288 -1.6034 -2.6069  0.0990
 4712TIP3   OH235694   3.233   0.078   6.900 -0.4188  0.3003 -0.3485
 4712TIP3    H135695   3.156   0.134   6.915 -0.8013 -0.1271 -0.7271
 4712TIP3    H235696   3.242   0.028   6.981 -1.2419 -0.4935 -0.7349
 4713TIP3   OH235697   1.930   4.713   6.555 -0.1864 -0.1294  0.0657
 4713TIP3    H135698   1.917   4.671   6.470  0.1722  1.1169 -0.6232
 4713TIP3    H235699   2.025   4.712   6.568 -0.1778  0.4043  0.0675
 4714TIP3   OH235700   0.319   6.744   0.613  0.0991  0.3114  0.2578
 4714TIP3    H135701   0.262   6.763   0.539 -0.1952 -0.2957  0.3224
 4714TIP3    H235702   0.346   6.830   0.646 -0.2372  0.5880 -0.1883
 4715TIP3   OH235703   2.179   6.055   6.800 -0.2440 -0.2908  0.0650
 4715TIP3    H135704   2.179   6.054   6.704  1.2300 -1.4337  0.0428
 4715TIP3    H235705   2.098   6.010   6.824 -1.1388  0.9050 -0.6157
 4716TIP3   OH235706   3.722   3.995   0.073 -0.4142  0.2152 -0.5968
 4716TIP3    H135707   3.637   4.016   0.035 -0.1591  1.9552 -0.2664
 4716TIP3    H235708   3.780   3.987  -0.003 -0.7026 -0.2467 -0.7771
 4717TIP3   OH235709   6.253   1.566   2.106 -0.1792  0.6933 -0.4703
 4717TIP3    H135710   6.207   1.638   2.064 -0.5405  1.3956  1.0642
 4717TIP3    H235711   6.325   1.608   2.152  1.2191 -0.2414 -1.6891
 4718TIP3   OH235712   2.706   1.697   8.555  0.1404  0.6586  0.0789
 4718TIP3    H135713   2.618   1.696   8.518 -0.6453  1.6792  1.8061
 4718TIP3    H235714   2.757   1.642   8.495 -2.0436 -1.4140 -0.0537
 4719TIP3   OH235715   5.468   4.333   0.690 -0.3508  0.2988 -0.3086
 4719TIP3    H135716   5.525   4.392   0.641  0.7726 -0.6354 -0.1904
 4719TIP3    H235717   5.509   4.329   0.777 -0.4061 -0.6279 -0.3169
 4720TIP3   OH235718   6.463   3.550   0.796  0.0030  0.0781  0.2231
 4720TIP3    H135719   6.375   3.537   0.762 -0.0464 -2.2276  1.0682
 4720TIP3    H235720   6.450   3.588   0.882 -0.0820  1.1682 -0.2599
 4721TIP3   OH235721   0.201   4.394   0.626 -0.3144  0.3567  0.1369
 4721TIP3    H135722   0.173   4.368   0.539  0.3500 -0.5409  0.1820
 4721TIP3    H235723   0.151   4.338   0.686  0.8879 -0.6355  0.2448
 4722TIP3   OH235724   6.232   4.640   8.724 -0.4839  0.3748  0.7288
 4722TIP3    H135725   6.232   4.596   8.809 -1.0656 -0.6871  0.2080
 4722TIP3    H235726   6.304   4.702   8.729  0.7956 -1.0912  1.3027
 4723TIP3   OH235727   3.732   4.111   0.766  0.1444 -0.0461 -0.3807
 4723TIP3    H135728   3.805   4.078   0.819  0.5366  0.4921 -0.5666
 4723TIP3    H235729   3.724   4.049   0.695  0.1670 -0.3212 -0.1442
 4724TIP3   OH235730   3.174   6.199   7.079  0.1498  0.6863  0.2965
 4724TIP3    H135731   3.239   6.130   7.089 -1.2654 -0.8055 -0.2404
 4724TIP3    H235732   3.123   6.173   7.002 -2.6497  0.3923  2.1105
 4725TIP3   OH235733   2.924   6.191   0.316 -0.2632  0.2791 -0.1092
 4725TIP3    H135734   2.966   6.271   0.346 -0.1480  0.6358 -1.1834
 4725TIP3    H235735   2.957   6.178   0.227 -3.1054  1.1244 -1.3987
 4726TIP3   OH235736   6.437   6.103   6.614 -0.0096 -0.3260 -0.0421
 4726TIP3    H135737   6.429   6.182   6.667  0.8473 -0.8214  0.8511
 4726TIP3    H235738   6.352   6.094   6.571  0.3070  1.8555 -1.2851
 4727TIP3   OH235739   3.476   6.562   8.207 -0.6261  0.1723 -0.0147
 4727TIP3    H135740   3.511   6.651   8.209  1.0652 -0.3637 -2.0108
 4727TIP3    H235741   3.412   6.563   8.136 -1.9995  0.2086  1.1783
 4728TIP3   OH235742   3.160   5.482   0.987  0.0302  0.1367  0.9658
 4728TIP3    H135743   3.110   5.526   0.919  0.3783 -2.1141 -0.8523
 4728TIP3    H235744   3.195   5.403   0.945  4.0158  0.8410  2.4599
 4729TIP3   OH235745   4.848   3.383   7.426 -0.0271  0.3448 -0.1500
 4729TIP3    H135746   4.754   3.395   7.410 -0.2802 -0.0939  0.8679
 4729TIP3    H235747   4.865   3.432   7.506  0.6763  0.6270 -0.4638
 4730TIP3   OH235748   0.436   5.646   0.453 -0.0209  0.1578 -0.5186
 4730TIP3    H135749   0.477   5.632   0.538  0.1251 -0.7598 -0.7259
 4730TIP3    H235750   0.509   5.647   0.391 -0.2642 -1.1790 -0.8520
 4731TIP3   OH235751   4.652   5.661   2.252  0.1183 -0.3998  0.1078
 4731TIP3    H135752   4.617   5.603   2.185 -2.1010 -0.9751  1.6291
 4731TIP3    H235753   4.705   5.604   2.308 -0.2784 -0.5201  0.3674
 4732TIP3   OH235754   5.868   6.194   0.214  0.4104  0.3857  0.7647
 4732TIP3    H135755   5.920   6.273   0.197  0.6632  0.2727  1.0081
 4732TIP3    H235756   5.777   6.222   0.200  0.5497  0.5168  0.0808
 4733TIP3   OH235757   4.826   6.337   7.071  0.0119 -0.0289 -0.0263
 4733TIP3    H135758   4.904   6.286   7.051  0.0709  0.3502 -0.7930
 4733TIP3    H235759   4.760   6.306   7.009  0.0478  0.8099 -0.5027
 4734TIP3   OH235760   5.159   4.513   7.126 -0.3548 -0.4446  0.4254
 4734TIP3    H135761   5.237   4.568   7.131 -0.7616  0.3690 -1.2574
 4734TIP3    H235762   5.093   4.570   7.086 -0.9661 -1.9451 -0.8045
 4735TIP3   OH235763   6.310   6.586   7.884 -0.1251 -0.2439  0.6500
 4735TIP3    H135764   6.357   6.633   7.816  2.0266 -0.6321  1.7673
 4735TIP3    H235765   6.359   6.605   7.965 -1.0144 -1.8849  1.6387
 4736TIP3   OH235766   1.589   2.737   8.366 -0.3199 -0.0100  0.4352
 4736TIP3    H135767   1.665   2.791   8.343 -0.4473  1.3683  2.9632
 4736TIP3    H235768   1.574   2.685   8.287  0.4886  2.8235 -1.8125
 4737TIP3   OH235769   4.979   3.400   0.045  0.1215 -0.6680 -0.0771
 4737TIP3    H135770   4.904   3.435  -0.002  0.1773 -0.6833 -0.1770
 4737TIP3    H235771   5.045   3.469   0.040  0.3917 -0.9624 -0.6605
 4738TIP3   OH235772   3.913   4.575   7.760 -0.0002 -0.0221 -0.1313
 4738TIP3    H135773   3.920   4.544   7.670  0.2461  0.3172 -0.2344
 4738TIP3    H235774   3.878   4.664   7.752  1.6301  0.6847 -0.0285
 4739TIP3   OH235775   6.232   2.547   7.883  0.1252  0.4713  0.3066
 4739TIP3    H135776   6.327   2.547   7.873  0.1040 -1.7087 -0.4172
 4739TIP3    H235777   6.218   2.555   7.977  1.0424  0.6693  0.4313
 4740TIP3   OH235778   5.153   2.806   6.425 -0.5932  0.8891 -0.0553
 4740TIP3    H135779   5.186   2.891   6.455 -0.9930  0.9006  0.3622
 4740TIP3    H235780   5.189   2.796   6.337  0.8752  0.7084  0.5384
 4741TIP3   OH235781   5.479   2.020   0.494  0.3561  0.3656  0.1219
 4741TIP3    H135782   5.545   2.033   0.562  1.5161  1.0506 -1.0889
 4741TIP3    H235783   5.471   1.925   0.485  2.0171  0.2463 -0.4661
 4742TIP3   OH235784   0.474   1.417   8.591 -0.0159  0.1541  0.2066
 4742TIP3    H135785   0.498   1.359   8.663 -2.2524  1.0770  1.8277
 4742TIP3    H235786   0.403   1.470   8.627 -0.1409  1.7528 -2.2121
 4743TIP3   OH235787   6.137   3.513   0.280  0.3258 -0.7596  0.3637
 4743TIP3    H135788   6.132   3.526   0.375  0.9355 -0.6920  0.3866
 4743TIP3    H235789   6.137   3.602   0.245  1.9017 -0.7331  0.3928
 4744TIP3   OH235790   1.664   2.935   0.742  0.3459  0.5588 -0.3525
 4744TIP3    H135791   1.757   2.939   0.716  0.7945  1.5594  1.2425
 4744TIP3    H235792   1.617   2.916   0.660  1.8853  0.8106 -1.3450
 4745TIP3   OH235793   2.673   4.526   8.037 -0.3977 -0.3204 -0.6335
 4745TIP3    H135794   2.654   4.549   8.128 -2.9756 -0.8121 -0.9503
 4745TIP3    H235795   2.598   4.473   8.010  0.4451 -0.4526 -2.9676
 4746TIP3   OH235796   6.682   4.362   7.198  0.0807  0.4090  0.7968
 4746TIP3    H135797   6.772   4.365   7.166 -0.4607  2.6870 -0.7743
 4746TIP3    H235798   6.632   4.328   7.123 -0.2238 -2.7344  2.2768
 4747TIP3   OH235799   3.472   0.623   7.720  0.0572  0.0408  0.3262
 4747TIP3    H135800   3.463   0.610   7.814 -1.4294  0.0565  0.2150
 4747TIP3    H235801   3.433   0.709   7.704 -1.4753 -0.7669 -0.5254
 4748TIP3   OH235802   5.834   0.655   8.104 -0.2741  0.4129  0.0666
 4748TIP3    H135803   5.794   0.730   8.147 -0.8387  0.4320 -0.4750
 4748TIP3    H235804   5.805   0.661   8.013 -1.3281 -1.1112  0.2542
 4749TIP3   OH235805   2.994   3.046   1.184  0.4040 -0.0226  0.2355
 4749TIP3    H135806   2.929   3.114   1.200  0.1654 -0.4620  1.1833
 4749TIP3    H235807   2.979   2.981   1.253  0.8407 -0.8790 -0.4466
 4750TIP3   OH235808   5.010   1.967   8.420  0.8053  0.4327  0.0981
 4750TIP3    H135809   5.046   1.989   8.506 -1.9288 -0.4546  1.6098
 4750TIP3    H235810   5.013   2.049   8.371 -0.6933  1.9387  2.3217
 4751TIP3   OH235811   0.827   4.619   6.386  0.2843 -0.0194  0.0123
 4751TIP3    H135812   0.826   4.576   6.301 -0.8463 -2.6712  1.2398
 4751TIP3    H235813   0.737   4.614   6.417  0.6344  1.0252  1.2926
 4752TIP3   OH235814   6.130   5.948   6.776 -0.0439  0.1576 -0.2021
 4752TIP3    H135815   6.086   5.949   6.861  1.2297  1.1201  0.4943
 4752TIP3    H235816   6.115   6.036   6.741  0.2393  0.0754 -0.5335
 4753TIP3   OH235817   3.829   1.848   8.738  0.0004 -0.8804 -0.0023
 4753TIP3    H135818   3.800   1.828   8.649 -0.7716 -1.0659  0.2862
 4753TIP3    H235819   3.868   1.766   8.768  1.4564 -0.4493 -0.6164
 4754TIP3   OH235820   6.603   5.552   8.656  0.6822  0.0309  0.0190
 4754TIP3    H135821   6.616   5.585   8.567  1.8307  0.2919  0.2658
 4754TIP3    H235822   6.532   5.489   8.648 -0.7828  1.6786 -0.6793
 4755TIP3   OH235823   5.438   0.386   6.451 -0.3997 -0.6950  0.4384
 4755TIP3    H135824   5.432   0.482   6.450 -2.8142 -0.7620 -0.3554
 4755TIP3    H235825   5.448   0.362   6.359  0.1533 -1.2212  0.6299
 4756TIP3   OH235826   4.684   6.240   8.357  0.5773  0.2779 -0.3432
 4756TIP3    H135827   4.602   6.256   8.404  1.2655  0.3653  0.8774
 4756TIP3    H235828   4.738   6.317   8.378  1.3243 -0.2506 -0.3032
 4757TIP3   OH235829   0.881   2.687   6.439  0.2965 -0.0047 -0.3293
 4757TIP3    H135830   0.855   2.596   6.448  0.4668 -0.1010 -0.7738
 4757TIP3    H235831   0.949   2.700   6.505 -0.8937  0.2647  0.8775
 4758TIP3   OH235832   1.844   3.914   0.198  0.5995  0.0854 -0.3588
 4758TIP3    H135833   1.790   3.993   0.203  0.4882  0.0833 -1.3667
 4758TIP3    H235834   1.886   3.909   0.284 -0.1632  0.6858  0.0656
 4759TIP3   OH235835   5.838   1.231   0.251  0.1681 -0.0407 -0.1859
 4759TIP3    H135836   5.887   1.194   0.178 -0.2506 -0.5890 -0.2015
 4759TIP3    H235837   5.898   1.292   0.293  0.3597  0.3803 -1.0688
 4760TIP3   OH235838   4.857   3.011   6.629  0.2596  0.2978 -0.6885
 4760TIP3    H135839   4.894   2.924   6.616 -1.3722 -0.8568  1.7043
 4760TIP3    H235840   4.762   2.997   6.629 -0.0170  1.9353  0.4011
 4761TIP3   OH235841   1.236   0.837   0.249  0.0115 -0.0875 -0.3262
 4761TIP3    H135842   1.288   0.866   0.174 -0.5980  1.4423 -0.1914
 4761TIP3    H235843   1.266   0.892   0.322 -0.3771 -0.6095  0.2406
 4762TIP3   OH235844   2.331   6.192   8.721  0.0053  0.2275  0.3430
 4762TIP3    H135845   2.394   6.217   8.789 -0.5131 -2.2466  1.9012
 4762TIP3    H235846   2.246   6.201   8.763 -0.4653  0.4130 -0.6233
 4763TIP3   OH235847   1.597   1.745   6.586  0.2423  0.4668  0.2367
 4763TIP3    H135848   1.625   1.765   6.497 -0.5924  1.7612  0.2384
 4763TIP3    H235849   1.679   1.724   6.632  0.6884 -0.1303 -0.7970
 4764TIP3   OH235850   6.039   5.133   6.688  0.1979  0.4036  0.6795
 4764TIP3    H135851   6.036   5.123   6.593  0.8722  0.6019  0.6354
 4764TIP3    H235852   5.971   5.073   6.720 -1.0908  1.4462  0.0144
 4765TIP3   OH235853   2.491   2.573   0.078  0.0238 -0.1156 -0.4321
 4765TIP3    H135854   2.447   2.658   0.085 -1.9383 -0.9873 -1.5369
 4765TIP3    H235855   2.540   2.565   0.160 -1.0218  1.3893  0.3902
 4766TIP3   OH235856   2.768   2.069   7.650 -0.1266  0.5796  0.1654
 4766TIP3    H135857   2.719   2.145   7.617 -1.8068 -0.9143 -0.9206
 4766TIP3    H235858   2.715   2.036   7.722  0.1333 -0.0811  0.0547
 4767TIP3   OH235859   6.124   5.889   7.134 -0.2028  0.1336 -0.2526
 4767TIP3    H135860   6.076   5.934   7.203 -0.6862  0.0184 -0.5051
 4767TIP3    H235861   6.056   5.854   7.077  0.1616  2.3983 -2.2313
 4768TIP3   OH235862   4.307   1.231   7.472  0.3012  0.2768 -0.0301
 4768TIP3    H135863   4.230   1.282   7.496  0.8665  1.0140  0.2559
 4768TIP3    H235864   4.356   1.221   7.553  0.3688 -0.4384 -0.1511
 4769TIP3   OH235865   3.039   6.320   7.767  0.2241 -0.8309  0.3032
 4769TIP3    H135866   3.044   6.231   7.803  1.0669 -1.6595 -1.7280
 4769TIP3    H235867   2.972   6.315   7.699  0.6448 -0.0576 -0.1910
 4770TIP3   OH235868   6.280   1.814   0.269  0.4503  0.2543 -0.5535
 4770TIP3    H135869   6.312   1.904   0.268  2.0421 -0.2803 -0.5176
 4770TIP3    H235870   6.321   1.774   0.346 -0.6344 -0.3837 -0.2729
 4771TIP3   OH235871   6.251   1.445   7.046  0.3992  0.3988 -0.4884
 4771TIP3    H135872   6.254   1.501   7.123 -0.6514 -0.8282  0.4835
 4771TIP3    H235873   6.319   1.380   7.061 -1.5946 -1.5048  0.7982
 4772TIP3   OH235874   2.796   2.051   0.531  0.4478 -0.5801  0.1590
 4772TIP3    H135875   2.827   1.973   0.486 -0.4428 -0.1264 -1.2905
 4772TIP3    H235876   2.734   2.019   0.596  1.3225 -1.1879  0.7261
 4773TIP3   OH235877   1.873   0.454   8.676  0.0589 -0.4847 -0.2924
 4773TIP3    H135878   1.880   0.365   8.710  1.2196 -0.3117 -0.0470
 4773TIP3    H235879   1.871   0.509   8.754 -1.6975 -0.3213 -0.3978
 4774TIP3   OH235880   5.435   1.746   0.424  1.0564 -0.8968  0.2525
 4774TIP3    H135881   5.373   1.675   0.436  0.0023 -0.1420 -0.5872
 4774TIP3    H235882   5.477   1.728   0.340  1.4524 -1.0043  0.4688
 4775TIP3   OH235883   0.963   0.341   7.001 -0.1867 -0.0338  0.3465
 4775TIP3    H135884   0.963   0.255   6.960  0.0248 -0.4089  1.1034
 4775TIP3    H235885   0.926   0.326   7.088 -1.1531  0.8412  0.1085
 4776TIP3   OH235886   3.495   0.095   7.868 -0.1771  0.6309  0.0433
 4776TIP3    H135887   3.409   0.053   7.876  0.3237 -0.8559 -1.8053
 4776TIP3    H235888   3.550   0.050   7.931  0.0319 -0.6752 -1.0394
 4777TIP3   OH235889   1.591   3.312   0.664  0.1799 -0.2219  0.1182
 4777TIP3    H135890   1.582   3.407   0.661 -0.1850 -0.2208 -3.4755
 4777TIP3    H235891   1.520   3.283   0.722 -0.9418  1.6105 -0.2609
 4778TIP3   OH235892   5.328   0.686   8.738  0.3325  0.0211  0.0609
 4778TIP3    H135893   5.312   0.651   8.650  2.2056 -0.0729 -0.2673
 4778TIP3    H235894   5.309   0.613   8.796  0.1800 -0.2597 -0.3364
 4779TIP3   OH235895   0.615   6.776   1.420  0.2759 -0.1076 -0.3178
 4779TIP3    H135896   0.672   6.767   1.497  1.0283 -0.6306 -0.9149
 4779TIP3    H235897   0.674   6.763   1.345 -0.2723  1.2484 -1.0193
 4780TIP3   OH235898   6.795   0.507   6.460  0.0436  0.2265 -0.2823
 4780TIP3    H135899   6.754   0.421   6.473  1.0306 -0.0620  1.3048
 4780TIP3    H235900   6.790   0.548   6.546  2.7057  0.3008 -0.0846
 4781TIP3   OH235901   0.820   6.130   8.010 -0.4060  0.0995 -0.1572
 4781TIP3    H135902   0.736   6.143   7.966 -0.7911 -0.7079  0.3182
 4781TIP3    H235903   0.799   6.076   8.087  0.6845 -0.9006 -0.5325
 4782TIP3   OH235904   6.474   3.948   1.876  0.7075 -0.1884  0.1615
 4782TIP3    H135905   6.530   3.974   1.803  0.4606  1.0880  0.3949
 4782TIP3    H235906   6.533   3.940   1.950  1.1347 -2.5542 -0.3515
 4783TIP3   OH235907   2.437   1.654   8.370 -0.6168 -0.2593  0.0156
 4783TIP3    H135908   2.384   1.580   8.398  2.7151 -2.3975  1.3847
 4783TIP3    H235909   2.470   1.629   8.284 -1.6309  0.9761 -0.7634
 4784TIP3   OH235910   2.891   1.363   6.243 -0.6502 -0.1922  0.3623
 4784TIP3    H135911   2.908   1.304   6.316  1.7230  0.2647  0.2379
 4784TIP3    H235912   2.885   1.450   6.283  1.8834  0.2347 -0.0096
 4785TIP3   OH235913   6.390   3.808   0.362 -0.2184 -0.3668 -0.1847
 4785TIP3    H135914   6.313   3.790   0.416  0.1970 -2.9340 -0.2976
 4785TIP3    H235915   6.380   3.899   0.335 -3.2698 -0.6180 -0.2714
 4786TIP3   OH235916   5.394   3.716   1.134 -0.4240  0.3574 -0.4614
 4786TIP3    H135917   5.364   3.804   1.111  0.1923  0.2414 -1.8065
 4786TIP3    H235918   5.433   3.683   1.054  2.2658  0.0549  0.8800
 4787TIP3   OH235919   2.237   2.446   7.630 -0.0462  0.1495 -0.1223
 4787TIP3    H135920   2.274   2.358   7.622  1.2222  0.4568  1.7857
 4787TIP3    H235921   2.288   2.487   7.699 -1.0166  2.2008 -0.5653
 4788TIP3   OH235922   3.146   5.254   0.241  0.0538 -0.1034 -0.5879
 4788TIP3    H135923   3.140   5.332   0.186 -0.4045  0.5913  0.4157
 4788TIP3    H235924   3.239   5.231   0.240  0.4780  1.4014  0.3539
 4789TIP3   OH235925   1.303   3.864   7.582 -0.7582 -0.0180 -0.2742
 4789TIP3    H135926   1.260   3.849   7.498  1.1643 -0.7946 -1.1696
 4789TIP3    H235927   1.337   3.953   7.577 -1.7220  0.4031  0.2284
 4790TIP3   OH235928   0.028   2.432   7.825 -0.0490  0.3615 -0.4798
 4790TIP3    H135929   0.004   2.456   7.735  1.6991  3.9563 -0.1538
 4790TIP3    H235930   0.019   2.513   7.874 -0.3320 -1.3547  2.5400
 4791TIP3   OH235931   6.374   6.758   1.341 -0.1921  0.3378  0.0405
 4791TIP3    H135932   6.385   6.816   1.266 -0.9787 -1.0052 -1.1738
 4791TIP3    H235933   6.283   6.770   1.368 -0.9983 -1.7005 -1.5050
 4792TIP3   OH235934   4.460   6.482   8.734 -0.1421  0.5812 -0.1511
 4792TIP3    H135935   4.552   6.503   8.719  0.5094 -1.7791  0.2738
 4792TIP3    H235936   4.450   6.487   8.829 -0.0593 -0.6339 -0.0736
 4793TIP3   OH235937   4.315   6.322   8.258  0.6864 -0.1685  0.3206
 4793TIP3    H135938   4.368   6.247   8.285 -1.0850 -1.4023  0.5519
 4793TIP3    H235939   4.244   6.284   8.207 -0.3493  1.3324  0.5676
 4794TIP3   OH235940   4.921   4.747   1.893  0.0486  0.0824 -0.5169
 4794TIP3    H135941   4.981   4.787   1.956 -0.4198 -0.2741  0.1791
 4794TIP3    H235942   4.917   4.809   1.820  0.6428  0.4821 -0.2158
 4795TIP3   OH235943   5.870   2.172   8.147 -0.3777  0.1641  0.1428
 4795TIP3    H135944   5.921   2.235   8.198 -2.1773 -0.0330  2.3463
 4795TIP3    H235945   5.923   2.093   8.148 -1.0755 -0.4325  3.4801
 4796TIP3   OH235946   2.889   3.884   1.592 -0.2272  0.0340  0.1927
 4796TIP3    H135947   2.979   3.880   1.561 -0.3665  1.6706 -0.5240
 4796TIP3    H235948   2.885   3.819   1.662  1.2802 -0.6375 -0.2975
 4797TIP3   OH235949   2.420   5.127   7.143  0.5722 -0.7354  0.2041
 4797TIP3    H135950   2.357   5.126   7.216 -1.4954 -2.1651 -1.4661
 4797TIP3    H235951   2.479   5.054   7.161  1.0451 -0.1443  1.1686
 4798TIP3   OH235952   2.170   4.515   7.896 -0.3578 -0.1090 -0.2497
 4798TIP3    H135953   2.107   4.484   7.960  2.2846 -1.1825  2.0655
 4798TIP3    H235954   2.202   4.598   7.932 -0.0657  0.1536 -1.0900
 4799TIP3   OH235955   2.428   1.701   0.810  0.1108 -0.3588 -0.0375
 4799TIP3    H135956   2.514   1.658   0.813  0.3137 -0.1007 -1.6312
 4799TIP3    H235957   2.383   1.659   0.737 -0.0297  1.4553 -1.0539
 4800TIP3   OH235958   4.731   4.704   0.335  0.8862 -0.0236  0.4291
 4800TIP3    H135959   4.745   4.610   0.327 -1.0021 -0.4765  1.8051
 4800TIP3    H235960   4.693   4.729   0.251  2.0103 -0.3407 -0.1905
 4801TIP3   OH235961   4.669   1.457   7.986 -0.2387  0.1461  0.1313
 4801TIP3    H135962   4.646   1.499   8.069  0.8847 -0.5371  0.8187
 4801TIP3    H235963   4.606   1.492   7.923 -0.0681  1.9568  0.9030
 4802TIP3   OH235964   5.773   2.433   7.434 -0.3164  0.1282  0.3766
 4802TIP3    H135965   5.712   2.470   7.370 -1.1409 -2.0596 -0.1571
 4802TIP3    H235966   5.775   2.340   7.415  0.2644 -0.4318  2.8542
 4803TIP3   OH235967   3.143   1.247   0.040 -0.1253  0.3246  0.0214
 4803TIP3    H135968   3.221   1.242   0.096 -0.7665 -0.9388  0.8502
 4803TIP3    H235969   3.144   1.165  -0.009 -1.7820 -0.4960  1.2623
 4804TIP3   OH235970   1.628   1.246   1.979  0.2793  0.1264 -0.4879
 4804TIP3    H135971   1.662   1.159   1.998  2.4318  1.7721  5.1296
 4804TIP3    H235972   1.688   1.281   1.914  2.0370 -1.1849  0.3425
 4805TIP3   OH235973   3.384   3.400   8.531 -0.3508  0.8133  0.3184
 4805TIP3    H135974   3.472   3.395   8.567 -1.1421 -0.4635  2.2362
 4805TIP3    H235975   3.337   3.459   8.590 -1.2462  0.0066  0.4474
 4806TIP3   OH235976   2.937   5.778   2.514 -0.1609  0.4935  0.4015
 4806TIP3    H135977   2.873   5.743   2.453  0.0055  0.1973  0.3950
 4806TIP3    H235978   2.978   5.851   2.467 -1.2962  1.4443  0.8250
 4807TIP3   OH235979   1.615   3.484   6.603  0.5789 -0.5806  0.9015
 4807TIP3    H135980   1.691   3.540   6.589  0.5676 -0.4695  1.2873
 4807TIP3    H235981   1.613   3.427   6.526  0.0921  0.5215  0.0645
 4808TIP3   OH235982   6.792   6.699   0.673 -0.4813  0.1857 -0.6769
 4808TIP3    H135983   6.852   6.766   0.641  0.0375 -0.1067 -0.3406
 4808TIP3    H235984   6.740   6.674   0.597 -1.8538  2.1594 -0.4473
 4809TIP3   OH235985   3.026   1.756   0.599 -0.6874  0.1639  0.0012
 4809TIP3    H135986   3.112   1.798   0.598 -1.5347  1.9669 -0.4921
 4809TIP3    H235987   3.029   1.697   0.675 -0.1842  2.8015  2.1900
 4810TIP3   OH235988   3.469   1.636   0.897  0.2982  0.0359 -0.2814
 4810TIP3    H135989   3.457   1.567   0.962 -0.7193  0.3804 -0.0773
 4810TIP3    H235990   3.522   1.702   0.942  1.2856 -0.6087 -0.4846
 4811TIP3   OH235991   3.002   5.641   7.959 -0.0234  0.1664 -0.7931
 4811TIP3    H135992   2.951   5.573   8.004 -0.2434  0.7583 -0.1247
 4811TIP3    H235993   3.082   5.649   8.011 -0.1679  0.6824 -0.6447
 4812TIP3   OH235994   5.981   3.865   6.862  0.2054 -0.0983  0.0357
 4812TIP3    H135995   5.988   3.928   6.790  1.3248 -0.0949  0.1262
 4812TIP3    H235996   5.968   3.780   6.818 -1.6159  0.2091 -0.0746
 4813TIP3   OH235997   3.277   1.367   6.255 -0.5150  0.1087  0.0916
 4813TIP3    H135998   3.251   1.276   6.269  0.0229 -0.1776 -0.6943
 4813TIP3    H235999   3.241   1.415   6.330  0.5791 -0.9939  1.3559
 4814TIP3   OH236000   4.767   0.377   0.561 -0.4400  0.1744 -0.2685
 4814TIP3    H136001   4.713   0.324   0.503  0.6598  1.6341 -2.7824
 4814TIP3    H236002   4.854   0.338   0.556 -0.4109  0.0801  0.7565
 4815TIP3   OH236003   5.603   5.340   0.855  0.1132 -0.1659 -0.0268
 4815TIP3    H136004   5.520   5.379   0.885  0.4214 -0.3908  1.1781
 4815TIP3    H236005   5.660   5.344   0.932  0.8840 -0.9439 -0.5443
 4816TIP3   OH236006   3.582   2.171   0.958 -0.0445 -0.2220 -0.2436
 4816TIP3    H136007   3.640   2.243   0.984 -0.0705 -0.7395  1.4019
 4816TIP3    H236008   3.591   2.165   0.863  0.8999  1.1442 -0.2607
 4817TIP3   OH236009   4.692   5.843   6.385 -0.0343 -0.2010  0.5239
 4817TIP3    H136010   4.717   5.766   6.435  0.8467  0.3974  1.0181
 4817TIP3    H236011   4.660   5.905   6.451 -1.7085 -0.4963  0.0345
 4818TIP3   OH236012   6.017   2.953   8.002 -0.7023 -0.4298 -0.4843
 4818TIP3    H136013   6.018   2.875   7.946 -0.3687  0.2304 -1.4146
 4818TIP3    H236014   6.099   2.948   8.051 -0.7718 -0.7658 -0.4011
 4819TIP3   OH236015   2.066   6.128   0.336 -0.2689 -0.1969  1.0162
 4819TIP3    H136016   2.040   6.172   0.255  1.1527 -0.3293  0.4442
 4819TIP3    H236017   2.072   6.035   0.312 -1.4126 -0.4606  1.7150
 4820TIP3   OH236018   1.321   6.242   7.157  0.6087  0.3306  0.3766
 4820TIP3    H136019   1.340   6.165   7.105  1.9933  1.2697 -0.5738
 4820TIP3    H236020   1.404   6.290   7.161 -0.2706  1.8959  0.7246
 4821TIP3   OH236021   2.987   0.449   7.552 -0.4610  0.1328 -0.2431
 4821TIP3    H136022   3.009   0.441   7.645 -1.6215  0.1149  0.0336
 4821TIP3    H236023   3.022   0.369   7.513  3.8226  1.8930 -0.6301
 4822TIP3   OH236024   2.909   0.983   1.470 -0.0252 -0.6059 -1.0567
 4822TIP3    H136025   2.839   0.971   1.405 -0.9641  0.6378 -0.3148
 4822TIP3    H236026   2.881   1.058   1.521  1.2230 -0.9216  0.1313
 4823TIP3   OH236027   5.543   2.801   8.662  0.4160  0.3598 -0.2587
 4823TIP3    H136028   5.527   2.866   8.593  1.3141 -0.0578 -0.8774
 4823TIP3    H236029   5.458   2.759   8.675  0.1650  0.6563 -0.8933
 4824TIP3   OH236030   6.168   5.582   0.888  0.3629 -0.2416  0.5454
 4824TIP3    H136031   6.262   5.589   0.908  1.5063 -1.7110 -3.4004
 4824TIP3    H236032   6.145   5.492   0.911  0.7760 -0.8212 -1.1562
 4825TIP3   OH236033   3.635   5.716   1.346  0.2254  0.3353 -0.2730
 4825TIP3    H136034   3.542   5.718   1.322  0.0786  0.5675  0.2983
 4825TIP3    H236035   3.643   5.637   1.400  0.3856  0.2538 -0.4169
 4826TIP3   OH236036   2.275   3.478   1.332 -0.5934  0.0546  0.0840
 4826TIP3    H136037   2.270   3.441   1.244 -1.6537  1.0423 -0.3014
 4826TIP3    H236038   2.189   3.518   1.346 -1.1897 -1.7937  2.3758
 4827TIP3   OH236039   4.948   3.450   8.135 -0.1698  0.2720 -0.2039
 4827TIP3    H136040   4.882   3.493   8.081 -0.6909  0.8772  0.8878
 4827TIP3    H236041   4.901   3.419   8.212  0.4803 -0.9675 -0.2821
 4828TIP3   OH236042   1.522   0.420   1.254 -0.0484  0.2194 -0.2210
 4828TIP3    H136043   1.583   0.460   1.191 -0.0783  0.4074 -0.1309
 4828TIP3    H236044   1.560   0.440   1.340 -1.5551  2.6033 -0.0130
 4829TIP3   OH236045   5.661   4.219   6.493 -0.2475 -0.6750  0.0653
 4829TIP3    H136046   5.747   4.251   6.467  0.5379 -0.8054  2.3182
 4829TIP3    H236047   5.677   4.131   6.529 -1.2150 -0.4688  1.0690
 4830TIP3   OH236048   6.280   1.787   6.848  0.7610  0.1028 -0.0865
 4830TIP3    H136049   6.241   1.849   6.787 -1.5267 -1.0749  0.0752
 4830TIP3    H236050   6.280   1.704   6.801  1.9575 -0.2028  0.4071
 4831TIP3   OH236051   5.438   5.519   7.861  0.7719 -0.0817 -0.0798
 4831TIP3    H136052   5.438   5.438   7.912  1.0655 -1.6124 -2.3476
 4831TIP3    H236053   5.527   5.524   7.825  0.2931  0.3782 -1.2309
 4832TIP3   OH236054   5.267   6.732   1.252 -0.5687  0.1263  0.1292
 4832TIP3    H136055   5.265   6.643   1.286 -0.2208 -0.1141 -0.4681
 4832TIP3    H236056   5.320   6.727   1.172 -0.6315  0.8450  0.0296
 4833TIP3   OH236057   3.444   0.096   7.115  0.2339 -0.0651  0.2790
 4833TIP3    H136058   3.464   0.074   7.206  0.2607 -1.8179 -0.1153
 4833TIP3    H236059   3.468   0.018   7.065 -0.2436  0.6756 -1.1886
 4834TIP3   OH236060   5.011   5.482   7.774 -0.1991  0.3518 -0.1824
 4834TIP3    H136061   5.088   5.498   7.829  0.3046 -1.4051 -0.3107
 4834TIP3    H236062   5.042   5.421   7.707 -2.1190 -1.9141  0.8576
 4835TIP3   OH236063   3.953   5.501   7.406  0.3122 -0.1523  0.7490
 4835TIP3    H136064   4.011   5.473   7.335 -0.8889  0.0057 -0.3516
 4835TIP3    H236065   3.957   5.430   7.470 -1.5259 -2.2926 -1.2869
 4836TIP3   OH236066   0.272   4.593   8.080  0.1360  0.3310  0.4687
 4836TIP3    H136067   0.199   4.637   8.123 -0.6502  0.0436 -0.5327
 4836TIP3    H236068   0.305   4.657   8.017 -0.2429 -0.0816 -0.1552
 4837TIP3   OH236069   3.732   0.805   1.863  0.3597 -0.0173  0.2438
 4837TIP3    H136070   3.662   0.863   1.891 -0.1461 -0.4725 -0.0457
 4837TIP3    H236071   3.687   0.729   1.826  1.0058 -0.3289  0.0720
 4838TIP3   OH236072   3.504   3.923   6.739  0.5528 -0.0706 -0.4031
 4838TIP3    H136073   3.578   3.983   6.730  1.9103 -1.5641  0.4295
 4838TIP3    H236074   3.501   3.877   6.655  0.0542  0.5228 -0.7219
 4839TIP3   OH236075   2.917   5.065   0.062  0.1761 -0.7057 -0.2687
 4839TIP3    H136076   2.835   5.113   0.074 -0.3323 -1.4833 -0.5499
 4839TIP3    H236077   2.983   5.119   0.106 -0.3370  0.3478 -0.7565
 4840TIP3   OH236078   5.949   3.067   8.758  0.2584  0.5340 -0.0468
 4840TIP3    H136079   6.031   3.035   8.722 -0.9789 -2.6575 -0.4182
 4840TIP3    H236080   5.969   3.089   8.849  1.6020  0.2284 -0.2592
 4841TIP3   OH236081   0.821   5.016   0.162 -0.3443 -0.1944 -0.6210
 4841TIP3    H136082   0.743   5.010   0.218 -0.7785 -0.4979 -1.2591
 4841TIP3    H236083   0.853   5.105   0.177 -0.5633 -0.2049 -0.0341
 4842TIP3   OH236084   5.138   6.035   0.918  0.3893 -0.0234 -0.3261
 4842TIP3    H136085   5.159   6.092   0.843 -0.3785  0.5583 -0.1097
 4842TIP3    H236086   5.223   6.009   0.952  0.7721 -0.8068 -1.7729
 4843TIP3   OH236087   6.378   1.289   7.832  0.4655 -0.3936  0.2392
 4843TIP3    H136088   6.416   1.303   7.745  1.2456 -1.9049  0.3151
 4843TIP3    H236089   6.309   1.355   7.838 -0.0480 -0.6726 -1.7950
 4844TIP3   OH236090   1.961   6.337   6.679 -0.2939 -0.0075  0.3984
 4844TIP3    H136091   1.983   6.283   6.603  0.0124 -0.2563  0.6614
 4844TIP3    H236092   1.865   6.334   6.683 -0.2587 -2.3466  1.6715
 4845TIP3   OH236093   3.447   0.500   0.869 -0.3148 -0.3227  0.3261
 4845TIP3    H136094   3.536   0.496   0.834 -0.0399 -1.4594  1.1002
 4845TIP3    H236095   3.398   0.553   0.805  0.5110 -1.0995 -0.9903
 4846TIP3   OH236096   3.389   6.228   7.804 -0.3594 -0.5727 -0.7594
 4846TIP3    H136097   3.356   6.239   7.714  0.3152 -0.6053 -1.0128
 4846TIP3    H236098   3.326   6.276   7.858 -0.0482  0.5869 -1.3900
 4847TIP3   OH236099   4.275   3.939   6.314 -0.2617 -0.0286  0.3105
 4847TIP3    H136100   4.188   3.965   6.343 -0.8037  0.4287 -1.6194
 4847TIP3    H236101   4.329   4.017   6.327 -0.6035  0.3190 -0.3464
 4848TIP3   OH236102   2.015   3.141   0.936  0.1350  0.3322 -0.2554
 4848TIP3    H136103   1.927   3.176   0.933  0.1242  0.5273  1.3777
 4848TIP3    H236104   2.003   3.046   0.944  0.1090  0.2456 -1.2143
 4849TIP3   OH236105   0.092   4.769   7.720  0.0385  0.3074 -0.1047
 4849TIP3    H136106   0.175   4.740   7.758 -0.2915 -1.0543 -0.3500
 4849TIP3    H236107   0.117   4.821   7.644  0.6757 -0.1403 -0.2149
 4850TIP3   OH236108   1.635   6.072   1.929 -0.1397  0.2133  0.4374
 4850TIP3    H136109   1.618   6.155   1.883  0.5915 -0.0814 -0.3937
 4850TIP3    H236110   1.584   6.078   2.010 -0.1647  1.4396  0.3449
 4851TIP3   OH236111   0.123   2.247   2.220 -0.7185  0.4622  0.4334
 4851TIP3    H136112   0.154   2.178   2.278  1.9039 -0.1152 -1.4508
 4851TIP3    H236113   0.160   2.327   2.257  1.3280  0.0431 -0.5734
 4852TIP3   OH236114   0.452   0.979   7.462  0.4145  0.5009  0.4004
 4852TIP3    H136115   0.475   0.897   7.507  0.5110 -0.7165 -1.7278
 4852TIP3    H236116   0.360   0.969   7.439 -0.0581  1.7723  1.6033
 4853TIP3   OH236117   1.882   0.610   0.048  0.3171  0.3792 -1.0106
 4853TIP3    H136118   1.858   0.629   0.139  2.6760 -1.0739  0.0158
 4853TIP3    H236119   1.976   0.627   0.043  0.5630 -1.1124 -2.7188
 4854TIP3   OH236120   5.045   2.509   0.776  0.1390 -0.4699  0.0213
 4854TIP3    H136121   5.099   2.459   0.837  2.5149  1.3579 -0.4326
 4854TIP3    H236122   5.071   2.478   0.689 -0.7168 -0.6432 -0.1883
 4855TIP3   OH236123   4.882   1.327   1.546 -0.3399  0.5250 -0.0819
 4855TIP3    H136124   4.960   1.373   1.577  0.1752  0.2532 -0.9373
 4855TIP3    H236125   4.825   1.322   1.622  0.7214  0.2103  0.7073
 4856TIP3   OH236126   2.115   2.060   1.026  0.4474 -0.0276  0.2015
 4856TIP3    H136127   2.200   2.041   0.987  1.4731  0.5152  2.0531
 4856TIP3    H236128   2.120   2.022   1.113 -1.2928 -0.1214  0.2908
 4857TIP3   OH236129   1.021   2.799   8.054  0.3714  0.0281 -0.5723
 4857TIP3    H136130   1.035   2.806   8.149 -1.0289 -1.2062 -0.2517
 4857TIP3    H236131   0.933   2.832   8.040  0.7943  0.8135 -1.5715
 4858TIP3   OH236132   0.118   4.329   7.031 -0.2228  0.5678  0.5359
 4858TIP3    H136133   0.176   4.405   7.030  1.0267 -0.2950 -2.3391
 4858TIP3    H236134   0.165   4.264   7.083 -1.1702  1.5419  2.7666
 4859TIP3   OH236135   0.153   5.803   7.244 -0.2637 -0.4685 -0.5221
 4859TIP3    H136136   0.179   5.891   7.271  0.8449 -0.7223 -0.7288
 4859TIP3    H236137   0.172   5.799   7.150 -1.8971 -0.3775 -0.8874
 4860TIP3   OH236138   5.730   4.183   6.825 -0.0611 -0.1007  0.3813
 4860TIP3    H136139   5.716   4.152   6.914 -1.6202 -0.8934 -0.1031
 4860TIP3    H236140   5.803   4.244   6.832 -0.2458 -0.0370  2.2155
 4861TIP3   OH236141   5.055   0.271   1.497 -0.4991 -0.2749 -0.0990
 4861TIP3    H136142   5.060   0.366   1.500 -0.3467 -0.2684 -0.4075
 4861TIP3    H236143   5.064   0.250   1.404  0.3319 -0.6298  0.0459
 4862TIP3   OH236144   0.016   4.563   8.661  0.0809  0.6266 -0.6733
 4862TIP3    H136145   0.004   4.532   8.571  0.2877 -0.0178 -0.4863
 4862TIP3    H236146  -0.055   4.522   8.710 -0.4109  1.4740 -0.6441
 4863TIP3   OH236147   2.298   6.222   1.499 -0.0961 -0.0478 -0.2317
 4863TIP3    H136148   2.331   6.308   1.470  0.5093 -1.6788 -5.4056
 4863TIP3    H236149   2.215   6.212   1.452  0.0669 -2.4100 -0.1256
 4864TIP3   OH236150   1.088   1.305   7.619 -0.3730 -0.0527 -0.5431
 4864TIP3    H136151   1.136   1.222   7.629 -0.1499  0.1875  0.5308
 4864TIP3    H236152   1.069   1.310   7.526 -0.1402 -1.1805 -0.6722
 4865TIP3   OH236153   5.816   5.122   2.260 -0.5102  0.3294  0.4742
 4865TIP3    H136154   5.900   5.120   2.214 -0.7422 -1.0178  0.0712
 4865TIP3    H236155   5.754   5.154   2.195 -0.6423 -0.5448  0.1511
 4866TIP3   OH236156   4.122   2.533   7.052 -0.0356  0.0038 -0.0829
 4866TIP3    H136157   4.164   2.589   6.987  1.0667  2.3963  2.4980
 4866TIP3    H236158   4.177   2.454   7.055 -0.4795 -0.4684 -2.3828
 4867TIP3   OH236159   6.284   0.559   1.631 -0.5100 -0.1347 -0.0585
 4867TIP3    H136160   6.230   0.599   1.562 -1.5315  0.6507  1.1352
 4867TIP3    H236161   6.290   0.467   1.607  0.5828  0.4134 -2.0651
 4868TIP3   OH236162   4.172   1.182   6.592  0.7138 -0.3379  0.4005
 4868TIP3    H136163   4.190   1.263   6.640 -0.6546 -0.5315  1.2825
 4868TIP3    H236164   4.151   1.211   6.504  1.0394  0.2042  0.4964
 4869TIP3   OH236165   3.608   4.672   8.427  0.5006  0.3881 -0.0463
 4869TIP3    H136166   3.648   4.740   8.481  3.3257  0.1726 -1.6879
 4869TIP3    H236167   3.586   4.715   8.345  1.4744 -0.4405 -0.7648
 4870TIP3   OH236168   6.390   6.677   8.669 -0.0792 -0.2407  0.9195
 4870TIP3    H136169   6.434   6.758   8.693 -0.4611 -0.2797  1.7737
 4870TIP3    H236170   6.297   6.700   8.662 -0.0388 -0.3260 -0.1184
 4871TIP3   OH236171   5.164   2.591   6.760 -0.2214 -0.7193  0.4624
 4871TIP3    H136172   5.232   2.556   6.817  0.0698 -0.5957  0.1978
 4871TIP3    H236173   5.212   2.646   6.697 -0.6385 -0.0770  0.6985
 4872TIP3   OH236174   6.578   0.287   2.045 -0.1703  0.3513 -0.4312
 4872TIP3    H136175   6.581   0.309   1.952  0.0984 -1.2793 -0.8365
 4872TIP3    H236176   6.654   0.230   2.058 -1.5056 -1.3753  0.2419
 4873TIP3   OH236177   5.570   2.951   0.061 -0.2669 -0.0066 -0.0905
 4873TIP3    H136178   5.633   2.880   0.074 -0.6212 -0.7475 -2.0897
 4873TIP3    H236179   5.533   2.935  -0.026 -1.2034  1.9852 -0.1167
 4874TIP3   OH236180   0.699   5.347   7.014 -0.1019  0.1270  0.7382
 4874TIP3    H136181   0.700   5.415   6.946 -0.8229 -0.3375  0.2551
 4874TIP3    H236182   0.623   5.293   6.993  1.2627 -1.7097  0.2252
 4875TIP3   OH236183   3.094   1.653   0.887  0.0494  0.2390  0.3936
 4875TIP3    H136184   3.176   1.702   0.894 -0.1453  0.7217 -0.5690
 4875TIP3    H236185   3.082   1.614   0.974  1.0541  0.5464  0.6806
 4876TIP3   OH236186   0.162   1.963   7.748 -0.4343  0.4397  0.3162
 4876TIP3    H136187   0.091   2.027   7.745 -1.6797 -0.7799  1.6730
 4876TIP3    H236188   0.123   1.883   7.712  1.9544  1.0290 -4.2616
 4877TIP3   OH236189   4.108   2.055   0.485  0.0811  0.0102 -0.3647
 4877TIP3    H136190   4.101   1.969   0.527 -0.2835 -0.2469 -0.9351
 4877TIP3    H236191   4.017   2.079   0.465 -0.1312  1.8138  2.2847
 4878TIP3   OH236192   2.410   0.560   1.604  0.1138  0.3407 -0.0256
 4878TIP3    H136193   2.372   0.643   1.632 -0.3173  0.7340 -1.6558
 4878TIP3    H236194   2.407   0.504   1.681 -0.5922  1.4901  0.7980
 4879TIP3   OH236195   4.940   5.192   1.813 -0.2319  0.2675 -0.6114
 4879TIP3    H136196   4.863   5.240   1.842 -0.6070 -1.3020  1.1875
 4879TIP3    H236197   4.958   5.225   1.725 -2.0634  1.7085 -0.4859
 4880TIP3   OH236198   1.385   5.479   0.926  0.1694  0.2123 -0.3693
 4880TIP3    H136199   1.382   5.501   1.019 -0.1945  0.0698 -0.3468
 4880TIP3    H236200   1.297   5.447   0.906  0.8289 -1.8135 -0.2455
 4881TIP3   OH236201   1.192   2.288   6.670 -0.1749  0.1925 -0.5963
 4881TIP3    H136202   1.113   2.297   6.616 -1.9577  0.0811  1.8532
 4881TIP3    H236203   1.191   2.196   6.698  0.9629  0.1413 -0.6616
 4882TIP3   OH236204   2.471   3.080   0.092  0.5773  0.3569  0.0253
 4882TIP3    H136205   2.391   3.104   0.139  0.2663  1.3480 -0.9570
 4882TIP3    H236206   2.514   3.016   0.149 -0.7363  0.0597  0.7283
 4883TIP3   OH236207   3.829   5.750   1.160  0.1239 -0.2798  0.1678
 4883TIP3    H136208   3.777   5.725   1.083 -0.0726 -1.1729  0.5687
 4883TIP3    H236209   3.773   5.729   1.235 -1.2744  4.0665  0.6108
 4884TIP3   OH236210   6.506   6.575   1.896 -0.3014 -0.0224  0.0881
 4884TIP3    H136211   6.594   6.579   1.935  1.4830 -2.3708 -3.2198
 4884TIP3    H236212   6.494   6.662   1.858  1.3945 -0.1606 -0.8704
 4885TIP3   OH236213   5.560   4.321   0.966 -0.2077 -1.1313 -0.0171
 4885TIP3    H136214   5.498   4.359   1.028 -0.5690 -1.3862 -0.2214
 4885TIP3    H236215   5.567   4.230   0.992  2.1988 -0.5354  1.7454
 4886TIP3   OH236216   6.102   0.175   0.095  0.2250 -0.1838  0.5925
 4886TIP3    H136217   6.015   0.163   0.133 -0.2610  0.0616 -0.3896
 4886TIP3    H236218   6.109   0.106   0.029 -0.1240  1.1041 -0.8474
 4887TIP3   OH236219   1.998   3.097   2.287  0.4921 -0.2949 -0.2567
 4887TIP3    H136220   1.919   3.142   2.317  0.0830 -0.9894 -0.2758
 4887TIP3    H236221   1.973   3.057   2.204  1.3260  0.7748 -1.0570
 4888TIP3   OH236222   4.950   2.733   8.601 -0.2473  0.1185 -0.2096
 4888TIP3    H136223   4.857   2.724   8.580 -0.5053  2.5741 -0.3952
 4888TIP3    H236224   4.974   2.818   8.565  2.3109 -0.7987 -0.8899
 4889TIP3   OH236225   4.470   0.681   8.589  0.1838 -0.0923 -0.5006
 4889TIP3    H136226   4.465   0.733   8.508 -1.1257  1.2241  0.3835
 4889TIP3    H236227   4.420   0.602   8.569  1.0250 -0.4270 -1.4027
 4890TIP3   OH236228   2.579   0.787   0.422 -0.5562 -0.1883 -0.0414
 4890TIP3    H136229   2.492   0.769   0.385  0.2191 -0.5302 -1.7857
 4890TIP3    H236230   2.608   0.867   0.378  0.9443 -1.3351 -1.2305
 4891TIP3   OH236231   2.925   1.188   6.756 -0.4633 -0.3374  0.0089
 4891TIP3    H136232   2.895   1.125   6.690  0.8299  0.5400 -1.4787
 4891TIP3    H236233   3.007   1.222   6.721  0.9622 -0.7328  2.6684
 4892TIP3   OH236234   0.743   6.120   1.300 -0.9613 -0.0280 -0.9711
 4892TIP3    H136235   0.718   6.028   1.301 -0.1115 -0.3026  1.7171
 4892TIP3    H236236   0.661   6.167   1.313 -1.2833 -0.4144 -1.5240
 4893TIP3   OH236237   0.737   5.224   7.835  0.2117 -1.0432 -0.1907
 4893TIP3    H136238   0.661   5.166   7.839 -2.4597  2.1636  3.2651
 4893TIP3    H236239   0.706   5.300   7.786  0.6613  0.8312  2.2849
 4894TIP3   OH236240   5.257   3.065   1.271  0.5686 -0.0588  0.1796
 4894TIP3    H136241   5.163   3.057   1.289  0.8271 -0.3841  1.4281
 4894TIP3    H236242   5.299   3.065   1.357  1.7632 -0.5065 -0.3745
 4895TIP3   OH236243   0.890   6.681   8.274 -0.2957  0.0205 -0.7417
 4895TIP3    H136244   0.935   6.699   8.192  0.3752  0.0010 -0.3844
 4895TIP3    H236245   0.838   6.602   8.256  0.4397 -0.4280 -0.9274
 4896TIP3   OH236246   6.063   5.428   8.575 -0.2885 -0.0633 -0.2768
 4896TIP3    H136247   6.006   5.502   8.596 -0.7385 -1.3711  4.3453
 4896TIP3    H236248   6.003   5.356   8.553  0.0250  0.1905 -2.1249
 4897TIP3   OH236249   3.201   5.834   0.169 -0.7493 -0.3432  0.4450
 4897TIP3    H136250   3.250   5.791   0.099 -0.6758 -0.0469  0.3129
 4897TIP3    H236251   3.176   5.763   0.228 -1.9554 -0.8011 -0.5571
 4898TIP3   OH236252   1.986   5.045   7.163  0.9121  0.2577 -0.0181
 4898TIP3    H136253   1.969   5.076   7.252 -2.2120  0.7000 -0.6602
 4898TIP3    H236254   2.047   5.109   7.126  2.0114  0.2404  1.6316
 4899TIP3   OH236255   4.262   2.176   0.679 -0.2306  0.0570 -0.0162
 4899TIP3    H136256   4.217   2.134   0.605 -1.3438  0.3416  0.4709
 4899TIP3    H236257   4.354   2.179   0.653 -0.3902 -1.1162 -0.7872
 4900TIP3   OH236258   4.704   1.702   8.422 -0.5580  0.5666 -0.1836
 4900TIP3    H136259   4.699   1.777   8.482  0.1266  0.3299  0.1744
 4900TIP3    H236260   4.743   1.632   8.474  1.7641  0.8714 -1.3748
 4901TIP3   OH236261   4.546   6.585   1.495  0.1248  0.7003  0.3420
 4901TIP3    H136262   4.467   6.571   1.442 -0.0709  0.1814  0.7646
 4901TIP3    H236263   4.617   6.552   1.440  0.1011  1.5413 -0.2060
 4902TIP3   OH236264   6.288   0.772   7.198  0.6203  0.6633 -0.8619
 4902TIP3    H136265   6.253   0.860   7.213 -1.9076 -0.5698  1.4425
 4902TIP3    H236266   6.253   0.747   7.112 -0.0386  1.3189 -0.7979
 4903TIP3   OH236267   3.802   4.644   0.782  0.1826 -0.1575 -0.7786
 4903TIP3    H136268   3.809   4.735   0.812 -0.9883 -0.2263 -0.2271
 4903TIP3    H236269   3.754   4.650   0.699 -0.1793 -0.2911 -0.5814
 4904TIP3   OH236270   3.648   2.424   0.157 -0.2934 -0.2313  0.1102
 4904TIP3    H136271   3.643   2.458   0.068 -0.6475  0.1678  0.2826
 4904TIP3    H236272   3.664   2.330   0.146 -1.7411 -0.4350 -0.3934
 4905TIP3   OH236273   3.217   4.319   8.258 -0.4919  0.0580 -0.2730
 4905TIP3    H136274   3.272   4.267   8.317  0.4076  3.5803  2.3460
 4905TIP3    H236275   3.127   4.300   8.286 -0.1871 -0.2144  0.5612
 4906TIP3   OH236276   5.386   6.577   6.437  0.3528 -0.2971  0.6455
 4906TIP3    H136277   5.473   6.615   6.422  0.0939  1.1396  2.4519
 4906TIP3    H236278   5.403   6.497   6.486  0.6745 -0.3324  0.4825
 4907TIP3   OH236279   6.549   1.098   8.464 -0.2816 -0.0748 -0.5063
 4907TIP3    H136280   6.510   1.025   8.512 -2.1216  1.7798  1.0157
 4907TIP3    H236281   6.631   1.115   8.510 -0.4617 -0.3701 -0.0631
 4908TIP3   OH236282   4.712   6.375   1.348  0.0919 -0.1358  0.3841
 4908TIP3    H136283   4.734   6.416   1.264 -1.5589  0.1893  0.0866
 4908TIP3    H236284   4.644   6.312   1.327 -0.8908  0.4895  1.5863
 4909TIP3   OH236285   2.756   0.947   1.961 -0.0492  0.2911 -0.7189
 4909TIP3    H136286   2.704   0.867   1.958 -0.8969  0.8365 -0.7807
 4909TIP3    H236287   2.692   1.018   1.973  0.6549  0.9923 -0.9879
 4910TIP3   OH236288   2.364   6.244   7.124 -0.3327 -0.2579  0.2498
 4910TIP3    H136289   2.331   6.305   7.190  0.0669  0.0123  0.2005
 4910TIP3    H236290   2.298   6.245   7.055 -1.5485 -1.7134  1.3170
 4911TIP3   OH236291   4.534   4.344   8.365  0.1696  0.0790  0.2217
 4911TIP3    H136292   4.623   4.371   8.342  0.5426 -1.5511 -0.4015
 4911TIP3    H236293   4.546   4.285   8.439 -0.3242 -0.5378 -0.1795
 4912TIP3   OH236294   5.168   4.154   8.687  0.6312  0.1203  0.7226
 4912TIP3    H136295   5.210   4.096   8.625  0.3158 -0.2474  0.8479
 4912TIP3    H236296   5.208   4.240   8.672  2.4407 -0.4916  1.7825
 4913TIP3   OH236297   2.493   5.615   7.216  0.2087  0.2536  0.0258
 4913TIP3    H136298   2.410   5.624   7.168  1.1262  0.2531 -1.6393
 4913TIP3    H236299   2.527   5.705   7.221  0.7936  0.0712 -0.5959
 4914TIP3   OH236300   2.860   1.879   1.648  0.2031 -0.0095 -0.1518
 4914TIP3    H136301   2.889   1.960   1.692  1.1589 -0.4719  0.1133
 4914TIP3    H236302   2.775   1.901   1.611 -1.2199  0.1354  2.8352
 4915TIP3   OH236303   0.440   4.726   1.394 -0.0795  0.1017 -0.0202
 4915TIP3    H136304   0.377   4.688   1.455  1.6280 -0.6585  1.3849
 4915TIP3    H236305   0.475   4.651   1.346 -0.7971  0.6064 -1.3774
 4916TIP3   OH236306   4.606   3.209   6.795  0.6382  0.0803  0.1010
 4916TIP3    H136307   4.554   3.129   6.784 -0.9090  1.0178  0.3021
 4916TIP3    H236308   4.681   3.181   6.848 -0.4698 -1.0256  1.1750
 4917TIP3   OH236309   4.876   4.486   8.293 -0.2593  0.3082  0.0747
 4917TIP3    H136310   4.871   4.570   8.338 -0.5654  0.3965 -0.1195
 4917TIP3    H236311   4.810   4.492   8.224  0.8401  0.5338 -1.0015
 4918TIP3   OH236312   3.287   4.437   0.392 -0.4811 -0.0783  0.5548
 4918TIP3    H136313   3.197   4.441   0.362 -0.8297 -0.6700  1.4771
 4918TIP3    H236314   3.307   4.526   0.419 -0.9247 -0.0266  0.7170
 4919TIP3   OH236315   4.681   4.886   7.122 -0.0500 -0.4694 -0.0490
 4919TIP3    H136316   4.698   4.980   7.129 -1.3831 -0.2157  0.1836
 4919TIP3    H236317   4.759   4.845   7.157  0.4612  0.5659  0.0683
 4920TIP3   OH236318   2.550   6.708   2.081  0.1355  0.5443  0.7613
 4920TIP3    H136319   2.542   6.617   2.110 -0.1730  0.6297  0.9477
 4920TIP3    H236320   2.550   6.703   1.986  1.6883  0.2091  0.7583
 4921TIP3   OH236321   1.761   0.269   8.195  0.4979 -0.0938 -0.4071
 4921TIP3    H136322   1.823   0.330   8.155  0.9189  0.3473  0.8790
 4921TIP3    H236323   1.769   0.189   8.142  2.2302 -0.0791 -0.2290
 4922TIP3   OH236324   0.395   5.946   6.330 -0.7187  0.4148 -0.0003
 4922TIP3    H136325   0.471   5.950   6.387  1.9510  1.3962 -3.3204
 4922TIP3    H236326   0.346   6.026   6.348  1.4352  1.9814 -0.6800
 4923TIP3   OH236327   5.240   4.258   0.839 -0.0576 -0.2433 -0.0696
 4923TIP3    H136328   5.290   4.277   0.759  1.1073  0.1684  0.7287
 4923TIP3    H236329   5.187   4.337   0.852 -0.6873 -0.5411 -0.7294
 4924TIP3   OH236330   1.005   2.306   8.239 -0.1923 -0.2181 -0.2114
 4924TIP3    H136331   0.968   2.358   8.311 -0.3983 -0.3337 -0.2345
 4924TIP3    H236332   1.031   2.371   8.173 -1.0546 -0.1837 -0.5232
 4925TIP3   OH236333   6.290   3.370   8.510  0.1468  0.4092 -0.1324
 4925TIP3    H136334   6.265   3.462   8.511 -0.3445  0.2880  1.1707
 4925TIP3    H236335   6.345   3.359   8.588 -1.5737 -0.8294  0.9937
 4926TIP3   OH236336   5.074   2.722   1.573 -0.4568  0.7896 -0.2079
 4926TIP3    H136337   5.069   2.627   1.578 -1.2256  0.8831  1.1015
 4926TIP3    H236338   5.074   2.741   1.479  1.8179 -0.5753 -0.5568
 4927TIP3   OH236339   5.400   2.777   7.348 -0.1439  0.3297 -0.0035
 4927TIP3    H136340   5.382   2.837   7.276 -0.6429  1.1231  0.7689
 4927TIP3    H236341   5.427   2.833   7.420  0.9022 -0.5004  0.2767
 4928TIP3   OH236342   0.051   4.771   8.117 -0.1134  0.0660 -0.6335
 4928TIP3    H136343  -0.006   4.793   8.043 -0.6636  2.9412  0.5172
 4928TIP3    H236344  -0.008   4.735   8.183  0.0513 -0.5776 -0.8301
 4929TIP3   OH236345   0.867   6.054   7.302  0.1671 -0.1104  0.0186
 4929TIP3    H136346   0.806   6.127   7.311  0.5163  0.1224  0.5046
 4929TIP3    H236347   0.954   6.094   7.303  0.4675 -0.6632  2.2035
 4930TIP3   OH236348   6.279   3.403   1.431 -0.3439  0.0904  0.0762
 4930TIP3    H136349   6.283   3.431   1.522 -2.6539  0.0092  0.2664
 4930TIP3    H236350   6.336   3.326   1.426  0.9574  0.9618  1.0724
 4931TIP3   OH236351   1.487   3.058   2.241  0.0691 -0.0265  0.0103
 4931TIP3    H136352   1.467   2.971   2.206 -2.6919 -0.4853  2.3696
 4931TIP3    H236353   1.421   3.115   2.202 -0.0178  0.4193  0.8076
 4932TIP3   OH236354   1.715   4.878   8.000 -0.0075  0.0799 -0.2174
 4932TIP3    H136355   1.777   4.854   8.069 -0.7706 -1.6409 -0.0636
 4932TIP3    H236356   1.649   4.931   8.045  0.8924  1.2322 -0.2153
 4933TIP3   OH236357   0.604   2.724   1.104  0.6059  0.1407  0.3199
 4933TIP3    H136358   0.517   2.685   1.103  0.9578 -0.6822 -1.6797
 4933TIP3    H236359   0.591   2.810   1.143 -1.2911  0.4517 -0.8827
 4934TIP3   OH236360   1.535   3.615   7.590  0.0284 -0.3018  0.0332
 4934TIP3    H136361   1.482   3.655   7.659  0.2587  1.3877 -0.6996
 4934TIP3    H236362   1.623   3.607   7.628  0.0208  0.0825  0.1350
 4935TIP3   OH236363   1.588   1.555   6.288 -0.4706 -0.1484  0.6159
 4935TIP3    H136364   1.640   1.521   6.361 -1.4655 -2.4578  0.3465
 4935TIP3    H236365   1.641   1.535   6.211 -1.3305 -1.8069  0.4041
 4936TIP3   OH236366   5.144   6.006   1.976 -0.0849  0.2524  0.1586
 4936TIP3    H136367   5.058   5.965   1.987 -0.6760  1.0624 -1.1341
 4936TIP3    H236368   5.192   5.945   1.919  0.5032 -0.5877  1.5234
 4937TIP3   OH236369   2.772   0.006   0.805 -0.3399 -0.3969  0.0619
 4937TIP3    H136370   2.732   0.087   0.835  0.9438  0.0755  0.5656
 4937TIP3    H236371   2.714  -0.026   0.736 -1.6892  0.1206  0.9340
 4938TIP3   OH236372   1.706   3.995   8.539  0.4593  0.3775 -0.0708
 4938TIP3    H136373   1.676   3.936   8.608 -0.5924  2.1082  1.0253
 4938TIP3    H236374   1.749   3.938   8.475 -0.7378 -1.5776  0.7942
 4939TIP3   OH236375   1.828   3.706   1.854 -0.4483  0.3918 -0.6537
 4939TIP3    H136376   1.762   3.696   1.786 -2.2445  0.2515  1.0287
 4939TIP3    H236377   1.853   3.617   1.877 -0.0553  0.4339 -0.8968
 4940TIP3   OH236378   5.733   6.080   7.730  0.5762 -0.3308  0.4877
 4940TIP3    H136379   5.734   6.017   7.802 -0.9744 -0.3816  0.4836
 4940TIP3    H236380   5.779   6.036   7.659  0.2109 -1.1458  0.7475
 4941TIP3   OH236381   3.477   4.542   1.428  0.6243 -0.2222 -0.7011
 4941TIP3    H136382   3.413   4.548   1.358  0.2962 -0.2833 -0.4079
 4941TIP3    H236383   3.521   4.627   1.428 -0.6904  0.4827  0.2764
 4942TIP3   OH236384   3.611   1.863   0.354  0.4911 -0.6014  0.1958
 4942TIP3    H136385   3.620   1.903   0.267 -0.0109 -0.4886  0.1924
 4942TIP3    H236386   3.639   1.772   0.341  1.4136 -0.3152  0.1516
 4943TIP3   OH236387   5.316   0.507   1.064  0.3327  0.0700 -0.5110
 4943TIP3    H136388   5.330   0.434   1.124 -0.0613  0.4599  0.0640
 4943TIP3    H236389   5.365   0.580   1.102 -2.3524  1.2275  1.0938
 4944TIP3   OH236390   3.858   0.751   0.491 -0.0863 -0.4606  0.0330
 4944TIP3    H136391   3.850   0.750   0.586 -0.3881  1.4030  0.0766
 4944TIP3    H236392   3.943   0.793   0.475  0.5627 -1.9338 -0.5319
 4945TIP3   OH236393   5.608   2.048   0.778  0.9089  0.4899  0.2089
 4945TIP3    H136394   5.575   1.960   0.796  0.7643  0.5950  0.4652
 4945TIP3    H236395   5.579   2.100   0.853  1.6064  0.6016  0.3998
 4946TIP3   OH236396   4.295   0.792   1.965 -0.1715 -0.4309 -0.8883
 4946TIP3    H136397   4.374   0.801   2.018 -0.9712  2.0128  0.0333
 4946TIP3    H236398   4.267   0.701   1.979  1.1227 -0.6355  0.7125
 4947TIP3   OH236399   0.218   4.725   8.408  0.1920  0.5296  0.3860
 4947TIP3    H136400   0.230   4.775   8.327  0.6186 -0.1298  0.0303
 4947TIP3    H236401   0.152   4.659   8.386  0.0734  0.5480  0.6755
 4948TIP3   OH236402   2.178   2.903   7.039  0.4371  0.6544  1.0363
 4948TIP3    H136403   2.234   2.976   7.010 -0.5211  0.9443 -0.1584
 4948TIP3    H236404   2.091   2.942   7.048 -0.0758 -0.3170  0.4370
 4949TIP3   OH236405   1.608   1.770   0.210 -0.0356  0.6224  0.7315
 4949TIP3    H136406   1.601   1.801   0.120  0.6987 -1.4591 -0.1185
 4949TIP3    H236407   1.527   1.798   0.252  0.1372  2.6743 -0.2016
 4950TIP3   OH236408   5.926   1.349   8.396  0.1784  0.1810 -0.1704
 4950TIP3    H136409   5.865   1.372   8.467  1.2143 -0.8173  1.1133
 4950TIP3    H236410   5.874   1.352   8.317 -1.2568  0.4724  0.7527
 4951TIP3   OH236411   2.255   4.427   6.762 -0.0946  0.1443  0.3863
 4951TIP3    H136412   2.329   4.415   6.822  0.3941  1.3797  0.0480
 4951TIP3    H236413   2.222   4.338   6.748 -0.0403 -0.2217  2.2453
 4952TIP3   OH236414   5.324   1.194   0.150 -0.3231  0.0107 -0.2550
 4952TIP3    H136415   5.289   1.109   0.122 -0.0881 -0.2182  0.1529
 4952TIP3    H236416   5.419   1.182   0.152 -0.1416  0.7765 -1.8534
 4953TIP3   OH236417   2.402   5.345   6.991  0.1372  0.3604 -0.0487
 4953TIP3    H136418   2.413   5.270   7.049 -0.0615 -0.5096 -1.0997
 4953TIP3    H236419   2.491   5.377   6.977  0.7594 -2.0944 -2.6392
 4954TIP3   OH236420   5.833   2.468   0.757 -0.0700 -0.0030  0.1686
 4954TIP3    H136421   5.827   2.441   0.848  1.1988 -0.3225  0.1724
 4954TIP3    H236422   5.840   2.563   0.760  0.1667 -0.0285  0.4163
 4955TIP3   OH236423   0.336   3.451   0.677 -0.4837  0.0929  0.7481
 4955TIP3    H136424   0.393   3.511   0.629 -0.1715 -0.3495  0.5581
 4955TIP3    H236425   0.248   3.472   0.646 -0.1127 -1.9578 -2.0765
 4956TIP3   OH236426   0.200   1.094   1.786  0.1573 -0.2896 -0.2107
 4956TIP3    H136427   0.112   1.127   1.805 -0.8932 -2.7861 -0.4420
 4956TIP3    H236428   0.225   1.045   1.864  0.9660 -0.3794 -0.5127
 4957TIP3   OH236429   2.693   3.992   7.597 -0.3743 -0.6456  0.3191
 4957TIP3    H136430   2.720   4.082   7.614 -0.3267 -0.3266 -1.3013
 4957TIP3    H236431   2.614   3.981   7.649 -0.6672  0.5187  0.1534
 4958TIP3   OH236432   5.962   5.869   2.288 -0.2764 -0.1919  0.4878
 4958TIP3    H136433   6.005   5.786   2.307 -0.6449 -0.6071 -0.4185
 4958TIP3    H236434   5.890   5.845   2.230  1.0809  1.0223 -1.8506
 4959TIP3   OH236435   1.266   0.972   0.505  0.0007 -0.1464  0.1558
 4959TIP3    H136436   1.193   0.952   0.564  0.4988  0.9952  1.2030
 4959TIP3    H236437   1.277   1.067   0.512  0.3477 -0.0366 -1.4762
 4960TIP3   OH236438   4.185   6.263   7.545  0.4539  0.3290  0.0971
 4960TIP3    H136439   4.228   6.300   7.468 -0.1363 -2.0747 -1.4909
 4960TIP3    H236440   4.092   6.281   7.532  0.2015 -1.2763 -0.5086
 4961TIP3   OH236441   5.930   0.544   7.600 -0.1334 -0.4550 -0.5366
 4961TIP3    H136442   5.966   0.455   7.597  3.3326  0.8416 -1.6197
 4961TIP3    H236443   5.895   0.559   7.512  1.4149 -0.0218 -1.1131
 4962TIP3   OH236444   2.238   0.184   8.034  0.1443 -0.2027  0.7422
 4962TIP3    H136445   2.213   0.103   8.078 -0.4628 -0.4255  0.0181
 4962TIP3    H236446   2.203   0.175   7.945 -0.5645  1.1426  0.8455
 4963TIP3   OH236447   1.733   5.710   7.855 -0.1253 -0.1034 -0.4828
 4963TIP3    H136448   1.809   5.696   7.911 -0.7757  0.2958  0.5082
 4963TIP3    H236449   1.706   5.622   7.828  0.8734 -0.2308 -1.1163
 4964TIP3   OH236450   5.455   3.624   0.867  0.2627  0.5424  0.2465
 4964TIP3    H136451   5.389   3.556   0.853  0.0876  0.6793  0.3867
 4964TIP3    H236452   5.534   3.591   0.824  0.6821 -0.5422  1.7824
 4965TIP3   OH236453   5.245   3.931   1.076  0.0449  0.0398  0.1058
 4965TIP3    H136454   5.249   4.019   1.115 -1.1378  0.3617 -0.4464
 4965TIP3    H236455   5.259   3.946   0.982 -1.3452 -0.1849 -0.1660
 4966TIP3   OH236456   6.294   0.571   0.616  0.1570 -0.3545  0.8520
 4966TIP3    H136457   6.292   0.634   0.688  0.4936 -2.1347  2.5222
 4966TIP3    H236458   6.205   0.535   0.614  0.6868 -1.7953  1.8255
 4967TIP3   OH236459   6.309   2.364   0.738 -0.3650 -0.1365 -0.0056
 4967TIP3    H136460   6.291   2.395   0.649 -0.2073 -2.9276 -1.1176
 4967TIP3    H236461   6.243   2.297   0.755  1.9011 -2.4570  0.3350
 4968TIP3   OH236462   5.289   3.332   0.210 -0.1686  0.7521 -0.6587
 4968TIP3    H136463   5.232   3.349   0.285  0.4588  1.1746 -0.2540
 4968TIP3    H236464   5.316   3.420   0.181  2.2602  0.5698  0.7570
 4969TIP3   OH236465   6.214   2.118   0.368  0.3389  0.2275 -0.1308
 4969TIP3    H136466   6.303   2.133   0.399  1.1725 -0.4442 -2.0265
 4969TIP3    H236467   6.165   2.095   0.446  1.5593  1.6781  1.1322
 4970TIP3   OH236468   6.653   3.269   1.724  0.0746 -0.6898 -0.0833
 4970TIP3    H136469   6.593   3.216   1.776 -1.0154 -0.1219 -0.7286
 4970TIP3    H236470   6.711   3.206   1.681 -0.8830 -1.3417 -0.4458
 4971TIP3   OH236471   0.469   6.512   7.506  0.2449  0.4255 -1.0626
 4971TIP3    H136472   0.482   6.420   7.528  0.6749  0.6336 -0.4190
 4971TIP3    H236473   0.404   6.543   7.570 -1.1400  0.1766 -2.2939
 4972TIP3   OH236474   2.270   6.199   7.658  0.0811 -1.1429 -0.3070
 4972TIP3    H136475   2.302   6.271   7.712  0.6414 -0.3682 -1.6200
 4972TIP3    H236476   2.281   6.121   7.713  1.6718 -0.5366  0.3090
 4973TIP3   OH236477   4.157   2.312   7.451 -0.0283 -0.1600 -0.3582
 4973TIP3    H136478   4.151   2.242   7.515  2.2664  0.2119  0.3757
 4973TIP3    H236479   4.141   2.392   7.501 -0.2538 -0.0005 -0.6806
 4974TIP3   OH236480   4.451   0.997   7.312 -0.0580 -0.2843 -0.0842
 4974TIP3    H136481   4.403   1.071   7.349  1.2699  0.5351  0.0886
 4974TIP3    H236482   4.440   0.926   7.376 -0.1208  0.2307  0.4865
 4975TIP3   OH236483   1.692   6.648   6.919 -0.5747 -0.3038 -0.0361
 4975TIP3    H136484   1.724   6.601   6.842 -1.9851 -1.8445  0.2741
 4975TIP3    H236485   1.735   6.606   6.993  0.9578  1.3259  0.0653
 4976TIP3   OH236486   5.879   0.583   0.749 -0.2969 -0.2999  0.1322
 4976TIP3    H136487   5.901   0.671   0.779 -1.3018 -0.3092  0.9621
 4976TIP3    H236488   5.923   0.575   0.665  0.8366  0.5327  0.6123
 4977TIP3   OH236489   2.194   2.650   0.789  0.6336  0.2039 -0.0007
 4977TIP3    H136490   2.199   2.675   0.881  2.0146  0.7582 -0.2014
 4977TIP3    H236491   2.284   2.660   0.757  0.0056  0.9049 -1.6342
 4978TIP3   OH236492   2.895   1.772   7.841  0.4165 -0.2525 -0.3180
 4978TIP3    H136493   2.951   1.834   7.795  0.3973 -0.6091 -0.8303
 4978TIP3    H236494   2.924   1.686   7.809  1.4481 -0.6286  1.4512
 4979TIP3   OH236495   0.232   2.628   7.293 -0.4119 -0.9516 -0.2241
 4979TIP3    H136496   0.274   2.714   7.290  1.1797 -1.7095 -1.2822
 4979TIP3    H236497   0.144   2.643   7.258 -0.5098  0.4142  0.5669
 4980TIP3   OH236498   2.532   4.848   7.489  0.7030  0.2652  0.3287
 4980TIP3    H136499   2.554   4.848   7.582 -0.6318  1.5121  0.7000
 4980TIP3    H236500   2.447   4.893   7.485 -0.2045 -1.4424 -1.2912
 4981TIP3   OH236501   5.577   6.638   6.941 -0.2123  0.0279 -0.2516
 4981TIP3    H136502   5.558   6.559   6.891 -0.3586  0.4402 -0.8521
 4981TIP3    H236503   5.521   6.705   6.903 -1.8192 -0.0729  1.7137
 4982TIP3   OH236504   2.064   2.111   8.603 -0.2355 -0.8883 -0.4608
 4982TIP3    H136505   1.985   2.073   8.563 -0.5948 -0.2777 -0.3494
 4982TIP3    H236506   2.063   2.080   8.693 -0.4329 -0.7576 -0.4176
 4983TIP3   OH236507   1.669   2.911   8.838  0.1964  0.2709 -0.6195
 4983TIP3    H136508   1.736   2.942   8.778  0.4291  0.3290 -0.3336
 4983TIP3    H236509   1.616   2.850   8.787  1.6045 -1.2518 -0.3332
 4984TIP3   OH236510   2.270   6.522   0.675  0.2806  0.3488  0.0910
 4984TIP3    H136511   2.259   6.613   0.700  2.2984  0.7864 -0.4550
 4984TIP3    H236512   2.187   6.480   0.700 -0.4480  2.1773  0.9118
 4985TIP3   OH236513   3.671   4.161   6.131  0.2699 -0.1589  0.3193
 4985TIP3    H136514   3.590   4.128   6.092  0.3090  1.4320 -1.2339
 4985TIP3    H236515   3.740   4.128   6.074  0.3796  1.6299 -0.6612
 4986TIP3   OH236516   1.284   3.483   6.192  0.2631  0.1199 -0.3878
 4986TIP3    H136517   1.192   3.488   6.219  0.3622 -2.4755  0.6743
 4986TIP3    H236518   1.325   3.557   6.238 -0.6869 -0.7604  2.0889
 4987TIP3   OH236519   5.018   5.808   8.521  0.3456 -0.0996 -0.1416
 4987TIP3    H136520   4.937   5.780   8.564  0.0744  1.0774  0.1526
 4987TIP3    H236521   5.007   5.781   8.430 -0.8653  0.9774 -0.3532
 4988TIP3   OH236522   4.850   6.464   8.425 -0.3789 -0.0632 -0.2463
 4988TIP3    H136523   4.774   6.522   8.413 -0.7634 -0.5704 -0.2808
 4988TIP3    H236524   4.860   6.458   8.520 -0.3022  0.1098 -0.2432
 4989TIP3   OH236525   0.923   6.315   8.547  0.4877  0.7454  0.5059
 4989TIP3    H136526   0.881   6.400   8.559 -0.0209  0.8573 -1.6321
 4989TIP3    H236527   0.918   6.299   8.452  2.0362 -0.9149  0.6479
 4990TIP3   OH236528   4.597   0.151   0.467 -0.1590  0.4843  0.0213
 4990TIP3    H136529   4.615   0.076   0.524  0.4623 -0.2125 -1.0704
 4990TIP3    H236530   4.633   0.127   0.382 -0.6544  1.7022 -0.5656
 4991TIP3   OH236531   5.769   2.733   6.995 -0.0335 -0.1248  0.4723
 4991TIP3    H136532   5.844   2.790   6.981  0.3799 -0.7752 -0.0194
 4991TIP3    H236533   5.795   2.649   6.958 -0.3741 -0.8310  1.7623
 4992TIP3   OH236534   3.873   3.077   0.601  0.1054  0.3994  0.1694
 4992TIP3    H136535   3.788   3.058   0.641 -0.1258  0.4387 -0.3015
 4992TIP3    H236536   3.855   3.149   0.540  0.1459 -0.6410 -1.1256
 4993TIP3   OH236537   0.984   3.731   0.710  0.8230 -0.4669  0.0470
 4993TIP3    H136538   0.965   3.720   0.804  1.1556 -2.4707 -0.0885
 4993TIP3    H236539   0.912   3.685   0.666  0.1832  1.2134 -0.7349
 4994TIP3   OH236540   4.264   6.563   1.462  0.1325  0.3391  0.3701
 4994TIP3    H136541   4.223   6.580   1.378 -0.7397 -0.0627  0.7018
 4994TIP3    H236542   4.192   6.567   1.526  0.3406 -1.5962  0.8083
 4995TIP3   OH236543   5.496   2.944   7.120 -0.3931 -0.3201  0.4206
 4995TIP3    H136544   5.532   2.901   7.043 -1.6559  0.1412 -0.4678
 4995TIP3    H236545   5.447   3.019   7.085 -0.3742  0.3328  1.7285
 4996TIP3   OH236546   6.709   5.265   1.241  0.2771  0.2625 -0.2319
 4996TIP3    H136547   6.658   5.291   1.164 -0.5678 -2.0817 -0.5637
 4996TIP3    H236548   6.678   5.177   1.261  1.3826  0.3226  2.0587
 4997TIP3   OH236549   0.120   3.562   7.122  0.4560  0.9137  0.4842
 4997TIP3    H136550   0.050   3.525   7.176  0.4721  2.2867  1.5040
 4997TIP3    H236551   0.075   3.624   7.065  0.5096 -0.1789 -0.7959
 4998TIP3   OH236552   0.974   2.078   1.886  0.0236 -0.7894 -0.4321
 4998TIP3    H136553   1.020   2.002   1.851  0.6645  0.1316 -1.6913
 4998TIP3    H236554   0.886   2.047   1.905  0.7328 -2.2463  0.6863
 4999TIP3   OH236555   6.011   3.466   8.763 -0.3073  0.6183  0.2437
 4999TIP3    H136556   5.973   3.413   8.692 -0.9771  1.2558  0.1153
 4999TIP3    H236557   5.936   3.509   8.804  0.1930  1.1887  0.5784
 5000TIP3   OH236558   6.691   4.312   0.758 -0.0622 -0.1054 -0.2916
 5000TIP3    H136559   6.627   4.379   0.780 -1.4960 -1.3152 -0.6336
 5000TIP3    H236560   6.674   4.291   0.667  0.0985 -1.2107 -0.0840
 5001TIP3   OH236561   0.234   6.660   8.501 -0.4462  0.3049 -0.0488
 5001TIP3    H136562   0.291   6.585   8.519 -0.0518  0.2061 -1.5414
 5001TIP3    H236563   0.291   6.736   8.514 -1.2562  0.5091  3.0203
 5002TIP3   OH236564   0.930   1.775   0.576 -0.4172 -0.0416  0.2603
 5002TIP3    H136565   0.972   1.860   0.562 -0.8214  0.3805  1.4331
 5002TIP3    H236566   0.912   1.773   0.670 -0.2434 -1.5179  0.2796
 5003TIP3   OH236567   6.761   1.142   2.484  0.0566 -0.2584  0.5590
 5003TIP3    H136568   6.798   1.191   2.558 -0.1895  0.5087  0.1826
 5003TIP3    H236569   6.699   1.203   2.444 -0.9372 -1.1967  0.6257
 5004TIP3   OH236570   0.583   4.830   8.366 -0.2601 -0.3738  0.1023
 5004TIP3    H136571   0.617   4.781   8.441 -1.3705  0.0841  0.9461
 5004TIP3    H236572   0.659   4.876   8.331  0.6016 -1.8860 -0.0927
 5005TIP3   OH236573   3.925   4.136   8.725 -0.1418 -0.4492 -1.1333
 5005TIP3    H136574   4.001   4.084   8.753  0.3395  0.4561 -0.7126
 5005TIP3    H236575   3.962   4.199   8.663 -0.6005 -0.1768 -1.1285
 5006TIP3   OH236576   6.645   3.151   1.048 -0.3509 -0.8815 -0.4129
 5006TIP3    H136577   6.683   3.133   0.962 -0.8723  0.1557 -0.8777
 5006TIP3    H236578   6.674   3.078   1.102  0.4059 -1.2945 -1.3346
 5007TIP3   OH236579   1.785   4.528   8.797  0.4594 -0.1981  0.2868
 5007TIP3    H136580   1.778   4.516   8.702 -1.6879 -0.5519  0.4501
 5007TIP3    H236581   1.786   4.623   8.809 -1.9275 -0.0734 -0.0072
 5008TIP3   OH236582   4.197   4.329   7.261  0.3657  0.2516 -0.1186
 5008TIP3    H136583   4.171   4.330   7.354 -0.2624  1.8531 -0.2715
 5008TIP3    H236584   4.136   4.269   7.220 -0.2866  0.6242  0.2816
 5009TIP3   OH236585   1.448   0.174   0.578  0.0099 -0.1381 -0.4686
 5009TIP3    H136586   1.525   0.200   0.630 -0.4132  0.4330 -0.1140
 5009TIP3    H236587   1.431   0.083   0.603  1.4970 -0.8064 -1.6986
 5010TIP3   OH236588   0.432   0.698   0.127  0.1092 -0.3075 -0.1150
 5010TIP3    H136589   0.467   0.624   0.078  1.0208  0.2087 -0.2695
 5010TIP3    H236590   0.510   0.743   0.160 -0.4659 -0.6787  1.8809
 5011TIP3   OH236591   5.448   5.743   0.518  0.3267 -0.3698  0.2749
 5011TIP3    H136592   5.484   5.736   0.429  1.4195 -0.6709  0.7200
 5011TIP3    H236593   5.516   5.789   0.567 -0.6818  0.6296  0.7435
 5012TIP3   OH236594   6.266   4.259   7.689  0.1424 -0.4067  0.2940
 5012TIP3    H136595   6.258   4.191   7.756  1.0386 -1.1908 -0.3765
 5012TIP3    H236596   6.199   4.237   7.624 -0.4708  0.1383  0.7220
 5013TIP3   OH236597   2.622   6.697   0.581  0.0547  0.2378 -0.3229
 5013TIP3    H136598   2.565   6.621   0.570  0.4896 -0.0387 -0.6888
 5013TIP3    H236599   2.651   6.717   0.492 -0.4191  1.1158 -0.2901
 5014TIP3   OH236600   6.178   2.346   7.641 -0.3430 -0.0248  0.2490
 5014TIP3    H136601   6.213   2.383   7.722  0.5554 -0.2419 -0.0257
 5014TIP3    H236602   6.083   2.359   7.648 -0.2843 -0.0486  1.3348
 5015TIP3   OH236603   3.926   4.453   6.851 -0.0291  0.2136 -0.6135
 5015TIP3    H136604   3.908   4.381   6.791 -0.0816  0.8203 -1.3351
 5015TIP3    H236605   3.927   4.531   6.796  1.2411  0.6283 -0.0453
 5016TIP3   OH236606   1.396   4.453   0.378 -0.2254 -0.1100  0.2073
 5016TIP3    H136607   1.368   4.532   0.424  0.2746  0.5330 -0.5583
 5016TIP3    H236608   1.462   4.484   0.316 -1.4140 -0.7949 -1.4877
 5017TIP3   OH236609   1.857   1.072   7.566  0.8813 -0.4280  0.0484
 5017TIP3    H136610   1.926   1.124   7.607  0.2361  0.1002  0.4938
 5017TIP3    H236611   1.784   1.075   7.628 -0.5458  1.3572 -1.5695
 5018TIP3   OH236612   3.827   6.125   8.541 -0.1280 -0.0197 -0.2398
 5018TIP3    H136613   3.737   6.140   8.512 -0.1214 -1.6813 -1.2720
 5018TIP3    H236614   3.819   6.085   8.628 -0.4252 -0.6204 -0.5374
 5019TIP3   OH236615   1.982   0.470   1.055  0.1693 -0.5799 -0.5605
 5019TIP3    H136616   2.044   0.409   1.015  1.5942 -0.8587  1.9153
 5019TIP3    H236617   1.965   0.435   1.142  0.4883  2.1504  0.7230
 5020TIP3   OH236618   2.306   0.315   0.139 -0.1611 -0.0268  0.6951
 5020TIP3    H136619   2.312   0.367   0.219 -1.1010 -0.8886  1.3574
 5020TIP3    H236620   2.383   0.258   0.143 -1.0336 -1.2045  1.8692
 5021TIP3   OH236621   4.730   4.633   1.029  0.3197 -0.0523 -0.1854
 5021TIP3    H136622   4.734   4.553   1.081  0.0872 -0.6397 -1.0473
 5021TIP3    H236623   4.638   4.660   1.033 -0.1623 -1.2402 -1.9169
 5022TIP3   OH236624   3.758   2.603   0.687 -0.1867  0.0947 -0.5497
 5022TIP3    H136625   3.827   2.603   0.753 -0.7832  0.4271  0.0823
 5022TIP3    H236626   3.800   2.637   0.608  0.5379 -0.3373 -0.3573
 5023TIP3   OH236627   0.407   6.739   8.749 -0.5508 -0.1471 -0.7660
 5023TIP3    H136628   0.438   6.696   8.670 -2.5248  1.9849 -2.8688
 5023TIP3    H236629   0.388   6.829   8.722  2.9438  2.1761  3.2140
 5024TIP3   OH236630   4.144   5.900   8.477 -0.0418 -0.0224  0.5117
 5024TIP3    H136631   4.051   5.881   8.483  0.0985 -0.4553  1.6552
 5024TIP3    H236632   4.153   5.989   8.513 -0.2904  1.0112 -1.8297
 5025TIP3   OH236633   5.860   5.871   1.236 -0.0159 -0.0548  0.4122
 5025TIP3    H136634   5.930   5.865   1.302  0.1930 -0.5803  0.1528
 5025TIP3    H236635   5.901   5.838   1.155  0.1246  1.7878 -0.3041
 5026TIP3   OH236636   1.810   0.979   0.519  0.0508 -0.7336 -0.1331
 5026TIP3    H136637   1.754   0.920   0.569  0.2987 -0.9297 -0.0820
 5026TIP3    H236638   1.894   0.977   0.565 -0.8042  2.2017  1.8718
 5027TIP3   OH236639   3.817   2.629   7.419 -0.1369  0.4058  0.4995
 5027TIP3    H136640   3.785   2.650   7.332  0.3710  0.0187  0.2134
 5027TIP3    H236641   3.764   2.555   7.447  0.1529  0.0905  0.2323
 5028TIP3   OH236642   0.918   0.138   1.468  0.7261  0.3295 -0.0829
 5028TIP3    H136643   0.961   0.063   1.510  0.7257 -0.3188 -1.1830
 5028TIP3    H236644   0.897   0.197   1.539  3.9821  0.9684  0.4868
 5029TIP3   OH236645   2.878   4.891   1.252 -0.0664 -0.0546 -0.4457
 5029TIP3    H136646   2.869   4.947   1.329 -0.9481 -0.3812 -0.2968
 5029TIP3    H236647   2.794   4.847   1.245  1.4643 -3.6516  1.2265
 5030TIP3   OH236648   5.645   4.855   1.775 -0.2315  0.2647 -0.3864
 5030TIP3    H136649   5.716   4.843   1.839 -0.8506  0.2010  0.3026
 5030TIP3    H236650   5.669   4.935   1.728  0.6932 -0.1842 -0.6909
 5031TIP3   OH236651   4.276   0.407   1.463  0.2253 -0.1440 -0.2269
 5031TIP3    H136652   4.323   0.390   1.545 -0.3409  1.5517  0.5046
 5031TIP3    H236653   4.234   0.324   1.442  1.4083 -0.9627  0.5154
 5032TIP3   OH236654   1.103   5.725   8.740 -0.9468  0.4859  0.6021
 5032TIP3    H136655   1.040   5.697   8.674 -3.0612 -2.9013  3.6846
 5032TIP3    H236656   1.187   5.691   8.709 -1.4640  0.7773 -1.2282
 5033TIP3   OH236657   4.773   0.384   0.106 -0.0249  0.2971  0.1568
 5033TIP3    H136658   4.694   0.392   0.053  0.2962  0.2821 -0.3421
 5033TIP3    H236659   4.839   0.352   0.044  1.0987  2.9945 -0.1877
 5034TIP3   OH236660   1.121   6.588   8.752 -0.2037 -0.0926  0.2225
 5034TIP3    H136661   1.206   6.626   8.774  0.8434 -2.3057  0.2559
 5034TIP3    H236662   1.142   6.501   8.719 -2.1776  0.5877 -3.3634
 5035TIP3   OH236663   2.273   5.689   0.361  0.2935 -0.1162 -0.1012
 5035TIP3    H136664   2.266   5.595   0.379 -0.0906 -0.6066 -2.5096
 5035TIP3    H236665   2.366   5.709   0.374  0.2573 -0.6514  1.1024
 5036TIP3   OH236666   1.564   2.694   1.567 -0.2084  0.1951 -1.0553
 5036TIP3    H136667   1.625   2.620   1.572 -0.9455 -0.3325  1.1214
 5036TIP3    H236668   1.582   2.745   1.646 -0.7295  1.5488 -1.7776
 5037TIP3   OH236669   0.875   1.551   8.337 -0.2502  0.3911  0.2348
 5037TIP3    H136670   0.867   1.523   8.428 -0.9449 -0.9890 -0.2190
 5037TIP3    H236671   0.791   1.594   8.318  0.8326  3.0166  0.9473
 5038TIP3   OH236672   6.029   2.664   0.407  0.1052  0.2049 -0.3197
 5038TIP3    H136673   6.048   2.576   0.439  1.7909  0.1658 -1.3136
 5038TIP3    H236674   6.010   2.714   0.486  0.8065 -0.6566  0.4204
 5039TIP3   OH236675   3.247   5.872   0.783 -0.0117  0.4670  0.5507
 5039TIP3    H136676   3.264   5.881   0.689  0.8323 -1.5778  0.4506
 5039TIP3    H236677   3.155   5.896   0.793 -0.2556  0.2300 -0.8985
 5040TIP3   OH236678   3.482   0.830   6.919  0.0685 -0.0983  0.0512
 5040TIP3    H136679   3.497   0.833   6.824 -1.1830 -0.9523 -0.1956
 5040TIP3    H236680   3.527   0.750   6.947 -0.3416 -0.3440  0.0167
 5041TIP3   OH236681   6.568   2.065   1.229 -0.4879 -0.0520 -0.4232
 5041TIP3    H136682   6.574   2.008   1.152  0.6681 -0.5976  0.0470
 5041TIP3    H236683   6.647   2.045   1.280 -1.6867 -0.4086  1.3919
 5042TIP3   OH236684   0.636   5.441   0.290  0.3114  0.0192  0.1740
 5042TIP3    H136685   0.578   5.383   0.339  1.9102 -1.0720  0.8677
 5042TIP3    H236686   0.582   5.474   0.218 -1.4760 -0.0407  1.4254
 5043TIP3   OH236687   5.305   2.559   8.397 -0.3637  0.8142  0.4313
 5043TIP3    H136688   5.223   2.577   8.351 -1.1700 -0.5111  1.2672
 5043TIP3    H236689   5.283   2.573   8.490  1.1928  3.3587  0.5104
 5044TIP3   OH236690   3.734   0.954   8.324 -0.0473 -0.4634 -0.2631
 5044TIP3    H136691   3.757   1.015   8.394  0.2732 -2.0314  1.0600
 5044TIP3    H236692   3.790   0.878   8.339 -0.2898 -1.0240 -1.9800
 5045TIP3   OH236693   6.338   4.588   6.867  0.8403 -0.3291 -0.5211
 5045TIP3    H136694   6.299   4.618   6.785  1.1553  2.8064  0.3282
 5045TIP3    H236695   6.431   4.613   6.860  0.9593 -0.4065  0.5946
 5046TIP3   OH236696   4.933   0.660   6.548 -0.1400 -0.1869 -0.0890
 5046TIP3    H136697   4.920   0.727   6.616  0.1262 -1.3381  1.1556
 5046TIP3    H236698   5.001   0.696   6.491  2.3749 -0.6303  2.3892
 5047TIP3   OH236699   1.154   6.776   8.427  0.5145  0.2820  0.1441
 5047TIP3    H136700   1.074   6.801   8.382  0.4915 -1.0564 -0.6109
 5047TIP3    H236701   1.162   6.838   8.499 -1.4539  0.1410  0.5142
 5048TIP3   OH236702   4.926   3.224   6.788  0.2683 -0.1675 -0.1510
 5048TIP3    H136703   5.008   3.177   6.772 -0.9039 -2.1300 -0.8399
 5048TIP3    H236704   4.861   3.177   6.735 -1.6624  0.1397  1.7965
 5049TIP3   OH236705   6.478   0.702   6.679  0.1310 -0.5223  0.1829
 5049TIP3    H136706   6.563   0.746   6.685 -1.1139  1.9312  0.5655
 5049TIP3    H236707   6.472   0.675   6.587  0.1365  1.8591 -0.5619
 5050TIP3   OH236708   2.521   2.769   6.995  0.1566  0.0256  0.1898
 5050TIP3    H136709   2.557   2.839   6.940  0.4067  0.5614  1.0261
 5050TIP3    H236710   2.505   2.697   6.934 -4.1782  2.1226 -1.6526
 5051TIP3   OH236711   2.002   1.411   7.814 -0.1295  0.0162  0.0846
 5051TIP3    H136712   2.089   1.452   7.814  0.2000 -0.6654 -0.3709
 5051TIP3    H236713   1.969   1.425   7.903  0.2270  0.7264  0.1145
 5052TIP3   OH236714   0.272   1.577   8.718  0.4426 -0.4512 -0.0884
 5052TIP3    H136715   0.211   1.505   8.733  1.1762 -1.0820 -0.0827
 5052TIP3    H236716   0.235   1.623   8.643 -0.4673 -0.3373  0.4010
 5053TIP3   OH236717   4.388   0.800   7.487  0.0978  0.0666 -0.3658
 5053TIP3    H136718   4.363   0.736   7.420  0.8354  0.8672 -1.4324
 5053TIP3    H236719   4.383   0.751   7.569 -0.9799 -0.8975 -0.9659
 5054TIP3   OH236720   3.923   0.269   2.287 -0.1131 -0.4705 -0.2180
 5054TIP3    H136721   3.945   0.316   2.206  1.2146  1.2433  1.0687
 5054TIP3    H236722   3.963   0.321   2.357 -1.2736 -1.8636  1.5722
 5055TIP3   OH236723   4.023   2.104   6.763  0.1420 -0.9192  0.1091
 5055TIP3    H136724   3.965   2.136   6.694  0.6348  0.0798  0.1329
 5055TIP3    H236725   3.971   2.039   6.810 -1.1833  0.3539  0.4853
 5056TIP3   OH236726   1.899   5.676   6.211 -0.2046 -0.0536  0.6132
 5056TIP3    H136727   1.873   5.660   6.301  2.4661 -2.3986  1.1031
 5056TIP3    H236728   1.853   5.757   6.187 -1.4744  0.3331  3.8175
 5057TIP3   OH236729   6.443   3.181   7.310  0.1337 -0.0644  0.4505
 5057TIP3    H136730   6.488   3.165   7.393  0.5711  2.0065  0.6512
 5057TIP3    H236731   6.503   3.148   7.243  0.4208 -0.4107  0.8717
 5058TIP3   OH236732   5.366   4.836   1.686  0.4320 -0.2149  0.3136
 5058TIP3    H136733   5.444   4.855   1.738 -0.5411 -2.0919  2.6987
 5058TIP3    H236734   5.309   4.912   1.699  0.3705 -0.4755  1.7623
 5059TIP3   OH236735   2.194   5.951   0.136  0.0412  0.5947 -0.0913
 5059TIP3    H136736   2.196   5.856   0.120  0.1307  0.6980 -0.7418
 5059TIP3    H236737   2.254   5.964   0.209 -1.4641 -0.0758  1.3221
 5060TIP3   OH236738   5.235   5.840   1.759  0.2088 -0.6180 -0.6132
 5060TIP3    H136739   5.282   5.839   1.676  0.4276 -0.6161 -0.4886
 5060TIP3    H236740   5.281   5.776   1.814 -0.3620 -1.1355 -0.7282
 5061TIP3   OH236741   0.562   3.331   0.562  0.0517  0.7307 -0.0700
 5061TIP3    H136742   0.485   3.368   0.604  0.0650  1.3499 -0.5773
 5061TIP3    H236743   0.541   3.238   0.551 -1.0315  1.0775 -1.1052
 5062TIP3   OH236744   4.047   4.329   8.539  0.7375  0.0129  0.1517
 5062TIP3    H136745   4.114   4.261   8.543  0.4780 -0.2019  1.0469
 5062TIP3    H236746   4.033   4.343   8.446 -0.0777 -2.0445 -0.1031
 5063TIP3   OH236747   5.114   3.653   1.127 -0.1538  0.3027 -0.0965
 5063TIP3    H136748   5.022   3.676   1.144 -0.1700  0.9537 -1.0092
 5063TIP3    H236749   5.156   3.737   1.108  0.2675 -0.1658 -1.2923
 5064TIP3   OH236750   2.869   1.082   0.255 -0.3989 -0.1959  0.0922
 5064TIP3    H136751   2.893   1.003   0.208 -2.7483 -1.0445  0.1698
 5064TIP3    H236752   2.834   1.051   0.338 -0.4177  0.9979  0.5500
 5065TIP3   OH236753   6.680   0.173   0.109 -0.3118 -0.3655 -0.4000
 5065TIP3    H136754   6.724   0.112   0.049  0.5024  0.9179 -1.1520
 5065TIP3    H236755   6.751   0.225   0.146 -1.1240  1.6583 -1.5247
 5066TIP3   OH236756   3.101   6.551   7.900 -0.2328  0.0254  0.5775
 5066TIP3    H136757   3.069   6.470   7.860  1.0613 -0.9310  1.3991
 5066TIP3    H236758   3.023   6.605   7.910 -0.7349  0.1286 -2.6713
 5067TIP3   OH236759   2.079   1.259   7.599  0.2924  0.3256 -0.0485
 5067TIP3    H136760   2.075   1.318   7.524 -0.1668 -0.0066 -0.2923
 5067TIP3    H236761   2.059   1.315   7.674  2.6595  1.0677  0.0851
 5068TIP3   OH236762   4.146   0.951   7.351  0.1320 -0.5525 -0.0095
 5068TIP3    H136763   4.178   0.885   7.412  2.3715 -1.1424 -1.6943
 5068TIP3    H236764   4.207   1.025   7.362  0.4008 -0.5603 -1.2893
 5069TIP3   OH236765   2.670   1.210   6.854 -0.1229  0.0072 -0.1695
 5069TIP3    H136766   2.755   1.175   6.828 -0.2142 -0.6041  0.3201
 5069TIP3    H236767   2.677   1.304   6.841  0.1616 -0.1703 -1.4550
 5070TIP3   OH236768   3.250   5.397   6.593 -0.2334  1.1298  0.3361
 5070TIP3    H136769   3.196   5.457   6.542  0.7659  1.8284  0.0769
 5070TIP3    H236770   3.292   5.341   6.527  0.2378  1.3350  0.4629
 5071TIP3   OH236771   1.911   2.437   6.706  0.3369 -0.2033 -0.2673
 5071TIP3    H136772   1.903   2.436   6.802  2.3995 -0.7384 -0.0559
 5071TIP3    H236773   1.833   2.390   6.675 -0.8049  0.6987  1.0778
 5072TIP3   OH236774   3.615   1.030   1.060  0.4188  0.4748  0.3430
 5072TIP3    H136775   3.528   1.032   1.099  0.1187 -0.2547 -0.2631
 5072TIP3    H236776   3.656   1.112   1.086 -0.2967  0.6298  0.9838
 5073TIP3   OH236777   6.729   4.255   8.490 -0.5252  0.0643  0.7435
 5073TIP3    H136778   6.732   4.160   8.481  0.7425 -0.0590  2.1683
 5073TIP3    H236779   6.646   4.273   8.533 -1.0213 -0.3390 -0.0281
 5074TIP3   OH236780   4.735   5.763   7.205 -0.6070 -0.4833 -0.3798
 5074TIP3    H136781   4.829   5.756   7.189 -0.6104  0.7741 -1.0913
 5074TIP3    H236782   4.706   5.835   7.149 -2.2053 -1.5540 -1.0080
 5075TIP3   OH236783   2.905   6.434   0.033 -0.5650 -0.4119  0.3906
 5075TIP3    H136784   2.849   6.433  -0.045 -2.0152 -1.8346  1.3851
 5075TIP3    H236785   2.874   6.508   0.084  0.3844  0.5199 -0.3308
 5076TIP3   OH236786   0.379   2.104   7.366  0.7712  0.0451 -0.1426
 5076TIP3    H136787   0.421   2.115   7.280  2.3894 -1.4286  0.4197
 5076TIP3    H236788   0.363   2.010   7.373  0.8954  0.1168  1.2704
 5077TIP3   OH236789   0.739   2.495   8.560  0.1277 -0.4153 -0.2591
 5077TIP3    H136790   0.728   2.410   8.519  1.1597 -0.8324  0.3097
 5077TIP3    H236791   0.833   2.503   8.577  0.0315  0.7690 -0.1640
 5078TIP3   OH236792   1.365   3.756   1.076 -0.4694 -0.1025 -0.3470
 5078TIP3    H136793   1.443   3.789   1.031  0.9815 -3.4464 -0.5474
 5078TIP3    H236794   1.318   3.706   1.010 -0.8376 -1.1280  0.6550
 5079TIP3   OH236795   5.600   0.676   0.835 -0.0656 -0.5160 -0.0736
 5079TIP3    H136796   5.570   0.594   0.876  2.0401 -2.5569 -2.2993
 5079TIP3    H236797   5.696   0.669   0.835  0.1073  0.7521 -2.5510
 5080TIP3   OH236798   0.977   3.897   7.579 -0.6969 -0.0921 -0.0421
 5080TIP3    H136799   0.921   3.860   7.511 -1.5118  0.9818  0.0189
 5080TIP3    H236800   0.937   3.869   7.661 -0.0511 -0.8932  0.0122
 5081TIP3   OH236801   5.509   4.260   1.717 -0.4908 -0.1521  0.0389
 5081TIP3    H136802   5.493   4.302   1.801 -0.9266 -0.1814 -0.0274
 5081TIP3    H236803   5.591   4.299   1.686  0.1701 -0.8092  0.8998
 5082TIP3   OH236804   1.630   3.293   6.841 -0.0163 -0.1481  0.0176
 5082TIP3    H136805   1.656   3.243   6.763 -1.1616  0.5049 -0.8183
 5082TIP3    H236806   1.542   3.260   6.861 -0.0165  0.2035  0.5909
 5083TIP3   OH236807   0.844   2.641   1.193  0.8152 -0.0997 -0.0283
 5083TIP3    H136808   0.882   2.605   1.114  0.7724 -0.6064  0.1804
 5083TIP3    H236809   0.756   2.669   1.167  1.9785  2.9773 -1.0344
 5084TIP3   OH236810   0.482   2.890   0.916  0.1437 -0.7131 -0.2901
 5084TIP3    H136811   0.488   2.811   0.862 -0.4194  0.2238 -1.7923
 5084TIP3    H236812   0.572   2.923   0.921 -0.0950  0.7313 -3.1758
 5085TIP3   OH236813   5.649   5.605   1.026 -0.4119  0.4369 -0.2108
 5085TIP3    H136814   5.721   5.590   0.964  1.1398 -0.0409  1.5925
 5085TIP3    H236815   5.692   5.611   1.111 -2.2783  2.8663  0.6672
 5086TIP3   OH236816   1.803   1.596   6.707  0.4779 -0.6520 -0.4521
 5086TIP3    H136817   1.779   1.546   6.785 -0.2216  0.9588  0.4037
 5086TIP3    H236818   1.814   1.530   6.639 -1.1347 -1.9246  0.4429
 5087TIP3   OH236819   6.257   1.888   7.531  0.1038 -0.1640  0.1687
 5087TIP3    H136820   6.305   1.826   7.476  0.9221 -0.1465  0.8490
 5087TIP3    H236821   6.260   1.850   7.618  0.3216  0.6745  0.5288
 5088TIP3   OH236822   1.472   5.927   7.789 -0.2766  0.2983  0.2766
 5088TIP3    H136823   1.472   5.950   7.696  1.3367 -0.8997 -0.0647
 5088TIP3    H236824   1.447   5.834   7.790 -0.4056  0.3372  1.0609
 5089TIP3   OH236825   4.148   3.160   0.302  0.1014 -0.9050  0.0154
 5089TIP3    H136826   4.170   3.109   0.225  3.3828  1.5738 -0.9125
 5089TIP3    H236827   4.125   3.247   0.268 -0.4982 -0.3621  1.7024
 5090TIP3   OH236828   5.647   5.070   6.523  0.0507 -0.1239 -0.2329
 5090TIP3    H136829   5.652   4.988   6.572 -1.8571  0.2739  0.7340
 5090TIP3    H236830   5.594   5.049   6.447 -0.2798  0.1564 -0.0838
 5091TIP3   OH236831   5.017   1.659   0.025 -0.0411  0.3976  0.0562
 5091TIP3    H136832   4.999   1.681  -0.066  0.8732 -0.1852 -0.2734
 5091TIP3    H236833   4.958   1.715   0.075 -1.9016 -0.6009 -0.9263
 5092TIP3   OH236834   2.506   5.278   6.673 -0.3696 -0.0559 -0.4291
 5092TIP3    H136835   2.501   5.358   6.726 -0.0225  1.0089 -1.9542
 5092TIP3    H236836   2.567   5.299   6.603  2.3120 -2.7178  0.8654
 5093TIP3   OH236837   6.443   2.150   0.548  0.2355 -0.1433 -0.6099
 5093TIP3    H136838   6.510   2.208   0.585  1.0317 -0.9491 -0.7515
 5093TIP3    H236839   6.450   2.070   0.599 -0.3151 -0.4032 -0.9306
 5094TIP3   OH236840   3.334   4.685   8.119 -0.2569 -0.2190 -0.4126
 5094TIP3    H136841   3.428   4.700   8.128 -0.2818 -0.0870 -0.3726
 5094TIP3    H236842   3.327   4.594   8.091 -0.1704 -0.6886  1.0128
 5095TIP3   OH236843   4.199   1.451   1.559 -0.7348 -0.3948  0.5621
 5095TIP3    H136844   4.194   1.427   1.466 -1.2093  1.3978  0.0698
 5095TIP3    H236845   4.180   1.370   1.606 -1.8330 -1.0596 -0.9275
 5096TIP3   OH236846   5.063   3.093   1.052  0.2770  0.6131 -0.1502
 5096TIP3    H136847   4.979   3.084   1.006  0.3166 -0.2787 -0.0641
 5096TIP3    H236848   5.039   3.088   1.145  0.5110 -0.6282 -0.1356
 5097TIP3   OH236849   0.053   5.951   1.802  0.3005 -0.6469 -0.5600
 5097TIP3    H136850   0.045   5.856   1.797  1.3056 -0.8289  0.7808
 5097TIP3    H236851  -0.032   5.981   1.836 -1.7010 -0.5601 -4.9348
 5098TIP3   OH236852   3.603   3.044   7.241 -0.2011  0.2876  0.2029
 5098TIP3    H136853   3.595   3.032   7.335  0.6226 -0.1875  0.2301
 5098TIP3    H236854   3.695   3.069   7.228  0.6939 -2.9201 -0.7375
 5099TIP3   OH236855   1.294   2.137   8.053 -0.5917 -0.4873 -0.1702
 5099TIP3    H136856   1.291   2.194   7.976  0.7312 -0.7098 -0.4153
 5099TIP3    H236857   1.353   2.182   8.114 -1.4419 -0.4306  0.6261
 5100TIP3   OH236858   4.618   6.154   8.733  0.1802 -0.4576 -0.4442
 5100TIP3    H136859   4.562   6.117   8.665 -0.9625 -2.2761  1.3695
 5100TIP3    H236860   4.558   6.208   8.785  0.6626 -0.4491  0.1033
 5101TIP3   OH236861   4.024   4.889   0.037 -0.2835 -0.2279 -0.7864
 5101TIP3    H136862   4.017   4.794   0.033  1.1783 -0.5941  2.2741
 5101TIP3    H236863   4.088   4.911  -0.032  1.8942 -1.9319  0.5607
 5102TIP3   OH236864   4.652   5.599   6.936  0.3483 -0.0121  0.0577
 5102TIP3    H136865   4.710   5.552   6.876 -0.0994 -0.4703 -0.0252
 5102TIP3    H236866   4.708   5.665   6.977  0.2565  1.6587 -2.3134
 5103TIP3   OH236867   1.118   3.190   7.877  0.3686 -0.3060 -0.5047
 5103TIP3    H136868   1.033   3.176   7.919  0.6361 -0.3209  0.0318
 5103TIP3    H236869   1.096   3.217   7.787 -0.2138  0.8333 -0.0348
 5104TIP3   OH236870   4.697   2.780   7.966  0.4805 -0.0957  0.7635
 5104TIP3    H136871   4.748   2.847   8.011 -0.7954  1.6912 -0.3394
 5104TIP3    H236872   4.615   2.823   7.942  0.1307 -1.6659 -1.1393
 5105TIP3   OH236873   1.385   3.386   6.697 -0.0252  0.4111 -0.2641
 5105TIP3    H136874   1.386   3.432   6.781  0.5782 -0.8926  0.4900
 5105TIP3    H236875   1.473   3.397   6.663  0.3757 -0.8084  0.3141
 5106TIP3   OH236876   4.554   1.169   0.680 -0.1510  0.1766  0.9623
 5106TIP3    H136877   4.633   1.160   0.627 -0.4049  0.7095  0.4823
 5106TIP3    H236878   4.502   1.235   0.634 -1.2740 -0.7938  0.7796
 5107TIP3   OH236879   4.633   2.503   8.400 -0.5829  0.3552  0.0876
 5107TIP3    H136880   4.598   2.588   8.426  0.2243  0.4411  0.9168
 5107TIP3    H236881   4.587   2.440   8.454  1.1039  0.5349  1.8223
 5108TIP3   OH236882   5.389   5.503   7.333  0.0064 -0.2157 -0.2520
 5108TIP3    H136883   5.419   5.489   7.423 -0.1359  1.2931  0.0495
 5108TIP3    H236884   5.427   5.587   7.308  1.9281 -1.6085 -2.4296
 5109TIP3   OH236885   1.785   5.798   1.373 -0.5399 -0.1002 -0.0710
 5109TIP3    H136886   1.849   5.751   1.426 -0.0132  1.4324  0.7303
 5109TIP3    H236887   1.713   5.736   1.360  0.0794 -1.0697  0.9807
 5110TIP3   OH236888   2.377   1.681   1.222  0.3799 -0.0619  0.1343
 5110TIP3    H136889   2.321   1.718   1.290  3.0046  0.2561  2.3063
 5110TIP3    H236890   2.430   1.755   1.191  1.0268 -0.7071 -0.3492
 5111TIP3   OH236891   1.192   0.815   0.928  0.2933 -0.0995  0.1435
 5111TIP3    H136892   1.220   0.900   0.895 -0.9225  0.3410  0.2198
 5111TIP3    H236893   1.147   0.834   1.010 -1.3212 -0.6475 -0.5865
 5112TIP3   OH236894   0.667   5.355   8.655 -0.3405  0.7805  0.8391
 5112TIP3    H136895   0.697   5.281   8.707  0.3124  2.2171  2.5589
 5112TIP3    H236896   0.581   5.377   8.692 -0.2651  1.2584  0.7351
 5113TIP3   OH236897   2.455   6.310   6.673  0.4340 -0.1120 -0.5303
 5113TIP3    H136898   2.451   6.231   6.620 -2.1754 -0.3339 -0.1047
 5113TIP3    H236899   2.481   6.279   6.760  1.4388 -0.1940 -0.8494
 5114TIP3   OH236900   5.004   2.950   7.215 -0.0702 -0.0648  0.1802
 5114TIP3    H136901   5.016   2.888   7.143  1.8217 -0.9284  1.1449
 5114TIP3    H236902   5.060   3.024   7.192 -0.2284  0.0890  0.2937
 5115TIP3   OH236903   2.728   0.959   1.274  0.0770 -0.0709 -0.5098
 5115TIP3    H136904   2.665   1.029   1.256 -0.3689 -0.2813  0.2301
 5115TIP3    H236905   2.773   0.947   1.190 -0.9539 -0.0124 -1.0949
 5116TIP3   OH236906   0.462   0.712   8.271 -0.2297  0.0957  0.3525
 5116TIP3    H136907   0.471   0.806   8.258  0.9890 -0.0974 -0.3217
 5116TIP3    H236908   0.544   0.675   8.238 -1.2770 -1.3265 -0.8244
 5117TIP3   OH236909   4.569   0.486   7.171  0.2046  0.2825 -0.0210
 5117TIP3    H136910   4.624   0.523   7.239 -0.0578 -0.2427  0.4867
 5117TIP3    H236911   4.578   0.391   7.181  0.5819  0.1880 -1.0635
 5118TIP3   OH236912   2.760   3.883   0.385 -0.5014 -0.4673 -0.0352
 5118TIP3    H136913   2.789   3.794   0.363 -0.8679 -0.9964  1.5026
 5118TIP3    H236914   2.665   3.880   0.378 -0.6959 -0.8273  1.9984
 5119TIP3   OH236915   5.857   0.543   7.054  0.0829 -0.0864  0.7309
 5119TIP3    H136916   5.771   0.511   7.027  0.2182 -1.2452  1.6075
 5119TIP3    H236917   5.839   0.624   7.101 -0.4254  0.2287  0.0064
 5120TIP3   OH236918   1.709   3.984   8.121  0.5890 -0.5663  0.3579
 5120TIP3    H136919   1.732   3.920   8.189  1.1462  0.6406  1.3427
 5120TIP3    H236920   1.623   4.016   8.147  0.8855  0.0348  0.6216
 5121TIP3   OH236921   2.897   4.895   8.319 -0.1195  0.3896 -0.0346
 5121TIP3    H136922   2.802   4.907   8.308 -0.6399 -3.2373 -0.8794
 5121TIP3    H236923   2.905   4.837   8.394  1.3060 -0.6032 -0.9128
 5122TIP3   OH236924   5.435   3.605   8.605 -0.2830 -0.3153 -0.5696
 5122TIP3    H136925   5.409   3.668   8.537 -0.1670 -0.1521 -0.4642
 5122TIP3    H236926   5.528   3.589   8.588  0.5577  1.9532  1.2779
 5123TIP3   OH236927   3.466   3.287   7.133  0.3845  0.6207  0.4439
 5123TIP3    H136928   3.505   3.224   7.193  0.5555 -0.6341 -0.9318
 5123TIP3    H236929   3.515   3.368   7.148  1.4538 -0.0925  0.9107
 5124TIP3   OH236930   6.049   6.018   8.540  0.0229 -0.4716  0.3231
 5124TIP3    H136931   6.111   5.953   8.573  1.8841  0.1931 -1.6165
 5124TIP3    H236932   6.006   6.053   8.618  2.1227 -0.9448  1.7562
 5125TIP3   OH236933   3.269   2.022   0.908  0.0753  0.4021  0.0077
 5125TIP3    H136934   3.264   2.118   0.911  0.1939  0.3944  1.9619
 5125TIP3    H236935   3.190   1.993   0.954 -0.5036 -0.4920 -1.4868
 5126TIP3   OH236936   3.456   2.828   7.090 -0.0293  0.3938 -0.5070
 5126TIP3    H136937   3.478   2.855   7.001 -0.1973  0.8422 -0.4160
 5126TIP3    H236938   3.496   2.895   7.146  2.5637 -1.3686 -0.0528
 5127TIP3   OH236939   0.445   0.030   7.342 -0.1153  0.7957 -0.0335
 5127TIP3    H136940   0.436   0.124   7.360  0.3913  0.6034  1.3413
 5127TIP3    H236941   0.387   0.014   7.267 -1.0407  2.0061  0.3926
 5128TIP3   OH236942   1.040   1.736   7.301  0.7477 -0.2033 -0.1464
 5128TIP3    H136943   0.955   1.721   7.261  0.9225 -0.6964 -0.3427
 5128TIP3    H236944   1.076   1.649   7.314  1.5748  0.0185 -0.8316
 5129TIP3   OH236945   4.918   0.585   7.828 -0.4935  0.0188 -0.1635
 5129TIP3    H136946   5.004   0.622   7.849 -0.5449  0.5853 -0.9205
 5129TIP3    H236947   4.936   0.517   7.764 -0.7134  1.0140 -1.3224
 5130TIP3   OH236948   6.110   4.983   7.233  0.3794  0.4413 -0.5931
 5130TIP3    H136949   6.038   4.981   7.170  0.7973 -1.4491 -1.0718
 5130TIP3    H236950   6.179   5.033   7.189  0.3413 -0.0911 -1.2766
 5131TIP3   OH236951   3.253   6.317   8.011  0.0292 -0.5935 -0.0709
 5131TIP3    H136952   3.219   6.384   8.069  0.5946 -0.1361 -0.2570
 5131TIP3    H236953   3.213   6.235   8.041  0.5637 -0.4161  1.1638
 5132TIP3   OH236954   4.064   2.872   8.056 -0.4496  0.2155  0.4482
 5132TIP3    H136955   4.088   2.847   7.966 -3.6292  0.5816 -0.6374
 5132TIP3    H236956   4.138   2.925   8.086  0.7831 -0.0008 -1.9255
 5133TIP3   OH236957   3.148   4.595   8.742  0.1333 -0.2945  0.3793
 5133TIP3    H136958   3.198   4.603   8.823  0.9622  0.3922 -0.1829
 5133TIP3    H236959   3.214   4.584   8.673 -0.6015 -2.2590 -0.0727
 5134TIP3   OH236960   5.958   1.256   1.868  0.1042 -0.0211 -0.4145
 5134TIP3    H136961   5.906   1.336   1.880 -0.3381 -0.0642 -1.9579
 5134TIP3    H236962   6.047   1.289   1.850 -0.0565  0.1197 -0.9518
 5135TIP3   OH236963   0.242   6.065   8.037  0.2815 -0.6149 -0.1231
 5135TIP3    H136964   0.156   6.037   8.069  1.0896 -1.5833  1.3250
 5135TIP3    H236965   0.258   6.011   7.960 -0.3241 -0.5316 -0.3169
 5136TIP3   OH236966   3.188   1.995   8.774  0.1976  0.3180  0.1651
 5136TIP3    H136967   3.254   1.986   8.705  1.8225 -0.4515  1.7427
 5136TIP3    H236968   3.173   1.905   8.804 -2.7039  0.2761 -1.0970
 5137TIP3   OH236969   1.726   4.256   0.869  0.4118  0.3403  0.1628
 5137TIP3    H136970   1.806   4.299   0.899 -0.0731  0.5047  1.2687
 5137TIP3    H236971   1.705   4.300   0.786  1.3010  0.4827  0.0036
 5138TIP3   OH236972   2.381   2.426   0.347 -0.6413  0.0221  0.1159
 5138TIP3    H136973   2.374   2.521   0.361  1.9806  0.2429  0.3221
 5138TIP3    H236974   2.425   2.394   0.426  0.3479 -1.0549 -0.8456
 5139TIP3   OH236975   4.681   5.243   6.168  0.0832  0.2940 -0.1437
 5139TIP3    H136976   4.674   5.165   6.224 -1.5481 -0.0879 -0.8253
 5139TIP3    H236977   4.630   5.309   6.214 -0.8375  0.1279 -0.9049
 5140TIP3   OH236978   3.823   1.539   0.898 -0.7031  0.4282  0.0822
 5140TIP3    H136979   3.769   1.587   0.961  0.8166 -0.4087  2.1567
 5140TIP3    H236980   3.783   1.452   0.893  0.4254 -0.2274  1.7042
 5141TIP3   OH236981   0.778   3.349   1.067  0.2213  0.2900  0.1444
 5141TIP3    H136982   0.730   3.266   1.068  0.6665  0.0221  1.6173
 5141TIP3    H236983   0.775   3.377   0.975 -2.4425  0.1285  0.0810
 5142TIP3   OH236984   2.937   3.319   7.074  0.1598 -0.9164  0.5800
 5142TIP3    H136985   3.032   3.312   7.068  0.1576  0.2911 -1.3596
 5142TIP3    H236986   2.921   3.336   7.167  2.0298  1.2580  0.5781
 5143TIP3   OH236987   3.984   5.627   0.489  0.0313  0.1395 -0.5862
 5143TIP3    H136988   3.956   5.580   0.410 -2.0335  2.5050 -1.3988
 5143TIP3    H236989   3.943   5.713   0.481  2.4185  1.5994  1.5308
 5144TIP3   OH236990   4.860   4.298   0.597  0.1855  0.4241 -0.0531
 5144TIP3    H136991   4.846   4.210   0.632 -0.4475 -0.2463 -1.9087
 5144TIP3    H236992   4.934   4.290   0.538  1.0387  1.4728  0.8168
 5145TIP3   OH236993   0.558   4.354   0.330  0.0354 -0.1979 -0.3319
 5145TIP3    H136994   0.600   4.429   0.374  0.0373 -0.0513 -0.5839
 5145TIP3    H236995   0.499   4.393   0.266 -0.3891 -0.4076 -0.0746
 5146TIP3   OH236996   1.386   1.029   6.360  0.0612 -0.1220 -0.2816
 5146TIP3    H136997   1.321   0.993   6.300 -0.2203  1.1488 -0.7798
 5146TIP3    H236998   1.453   1.066   6.303 -1.4091  3.3472  0.0153
 5147TIP3   OH236999   1.588   2.361   7.368  0.3366 -0.1362 -0.0924
 5147TIP3    H137000   1.650   2.302   7.410 -2.4763 -2.3138  1.3240
 5147TIP3    H237001   1.587   2.333   7.276  1.1637 -0.3239 -0.0510
 5148TIP3   OH237002   5.749   6.104   8.137  0.1664 -0.6452 -0.4796
 5148TIP3    H137003   5.793   6.106   8.222  1.9123  0.8730 -1.3553
 5148TIP3    H237004   5.663   6.065   8.155  0.9622 -1.5109  1.7299
 5149TIP3   OH237005   0.093   1.197   0.585  0.3268  0.6469  0.2986
 5149TIP3    H137006   0.060   1.116   0.625  0.5423  2.1144  3.8358
 5149TIP3    H237007   0.031   1.214   0.514 -1.6652 -0.9782  1.4920
 5150TIP3   OH237008   4.310   3.012   8.739  0.3012  0.1749 -0.6014
 5150TIP3    H137009   4.354   3.097   8.725  0.9626  0.0987  0.8601
 5150TIP3    H237010   4.372   2.948   8.705  0.6817  0.1636  0.0965
 5151TIP3   OH237011   3.121   2.239   8.596  0.1560  0.6353  0.3522
 5151TIP3    H137012   3.215   2.257   8.585  0.4012 -0.3082  0.8091
 5151TIP3    H237013   3.114   2.201   8.684 -0.7837  1.5112  0.6729
 5152TIP3   OH237014   5.890   4.098   7.358  0.6330  0.0117  0.4993
 5152TIP3    H137015   5.889   4.004   7.337  2.1864  0.0406  0.1806
 5152TIP3    H237016   5.979   4.114   7.389  1.3780  1.9618 -2.2677
 5153TIP3   OH237017   5.258   1.761   8.499  0.5856 -0.0075 -0.9325
 5153TIP3    H137018   5.351   1.783   8.498  0.8986 -0.9804  1.0431
 5153TIP3    H237019   5.215   1.840   8.533  0.7860  0.1459 -1.0333
 5154TIP3   OH237020   6.132   1.121   7.502 -0.5068 -0.5250  0.5003
 5154TIP3    H137021   6.223   1.117   7.530 -0.4309 -0.0222  0.3220
 5154TIP3    H237022   6.092   1.043   7.541  0.0668 -0.9199  0.3227
 5155TIP3   OH237023   3.198   1.668   6.930  0.2380 -0.0435  0.0690
 5155TIP3    H137024   3.256   1.600   6.964  1.1547  1.1205  0.9290
 5155TIP3    H237025   3.144   1.624   6.864  0.4144 -1.7108  0.9948
 5156TIP3   OH237026   1.132   3.537   0.984 -0.0228 -1.1371 -0.0143
 5156TIP3    H137027   1.101   3.622   1.017  0.0532 -0.4713 -1.5974
 5156TIP3    H237028   1.192   3.559   0.913 -1.2997 -2.5352 -1.5850
 5157TIP3   OH237029   2.716   3.034   8.027  0.0216 -0.0523  0.3500
 5157TIP3    H137030   2.665   3.048   7.948  2.6648 -2.0682 -1.9678
 5157TIP3    H237031   2.670   2.964   8.073 -0.2448 -0.6675 -0.8003
 5158TIP3   OH237032   0.962   4.625   1.786 -0.3327  0.0994 -0.3550
 5158TIP3    H137033   1.014   4.704   1.800 -0.1983  0.0280 -0.4588
 5158TIP3    H237034   1.026   4.554   1.784 -0.4761 -0.0464  0.0150
 5159TIP3   OH237035   5.247   1.712   2.342  0.1448  0.0549 -0.0611
 5159TIP3    H137036   5.334   1.671   2.344  0.9993  1.5783 -2.3263
 5159TIP3    H237037   5.249   1.775   2.414  1.7140  1.4825 -1.2831
 5160TIP3   OH237038   2.230   1.262   8.526 -0.1259 -0.0283  0.3024
 5160TIP3    H137039   2.210   1.172   8.552 -0.9646  0.4272  1.3254
 5160TIP3    H237040   2.280   1.254   8.445  0.2564 -1.4271  0.6628
 5161TIP3   OH237041   0.863   6.402   2.064  0.9175 -0.2619 -0.0413
 5161TIP3    H137042   0.888   6.310   2.065  0.6240 -0.3672  2.0838
 5161TIP3    H237043   0.805   6.413   2.140  1.0880  1.7032 -0.1222
 5162TIP3   OH237044   6.282   2.865   7.177 -0.8627 -0.0663 -0.3424
 5162TIP3    H137045   6.193   2.890   7.204 -0.1584  1.9960  0.2943
 5162TIP3    H237046   6.274   2.846   7.083 -1.7307  1.6235 -0.6546
 5163TIP3   OH237047   3.837   6.219   8.166 -0.4499  0.2607  0.6739
 5163TIP3    H137048   3.768   6.270   8.209 -2.7674 -0.8668 -1.4447
 5163TIP3    H237049   3.819   6.129   8.190  1.5845  0.0706  1.6966
 5164TIP3   OH237050   0.227   5.344   0.089 -0.2502 -0.5607 -0.3009
 5164TIP3    H137051   0.194   5.433   0.103 -0.7195 -0.6324 -0.9333
 5164TIP3    H237052   0.207   5.299   0.172 -2.5461 -0.8314 -0.9337
 5165TIP3   OH237053   5.078   1.947   1.216 -0.3600 -0.3405 -0.0199
 5165TIP3    H137054   5.026   1.873   1.188 -2.9979  1.1363  0.6540
 5165TIP3    H237055   5.104   1.991   1.135 -2.6926  0.4783 -0.3959
 5166TIP3   OH237056   2.274   3.135   6.859 -0.6504  0.5728 -0.5597
 5166TIP3    H137057   2.287   3.060   6.801  0.3855  0.6158 -0.4055
 5166TIP3    H237058   2.237   3.203   6.802  1.5942  1.0703 -1.5478
 5167TIP3   OH237059   5.780   2.928   7.281 -0.4625  0.1041  0.0199
 5167TIP3    H137060   5.695   2.930   7.237 -0.2877  1.2127 -0.2842
 5167TIP3    H237061   5.774   2.852   7.340 -1.5666  0.0194 -0.1756
 5168TIP3   OH237062   0.927   1.141   1.494 -0.5047 -0.7097 -0.2483
 5168TIP3    H137063   0.995   1.117   1.557 -0.8335  0.7628  0.7406
 5168TIP3    H237064   0.898   1.058   1.456  0.9957 -1.4628  0.1963
 5169TIP3   OH237065   0.259   2.323   8.419 -0.1251  0.0438 -0.4906
 5169TIP3    H137066   0.308   2.405   8.434 -1.0188  0.4663  0.1904
 5169TIP3    H237067   0.326   2.260   8.393  0.8770  0.4858  0.8780
 5170TIP3   OH237068   3.034   1.428   0.690  0.1327  0.2604  0.0114
 5170TIP3    H137069   3.028   1.501   0.752 -0.4705  2.3349 -2.3288
 5170TIP3    H237070   3.124   1.396   0.699 -0.1094  0.0128  2.3556
 5171TIP3   OH237071   2.160   4.378   7.135  0.4062  0.3298  0.1692
 5171TIP3    H137072   2.219   4.391   7.209 -0.6420  1.2392  0.8737
 5171TIP3    H237073   2.215   4.337   7.068  1.8754  1.2827  0.7386
 5172TIP3   OH237074   1.779   1.284   8.333 -0.2539  0.0151 -0.0418
 5172TIP3    H137075   1.851   1.255   8.390  0.6204  2.2406  0.1004
 5172TIP3    H237076   1.816   1.282   8.245 -0.2594  0.4243 -0.0558
 5173TIP3   OH237077   1.783   2.643   7.167 -1.1961 -0.2651  0.0435
 5173TIP3    H137078   1.826   2.558   7.153 -1.2011 -0.1444 -0.7526
 5173TIP3    H237079   1.724   2.652   7.092 -0.3188  0.9842 -0.5325
 5174TIP3   OH237080   5.413   5.589   0.174 -0.2701 -0.0064 -0.0343
 5174TIP3    H137081   5.357   5.521   0.137  0.0741  0.4476 -1.4407
 5174TIP3    H237082   5.450   5.549   0.253 -1.9994 -0.5563  0.5421
 5175TIP3   OH237083   4.073   1.506   7.887  0.2015 -0.5228  0.3298
 5175TIP3    H137084   4.133   1.542   7.953  1.6269 -0.3233 -1.0154
 5175TIP3    H237085   4.126   1.498   7.808 -0.9438 -2.5775 -0.3016
 5176TIP3   OH237086   2.760   6.062   6.834 -0.1682  0.0294 -0.0037
 5176TIP3    H137087   2.709   5.987   6.802 -1.0890  0.4712  0.3645
 5176TIP3    H237088   2.694   6.131   6.848  0.8074  1.3067 -1.4415
 5177TIP3   OH237089   1.755   1.830   8.219  0.3965 -0.0798  0.5298
 5177TIP3    H137090   1.706   1.799   8.142 -0.3489  0.3773  0.8112
 5177TIP3    H237091   1.702   1.803   8.293  0.4209  0.6786  0.8297
 5178TIP3   OH237092   6.219   0.375   7.517 -0.3129 -0.2849  0.3045
 5178TIP3    H137093   6.228   0.470   7.504 -0.0732 -0.5673 -2.0640
 5178TIP3    H237094   6.225   0.339   7.429 -0.1606 -2.5474  1.1955
 5179TIP3   OH237095   3.883   0.152   7.742  0.5864 -0.3479  0.6040
 5179TIP3    H137096   3.957   0.211   7.733 -0.5390  1.2480  1.4267
 5179TIP3    H237097   3.817   0.186   7.681  0.3398 -1.5016  0.1855
 5180TIP3   OH237098   1.098   2.144   0.995  0.1947 -0.2903 -0.3993
 5180TIP3    H137099   1.138   2.227   1.017 -0.5902  0.0723 -0.2994
 5180TIP3    H237100   1.012   2.167   0.958  0.5938 -0.9824 -1.8267
 5181TIP3   OH237101   0.438   4.152   7.653 -0.3599 -0.5752 -0.5389
 5181TIP3    H137102   0.515   4.104   7.625 -0.5178 -0.2003 -1.6610
 5181TIP3    H237103   0.385   4.087   7.701  0.7523 -0.7614  0.4837
 5182TIP3   OH237104   2.472   6.038   1.619  0.6657 -0.8442  0.0807
 5182TIP3    H137105   2.512   5.974   1.560  2.0497 -0.4366  0.5502
 5182TIP3    H237106   2.416   6.091   1.562 -0.3256 -2.2944 -0.3500
 5183TIP3   OH237107   2.640   1.154   8.615 -0.1705  0.4055  0.1133
 5183TIP3    H137108   2.595   1.070   8.609 -0.4917  0.6927 -2.8916
 5183TIP3    H237109   2.713   1.147   8.554  1.8657  1.2000  2.2970
 5184TIP3   OH237110   1.611   2.953   6.848 -0.2829  0.3272 -0.3947
 5184TIP3    H137111   1.559   3.022   6.889 -0.0831  0.4888 -0.4132
 5184TIP3    H237112   1.691   2.997   6.818 -0.1451  0.0843 -0.3870
 5185TIP3   OH237113   3.664   1.432   7.032 -0.0965 -0.8435  0.3914
 5185TIP3    H137114   3.571   1.415   7.015 -0.1300 -1.9790  1.5342
 5185TIP3    H237115   3.695   1.478   6.954 -1.7828  0.1900  0.2749
 5186TIP3   OH237116   3.485   4.612   2.221  0.7085 -0.2324 -0.2623
 5186TIP3    H137117   3.483   4.581   2.130  1.0564  0.5065 -0.5341
 5186TIP3    H237118   3.560   4.566   2.260  4.0811  3.2873 -1.8632
 5187TIP3   OH237119   4.955   3.867   8.186  0.7567  0.5178 -0.1563
 5187TIP3    H137120   4.938   3.852   8.279  0.0855 -1.2723 -0.5373
 5187TIP3    H237121   5.041   3.828   8.171 -0.1607 -1.3875 -0.7474
 5188TIP3   OH237122   3.614   3.833   1.227 -0.2936  0.2796  0.0754
 5188TIP3    H137123   3.705   3.859   1.209  0.7139 -1.4774  2.1878
 5188TIP3    H237124   3.589   3.780   1.151  0.7767  0.0778 -0.1545
 5189TIP3   OH237125   2.664   2.271   8.647  0.6239 -0.4566  0.4514
 5189TIP3    H137126   2.666   2.245   8.738 -0.0006  0.7431  0.8345
 5189TIP3    H237127   2.750   2.246   8.612  1.1832 -0.1672  1.5893
 5190TIP3   OH237128   3.550   5.452   8.134  0.7072  0.4129  0.1623
 5190TIP3    H137129   3.497   5.402   8.197 -0.2922  1.8231  0.4813
 5190TIP3    H237130   3.614   5.389   8.102 -0.8865 -1.2535  0.0845
 5191TIP3   OH237131   1.839   4.220   1.248  0.0131  0.1181  0.1396
 5191TIP3    H137132   1.826   4.301   1.198 -0.5798 -0.7733 -1.1957
 5191TIP3    H237133   1.932   4.223   1.273  0.5251  0.2665 -1.6523
 5192TIP3   OH237134   5.058   2.170   7.636 -0.4616 -0.4517 -0.2170
 5192TIP3    H137135   5.064   2.253   7.589 -0.9735 -1.4230 -2.1172
 5192TIP3    H237136   5.109   2.184   7.716  3.2504  0.3526 -2.4834
 5193TIP3   OH237137   2.769   5.144   8.221  0.3942  0.2374 -0.0587
 5193TIP3    H137138   2.751   5.150   8.315  1.3427  4.3621  0.0840
 5193TIP3    H237139   2.859   5.112   8.216 -0.2738 -1.8377  0.2450
 5194TIP3   OH237140   0.473   4.885   0.618  0.4021 -0.2970 -0.3470
 5194TIP3    H137141   0.396   4.928   0.654 -1.3437 -1.2607 -2.6782
 5194TIP3    H237142   0.518   4.848   0.694  0.7376  3.4811  1.5156
 5195TIP3   OH237143   1.624   4.696   6.463  0.5036  0.1206  0.1318
 5195TIP3    H137144   1.638   4.611   6.506 -3.5788 -0.5396  0.5674
 5195TIP3    H237145   1.651   4.681   6.372  1.1523 -1.1986  0.5053
 5196TIP3   OH237146   2.232   6.375   8.179 -0.4047 -0.3891 -0.3439
 5196TIP3    H137147   2.242   6.281   8.196  3.2337  0.1993  1.8150
 5196TIP3    H237148   2.183   6.408   8.254  0.1072 -0.3163 -0.0340
 5197TIP3   OH237149   4.910   5.005   8.410 -0.2466 -0.1364  0.1668
 5197TIP3    H137150   4.915   5.099   8.429 -1.3449 -0.0244 -0.0437
 5197TIP3    H237151   4.945   4.997   8.321  0.6263 -0.0456  0.4957
 5198TIP3   OH237152   1.771   1.364   0.537 -0.0612 -0.2171 -0.2299
 5198TIP3    H137153   1.709   1.434   0.516 -0.0438 -0.4135 -0.9523
 5198TIP3    H237154   1.855   1.409   0.547 -0.4553  0.1988  1.7596
 5199TIP3   OH237155   5.312   1.252   8.032  0.0149  0.1378  0.6303
 5199TIP3    H137156   5.401   1.255   7.998  0.1946  0.1296  1.0946
 5199TIP3    H237157   5.257   1.250   7.954  0.3705  1.4596  0.3051
 5200TIP3   OH237158   0.534   6.565   7.906  0.2010 -0.4306 -0.4052
 5200TIP3    H137159   0.592   6.521   7.844  0.0724 -1.4891  0.2025
 5200TIP3    H237160   0.476   6.496   7.937  0.5184 -0.0190  1.1896
 5201TIP3   OH237161   1.808   5.948   0.249 -0.4375 -0.3210 -0.4366
 5201TIP3    H137162   1.823   5.870   0.302 -1.2766 -2.3039 -2.8781
 5201TIP3    H237163   1.715   5.967   0.260 -0.0242  1.0113  0.9436
 5202TIP3   OH237164   2.109   3.520   0.870  0.1842  0.0037  0.7159
 5202TIP3    H137165   2.096   3.426   0.855  0.5078 -0.2330  1.8029
 5202TIP3    H237166   2.199   3.527   0.900  0.6961  0.8829 -0.9353
 5203TIP3   OH237167   1.234   0.932   7.961 -0.0989  0.1668  0.1939
 5203TIP3    H137168   1.139   0.923   7.969 -0.1828  1.1884  0.6010
 5203TIP3    H237169   1.269   0.845   7.982 -0.9572 -0.3120 -0.3273
 5204TIP3   OH237170   1.735   3.158   2.294 -0.4484 -0.3924  0.5756
 5204TIP3    H137171   1.724   3.247   2.327  0.6251 -0.3968  0.9905
 5204TIP3    H237172   1.646   3.127   2.277 -0.8456  2.2915 -3.7210
 5205TIP3   OH237173   1.041   2.489   8.492  0.1932 -0.2401  0.0885
 5205TIP3    H137174   1.047   2.531   8.578 -0.5972  1.7791 -0.7832
 5205TIP3    H237175   1.105   2.535   8.439 -0.8656  0.0298 -0.9766
 5206TIP3   OH237176   5.397   0.010   6.834  0.2249 -0.1666  0.1819
 5206TIP3    H137177   5.383  -0.008   6.741  1.4531 -1.3253  0.1967
 5206TIP3    H237178   5.350   0.092   6.850  1.1742  0.8258 -1.7883
 5207TIP3   OH237179   3.105   1.366   7.456 -0.5815  0.1652  0.7456
 5207TIP3    H137180   3.112   1.454   7.418 -1.9398  0.5017  1.2222
 5207TIP3    H237181   3.194   1.347   7.488 -0.1552  1.1481  0.1894
 5208TIP3   OH237182   4.969   3.584   7.588 -0.1302  0.0130  0.3781
 5208TIP3    H137183   5.014   3.667   7.572 -0.7610  0.3074  0.0670
 5208TIP3    H237184   5.029   3.517   7.555 -0.6937  0.5025 -1.8078
 5209TIP3   OH237185   3.450   6.570   8.754 -0.4238 -0.0157 -0.5220
 5209TIP3    H137186   3.384   6.596   8.819 -0.9106 -1.6420 -0.3150
 5209TIP3    H237187   3.426   6.619   8.675 -2.1638 -0.8287 -0.5636
 5210TIP3   OH237188   6.022   2.628   1.589  0.4152  0.3780  0.4609
 5210TIP3    H137189   6.079   2.570   1.539  2.9881  2.6311  0.5595
 5210TIP3    H237190   5.943   2.635   1.536  1.4278 -0.4967 -1.2637
 5211TIP3   OH237191   3.374   1.661   0.151  0.2608 -0.0163 -0.2193
 5211TIP3    H137192   3.436   1.589   0.164  0.0010 -0.1855  0.1193
 5211TIP3    H237193   3.429   1.736   0.131  0.6947  0.1710  1.5003
 5212TIP3   OH237194   2.077   5.384   1.474  0.3164  0.3178  0.1348
 5212TIP3    H137195   1.989   5.349   1.460  0.8263 -1.1268  0.3495
 5212TIP3    H237196   2.107   5.410   1.388  0.1235 -0.3207 -0.1311
 5213TIP3   OH237197   4.311   0.582   0.189 -0.2145  0.0320  0.4865
 5213TIP3    H137198   4.365   0.506   0.212  0.3588  0.0017 -0.8542
 5213TIP3    H237199   4.256   0.596   0.266  0.6382 -0.8826  1.2984
 5214TIP3   OH237200   1.030   4.353   8.331 -0.1292 -0.5614 -0.2271
 5214TIP3    H137201   1.097   4.344   8.398 -0.4317 -0.3903  0.1028
 5214TIP3    H237202   1.009   4.264   8.305  2.7809 -0.6225 -2.9424
 5215TIP3   OH237203   6.459   1.341   8.304 -0.0046  0.6055  0.4522
 5215TIP3    H137204   6.378   1.390   8.307 -2.0034 -2.0186 -3.1495
 5215TIP3    H237205   6.449   1.273   8.371 -0.5541  0.5982  0.3609
 5216TIP3   OH237206   0.972   4.018   0.061 -0.3981  0.0348  0.6412
 5216TIP3    H137207   0.985   3.973   0.144 -0.5500  0.0629  0.6808
 5216TIP3    H237208   0.974   4.111   0.084  0.4078  0.0604  0.4869
 5217TIP3   OH237209   6.479   3.590   1.067 -0.0569 -0.0175 -0.1144
 5217TIP3    H137210   6.410   3.652   1.088 -0.2862 -0.5792  0.8739
 5217TIP3    H237211   6.557   3.625   1.110 -0.2383 -0.5137  0.6405
 5218TIP3   OH237212   4.937   3.715   7.259  0.2589  0.2912  0.4408
 5218TIP3    H137213   5.025   3.727   7.294 -0.1218 -2.1532  2.5101
 5218TIP3    H237214   4.880   3.759   7.321 -0.1758 -0.9343  0.9297
 5219TIP3   OH237215   2.988   2.226   7.311 -0.3311 -0.4676  0.2355
 5219TIP3    H137216   2.963   2.230   7.218 -1.5689  2.1040  0.5864
 5219TIP3    H237217   3.079   2.253   7.312  0.9771 -4.2505 -0.4964
 5220TIP3   OH237218   3.797   6.595   0.806 -0.4840 -0.4076  0.5143
 5220TIP3    H137219   3.838   6.681   0.807 -0.6181 -0.3477  1.1669
 5220TIP3    H237220   3.825   6.556   0.723  0.0098  0.0496  0.4633
 5221TIP3   OH237221   6.312   0.310   1.506  0.2778  0.1043 -0.1623
 5221TIP3    H137222   6.235   0.324   1.452 -0.5877 -0.6819  0.8359
 5221TIP3    H237223   6.314   0.216   1.521  0.8422  0.2411  0.6836
 5222TIP3   OH237224   3.631   3.057   8.560  0.2880 -0.3035 -0.1558
 5222TIP3    H137225   3.618   2.968   8.528  2.7467 -0.8753  0.2536
 5222TIP3    H237226   3.569   3.065   8.633 -1.8472 -0.6845 -1.8083
 5223TIP3   OH237227   2.470   0.899   7.185  0.2919  0.2008 -0.5203
 5223TIP3    H137228   2.493   0.902   7.092  1.1767 -0.8272 -0.3577
 5223TIP3    H237229   2.554   0.895   7.230 -0.1051  1.4549  0.3817
 5224TIP3   OH237230   6.747   1.875   0.590 -0.0304 -0.2684  0.4282
 5224TIP3    H137231   6.752   1.965   0.622 -0.2491  0.5324 -1.5930
 5224TIP3    H237232   6.659   1.846   0.612 -0.7916  0.8974 -0.9471
 5225TIP3   OH237233   4.841   5.894   0.100  0.2346 -0.0119  0.3838
 5225TIP3    H137234   4.875   5.804   0.100  0.0846 -0.0790 -0.8146
 5225TIP3    H237235   4.753   5.886   0.063  0.4675  0.7120 -0.3477
 5226TIP3   OH237236   4.212   3.203   7.580  0.4108 -0.1899 -0.8103
 5226TIP3    H137237   4.179   3.271   7.522 -2.3530 -0.6457  0.0837
 5226TIP3    H237238   4.272   3.248   7.639 -1.7975  1.6648  0.1535
 5227TIP3   OH237239   3.477   2.931   8.339  0.0546 -0.4697  0.2769
 5227TIP3    H137240   3.466   3.026   8.332  0.8680 -0.2002  1.9757
 5227TIP3    H237241   3.570   2.916   8.323  0.0668 -0.8868  0.6992
 5228TIP3   OH237242   1.074   2.269   2.054  0.1888 -0.0492  1.0225
 5228TIP3    H137243   1.085   2.217   2.134  1.1824 -0.0656  0.8864
 5228TIP3    H237244   1.054   2.204   1.986 -1.1236  0.0067  1.3226
 5229TIP3   OH237245   2.244   1.484   8.242  0.5394  0.2391  0.0236
 5229TIP3    H137246   2.211   1.547   8.179  1.3221 -0.7685 -1.4439
 5229TIP3    H237247   2.337   1.476   8.223  0.6376 -0.7017  0.7607
 5230TIP3   OH237248   5.390   1.590   0.726 -0.0933 -0.3639  0.6940
 5230TIP3    H137249   5.341   1.519   0.767 -2.0746  0.7341  0.3883
 5230TIP3    H237250   5.346   1.603   0.642  0.8865  0.5523  0.3031
 5231TIP3   OH237251   5.659   4.574   8.167  0.1998  0.4805  0.2815
 5231TIP3    H137252   5.678   4.550   8.258  0.8031 -1.2821 -0.2645
 5231TIP3    H237253   5.745   4.575   8.125 -0.2408 -0.8516 -0.7256
 5232TIP3   OH237254   0.026   0.708   6.946 -0.5143 -0.3773 -0.3723
 5232TIP3    H137255   0.091   0.645   6.977  0.8954  0.7574 -0.8978
 5232TIP3    H237256   0.004   0.678   6.858 -0.5109 -0.6178 -0.2928
 5233TIP3   OH237257   5.110   1.999   7.355  0.3123  0.1029  0.0559
 5233TIP3    H137258   5.109   2.089   7.324 -2.8911  0.8582  1.8552
 5233TIP3    H237259   5.134   1.947   7.279  0.6871  2.3372 -1.4496
 5234TIP3   OH237260   5.759   3.329   8.375 -0.4206  0.1663 -0.5056
 5234TIP3    H137261   5.767   3.360   8.285 -1.4470 -0.3518 -0.7859
 5234TIP3    H237262   5.837   3.363   8.419  0.6955 -0.5643 -1.8605
 5235TIP3   OH237263   1.248   0.379   6.945  0.4898  0.1184 -0.2031
 5235TIP3    H137264   1.180   0.392   7.011  0.3884 -2.4078  0.2668
 5235TIP3    H237265   1.207   0.323   6.879  1.2325  0.9609 -1.4275
 5236TIP3   OH237266   1.347   4.106   8.334 -0.5701  0.1050  0.1977
 5236TIP3    H137267   1.280   4.105   8.266 -0.6225 -1.8283  0.2276
 5236TIP3    H237268   1.297   4.111   8.416 -0.6196 -0.1180  0.1807
 5237TIP3   OH237269   5.458   1.367   1.182 -0.3109 -0.3439 -0.1563
 5237TIP3    H137270   5.519   1.406   1.120  0.5581 -2.3814 -0.6508
 5237TIP3    H237271   5.472   1.417   1.263  1.0531  0.1191 -0.6407
 5238TIP3   OH237272   1.500   0.647   8.262 -0.1726  0.5280  0.5429
 5238TIP3    H137273   1.489   0.576   8.326 -0.1807 -0.4960 -0.5570
 5238TIP3    H237274   1.411   0.678   8.244 -0.4062 -0.7116 -0.6128
 5239TIP3   OH237275   3.808   1.243   7.315 -0.2814 -0.3797  0.0972
 5239TIP3    H137276   3.819   1.335   7.339 -0.3635 -0.1799 -0.6003
 5239TIP3    H237277   3.722   1.219   7.350 -0.4873 -0.0383 -0.1707
 5240TIP3   OH237278   1.771   4.578   7.207 -0.5857 -0.5865 -0.1258
 5240TIP3    H137279   1.795   4.515   7.138 -0.1553 -2.9712  2.0534
 5240TIP3    H237280   1.686   4.547   7.239 -1.1877  0.9985 -0.1202
 5241TIP3   OH237281   6.729   1.855   0.295  0.5730 -0.3975 -0.2299
 5241TIP3    H137282   6.754   1.883   0.383 -0.2892 -1.0068  0.2239
 5241TIP3    H237283   6.691   1.768   0.308 -1.2329  0.2421 -0.9490
 5242TIP3   OH237284   4.346   2.516   7.341  0.1663 -0.4808 -0.4288
 5242TIP3    H137285   4.423   2.472   7.377  0.3134 -0.8207 -1.1339
 5242TIP3    H237286   4.297   2.446   7.298 -1.0338 -0.4481  0.8052
 5243TIP3   OH237287   1.916   2.611   8.183  0.0945 -0.1894 -1.0082
 5243TIP3    H137288   2.009   2.604   8.161  0.7637 -0.4459  1.5936
 5243TIP3    H237289   1.873   2.544   8.129  1.4548 -0.3431 -1.9349
 5244TIP3   OH237290   1.398   1.912   7.436  0.1012 -0.5117 -0.2457
 5244TIP3    H137291   1.365   1.992   7.396  0.7245 -0.7513 -1.2855
 5244TIP3    H237292   1.380   1.844   7.372 -0.9930 -1.3488  0.8871
 5245TIP3   OH237293   3.146   6.509   7.562  0.0014  0.3385 -0.8150
 5245TIP3    H137294   3.226   6.554   7.590 -0.4573  0.2326  0.7646
 5245TIP3    H237295   3.112   6.470   7.642 -1.2587 -0.2182 -1.6019
 5246TIP3   OH237296   1.596   0.762   7.283 -0.1263  0.5219 -0.2738
 5246TIP3    H137297   1.573   0.818   7.209  0.7669  0.1973 -0.8072
 5246TIP3    H237298   1.544   0.683   7.269 -0.6983  0.8445 -0.0134
 5247TIP3   OH237299   0.621   0.718   6.524  0.1695  0.2467 -0.2842
 5247TIP3    H137300   0.659   0.805   6.527  0.9225 -0.0706 -0.4239
 5247TIP3    H237301   0.694   0.660   6.500  0.0979 -0.6319  1.3949
 5248TIP3   OH237302   2.029   2.483   0.640 -0.1807  0.1944  0.0670
 5248TIP3    H137303   2.072   2.549   0.694  1.6156 -0.4336 -0.5174
 5248TIP3    H237304   2.047   2.511   0.550  0.3788 -0.9304 -0.1832
 5249TIP3   OH237305   2.208   6.766   8.360 -0.2693  0.0287  0.0645
 5249TIP3    H137306   2.212   6.777   8.265  1.2122 -0.3010  0.0774
 5249TIP3    H237307   2.154   6.688   8.373  1.5311 -1.3896 -0.6318
 5250TIP3   OH237308   0.308   0.704   6.175  0.0032  0.4043 -0.2200
 5250TIP3    H137309   0.333   0.628   6.122 -1.7223  0.5282 -1.2725
 5250TIP3    H237310   0.381   0.716   6.235 -0.4249 -3.2314  1.2780
 5251TIP3   OH237311   3.015   3.735   8.314 -0.3744 -0.1514  0.1105
 5251TIP3    H137312   2.980   3.768   8.397  1.8512  1.2240  0.6027
 5251TIP3    H237313   3.110   3.739   8.325  0.0222  0.8015 -2.7777
 5252TIP3   OH237314   6.519   0.252   7.830 -0.5854  0.1737 -0.8521
 5252TIP3    H137315   6.488   0.228   7.742  0.5076  0.2260 -1.2777
 5252TIP3    H237316   6.530   0.347   7.826  2.8741 -0.1196 -1.9113
 5253TIP3   OH237317   6.210   1.747   1.631 -0.2998 -0.1381  0.2481
 5253TIP3    H137318   6.283   1.785   1.680 -0.9877  0.8333  0.5488
 5253TIP3    H237319   6.138   1.743   1.694 -0.7575 -0.2863 -0.2736
 5254TIP3   OH237320   3.811   1.974   0.937 -0.8407 -0.0206 -0.0048
 5254TIP3    H137321   3.867   2.050   0.954 -0.0911 -0.6490  0.4045
 5254TIP3    H237322   3.743   2.007   0.879 -0.3802  0.9037 -0.0395
 5255TIP3   OH237323   4.623   0.485   1.065 -0.1726 -0.0050 -0.8503
 5255TIP3    H137324   4.529   0.475   1.076  0.0792 -1.8511 -0.0584
 5255TIP3    H237325   4.657   0.501   1.153  0.2376  0.9426 -1.1670
 5256TIP3   OH237326   2.498   3.400   0.722  0.0531  0.2882 -0.1604
 5256TIP3    H137327   2.541   3.318   0.699 -2.5807 -0.8605 -1.3317
 5256TIP3    H237328   2.552   3.468   0.682  1.9051 -0.8799  0.2416
 5257TIP3   OH237329   3.798   3.983   8.528 -0.0204 -0.2875  0.1531
 5257TIP3    H137330   3.826   4.072   8.550 -1.4270  0.3597 -0.4973
 5257TIP3    H237331   3.871   3.946   8.479  0.0485  1.0411 -0.8177
 5258TIP3   OH237332   5.886   3.917   7.758 -0.1394  0.1787 -0.4938
 5258TIP3    H137333   5.894   4.009   7.782 -1.6580  0.1880  0.1224
 5258TIP3    H237334   5.962   3.875   7.797 -0.3763  0.8947  0.7979
 5259TIP3   OH237335   3.576   1.575   0.650  0.0797 -0.2847  0.3205
 5259TIP3    H137336   3.612   1.663   0.639  0.2394 -0.5307 -1.5244
 5259TIP3    H237337   3.526   1.579   0.731  0.4760  1.3707  0.5150
 5260TIP3   OH237338   0.282   6.639   2.017 -0.1306  0.2964 -0.5698
 5260TIP3    H137339   0.339   6.647   2.094 -0.1367  0.7385 -0.6072
 5260TIP3    H237340   0.199   6.678   2.044  0.8159  3.4599 -1.7639
 5261TIP3   OH237341   2.851   0.262   7.838  0.1751 -0.2320 -0.5948
 5261TIP3    H137342   2.894   0.177   7.831 -0.9652 -1.0930  1.8557
 5261TIP3    H237343   2.905   0.311   7.900 -0.0015  0.2843 -0.8441
 5262TIP3   OH237344   4.060   0.717   6.800  0.2885 -0.4087 -0.0913
 5262TIP3    H137345   3.999   0.720   6.875  1.7332 -1.8624  1.2027
 5262TIP3    H237346   4.140   0.756   6.834  0.3475  0.8650 -1.5823
 5263TIP3   OH237347   3.247   0.132   1.031  0.1195 -0.0253  0.2053
 5263TIP3    H137348   3.156   0.111   1.006  0.0821 -0.3261  0.5992
 5263TIP3    H237349   3.276   0.194   0.963 -0.1735 -0.4008 -0.2682
 5264TIP3   OH237350   2.763   2.859   6.324 -0.1348  0.1545  0.2443
 5264TIP3    H137351   2.730   2.819   6.404 -0.1705 -0.3097  0.0009
 5264TIP3    H237352   2.858   2.864   6.337 -0.0726 -0.4903  0.0644
 5265TIP3   OH237353   5.554   2.522   8.505  0.2815 -0.4474 -0.7688
 5265TIP3    H137354   5.469   2.527   8.461 -0.8192  2.6192  1.3966
 5265TIP3    H237355   5.614   2.571   8.448 -0.3451  0.6577 -0.4976
 5266TIP3   OH237356   3.466   4.160   8.393 -0.2973 -0.0071 -0.0726
 5266TIP3    H137357   3.487   4.111   8.313 -1.3472  0.9693 -0.9908
 5266TIP3    H237358   3.507   4.245   8.380 -1.0163  0.3796  0.1045
 5267TIP3   OH237359   2.269   5.269   0.011  0.5987 -0.3150  0.3074
 5267TIP3    H137360   2.280   5.264  -0.084  0.0940  0.6321  0.1885
 5267TIP3    H237361   2.306   5.354   0.034 -2.1618  0.9046  0.5114
 5268TIP3   OH237362   5.846   3.944   8.631 -0.3113 -0.0794 -0.3597
 5268TIP3    H137363   5.921   3.986   8.672 -0.5765  3.2632 -2.8979
 5268TIP3    H237364   5.785   3.928   8.704  1.6854 -0.4002  1.3523
 5269TIP3   OH237365   1.569   4.686   7.870 -0.1066  0.2656 -0.4518
 5269TIP3    H137366   1.636   4.618   7.877 -0.4461  0.0834  4.2508
 5269TIP3    H237367   1.598   4.755   7.930 -1.8448  2.4020 -1.8936
 5270TIP3   OH237368   2.904   0.935   0.779 -0.6015  0.1642 -0.5052
 5270TIP3    H137369   2.851   0.855   0.785 -0.9086  0.3892 -0.2033
 5270TIP3    H237370   2.947   0.941   0.865  0.4605 -0.3847 -0.9651
 5271TIP3   OH237371   6.354   1.119   0.097  0.0469 -0.4011  0.1974
 5271TIP3    H137372   6.420   1.175   0.057 -0.6301  1.3889  1.4173
 5271TIP3    H237373   6.307   1.081   0.023  2.7149 -2.1953 -0.7133
 5272TIP3   OH237374   0.691   5.884   7.827 -0.1378 -0.1375 -0.1982
 5272TIP3    H137375   0.667   5.958   7.882  0.0911 -1.4338  1.7147
 5272TIP3    H237376   0.653   5.905   7.741 -0.9395  1.6985  0.5508
 5273TIP3   OH237377   1.302   0.904   1.421  0.0022  0.4784 -0.0288
 5273TIP3    H137378   1.291   0.969   1.351  0.7329 -0.6772 -1.2576
 5273TIP3    H237379   1.322   0.822   1.376  2.0866  0.0002  1.5456
 5274TIP3   OH237380   4.336   5.376   1.321  0.0789  0.4621 -0.3865
 5274TIP3    H137381   4.299   5.414   1.242  0.4459 -1.2052 -1.3994
 5274TIP3    H237382   4.312   5.438   1.390 -0.8728  1.5911 -1.6682
 5275TIP3   OH237383   3.820   2.907   0.064 -0.0374  0.0450  0.4397
 5275TIP3    H137384   3.836   2.818   0.096  0.7001  0.1599  0.4089
 5275TIP3    H237385   3.728   2.923   0.083 -0.3303 -0.9351 -0.0572
 5276TIP3   OH237386   1.133   1.438   1.514 -0.1951 -0.1982 -0.6069
 5276TIP3    H137387   1.215   1.389   1.516 -1.8193 -3.1414 -0.2273
 5276TIP3    H237388   1.107   1.445   1.606 -1.2862 -1.0059 -0.8433
 5277TIP3   OH237389   1.508   6.101   2.204  0.4658  0.2276  0.3815
 5277TIP3    H137390   1.531   6.087   2.296 -0.4426  1.8575  0.8902
 5277TIP3    H237391   1.487   6.194   2.198 -1.0408 -0.1673 -1.1382
 5278TIP3   OH237392   5.615   2.672   1.692  0.2493 -0.4277 -0.0775
 5278TIP3    H137393   5.535   2.644   1.737  0.6498 -1.1622  0.1960
 5278TIP3    H237394   5.645   2.749   1.740  1.8549 -2.4106  2.3462
 5279TIP3   OH237395   0.386   4.111   0.305 -0.2468  0.1031 -0.7216
 5279TIP3    H137396   0.469   4.154   0.324  0.4649 -0.8010 -1.6375
 5279TIP3    H237397   0.330   4.133   0.379  1.6382 -1.3845  1.2990
 5280TIP3   OH237398   2.070   4.215   1.434 -0.5736  0.0882  0.6288
 5280TIP3    H137399   2.137   4.222   1.502 -1.8154 -1.6381  2.1372
 5280TIP3    H237400   1.987   4.230   1.480 -1.2965  2.2116 -1.1892
 5281TIP3   OH237401   2.079   4.470   1.572 -0.0785 -0.1271  0.0274
 5281TIP3    H137402   2.065   4.510   1.659  1.9412  0.5437  0.0983
 5281TIP3    H237403   2.138   4.397   1.589  0.1255 -0.1461 -0.7539
 5282TIP3   OH237404   3.424   4.012   0.534 -0.2992 -0.0088  0.1989
 5282TIP3    H137405   3.511   3.972   0.530  0.6263  1.8422 -4.2176
 5282TIP3    H237406   3.371   3.961   0.473 -0.7953  1.8050 -0.9657
 5283TIP3   OH237407   1.562   3.999   7.227  0.0256 -0.3438 -0.3245
 5283TIP3    H137408   1.473   4.026   7.206  0.5983  1.4875 -0.5771
 5283TIP3    H237409   1.600   3.973   7.142 -0.3515 -1.4923 -0.1628
 5284TIP3   OH237410   6.232   1.477   8.358  0.3995  0.1063 -0.1285
 5284TIP3    H137411   6.247   1.558   8.309  0.3357 -0.0606 -0.4215
 5284TIP3    H237412   6.259   1.499   8.448  1.9446 -0.0299 -0.5237
 5285TIP3   OH237413   2.365   4.388   1.825  0.7362  0.2596 -0.6848
 5285TIP3    H137414   2.330   4.370   1.912  1.6796 -2.1370 -0.7050
 5285TIP3    H237415   2.456   4.414   1.840  0.3200  1.9383 -0.8793
 5286TIP3   OH237416   0.217   5.796   1.338  0.3824 -0.5699  0.5335
 5286TIP3    H137417   0.299   5.844   1.328  0.4250 -0.6670  0.4065
 5286TIP3    H237418   0.172   5.838   1.411  0.8124 -0.8869  0.9902
 5287TIP3   OH237419   6.077   5.298   1.764  0.3504 -0.3320 -0.3661
 5287TIP3    H137420   6.001   5.291   1.821  0.1809  0.3387 -0.4982
 5287TIP3    H237421   6.065   5.381   1.718 -0.6135 -1.8015 -2.9527
 5288TIP3   OH237422   0.724   4.239   1.830  0.0671  0.3160 -0.3608
 5288TIP3    H137423   0.816   4.237   1.855 -0.2555 -0.1908  0.8661
 5288TIP3    H237424   0.688   4.158   1.865 -0.8865  0.6027 -0.6503
 5289TIP3   OH237425   2.889   3.112   0.019 -0.1940  0.7248 -0.3208
 5289TIP3    H137426   2.839   3.171   0.075 -0.1927  1.2973 -0.9112
 5289TIP3    H237427   2.854   3.127  -0.069 -1.7888 -1.8202 -0.2049
 5290TIP3   OH237428   2.797   1.305   1.815  0.4624 -0.2630 -0.1155
 5290TIP3    H137429   2.810   1.386   1.865  0.7550  0.0571 -0.6975
 5290TIP3    H237430   2.718   1.266   1.853  1.2866 -0.5946  1.3449
 5291TIP3   OH237431   2.042   5.272   8.244 -0.2779 -0.2209  0.3523
 5291TIP3    H137432   2.038   5.188   8.291 -0.5409 -0.2997  0.1900
 5291TIP3    H237433   2.006   5.253   8.158  0.7871 -0.2177 -0.1014
 5292TIP3   OH237434   1.854   2.871   7.553  0.0335  0.3654  0.6717
 5292TIP3    H137435   1.792   2.930   7.596 -0.9148 -0.1925  0.1238
 5292TIP3    H237436   1.865   2.799   7.615 -1.1387 -0.3165  0.1245
 5293TIP3   OH237437   1.847   5.620   1.141  0.3933 -0.0118 -0.5470
 5293TIP3    H137438   1.915   5.563   1.177  0.4363 -1.2291 -2.4505
 5293TIP3    H237439   1.893   5.674   1.077 -0.5073 -1.5431 -2.6085
 5294TIP3   OH237440   6.615   6.334   6.902 -0.3397  0.6934 -0.0079
 5294TIP3    H137441   6.572   6.304   6.821 -1.1169  0.4237  0.4933
 5294TIP3    H237442   6.633   6.253   6.950 -2.0287  0.9625  1.1465
 5295TIP3   OH237443   4.358   4.264   2.353  0.3621 -0.4646 -0.1426
 5295TIP3    H137444   4.292   4.195   2.341  0.4439 -0.8443  1.4169
 5295TIP3    H237445   4.441   4.217   2.357  0.4599 -0.2405  0.5191
 5296TIP3   OH237446   5.740   1.824   0.346 -0.0102 -0.4124  0.0942
 5296TIP3    H137447   5.835   1.825   0.334  0.2022  0.0837  1.6080
 5296TIP3    H237448   5.728   1.811   0.440 -1.4531 -0.5208 -0.0834
 5297TIP3   OH237449   4.118   2.863   8.586  0.1756  0.4381 -0.7015
 5297TIP3    H137450   4.166   2.921   8.645  0.1250 -0.3395  0.1472
 5297TIP3    H237451   4.026   2.885   8.600  0.1710  0.3408 -0.5642
 5298TIP3   OH237452   1.237   2.755   1.556 -0.2979  0.4322  0.2129
 5298TIP3    H137453   1.183   2.834   1.562 -0.7605  0.1759 -0.4282
 5298TIP3    H237454   1.192   2.700   1.491  0.9834  0.4228 -0.7085
 5299TIP3   OH237455   4.018   4.197   6.308  0.7733 -0.3957 -0.5464
 5299TIP3    H137456   4.079   4.266   6.334 -1.0820  1.3633 -0.6459
 5299TIP3    H237457   4.052   4.167   6.224  1.8118  0.1395 -0.3463
 5300TIP3   OH237458   3.662   4.456   7.568 -0.3484  0.2091  0.1647
 5300TIP3    H137459   3.724   4.401   7.519  0.2809  0.1854  0.9637
 5300TIP3    H237460   3.576   4.416   7.551 -0.0850 -0.0832 -0.5200
 5301TIP3   OH237461   0.140   4.089   0.445  0.2131  0.5130  0.3819
 5301TIP3    H137462   0.169   4.075   0.535  0.3630 -0.6105  0.1769
 5301TIP3    H237463   0.075   4.020   0.429  0.9970 -0.0247 -0.7020
 5302TIP3   OH237464   4.790   4.104   1.238 -0.2498  0.6667 -0.3751
 5302TIP3    H137465   4.789   4.136   1.148 -2.6039 -1.5116 -1.2518
 5302TIP3    H237466   4.705   4.131   1.273  0.5858  1.3731  1.2214
 5303TIP3   OH237467   6.712   6.594   2.055 -0.2137 -0.2431 -0.2669
 5303TIP3    H137468   6.666   6.573   2.136 -1.5866 -0.7226 -1.1418
 5303TIP3    H237469   6.765   6.671   2.077 -0.1571 -0.6871  1.2142
 5304TIP3   OH237470   6.207   0.920   8.467 -0.4228 -0.4881  0.1243
 5304TIP3    H137471   6.129   0.903   8.414 -0.7478 -1.3508  0.8673
 5304TIP3    H237472   6.272   0.859   8.433 -0.3548 -0.4216  0.1334
 5305TIP3   OH237473   0.504   2.477   7.382 -0.4490  0.0439  0.3918
 5305TIP3    H137474   0.455   2.501   7.461  1.8311 -0.2554  2.0023
 5305TIP3    H237475   0.488   2.383   7.372 -2.3854  0.4595 -0.7636
 5306TIP3   OH237476   3.046   1.557   2.235  0.3131 -0.0684  0.1145
 5306TIP3    H137477   3.007   1.480   2.277  0.2408 -0.0812  0.0241
 5306TIP3    H237478   3.139   1.538   2.234  0.2303 -0.4730 -0.5512
 5307TIP3   OH237479   6.399   6.780   6.382 -0.4032  0.6372  0.1825
 5307TIP3    H137480   6.461   6.757   6.314 -0.2487 -0.7961  0.7738
 5307TIP3    H237481   6.437   6.745   6.463 -1.4107  0.7626  0.7345
 5308TIP3   OH237482   5.368   3.311   8.534 -0.0213  0.0048  0.6496
 5308TIP3    H137483   5.386   3.395   8.576 -1.3024  0.8113 -0.3242
 5308TIP3    H237484   5.357   3.250   8.607  1.3980  0.5494  1.3583
 5309TIP3   OH237485   6.763   1.613   1.056 -0.3338 -0.5321  0.3902
 5309TIP3    H137486   6.804   1.526   1.059 -0.5339 -0.6385  0.0943
 5309TIP3    H237487   6.750   1.629   0.963 -1.3576 -0.6853  0.5021
 5310TIP3   OH237488   0.381   0.773   6.823  0.5863  0.3722 -0.2691
 5310TIP3    H137489   0.327   0.841   6.864  0.7492  0.7094 -0.6078
 5310TIP3    H237490   0.405   0.715   6.895  0.0322  0.3962 -0.0586
 5311TIP3   OH237491   6.475   3.720   7.204  0.1333 -0.7878  0.4435
 5311TIP3    H137492   6.459   3.776   7.129  0.8255 -0.1776  0.7320
 5311TIP3    H237493   6.434   3.766   7.278 -0.2040 -1.1839  0.5018
 5312TIP3   OH237494   0.922   5.376   1.038  0.2959  0.3982 -0.1862
 5312TIP3    H137495   0.992   5.381   0.973  1.5751 -3.1188  0.6470
 5312TIP3    H237496   0.962   5.410   1.118  0.5148 -0.0891 -0.0849
 5313TIP3   OH237497   5.571   1.177   8.673  0.5204 -0.2028 -0.2382
 5313TIP3    H137498   5.591   1.114   8.742 -0.2696 -0.2957 -0.0858
 5313TIP3    H237499   5.500   1.137   8.623 -0.1378  0.6391 -0.0148
 5314TIP3   OH237500   0.003   1.186   6.832 -0.1219  0.0113  0.9830
 5314TIP3    H137501   0.006   1.207   6.739  1.0678 -0.6833  0.8501
 5314TIP3    H237502   0.005   1.271   6.876 -3.3177  0.5033  0.3975
 5315TIP3   OH237503   4.992   6.366   6.449  0.1307  0.3134  0.4089
 5315TIP3    H137504   4.988   6.302   6.378 -2.4025  2.0403 -1.1802
 5315TIP3    H237505   4.988   6.314   6.529  1.0098 -1.6019 -0.7282
 5316TIP3   OH237506   6.309   5.808   1.441 -0.0840  0.1177  0.1544
 5316TIP3    H137507   6.371   5.848   1.502  1.1433 -1.5419  0.0484
 5316TIP3    H237508   6.242   5.875   1.428  1.2212  1.6441  0.9539
 5317TIP3   OH237509   3.425   0.009   2.583  0.4617 -0.3913 -0.2236
 5317TIP3    H137510   3.420  -0.075   2.628  0.3379  0.2719  1.0291
 5317TIP3    H237511   3.466  -0.012   2.499  1.0911 -1.6004  0.3533
 5318TIP3   OH237512   5.419   6.699   8.700 -0.2864 -0.3996  0.4192
 5318TIP3    H137513   5.486   6.744   8.752 -0.3312  1.3074 -0.9223
 5318TIP3    H237514   5.336   6.721   8.742 -0.1858 -0.7573  0.8208
 5319TIP3   OH237515   2.081   1.809   6.543 -0.9269  0.7668 -0.7606
 5319TIP3    H137516   2.019   1.744   6.512 -0.0689  0.1620 -1.2546
 5319TIP3    H237517   2.158   1.798   6.487 -1.7580  4.1761 -2.8715
 5320TIP3   OH237518   0.469   3.929   8.674 -0.1631 -0.0884  0.5449
 5320TIP3    H137519   0.536   3.978   8.720 -0.3442  0.6919 -0.0055
 5320TIP3    H237520   0.457   3.975   8.591 -1.3116 -0.2538  0.5917
 5321TIP3   OH237521   3.755   4.332   8.058 -0.0256 -0.1264  0.2079
 5321TIP3    H137522   3.836   4.345   8.009  0.2136  0.6251  0.7988
 5321TIP3    H237523   3.699   4.405   8.032  0.5826  1.0412  2.0143
 5322TIP3   OH237524   6.344   5.124   0.791 -0.4478 -0.4062 -0.3586
 5322TIP3    H137525   6.316   5.167   0.710 -0.2077  0.9032  0.2263
 5322TIP3    H237526   6.439   5.132   0.792 -0.4081 -0.8587 -0.1822
 5323TIP3   OH237527   2.223   1.510   1.460  0.1795  0.0839  0.4920
 5323TIP3    H137528   2.131   1.486   1.470  0.2094  0.2519  1.1650
 5323TIP3    H237529   2.222   1.605   1.450  0.2385  0.0310 -0.0848
 5324TIP3   OH237530   1.180   3.706   6.741 -0.5045 -0.0836 -0.0474
 5324TIP3    H137531   1.264   3.709   6.787 -1.2259  0.5377  1.2773
 5324TIP3    H237532   1.196   3.648   6.666  1.0673 -0.0545  0.2314
 5325TIP3   OH237533   0.143   6.234   1.661 -0.2500 -0.3748 -0.0546
 5325TIP3    H137534   0.075   6.299   1.679 -0.0902 -0.2361  0.0464
 5325TIP3    H237535   0.129   6.165   1.726  0.3905  0.1732  0.6701
 5326TIP3   OH237536   4.208   1.671   1.323  0.3826 -0.0136  0.2642
 5326TIP3    H137537   4.128   1.691   1.275 -0.0500  0.1706  1.0484
 5326TIP3    H237538   4.221   1.577   1.310 -0.8061 -0.3593  1.3685
 5327TIP3   OH237539   4.383   0.016   1.392  0.2347  0.6611 -0.4262
 5327TIP3    H137540   4.419  -0.046   1.329 -0.7928 -1.2978  0.8368
 5327TIP3    H237541   4.297   0.040   1.357 -1.2216 -1.9684  1.0662
 5328TIP3   OH237542   1.451   0.714   1.575 -0.1496  0.2650  0.1262
 5328TIP3    H137543   1.467   0.776   1.646 -0.0321  0.8720 -0.4161
 5328TIP3    H237544   1.391   0.760   1.516  1.3423  0.6046 -1.1995
 5329TIP3   OH237545   3.554   5.431   7.559 -0.1571 -0.2855 -0.1495
 5329TIP3    H137546   3.466   5.439   7.522  0.2220  1.2390 -0.8098
 5329TIP3    H237547   3.601   5.506   7.524  1.1763 -0.6120  0.8701
 5330TIP3   OH237548   5.580   5.539   7.547 -0.5305  0.1807 -0.2540
 5330TIP3    H137549   5.619   5.620   7.579 -1.2880  1.1029 -1.5390
 5330TIP3    H237550   5.645   5.472   7.566 -0.6761  0.7258  2.5446
 5331TIP3   OH237551   1.171   1.045   1.632  0.0921 -0.0226  0.2939
 5331TIP3    H137552   1.175   1.137   1.659 -2.7599  1.0821 -2.3978
 5331TIP3    H237553   1.231   1.038   1.558  0.5870 -0.4626  0.7265
 5332TIP3   OH237554   1.801   2.658   0.138  0.0529 -0.2674  0.0866
 5332TIP3    H137555   1.817   2.730   0.078 -0.2928  0.4837  0.8786
 5332TIP3    H237556   1.765   2.588   0.083 -1.2405  0.7660 -0.4066
 5333TIP3   OH237557   3.158   0.280   7.367 -0.1293  0.2349  0.3271
 5333TIP3    H137558   3.121   0.240   7.288  2.1268 -1.3330 -0.0485
 5333TIP3    H237559   3.156   0.374   7.349  0.1447 -0.0676 -1.5632
 5334TIP3   OH237560   2.316   2.798   0.105 -0.4778  0.3762  0.5050
 5334TIP3    H137561   2.310   2.799   0.009  0.0989 -0.1775  0.4556
 5334TIP3    H237562   2.225   2.791   0.134 -0.6979  1.1377  0.0150
 5335TIP3   OH237563   1.246   5.030   7.741  0.5912  0.2459  0.5139
 5335TIP3    H137564   1.156   5.057   7.725  1.3293  2.5578 -0.1319
 5335TIP3    H237565   1.284   5.102   7.791  2.4205 -0.0487 -0.3728
 5336TIP3   OH237566   0.817   0.038   1.237 -0.1551 -0.4404  0.1956
 5336TIP3    H137567   0.879  -0.034   1.223  0.2012 -0.4077  1.4416
 5336TIP3    H237568   0.845   0.077   1.320 -1.7375 -0.3082  0.6882
 5337TIP3   OH237569   0.235   1.396   8.190  0.3398 -0.3862  0.3745
 5337TIP3    H137570   0.225   1.302   8.205 -0.8462 -0.2882  0.2568
 5337TIP3    H237571   0.153   1.434   8.221  0.2058  0.4574 -0.9408
 5338TIP3   OH237572   5.577   2.311   7.002  0.1737 -0.4444 -0.3893
 5338TIP3    H137573   5.597   2.298   7.095 -1.3403  0.9729  0.1857
 5338TIP3    H237574   5.651   2.361   6.969 -1.1341  2.7869  1.1530
 5339TIP3   OH237575   1.666   1.429   0.142 -1.0231 -0.2222  0.2457
 5339TIP3    H137576   1.712   1.500   0.189 -0.8696 -0.1611  0.0056
 5339TIP3    H237577   1.715   1.350   0.165  1.2391  0.2163 -2.5150
 5340TIP3   OH237578   5.629   4.544   8.635  0.0258 -0.2983 -0.0256
 5340TIP3    H137579   5.699   4.530   8.698 -0.0909  0.9807  0.4278
 5340TIP3    H237580   5.611   4.638   8.640 -1.3099 -0.5001 -0.5647
 5341TIP3   OH237581   6.540   4.915   7.069 -0.8645 -0.4947  0.3881
 5341TIP3    H137582   6.583   4.905   7.154 -0.8594  1.3739  0.6511
 5341TIP3    H237583   6.585   4.854   7.011  0.5397 -0.3100  1.2458
 5342TIP3   OH237584   1.782   6.465   6.404 -0.2043 -0.0781 -0.3117
 5342TIP3    H137585   1.857   6.490   6.351  2.1034 -0.2289  2.5897
 5342TIP3    H237586   1.795   6.372   6.421 -1.0435 -0.1104  0.1953
 5343TIP3   OH237587   0.378   1.224   7.330 -0.7952  0.1847 -0.1945
 5343TIP3    H137588   0.421   1.216   7.245 -0.3703  1.8048 -0.1693
 5343TIP3    H237589   0.399   1.142   7.375 -0.3738 -0.3675 -1.3362
 5344TIP3   OH237590   1.965   6.319   1.681  0.1063 -0.0305  0.2810
 5344TIP3    H137591   2.045   6.332   1.733 -0.3657 -2.1012  1.6659
 5344TIP3    H237592   1.900   6.375   1.723 -0.0048 -0.9101  1.3204
 5345TIP3   OH237593   6.681   2.871   8.021 -0.0354 -0.2785 -0.4789
 5345TIP3    H137594   6.747   2.880   7.952 -0.7440  0.6423 -1.0790
 5345TIP3    H237595   6.696   2.945   8.079  0.7693 -1.2375  0.5747
 5346TIP3   OH237596   2.159   2.341   0.934  0.4932 -0.0499  1.0079
 5346TIP3    H137597   2.247   2.334   0.897  0.0672 -1.7131  0.1925
 5346TIP3    H237598   2.120   2.255   0.919 -2.2100  1.3677 -1.0153
 5347TIP3   OH237599   1.662   3.810   1.013  0.2254  0.2527  0.0602
 5347TIP3    H137600   1.634   3.901   1.021  0.8405  0.4073  0.5603
 5347TIP3    H237601   1.730   3.800   1.080 -0.5797 -0.8709  0.7494
 5348TIP3   OH237602   3.688   4.390   8.458  0.5809  0.2529 -0.4124
 5348TIP3    H137603   3.660   4.482   8.465 -0.7373 -0.1697  0.1172
 5348TIP3    H237604   3.667   4.352   8.543  0.6116 -0.6786 -0.8084
 5349TIP3   OH237605   5.671   6.444   8.201  0.2156 -0.1804  0.2811
 5349TIP3    H137606   5.705   6.360   8.169  2.2828 -0.4344  2.7838
 5349TIP3    H237607   5.668   6.500   8.124  0.2438 -2.0914 -1.1842
 5350TIP3   OH237608   2.139   0.907   6.778 -0.0131  0.1283  0.0866
 5350TIP3    H137609   2.222   0.950   6.758  0.7389 -1.1957  0.2376
 5350TIP3    H237610   2.101   0.887   6.693 -0.5434  1.3803  0.0129
 5351TIP3   OH237611   1.216   5.582   1.358  0.2297  0.5821 -0.1647
 5351TIP3    H137612   1.265   5.534   1.290  1.6502  0.4034  0.9376
 5351TIP3    H237613   1.223   5.526   1.436 -0.2602  1.4029  0.4802
 5352TIP3   OH237614   0.457   5.766   8.592 -0.5287  0.1985 -0.4783
 5352TIP3    H137615   0.391   5.696   8.589 -0.9426  0.6296 -2.0141
 5352TIP3    H237616   0.413   5.838   8.637 -0.1334 -0.4644  1.0269
 5353TIP3   OH237617   3.445   1.807   6.838 -0.4998  0.4876  0.0085
 5353TIP3    H137618   3.417   1.746   6.770 -0.7706  1.9093 -1.1943
 5353TIP3    H237619   3.374   1.804   6.903 -0.6461 -0.2369 -0.1656
 5354TIP3   OH237620   2.345   0.712   7.400 -0.2349  0.5458  0.1517
 5354TIP3    H137621   2.399   0.663   7.338  0.1984  1.7440 -0.4403
 5354TIP3    H237622   2.265   0.661   7.408 -0.0208  0.0321 -0.8851
 5355TIP3   OH237623   3.706   1.339   1.672 -0.1359  0.1503  0.4807
 5355TIP3    H137624   3.618   1.322   1.638 -0.7645  0.5076  1.8295
 5355TIP3    H237625   3.708   1.291   1.755  1.6891 -1.5227 -0.4559
 5356TIP3   OH237626   6.163   0.191   8.022  0.3024  0.0886 -0.0438
 5356TIP3    H137627   6.186   0.241   7.944  0.4887 -0.6291 -0.4653
 5356TIP3    H237628   6.093   0.132   7.993 -0.7357  0.9049  0.7442
 5357TIP3   OH237629   6.777   4.189   0.150 -0.6807 -0.2987  0.2561
 5357TIP3    H137630   6.748   4.116   0.205 -2.7094 -0.3368 -0.7841
 5357TIP3    H237631   6.697   4.222   0.109  0.0190  3.0061  1.2331
 5358TIP3   OH237632   4.212   1.909   1.873  0.8743  0.2179  0.2682
 5358TIP3    H137633   4.176   1.872   1.792 -1.8461 -0.8731  1.8110
 5358TIP3    H237634   4.181   2.000   1.873  1.0458  0.2772 -0.0087
 5359TIP3   OH237635   2.105   0.056   1.287 -0.1383 -0.1487  0.1978
 5359TIP3    H137636   2.031   0.114   1.301  1.8534  2.2919  1.6367
 5359TIP3    H237637   2.103  -0.004   1.362 -0.9159 -0.4572 -0.0605
 5360TIP3   OH237638   4.698   6.160   6.436 -0.9283  0.4534 -0.0467
 5360TIP3    H137639   4.758   6.150   6.361 -0.5932 -0.7954  0.3704
 5360TIP3    H237640   4.619   6.197   6.398 -0.3791  0.8322 -0.8463
 5361TIP3   OH237641   5.887   2.518   6.879 -0.0343 -0.1524 -0.1430
 5361TIP3    H137642   5.976   2.544   6.856 -0.0046  0.7546  0.9122
 5361TIP3    H237643   5.851   2.481   6.799  1.1142 -0.0333 -0.7275
 5362TIP3   OH237644   1.511   0.210   7.605 -0.2139  0.5872 -0.1048
 5362TIP3    H137645   1.469   0.286   7.563 -0.2166  0.2531 -0.7130
 5362TIP3    H237646   1.598   0.242   7.630 -0.8684  1.3462  1.3499
 5363TIP3   OH237647   4.568   1.227   8.488  0.4197  0.6578 -0.2238
 5363TIP3    H137648   4.628   1.301   8.499  0.1712  1.0772 -1.4931
 5363TIP3    H237649   4.606   1.157   8.540  2.5819  0.5756 -1.7995
 5364TIP3   OH237650   5.723   4.466   6.958  0.0220 -0.2912 -0.2098
 5364TIP3    H137651   5.664   4.408   7.007  2.5953 -2.5612  0.4695
 5364TIP3    H237652   5.675   4.548   6.950 -2.2761 -1.2260  2.3406
 5365TIP3   OH237653   2.780   0.782   7.830 -0.0418  0.0450 -0.4264
 5365TIP3    H137654   2.875   0.769   7.827 -0.1168 -0.8081  0.3761
 5365TIP3    H237655   2.750   0.724   7.900 -1.5029 -1.7043 -2.3817
 5366TIP3   OH237656   4.701   4.342   1.543  0.0746  0.0388  0.0207
 5366TIP3    H137657   4.690   4.411   1.609 -0.3458  1.2030 -1.2360
 5366TIP3    H237658   4.794   4.347   1.520 -0.4043  1.8542 -1.7838
 5367TIP3   OH237659   6.154   3.352   6.874 -0.3923 -0.3031 -0.1174
 5367TIP3    H137660   6.152   3.328   6.967 -0.0977 -0.2477 -0.0964
 5367TIP3    H237661   6.226   3.301   6.837 -1.1586 -1.1010 -0.5375
 5368TIP3   OH237662   0.943   1.378   6.522 -0.0611 -0.0799  0.1086
 5368TIP3    H137663   0.906   1.466   6.524 -0.5051 -0.1644 -2.1786
 5368TIP3    H237664   0.872   1.322   6.493 -0.2280 -1.5213  2.9487
 5369TIP3   OH237665   3.355   3.714   6.254  0.0942 -0.2055 -0.2205
 5369TIP3    H137666   3.445   3.741   6.235  0.0177 -0.0622 -0.3772
 5369TIP3    H237667   3.306   3.734   6.174  0.1682 -1.4277 -0.5936
 5370TIP3   OH237668   3.770   5.641   0.156 -0.0953  0.0027 -0.1331
 5370TIP3    H137669   3.704   5.710   0.148 -0.6513 -0.5488 -0.4050
 5370TIP3    H237670   3.741   5.588   0.231 -0.0367 -0.3203 -0.3365
 5371TIP3   OH237671   3.291   0.898   7.099 -0.2775 -0.1599  0.1890
 5371TIP3    H137672   3.362   0.871   7.042 -0.4328  0.0852 -0.1262
 5371TIP3    H237673   3.269   0.987   7.070  0.3505  0.3967  1.3202
 5372TIP3   OH237674   0.901   6.317   1.173  0.1508  0.2604 -0.1847
 5372TIP3    H137675   0.860   6.256   1.235  0.7569  1.0482  1.0428
 5372TIP3    H237676   0.855   6.302   1.091  0.1037 -1.6506  0.1478
 5373TIP3   OH237677   5.166   0.906   0.751  0.1554 -0.1911 -0.0894
 5373TIP3    H137678   5.104   0.833   0.750  0.2996 -0.3120 -0.8226
 5373TIP3    H237679   5.247   0.869   0.717  0.5152  0.0729  0.4713
 5374TIP3   OH237680   1.002   0.487   8.072 -0.1370  0.0289  0.2998
 5374TIP3    H137681   1.045   0.408   8.042 -0.2676 -0.0202  0.2405
 5374TIP3    H237682   0.947   0.515   7.999  0.9993  0.9794 -0.2160
 5375TIP3   OH237683   6.717   3.052   1.902 -0.4563  0.3300  0.8307
 5375TIP3    H137684   6.667   3.103   1.965  0.2120  0.3182  1.3780
 5375TIP3    H237685   6.674   2.967   1.899  0.1317 -0.0240  2.0643
 5376TIP3   OH237686   4.773   0.607   6.811 -0.2557 -0.1610  0.6679
 5376TIP3    H137687   4.845   0.555   6.847 -0.4747 -0.6990  0.3341
 5376TIP3    H237688   4.815   0.687   6.780  0.1194 -0.2440  0.9559
 5377TIP3   OH237689   3.340   5.962   1.568  0.3275 -0.0682 -0.5263
 5377TIP3    H137690   3.269   6.023   1.587  1.3570  1.2054 -0.6917
 5377TIP3    H237691   3.387   5.952   1.651 -0.3830 -1.4153 -0.2492
 5378TIP3   OH237692   1.972   5.653   1.527 -0.4935  0.1122  0.1926
 5378TIP3    H137693   2.055   5.687   1.495 -0.1839  1.1373  1.9917
 5378TIP3    H237694   1.966   5.565   1.489  1.9719 -0.4657  0.9862
 5379TIP3   OH237695   1.813   0.907   7.892 -0.1120  0.0765 -0.0480
 5379TIP3    H137696   1.728   0.937   7.859 -0.7441 -0.1019  1.3607
 5379TIP3    H237697   1.816   0.938   7.983  0.1340 -2.2264  0.7879
 5380TIP3   OH237698   6.210   1.518   7.827 -0.1044 -0.3642 -0.0344
 5380TIP3    H137699   6.184   1.555   7.743 -0.7579  2.1323  1.1772
 5380TIP3    H237700   6.255   1.589   7.872  0.2802 -1.6469  1.7309
 5381TIP3   OH237701   4.738   4.489   7.563  0.1037 -0.6280  0.5156
 5381TIP3    H137702   4.729   4.457   7.473  1.9747  1.2023 -0.3901
 5381TIP3    H237703   4.656   4.534   7.581  0.0800 -0.1931 -0.6211
 5382TIP3   OH237704   6.238   3.439   1.982 -0.0968  0.5738 -0.0832
 5382TIP3    H137705   6.163   3.483   1.941  0.5629 -0.5202 -2.6657
 5382TIP3    H237706   6.200   3.391   2.055 -2.0101 -0.0420 -1.3893
 5383TIP3   OH237707   6.404   2.966   8.716  0.0228 -0.3086 -0.4454
 5383TIP3    H137708   6.390   2.948   8.809  1.9534 -0.1995 -0.0988
 5383TIP3    H237709   6.461   2.895   8.686 -0.5817 -0.3468 -1.5668
 5384TIP3   OH237710   0.049   5.166   5.886 -0.3272  0.6861  0.2682
 5384TIP3    H137711   0.100   5.234   5.931 -0.0430  0.4473  0.3124
 5384TIP3    H237712  -0.034   5.162   5.933  0.8342 -1.2705  2.3940
 5385TIP3   OH237713   6.445   6.492   7.450  0.5694 -0.4850 -0.1408
 5385TIP3    H137714   6.397   6.482   7.368  0.9072  1.8922 -0.6923
 5385TIP3    H237715   6.480   6.405   7.469 -0.2113 -1.2544 -2.0685
 5386TIP3   OH237716   6.040   5.181   8.376  0.5675  0.1819  0.6388
 5386TIP3    H137717   6.071   5.270   8.361  2.4706 -0.5130  0.0886
 5386TIP3    H237718   6.050   5.137   8.291 -0.9027 -0.4231  0.7472
 5387TIP3   OH237719   3.474   4.889   6.240  0.4501  0.6289 -0.0164
 5387TIP3    H137720   3.434   4.975   6.253 -0.0428  0.4561 -0.3391
 5387TIP3    H237721   3.405   4.837   6.197  0.6172 -0.0293  0.4925
 5388TIP3   OH237722   1.337   6.198   0.754  0.3550 -0.5522  0.2230
 5388TIP3    H137723   1.344   6.192   0.849  0.0766  0.9116  0.3687
 5388TIP3    H237724   1.426   6.217   0.724  0.0495  1.6163  0.4873
 5389TIP3   OH237725   2.639   5.113   0.453  0.6098  0.3026  0.4046
 5389TIP3    H137726   2.616   5.206   0.458 -0.1651  0.3387 -2.2988
 5389TIP3    H237727   2.718   5.112   0.399  3.1600 -0.4059  3.7501
 5390TIP3   OH237728   4.385   1.794   1.484 -0.4564 -0.2652 -0.3418
 5390TIP3    H137729   4.326   1.728   1.449 -0.1691  0.1354 -1.6531
 5390TIP3    H237730   4.467   1.781   1.436  0.3283 -0.4084  0.9971
 5391TIP3   OH237731   5.620   1.537   7.084  0.0702 -0.3212 -0.3012
 5391TIP3    H137732   5.613   1.446   7.111 -0.4952 -0.0801  0.4430
 5391TIP3    H237733   5.590   1.586   7.161  1.0068  0.5131 -0.4540
 5392TIP3   OH237734   6.713   6.152   0.765 -0.0375  0.0828 -0.3678
 5392TIP3    H137735   6.719   6.209   0.688  0.8531 -0.4014 -0.6644
 5392TIP3    H237736   6.790   6.172   0.817 -0.4127  0.0984  0.1877
 5393TIP3   OH237737   0.792   3.790   7.790 -0.2413  0.9727  0.2417
 5393TIP3    H137738   0.870   3.734   7.789  1.8185  3.6407 -0.2094
 5393TIP3    H237739   0.725   3.738   7.746  2.1702 -0.3413 -2.2381
 5394TIP3   OH237740   3.410   5.106   0.191  0.4947  0.1604 -0.5062
 5394TIP3    H137741   3.474   5.166   0.228  1.4521  0.2434 -2.1932
 5394TIP3    H237742   3.394   5.139   0.103 -0.0995 -1.1999 -0.9411
 5395TIP3   OH237743   0.052   3.913   8.318  0.0983 -0.4273  0.5320
 5395TIP3    H137744   0.145   3.907   8.296  0.0506  0.5879  0.0032
 5395TIP3    H237745   0.025   3.822   8.330  1.0819 -0.7577  0.3771
 5396TIP3   OH237746   1.083   4.571   1.416  0.5458  0.6900 -0.0762
 5396TIP3    H137747   1.111   4.517   1.490  0.5942  2.0858  0.9686
 5396TIP3    H237748   1.043   4.648   1.457 -2.1399  0.1820 -1.4881
 5397TIP3   OH237749   6.517   0.912   0.763  0.1400  0.0510 -0.4829
 5397TIP3    H137750   6.519   0.931   0.669  2.1438  1.2565 -0.2389
 5397TIP3    H237751   6.600   0.868   0.781  0.9201  2.0400  1.1239
 5398TIP3   OH237752   3.067   5.131   1.998 -0.0311  0.5015 -0.6134
 5398TIP3    H137753   2.991   5.093   2.040 -0.4749 -0.2769 -2.0488
 5398TIP3    H237754   3.106   5.188   2.064 -0.6604 -0.6963  0.8309
 5399TIP3   OH237755   4.487   4.755   1.050  0.3863  0.3654  0.2659
 5399TIP3    H137756   4.524   4.837   1.082 -3.4393  3.2471 -1.7576
 5399TIP3    H237757   4.402   4.748   1.094 -0.1608 -1.5638 -0.9489
 5400TIP3   OH237758   5.154   3.830   1.815 -0.2706  0.6542  0.0108
 5400TIP3    H137759   5.066   3.836   1.853 -0.4362  1.4519 -0.4667
 5400TIP3    H237760   5.178   3.738   1.823 -0.7214  0.6264  1.0982
 5401TIP3   OH237761   1.308   3.336   2.293 -0.3467 -0.4877  0.2216
 5401TIP3    H137762   1.325   3.302   2.205  2.8222 -1.7984  1.1951
 5401TIP3    H237763   1.231   3.288   2.324 -1.2722 -0.2817 -1.6379
 5402TIP3   OH237764   5.956   5.788   8.398 -0.3885  0.4829  0.4547
 5402TIP3    H137765   5.930   5.804   8.308 -0.9270 -0.7341  0.3684
 5402TIP3    H237766   6.009   5.864   8.423 -0.3956  0.9133 -0.8173
 5403TIP3   OH237767   3.787   2.757   0.449  0.2827  0.1904  0.2036
 5403TIP3    H137768   3.705   2.804   0.462  0.6514  0.4054  2.0893
 5403TIP3    H237769   3.854   2.826   0.448  0.6199 -0.1240  0.7553
 5404TIP3   OH237770   5.513   0.949   1.343 -0.1215 -0.3569  0.3965
 5404TIP3    H137771   5.465   0.989   1.270  3.1704 -3.0875 -3.7997
 5404TIP3    H237772   5.459   0.874   1.369 -1.8425  1.2455  1.7262
 5405TIP3   OH237773   4.598   5.026   7.433  0.0324 -0.1268 -0.5375
 5405TIP3    H137774   4.552   4.992   7.357 -1.3045 -1.5902  0.8477
 5405TIP3    H237775   4.643   4.950   7.470  0.1667  0.4229  0.4646
 5406TIP3   OH237776   3.838   2.054   0.418 -0.7346  0.3271 -0.3878
 5406TIP3    H137777   3.773   1.995   0.379  1.3768 -0.8476 -2.3651
 5406TIP3    H237778   3.845   2.127   0.357 -0.7444  0.8371  0.2114
 5407TIP3   OH237779   2.877   5.971   1.767  0.3175  0.1782 -0.2916
 5407TIP3    H137780   2.946   5.983   1.832  1.4458  3.8761 -1.9340
 5407TIP3    H237781   2.920   5.929   1.693  0.7709  1.8831 -1.0560
 5408TIP3   OH237782   5.334   4.647   0.526 -0.0135  0.3121 -0.2434
 5408TIP3    H137783   5.249   4.690   0.512 -1.1807 -1.7705  0.1129
 5408TIP3    H237784   5.328   4.565   0.478  2.5851  0.9323 -1.8170
 5409TIP3   OH237785   3.981   6.202   1.138 -0.5008  0.3004  0.1933
 5409TIP3    H137786   3.921   6.276   1.127 -0.8363 -0.1784 -1.4684
 5409TIP3    H237787   3.925   6.124   1.130  0.1504 -0.1456 -0.1173
 5410TIP3   OH237788   1.416   1.313   0.447  0.2522  0.3523  0.2172
 5410TIP3    H137789   1.448   1.256   0.377  0.8394  1.1119 -0.1474
 5410TIP3    H237790   1.325   1.331   0.424 -1.1176 -3.1226  2.0898
 5411TIP3   OH237791   3.448   4.394   7.184 -0.0030  0.1446  0.1038
 5411TIP3    H137792   3.517   4.329   7.202 -0.7787 -0.5313  0.7455
 5411TIP3    H237793   3.415   4.371   7.097  1.9862  1.7971 -1.1865
 5412TIP3   OH237794   5.079   0.843   8.021  0.2461 -0.2533  0.2160
 5412TIP3    H137795   5.095   0.919   8.077 -0.9609  0.1899 -0.0150
 5412TIP3    H237796   5.095   0.768   8.079 -2.0460  0.1889  1.5639
 5413TIP3   OH237797   0.333   0.253   7.680  0.2940 -0.1733  0.4631
 5413TIP3    H137798   0.374   0.273   7.596  1.6507 -1.4351  0.7916
 5413TIP3    H237799   0.265   0.189   7.658 -0.7077  0.9732  0.0927
 5414TIP3   OH237800   4.201   6.730   0.552 -0.0343 -0.2018 -0.0450
 5414TIP3    H137801   4.248   6.695   0.476 -0.0841  1.7870 -1.0519
 5414TIP3    H237802   4.145   6.799   0.516 -0.7613  0.1529  1.6809
 5415TIP3   OH237803   4.306   1.897   7.187 -0.0067 -0.2529  0.4346
 5415TIP3    H137804   4.243   1.941   7.130 -0.1764 -0.6566  0.3121
 5415TIP3    H237805   4.318   1.958   7.261 -0.8428 -0.3580  0.6594
 5416TIP3   OH237806   2.758   6.175   8.546 -0.3571  0.5146 -0.1415
 5416TIP3    H137807   2.760   6.257   8.595  1.9212  1.0419 -0.9812
 5416TIP3    H237808   2.665   6.154   8.536 -0.9341  1.9346  1.7898
 5417TIP3   OH237809   0.241   1.166   6.639  0.1959  0.0000  0.4724
 5417TIP3    H137810   0.313   1.121   6.684 -0.7573 -0.2966  1.7540
 5417TIP3    H237811   0.271   1.256   6.629  1.0728 -0.3046  0.2156
 5418TIP3   OH237812   4.890   4.198   7.341 -0.2812  0.0651 -0.1734
 5418TIP3    H137813   4.954   4.193   7.271 -0.8490  0.6386 -0.7444
 5418TIP3    H237814   4.833   4.271   7.317 -0.6090  0.1400  0.7774
 5419TIP3   OH237815   2.040   6.700   7.448 -0.1070 -0.4249 -0.7675
 5419TIP3    H137816   2.122   6.681   7.493 -0.2999 -1.2684 -0.7574
 5419TIP3    H237817   2.057   6.681   7.356 -0.1974 -0.2872 -0.8138
 5420TIP3   OH237818   0.389   2.146   8.101 -0.1592  0.1098 -0.2007
 5420TIP3    H137819   0.387   2.078   8.034 -0.2565  0.3732 -0.4686
 5420TIP3    H237820   0.341   2.219   8.062 -0.3328  0.2180  0.2098
 5421TIP3   OH237821   5.174   3.518   0.819  0.0577  0.3095  0.8456
 5421TIP3    H137822   5.137   3.562   0.896 -0.5958 -2.0092  1.9278
 5421TIP3    H237823   5.102   3.467   0.783  1.1678 -1.1699  0.6219
 5422TIP3   OH237824   0.900   5.476   7.514  0.0889  0.2546  0.2334
 5422TIP3    H137825   0.838   5.416   7.472  1.8136 -0.1790 -1.8912
 5422TIP3    H237826   0.951   5.420   7.574  0.4461 -0.0442 -0.3367
 5423TIP3   OH237827   1.964   6.328   7.194  0.3335 -0.7858 -0.3412
 5423TIP3    H137828   1.905   6.274   7.142 -0.7084 -0.1597  0.1473
 5423TIP3    H237829   1.967   6.285   7.279  1.6994 -1.5749 -0.7622
 5424TIP3   OH237830   3.793   3.060   6.160 -0.5437 -0.2147  0.0254
 5424TIP3    H137831   3.744   3.139   6.137 -0.5643 -0.2028  0.1123
 5424TIP3    H237832   3.863   3.090   6.218 -0.8977 -0.3448  0.5185
 5425TIP3   OH237833   3.019   3.361   6.808  0.1267 -0.8308  0.4244
 5425TIP3    H137834   2.998   3.337   6.718 -0.6159  2.5174 -0.4299
 5425TIP3    H237835   2.934   3.361   6.853  0.0863  0.2182  0.3635
 5426TIP3   OH237836   1.302   4.563   8.185  0.1683 -0.4733  0.2283
 5426TIP3    H137837   1.223   4.525   8.148  0.8458 -0.3036 -1.4709
 5426TIP3    H237838   1.341   4.613   8.113  1.5814 -0.1864  1.1531
 5427TIP3   OH237839   3.540   2.877   0.459 -0.3431 -0.0910 -0.5918
 5427TIP3    H137840   3.454   2.843   0.434 -1.1251 -0.3085  2.1186
 5427TIP3    H237841   3.539   2.969   0.430 -0.5820 -0.6742 -2.5329
 5428TIP3   OH237842   3.034   3.437   8.636 -0.0075 -0.1112 -0.3856
 5428TIP3    H137843   3.045   3.371   8.568  0.7026 -2.3638  1.7629
 5428TIP3    H237844   3.119   3.482   8.639 -0.1975  0.3394 -1.2443
 5429TIP3   OH237845   5.418   0.189   0.018 -0.9123  0.4850  0.2780
 5429TIP3    H137846   5.428   0.221  -0.071  1.1074  3.1758  1.3377
 5429TIP3    H237847   5.326   0.201   0.039 -0.9969  1.7537 -0.7719
 5430TIP3   OH237848   2.411   4.258   0.280 -0.6163  0.1403  0.1362
 5430TIP3    H137849   2.393   4.164   0.284 -0.8845  0.1696 -0.4031
 5430TIP3    H237850   2.505   4.264   0.299 -0.8511 -0.1215  1.5092
 5431TIP3   OH237851   4.737   3.555   6.181  0.1458  0.0492  0.0946
 5431TIP3    H137852   4.657   3.598   6.210  0.4231  1.2268 -0.8320
 5431TIP3    H237853   4.806   3.593   6.235  0.2186 -0.2529  0.2190
 5432TIP3   OH237854   1.137   0.624   7.830 -0.1139 -0.4001 -0.3940
 5432TIP3    H137855   1.110   0.544   7.875 -1.1129 -0.0362 -0.3204
 5432TIP3    H237856   1.092   0.694   7.876 -0.5964  0.0499 -1.5063
 5433TIP3   OH237857   3.500   0.094   8.721 -0.7232  0.0130 -0.6768
 5433TIP3    H137858   3.499   0.183   8.684  0.5155 -0.2787 -1.4900
 5433TIP3    H237859   3.507   0.108   8.816 -0.8671  0.7816 -0.7731
 5434TIP3   OH237860   6.228   5.317   2.568  0.2138 -0.7049  0.7359
 5434TIP3    H137861   6.282   5.240   2.585  1.5444 -0.2963 -1.3874
 5434TIP3    H237862   6.158   5.285   2.511  1.2363 -0.2538 -0.8423
 5435TIP3   OH237863   1.132   2.058   8.258 -0.2639  0.0802 -0.0797
 5435TIP3    H137864   1.094   2.145   8.271  1.4359  0.7520  0.5718
 5435TIP3    H237865   1.194   2.069   8.186 -0.6229 -0.8064 -0.5430
 5436TIP3   OH237866   4.887   0.530   1.656 -0.3091 -0.4063 -0.1955
 5436TIP3    H137867   4.928   0.616   1.666  0.5289 -0.7310 -0.7628
 5436TIP3    H237868   4.863   0.525   1.564 -0.3191 -0.7949 -0.1729
 5437TIP3   OH237869   3.971   0.612   1.155  0.4084 -0.7649 -0.0374
 5437TIP3    H137870   4.023   0.656   1.222  1.6567  0.3506 -1.6793
 5437TIP3    H237871   3.962   0.522   1.187  2.4784 -0.7273  0.7895
 5438TIP3   OH237872   4.531   1.844   7.003 -0.3737  0.3260  0.3305
 5438TIP3    H137873   4.473   1.789   6.952 -0.4032  0.8167 -0.1703
 5438TIP3    H237874   4.475   1.885   7.068 -0.1700 -1.0911  1.4552
 5439TIP3   OH237875   5.398   2.722   0.064 -0.7307  0.1865  0.2946
 5439TIP3    H137876   5.358   2.797   0.019 -0.0780 -0.0061 -0.6321
 5439TIP3    H237877   5.400   2.748   0.156  0.3111  1.7093 -0.1266
 5440TIP3   OH237878   2.426   3.650   7.700 -0.2898 -0.0784 -0.4728
 5440TIP3    H137879   2.398   3.739   7.719  0.1715  0.4027 -1.8963
 5440TIP3    H237880   2.501   3.661   7.641  0.3809 -1.3931  0.0904
 5441TIP3   OH237881   6.448   5.968   8.403 -0.3596 -0.0327 -0.0079
 5441TIP3    H137882   6.474   5.976   8.495 -0.4233  1.9894 -0.1131
 5441TIP3    H237883   6.407   6.052   8.383 -2.8740 -1.4274 -1.1404
 5442TIP3   OH237884   4.472   0.060   0.096 -0.0271 -0.1649 -0.0265
 5442TIP3    H137885   4.524   0.116   0.039 -0.5876  0.5805  0.1815
 5442TIP3    H237886   4.395   0.113   0.118  0.3946 -0.2251  1.7978
 5443TIP3   OH237887   6.513   0.570   1.964 -0.4093  0.1912 -0.4357
 5443TIP3    H137888   6.557   0.603   1.885 -0.7084  1.8375  0.0378
 5443TIP3    H237889   6.504   0.647   2.020 -0.4467 -0.8938  1.1103
 5444TIP3   OH237890   4.558   4.164   1.366 -0.6215 -0.1247 -0.0742
 5444TIP3    H137891   4.596   4.215   1.438  0.0925  1.6436 -1.6025
 5444TIP3    H237892   4.493   4.108   1.408  0.2988  0.2763  2.0273
 5445TIP3   OH237893   5.984   5.060   1.703  0.3778 -0.2326  0.4833
 5445TIP3    H137894   6.035   5.135   1.735  0.6803 -0.1241 -0.2291
 5445TIP3    H237895   5.946   5.090   1.621 -1.2207 -0.1708  1.2133
 5446TIP3   OH237896   6.549   3.864   8.118 -0.1301 -0.5341  0.2783
 5446TIP3    H137897   6.587   3.951   8.103  1.2826 -1.0074  0.9513
 5446TIP3    H237898   6.621   3.803   8.103 -0.6252 -1.4828  1.5693
 5447TIP3   OH237899   5.966   4.589   1.657  0.1887 -0.0986  0.2204
 5447TIP3    H137900   6.013   4.666   1.688 -0.8466  0.6634 -0.0512
 5447TIP3    H237901   5.960   4.601   1.562  1.9471 -1.6240 -0.1224
 5448TIP3   OH237902   0.265   1.418   1.507  0.4705  1.0696 -0.1103
 5448TIP3    H137903   0.177   1.389   1.485  0.5779 -0.6264  1.3956
 5448TIP3    H237904   0.318   1.338   1.504  2.0290  2.0792 -1.1800
 5449TIP3   OH237905   3.499   0.243   2.365 -0.4054 -0.6195  0.2407
 5449TIP3    H137906   3.544   0.161   2.345  2.8084  0.6278  1.5161
 5449TIP3    H237907   3.460   0.229   2.451  0.8663 -0.6281  0.8488
 5450TIP3   OH237908   2.137   1.638   0.390  0.5565 -0.3665  0.8621
 5450TIP3    H137909   2.070   1.626   0.458  0.4984  0.2678  0.9220
 5450TIP3    H237910   2.093   1.614   0.309  0.3005 -0.0916  0.9187
 5451TIP3   OH237911   2.468   2.849   7.532 -0.2073  0.2726 -0.2918
 5451TIP3    H137912   2.463   2.894   7.448  1.2222 -0.4928 -0.8344
 5451TIP3    H237913   2.396   2.786   7.530 -0.5484  0.6693 -0.6851
 5452TIP3   OH237914   4.576   5.029   6.338  0.2213 -0.1641  0.2799
 5452TIP3    H137915   4.610   4.940   6.340 -0.5258 -0.4565  0.2545
 5452TIP3    H237916   4.481   5.018   6.333  0.1283  0.6328  0.2204
 5453TIP3   OH237917   6.613   5.820   1.575 -0.0121 -0.3305 -0.0271
 5453TIP3    H137918   6.623   5.779   1.489  0.4304  1.0901 -0.6756
 5453TIP3    H237919   6.694   5.797   1.621 -0.4850 -1.5615  0.2496
 5454TIP3   OH237920   4.946   1.366   1.271  0.1027  0.3760  0.4670
 5454TIP3    H137921   4.864   1.416   1.278 -0.2473 -0.1924  0.4476
 5454TIP3    H237922   4.988   1.377   1.357 -0.0391  0.5843  0.5109
 5455TIP3   OH237923   5.026   2.278   7.263 -0.3548 -0.0140  0.2629
 5455TIP3    H137924   5.062   2.344   7.204 -1.4759  1.1675  0.8456
 5455TIP3    H237925   5.054   2.306   7.350  0.0721 -0.9317  0.4334
 5456TIP3   OH237926   0.692   6.794   7.935  0.0781  0.1091 -0.2103
 5456TIP3    H137927   0.632   6.868   7.946  0.8371  0.6396  0.5270
 5456TIP3    H237928   0.636   6.717   7.937 -1.0726  0.6849 -3.5253
 5457TIP3   OH237929   2.616   1.743   0.489 -0.3720  0.7658 -0.0311
 5457TIP3    H137930   2.597   1.795   0.567 -2.2903  0.8929 -0.5232
 5457TIP3    H237931   2.702   1.773   0.461  0.4106  0.6220  2.0801
 5458TIP3   OH237932   5.666   2.481   7.783  0.3016 -0.2394  0.1299
 5458TIP3    H137933   5.657   2.544   7.711 -0.8814 -0.9042 -0.3429
 5458TIP3    H237934   5.576   2.467   7.812  0.6873 -0.7105  1.1118
 5459TIP3   OH237935   0.366   4.907   8.563 -0.1663 -0.0910 -0.2029
 5459TIP3    H137936   0.415   4.893   8.482 -0.2113  0.3440 -0.3076
 5459TIP3    H237937   0.299   4.839   8.563  0.5904 -0.8645  0.0652
 5460TIP3   OH237938   5.253   1.386   0.848 -0.0837  0.4791 -0.0165
 5460TIP3    H137939   5.161   1.393   0.875  0.1646  0.5081  0.8278
 5460TIP3    H237940   5.284   1.305   0.888 -0.2990 -0.6835 -2.0168
 5461TIP3   OH237941   1.562   1.563   2.087  0.1489  0.0310  0.5792
 5461TIP3    H137942   1.533   1.645   2.128  1.3829 -0.1128  1.8140
 5461TIP3    H237943   1.653   1.578   2.065 -0.2966 -0.1618 -1.5346
 5462TIP3   OH237944   0.338   5.018   0.807  0.2813  0.0674 -0.3271
 5462TIP3    H137945   0.333   4.978   0.894 -0.4632  0.4064 -0.2053
 5462TIP3    H237946   0.403   5.088   0.817 -2.1210  2.2792  0.8824
 5463TIP3   OH237947   0.620   3.189   6.008 -0.3226 -0.1998  0.4311
 5463TIP3    H137948   0.619   3.102   6.048  0.3583  0.0380  0.9807
 5463TIP3    H237949   0.564   3.242   6.065  0.1529 -0.0112  0.7246
 5464TIP3   OH237950   3.756   0.346   1.041  0.6487  0.4918  0.2225
 5464TIP3    H137951   3.739   0.379   0.953  0.2420 -0.3656 -0.0272
 5464TIP3    H237952   3.697   0.396   1.098  0.3945  0.5386 -0.0840
 5465TIP3   OH237953   6.800   6.702   1.456 -0.3219  0.1781 -0.0482
 5465TIP3    H137954   6.895   6.689   1.456 -0.0794  0.8557  3.5261
 5465TIP3    H237955   6.764   6.615   1.438  1.0478 -0.8231  1.7437
 5466TIP3   OH237956   3.856   4.634   7.487  0.3243 -0.1042 -0.0470
 5466TIP3    H137957   3.908   4.592   7.419 -0.8796 -1.9053  0.0723
 5466TIP3    H237958   3.774   4.583   7.490  0.3439 -0.1656  2.7558
 5467TIP3   OH237959   5.795   5.310   0.550 -0.5279  0.6363  0.0311
 5467TIP3    H137960   5.722   5.358   0.588 -1.3416  1.2608 -2.1400
 5467TIP3    H237961   5.856   5.378   0.521 -1.0891  0.3898 -1.9064
 5468TIP3   OH237962   6.102   6.435   7.522 -0.3768  0.2452  0.0123
 5468TIP3    H137963   6.109   6.526   7.494  0.6791  0.6107  1.3246
 5468TIP3    H237964   6.064   6.441   7.610  0.9021 -0.4596  0.6377
 5469TIP3   OH237965   5.827   2.975   0.772  0.2902  0.3978  0.4061
 5469TIP3    H137966   5.850   3.051   0.826 -0.1839  2.4930 -2.1575
 5469TIP3    H237967   5.732   2.980   0.763  0.2738 -0.4235  0.0361
 5470TIP3   OH237968   6.787   0.425   1.651  0.2269  0.3621 -0.2661
 5470TIP3    H137969   6.722   0.447   1.583 -0.1969 -1.5882 -0.5739
 5470TIP3    H237970   6.802   0.331   1.639  0.2706 -0.0170  2.2395
 5471TIP3   OH237971   4.837   0.766   0.913  0.5945  0.4140  0.0526
 5471TIP3    H137972   4.795   0.681   0.900  3.2966 -1.0067 -0.2247
 5471TIP3    H237973   4.821   0.787   1.005 -0.0264 -0.4650  0.1615
 5472TIP3   OH237974   2.726   2.288   0.088 -0.1639 -0.1303  0.9123
 5472TIP3    H137975   2.631   2.286   0.097 -0.4090 -0.8883 -1.1842
 5472TIP3    H237976   2.749   2.200   0.058  0.9530  0.5727 -0.4288
 5473TIP3   OH237977   3.748   4.112   7.573 -0.7250  0.0175  0.2837
 5473TIP3    H137978   3.706   4.051   7.633 -0.4306  0.0714  0.5465
 5473TIP3    H237979   3.828   4.139   7.618  0.2033 -0.9933 -0.7015
 5474TIP3   OH237980   3.284   5.859   8.176  0.3207 -0.3704 -0.8843
 5474TIP3    H137981   3.344   5.884   8.106 -1.4529  0.4671 -2.1928
 5474TIP3    H237982   3.262   5.768   8.157  1.0701 -0.6518 -0.4519
 5475TIP3   OH237983   5.429   6.443   6.805 -0.1690 -0.1524  0.2468
 5475TIP3    H137984   5.466   6.355   6.798 -1.3206 -0.6583  0.3844
 5475TIP3    H237985   5.342   6.436   6.767 -1.4140  0.1946  2.8366
 5476TIP3   OH237986   2.471   6.020   8.582 -0.1143  0.4588 -0.2293
 5476TIP3    H137987   2.416   6.074   8.639 -2.9794 -1.6403 -0.8275
 5476TIP3    H237988   2.501   5.948   8.638 -1.3319 -0.5565 -0.8477
 5477TIP3   OH237989   3.729   2.265   8.090 -0.5804 -0.2812 -0.5083
 5477TIP3    H137990   3.745   2.306   8.175 -0.4166  1.2868 -1.2652
 5477TIP3    H237991   3.816   2.258   8.050 -0.3809 -2.7939  0.1742
 5478TIP3   OH237992   4.658   1.326   6.372  0.3958 -0.0107 -0.2188
 5478TIP3    H137993   4.583   1.318   6.314  0.6256 -0.0761 -0.5092
 5478TIP3    H237994   4.660   1.243   6.420  1.0723 -0.5669 -1.1714
 5479TIP3   OH237995   5.393   5.424   7.044 -0.0533 -0.1144  0.2320
 5479TIP3    H137996   5.323   5.362   7.025  0.0248 -1.0088  2.4831
 5479TIP3    H237997   5.374   5.455   7.133  0.4001  2.4834 -0.4722
 5480TIP3   OH237998   0.272   2.340   7.957 -0.1594 -0.2498  0.1496
 5480TIP3    H137999   0.201   2.377   7.905 -0.2463 -0.3886  0.1710
 5480TIP3    H238000   0.338   2.410   7.960  0.5479 -0.8097 -1.4973
 5481TIP3   OH238001   1.467   5.880   8.516  0.6330  0.8976  0.4538
 5481TIP3    H138002   1.453   5.974   8.504 -2.6021  0.4295 -0.3291
 5481TIP3    H238003   1.418   5.839   8.445  0.9812 -1.4065  1.4504
 5482TIP3   OH238004   2.693   6.559   6.421  1.0678  0.1164 -0.0334
 5482TIP3    H138005   2.637   6.593   6.491  0.4557 -4.1161  1.8907
 5482TIP3    H238006   2.693   6.627   6.355 -4.1309  1.6417  1.0304
 5483TIP3   OH238007   0.760   1.350   0.121  0.3288 -0.7684 -0.1319
 5483TIP3    H138008   0.752   1.393   0.036  0.7653 -1.2694 -0.4344
 5483TIP3    H238009   0.854   1.353   0.140  0.2190 -0.5405  0.3986
 5484TIP3   OH238010   0.442   2.559   0.371  0.5877 -0.1688  0.5640
 5484TIP3    H138011   0.361   2.600   0.400  0.2787  0.0555 -0.5575
 5484TIP3    H238012   0.510   2.623   0.392  0.3183  0.1685  0.4201
 5485TIP3   OH238013   2.797   3.230   1.300 -0.1879 -0.6493 -0.0353
 5485TIP3    H138014   2.793   3.280   1.382 -1.9078  0.0716 -0.5201
 5485TIP3    H238015   2.735   3.274   1.242 -0.2840 -2.1841 -1.1548
 5486TIP3   OH238016   0.678   2.996   1.222 -0.0938 -0.0959 -0.5643
 5486TIP3    H138017   0.719   2.977   1.137  0.5071 -0.2918 -0.2329
 5486TIP3    H238018   0.747   3.039   1.273  0.0700 -1.4169  0.3837
 5487TIP3   OH238019   1.389   3.863   8.154 -0.7910 -0.1175  0.1976
 5487TIP3    H138020   1.371   3.936   8.213  0.7698  0.7927 -0.3738
 5487TIP3    H238021   1.305   3.846   8.110 -1.0661  1.7949 -0.1339
 5488TIP3   OH238022   1.621   4.495   0.218 -0.3746 -0.1113  0.5176
 5488TIP3    H138023   1.675   4.486   0.140 -2.8104  1.6790 -1.5671
 5488TIP3    H238024   1.659   4.568   0.266  2.0703 -2.1970  1.9816
 5489TIP3   OH238025   6.571   4.584   7.326  0.1235 -0.2517  0.8679
 5489TIP3    H138026   6.608   4.513   7.273  0.8553 -1.0817  2.4243
 5489TIP3    H238027   6.623   4.661   7.301 -0.3268 -0.3379 -0.4420
 5490TIP3   OH238028   2.296   3.995   1.761  0.0360  0.8446 -0.1168
 5490TIP3    H138029   2.225   3.932   1.765  0.3860  0.3241 -1.4344
 5490TIP3    H238030   2.318   4.013   1.852 -2.0223  1.3229  0.3199
 5491TIP3   OH238031   1.508   3.921   0.651 -0.4062  0.0032  0.3081
 5491TIP3    H138032   1.424   3.927   0.697 -0.0113  0.0277  1.0454
 5491TIP3    H238033   1.487   3.941   0.560 -1.3127 -0.6616  0.3602
 5492TIP3   OH238034   4.133   4.188   7.482  0.2890  0.2676 -0.1796
 5492TIP3    H138035   4.175   4.195   7.568 -0.6052  1.8342  0.1759
 5492TIP3    H238036   4.115   4.094   7.471  2.3752 -0.2328  0.3476
 5493TIP3   OH238037   5.753   0.239   8.792  0.3078 -0.1393 -0.7440
 5493TIP3    H138038   5.667   0.221   8.830 -0.1947  0.5154 -1.5343
 5493TIP3    H238039   5.785   0.153   8.765  0.7345 -0.6384  1.2137
 5494TIP3   OH238040   3.185   5.009   0.771  0.5031 -0.1407  0.3408
 5494TIP3    H138041   3.254   4.948   0.746  1.3415  1.0513 -0.3941
 5494TIP3    H238042   3.132   4.961   0.835  1.3661 -1.4676  0.0993
 5495TIP3   OH238043   3.128   6.073   8.086  0.3710  0.1401 -0.4737
 5495TIP3    H138044   3.129   5.987   8.128 -0.1956  1.0034  1.4126
 5495TIP3    H238045   3.078   6.060   8.006  0.4378 -1.3184 -0.3018
 5496TIP3   OH238046   4.879   4.070   7.787  0.1538  0.2200 -0.4022
 5496TIP3    H138047   4.866   4.107   7.874 -0.3261 -0.0937 -0.3374
 5496TIP3    H238048   4.958   4.018   7.794  0.6012  0.8878 -0.3832
 5497TIP3   OH238049   3.992   0.876   0.257 -0.0421  0.0560  0.1244
 5497TIP3    H138050   4.049   0.904   0.185 -0.8047  1.3837  0.0242
 5497TIP3    H238051   4.052   0.833   0.318  0.4873 -2.0981 -1.7286
 5498TIP3   OH238052   4.674   5.500   8.549  0.5507  0.6061  0.3450
 5498TIP3    H138053   4.698   5.589   8.575 -1.3943  1.6296 -1.0901
 5498TIP3    H238054   4.674   5.502   8.453  1.2302 -1.2099  0.2481
 5499TIP3   OH238055   5.967   4.320   7.149  0.1178  0.3059 -0.0067
 5499TIP3    H138056   6.010   4.366   7.221  0.7564  0.3474 -0.4149
 5499TIP3    H238057   5.918   4.249   7.192 -1.2920  1.6308  0.6989
 5500TIP3   OH238058   4.428   5.848   7.977 -0.2542 -0.4033 -0.2425
 5500TIP3    H138059   4.429   5.784   7.906  3.1027 -1.1464  0.3248
 5500TIP3    H238060   4.386   5.925   7.940  0.1092 -1.2706 -2.5808
 5501TIP3   OH238061   2.604   0.251   8.477  0.3090  0.1614 -0.4446
 5501TIP3    H138062   2.553   0.171   8.489 -1.3079  1.0410 -1.1528
 5501TIP3    H238063   2.645   0.241   8.391  1.2092 -0.4464  0.0306
 5502TIP3   OH238064   1.656   3.713   0.426  0.1060  0.5189  0.3954
 5502TIP3    H138065   1.722   3.766   0.471 -0.1356  1.1353  0.0270
 5502TIP3    H238066   1.619   3.658   0.495  0.6878  0.4967  0.6920
 5503TIP3   OH238067   0.786   6.421   0.351 -0.1443 -0.1712 -0.5485
 5503TIP3    H138068   0.842   6.458   0.282  0.7475  0.1079  0.2946
 5503TIP3    H238069   0.838   6.350   0.388  0.5402  1.3101  1.5489
 5504TIP3   OH238070   1.062   3.320   7.652 -0.3880  0.5063 -0.0790
 5504TIP3    H138071   0.972   3.330   7.683 -1.1213  0.8724 -2.1713
 5504TIP3    H238072   1.069   3.380   7.578  1.5653  0.4268 -0.0015
 5505TIP3   OH238073   3.281   3.026   7.658  0.1936 -0.2389  0.0059
 5505TIP3    H138074   3.375   3.014   7.672  0.5644  2.1283  0.0890
 5505TIP3    H238075   3.256   2.956   7.598  1.4520 -2.3839  1.8441
 5506TIP3   OH238076   6.215   4.051   1.800 -0.6632 -0.1497 -0.2913
 5506TIP3    H138077   6.163   3.991   1.853 -0.3079 -0.0834  0.1338
 5506TIP3    H238078   6.306   4.033   1.826 -0.5765  0.8194  0.1009
 5507TIP3   OH238079   0.969   2.533   2.205 -0.4023 -0.1728 -0.0321
 5507TIP3    H138080   0.912   2.608   2.190 -1.8018 -1.2990 -0.5019
 5507TIP3    H238081   0.916   2.473   2.258  1.1361 -0.3077  1.4352
 5508TIP3   OH238082   6.288   4.092   7.201  0.6587  0.2357  0.0621
 5508TIP3    H138083   6.243   4.059   7.123  0.2757 -0.5678  0.6066
 5508TIP3    H238084   6.344   4.162   7.168  1.0293 -0.5476 -1.0472
 5509TIP3   OH238085   5.231   1.524   8.748 -0.3450 -0.3521 -0.8235
 5509TIP3    H138086   5.186   1.451   8.706 -0.5175 -1.5003  1.2339
 5509TIP3    H238087   5.164   1.566   8.803 -0.1377  1.1177 -1.6372
 5510TIP3   OH238088   2.877   2.147   8.494  0.1568 -0.0247  0.1175
 5510TIP3    H138089   2.963   2.156   8.534  0.9223 -0.8237 -1.2493
 5510TIP3    H238090   2.888   2.078   8.428 -2.0270 -1.6015  1.2438
 5511TIP3   OH238091   5.868   1.290   6.180  0.0293  0.3296 -0.0559
 5511TIP3    H138092   5.956   1.314   6.209  0.4081  0.3294 -1.1469
 5511TIP3    H238093   5.818   1.278   6.261  1.0182  0.3669  0.5753
 5512TIP3   OH238094   0.389   1.652   6.830 -0.8160 -0.0869  0.0980
 5512TIP3    H138095   0.378   1.697   6.914 -0.0272 -0.7656  0.5836
 5512TIP3    H238096   0.470   1.690   6.794 -0.4685 -0.6844  0.2381
 5513TIP3   OH238097   1.284   4.805   6.587 -0.1702 -0.3943 -0.2802
 5513TIP3    H138098   1.213   4.786   6.525 -1.7765 -0.9982  1.6407
 5513TIP3    H238099   1.316   4.719   6.613  1.7165 -0.1295 -1.5158
 5514TIP3   OH238100   2.516   0.571   7.594 -0.2229  0.1094  0.1604
 5514TIP3    H138101   2.475   0.568   7.508  0.5408 -2.0536 -0.1923
 5514TIP3    H238102   2.546   0.662   7.604  0.0431  0.3119 -2.0351
 5515TIP3   OH238103   5.273   3.222   6.770  0.2157  0.5228 -0.6881
 5515TIP3    H138104   5.359   3.193   6.740  0.2389  0.8253 -0.9205
 5515TIP3    H238105   5.252   3.296   6.713  0.4110  1.3338  0.2638
 5516TIP3   OH238106   2.253   1.886   0.464 -0.6528  0.0707  0.4608
 5516TIP3    H138107   2.188   1.816   0.467  1.0722 -1.5983  2.0422
 5516TIP3    H238108   2.303   1.869   0.384 -1.4084  0.6794 -0.1575
 5517TIP3   OH238109   6.579   4.834   1.479 -0.3457  0.4022  0.3373
 5517TIP3    H138110   6.534   4.872   1.555  0.6482  0.5725  0.8583
 5517TIP3    H238111   6.522   4.763   1.451 -0.2012 -0.3992  1.9454
 5518TIP3   OH238112   0.082   1.358   2.621 -0.1248 -0.3191  0.4526
 5518TIP3    H138113   0.168   1.376   2.659 -0.4019  1.2326  0.4485
 5518TIP3    H238114   0.041   1.445   2.615 -0.8030 -0.7326 -1.6392
 5519TIP3   OH238115   4.887   6.078   1.491  0.0233 -0.0623 -0.2282
 5519TIP3    H138116   4.916   5.990   1.515  2.1817  0.5746 -0.2933
 5519TIP3    H238117   4.801   6.065   1.451  1.3458 -2.4383 -2.5621
 5520TIP3   OH238118   5.904   4.917   6.789 -0.0378  0.4234 -0.4903
 5520TIP3    H138119   5.820   4.897   6.748  0.3112  1.2809 -1.6319
 5520TIP3    H238120   5.950   4.832   6.792  0.1755  0.4383 -2.4393
 5521TIP3   OH238121   4.694   2.504   6.399  0.2757 -0.3744 -0.0713
 5521TIP3    H138122   4.619   2.444   6.396 -0.5450  0.6333 -0.0663
 5521TIP3    H238123   4.662   2.580   6.446  1.2342  0.1836 -0.3036
 5522TIP3   OH238124   5.893   4.956   8.534  0.0636  0.7763  0.3094
 5522TIP3    H138125   5.904   5.038   8.486  1.6937  0.0889 -0.5571
 5522TIP3    H238126   5.952   4.964   8.609  0.2779  0.3634  0.1836
 5523TIP3   OH238127   6.562   1.857   8.367  0.3461  0.1417  0.1042
 5523TIP3    H138128   6.519   1.916   8.428  0.6149  1.3621 -0.8522
 5523TIP3    H238129   6.598   1.788   8.422  1.3558  1.6711  1.4506
 5524TIP3   OH238130   0.767   2.734   0.478  0.2192 -0.7638  0.1633
 5524TIP3    H138131   0.816   2.653   0.463 -0.0649 -0.6997 -1.2339
 5524TIP3    H238132   0.748   2.733   0.572 -0.8824 -2.9857  0.0019
 5525TIP3   OH238133   0.795   5.261   6.651  0.1983 -0.3320  0.4392
 5525TIP3    H138134   0.777   5.333   6.712  0.8491 -0.2071  0.4898
 5525TIP3    H238135   0.729   5.195   6.673  0.6132 -0.4136  1.4973
 5526TIP3   OH238136   0.351   3.097   1.048  0.0904  0.1683  0.4933
 5526TIP3    H138137   0.404   3.017   1.043 -0.9404 -0.7706  3.1310
 5526TIP3    H238138   0.263   3.067   1.069 -0.9107  1.8980 -0.8866
 5527TIP3   OH238139   4.319   2.540   1.030 -0.2450  0.2268  0.5748
 5527TIP3    H138140   4.396   2.565   1.080  1.0620  0.5845 -1.4855
 5527TIP3    H238141   4.313   2.605   0.960 -0.8773 -1.2425 -0.8212
 5528TIP3   OH238142   2.070   0.572   1.428  0.0315 -0.0504  0.5374
 5528TIP3    H138143   2.035   0.661   1.427  0.6156  0.2767  2.7768
 5528TIP3    H238144   2.164   0.583   1.413 -0.2574 -0.6361 -2.2442
 5529TIP3   OH238145   4.367   3.591   8.061 -0.6527 -0.2180  0.1663
 5529TIP3    H138146   4.406   3.614   7.977  2.0394  0.4132  1.4758
 5529TIP3    H238147   4.368   3.496   8.063  3.1064 -0.3000  0.9892
 5530TIP3   OH238148   2.064   2.594   6.033 -0.3712  0.3648 -0.1365
 5530TIP3    H138149   2.004   2.536   6.081 -2.0905  1.8161 -0.4039
 5530TIP3    H238150   2.125   2.626   6.099  0.4037 -1.4580  0.0744
 5531TIP3   OH238151   3.625   1.969   7.808  0.2679 -0.0656 -0.6546
 5531TIP3    H138152   3.580   1.965   7.723  0.2912 -0.3690 -0.6547
 5531TIP3    H238153   3.664   2.056   7.810 -0.0329  0.0775 -0.8026
 5532TIP3   OH238154   2.964   5.851   1.149  0.0756 -0.8482 -0.3642
 5532TIP3    H138155   2.888   5.905   1.128  1.1578 -0.3925 -3.6071
 5532TIP3    H238156   2.944   5.815   1.235 -1.9050  2.5317  0.7778
 5533TIP3   OH238157   1.767   3.984   1.854  0.3230  0.5816 -0.0498
 5533TIP3    H138158   1.680   4.017   1.878 -0.8329 -0.6673 -2.1851
 5533TIP3    H238159   1.764   3.891   1.877  1.5188  0.7258  0.8069
 5534TIP3   OH238160   3.151   1.214   8.286  0.5462  0.3577  0.2282
 5534TIP3    H138161   3.066   1.175   8.305  0.0530  1.2833 -0.0367
 5534TIP3    H238162   3.170   1.270   8.361  0.0440  1.6002 -0.5575
 5535TIP3   OH238163   2.439   5.080   0.612  0.4130 -0.1047 -0.4421
 5535TIP3    H138164   2.505   5.115   0.673  1.5919 -0.9785 -1.1847
 5535TIP3    H238165   2.490   5.049   0.537 -0.8856 -0.4957 -1.1843
 5536TIP3   OH238166   1.813   3.858   8.339  0.2754  0.5214  0.4033
 5536TIP3    H138167   1.888   3.888   8.391  0.0445 -0.0278  1.0548
 5536TIP3    H238168   1.841   3.773   8.304 -0.7618 -0.6353  2.2610
 5537TIP3   OH238169   1.078   4.977   0.700 -0.0964  0.3014 -0.0812
 5537TIP3    H138170   1.002   5.017   0.657 -0.1882 -0.6051 -0.8055
 5537TIP3    H238171   1.040   4.916   0.763  0.0183  0.1957 -0.1124
 5538TIP3   OH238172   1.079   5.986   0.434 -0.7512 -0.4530 -0.0233
 5538TIP3    H138173   1.037   6.044   0.371  0.3738 -0.9608 -1.2813
 5538TIP3    H238174   1.040   5.900   0.417  0.2375 -0.7861 -0.7200
 5539TIP3   OH238175   5.182   5.045   0.551 -0.0371  0.5776  0.2146
 5539TIP3    H138176   5.214   5.096   0.477  1.1516  0.5879  0.7199
 5539TIP3    H238177   5.186   4.954   0.521  1.8526  0.4485  0.7329
 5540TIP3   OH238178   0.831   6.748   7.139 -0.0451  0.0302  0.7420
 5540TIP3    H138179   0.836   6.674   7.078 -0.5446 -0.4888  1.3087
 5540TIP3    H238180   0.921   6.779   7.146 -0.0218  0.3098 -0.5012
 5541TIP3   OH238181   0.973   2.595   7.417 -0.1062  0.3822  0.0834
 5541TIP3    H138182   0.907   2.653   7.454 -0.4323  0.0828 -0.0232
 5541TIP3    H238183   1.014   2.647   7.348 -1.7839 -0.1515 -1.4189
 5542TIP3   OH238184   5.134   5.068   1.215  0.0919 -0.1885  0.7751
 5542TIP3    H138185   5.116   4.985   1.171  0.7017 -0.1128  0.3619
 5542TIP3    H238186   5.152   5.129   1.143 -0.4386  0.3214  1.0694
 5543TIP3   OH238187   5.999   6.172   7.066 -0.1714  0.5510 -0.4527
 5543TIP3    H138188   5.968   6.088   7.031  0.5999  0.3261 -0.6318
 5543TIP3    H238189   6.087   6.182   7.029 -0.0994  1.2457 -0.1097
 5544TIP3   OH238190   4.767   2.127   1.455 -0.0542 -0.4061  0.3976
 5544TIP3    H138191   4.707   2.200   1.442 -0.1989 -0.8004 -1.4339
 5544TIP3    H238192   4.854   2.162   1.434 -0.1611 -0.7947 -0.8016
 5545TIP3   OH238193   0.586   5.458   7.706  0.6348  1.0225  0.0963
 5545TIP3    H138194   0.586   5.453   7.610  0.0123 -1.2432  0.1514
 5545TIP3    H238195   0.494   5.458   7.730  0.7599 -0.8315  0.7177
 5546TIP3   OH238196   2.088   4.896   2.078 -0.1914  0.4306 -0.2469
 5546TIP3    H138197   1.995   4.919   2.078 -0.3943 -0.3230  1.0938
 5546TIP3    H238198   2.089   4.800   2.079  0.5902  0.4366  0.4044
 5547TIP3   OH238199   0.962   2.102   8.808  0.2394 -0.2492 -0.8612
 5547TIP3    H138200   0.878   2.136   8.838  1.7542  1.5006  1.7306
 5547TIP3    H238201   0.977   2.024   8.861  0.5030 -0.2408 -0.9199
 5548TIP3   OH238202   4.233   0.267   0.587  0.4603  0.8532 -0.0316
 5548TIP3    H138203   4.226   0.356   0.621  0.5906  1.5024 -1.5959
 5548TIP3    H238204   4.327   0.250   0.582  0.4342  0.6125  0.3205
 5549TIP3   OH238205   0.268   5.269   7.245 -0.7931  0.0939 -0.0840
 5549TIP3    H138206   0.289   5.362   7.235  1.1773 -0.0844  1.6444
 5549TIP3    H238207   0.344   5.223   7.210 -0.3606 -0.7619  1.8690
 5550TIP3   OH238208   0.476   1.975   8.736 -0.1334 -0.5657 -0.2321
 5550TIP3    H138209   0.509   2.053   8.692  1.4542 -0.7611  0.5577
 5550TIP3    H238210   0.469   1.909   8.666 -1.3644  0.2127 -0.8766
 5551TIP3   OH238211   6.223   1.861   1.359  0.3394 -0.7851 -0.2199
 5551TIP3    H138212   6.216   1.802   1.434 -0.4442 -0.3891  0.0284
 5551TIP3    H238213   6.275   1.935   1.391  0.8651 -1.0847 -0.3725
 5552TIP3   OH238214   5.522   2.230   7.254  0.3386  0.2509  0.4428
 5552TIP3    H138215   5.540   2.238   7.348 -0.0714 -1.6272  0.7190
 5552TIP3    H238216   5.546   2.141   7.232  1.5339  1.0030 -1.5416
 5553TIP3   OH238217   5.920   3.043   8.407  0.0032 -0.1504 -0.6990
 5553TIP3    H138218   5.866   2.968   8.382 -0.7672  0.0464  0.2856
 5553TIP3    H238219   5.951   3.022   8.495 -0.5526  0.8492 -0.2481
 5554TIP3   OH238220   1.012   3.155   0.730  0.1957  0.0359 -0.2738
 5554TIP3    H138221   0.916   3.155   0.729  0.1489 -0.3875 -3.1224
 5554TIP3    H238222   1.036   3.063   0.739  0.3740  0.1681  0.7262
 5555TIP3   OH238223   0.542   3.184   1.536  0.1241 -0.6080 -0.3024
 5555TIP3    H138224   0.586   3.106   1.570 -2.4059 -1.3707  1.5428
 5555TIP3    H238225   0.536   3.169   1.441  0.1020 -2.4669 -0.0357
 5556TIP3   OH238226   3.421   3.481   0.289 -0.1874 -0.2808 -0.4205
 5556TIP3    H138227   3.340   3.504   0.333  0.8929 -0.1684  1.6254
 5556TIP3    H238228   3.490   3.502   0.352  1.4450 -0.4350 -2.0497
 5557TIP3   OH238229   0.991   4.553   0.576  0.6263  0.0663  0.1909
 5557TIP3    H138230   1.004   4.616   0.506 -0.8713  1.3024  0.9815
 5557TIP3    H238231   1.034   4.593   0.652  0.1620 -0.1272  0.5595
 5558TIP3   OH238232   6.360   2.510   8.290 -0.5503  0.3263  0.0972
 5558TIP3    H138233   6.280   2.537   8.245 -0.9586 -0.1105  0.5474
 5558TIP3    H238234   6.341   2.522   8.383  0.7347  2.4617  0.1495
 5559TIP3   OH238235   6.114   1.541   0.616  0.0058  0.2349 -0.2156
 5559TIP3    H138236   6.124   1.447   0.628  0.3804  0.1279 -1.2875
 5559TIP3    H238237   6.146   1.579   0.698  1.7200 -0.4816 -0.5280
 5560TIP3   OH238238   4.468   3.833   1.712 -0.5682  0.0044  0.2393
 5560TIP3    H138239   4.511   3.912   1.681 -0.8305  0.4075  0.8909
 5560TIP3    H238240   4.533   3.764   1.700  0.2238  0.5924  1.1234
 5561TIP3   OH238241   3.273   0.752   8.011  0.3536  0.3230  0.6043
 5561TIP3    H138242   3.286   0.847   8.005  0.4523  0.2848  0.1811
 5561TIP3    H238243   3.269   0.734   8.105  0.6226  0.7089  0.6923
 5562TIP3   OH238244   0.923   2.550   0.158 -0.1536 -0.9336  0.1150
 5562TIP3    H138245   0.835   2.539   0.122  0.5209 -2.2761 -1.2087
 5562TIP3    H238246   0.920   2.503   0.242 -1.4713  1.4717  1.5454
 5563TIP3   OH238247   2.767   5.304   6.985 -0.1531 -0.1278 -0.4430
 5563TIP3    H138248   2.734   5.319   7.074  0.9229  0.8082 -0.1738
 5563TIP3    H238249   2.737   5.381   6.936  2.2282  1.2148  0.0192
 5564TIP3   OH238250   2.083   5.264   7.571 -0.2502  0.4465  0.1393
 5564TIP3    H138251   2.171   5.249   7.604 -1.4422  0.0953  3.5498
 5564TIP3    H238252   2.041   5.179   7.573 -1.2055  0.9062  0.4411
 5565TIP3   OH238253   0.268   0.969   8.395  0.2563  0.5183  1.0287
 5565TIP3    H138254   0.322   0.985   8.317 -2.7073  0.7190 -1.1250
 5565TIP3    H238255   0.306   1.027   8.462  2.4052  0.9580 -0.4480
 5566TIP3   OH238256   0.255   1.072   8.085 -0.6896 -0.0933  0.6767
 5566TIP3    H138257   0.160   1.084   8.097 -0.7986  0.5491 -0.6377
 5566TIP3    H238258   0.261   0.998   8.023 -0.4502  1.3353 -1.0892
 5567TIP3   OH238259   5.526   2.743   1.131  0.2045 -0.3620 -0.2955
 5567TIP3    H138260   5.503   2.679   1.199  2.6303 -1.7757 -0.6836
 5567TIP3    H238261   5.521   2.693   1.049  0.7778  0.3401 -0.7654
 5568TIP3   OH238262   2.823   0.814   7.043  0.6580  0.5557  0.1292
 5568TIP3    H138263   2.754   0.846   6.985  2.2832  1.1239 -1.6322
 5568TIP3    H238264   2.858   0.892   7.085  1.1419  0.4610 -0.0831
 5569TIP3   OH238265   0.662   1.379   6.276 -0.0810 -0.2302  0.3105
 5569TIP3    H138266   0.663   1.450   6.340 -0.0434  0.0915 -0.0448
 5569TIP3    H238267   0.682   1.300   6.328 -1.5319 -0.2058  0.9655
 5570TIP3   OH238268   4.128   3.804   0.965 -0.0230  0.1723 -0.0377
 5570TIP3    H138269   4.180   3.725   0.958 -1.3893 -0.8007  0.3061
 5570TIP3    H238270   4.111   3.814   1.059 -0.2376  0.6044 -0.1175
 5571TIP3   OH238271   2.422   5.773   7.852  0.1074 -0.5446 -0.8186
 5571TIP3    H138272   2.453   5.761   7.942 -1.1502 -0.1614 -0.3124
 5571TIP3    H238273   2.420   5.684   7.815  0.7230 -0.6910 -0.5019
 5572TIP3   OH238274   5.108   2.796   1.005  0.1608 -0.3047 -0.0669
 5572TIP3    H138275   5.175   2.862   0.985 -1.3218  1.4383  0.4850
 5572TIP3    H238276   5.118   2.779   1.098 -1.4362  1.5228  0.4894
 5573TIP3   OH238277   2.452   3.267   1.401 -0.2875  0.0816 -0.3082
 5573TIP3    H138278   2.495   3.230   1.478  1.7195  0.1379 -1.3138
 5573TIP3    H238279   2.396   3.336   1.435 -2.9346 -2.7067  1.4805
 5574TIP3   OH238280   4.499   0.314   0.828  0.3773 -0.3805 -1.0557
 5574TIP3    H138281   4.454   0.231   0.810 -0.6598 -0.6789  2.3054
 5574TIP3    H238282   4.581   0.288   0.869  0.1063  0.2531 -0.1021
 5575TIP3   OH238283   0.084   0.641   0.672  0.2851 -0.4607  0.0227
 5575TIP3    H138284   0.015   0.616   0.734  0.2929 -0.9263 -0.1491
 5575TIP3    H238285   0.152   0.575   0.685 -0.2277 -1.3092 -1.3367
 5576TIP3   OH238286   4.404   3.848   6.633 -0.3263  0.0618  0.2954
 5576TIP3    H138287   4.405   3.942   6.652 -0.6630 -0.2200  1.8463
 5576TIP3    H238288   4.496   3.825   6.621 -0.3694  1.2918 -4.3037
 5577TIP3   OH238289   4.964   4.374   8.768 -0.6151 -0.2763 -0.0772
 5577TIP3    H138290   5.041   4.419   8.733 -0.1242 -2.0616 -1.4444
 5577TIP3    H238291   4.916   4.345   8.690 -2.4854  0.4490  0.7582
 5578TIP3   OH238292   4.500   4.048   8.560 -0.0095 -0.1570  0.8174
 5578TIP3    H138293   4.557   4.119   8.589  0.2874 -0.1624  0.2496
 5578TIP3    H238294   4.556   3.991   8.507 -1.0130  1.0801 -1.7603
 5579TIP3   OH238295   1.223   2.152   8.784 -0.4652  0.5264 -0.9346
 5579TIP3    H138296   1.264   2.237   8.794 -1.3036  0.7718  0.7730
 5579TIP3    H238297   1.129   2.170   8.780 -1.0043 -0.3833  2.9032
 5580TIP3   OH238298   5.810   3.683   8.155  0.5087 -0.2991  0.3519
 5580TIP3    H138299   5.810   3.731   8.238  2.8858  0.4380  0.0268
 5580TIP3    H238300   5.718   3.677   8.129 -0.0727  1.7981  1.7233
 5581TIP3   OH238301   3.007   6.698   6.316 -0.2163  0.2830 -0.0415
 5581TIP3    H138302   2.954   6.633   6.270 -0.3980  0.5982 -0.2869
 5581TIP3    H238303   2.987   6.780   6.271  0.2944  0.4443  0.0232
 5582TIP3   OH238304   1.504   5.878   6.644 -0.2853 -0.0856  0.0505
 5582TIP3    H138305   1.563   5.944   6.608 -1.0286  0.3538 -0.3701
 5582TIP3    H238306   1.426   5.882   6.589 -0.3627 -1.2800  0.0473
 5583TIP3   OH238307   5.917   1.536   0.966  0.0438 -0.2057  0.5259
 5583TIP3    H138308   6.001   1.540   1.013 -0.0122 -1.8603  0.8276
 5583TIP3    H238309   5.888   1.445   0.976 -0.1386 -0.5783 -2.4424
 5584TIP3   OH238310   3.835   3.183   0.147 -0.0945 -0.6378 -0.1154
 5584TIP3    H138311   3.856   3.170   0.240 -0.0988 -1.3929 -0.2153
 5584TIP3    H238312   3.846   3.097   0.108 -0.8817 -0.5000 -0.6645
 5585TIP3   OH238313   5.732   5.867   7.896 -0.3219 -0.1978  0.0898
 5585TIP3    H138314   5.809   5.842   7.845 -1.2242  2.3576 -2.7807
 5585TIP3    H238315   5.668   5.797   7.879  0.4152 -0.9470  0.3114
 5586TIP3   OH238316   1.203   6.408   0.523 -0.0814  0.0474  0.1706
 5586TIP3    H138317   1.160   6.335   0.568  1.5727 -0.1597  1.5333
 5586TIP3    H238318   1.192   6.482   0.583  0.7422  0.1798  0.1674
 5587TIP3   OH238319   4.514   6.262   0.606  0.0690  0.3970 -0.3098
 5587TIP3    H138320   4.559   6.186   0.570 -1.1142 -0.1623 -0.6464
 5587TIP3    H238321   4.453   6.226   0.669 -1.3023  0.9572 -1.2785
 5588TIP3   OH238322   1.726   3.318   7.091 -0.0650  0.3277  0.1514
 5588TIP3    H138323   1.701   3.305   6.999  2.2693 -0.3178 -0.4669
 5588TIP3    H238324   1.715   3.232   7.131 -0.2143  0.3923  0.2501
 5589TIP3   OH238325   0.255   2.596   8.239  0.0708  0.2129 -1.1458
 5589TIP3    H138326   0.318   2.655   8.280  1.5365  0.5330 -3.6145
 5589TIP3    H238327   0.182   2.592   8.300  1.0370  2.5089  0.2916
 5590TIP3   OH238328   2.473   1.753   1.532 -0.2643  0.2644 -0.1732
 5590TIP3    H138329   2.383   1.741   1.500 -0.5929 -1.6573  1.3078
 5590TIP3    H238330   2.466   1.747   1.627  1.4879 -0.5170 -0.0514
 5591TIP3   OH238331   1.044   4.486   8.069 -0.2010 -0.1712 -0.1906
 5591TIP3    H138332   0.959   4.448   8.045  0.9764 -2.0078 -1.6925
 5591TIP3    H238333   1.065   4.446   8.153 -0.4854 -0.2675 -0.1616
 5592TIP3   OH238334   1.079   5.144   0.387 -0.1691 -0.0813 -0.1026
 5592TIP3    H138335   1.039   5.157   0.473 -0.5614 -0.6594 -0.1897
 5592TIP3    H238336   1.019   5.185   0.326 -0.7894 -1.1791 -0.2596
 5593TIP3   OH238337   2.032   3.566   0.275 -0.3719 -1.0096 -0.3525
 5593TIP3    H138338   1.991   3.502   0.333 -1.7061  0.7399  0.7562
 5593TIP3    H238339   1.959   3.603   0.225  0.2709  0.0331 -0.5536
 5594TIP3   OH238340   0.634   0.634   7.006 -0.1836 -0.0152  0.3467
 5594TIP3    H138341   0.692   0.639   7.083  0.7204 -0.2361 -0.3024
 5594TIP3    H238342   0.663   0.707   6.951  0.5874 -1.1113 -0.7325
 5595TIP3   OH238343   3.371   3.966   1.292 -0.2598 -0.2104 -0.3750
 5595TIP3    H138344   3.462   3.943   1.272 -0.5573 -0.2735 -1.8044
 5595TIP3    H238345   3.367   4.061   1.276 -0.7884 -0.4576 -1.8639
 5596TIP3   OH238346   5.119   1.378   0.218  0.0051  0.4746 -0.0448
 5596TIP3    H138347   5.194   1.337   0.174 -0.3586  0.3457 -0.5599
 5596TIP3    H238348   5.050   1.312   0.211  0.1500  0.1451  1.3921
 5597TIP3   OH238349   6.290   6.315   0.298 -0.0677 -0.2179  0.1885
 5597TIP3    H138350   6.268   6.402   0.330 -0.6333 -0.5205  0.6321
 5597TIP3    H238351   6.343   6.276   0.367 -0.7456 -0.6332  0.4795
 5598TIP3   OH238352   2.960   3.041   1.629  0.5150  0.3218 -0.3369
 5598TIP3    H138353   2.944   3.134   1.616 -2.3637  0.4365  2.5456
 5598TIP3    H238354   3.049   3.036   1.664  0.9762  1.8628 -1.2004
 5599TIP3   OH238355   0.099   0.520   8.440  0.7439 -0.5687 -0.1591
 5599TIP3    H138356   0.144   0.440   8.466  2.0330  0.9355  2.7581
 5599TIP3    H238357   0.169   0.583   8.425 -0.2642  0.2050 -1.9464
 5600TIP3   OH238358   1.985   6.630   7.698 -0.5049  0.0314 -0.0687
 5600TIP3    H138359   1.942   6.548   7.721 -0.8882 -0.0707 -1.0821
 5600TIP3    H238360   1.980   6.633   7.602  2.9068 -0.6175 -0.3902
 5601TIP3   OH238361   5.743   2.191   0.569 -0.3972 -0.1755  0.7698
 5601TIP3    H138362   5.704   2.172   0.654 -2.6320 -0.5856 -0.2911
 5601TIP3    H238363   5.714   2.280   0.549  0.6418  0.1557  0.6802
 5602TIP3   OH238364   3.977   5.570   2.197 -0.3666  0.4388  0.2052
 5602TIP3    H138365   3.923   5.557   2.120 -1.7859  2.8387  0.6812
 5602TIP3    H238366   3.939   5.512   2.263 -0.1793 -0.4033 -0.4064
 5603TIP3   OH238367   3.340   1.874   0.418  0.6209 -0.0490 -0.1504
 5603TIP3    H138368   3.435   1.868   0.413  0.4838 -1.7762 -1.8153
 5603TIP3    H238369   3.318   1.830   0.500  1.1903 -1.5513 -0.7566
 5604TIP3   OH238370   0.074   2.039   1.232 -0.3499  0.1167 -0.9586
 5604TIP3    H138371   0.051   2.013   1.143  2.3200 -1.5474 -1.2839
 5604TIP3    H238372   0.154   1.990   1.251 -1.2991 -0.3350  2.7180
 5605TIP3   OH238373   5.459   5.253   1.758 -0.3435 -0.5953  0.0751
 5605TIP3    H138374   5.395   5.248   1.829 -2.4304 -1.9198 -1.7593
 5605TIP3    H238375   5.455   5.344   1.728  0.3101 -0.1125  1.3836
 5606TIP3   OH238376   6.044   1.864   2.130 -0.4361  0.0355  0.5158
 5606TIP3    H138377   6.007   1.946   2.096  0.2023  0.5610  1.0447
 5606TIP3    H238378   6.102   1.892   2.201  1.3048 -0.6999 -0.5418
 5607TIP3   OH238379   5.116   6.344   8.411  0.3441 -0.4693  0.0300
 5607TIP3    H138380   5.023   6.369   8.415  0.3548 -0.5419  0.9278
 5607TIP3    H238381   5.116   6.249   8.418  0.5834 -0.3523  2.8454
 5608TIP3   OH238382   5.266   0.026   8.069  0.1625  0.0834 -0.2132
 5608TIP3    H138383   5.178  -0.008   8.090 -0.2511  1.3001  0.0853
 5608TIP3    H238384   5.311  -0.049   8.029 -0.8805 -0.6757 -0.0224
 5609TIP3   OH238385   4.494   6.070   6.785  0.3559 -0.2750 -0.2629
 5609TIP3    H138386   4.574   6.033   6.748  0.1092 -1.9988  0.7940
 5609TIP3    H238387   4.432   6.070   6.712  0.8467 -0.4834 -0.6833
 5610TIP3   OH238388   1.469   2.891   8.578  0.4666 -0.0757  0.5318
 5610TIP3    H138389   1.438   2.977   8.552  2.2852  1.6870  3.6386
 5610TIP3    H238390   1.534   2.867   8.511 -0.7922  0.3929 -0.9200
 5611TIP3   OH238391   3.772   4.713   7.141 -0.5666  0.1797 -0.3717
 5611TIP3    H138392   3.733   4.653   7.205 -1.6098  0.3847 -0.8023
 5611TIP3    H238393   3.712   4.787   7.137 -0.2769  0.3824 -1.2376
 5612TIP3   OH238394   4.904   5.141   6.051 -0.3870  0.5308 -0.0825
 5612TIP3    H138395   4.921   5.079   6.122 -1.4706 -0.2089 -0.4536
 5612TIP3    H238396   4.819   5.179   6.072 -0.6032  0.4862 -0.8581
 5613TIP3   OH238397   0.038   4.769   1.048 -0.2066  0.2279 -0.4214
 5613TIP3    H138398   0.013   4.861   1.049  0.7412  0.5145 -1.5180
 5613TIP3    H238399   0.091   4.759   0.970  1.1040 -0.8926  0.5621
 5614TIP3   OH238400   0.582   4.869   6.977  0.0305  0.1844  0.3780
 5614TIP3    H138401   0.501   4.906   7.013 -0.6373  1.2920 -2.0375
 5614TIP3    H238402   0.563   4.856   6.884  2.5616  0.2001 -0.2144
 5615TIP3   OH238403   1.952   3.351   1.524  0.8467  0.2711  0.0468
 5615TIP3    H138404   2.038   3.355   1.566  0.6457  1.4507  0.3848
 5615TIP3    H238405   1.960   3.409   1.448  0.6675 -0.4851 -0.5718
 5616TIP3   OH238406   0.985   4.016   6.113  0.0195  0.0671 -0.1400
 5616TIP3    H138407   1.034   3.949   6.066  1.8473  1.5008 -0.3682
 5616TIP3    H238408   1.051   4.078   6.144 -1.2140 -0.0047  3.0691
 5617TIP3   OH238409   1.315   5.228   7.904 -0.1733  0.0302 -0.1984
 5617TIP3    H138410   1.330   5.235   7.999 -1.8126  2.0455 -0.0184
 5617TIP3    H238411   1.299   5.318   7.876 -3.8550 -0.9174 -1.6367
 5618TIP3   OH238412   4.609   0.031   1.696 -0.2234 -0.1618 -0.0252
 5618TIP3    H138413   4.669   0.082   1.641 -0.7666  2.2194  1.4367
 5618TIP3    H238414   4.666  -0.015   1.757  0.2304  0.0159 -0.3053
 5619TIP3   OH238415   1.271   5.670   7.125 -0.1537  0.2887 -0.5799
 5619TIP3    H138416   1.323   5.630   7.194 -0.7893 -0.1435 -0.3413
 5619TIP3    H238417   1.328   5.737   7.087  0.0739  0.7889  0.6124
 5620TIP3   OH238418   3.567   6.098   6.906 -0.2976 -0.4089 -0.0737
 5620TIP3    H138419   3.485   6.086   6.955  0.1738 -1.8913  0.4037
 5620TIP3    H238420   3.549   6.170   6.846 -2.2619 -1.2899 -0.6117
 5621TIP3   OH238421   0.509   5.225   1.492  0.8783 -0.3838 -0.2555
 5621TIP3    H138422   0.554   5.224   1.408 -0.5046 -0.3265 -1.0241
 5621TIP3    H238423   0.416   5.234   1.470  0.5249  0.0909  1.2942
 5622TIP3   OH238424   0.946   5.214   0.615  0.1382  0.4361 -0.5626
 5622TIP3    H138425   0.937   5.308   0.597  0.5524  0.7673  0.7689
 5622TIP3    H238426   0.912   5.204   0.704 -1.0814 -0.9193 -1.1504
 5623TIP3   OH238427   0.614   4.996   7.897 -0.1974 -0.0706 -0.2020
 5623TIP3    H138428   0.536   5.049   7.918 -1.9275 -1.5593 -2.4221
 5623TIP3    H238429   0.622   4.936   7.971 -1.0188  0.2458  0.1619
 5624TIP3   OH238430   1.657   5.059   1.992 -0.4195  0.5716  0.1259
 5624TIP3    H138431   1.689   4.969   1.999 -0.0079  0.4451 -2.3284
 5624TIP3    H238432   1.726   5.113   2.031  1.6170  0.0868 -2.4879
 5625TIP3   OH238433   6.305   5.243   7.348  0.2026  0.1289 -0.6460
 5625TIP3    H138434   6.363   5.167   7.335  1.7476  1.4442 -1.8175
 5625TIP3    H238435   6.289   5.245   7.442  1.8739 -0.4532 -0.3089
 5626TIP3   OH238436   4.112   3.243   8.184  0.4301 -0.0193  0.2789
 5626TIP3    H138437   4.133   3.246   8.278  1.0829 -1.3102  0.2006
 5626TIP3    H238438   4.196   3.257   8.141  0.3889 -0.8424 -0.0894
 5627TIP3   OH238439   2.907   1.352   8.135  0.2371 -0.3379  0.1039
 5627TIP3    H138440   2.982   1.311   8.092  0.3174 -0.4992  0.3954
 5627TIP3    H238441   2.909   1.317   8.224 -0.6664 -0.9838 -0.1167
 5628TIP3   OH238442   4.017   5.060   1.493  0.4453 -0.2192 -0.0191
 5628TIP3    H138443   3.955   5.132   1.479  0.9028 -0.1519 -2.1512
 5628TIP3    H238444   3.984   4.990   1.436 -0.0055 -1.7556  2.0373
 5629TIP3   OH238445   2.906   1.869   8.722 -0.2343  0.5947  0.2168
 5629TIP3    H138446   2.858   1.822   8.654 -1.0805  0.9641  0.5509
 5629TIP3    H238447   2.998   1.857   8.699 -0.5163  1.5500 -1.5634
 5630TIP3   OH238448   1.911   1.823   6.844 -0.2681 -0.0691  0.0509
 5630TIP3    H138449   1.893   1.752   6.782 -0.8676  1.8197 -2.0710
 5630TIP3    H238450   1.955   1.890   6.791 -1.4242  1.9312  1.4969
 5631TIP3   OH238451   2.666   2.601   7.491  0.5733  0.2899 -0.1125
 5631TIP3    H138452   2.580   2.620   7.452  0.8248 -0.4150 -1.0439
 5631TIP3    H238453   2.728   2.653   7.440  0.8263 -0.1167 -0.2306
 5632TIP3   OH238454   3.475   1.948   1.091  0.1498 -0.3407 -0.2462
 5632TIP3    H138455   3.394   1.968   1.044 -0.2041  2.1507  1.2276
 5632TIP3    H238456   3.529   2.027   1.078  0.1432  0.3647  3.1643
 5633TIP3   OH238457   0.561   6.583   1.949 -0.0762  0.3105 -0.4184
 5633TIP3    H138458   0.493   6.643   1.979 -0.2169 -0.5837  1.1906
 5633TIP3    H238459   0.637   6.604   2.003  0.2979 -0.0429 -0.7970
 5634TIP3   OH238460   3.838   2.409   7.128 -0.2757  0.3788  0.0934
 5634TIP3    H138461   3.853   2.451   7.043 -0.5222  0.5408  0.1294
 5634TIP3    H238462   3.783   2.470   7.176 -1.9366 -0.6367 -0.4332
 5635TIP3   OH238463   2.702   5.647   1.129 -0.1010  0.6084 -0.3998
 5635TIP3    H138464   2.608   5.646   1.108 -0.1934 -1.3582 -0.1242
 5635TIP3    H238465   2.707   5.687   1.215 -0.8254 -0.1941  0.0326
 5636TIP3   OH238466   6.754   1.684   7.920 -0.7363  0.0662 -0.2195
 5636TIP3    H138467   6.754   1.599   7.963  1.4209  0.1517  0.0624
 5636TIP3    H238468   6.704   1.671   7.839 -4.2736 -0.2911  1.8000
 5637TIP3   OH238469   5.031   0.501   1.162 -0.4264  0.1096  0.2686
 5637TIP3    H138470   5.115   0.536   1.133 -0.7172  0.4499 -0.1812
 5637TIP3    H238471   4.967   0.564   1.128 -0.8589 -0.1527  0.6009
 5638TIP3   OH238472   3.524   2.946   7.808  0.3023 -0.3697  0.4098
 5638TIP3    H138473   3.527   2.980   7.897  1.0700  1.2604 -0.2098
 5638TIP3    H238474   3.616   2.937   7.782  0.1522  2.0941 -1.2544
 5639TIP3   OH238475   2.942   6.046   7.840  0.7394  0.3610 -0.1376
 5639TIP3    H138476   2.920   5.959   7.873  0.0151  0.7020  0.2966
 5639TIP3    H238477   2.953   6.034   7.746 -0.4480  0.0064 -0.2467
 5640TIP3   OH238478   4.228   2.052   6.552 -0.0794  0.2573 -0.6646
 5640TIP3    H138479   4.172   2.049   6.630  1.0336 -0.2080  0.1442
 5640TIP3    H238480   4.313   2.082   6.585  0.0389  1.4350 -1.9513
 5641TIP3   OH238481   2.876   1.363   7.244 -0.8046 -0.4878 -0.3637
 5641TIP3    H138482   2.849   1.452   7.267 -0.1628 -0.4087  0.1119
 5641TIP3    H238483   2.968   1.360   7.267 -0.8485 -1.3125 -0.2849
 5642TIP3   OH238484   4.798   3.596   8.821  0.2987 -0.2105 -0.1154
 5642TIP3    H138485   4.843   3.671   8.860 -1.1935  0.4687  0.4001
 5642TIP3    H238486   4.736   3.635   8.759 -1.7864 -0.8211  1.4471
 5643TIP3   OH238487   0.463   4.195   0.842 -0.0360 -0.1408  0.3567
 5643TIP3    H138488   0.559   4.196   0.843  0.0690  0.4065 -2.3372
 5643TIP3    H238489   0.438   4.287   0.829 -0.8329 -0.4893 -0.6883
 5644TIP3   OH238490   6.129   5.665   7.442 -0.0560 -0.3572  0.6667
 5644TIP3    H138491   6.205   5.622   7.404 -0.7480 -0.5008 -0.6215
 5644TIP3    H238492   6.158   5.755   7.460  0.2500 -0.2117 -0.4569
 5645TIP3   OH238493   3.977   1.519   0.520 -0.3486 -0.0645  0.0860
 5645TIP3    H138494   4.026   1.504   0.601  0.2076 -0.0359 -0.2417
 5645TIP3    H238495   3.891   1.480   0.537 -0.3563  0.2563  0.8189
 5646TIP3   OH238496   4.697   5.006   8.621 -0.3701 -0.0437  0.1393
 5646TIP3    H138497   4.654   5.068   8.562 -1.3997 -2.0586 -1.3139
 5646TIP3    H238498   4.781   4.987   8.579 -0.4662 -0.3620  0.0909
 5647TIP3   OH238499   0.738   6.283   0.959 -0.1086 -0.5080  0.0942
 5647TIP3    H138500   0.757   6.320   0.873 -0.8525 -0.1060  0.0940
 5647TIP3    H238501   0.697   6.199   0.941  0.1704 -0.6406  0.0696
 5648TIP3   OH238502   6.149   4.934   8.219 -0.3513 -0.0242  0.0983
 5648TIP3    H138503   6.119   4.874   8.150  0.2007 -0.0851 -0.0900
 5648TIP3    H238504   6.218   4.986   8.178 -1.1547  1.0896  0.1076
 5649TIP3   OH238505   2.781   1.521   8.342 -0.2144  0.1320  0.1327
 5649TIP3    H138506   2.786   1.553   8.252  0.1886  1.5429  0.6377
 5649TIP3    H238507   2.739   1.435   8.334  0.0770  0.1010 -1.4229
 5650TIP3   OH238508   4.927   2.332   8.185 -0.5365 -0.3730 -0.5583
 5650TIP3    H138509   4.932   2.373   8.271 -1.1501 -0.1377 -0.6294
 5650TIP3    H238510   4.962   2.398   8.125 -0.5904 -0.3382 -0.5514
 5651TIP3   OH238511   2.632   5.264   1.757 -0.3768 -0.9473 -0.7017
 5651TIP3    H138512   2.660   5.178   1.790  0.6247  0.1334  1.4083
 5651TIP3    H238513   2.679   5.327   1.810 -3.1089  0.9929 -0.3868
 5652TIP3   OH238514   6.372   3.392   0.376  0.2410 -0.1890  0.5519
 5652TIP3    H138515   6.466   3.408   0.376  0.3209 -0.4735  1.8699
 5652TIP3    H238516   6.337   3.451   0.309  1.1421  1.4370  1.4329
 5653TIP3   OH238517   0.903   4.592   8.366  0.5472 -0.7220 -0.9674
 5653TIP3    H138518   0.966   4.522   8.345 -0.6371 -1.4858 -2.1041
 5653TIP3    H238519   0.823   4.546   8.391  0.2224  0.2400 -0.1743
 5654TIP3   OH238520   6.328   2.914   0.129 -0.0990 -0.4286 -0.7587
 5654TIP3    H138521   6.332   2.987   0.191 -0.5631 -0.5018 -0.6393
 5654TIP3    H238522   6.238   2.882   0.135  0.5112 -2.0922  0.4137
 5655TIP3   OH238523   0.618   1.582   8.260  0.1099  0.4512  0.2344
 5655TIP3    H138524   0.545   1.522   8.274 -1.0118  2.0642  1.6719
 5655TIP3    H238525   0.596   1.628   8.179  0.6624 -0.5558 -0.5243
 5656TIP3   OH238526   4.468   1.843   1.926 -0.1258  0.1584  0.3886
 5656TIP3    H138527   4.509   1.930   1.917  1.0985 -0.4132  0.2322
 5656TIP3    H238528   4.376   1.858   1.905  0.4251  1.0525 -1.6250
 5657TIP3   OH238529   3.184   1.868   1.673 -0.1946  0.1426  0.3049
 5657TIP3    H138530   3.115   1.902   1.731 -0.4862 -0.1692  0.1453
 5657TIP3    H238531   3.265   1.901   1.711 -0.4649  0.9600  0.1901
 5658TIP3   OH238532   0.321   4.608   1.606 -0.5765 -0.2716  0.0631
 5658TIP3    H138533   0.285   4.637   1.690  1.5982  0.1487  0.9252
 5658TIP3    H238534   0.359   4.522   1.625 -2.3273 -1.3885 -1.1827
 5659TIP3   OH238535   4.454   4.603   6.289 -0.3244  0.6925  0.2822
 5659TIP3    H138536   4.387   4.546   6.251 -0.6175  0.1103  1.6026
 5659TIP3    H238537   4.529   4.546   6.304 -0.2080  0.9084  0.5301
 5660TIP3   OH238538   3.491   2.661   7.384 -0.1774 -0.3703  0.3164
 5660TIP3    H138539   3.450   2.722   7.323  1.7520  0.7498  0.0563
 5660TIP3    H238540   3.534   2.717   7.449 -0.8385 -1.5193  1.8165
 5661TIP3   OH238541   4.539   2.606   0.009 -0.2875  0.8504  0.2884
 5661TIP3    H138542   4.623   2.591   0.053 -1.1819  1.3056  2.3038
 5661TIP3    H238543   4.519   2.523  -0.034  0.2175  0.0048  1.6008
 5662TIP3   OH238544   1.814   4.403   8.553 -0.4297  0.2966  0.1255
 5662TIP3    H138545   1.734   4.352   8.567 -2.1100  2.9015  0.7132
 5662TIP3    H238546   1.872   4.344   8.505 -3.4822 -1.0736 -2.2237
 5663TIP3   OH238547   3.465   2.738   8.770  0.3207  0.0970  0.4412
 5663TIP3    H138548   3.392   2.698   8.817  0.8282 -1.5891 -0.1562
 5663TIP3    H238549   3.428   2.768   8.688 -0.0458  0.8425  0.8640
 5664TIP3   OH238550   5.829   6.345   7.712  0.3114 -0.5302  0.5392
 5664TIP3    H138551   5.803   6.254   7.700 -1.2700 -0.7282  4.2877
 5664TIP3    H238552   5.873   6.347   7.797  1.8376  1.9633 -0.2090
 5665TIP3   OH238553   1.784   4.937   0.780  0.7536  0.1379 -0.1994
 5665TIP3    H138554   1.704   4.977   0.814 -1.6957 -2.5062 -2.3833
 5665TIP3    H238555   1.818   4.885   0.853 -0.9649 -0.6244  0.1101
 5666TIP3   OH238556   0.964   2.275   7.082 -0.2771 -0.0278  0.0079
 5666TIP3    H138557   0.916   2.348   7.122  0.2738  0.9528 -1.0628
 5666TIP3    H238558   0.985   2.217   7.156  1.1764  1.9879  1.3006
 5667TIP3   OH238559   2.801   0.671   0.769 -0.5117 -0.2288 -0.6372
 5667TIP3    H138560   2.785   0.662   0.675  1.1996  1.1808 -1.1001
 5667TIP3    H238561   2.875   0.612   0.786 -0.7524 -0.4041 -0.1666
 5668TIP3   OH238562   0.061   1.728   1.294  0.3389  0.2719 -0.0833
 5668TIP3    H138563   0.062   1.713   1.200  0.1522  0.6441 -0.1457
 5668TIP3    H238564   0.005   1.658   1.329  0.5367  0.0395 -0.2300
 5669TIP3   OH238565   5.462   2.934   7.559  0.1223  0.9251 -0.2430
 5669TIP3    H138566   5.414   2.982   7.627 -0.7595  1.0284 -0.9192
 5669TIP3    H238567   5.550   2.972   7.560 -0.0547  1.3376  0.4312
 5670TIP3   OH238568   1.916   6.185   8.162 -0.4255  0.5822 -0.1205
 5670TIP3    H138569   1.846   6.186   8.228 -0.9015  0.0106 -0.6026
 5670TIP3    H238570   1.990   6.145   8.206 -0.2752  1.5128  0.5086
 5671TIP3   OH238571   3.658   5.687   7.658 -0.4437  0.4806  0.4152
 5671TIP3    H138572   3.706   5.743   7.720 -0.8483  0.4036  0.8040
 5671TIP3    H238573   3.656   5.738   7.577 -0.5082  0.8819  0.6652
 5672TIP3   OH238574   3.656   2.771   1.430  0.0934  0.7980  0.1281
 5672TIP3    H138575   3.721   2.812   1.373  0.2953 -0.0870 -0.2913
 5672TIP3    H238576   3.601   2.719   1.372  1.1515 -1.2359  0.8537
 5673TIP3   OH238577   6.720   3.067   0.809  0.0266  0.1972 -0.3925
 5673TIP3    H138578   6.657   3.063   0.738 -2.6799 -1.6833  1.8912
 5673TIP3    H238579   6.781   2.995   0.792 -0.4825 -0.1211 -0.8964
 5674TIP3   OH238580   3.479   2.509   1.003 -0.0744 -0.1333 -0.0588
 5674TIP3    H138581   3.402   2.459   0.978 -0.1043 -0.7281  1.1652
 5674TIP3    H238582   3.480   2.506   1.098  1.5752 -0.3196 -0.0462
 5675TIP3   OH238583   4.704   0.134   8.424  0.2281 -0.2052 -0.2691
 5675TIP3    H138584   4.748   0.065   8.474  0.3682 -1.5348 -2.1210
 5675TIP3    H238585   4.762   0.210   8.431  1.9190 -1.3527 -1.0678
 5676TIP3   OH238586   5.877   4.821   1.499 -0.1400 -0.4626 -0.9016
 5676TIP3    H138587   5.913   4.904   1.469  0.6820 -0.0330  1.1235
 5676TIP3    H238588   5.898   4.817   1.593 -0.6362 -2.7014 -0.8116
 5677TIP3   OH238589   2.865   3.817   0.823 -0.1201  0.9228  0.4955
 5677TIP3    H138590   2.783   3.860   0.850 -0.7935 -0.0285  0.0422
 5677TIP3    H238591   2.884   3.756   0.894 -0.9126 -0.2906 -0.3027
 5678TIP3   OH238592   1.621   1.548   0.872 -0.3821 -0.6346 -0.3671
 5678TIP3    H138593   1.703   1.499   0.882  1.0576  1.0876 -2.5759
 5678TIP3    H238594   1.590   1.524   0.785 -1.0945  0.3200 -0.3854
 5679TIP3   OH238595   1.027   3.994   0.756  0.5913 -0.2294 -0.2038
 5679TIP3    H138596   1.006   3.909   0.718  0.2750  0.7576 -2.3702
 5679TIP3    H238597   0.942   4.033   0.777  0.7527 -0.7038  1.5212
 5680TIP3   OH238598   1.824   0.662   1.730  0.2648 -0.3503 -0.2268
 5680TIP3    H138599   1.889   0.728   1.708  1.4220 -1.1330  0.7417
 5680TIP3    H238600   1.780   0.695   1.808  2.5158 -1.7498  1.7565
 5681TIP3   OH238601   3.646   3.180   1.340  0.1496  0.2163  0.0549
 5681TIP3    H138602   3.707   3.247   1.310 -0.8009  1.4801  0.8609
 5681TIP3    H238603   3.687   3.142   1.417  0.4233  0.2892 -0.0545
 5682TIP3   OH238604   3.156   1.199   6.598 -0.0895 -0.7306 -0.2437
 5682TIP3    H138605   3.188   1.282   6.563 -0.9998 -1.0692 -1.9724
 5682TIP3    H238606   3.234   1.156   6.632  0.5168  0.4553 -0.0605
 5683TIP3   OH238607   6.323   6.319   1.648 -0.3867  0.2443  0.6891
 5683TIP3    H138608   6.355   6.322   1.738  1.6093  0.6001  0.0130
 5683TIP3    H238609   6.359   6.397   1.607  3.0028 -2.2718 -1.6887
 5684TIP3   OH238610   1.269   4.932   6.826 -0.6081 -0.1991 -0.3554
 5684TIP3    H138611   1.198   4.888   6.873 -0.4588 -1.1289 -0.9765
 5684TIP3    H238612   1.274   4.886   6.742  1.2601 -0.6758 -0.0109
 5685TIP3   OH238613   4.869   2.476   7.097 -0.2255  0.2367  0.1439
 5685TIP3    H138614   4.832   2.516   7.019  1.2550  0.9988 -0.1867
 5685TIP3    H238615   4.958   2.451   7.072  0.3589  0.7219  1.6510
 5686TIP3   OH238616   0.528   1.266   1.158 -0.3881 -0.0679 -0.4915
 5686TIP3    H138617   0.509   1.205   1.229  0.6196  0.1233 -0.0373
 5686TIP3    H238618   0.486   1.347   1.185  0.6862  0.2482  0.3265
 5687TIP3   OH238619   2.034   5.910   1.266  0.1072  0.1967  0.3471
 5687TIP3    H138620   2.051   5.978   1.331  2.7656  0.7715 -0.8086
 5687TIP3    H238621   1.942   5.885   1.281  0.0439  1.5990  3.0246
 5688TIP3   OH238622   0.936   6.679   8.005  0.3446 -0.0336 -0.0870
 5688TIP3    H138623   0.957   6.622   7.931 -0.5633 -0.3131 -0.1470
 5688TIP3    H238624   0.859   6.728   7.975  0.6600  0.6742  0.2502
 5689TIP3   OH238625   5.357   4.918   8.722  0.2937 -0.3937 -0.1180
 5689TIP3    H138626   5.367   4.974   8.644 -0.6124 -1.3574 -0.9514
 5689TIP3    H238627   5.443   4.878   8.733  0.6368  0.3097 -0.1792
 5690TIP3   OH238628   0.776   4.453   7.956 -0.4274 -0.2112  0.2710
 5690TIP3    H138629   0.691   4.423   7.988 -0.0197 -0.7290  0.8912
 5690TIP3    H238630   0.796   4.393   7.884 -1.0831  0.6002 -0.6149
 5691TIP3   OH238631   2.689   1.346   7.983  0.5007 -0.4601 -0.4800
 5691TIP3    H138632   2.682   1.258   7.945  0.9057 -1.0140  0.6775
 5691TIP3    H238633   2.777   1.349   8.021  0.5956  0.5557 -0.7443
 5692TIP3   OH238634   6.364   5.498   7.337  0.9965  0.0876  0.1854
 5692TIP3    H138635   6.366   5.403   7.345 -1.4409 -0.2274 -1.8156
 5692TIP3    H238636   6.358   5.515   7.243 -1.7781  2.0178  0.5822
 5693TIP3   OH238637   3.823   6.692   0.252  0.1822  0.2796 -0.4252
 5693TIP3    H138638   3.794   6.606   0.224 -0.0931  0.5985 -1.1576
 5693TIP3    H238639   3.899   6.711   0.197  1.9670 -0.6290  1.6075
 5694TIP3   OH238640   1.717   0.629   7.553  0.3338 -0.1566 -0.1452
 5694TIP3    H138641   1.651   0.573   7.512 -0.9834  1.0513  0.2230
 5694TIP3    H238642   1.693   0.630   7.645  1.7124 -0.7733  0.2426
 5695TIP3   OH238643   1.305   3.690   7.810 -0.1698  0.1733 -0.4264
 5695TIP3    H138644   1.313   3.733   7.725 -0.0735 -0.3106 -0.6618
 5695TIP3    H238645   1.285   3.762   7.871  0.1326  0.5703 -0.7902
 5696TIP3   OH238646   6.595   6.020   1.271 -0.4754 -0.6191  0.5962
 5696TIP3    H138647   6.618   6.110   1.293 -0.7765  0.4219 -2.8207
 5696TIP3    H238648   6.501   6.014   1.287 -0.7598  0.2117 -0.6588
 5697TIP3   OH238649   6.289   6.134   1.228 -0.4193 -0.3173  0.1846
 5697TIP3    H138650   6.305   6.211   1.173 -0.0584  0.1316  0.9113
 5697TIP3    H238651   6.228   6.081   1.176  1.2722 -0.7746 -1.4585
 5698TIP3   OH238652   4.882   5.173   0.938 -0.1117  0.0037 -0.6292
 5698TIP3    H138653   4.945   5.211   0.877  0.9211  0.0947  0.4609
 5698TIP3    H238654   4.927   5.097   0.975 -0.7850 -0.1517 -0.1059
 5699TIP3   OH238655   1.737   0.658   8.126 -0.3447  0.0774 -0.7649
 5699TIP3    H138656   1.678   0.649   8.201  1.2350 -0.7421  0.4501
 5699TIP3    H238657   1.745   0.753   8.113  1.0793  0.3697  1.6120
 5700TIP3   OH238658   0.727   1.012   1.783  0.0137  0.3679 -0.0451
 5700TIP3    H138659   0.673   1.062   1.845  0.5091  0.0657  0.6389
 5700TIP3    H238660   0.793   1.075   1.753  0.6033  0.1638  0.7746
 5701TIP3   OH238661   6.614   1.614   0.376  0.1805  0.4833 -0.1096
 5701TIP3    H138662   6.684   1.590   0.436  0.9766  0.3526 -1.0537
 5701TIP3    H238663   6.534   1.590   0.422  0.7887 -0.2661  0.6093
 5702TIP3   OH238664   5.434   1.852   0.771 -0.0349  0.0305  0.0540
 5702TIP3    H138665   5.427   1.756   0.769  0.6241 -0.0479  0.8978
 5702TIP3    H238666   5.355   1.880   0.818  0.2903 -0.1829  0.7515
 5703TIP3   OH238667   4.113   1.445   7.445 -0.5289  0.2467  0.0039
 5703TIP3    H138668   4.021   1.472   7.449 -0.9499 -1.0909  0.2228
 5703TIP3    H238669   4.135   1.449   7.352 -0.4859  1.5360  0.0599
 5704TIP3   OH238670   0.668   1.436   2.449  0.0062 -0.6408 -0.3137
 5704TIP3    H138671   0.670   1.393   2.535 -1.3665 -1.4356 -0.6419
 5704TIP3    H238672   0.628   1.371   2.391 -4.1083  1.6720 -0.4474
 5705TIP3   OH238673   2.119   2.306   0.357 -0.1776  0.5836 -0.1797
 5705TIP3    H138674   2.077   2.380   0.400 -0.5686 -0.0813  0.6083
 5705TIP3    H238675   2.212   2.326   0.358 -0.2862  1.0726  0.0064
 5706TIP3   OH238676   1.990   0.936   0.713  0.2110  0.0337  0.7581
 5706TIP3    H138677   1.926   0.968   0.777 -2.0980  0.1933 -1.5097
 5706TIP3    H238678   2.017   0.851   0.748 -2.3626 -0.7132  1.1309
 5707TIP3   OH238679   5.126   4.494   1.208  0.1337 -0.0938 -0.4858
 5707TIP3    H138680   5.100   4.408   1.242  0.9250 -0.5452 -1.0035
 5707TIP3    H238681   5.055   4.552   1.236 -1.0209 -1.1250 -1.1386
 5708TIP3   OH238682   3.219   5.053   1.759 -0.0410  0.2258 -0.1899
 5708TIP3    H138683   3.188   4.975   1.714  1.0725  0.1117 -0.8005
 5708TIP3    H238684   3.171   5.054   1.842 -1.8196  0.2137 -1.1871
 5709TIP3   OH238685   1.427   1.407   7.366 -0.3227 -0.4526 -0.5128
 5709TIP3    H138686   1.446   1.325   7.321 -0.4990 -1.3279  0.9268
 5709TIP3    H238687   1.338   1.429   7.341  0.5256  0.6214 -2.8054
 5710TIP3   OH238688   0.646   1.664   7.786  0.5734  0.3393  0.2597
 5710TIP3    H138689   0.562   1.654   7.742  1.0193  0.0860 -0.5428
 5710TIP3    H238690   0.665   1.577   7.822  0.4120  0.4404  0.5936
 5711TIP3   OH238691   4.317   5.104   0.050  0.2347 -0.3306  0.0874
 5711TIP3    H138692   4.277   5.113  -0.036  1.3195  0.2479 -0.3791
 5711TIP3    H238693   4.364   5.021   0.046 -1.8182 -1.6071  1.0423
 5712TIP3   OH238694   6.105   2.811   0.645  0.4338  0.1869  0.0181
 5712TIP3    H138695   6.086   2.887   0.590  0.5247  0.8040  0.8249
 5712TIP3    H238696   6.196   2.822   0.671  0.5031 -0.2974 -0.0056
 5713TIP3   OH238697   3.736   2.243   7.744  0.4163 -0.3603  0.4232
 5713TIP3    H138698   3.744   2.246   7.649 -0.5017  0.8381  0.3608
 5713TIP3    H238699   3.820   2.276   7.776  0.8618 -1.1116  0.0492
 5714TIP3   OH238700   5.597   0.691   7.149  0.1095 -0.1141 -0.8140
 5714TIP3    H138701   5.533   0.626   7.119  0.4395 -0.5063 -0.6764
 5714TIP3    H238702   5.608   0.750   7.074 -1.0742  0.4829 -0.5437
 5715TIP3   OH238703   5.439   1.246   6.428 -0.2146  0.4480 -0.6325
 5715TIP3    H138704   5.533   1.249   6.410 -0.3731  0.9455 -1.4228
 5715TIP3    H238705   5.418   1.152   6.432  0.4961  0.3189  0.6152
 5716TIP3   OH238706   6.420   4.978   7.471  0.0223 -0.1059  0.4669
 5716TIP3    H138707   6.491   4.969   7.535  0.4368  1.1382  0.2073
 5716TIP3    H238708   6.425   4.899   7.419  0.5271 -0.5329  1.1410
 5717TIP3   OH238709   6.795   4.196   6.279 -0.4415  0.4351  0.3003
 5717TIP3    H138710   6.745   4.133   6.227 -1.0005  2.1827 -1.3719
 5717TIP3    H238711   6.881   4.154   6.291 -0.7275 -0.5573 -0.9325
 5718TIP3   OH238712   4.944   5.357   0.449  0.5896  0.3405  0.0272
 5718TIP3    H138713   4.965   5.349   0.356 -1.9864  0.4143 -0.6488
 5718TIP3    H238714   4.954   5.450   0.468  1.3611  0.2876 -0.0994
 5719TIP3   OH238715   2.909   4.140   6.943 -0.8791  0.1822  0.4572
 5719TIP3    H138716   2.824   4.101   6.925 -1.2248  0.5109  1.3307
 5719TIP3    H238717   2.972   4.073   6.918 -1.3865 -0.0181 -0.3133
 5720TIP3   OH238718   1.773   3.575   8.229 -0.5419 -0.0914  0.0862
 5720TIP3    H138719   1.772   3.600   8.321  1.2345  3.6562 -0.7593
 5720TIP3    H238720   1.684   3.593   8.198 -0.9464 -0.7075  0.8283
 5721TIP3   OH238721   2.373   3.221   7.084 -0.2528 -0.5677  0.3722
 5721TIP3    H138722   2.344   3.214   6.993  1.6304  1.4448 -0.4749
 5721TIP3    H238723   2.464   3.191   7.082  0.4231  1.3193  1.1613
 5722TIP3   OH238724   4.293   6.167   0.444  0.2975 -0.9239  0.1355
 5722TIP3    H138725   4.388   6.165   0.435  0.4064  0.2048  0.8501
 5722TIP3    H238726   4.277   6.163   0.538 -0.2630  0.8667  0.1475
 5723TIP3   OH238727   0.401   0.186   0.647  0.1981  0.2905 -0.0120
 5723TIP3    H138728   0.314   0.206   0.613 -0.3679 -1.9912 -0.0320
 5723TIP3    H238729   0.461   0.231   0.587 -0.9110  0.6169 -0.9064
 5724TIP3   OH238730   3.673   6.738   8.281  0.2121  0.4377 -0.5349
 5724TIP3    H138731   3.679   6.651   8.320 -2.3453 -0.1888 -1.3257
 5724TIP3    H238732   3.720   6.795   8.342  1.8120 -1.4513  0.0803
 5725TIP3   OH238733   1.779   1.000   0.882  0.2537  0.0170  0.0520
 5725TIP3    H138734   1.777   1.066   0.952  0.1803 -0.2287  0.2817
 5725TIP3    H238735   1.704   0.944   0.900  1.6708 -1.5967  1.2920
 5726TIP3   OH238736   4.608   5.696   8.809 -0.5937  0.1311  0.0110
 5726TIP3    H138737   4.517   5.674   8.830 -0.5317  1.3428  1.7510
 5726TIP3    H238738   4.659   5.623   8.845 -0.8430 -0.2846 -0.4795
 5727TIP3   OH238739   5.048   2.056   0.788  0.5259  0.5783 -0.3020
 5727TIP3    H138740   5.114   2.014   0.844  0.7997  1.2730 -0.0893
 5727TIP3    H238741   5.061   2.016   0.702  1.4393  0.9186 -0.3363
 5728TIP3   OH238742   2.688   0.219   8.213  0.2265 -0.0450  0.4437
 5728TIP3    H138743   2.627   0.252   8.148  0.2745 -0.9347 -0.0777
 5728TIP3    H238744   2.713   0.132   8.180  0.9730 -0.1194  1.1705
 5729TIP3   OH238745   4.632   1.773   1.384 -0.5793  0.0462 -0.0574
 5729TIP3    H138746   4.657   1.681   1.375  2.8030  0.7540  0.9122
 5729TIP3    H238747   4.614   1.802   1.295 -0.4530 -1.2113 -0.5161
 5730TIP3   OH238748   6.456   4.352   8.548 -0.1818 -0.2931 -0.1153
 5730TIP3    H138749   6.466   4.445   8.525 -1.1152  0.0820  0.9428
 5730TIP3    H238750   6.374   4.326   8.507  1.2739 -1.3806 -2.5527
 5731TIP3   OH238751   6.581   5.139   8.749  0.1613 -0.2865 -0.1777
 5731TIP3    H138752   6.560   5.115   8.839 -0.1237 -2.8156 -0.8273
 5731TIP3    H238753   6.664   5.185   8.755  0.7127 -1.3806  1.3123
 5732TIP3   OH238754   0.185   6.283   8.628  0.2532 -0.8277 -0.0093
 5732TIP3    H138755   0.209   6.229   8.553  0.1442 -0.8759 -0.0088
 5732TIP3    H238756   0.266   6.328   8.652  0.0657 -0.0808 -0.7451
 5733TIP3   OH238757   6.532   2.391   7.789 -0.1032 -0.1310 -0.5097
 5733TIP3    H138758   6.502   2.350   7.870  0.8627  0.9178  0.4167
 5733TIP3    H238759   6.520   2.324   7.722 -0.0299 -1.3555  0.6651
 5734TIP3   OH238760   3.783   4.248   1.725 -0.1715 -0.3249  0.3641
 5734TIP3    H138761   3.785   4.184   1.796  0.6326  1.1160  1.6909
 5734TIP3    H238762   3.723   4.316   1.756 -0.4246 -0.0510 -0.6897
 5735TIP3   OH238763   3.382   2.307   0.632  0.0043 -0.4521  0.3220
 5735TIP3    H138764   3.362   2.237   0.570  0.1762  0.6697 -1.0375
 5735TIP3    H238765   3.436   2.369   0.582  0.4118  0.3327  1.6799
 5736TIP3   OH238766   3.170   3.616   7.085 -0.2450 -0.2541  0.3278
 5736TIP3    H138767   3.173   3.521   7.090 -0.3752 -0.1942  2.1006
 5736TIP3    H238768   3.104   3.642   7.150 -0.0276  1.0542  0.0627
 5737TIP3   OH238769   2.470   1.652   8.814  0.1025 -0.2916 -0.4244
 5737TIP3    H138770   2.414   1.584   8.778 -0.5069 -0.5687  0.9848
 5737TIP3    H238771   2.554   1.608   8.830 -0.3606 -0.8106  0.7077
 5738TIP3   OH238772   1.038   2.561   1.855  0.8648  0.0143  0.4004
 5738TIP3    H138773   0.992   2.620   1.796  1.7476  0.3138  0.0079
 5738TIP3    H238774   1.106   2.521   1.802  0.4783 -1.1442  0.7364
 5739TIP3   OH238775   2.374   6.202   2.594 -0.1056 -0.3258 -0.0918
 5739TIP3    H138776   2.371   6.144   2.517  0.5772 -0.2668 -0.1727
 5739TIP3    H238777   2.363   6.290   2.558  0.6667 -0.2596 -0.1813
 5740TIP3   OH238778   6.628   2.899   6.642 -0.4912  0.0731  0.1577
 5740TIP3    H138779   6.640   2.807   6.619 -1.0249 -1.1974  4.1024
 5740TIP3    H238780   6.717   2.934   6.646 -0.2465 -0.3954 -0.8103
 5741TIP3   OH238781   5.400   0.162   0.738  0.6793 -0.0287 -0.1761
 5741TIP3    H138782   5.401   0.229   0.806  1.1594  0.3875 -0.5850
 5741TIP3    H238783   5.381   0.209   0.658  2.2801 -0.1681 -0.6696
 5742TIP3   OH238784   2.817   5.817   7.836 -0.1868 -0.3756 -0.2634
 5742TIP3    H138785   2.865   5.752   7.886 -1.1667  0.5050  1.9664
 5742TIP3    H238786   2.830   5.792   7.744 -1.6159 -4.4934  0.4386
 5743TIP3   OH238787   6.038   0.858   7.557  0.0621  0.3667 -0.1347
 5743TIP3    H138788   6.075   0.802   7.489  1.8087 -0.1773  1.1869
 5743TIP3    H238789   6.025   0.800   7.632  0.1840  1.3550  0.6784
 5744TIP3   OH238790   5.255   4.638   1.525 -0.5157  0.1285  0.4468
 5744TIP3    H138791   5.293   4.670   1.443 -0.9564 -2.2799 -0.7790
 5744TIP3    H238792   5.318   4.665   1.592  2.7543 -2.3551 -1.3111
 5745TIP3   OH238793   2.080   5.015   7.750 -0.6386  0.3205 -0.6203
 5745TIP3    H138794   2.050   4.934   7.709  0.0200 -0.5558  0.5450
 5745TIP3    H238795   2.000   5.063   7.772 -1.0182  0.4149 -2.0970
 5746TIP3   OH238796   4.206   2.878   7.072 -0.2705 -0.0848  0.1693
 5746TIP3    H138797   4.257   2.833   7.139 -3.0422 -0.4682  2.1986
 5746TIP3    H238798   4.135   2.817   7.051 -2.2187  1.9186  0.5399
 5747TIP3   OH238799   3.253   1.184   7.013 -0.0380 -0.0178  0.4007
 5747TIP3    H138800   3.168   1.225   6.994 -0.9981 -2.5536 -1.3961
 5747TIP3    H238801   3.315   1.232   6.958 -1.1293 -0.8211 -1.6713
 5748TIP3   OH238802   3.884   5.553   7.898  0.0402 -0.8999  0.2682
 5748TIP3    H138803   3.795   5.528   7.873 -0.1307 -0.6343  0.6027
 5748TIP3    H238804   3.898   5.638   7.858  0.7710 -1.6835 -1.2123
 5749TIP3   OH238805   4.887   1.477   6.493 -0.2065  0.6478  0.3254
 5749TIP3    H138806   4.865   1.441   6.407  1.1790 -0.0643  0.2489
 5749TIP3    H238807   4.855   1.413   6.556  3.2644 -1.5089  0.1717
 5750TIP3   OH238808   3.584   1.536   1.165 -0.2410 -0.4883 -0.3364
 5750TIP3    H138809   3.564   1.578   1.249 -2.1709  0.1817 -1.0827
 5750TIP3    H238810   3.628   1.603   1.115 -0.3614 -0.4231 -0.3560
 5751TIP3   OH238811   3.365   5.517   7.294  0.0249  0.1259  0.1352
 5751TIP3    H138812   3.280   5.524   7.338 -1.4339  2.2549 -2.6851
 5751TIP3    H238813   3.371   5.426   7.266 -1.5281  0.0238  0.0742
 5752TIP3   OH238814   3.158   0.860   0.512  0.2496  0.0852 -0.2011
 5752TIP3    H138815   3.225   0.855   0.445 -0.2303 -1.3403 -0.6209
 5752TIP3    H238816   3.075   0.850   0.465 -0.2250  1.1283  0.3786
 5753TIP3   OH238817   2.470   0.548   7.223 -0.2512 -0.8719 -0.2410
 5753TIP3    H138818   2.444   0.457   7.235  0.0796 -0.9692 -0.2569
 5753TIP3    H238819   2.557   0.544   7.183  0.0794 -0.5508  0.4366
 5754TIP3   OH238820   5.923   3.843   1.679 -0.2694 -0.6365 -0.1826
 5754TIP3    H138821   5.974   3.919   1.650 -0.8616 -0.0735  0.2012
 5754TIP3    H238822   5.984   3.791   1.731 -0.0532 -0.0114  0.2077
 5755TIP3   OH238823   4.452   1.846   0.483 -0.1230 -0.1535  0.4334
 5755TIP3    H138824   4.485   1.778   0.425  0.9820 -0.6733  1.6252
 5755TIP3    H238825   4.380   1.804   0.531 -1.9252  0.6564 -1.3889
 5756TIP3   OH238826   3.976   1.609   1.611  0.0843  0.2305  0.1605
 5756TIP3    H138827   4.009   1.698   1.595  0.5970  0.1473  0.7371
 5756TIP3    H238828   4.055   1.555   1.620 -0.1834  0.0191  1.4985
 5757TIP3   OH238829   3.646   4.307   8.730  0.4399  0.1697  0.2852
 5757TIP3    H138830   3.742   4.313   8.730  0.5924 -1.2439 -2.0286
 5757TIP3    H238831   3.627   4.219   8.762  0.0113 -0.1580 -0.8373
 5758TIP3   OH238832   3.691   1.578   0.266  0.2721 -0.5564  0.4563
 5758TIP3    H138833   3.780   1.581   0.229  0.7157 -1.0320  1.4217
 5758TIP3    H238834   3.698   1.512   0.336 -0.2167  1.0978  2.1320
 5759TIP3   OH238835   1.064   6.613   7.427 -0.1045  0.3947  0.0809
 5759TIP3    H138836   1.060   6.693   7.375  0.9462  1.0358  0.9419
 5759TIP3    H238837   1.019   6.635   7.509 -0.8361 -0.2751 -0.1266
 5760TIP3   OH238838   1.240   3.406   1.504 -0.0653  0.4063 -0.3197
 5760TIP3    H138839   1.235   3.313   1.524 -0.0218 -0.2975 -3.1307
 5760TIP3    H238840   1.325   3.417   1.463 -0.4113  1.5192 -0.7777
 5761TIP3   OH238841   4.342   4.584   1.538 -0.6902 -0.1429  0.2581
 5761TIP3    H138842   4.289   4.663   1.549  0.1306  0.7859 -1.8266
 5761TIP3    H238843   4.322   4.555   1.449  1.0579 -0.6899  0.0081
 5762TIP3   OH238844   0.849   0.521   7.855  0.1548  0.8203  0.1721
 5762TIP3    H138845   0.787   0.589   7.827  0.8984  1.5417  0.2221
 5762TIP3    H238846   0.865   0.470   7.776  0.7443  1.6450 -0.2555
 5763TIP3   OH238847   1.802   3.395   0.027 -0.1306 -1.0535  0.7912
 5763TIP3    H138848   1.752   3.376  -0.052  1.9068 -2.4637 -0.2423
 5763TIP3    H238849   1.779   3.486   0.047 -0.9853 -0.7600 -1.2032
 5764TIP3   OH238850   3.983   5.893   7.474 -0.6102  0.0270  0.4114
 5764TIP3    H138851   3.980   5.969   7.416  1.4542 -0.1554 -0.0110
 5764TIP3    H238852   3.919   5.832   7.437 -0.4513  0.5518 -0.7807
 5765TIP3   OH238853   1.496   1.403   6.609  0.2071  0.0164  0.4852
 5765TIP3    H138854   1.571   1.421   6.552  0.4658  0.9394  1.0907
 5765TIP3    H238855   1.424   1.453   6.569  0.1660 -0.0663  0.4572
 5766TIP3   OH238856   1.812   3.599   7.667  0.1410 -0.1329  0.0644
 5766TIP3    H138857   1.877   3.592   7.597 -0.1318 -1.3520 -0.0916
 5766TIP3    H238858   1.855   3.652   7.734  1.1118 -0.4964 -0.2485
 5767TIP3   OH238859   5.755   3.382   0.311 -0.1127  0.4030  0.1938
 5767TIP3    H138860   5.818   3.343   0.251 -0.4035  1.5043 -0.8640
 5767TIP3    H238861   5.791   3.366   0.398  2.6567  2.6096 -0.4196
 5768TIP3   OH238862   4.333   5.940   0.030  0.0916  0.6808 -0.3844
 5768TIP3    H138863   4.359   6.032   0.037 -0.1203  0.6463  1.4137
 5768TIP3    H238864   4.371   5.899   0.108 -1.7676 -0.2538  0.0879
 5769TIP3   OH238865   5.972   1.550   1.337  0.2439 -0.3605 -0.0925
 5769TIP3    H138866   5.941   1.626   1.386 -0.2288  0.1132 -1.0800
 5769TIP3    H238867   5.905   1.483   1.350  0.6565 -0.6210  0.7723
 5770TIP3   OH238868   6.522   6.211   0.437 -0.0742 -0.2099  0.4305
 5770TIP3    H138869   6.563   6.264   0.369 -0.7860  1.2996  1.1306
 5770TIP3    H238870   6.591   6.153   0.468  0.3720 -0.6526 -1.2797
 5771TIP3   OH238871   1.111   4.696   7.888 -0.1941  0.2151  0.2307
 5771TIP3    H138872   1.087   4.647   7.967  0.5244 -0.0391  0.2957
 5771TIP3    H238873   1.027   4.726   7.853 -0.5961 -0.4927  0.5591
 5772TIP3   OH238874   4.054   2.130   7.827 -0.0869 -0.3753 -0.5130
 5772TIP3    H138875   3.995   2.084   7.886  0.4521 -0.1734  0.2001
 5772TIP3    H238876   4.142   2.113   7.862  0.3558 -1.2257 -1.9290
 5773TIP3   OH238877   6.054   6.299   8.548 -0.1062  0.0638 -0.1791
 5773TIP3    H138878   6.118   6.352   8.596 -1.0288 -0.0071  1.1651
 5773TIP3    H238879   6.089   6.210   8.552  1.0991  0.4112 -1.8563
 5774TIP3   OH238880   5.713   2.563   8.246 -0.6468 -0.4120  0.0602
 5774TIP3    H138881   5.701   2.478   8.203 -1.2155 -0.2254 -0.1547
 5774TIP3    H238882   5.767   2.613   8.185 -0.6260 -0.4882  0.0149
 5775TIP3   OH238883   4.282   6.408   0.961  0.4518 -0.9967  0.1402
 5775TIP3    H138884   4.230   6.411   0.881 -0.5414 -0.7142  0.7779
 5775TIP3    H238885   4.365   6.449   0.937  0.6222 -1.9643 -1.0475
 5776TIP3   OH238886   1.492   6.796   6.766 -0.3467 -0.2370 -0.0912
 5776TIP3    H138887   1.555   6.771   6.834 -0.7757  0.4298  0.5608
 5776TIP3    H238888   1.473   6.714   6.720  0.2976 -0.6149  0.2945
 5777TIP3   OH238889   2.106   5.443   1.200 -0.0199  0.1214  0.2791
 5777TIP3    H138890   2.123   5.462   1.108  1.4257  1.7769  0.8365
 5777TIP3    H238891   2.131   5.351   1.211 -1.9480 -0.6580 -1.3234
 5778TIP3   OH238892   0.824   4.643   2.045  0.1331 -0.1078  0.0732
 5778TIP3    H138893   0.728   4.640   2.043  0.1124 -0.8743  1.0410
 5778TIP3    H238894   0.851   4.622   1.956 -0.6032  0.6836 -0.3489
 5779TIP3   OH238895   4.939   2.410   6.816  0.4939 -0.4131  0.0762
 5779TIP3    H138896   4.999   2.481   6.794 -0.5765  0.3634 -0.4259
 5779TIP3    H238897   4.893   2.390   6.735  0.3959 -1.3212  0.3391
 5780TIP3   OH238898   5.054   0.344   7.377 -0.3985  0.3319  0.0823
 5780TIP3    H138899   5.047   0.414   7.312  0.5054  1.7691  1.4557
 5780TIP3    H238900   5.138   0.303   7.359 -0.4385  0.3120 -0.0587
 5781TIP3   OH238901   6.690   1.611   0.786  0.3391  0.4441 -0.3921
 5781TIP3    H138902   6.614   1.653   0.747 -0.4445 -0.0364  0.5998
 5781TIP3    H238903   6.675   1.518   0.775 -0.6794  0.1987  2.3930
 5782TIP3   OH238904   3.545   4.974   7.210  0.1850  0.7025  0.1805
 5782TIP3    H138905   3.489   4.908   7.169  0.4958 -0.0013  0.8700
 5782TIP3    H238906   3.520   4.973   7.302  1.7470 -0.0811  0.6290
 5783TIP3   OH238907   2.013   1.638   7.530  0.1436 -0.1946 -0.5871
 5783TIP3    H138908   2.031   1.712   7.472  0.6419  0.0925 -0.0762
 5783TIP3    H238909   2.063   1.566   7.491  1.2076  0.2182 -0.0354
 5784TIP3   OH238910   3.599   4.645   0.207 -0.4483 -0.0968 -0.0960
 5784TIP3    H138911   3.679   4.626   0.256 -1.2573  1.8041  2.1398
 5784TIP3    H238912   3.616   4.728   0.163 -1.3205  0.5647  0.7787
 5785TIP3   OH238913   0.503   0.838   6.325 -0.3224  0.3585  0.0603
 5785TIP3    H138914   0.564   0.912   6.321 -1.6389  1.4591 -0.4857
 5785TIP3    H238915   0.535   0.784   6.397  1.2565  0.9181 -0.1859
 5786TIP3   OH238916   3.808   3.918   1.004 -0.4193  0.0219 -0.2543
 5786TIP3    H138917   3.797   3.824   1.016 -2.0921  0.3962  1.6841
 5786TIP3    H238918   3.902   3.929   0.988 -0.4427 -2.0901 -2.3985
 5787TIP3   OH238919   6.739   0.651   1.121  0.2973  0.0296 -0.0029
 5787TIP3    H138920   6.734   0.730   1.068 -0.1111 -0.7670 -1.1908
 5787TIP3    H238921   6.649   0.619   1.125  0.7439 -1.5732 -1.4600
 5788TIP3   OH238922   0.762   0.719   8.376 -0.5519  0.2832 -0.0038
 5788TIP3    H138923   0.760   0.805   8.334 -1.2811  0.3174  0.0796
 5788TIP3    H238924   0.749   0.738   8.469 -1.7083  0.0286 -0.0965
 5789TIP3   OH238925   6.270   0.215   2.031 -0.3297 -0.2956  0.7146
 5789TIP3    H138926   6.178   0.192   2.046  0.0122 -0.7726  2.3476
 5789TIP3    H238927   6.304   0.144   1.977 -0.8486 -0.2565  0.3243
 5790TIP3   OH238928   5.381   3.755   7.529 -0.0213 -0.0688  0.4462
 5790TIP3    H138929   5.454   3.704   7.493  0.4284  1.2600 -0.6122
 5790TIP3    H238930   5.370   3.723   7.618  1.2768 -0.9067  0.3202
 5791TIP3   OH238931   2.003   4.518   6.787  0.4573 -0.3033 -0.0198
 5791TIP3    H138932   1.975   4.603   6.754 -1.6454 -1.5920 -1.8176
 5791TIP3    H238933   2.099   4.522   6.785  0.3930  1.7065 -0.8655
 5792TIP3   OH238934   4.718   5.490   1.220 -0.3873  0.0454  1.1284
 5792TIP3    H138935   4.798   5.534   1.191 -0.6376  0.7595  1.5025
 5792TIP3    H238936   4.681   5.549   1.286 -1.9028  0.3616  0.0298
 5793TIP3   OH238937   2.659   2.522   8.315  0.1126  0.1039  0.6556
 5793TIP3    H138938   2.652   2.613   8.287 -0.2591  0.2123  1.0953
 5793TIP3    H238939   2.582   2.507   8.369 -1.1810 -1.1572 -1.3609
 5794TIP3   OH238940   1.303   2.242   0.690  0.6597 -0.8549  0.2885
 5794TIP3    H138941   1.351   2.198   0.760  1.2702 -1.7290 -0.6525
 5794TIP3    H238942   1.254   2.173   0.647 -0.1698 -0.2315  0.1939
 5795TIP3   OH238943   4.203   3.564   6.970  0.2850  0.1653 -0.0193
 5795TIP3    H138944   4.144   3.627   7.011  1.2504  0.5126  0.8656
 5795TIP3    H238945   4.289   3.606   6.974  0.5628 -0.1702 -1.6193
 5796TIP3   OH238946   2.236   3.323   6.669 -0.4006  0.1250  0.2063
 5796TIP3    H138947   2.196   3.286   6.591  1.2690 -0.4620 -0.4053
 5796TIP3    H238948   2.310   3.375   6.637  0.4185 -0.2626  1.3726
 5797TIP3   OH238949   1.087   1.140   0.740  0.7440  0.2431  0.0567
 5797TIP3    H138950   1.139   1.106   0.813 -3.2144 -0.2102  3.0294
 5797TIP3    H238951   1.098   1.235   0.745  1.5996  0.1339  0.3518
 5798TIP3   OH238952   0.638   0.554   8.052 -0.3481  0.4757  0.4393
 5798TIP3    H138953   0.671   0.640   8.029  0.9320 -0.5305 -1.8704
 5798TIP3    H238954   0.707   0.494   8.025 -1.3418 -1.3057  1.6526
 5799TIP3   OH238955   4.994   2.953   0.282  0.0185  0.4521  0.5099
 5799TIP3    H138956   5.067   3.015   0.290  0.6152 -0.1218 -0.2586
 5799TIP3    H238957   5.030   2.870   0.312 -0.6693  0.3859  1.1902
 5800TIP3   OH238958   1.211   4.868   8.223 -0.0584 -0.2083 -0.4566
 5800TIP3    H138959   1.277   4.846   8.157  1.8161  2.4567  0.3864
 5800TIP3    H238960   1.226   4.804   8.293 -0.7966 -1.8394 -1.7035
 5801TIP3   OH238961   1.298   0.245   1.337 -0.7238  0.5674  0.4674
 5801TIP3    H138962   1.227   0.287   1.386 -2.0047  0.6610 -1.3238
 5801TIP3    H238963   1.339   0.316   1.288  1.2219  0.6473  2.1018
 5802TIP3   OH238964   1.602   5.202   1.676 -0.2957  0.3022  0.0087
 5802TIP3    H138965   1.678   5.163   1.719  0.2605 -1.2696 -2.2269
 5802TIP3    H238966   1.538   5.214   1.747  0.4474 -2.3635  1.2717
 5803TIP3   OH238967   5.468   0.948   8.305 -0.1245  0.4746 -0.1642
 5803TIP3    H138968   5.475   0.855   8.282  0.6158  0.5029 -0.0984
 5803TIP3    H238969   5.486   0.995   8.223 -2.9139  0.5853 -0.8019
 5804TIP3   OH238970   1.069   3.455   1.712 -0.0785 -0.3299  0.4315
 5804TIP3    H138971   1.023   3.372   1.724  1.0127 -0.8981  0.7306
 5804TIP3    H238972   1.135   3.437   1.645  0.8432  0.0113  1.2263
 5805TIP3   OH238973   2.258   2.170   6.599  0.1659 -0.4638  0.0328
 5805TIP3    H138974   2.347   2.136   6.591  0.2206 -0.0136 -2.0337
 5805TIP3    H238975   2.211   2.105   6.650  0.8414 -2.5358 -1.8178
 5806TIP3   OH238976   0.682   3.477   1.510 -0.2236  0.1116 -0.4902
 5806TIP3    H138977   0.666   3.529   1.589  0.1811 -0.5376  0.0266
 5806TIP3    H238978   0.646   3.391   1.531 -0.4620  0.0430 -1.1633
 5807TIP3   OH238979   0.950   2.906   1.977 -0.4168 -0.0133  0.9276
 5807TIP3    H138980   1.033   2.858   1.971 -0.0348  0.3214  2.8381
 5807TIP3    H238981   0.936   2.940   1.888  1.3509 -0.3070  0.4891
 5808TIP3   OH238982   1.328   4.993   1.214  0.0237  0.7407 -0.1346
 5808TIP3    H138983   1.390   5.050   1.259  0.6494 -0.3456  0.4266
 5808TIP3    H238984   1.303   4.928   1.281  2.0664 -1.8118 -1.6482
 5809TIP3   OH238985   2.372   1.242   8.039 -0.3118  0.3730 -0.1299
 5809TIP3    H138986   2.461   1.275   8.035 -0.1120 -0.1792 -0.3627
 5809TIP3    H238987   2.366   1.198   8.124 -0.6704  1.2497  0.3120
 5810TIP3   OH238988   3.501   5.171   6.854 -0.2114  0.0116 -0.1427
 5810TIP3    H138989   3.510   5.086   6.812 -0.2218 -0.1242  0.1226
 5810TIP3    H238990   3.570   5.173   6.920 -0.8042 -0.1924  0.5029
 5811TIP3   OH238991   3.418   3.024   6.675  0.4844 -0.5238 -0.5804
 5811TIP3    H138992   3.488   3.067   6.626  1.8222 -0.5644  1.1684
 5811TIP3    H238993   3.427   3.058   6.764  1.0015 -3.5880  0.6907
 5812TIP3   OH238994   6.150   4.593   1.326 -0.0320  0.2098  0.4876
 5812TIP3    H138995   6.228   4.540   1.345 -0.9496 -1.0303  0.9583
 5812TIP3    H238996   6.184   4.680   1.308  1.5320 -0.4938 -0.1730
 5813TIP3   OH238997   6.332   4.428   7.127 -0.2249  0.1196  0.5300
 5813TIP3    H138998   6.401   4.488   7.154 -0.7277  0.9303  0.0698
 5813TIP3    H238999   6.332   4.433   7.031 -0.5276 -0.3294  0.5012
 5814TIP3   OH239000   6.398   1.678   8.692 -0.2107 -0.5390 -0.8506
 5814TIP3    H139001   6.305   1.696   8.684 -0.3552  0.4188  1.8571
 5814TIP3    H239002   6.402   1.601   8.750  0.6358  0.5611  0.6337
 5815TIP3   OH239003   4.772   4.926   1.313 -0.1083 -0.3633 -0.4063
 5815TIP3    H139004   4.684   4.951   1.285 -0.3602  0.7011  1.2119
 5815TIP3    H239005   4.761   4.897   1.404  1.2569  0.1882 -0.0379
 5816TIP3   OH239006   3.866   5.158   0.785  0.3476  0.3505  0.1221
 5816TIP3    H139007   3.812   5.211   0.727  0.2686  0.0966 -0.0394
 5816TIP3    H239008   3.949   5.149   0.740  0.8521  1.5158  0.7900
 5817TIP3   OH239009   4.514   0.782   0.977  0.1195 -0.4469  0.2628
 5817TIP3    H139010   4.496   0.711   0.914  0.9647  0.2929 -0.8633
 5817TIP3    H239011   4.600   0.760   1.014 -0.2766 -0.7618  1.0070
 5818TIP3   OH239012   3.467   6.545   1.139 -0.0346 -0.2888  0.1242
 5818TIP3    H139013   3.422   6.466   1.170  0.9939 -1.4738 -1.2648
 5818TIP3    H239014   3.397   6.611   1.131 -1.0282 -1.2347  0.6792
 5819TIP3   OH239015   5.131   6.137   8.005  0.5402 -0.3127  1.0947
 5819TIP3    H139016   5.129   6.212   8.064  0.9825  0.2420  0.4219
 5819TIP3    H239017   5.194   6.162   7.937 -1.3680 -0.1153 -0.6834
 5820TIP3   OH239018   0.636   6.220   0.620  0.1912  0.1528  0.2008
 5820TIP3    H139019   0.573   6.274   0.574 -1.1756 -1.3416  0.2269
 5820TIP3    H239020   0.655   6.148   0.560  1.8702  0.5403  0.2090
 5821TIP3   OH239021   4.975   4.606   0.623  0.4223 -0.4683 -0.1170
 5821TIP3    H139022   5.033   4.542   0.664 -0.9150  0.3715  3.4496
 5821TIP3    H239023   4.887   4.575   0.644 -0.3245  0.8720 -1.1174
 5822TIP3   OH239024   2.163   1.651   8.515  0.8599  0.1101  0.4630
 5822TIP3    H139025   2.114   1.570   8.523 -0.8415  0.8816 -1.3524
 5822TIP3    H239026   2.159   1.691   8.602  0.3242 -0.9745  0.9441
 5823TIP3   OH239027   3.358   2.470   7.219  0.2572  0.3142 -0.0619
 5823TIP3    H139028   3.438   2.442   7.175  0.6762  1.8880 -0.3519
 5823TIP3    H239029   3.352   2.414   7.297  0.5023 -1.2209 -1.1051
 5824TIP3   OH239030   4.290   4.428   1.312  0.3112 -0.9161  0.1277
 5824TIP3    H139031   4.200   4.435   1.280  0.4279 -0.2296 -0.0699
 5824TIP3    H239032   4.292   4.345   1.360 -0.1545 -1.4316 -0.7154
 5825TIP3   OH239033   1.508   5.707   0.233 -0.5306 -0.6433 -0.0580
 5825TIP3    H139034   1.421   5.717   0.272 -0.0397 -0.8156  1.1234
 5825TIP3    H239035   1.507   5.764   0.156 -2.0570 -1.4788 -0.7039
 5826TIP3   OH239036   5.487   3.219   8.321  0.1340  0.5079 -0.2343
 5826TIP3    H139037   5.455   3.273   8.394  1.5932 -0.2154  0.9896
 5826TIP3    H239038   5.578   3.245   8.309  0.1165  0.1237 -1.3542
 5827TIP3   OH239039   4.671   3.494   7.102  0.6701 -0.1582 -0.1723
 5827TIP3    H139040   4.674   3.581   7.143 -0.9232  0.0097 -0.3645
 5827TIP3    H239041   4.761   3.462   7.109  0.9450  0.8247  1.3615
 5828TIP3   OH239042   2.303   6.535   1.484  0.1038 -0.3724 -0.6623
 5828TIP3    H139043   2.306   6.583   1.402 -2.9884 -2.0176 -1.9021
 5828TIP3    H239044   2.229   6.572   1.532  1.1462 -0.2200  0.9330
 5829TIP3   OH239045   0.783   0.995   8.356 -0.0119  0.0947  0.9717
 5829TIP3    H139046   0.801   1.087   8.372 -0.1655  0.0082  1.6914
 5829TIP3    H239047   0.857   0.948   8.394  0.2173 -0.0633  0.3327
 5830TIP3   OH239048   5.656   4.388   0.362 -0.0415 -0.3635  0.4268
 5830TIP3    H139049   5.718   4.447   0.317 -0.1932 -0.7318 -0.2767
 5830TIP3    H239050   5.649   4.424   0.450  0.6020  0.1230  0.2894
 5831TIP3   OH239051   4.490   5.284   0.140  0.5288  0.5606  0.2449
 5831TIP3    H139052   4.558   5.287   0.073  1.2439  0.2430  0.9455
 5831TIP3    H239053   4.435   5.210   0.114  0.6327  0.6159 -0.1425
 5832TIP3   OH239054   0.068   2.594   0.238  0.5400 -0.1827 -0.1699
 5832TIP3    H139055   0.116   2.511   0.241  2.7722  1.0418  2.1501
 5832TIP3    H239056   0.072   2.627   0.328 -3.0616  0.9996 -0.3157
 5833TIP3   OH239057   0.984   3.422   1.206  0.3641 -0.2492 -0.7158
 5833TIP3    H139058   0.902   3.392   1.167  0.5824  0.8036 -2.0960
 5833TIP3    H239059   1.036   3.451   1.131  1.2061  0.9619  0.2936
 5834TIP3   OH239060   0.639   5.629   0.931  0.3866 -0.0582  0.4158
 5834TIP3    H139061   0.717   5.626   0.987 -0.2649  1.0060  1.4117
 5834TIP3    H239062   0.574   5.576   0.978  0.4530 -0.8349 -0.3488
 5835TIP3   OH239063   4.392   2.363   8.454  0.0128  0.0183  0.1153
 5835TIP3    H139064   4.305   2.376   8.418 -0.2406 -1.4332  0.1152
 5835TIP3    H239065   4.380   2.298   8.524  1.2441 -1.2619 -0.7829
 5836TIP3   OH239066   4.804   0.673   0.073 -0.1421  0.0524  0.0633
 5836TIP3    H139067   4.899   0.670   0.081  0.0243 -2.3172 -1.7972
 5836TIP3    H239068   4.773   0.604   0.131 -0.5160 -0.8334 -1.1571
 5837TIP3   OH239069   0.548   3.185   8.813  0.5221 -0.1356  0.4990
 5837TIP3    H139070   0.638   3.212   8.796  0.5338  1.2400  2.4049
 5837TIP3    H239071   0.552   3.142   8.899 -0.3041 -2.1026 -0.3754
 5838TIP3   OH239072   1.667   1.934   6.987  0.5969 -0.1244  0.3935
 5838TIP3    H139073   1.758   1.922   6.961  0.9033  1.5683  0.5578
 5838TIP3    H239074   1.627   1.980   6.914  0.8882  2.6050  1.8161
 5839TIP3   OH239075   0.507   3.787   0.916 -0.0724 -0.1696  0.0295
 5839TIP3    H139076   0.479   3.839   0.991  1.1695  0.6438 -0.0343
 5839TIP3    H239077   0.495   3.696   0.944  2.2579  0.0287  2.0928
 5840TIP3   OH239078   6.271   6.589   0.883 -0.1121  0.3988 -0.1589
 5840TIP3    H139079   6.220   6.617   0.807 -1.2665  0.0697  0.4655
 5840TIP3    H239080   6.212   6.604   0.958  0.4088 -0.7490  0.5088
 5841TIP3   OH239081   0.944   0.083   7.823  0.2929  0.0980  0.0247
 5841TIP3    H139082   0.926   0.107   7.914 -3.3195  0.4284 -0.6555
 5841TIP3    H239083   0.975   0.164   7.783  0.6535  0.2707  0.6253
 5842TIP3   OH239084   6.505   2.772   8.302 -0.2499  0.0017 -0.8988
 5842TIP3    H139085   6.499   2.677   8.291 -0.3688 -0.1095  0.0113
 5842TIP3    H239086   6.576   2.799   8.245  1.2384 -0.9345  0.4445
 5843TIP3   OH239087   0.205   4.161   6.473  0.1933  0.0338  0.0025
 5843TIP3    H139088   0.293   4.197   6.479 -0.0074  0.3496  1.1529
 5843TIP3    H239089   0.203   4.091   6.538 -0.0732 -0.7060 -0.7777
 5844TIP3   OH239090   1.263   3.801   6.465 -0.0704 -0.3399 -0.0303
 5844TIP3    H139091   1.191   3.753   6.504 -1.5368  0.1759 -1.9368
 5844TIP3    H239092   1.333   3.737   6.454 -1.0828 -1.4230 -0.2574
 5845TIP3   OH239093   2.918   2.823   7.073 -0.1549  0.1598  0.0525
 5845TIP3    H139094   2.867   2.898   7.041  1.4594  1.5239  0.5065
 5845TIP3    H239095   3.009   2.848   7.057  0.4324 -1.8761 -0.0703
 5846TIP3   OH239096   3.167   3.705   6.516  0.1989  0.2009 -0.3167
 5846TIP3    H139097   3.161   3.697   6.611  0.2541  1.0530 -0.2302
 5846TIP3    H239098   3.077   3.722   6.488 -0.0419 -1.3924 -0.5701
 5847TIP3   OH239099   5.106   4.804   0.457 -0.4242 -0.5075 -0.1901
 5847TIP3    H139100   5.071   4.877   0.406  0.4290  0.6967  0.8752
 5847TIP3    H239101   5.029   4.750   0.478 -1.0064 -0.1664 -1.3606
 5848TIP3   OH239102   0.124   5.116   7.404  0.7609 -0.4839  0.1885
 5848TIP3    H139103   0.188   5.165   7.351 -1.0945  0.2105 -1.5345
 5848TIP3    H239104   0.171   5.036   7.429  1.7228 -0.9550 -2.7369
 5849TIP3   OH239105   1.796   1.211   0.291 -0.2865  0.9173 -0.1791
 5849TIP3    H139106   1.807   1.208   0.386 -0.8279 -0.1732 -0.1378
 5849TIP3    H239107   1.867   1.155   0.258 -0.8200  0.3274 -0.3413
 5850TIP3   OH239108   2.660   1.559   6.363 -0.0851 -0.1825 -0.8101
 5850TIP3    H139109   2.583   1.601   6.325 -0.3997  0.4334  0.4368
 5850TIP3    H239110   2.730   1.624   6.354 -0.1138 -0.1092 -0.5281
 5851TIP3   OH239111   1.609   3.311   8.681 -0.0564  0.4012 -0.0847
 5851TIP3    H139112   1.651   3.306   8.595 -1.0459  0.8883 -0.6064
 5851TIP3    H239113   1.517   3.325   8.662 -0.7061 -1.9206  1.0082
 5852TIP3   OH239114   3.852   1.080   1.370  0.9257  0.0812  0.2791
 5852TIP3    H139115   3.887   0.993   1.388  2.7191  0.4840 -0.9513
 5852TIP3    H239116   3.849   1.124   1.455  1.3740 -0.7118  0.7095
 5853TIP3   OH239117   2.933   6.573   7.421  0.4123  0.2802  0.4905
 5853TIP3    H139118   3.003   6.547   7.481  0.0671  0.6049  1.0383
 5853TIP3    H239119   2.942   6.513   7.347 -0.8019 -1.9266  2.0118
 5854TIP3   OH239120   6.154   1.188   1.161  0.1676 -0.0306 -0.0105
 5854TIP3    H139121   6.104   1.110   1.186  0.0449 -0.3542 -1.1879
 5854TIP3    H239122   6.170   1.177   1.067 -0.1106  1.5087 -0.2651
 5855TIP3   OH239123   3.602   2.274   7.231  0.0664 -0.0568 -0.2307
 5855TIP3    H139124   3.572   2.196   7.185  0.9265  0.1810 -1.2409
 5855TIP3    H239125   3.670   2.311   7.174  0.9419  0.4358  1.0765
 5856TIP3   OH239126   0.388   4.936   1.584  0.0828 -0.4284  0.3200
 5856TIP3    H139127   0.361   5.006   1.525  0.4042 -0.4038  0.2050
 5856TIP3    H239128   0.430   4.871   1.528 -0.9482 -1.1030  0.3036
 5857TIP3   OH239129   5.958   3.050   1.967  0.1827  0.2100  0.0645
 5857TIP3    H139130   5.989   3.001   1.890 -0.4722 -1.7741  0.9976
 5857TIP3    H239131   5.923   3.131   1.931  0.7047 -0.2799 -1.6396
 5858TIP3   OH239132   5.522   2.563   2.229 -0.5180  0.2648  0.1262
 5858TIP3    H139133   5.443   2.610   2.254 -0.7525 -0.5751  1.0701
 5858TIP3    H239134   5.593   2.623   2.250 -0.8416  0.4770  0.6507
 5859TIP3   OH239135   1.606   6.578   8.781 -0.1751  0.1049 -0.1826
 5859TIP3    H139136   1.577   6.517   8.714  0.9865  0.8049 -1.3645
 5859TIP3    H239137   1.571   6.662   8.755  1.4853  0.6570 -0.7539
 5860TIP3   OH239138   6.774   6.435   1.376  0.9341 -0.1247  0.2381
 5860TIP3    H139139   6.818   6.424   1.291  2.0251 -0.9341  0.8701
 5860TIP3    H239140   6.688   6.395   1.364  1.1192 -0.3230 -0.4591
 5861TIP3   OH239141   0.850   1.190   7.786  0.0963  0.3833 -0.2890
 5861TIP3    H139142   0.854   1.248   7.710  0.2350  2.4337  1.1788
 5861TIP3    H239143   0.788   1.121   7.762 -1.9532  2.4645 -1.2984
 5862TIP3   OH239144   5.210   3.582   8.751 -0.2622 -0.3848  0.1539
 5862TIP3    H139145   5.296   3.587   8.709 -0.6162  1.3641 -0.4184
 5862TIP3    H239146   5.229   3.592   8.845  0.1865 -0.5541  0.0862
 5863TIP3   OH239147   3.372   3.526   8.255  0.3545  0.2707  0.8298
 5863TIP3    H139148   3.351   3.506   8.346 -0.8059  0.6098  0.6580
 5863TIP3    H239149   3.304   3.588   8.227  0.3265 -0.2846 -0.4345
 5864TIP3   OH239150   1.997   1.113   1.316  0.0534 -0.0920  0.0104
 5864TIP3    H139151   1.996   1.019   1.296  0.4945 -0.3962  1.3544
 5864TIP3    H239152   2.028   1.154   1.235 -1.7362 -0.9253 -1.1596
 5865TIP3   OH239153   2.231   2.500   8.832  0.1371 -0.7096  0.4280
 5865TIP3    H139154   2.293   2.514   8.904  0.7008 -1.1618  0.0438
 5865TIP3    H239155   2.171   2.433   8.864 -0.6980  0.3409  1.1253
 5866TIP3   OH239156   3.974   3.687   7.101 -0.3904  0.0940  0.5346
 5866TIP3    H139157   3.917   3.712   7.173 -1.5239 -3.2805  0.9819
 5866TIP3    H239158   3.925   3.709   7.022 -0.5090  0.9445  0.8426
 5867TIP3   OH239159   2.538   3.044   8.405  0.4196 -0.2381  0.5298
 5867TIP3    H139160   2.525   2.976   8.338  1.0671  0.5184 -0.3799
 5867TIP3    H239161   2.480   3.017   8.477 -3.0773  0.7668 -1.6578
 5868TIP3   OH239162   1.793   2.308   7.747  0.0406 -0.0067 -0.6350
 5868TIP3    H139163   1.737   2.385   7.735  0.6145  0.1856 -2.5150
 5868TIP3    H239164   1.775   2.254   7.670  1.8824 -0.2613 -0.9380
 5869TIP3   OH239165   0.998   4.313   1.064  0.6164  0.6061 -0.6639
 5869TIP3    H139166   1.021   4.232   1.109 -0.6882  0.7363  0.3246
 5869TIP3    H239167   1.034   4.304   0.976  1.6677 -0.4446 -0.1494
 5870TIP3   OH239168   1.924   2.848   0.890 -0.4534 -0.0158 -0.2977
 5870TIP3    H139169   1.906   2.756   0.910 -0.4708 -0.2706 -1.4268
 5870TIP3    H239170   1.924   2.852   0.794  0.6391  0.9398 -0.2800
 5871TIP3   OH239171   1.960   2.040   0.215 -0.6096  0.7069 -0.0145
 5871TIP3    H139172   1.973   2.013   0.306 -2.7115 -1.6126 -0.2939
 5871TIP3    H239173   1.869   2.068   0.212 -1.0827 -0.8280 -1.6822
 5872TIP3   OH239174   0.966   0.651   8.688 -0.0118  0.4800  0.1203
 5872TIP3    H139175   1.023   0.574   8.686 -2.0774 -1.2453  2.0959
 5872TIP3    H239176   0.981   0.689   8.775 -1.6901  0.0709  0.6278
 5873TIP3   OH239177   5.499   6.132   0.949 -0.0885 -0.3976  0.5660
 5873TIP3    H139178   5.520   6.131   1.042 -0.0430  1.5392  0.6225
 5873TIP3    H239179   5.441   6.207   0.938  0.4635 -0.1542 -1.0675
 5874TIP3   OH239180   1.089   6.012   8.355 -0.7435  0.1194  0.2487
 5874TIP3    H139181   1.090   6.094   8.306 -0.8587 -0.2536 -0.3887
 5874TIP3    H239182   1.059   5.947   8.291  0.6519 -0.6629  0.3664
 5875TIP3   OH239183   4.898   4.951   6.928 -0.4478 -0.9479  0.6103
 5875TIP3    H139184   4.851   5.003   6.992  1.2955  1.3831  0.1485
 5875TIP3    H239185   4.980   4.927   6.971  0.7246  0.6048 -0.5987
 5876TIP3   OH239186   1.925   5.591   0.804  0.3505 -0.1614  0.1012
 5876TIP3    H139187   1.935   5.504   0.841  3.1977 -0.8114 -1.8524
 5876TIP3    H239188   1.982   5.647   0.857 -0.9289  0.4160  0.9139
 5877TIP3   OH239189   1.992   3.807   8.818 -0.7423 -0.6558  0.2121
 5877TIP3    H139190   1.976   3.832   8.727 -4.2958 -1.7676  0.3932
 5877TIP3    H239191   1.941   3.869   8.870  1.0418 -0.1827  1.4958
 5878TIP3   OH239192   0.055   5.185   1.941 -0.4176 -0.2493  0.4591
 5878TIP3    H139193   0.119   5.128   1.897 -0.6575  0.2826 -0.6047
 5878TIP3    H239194  -0.013   5.124   1.973  0.2333 -0.7366  0.9451
 5879TIP3   OH239195   0.249   4.382   6.662  0.3284  0.0201  0.5092
 5879TIP3    H139196   0.270   4.293   6.693  0.0580 -1.1426 -2.3608
 5879TIP3    H239197   0.301   4.392   6.582 -1.4121  1.5415 -0.5023
 5880TIP3   OH239198   4.963   0.782   1.734  0.1786  0.2276  0.5041
 5880TIP3    H139199   4.963   0.877   1.731 -1.6206  0.2666 -2.1302
 5880TIP3    H239200   5.051   0.757   1.705 -0.0950  1.1708 -1.3143
 5881TIP3   OH239201   6.295   4.081   0.628  0.5686  0.1047  0.0927
 5881TIP3    H139202   6.351   4.076   0.550 -0.1245 -0.1427 -0.4011
 5881TIP3    H239203   6.317   4.165   0.668 -0.3295  1.0752 -1.3590
 5882TIP3   OH239204   4.725   2.912   7.256 -0.3845  0.3436  0.0815
 5882TIP3    H139205   4.818   2.935   7.252 -0.2230  0.0961  1.6395
 5882TIP3    H239206   4.723   2.817   7.250 -0.3348  0.1778  2.0658
 5883TIP3   OH239207   1.360   0.060   1.545  0.3736 -0.3027  0.0058
 5883TIP3    H139208   1.392   0.109   1.620 -0.8345 -0.7700  0.8507
 5883TIP3    H239209   1.332   0.127   1.482  0.6807  0.0876  0.2874
 5884TIP3   OH239210   6.282   0.694   7.909  0.2131  0.5152 -0.1439
 5884TIP3    H139211   6.290   0.789   7.901 -1.1576  0.8100  1.3686
 5884TIP3    H239212   6.192   0.675   7.883 -0.5495  0.0894  2.5341
 5885TIP3   OH239213   1.327   3.188   2.069 -0.8883  0.1382  0.0272
 5885TIP3    H139214   1.235   3.162   2.073 -1.1327  1.0784  1.0101
 5885TIP3    H239215   1.332   3.242   1.990 -1.2403  0.3164  0.1232
 5886TIP3   OH239216   3.463   3.007   1.242  0.1012  0.2713 -0.3081
 5886TIP3    H139217   3.491   2.935   1.185  0.4460 -1.2244  1.6456
 5886TIP3    H239218   3.530   3.074   1.232  2.0570 -1.4036  0.9127
 5887TIP3   OH239219   6.375   3.906   7.374  0.6977 -0.1992 -0.2962
 5887TIP3    H139220   6.353   3.981   7.318  2.2154  1.5805  1.3595
 5887TIP3    H239221   6.430   3.942   7.443  0.9382 -2.7523  0.9846
 5888TIP3   OH239222   1.635   5.390   6.323  0.3625 -0.1574 -0.0876
 5888TIP3    H139223   1.724   5.365   6.345  0.2315 -0.9928 -0.4549
 5888TIP3    H239224   1.583   5.310   6.337 -0.4417  0.4891  0.7549
 5889TIP3   OH239225   3.309   6.748   6.657 -0.4445 -0.3984 -0.0613
 5889TIP3    H139226   3.287   6.802   6.580 -0.9157 -0.6383 -0.0991
 5889TIP3    H239227   3.290   6.805   6.732  1.8178  0.5322 -0.1175
 5890TIP3   OH239228   3.055   5.247   1.381  0.4523 -0.2630  0.1390
 5890TIP3    H139229   3.083   5.274   1.294 -0.5245  0.4226  0.0329
 5890TIP3    H239230   3.136   5.246   1.433  0.6059  2.6611  0.0940
 5891TIP3   OH239231   6.384   5.727   1.158  0.5160  0.7925 -0.0527
 5891TIP3    H139232   6.383   5.758   1.248 -0.9578  2.3842 -0.5708
 5891TIP3    H239233   6.306   5.765   1.118  0.9170 -0.1981 -1.9026
 5892TIP3   OH239234   5.595   3.703   2.384  0.1068  0.1116  0.5946
 5892TIP3    H139235   5.622   3.757   2.458 -0.0523 -0.6577  1.2344
 5892TIP3    H239236   5.500   3.704   2.387  0.1034 -0.3726  0.7449
 5893TIP3   OH239237   1.172   4.444   0.176  0.1858 -0.4509 -0.4486
 5893TIP3    H139238   1.234   4.401   0.116  0.3819 -1.3399  0.3637
 5893TIP3    H239239   1.221   4.455   0.257 -0.0538  0.8165 -0.4661
 5894TIP3   OH239240   4.417   0.797   8.044 -0.2475  0.3101 -0.2483
 5894TIP3    H139241   4.331   0.832   8.021  0.4197  1.7221 -0.7896
 5894TIP3    H239242   4.467   0.875   8.070  0.9832 -0.4191 -0.3670
 5895TIP3   OH239243   0.293   0.902   0.212  0.4265  0.1097 -1.0372
 5895TIP3    H139244   0.300   0.809   0.192  1.1803  0.2405 -1.4095
 5895TIP3    H239245   0.365   0.943   0.163  1.4456  0.6182  0.7981
 5896TIP3   OH239246   4.152   4.411   6.419  0.0890 -0.4806 -0.3062
 5896TIP3    H139247   4.127   4.448   6.334 -0.7417 -1.4778 -0.5057
 5896TIP3    H239248   4.156   4.487   6.478  0.0327  0.1346 -1.0729
 5897TIP3   OH239249   3.566   5.824   0.087  0.9555  0.0370 -0.3478
 5897TIP3    H139250   3.574   5.896   0.024  0.0572  0.3158 -0.1492
 5897TIP3    H239251   3.533   5.751   0.036 -2.8812  1.1058  0.2873
 5898TIP3   OH239252   1.623   2.162   7.120 -0.4402  0.5847 -0.2492
 5898TIP3    H139253   1.648   2.081   7.075 -0.4715  0.4996 -0.1144
 5898TIP3    H239254   1.528   2.168   7.108 -0.1587  1.7615 -2.1761
 5899TIP3   OH239255   2.254   4.244   1.627  0.2735 -0.3715  0.3948
 5899TIP3    H139256   2.252   4.157   1.665 -1.1390 -0.3740  0.3539
 5899TIP3    H239257   2.319   4.292   1.679  1.3551 -1.5372  0.1584
 5900TIP3   OH239258   0.407   2.576   1.547  0.3702  1.0025  0.4431
 5900TIP3    H139259   0.380   2.570   1.639 -2.2140 -0.4899 -0.3100
 5900TIP3    H239260   0.408   2.485   1.516 -0.6187  1.5807 -1.4536
 5901TIP3   OH239261   3.018   2.804   7.901  0.4009  0.0132 -0.0738
 5901TIP3    H139262   2.975   2.865   7.841  0.4675 -0.9988 -1.1870
 5901TIP3    H239263   3.085   2.856   7.945  0.0130  0.8986 -0.5063
 5902TIP3   OH239264   0.489   2.592   0.861 -0.3649  0.3875 -0.6240
 5902TIP3    H139265   0.472   2.512   0.812  2.3232 -0.6825  0.0086
 5902TIP3    H239266   0.416   2.598   0.923  0.1060 -2.5098  0.3726
 5903TIP3   OH239267   3.955   3.870   0.708 -0.5765 -0.0396  0.1544
 5903TIP3    H139268   3.956   3.911   0.794  2.3652 -1.3327  0.8476
 5903TIP3    H239269   3.978   3.941   0.648 -0.2597  0.3617  0.7404
 5904TIP3   OH239270   1.159   0.175   0.322 -0.4987 -0.4293  0.5751
 5904TIP3    H139271   1.248   0.141   0.314 -0.8709 -1.7139  1.5222
 5904TIP3    H239272   1.104   0.108   0.282 -0.9838  1.0242 -1.3734
 5905TIP3   OH239273   4.069   5.288   1.809 -0.0601 -0.2156 -0.6948
 5905TIP3    H139274   4.026   5.294   1.894 -0.3806  2.1064 -0.9550
 5905TIP3    H239275   3.997   5.281   1.746 -0.2249  3.2032 -1.0934
 5906TIP3   OH239276   1.105   0.770   1.675  0.1152  0.5942  0.0406
 5906TIP3    H139277   1.168   0.750   1.744 -0.1776  0.8315  0.3790
 5906TIP3    H239278   1.122   0.861   1.652  0.0134  0.6050  0.0073
 5907TIP3   OH239279   3.628   6.136   0.403 -0.0741  0.3366  0.7390
 5907TIP3    H139280   3.720   6.117   0.385 -0.4824 -1.0262 -0.0290
 5907TIP3    H239281   3.624   6.145   0.498  1.0140  1.3900  0.7116
 5908TIP3   OH239282   2.015   4.971   7.459 -0.1907 -0.5844  0.1608
 5908TIP3    H139283   2.020   4.922   7.377 -1.1057 -1.4111  0.5727
 5908TIP3    H239284   1.924   5.001   7.463 -0.6024 -1.8905  1.5904
 5909TIP3   OH239285   0.970   1.744   8.662 -0.0291 -0.7437  0.3361
 5909TIP3    H139286   1.017   1.660   8.658 -0.7973 -1.1487 -0.7032
 5909TIP3    H239287   1.007   1.795   8.590 -0.2837 -0.5920  0.3132
 5910TIP3   OH239288   0.252   4.605   7.046 -0.0798  0.5905 -0.6936
 5910TIP3    H139289   0.223   4.644   6.963  0.0100 -3.0289 -2.6041
 5910TIP3    H239290   0.329   4.553   7.022 -0.7051 -1.4632  1.4217
 5911TIP3   OH239291   5.275   1.506   0.499 -0.7226 -0.2759  0.1592
 5911TIP3    H139292   5.319   1.437   0.449 -2.3802 -1.4362  0.2213
 5911TIP3    H239293   5.217   1.459   0.559  0.8687  1.0808  2.9436
 5912TIP3   OH239294   0.217   4.856   6.848  0.0157  0.4423 -0.3760
 5912TIP3    H139295   0.145   4.822   6.794  0.9855 -0.3467 -1.2044
 5912TIP3    H239296   0.273   4.902   6.786  0.1910  1.1256  0.2806
 5913TIP3   OH239297   4.842   0.863   7.891  0.0875 -0.3955 -0.2147
 5913TIP3    H139298   4.824   0.769   7.892 -0.4066 -0.3006  0.3860
 5913TIP3    H239299   4.924   0.873   7.939  1.0599 -0.6872 -1.7640
 5914TIP3   OH239300   5.724   3.932   6.510 -0.7221 -0.1964 -0.3186
 5914TIP3    H139301   5.767   3.846   6.504 -0.8568 -0.3581  0.7381
 5914TIP3    H239302   5.685   3.945   6.424 -1.1045 -1.4088 -0.3555
 5915TIP3   OH239303   1.578   6.633   7.214  0.2741 -0.3664  0.6740
 5915TIP3    H139304   1.527   6.553   7.203  0.9392 -0.9329  1.5763
 5915TIP3    H239305   1.647   6.609   7.276  0.2832  1.0087  1.2203
 5916TIP3   OH239306   4.418   0.120   7.087  0.3174 -0.6672  0.7826
 5916TIP3    H139307   4.403   0.115   6.993 -0.4772  0.2369  0.8430
 5916TIP3    H239308   4.333   0.100   7.126 -0.3959  2.6127  1.1887
 5917TIP3   OH239309   4.840   2.327   6.566  0.2788  0.3928  0.1199
 5917TIP3    H139310   4.849   2.241   6.525  0.5335  0.1450  0.6812
 5917TIP3    H239311   4.802   2.382   6.498  1.8542  0.3110 -0.8697
 5918TIP3   OH239312   1.493   5.232   0.981  0.3088 -0.0811 -0.7691
 5918TIP3    H139313   1.434   5.177   0.930 -0.5538  0.2937 -0.1927
 5918TIP3    H239314   1.460   5.321   0.968  1.1798  0.2227 -1.0091
 5919TIP3   OH239315   5.687   3.558   8.564 -0.6678 -0.0512 -0.4804
 5919TIP3    H139316   5.686   3.467   8.535  0.1730  0.1535 -1.2108
 5919TIP3    H239317   5.756   3.599   8.511 -0.2756  0.7504  0.6118
 5920TIP3   OH239318   3.193   2.028   6.924  0.3173 -0.2856 -0.2560
 5920TIP3    H139319   3.204   2.123   6.927 -0.8987 -0.1482  0.8059
 5920TIP3    H239320   3.251   1.999   6.853  1.3767  1.1354 -0.0172
 5921TIP3   OH239321   0.410   0.655   2.550 -0.0890 -0.5056  0.0354
 5921TIP3    H139322   0.438   0.746   2.541 -0.1092 -0.5759 -0.8504
 5921TIP3    H239323   0.315   0.658   2.539 -0.6114 -0.2100  3.4562
 5922TIP3   OH239324   4.907   5.242   1.273 -0.5882 -0.6405 -0.3492
 5922TIP3    H139325   4.847   5.246   1.198 -0.2078 -2.9971 -0.8519
 5922TIP3    H239326   4.948   5.156   1.266  1.4951  0.1703  1.0429
 5923TIP3   OH239327   2.159   3.156   7.911  0.5350  0.1389 -0.2150
 5923TIP3    H139328   2.098   3.229   7.907 -0.4232 -0.5678  0.9411
 5923TIP3    H239329   2.224   3.182   7.977 -0.9603 -0.8316  1.7521
 5924TIP3   OH239330   0.756   3.095   8.369 -0.2947 -0.5610 -0.0320
 5924TIP3    H139331   0.770   3.180   8.411 -0.9786  0.1765 -1.2226
 5924TIP3    H239332   0.661   3.083   8.372 -0.2136 -1.2012 -0.0428
 5925TIP3   OH239333   2.090   1.303   0.024 -0.4166 -0.2523  0.5739
 5925TIP3    H139334   2.048   1.380   0.064 -2.4384 -1.0231  0.0671
 5925TIP3    H239335   2.093   1.324  -0.069  0.1816 -0.2769  0.5896
 5926TIP3   OH239336   3.026   0.463   6.347  0.3773  0.5720  0.4501
 5926TIP3    H139337   2.966   0.514   6.294  1.9429  2.2151  0.1534
 5926TIP3    H239338   2.973   0.431   6.419 -1.2428  0.3730 -0.7852
 5927TIP3   OH239339   6.151   2.973   8.593  0.6008 -0.8917 -0.7083
 5927TIP3    H139340   6.244   2.970   8.611  0.5612 -2.6781 -0.6855
 5927TIP3    H239341   6.136   2.904   8.528 -0.6574 -0.4303 -0.9549
 5928TIP3   OH239342   4.580   4.320   0.836  0.1668  0.1875  0.4790
 5928TIP3    H139343   4.526   4.326   0.914 -2.2810 -0.0219 -1.0760
 5928TIP3    H239344   4.541   4.248   0.786 -0.6139  2.4031 -2.4312
 5929TIP3   OH239345   0.758   3.120   7.137 -0.2600 -0.1194  0.3716
 5929TIP3    H139346   0.806   3.202   7.153 -0.4411  0.2622 -0.9685
 5929TIP3    H239347   0.816   3.052   7.171  0.1238  0.5139  1.0304
 5930TIP3   OH239348   4.300   5.953   6.085  0.4769 -0.1134 -0.7435
 5930TIP3    H139349   4.345   5.889   6.030  0.4818 -2.1610  1.4503
 5930TIP3    H239350   4.323   5.927   6.175 -2.8829  0.3712  0.4028
 5931TIP3   OH239351   1.895   0.193   8.775 -0.0238 -0.0401 -1.8051
 5931TIP3    H139352   1.942   0.110   8.769  1.1057  0.6345 -2.5206
 5931TIP3    H239353   1.852   0.189   8.861  1.5521 -0.5906 -0.9882
 5932TIP3   OH239354   6.138   3.303   0.090  0.2870  0.0471  0.0297
 5932TIP3    H139355   6.120   3.360   0.164 -1.5411 -1.4117  0.7675
 5932TIP3    H239356   6.089   3.342   0.017  0.5999  0.4588  0.0348
 5933TIP3   OH239357   0.866   1.396   7.160  0.2128  0.5434  0.6263
 5933TIP3    H139358   0.881   1.386   7.066 -0.6537  1.4812  0.3716
 5933TIP3    H239359   0.833   1.485   7.170  0.8813  0.6814  1.9085
 5934TIP3   OH239360   1.551   5.810   1.582  0.3651  0.1994 -0.4127
 5934TIP3    H139361   1.475   5.761   1.615  1.7303 -2.5078 -1.0166
 5934TIP3    H239362   1.542   5.807   1.487  0.7606  0.6597 -0.4663
 5935TIP3   OH239363   1.351   2.784   0.306 -0.1389  0.2206 -0.1298
 5935TIP3    H139364   1.302   2.758   0.384 -0.5286  0.1022 -0.4098
 5935TIP3    H239365   1.424   2.836   0.340  1.1534 -1.9087  0.5285
 5936TIP3   OH239366   4.539   4.752   8.382  0.1698  1.0603 -0.6610
 5936TIP3    H139367   4.501   4.689   8.443  0.9709  0.7243 -0.5002
 5936TIP3    H239368   4.534   4.709   8.297  0.3839  0.9310 -0.6079
 5937TIP3   OH239369   0.568   3.127   5.736 -0.5836 -0.2527 -0.0738
 5937TIP3    H139370   0.571   3.172   5.821  2.9638 -1.6938  0.7658
 5937TIP3    H239371   0.525   3.044   5.754 -3.1059  0.8289 -0.6333
 5938TIP3   OH239372   2.264   1.425   1.128 -0.6570 -0.3181  0.0400
 5938TIP3    H139373   2.344   1.373   1.117 -0.8451 -0.6958  0.4255
 5938TIP3    H239374   2.289   1.493   1.190 -0.1383  0.6516 -1.1934
 5939TIP3   OH239375   1.589   2.239   8.783  0.1207 -0.6188 -0.3727
 5939TIP3    H139376   1.534   2.281   8.717 -2.0240 -1.0844  1.0066
 5939TIP3    H239377   1.537   2.243   8.863  2.8395  0.4152  1.4639
 5940TIP3   OH239378   0.560   4.061   1.594 -0.3909 -0.1007 -1.0998
 5940TIP3    H139379   0.654   4.053   1.579 -0.1347  1.8824 -0.8000
 5940TIP3    H239380   0.550   4.059   1.689 -0.5169  0.7274 -1.0851
 5941TIP3   OH239381   0.738   4.310   1.018  0.1402  0.6062 -0.7955
 5941TIP3    H139382   0.827   4.335   1.044 -0.6626  1.4940  1.3057
 5941TIP3    H239383   0.749   4.227   0.971  1.9639  0.0172  0.5618
 5942TIP3   OH239384   5.748   1.121   1.232 -0.5089 -0.5671  0.1122
 5942TIP3    H139385   5.756   1.032   1.198 -0.2444 -1.2054  1.7583
 5942TIP3    H239386   5.656   1.128   1.258 -0.7695  0.0018 -0.9290
 5943TIP3   OH239387   0.412   4.355   7.444 -0.4455  0.4003  0.1079
 5943TIP3    H139388   0.342   4.391   7.499 -0.4165 -0.6535  0.8495
 5943TIP3    H239389   0.451   4.286   7.496  0.5834  0.3791 -0.6535
 5944TIP3   OH239390   0.465   6.399   0.985 -0.0993  0.0226 -0.2481
 5944TIP3    H139391   0.556   6.385   0.961  0.5761  2.0517  0.8815
 5944TIP3    H239392   0.428   6.451   0.914 -0.0085  0.2735 -0.1135
 5945TIP3   OH239393   5.787   5.408   8.512 -0.0049  0.2786 -0.6355
 5945TIP3    H139394   5.790   5.432   8.419  0.4605  0.4939 -0.5696
 5945TIP3    H239395   5.782   5.492   8.558 -0.4808  0.1621 -0.4752
 5946TIP3   OH239396   3.165   4.696   7.899 -0.7445  0.1049 -0.0714
 5946TIP3    H139397   3.184   4.698   7.993  1.9686 -3.3056 -0.3674
 5946TIP3    H239398   3.092   4.635   7.890 -0.3283 -0.3775 -0.2243
 5947TIP3   OH239399   2.359   2.601   8.318  0.0282  0.5695  0.5908
 5947TIP3    H139400   2.434   2.644   8.278 -0.6015  1.2708  0.1131
 5947TIP3    H239401   2.312   2.561   8.244 -1.4893  2.4021  0.4893
 5948TIP3   OH239402   0.105   3.387   7.951  0.0989 -0.2751 -0.1173
 5948TIP3    H139403   0.071   3.307   7.990  1.0581 -0.5724  0.1345
 5948TIP3    H239404   0.073   3.457   8.008 -3.2668 -0.1262 -1.9789
 5949TIP3   OH239405   5.823   5.240   8.738 -0.3060 -0.2519 -0.0424
 5949TIP3    H139406   5.837   5.298   8.663 -0.8206 -0.0672 -0.0000
 5949TIP3    H239407   5.796   5.298   8.809 -1.8924 -0.6454 -0.2943
 5950TIP3   OH239408   5.048   1.272   7.861  0.5726 -0.4128  0.5407
 5950TIP3    H139409   5.019   1.286   7.951  0.8858 -0.8635  0.7135
 5950TIP3    H239410   4.991   1.203   7.828 -0.4932  0.7085 -0.0812
 5951TIP3   OH239411   0.513   5.233   0.783 -0.1144 -0.5697  0.5124
 5951TIP3    H139412   0.503   5.250   0.690 -1.8483 -0.8862  0.6004
 5951TIP3    H239413   0.600   5.266   0.805 -1.1422  3.1569 -0.4056
 5952TIP3   OH239414   0.596   1.702   7.413  0.5883  0.5667  0.1842
 5952TIP3    H139415   0.659   1.763   7.452  0.3480  0.9041  0.0494
 5952TIP3    H239416   0.606   1.622   7.464  0.1170  1.0695  1.0899
 5953TIP3   OH239417   2.286   4.407   7.382 -0.2171  0.1925 -0.0762
 5953TIP3    H139418   2.249   4.431   7.467 -0.6612 -1.0645  0.0995
 5953TIP3    H239419   2.381   4.405   7.397 -0.2719  0.3109  0.2909
 5954TIP3   OH239420   5.297   0.614   7.313  0.1104 -0.1353 -0.0754
 5954TIP3    H139421   5.336   0.543   7.365  1.2287  1.6528  1.6719
 5954TIP3    H239422   5.316   0.591   7.222 -0.4970 -2.5729  0.3471
 5955TIP3   OH239423   5.879   5.590   0.813  0.7135  0.3467 -0.2292
 5955TIP3    H139424   5.885   5.634   0.728  0.5330 -0.6782 -0.7868
 5955TIP3    H239425   5.902   5.499   0.795  1.8222  0.3475  1.0435
 5956TIP3   OH239426   5.644   1.687   0.607  0.2377 -0.3380 -0.2017
 5956TIP3    H139427   5.559   1.704   0.568  0.4880  0.6872 -0.3200
 5956TIP3    H239428   5.635   1.601   0.648 -0.7506 -0.3717 -0.4707
 5957TIP3   OH239429   4.725   5.454   7.357  0.5404 -0.2787  0.0930
 5957TIP3    H139430   4.669   5.481   7.429  1.6339 -0.5520  1.0732
 5957TIP3    H239431   4.668   5.458   7.279 -0.6743 -0.0575  0.9667
 5958TIP3   OH239432   0.317   5.996   2.069  0.1256  0.8499  0.6599
 5958TIP3    H139433   0.400   6.010   2.024  0.5711  1.2890  1.5994
 5958TIP3    H239434   0.342   5.959   2.154 -0.6862  0.2922  0.6687
 5959TIP3   OH239435   5.071   1.087   0.431 -0.7395 -0.6501  0.3798
 5959TIP3    H139436   5.024   1.006   0.449 -2.9290  0.4910  0.0226
 5959TIP3    H239437   5.043   1.114   0.344 -3.0066  2.3558  1.8608
 5960TIP3   OH239438   1.865   6.187   6.474 -0.0373  0.2086  0.5669
 5960TIP3    H139439   1.785   6.134   6.473  0.2238 -0.2174  1.5656
 5960TIP3    H239440   1.936   6.124   6.461  0.3044  0.2359  2.1202
 5961TIP3   OH239441   0.165   0.361   0.944 -0.3030 -1.0998  0.4338
 5961TIP3    H139442   0.154   0.269   0.920 -0.1364 -1.5522  2.0197
 5961TIP3    H239443   0.253   0.383   0.914 -0.9137 -0.9642 -1.3871
 5962TIP3   OH239444   5.792   0.837   1.069  0.5524 -0.7276  0.1685
 5962TIP3    H139445   5.847   0.852   0.992  0.0084  0.9520  0.0595
 5962TIP3    H239446   5.704   0.862   1.041 -0.0511 -2.1026  0.7432
 5963TIP3   OH239447   1.828   0.843   0.281 -0.4401  0.2913  0.0463
 5963TIP3    H139448   1.818   0.897   0.359  0.7905 -0.0232  0.4470
 5963TIP3    H239449   1.842   0.905   0.210 -0.8366  0.5524  0.1932
 5964TIP3   OH239450   6.675   3.631   2.060 -0.2423  0.3385  0.3996
 5964TIP3    H139451   6.766   3.635   2.089  0.5420 -0.6460 -1.7519
 5964TIP3    H239452   6.646   3.723   2.059  0.7678  0.6743  0.9407
 5965TIP3   OH239453   3.622   0.830   8.047 -0.4862 -0.1036 -0.3057
 5965TIP3    H139454   3.703   0.787   8.075  0.4570  0.6757 -1.7023
 5965TIP3    H239455   3.586   0.771   7.980 -1.7238 -1.0116  1.0782
 5966TIP3   OH239456   2.505   6.620   6.671 -0.1246  0.5759 -0.1042
 5966TIP3    H139457   2.470   6.531   6.683  1.6859 -0.9110 -4.0609
 5966TIP3    H239458   2.440   6.664   6.617  0.2811  0.6454 -0.5433
 5967TIP3   OH239459   2.175   1.339   6.706  0.1348  0.4683 -0.2022
 5967TIP3    H139460   2.105   1.363   6.644  2.5181  0.4126 -3.1655
 5967TIP3    H239461   2.170   1.406   6.774 -1.0984  2.1098 -1.7741
 5968TIP3   OH239462   1.421   5.507   6.687 -0.5375  0.2786 -0.1020
 5968TIP3    H139463   1.360   5.575   6.716 -2.0571  0.0129 -2.3792
 5968TIP3    H239464   1.439   5.528   6.596  0.4023 -1.3751 -0.3412
 5969TIP3   OH239465   1.418   3.500   0.268  0.2258  0.4197 -0.6125
 5969TIP3    H139466   1.394   3.452   0.189  0.4210 -1.8999  0.6302
 5969TIP3    H239467   1.506   3.469   0.289 -0.3158 -0.0516  1.1952
 5970TIP3   OH239468   0.843   5.131   8.100  0.0641 -0.1814 -0.6900
 5970TIP3    H139469   0.832   5.036   8.096 -0.2467 -0.1089 -2.2180
 5970TIP3    H239470   0.809   5.163   8.016  0.8710  1.2140 -0.5234
 5971TIP3   OH239471   4.089   5.006   1.925  0.3946  0.2990  0.1191
 5971TIP3    H139472   4.156   5.050   1.977  2.8848  0.3665 -2.8641
 5971TIP3    H239473   4.110   4.913   1.930  0.6653  0.3031 -0.6691
 5972TIP3   OH239474   4.687   2.021   7.322 -0.3862 -0.1061 -0.2525
 5972TIP3    H139475   4.596   2.051   7.315 -0.9662 -1.2294  1.8494
 5972TIP3    H239476   4.739   2.099   7.301 -1.8442  1.2971  1.0593
 5973TIP3   OH239477   4.988   3.451   7.197 -0.3131  0.0033 -0.0241
 5973TIP3    H139478   5.007   3.544   7.203 -2.3716  0.5209 -0.7195
 5973TIP3    H239479   4.944   3.431   7.280  0.3674 -0.4493  0.2430
 5974TIP3   OH239480   4.207   2.774   0.569  0.4184 -0.1901  0.1676
 5974TIP3    H139481   4.137   2.838   0.558 -0.7615 -1.5828 -0.7340
 5974TIP3    H239482   4.206   2.722   0.489  1.4998 -1.1799  0.7594
 5975TIP3   OH239483   2.414   0.590   0.217  0.2334 -0.2145  0.2423
 5975TIP3    H139484   2.473   0.565   0.147 -0.7672 -1.5399 -0.1538
 5975TIP3    H239485   2.384   0.678   0.193  1.2226  0.0409 -0.0848
 5976TIP3   OH239486   0.905   4.782   1.480 -0.1316 -0.6224 -0.0813
 5976TIP3    H139487   0.874   4.756   1.567 -0.0924  1.3551  0.6002
 5976TIP3    H239488   0.828   4.821   1.438  0.3228  0.3202 -0.0836
 5977TIP3   OH239489   3.605   4.915   6.766 -0.0385  0.1963  0.2906
 5977TIP3    H139490   3.657   4.866   6.830  1.4352  1.1936 -0.0938
 5977TIP3    H239491   3.605   4.861   6.688  0.0001 -0.0275  0.4462
 5978TIP3   OH239492   2.290   0.079   0.475 -0.1892  0.5855 -0.0853
 5978TIP3    H139493   2.385   0.078   0.477 -0.0950 -1.3546 -1.9899
 5978TIP3    H239494   2.265  -0.014   0.474 -2.1198  1.0469  0.5018
 5979TIP3   OH239495   5.250   0.939   8.784  0.2330  0.5193 -0.1020
 5979TIP3    H139496   5.288   0.986   8.709 -1.4671  0.4771 -1.0420
 5979TIP3    H239497   5.297   0.856   8.787  2.6862  1.8116  1.0407
 5980TIP3   OH239498   6.561   3.478   1.530  0.3171 -0.7470  0.3287
 5980TIP3    H139499   6.591   3.418   1.598  2.6293 -0.2087 -0.1527
 5980TIP3    H239500   6.580   3.565   1.565  0.2679 -0.4173 -0.4432
 5981TIP3   OH239501   4.333   0.831   0.654 -0.4749  0.0912 -0.4820
 5981TIP3    H139502   4.426   0.824   0.632 -0.4350 -1.5319  0.0708
 5981TIP3    H239503   4.332   0.833   0.750 -1.0002  0.5556 -0.4939
 5982TIP3   OH239504   3.148   6.501   8.438 -0.3358  0.2050 -0.0378
 5982TIP3    H139505   3.061   6.508   8.398  0.2914 -0.9808 -1.7201
 5982TIP3    H239506   3.135   6.531   8.528 -2.1797  1.3764 -0.6312
 5983TIP3   OH239507   5.409   0.418   1.598 -0.1534  0.2300 -0.1437
 5983TIP3    H139508   5.387   0.498   1.646 -0.3602  0.7224 -1.0458
 5983TIP3    H239509   5.434   0.356   1.666  0.8058  1.3037  0.5082
 5984TIP3   OH239510   6.613   4.219   2.481 -0.5190  0.1294  0.4768
 5984TIP3    H139511   6.589   4.132   2.447 -2.5940  0.9469 -0.3345
 5984TIP3    H239512   6.627   4.204   2.575  2.3070 -1.6104 -0.1044
 5985TIP3   OH239513   3.676   0.810   0.276  0.0635 -0.8208  0.0314
 5985TIP3    H139514   3.735   0.796   0.350  1.4535 -0.5488 -1.0003
 5985TIP3    H239515   3.690   0.901   0.250  1.0778 -1.4486 -1.7817
 5986TIP3   OH239516   3.578   2.068   7.004  0.2018  0.1159 -0.5723
 5986TIP3    H139517   3.619   2.028   6.927  0.3464 -2.0553  0.5789
 5986TIP3    H239518   3.504   2.012   7.025  0.2330  0.5942  0.9598
 5987TIP3   OH239519   5.228   1.500   8.403 -0.3554 -0.2176 -0.1721
 5987TIP3    H139520   5.240   1.590   8.434  2.2852 -0.6961  0.3925
 5987TIP3    H239521   5.256   1.503   8.311  0.0321 -0.5107 -0.0654
 5988TIP3   OH239522   0.328   5.629   0.835  0.2692  0.0807  0.4323
 5988TIP3    H139523   0.303   5.627   0.928  0.3312 -3.0040  0.4695
 5988TIP3    H239524   0.420   5.657   0.837  0.3698 -0.2607  1.3383
 5989TIP3   OH239525   4.742   5.862   0.929  0.4876 -0.0716  0.2086
 5989TIP3    H139526   4.673   5.804   0.899 -0.0564  0.0913  1.1062
 5989TIP3    H239527   4.819   5.837   0.877  0.5679 -2.3234  1.2760
 5990TIP3   OH239528   0.023   3.973   1.125  0.7296  0.2442 -0.2588
 5990TIP3    H139529   0.100   3.943   1.078 -0.3249 -0.3901 -1.6567
 5990TIP3    H239530   0.028   4.069   1.121  1.2680  0.2030 -0.6102
 5991TIP3   OH239531   6.007   6.230   2.088  0.4333  0.3764  0.1386
 5991TIP3    H139532   6.019   6.264   2.177  0.6516  0.7014 -0.0137
 5991TIP3    H239533   6.051   6.145   2.089 -1.0707 -0.4347  0.8398
 5992TIP3   OH239534   1.648   2.089   0.499 -0.0961  0.7260 -0.1763
 5992TIP3    H139535   1.671   2.005   0.540 -0.0141  1.5017  1.4428
 5992TIP3    H239536   1.555   2.082   0.481 -0.9932  1.5560  3.3730
 5993TIP3   OH239537   1.772   5.082   7.495 -0.0003 -0.5381  0.3892
 5993TIP3    H139538   1.723   5.100   7.575  1.0076  2.0987  0.5131
 5993TIP3    H239539   1.706   5.080   7.426 -0.4505  2.7463  0.5798
 5994TIP3   OH239540   0.262   5.469   1.793 -0.7129  0.6725  0.4887
 5994TIP3    H139541   0.250   5.500   1.703  1.1193 -1.3455 -0.5286
 5994TIP3    H239542   0.309   5.386   1.784 -0.6241  0.3288  3.3192
 5995TIP3   OH239543   1.580   4.108   6.217  0.1479  0.2227  0.0586
 5995TIP3    H139544   1.552   4.040   6.156  0.7985  0.4142 -0.4574
 5995TIP3    H239545   1.529   4.091   6.296 -0.3144 -0.3485 -0.3531
 5996TIP3   OH239546   4.288   5.403   8.476  0.3432 -0.7797 -0.2497
 5996TIP3    H139547   4.313   5.371   8.389 -0.5938 -2.0192 -0.0819
 5996TIP3    H239548   4.199   5.437   8.464 -0.1072 -1.7024  0.3902
 5997TIP3   OH239549   1.419   5.643   6.456 -0.1917  0.0647  0.1905
 5997TIP3    H139550   1.375   5.728   6.453  0.6481  0.5882  1.6339
 5997TIP3    H239551   1.381   5.594   6.383 -1.6263  1.2207  0.1059
 5998TIP3   OH239552   2.040   2.507   1.709  0.0368  0.5910 -0.0831
 5998TIP3    H139553   2.046   2.413   1.696  2.0124  0.7202 -0.4311
 5998TIP3    H239554   2.104   2.526   1.778 -1.2033  1.5613  0.8768
 5999TIP3   OH239555   1.579   4.478   0.712  0.3302  0.6269  0.4694
 5999TIP3    H139556   1.510   4.543   0.699  0.3237  1.0442  2.3600
 5999TIP3    H239557   1.624   4.474   0.627 -0.7365  1.8276 -0.1960
 6000TIP3   OH239558   4.184   1.011   0.075 -0.2088  0.0022  0.1367
 6000TIP3    H139559   4.226   0.975  -0.004  0.6759  0.2942  0.4671
 6000TIP3    H239560   4.253   1.062   0.118 -0.6515 -0.2387  1.1556
 6001TIP3   OH239561   0.045   0.520   8.083 -0.6804  0.0710 -0.3588
 6001TIP3    H139562   0.135   0.550   8.097 -0.8664  1.8187 -2.3836
 6001TIP3    H239563  -0.007   0.577   8.140 -0.8266  2.3206 -2.5587
 6002TIP3   OH239564   0.513   6.034   0.209 -0.1738 -0.4324 -0.4135
 6002TIP3    H139565   0.426   6.041   0.170 -0.9045  0.2197  1.2503
 6002TIP3    H239566   0.530   6.121   0.245  1.5944 -0.2617 -1.5078
 6003TIP3   OH239567   0.755   4.205   7.428 -0.2783  0.2938  0.1420
 6003TIP3    H139568   0.691   4.139   7.455 -1.7002  2.3661  2.3416
 6003TIP3    H239569   0.768   4.191   7.335 -1.2770 -2.3893  0.3345
 6004TIP3   OH239570   0.878   2.733   1.703  0.5744  0.1667 -0.3461
 6004TIP3    H139571   0.861   2.697   1.617  2.4287 -0.0095 -0.6662
 6004TIP3    H239572   0.855   2.826   1.695 -0.7467 -0.1592 -0.5497
 6005TIP3   OH239573   1.473   2.000   1.404  0.3164 -0.4352 -0.3578
 6005TIP3    H139574   1.386   2.039   1.395  1.0729  1.4812  0.2251
 6005TIP3    H239575   1.457   1.913   1.442 -1.3550 -0.3429 -0.7876
 6006TIP3   OH239576   0.366   6.173   6.752 -0.0626  0.7036 -0.3265
 6006TIP3    H139577   0.351   6.080   6.768 -0.3646  0.8481  0.2856
 6006TIP3    H239578   0.367   6.182   6.657  1.3534 -0.1391 -0.4221
 6007TIP3   OH239579   4.935   4.912   1.041 -0.2891  0.0129  0.5942
 6007TIP3    H139580   4.849   4.923   1.082 -0.0174 -0.0178  1.1777
 6007TIP3    H239581   4.917   4.860   0.962 -1.0921  1.6847 -0.3788
 6008TIP3   OH239582   0.974   0.495   0.430 -0.6524 -0.2212 -0.5546
 6008TIP3    H139583   1.057   0.498   0.382 -0.9820 -0.1433 -1.1242
 6008TIP3    H239584   0.984   0.420   0.489 -0.0785 -0.0570 -0.4374
 6009TIP3   OH239585   2.633   3.147   6.552 -0.2487 -0.4500  0.2633
 6009TIP3    H139586   2.545   3.110   6.551 -1.2264  1.5674  2.7397
 6009TIP3    H239587   2.627   3.226   6.499  0.5595 -1.1152 -0.8840
 6010TIP3   OH239588   2.660   1.883   0.738 -0.1744 -0.1613  0.5674
 6010TIP3    H139589   2.578   1.836   0.756  1.2809 -2.6895  1.0884
 6010TIP3    H239590   2.712   1.872   0.817  1.4436 -0.3971 -0.4839
 6011TIP3   OH239591   6.044   4.594   0.901  0.0571 -0.6157 -0.1257
 6011TIP3    H139592   6.094   4.594   0.983 -2.6402  0.8237  1.7010
 6011TIP3    H239593   5.976   4.660   0.915  0.5364  1.0554 -4.3029
 6012TIP3   OH239594   4.036   1.411   0.757  0.0574  0.3730  0.0849
 6012TIP3    H139595   4.119   1.420   0.805 -0.2418  1.3337  0.4494
 6012TIP3    H239596   3.975   1.468   0.804 -0.5426  0.4690 -0.7814
 6013TIP3   OH239597   6.372   4.833   2.629 -0.1389 -0.4825 -0.5645
 6013TIP3    H139598   6.417   4.761   2.674 -0.0087  0.3954  0.7640
 6013TIP3    H239599   6.324   4.791   2.558  2.7309 -1.4850 -2.0650
 6014TIP3   OH239600   4.954   4.829   0.773 -0.2274  0.3137  0.2307
 6014TIP3    H139601   4.980   4.747   0.732  3.3389  2.4877 -2.5566
 6014TIP3    H239602   4.908   4.877   0.704 -2.4634  0.6946  1.8722
 6015TIP3   OH239603   0.598   1.369   0.927 -0.5762 -0.2850 -0.1963
 6015TIP3    H139604   0.552   1.334   1.003  0.3011 -0.2869  0.3504
 6015TIP3    H239605   0.644   1.293   0.891 -0.9735 -0.2787 -0.7223
 6016TIP3   OH239606   1.453   6.437   0.427  0.5893  0.0287 -0.1908
 6016TIP3    H139607   1.507   6.387   0.488  1.8578  0.2544 -1.0865
 6016TIP3    H239608   1.368   6.394   0.430  1.2742 -1.3789  0.0356
 6017TIP3   OH239609   3.325   4.249   1.224  0.2895  0.6723  0.2718
 6017TIP3    H139610   3.321   4.340   1.194 -2.0959  0.0516 -1.5908
 6017TIP3    H239611   3.243   4.236   1.272  1.5313  0.0175  2.3624
 6018TIP3   OH239612   0.139   0.085   7.610  0.3323 -0.0139 -0.3376
 6018TIP3    H139613   0.109   0.065   7.699  1.6681 -0.9279 -0.0699
 6018TIP3    H239614   0.058   0.095   7.560 -0.4395  0.3145  0.9297
 6019TIP3   OH239615   1.023   4.198   1.346  0.1351 -0.0303 -0.3091
 6019TIP3    H139616   1.089   4.181   1.414 -1.9143  0.1238  1.8751
 6019TIP3    H239617   0.978   4.278   1.377 -0.4384  0.4397 -2.2364
 6020TIP3   OH239618   2.564   1.229   8.299 -0.1666  0.2437 -0.6012
 6020TIP3    H139619   2.514   1.184   8.367 -0.4450  1.6169  0.1401
 6020TIP3    H239620   2.653   1.192   8.306 -0.3455 -0.0777  0.0797
 6021TIP3   OH239621   3.534   2.492   6.964 -0.0610 -0.1495 -0.0453
 6021TIP3    H139622   3.594   2.425   6.932 -0.8580 -1.2847  0.7417
 6021TIP3    H239623   3.552   2.568   6.909  1.5973 -0.6644 -0.2861
 6022TIP3   OH239624   3.258   1.393   8.503 -0.3343 -0.4405  0.2526
 6022TIP3    H139625   3.322   1.416   8.570  0.5570 -0.2941 -0.6267
 6022TIP3    H239626   3.271   1.458   8.434 -1.5151 -0.3378  0.1042
 6023TIP3   OH239627   3.168   1.775   2.076 -0.0228  0.0417  0.2485
 6023TIP3    H139628   3.104   1.736   2.136 -0.1363  1.5933  1.1724
 6023TIP3    H239629   3.231   1.704   2.061 -1.5422 -1.2971 -0.1377
 6024TIP3   OH239630   3.367   4.074   7.304  0.3765 -0.6885  0.2194
 6024TIP3    H139631   3.461   4.093   7.296 -0.0532  1.0955 -1.1832
 6024TIP3    H239632   3.324   4.147   7.260 -1.6903 -1.5225  0.7547
 6025TIP3   OH239633   4.870   1.487   0.270  0.1295  0.5192 -0.1409
 6025TIP3    H139634   4.960   1.463   0.248  0.0431 -0.2340  0.2816
 6025TIP3    H239635   4.866   1.479   0.365 -0.0864  1.6467 -0.0407
 6026TIP3   OH239636   3.396   1.337   1.320 -0.7183  0.2912 -0.2795
 6026TIP3    H139637   3.445   1.332   1.403 -0.4543  0.9356 -0.3905
 6026TIP3    H239638   3.361   1.426   1.319 -0.4723  0.3803 -1.0014
 6027TIP3   OH239639   5.991   1.870   0.243  0.3916  0.6447  0.3911
 6027TIP3    H139640   6.049   1.824   0.183  0.9538  0.7018  0.8805
 6027TIP3    H239641   6.032   1.859   0.329 -0.5845  0.2520  0.8313
 6028TIP3   OH239642   3.340   2.476   8.111 -0.0975  0.1683 -0.4662
 6028TIP3    H139643   3.372   2.390   8.085 -0.8127 -0.5827  0.9948
 6028TIP3    H239644   3.389   2.537   8.057 -0.9778 -1.2093 -2.9710
 6029TIP3   OH239645   3.484   2.264   7.978  0.3933 -0.3321 -0.1822
 6029TIP3    H139646   3.486   2.297   7.888 -0.4428  1.6531  0.4592
 6029TIP3    H239647   3.569   2.288   8.014 -0.1756  1.1630  0.2518
 6030TIP3   OH239648   1.013   4.093   8.283 -0.7227 -0.1130 -0.1980
 6030TIP3    H139649   0.995   4.044   8.203 -0.7643 -0.0290 -0.2409
 6030TIP3    H239650   1.054   4.030   8.342 -1.1376 -0.2984 -0.1081
 6031TIP3   OH239651   1.154   5.609   8.347  0.2556 -0.2411  0.2110
 6031TIP3    H139652   1.108   5.546   8.290 -0.2622 -0.1746  0.5502
 6031TIP3    H239653   1.124   5.588   8.435  0.0935  0.4688  0.3311
 6032TIP3   OH239654   1.439   0.560   7.192  0.0362 -0.4631 -0.0755
 6032TIP3    H139655   1.492   0.529   7.119 -0.1405  0.5777 -0.6576
 6032TIP3    H239656   1.353   0.521   7.177 -0.7707  1.8262 -1.9319
 6033TIP3   OH239657   5.841   6.316   0.742  0.3339 -0.1248 -0.2367
 6033TIP3    H139658   5.897   6.326   0.818  0.1737  0.7923 -0.2258
 6033TIP3    H239659   5.773   6.383   0.753 -0.4384 -0.8425 -0.5297
 6034TIP3   OH239660   3.781   1.071   0.237 -0.0592 -0.3164  0.2252
 6034TIP3    H139661   3.856   1.011   0.232 -0.7910 -1.2122 -0.2971
 6034TIP3    H239662   3.821   1.158   0.243  1.0334 -0.8860  1.7565
 6035TIP3   OH239663   0.467   3.729   1.519 -0.4526  0.0551 -0.2351
 6035TIP3    H139664   0.481   3.635   1.517  1.4255  0.2981 -0.1729
 6035TIP3    H239665   0.514   3.759   1.596  0.4203  1.2224 -1.1712
 6036TIP3   OH239666   6.287   4.854   1.339 -0.2366  0.5177 -0.3414
 6036TIP3    H139667   6.307   4.837   1.431  1.3073  0.5935 -0.6316
 6036TIP3    H239668   6.276   4.949   1.334  1.0096  0.6701 -0.4496
 6037TIP3   OH239669   3.867   2.222   8.475 -0.7845 -0.4553  0.0362
 6037TIP3    H139670   3.798   2.161   8.450 -0.7879 -0.4457  0.0213
 6037TIP3    H239671   3.843   2.304   8.432  0.3063 -0.9751 -1.7049
 6038TIP3   OH239672   3.477   4.919   0.648  0.2552 -0.7040 -0.0084
 6038TIP3    H139673   3.531   4.841   0.634  2.0090  0.7408 -1.8961
 6038TIP3    H239674   3.417   4.920   0.574  0.9654  0.2470 -0.6028
 6039TIP3   OH239675   1.740   0.251   1.964  0.0829 -0.0377  0.1982
 6039TIP3    H139676   1.651   0.224   1.988  0.0508 -1.1305 -1.0675
 6039TIP3    H239677   1.796   0.207   2.028 -0.2018 -0.3336  0.2475
 6040TIP3   OH239678   0.512   0.757   7.614 -0.6402  0.1614  0.3819
 6040TIP3    H139679   0.604   0.772   7.632 -0.0605 -1.8963 -0.5327
 6040TIP3    H239680   0.495   0.669   7.649 -1.6661 -0.3525 -1.2587
 6041TIP3   OH239681   1.577   1.888   8.784 -0.6116 -0.4913 -0.2830
 6041TIP3    H139682   1.500   1.926   8.742 -0.2175  0.9720  0.2926
 6041TIP3    H239683   1.647   1.951   8.769  0.7321 -2.1541 -1.5037
 6042TIP3   OH239684   0.703   4.725   7.977  0.4515 -0.5689  0.1032
 6042TIP3    H139685   0.713   4.631   7.964  0.5915 -0.4317 -0.8318
 6042TIP3    H239686   0.748   4.765   7.903  0.4427  0.2398  0.5194
 6043TIP3   OH239687   5.660   6.569   1.357  0.4555  0.0587  0.4489
 6043TIP3    H139688   5.589   6.540   1.414 -0.8321 -1.0909 -1.6196
 6043TIP3    H239689   5.690   6.651   1.396 -1.1822 -0.0428  2.0565
 6044TIP3   OH239690   1.651   0.566   0.563 -0.1782 -0.3574 -0.5870
 6044TIP3    H139691   1.685   0.550   0.651 -1.8631 -0.6452  0.0458
 6044TIP3    H239692   1.631   0.660   0.562 -1.7882 -0.6775 -0.0400
 6045TIP3   OH239693   3.422   0.129   7.577  0.6455 -0.0404  0.1362
 6045TIP3    H139694   3.388   0.218   7.568 -0.3059 -0.4313 -0.2716
 6045TIP3    H239695   3.481   0.133   7.652 -2.3220  0.1188  2.6365
 6046TIP3   OH239696   0.016   0.632   0.159 -0.4969 -0.3459  0.6332
 6046TIP3    H139697  -0.078   0.617   0.154 -0.5208 -0.3780  1.0958
 6046TIP3    H239698   0.031   0.663   0.248 -0.2934  1.3435  0.0392
 6047TIP3   OH239699   2.980   3.537   7.337  0.0370 -0.2485 -0.6094
 6047TIP3    H139700   2.887   3.516   7.333  0.2054 -0.9908 -0.8336
 6047TIP3    H239701   3.023   3.461   7.299  0.7867 -0.2956  0.3017
 6048TIP3   OH239702   6.154   4.767   7.799 -0.0753 -0.2474 -0.6293
 6048TIP3    H139703   6.223   4.704   7.774  1.5047  1.4895 -0.8614
 6048TIP3    H239704   6.155   4.832   7.729 -3.7969 -1.4426 -2.0306
 6049TIP3   OH239705   3.372   3.623   2.074 -0.3467  0.2555  0.7833
 6049TIP3    H139706   3.448   3.625   2.133  0.3748  1.8216 -0.1094
 6049TIP3    H239707   3.385   3.545   2.021 -0.6524 -0.8047  2.2020
 6050TIP3   OH239708   5.002   3.975   0.949  0.0522 -0.5283 -0.4563
 6050TIP3    H139709   4.963   3.926   1.021  0.0454 -0.1432 -0.1992
 6050TIP3    H239710   5.095   3.977   0.969 -0.1169  0.7691  0.2635
 6051TIP3   OH239711   2.696   1.517   1.090  0.4781  0.1385 -0.6472
 6051TIP3    H139712   2.701   1.422   1.106 -0.5439  0.4091  1.8094
 6051TIP3    H239713   2.676   1.554   1.176  0.9814  2.6245 -1.5320
 6052TIP3   OH239714   1.458   2.464   8.533  0.4358 -0.1895  0.2408
 6052TIP3    H139715   1.377   2.476   8.483  0.4272 -0.6242  0.1434
 6052TIP3    H239716   1.526   2.450   8.466  0.9116  1.8027  0.2379
 6053TIP3   OH239717   5.228   6.360   6.634 -0.1878 -0.4627  0.5125
 6053TIP3    H139718   5.156   6.382   6.574  0.7841  0.5899 -0.3212
 6053TIP3    H239719   5.221   6.265   6.646  0.1921 -0.9107 -2.1467
 6054TIP3   OH239720   5.781   4.279   8.235 -0.4501  0.3751 -0.0721
 6054TIP3    H139721   5.722   4.287   8.310 -1.3258 -1.7520 -0.4551
 6054TIP3    H239722   5.745   4.339   8.170 -1.1482  0.4160  0.3409
 6055TIP3   OH239723   3.107   6.297   1.413  0.2803 -0.1194 -0.4147
 6055TIP3    H139724   3.056   6.221   1.385 -1.2570 -0.4793  2.9190
 6055TIP3    H239725   3.044   6.369   1.412  1.2170  0.7299 -1.5603
 6056TIP3   OH239726   5.175   5.128   7.393  0.4965  0.4597 -0.2945
 6056TIP3    H139727   5.095   5.077   7.377  0.7591  0.0107 -0.1671
 6056TIP3    H239728   5.167   5.203   7.333  0.8298 -0.5134 -1.6174
 6057TIP3   OH239729   5.987   0.742   7.279  0.6254 -0.0525  0.1717
 6057TIP3    H139730   6.056   0.681   7.251 -0.7188 -0.8426 -1.5592
 6057TIP3    H239731   5.960   0.786   7.199 -1.0762  0.0372  0.7695
 6058TIP3   OH239732   0.906   1.171   8.625 -0.3320 -0.1825  0.0255
 6058TIP3    H139733   1.000   1.177   8.641 -0.0862  0.0005 -1.3373
 6058TIP3    H239734   0.885   1.251   8.577 -0.7184 -1.2722 -1.7040
 6059TIP3   OH239735   3.164   1.620   7.378 -0.1158  0.4976  0.0826
 6059TIP3    H139736   3.255   1.646   7.367 -0.1423  0.0430 -1.3988
 6059TIP3    H239737   3.114   1.699   7.357 -0.0723  1.0862  2.0191
 6060TIP3   OH239738   4.424   5.850   7.309 -0.8026 -0.0612  0.2279
 6060TIP3    H139739   4.487   5.920   7.287 -2.2520  1.4947  0.8037
 6060TIP3    H239740   4.440   5.783   7.243  0.6809  0.7918 -0.3403
 6061TIP3   OH239741   5.542   3.792   8.075  0.1959 -0.1104 -0.3299
 6061TIP3    H139742   5.577   3.821   7.991 -1.6631  1.7049 -0.5587
 6061TIP3    H239743   5.521   3.700   8.062  0.6963 -0.0712 -1.5687
 6062TIP3   OH239744   5.657   3.202   1.709 -0.0999 -0.0674  0.2415
 6062TIP3    H139745   5.682   3.219   1.618  0.9658 -2.1217  0.1004
 6062TIP3    H239746   5.718   3.255   1.761  1.2640 -1.1293 -0.2140
 6063TIP3   OH239747   6.289   5.582   8.539  0.2718  0.2372 -0.1685
 6063TIP3    H139748   6.260   5.663   8.581  1.3152  1.3179 -1.4132
 6063TIP3    H239749   6.209   5.533   8.522 -0.5293  1.7027 -0.7444
 6064TIP3   OH239750   4.033   4.109   0.548 -0.1011  0.7604 -0.4003
 6064TIP3    H139751   4.111   4.104   0.492  0.3595  2.0008  0.0933
 6064TIP3    H239752   3.998   4.196   0.531 -0.8338  0.5642  0.1113
 6065TIP3   OH239753   6.800   2.450   6.874 -0.0836 -0.2752 -0.2905
 6065TIP3    H139754   6.793   2.430   6.780  2.1312  1.4713 -0.9220
 6065TIP3    H239755   6.891   2.478   6.886 -1.1065  2.7439  1.7060
 6066TIP3   OH239756   2.649   4.045   1.691  0.2478  0.1824 -1.0711
 6066TIP3    H139757   2.735   4.006   1.678  0.1688 -0.0675 -0.8679
 6066TIP3    H239758   2.623   4.077   1.605  0.1453 -0.5685 -1.3271
 6067TIP3   OH239759   6.585   3.165   8.219  0.1346  0.0667  0.3994
 6067TIP3    H139760   6.493   3.181   8.238 -0.0000 -0.4036  0.1537
 6067TIP3    H239761   6.588   3.145   8.126  0.3749 -0.6811  0.5581
 6068TIP3   OH239762   3.912   1.636   7.127  0.0146  0.5054  0.5628
 6068TIP3    H139763   3.885   1.723   7.154  0.5508  0.4078  1.4439
 6068TIP3    H239764   3.918   1.641   7.031 -0.1493  1.3703  0.5942
 6069TIP3   OH239765   1.741   4.727   0.311 -0.2974  0.5175  0.3365
 6069TIP3    H139766   1.720   4.779   0.389 -1.8009 -0.6311  0.7427
 6069TIP3    H239767   1.796   4.784   0.258  0.3104  1.5281  1.9917
 6070TIP3   OH239768   5.714   6.617   0.704 -0.1389  0.1778  0.7661
 6070TIP3    H139769   5.632   6.584   0.666  0.7474 -0.1363 -1.0026
 6070TIP3    H239770   5.705   6.712   0.702  0.1489  0.2154 -1.0196
 6071TIP3   OH239771   5.039   5.594   0.546 -0.0530 -0.3742  0.0815
 6071TIP3    H139772   5.052   5.677   0.500 -1.9446  0.7861  1.5126
 6071TIP3    H239773   5.097   5.599   0.622 -1.6879  0.6435  1.3270
 6072TIP3   OH239774   0.279   5.584   2.228  0.1277  0.1320  0.0424
 6072TIP3    H139775   0.374   5.588   2.238  0.0222 -0.8500  1.9492
 6072TIP3    H239776   0.247   5.664   2.270  0.1043  0.5551 -0.7651
 6073TIP3   OH239777   3.142   4.105   6.577 -0.0126  0.2792  0.2686
 6073TIP3    H139778   3.167   4.197   6.583  1.7992 -0.2419  1.3796
 6073TIP3    H239779   3.225   4.057   6.586 -0.3646 -1.4408 -3.4761
 6074TIP3   OH239780   0.354   0.629   8.501 -1.1446  0.1147 -0.1581
 6074TIP3    H139781   0.395   0.651   8.418  2.2347 -0.3680  1.1815
 6074TIP3    H239782   0.386   0.695   8.562 -3.3781  0.3537  0.8633
 6075TIP3   OH239783   4.407   2.175   7.977 -0.0560 -0.9274 -0.1170
 6075TIP3    H139784   4.392   2.238   8.047 -0.4576 -0.9091 -0.2148
 6075TIP3    H239785   4.502   2.166   7.972  0.0817  0.5444 -0.8626
 6076TIP3   OH239786   2.833   6.281   7.278 -0.4052 -0.3176  0.2725
 6076TIP3    H139787   2.741   6.295   7.299  0.1259  0.8859  2.0765
 6076TIP3    H239788   2.833   6.240   7.191 -2.5756  1.6036 -0.7373
 6077TIP3   OH239789   6.457   6.361   0.692  0.1920 -0.0664 -0.7476
 6077TIP3    H139790   6.466   6.297   0.621  2.0247  0.4633 -1.0367
 6077TIP3    H239791   6.472   6.446   0.651 -0.4971  0.4174 -0.0367
 6078TIP3   OH239792   1.620   2.880   6.150 -0.5324 -0.0509  0.4040
 6078TIP3    H139793   1.614   2.971   6.178  4.0250  0.3212  0.9479
 6078TIP3    H239794   1.626   2.884   6.054 -0.2678  0.2608  0.4333
 6079TIP3   OH239795   0.412   0.477   1.517 -0.3896 -0.1274  0.5733
 6079TIP3    H139796   0.365   0.463   1.435  1.3454 -0.1800 -0.4591
 6079TIP3    H239797   0.440   0.389   1.543 -0.3348 -0.0252  0.8596
 6080TIP3   OH239798   5.753   6.358   6.894  0.0746  0.2613 -0.0230
 6080TIP3    H139799   5.692   6.284   6.890 -0.3283  0.6543 -1.4562
 6080TIP3    H239800   5.789   6.354   6.983 -1.1614 -0.6713  0.4579
 6081TIP3   OH239801   2.581   2.987   6.840 -0.0241 -0.1313  0.1569
 6081TIP3    H139802   2.566   3.080   6.858 -0.0567 -0.1852  0.4130
 6081TIP3    H239803   2.668   2.984   6.800 -0.1386  0.0385 -0.1117
 6082TIP3   OH239804   2.958   0.342   1.384 -0.7356  0.3527  0.0951
 6082TIP3    H139805   2.909   0.402   1.327 -1.7089 -0.7094 -0.2197
 6082TIP3    H239806   3.041   0.329   1.338 -1.2345  0.0602 -0.7456
 6083TIP3   OH239807   6.102   2.480   2.987  0.3317 -0.1118 -0.3162
 6083TIP3    H139808   6.153   2.406   2.956  2.1765  0.8572  0.2451
 6083TIP3    H239809   6.144   2.557   2.948 -2.5252  0.6260 -2.2325
 6084TIP3   OH239810   4.628   5.345   7.798 -0.0806 -0.0316 -0.0605
 6084TIP3    H139811   4.543   5.314   7.830  0.4664 -1.4385  0.0852
 6084TIP3    H239812   4.679   5.360   7.878 -0.3883  1.4898 -0.1162
 6085TIP3   OH239813   1.141   3.116   6.876  0.0577  0.7310 -0.7965
 6085TIP3    H139814   1.113   3.026   6.889  2.7947 -0.4717 -2.4351
 6085TIP3    H239815   1.062   3.168   6.892 -1.6496 -1.9232  0.0377
 6086TIP3   OH239816   3.162   5.829   7.529 -0.0786  0.1328  0.7196
 6086TIP3    H139817   3.202   5.804   7.612  0.3732 -0.7552  0.2510
 6086TIP3    H239818   3.073   5.855   7.552 -0.4682 -1.5739  1.3190
 6087TIP3   OH239819   5.365   2.712   6.577 -0.5080 -0.4031 -0.1248
 6087TIP3    H139820   5.385   2.802   6.604  1.1268  0.0087 -2.3956
 6087TIP3    H239821   5.289   2.720   6.520 -2.8118 -1.0463  2.6303
 6088TIP3   OH239822   4.712   1.933   0.571  0.1643  0.2561 -0.4132
 6088TIP3    H139823   4.771   1.859   0.583  1.6578  1.2666 -1.2703
 6088TIP3    H239824   4.628   1.893   0.546  0.8746 -1.1381 -0.6551
 6089TIP3   OH239825   1.594   2.638   7.415  0.2286 -0.0544  0.2758
 6089TIP3    H139826   1.600   2.549   7.381  0.8002 -0.0770  0.4215
 6089TIP3    H239827   1.658   2.688   7.364 -0.3645  0.3637 -0.0735
 6090TIP3   OH239828   1.952   4.149   0.561  0.5695  0.2151 -0.0307
 6090TIP3    H139829   1.880   4.087   0.552  0.5311  0.2023  0.3628
 6090TIP3    H239830   2.015   4.106   0.618  1.1671 -0.0170 -0.8548
 6091TIP3   OH239831   1.482   1.573   1.327 -0.5635  0.0020 -0.1122
 6091TIP3    H139832   1.482   1.610   1.416  1.8161 -0.8744  0.3107
 6091TIP3    H239833   1.437   1.639   1.274 -1.6734  0.7310  1.6429
 6092TIP3   OH239834   3.319   4.958   0.433  0.2693 -0.0872 -0.3321
 6092TIP3    H139835   3.233   4.958   0.392  0.9004 -0.2353 -1.7322
 6092TIP3    H239836   3.380   4.972   0.360  1.3075  2.6378  0.9233
 6093TIP3   OH239837   5.118   4.707   6.252 -0.1640 -0.3617  0.4280
 6093TIP3    H139838   5.139   4.642   6.185  1.9822 -0.0371  0.7099
 6093TIP3    H239839   5.133   4.661   6.335 -0.8326 -0.1649  0.6628
 6094TIP3   OH239840   6.206   1.369   1.910 -0.0446  0.8298  0.1218
 6094TIP3    H139841   6.290   1.328   1.889  0.1553  0.9656  0.6403
 6094TIP3    H239842   6.229   1.450   1.955 -0.4525  0.9881  0.0513
 6095TIP3   OH239843   2.662   0.403   7.999 -0.2775 -0.0206  0.3868
 6095TIP3    H139844   2.736   0.370   7.947 -0.2766 -1.0862  1.0400
 6095TIP3    H239845   2.703   0.446   8.074 -0.3044 -0.6462  0.7691
 6096TIP3   OH239846   6.292   5.456   7.761 -0.7772 -0.4256 -0.0748
 6096TIP3    H139847   6.335   5.414   7.687  0.7082  0.1305  0.4321
 6096TIP3    H239848   6.358   5.457   7.830 -2.3310 -1.5330  1.5289
 6097TIP3   OH239849   0.063   5.542   8.788 -0.1752  0.1953 -0.0984
 6097TIP3    H139850  -0.028   5.551   8.759 -0.2221 -1.1343 -0.4155
 6097TIP3    H239851   0.083   5.450   8.774  0.4003 -0.1240  2.4040
 6098TIP3   OH239852   1.091   3.392   0.329  0.2144 -0.5799 -0.1603
 6098TIP3    H139853   1.086   3.469   0.385 -0.4241 -1.0444  0.4348
 6098TIP3    H239854   1.155   3.335   0.372 -0.1174 -0.8457 -0.0190
 6099TIP3   OH239855   1.767   2.994   8.312 -0.3655 -0.2139  0.1970
 6099TIP3    H139856   1.779   3.082   8.349 -0.9494  0.1309 -0.4066
 6099TIP3    H239857   1.694   3.004   8.251 -0.5085 -1.1484  0.2055
 6100TIP3   OH239858   2.963   2.264   7.040  0.3145  0.0023 -0.0751
 6100TIP3    H139859   3.049   2.264   6.997 -0.1097  1.4460 -0.9928
 6100TIP3    H239860   2.938   2.356   7.043 -1.7408 -0.4926 -0.9119
 6101TIP3   OH239861   0.093   0.943   2.359 -0.1847 -0.0060  0.4224
 6101TIP3    H139862   0.045   1.015   2.399 -1.4207 -0.3305 -0.4087
 6101TIP3    H239863   0.059   0.865   2.403 -0.4832 -0.2450 -0.2257
 6102TIP3   OH239864   0.661   0.481   7.528 -0.2460 -0.5424  0.5522
 6102TIP3    H139865   0.733   0.419   7.534 -0.5223 -0.8164  1.2893
 6102TIP3    H239866   0.639   0.485   7.435  1.4519  0.4275  0.1421
 6103TIP3   OH239867   2.363   1.985   0.876  0.4728 -0.3455 -0.1367
 6103TIP3    H139868   2.335   2.038   0.802 -2.9676 -1.0926  0.4898
 6103TIP3    H239869   2.366   1.895   0.841  1.2947 -0.4150  0.0731
 6104TIP3   OH239870   2.027   2.200   7.795 -0.2404 -0.1136  0.5881
 6104TIP3    H139871   1.949   2.255   7.791 -0.0697  0.2272  1.6377
 6104TIP3    H239872   2.077   2.234   7.868  1.4456  0.3469 -0.7240
 6105TIP3   OH239873   3.402   2.600   0.750 -0.3848 -0.0710  0.0279
 6105TIP3    H139874   3.441   2.579   0.835  0.7871  1.1523 -0.1582
 6105TIP3    H239875   3.473   2.586   0.687 -0.6481  0.8602 -0.5047
 6106TIP3   OH239876   2.893   6.632   0.427  0.1641 -0.2227  0.2277
 6106TIP3    H139877   2.963   6.674   0.477  0.0146  0.7035 -0.3054
 6106TIP3    H239878   2.885   6.545   0.465  0.5371  0.2049  1.3337
 6107TIP3   OH239879   3.389   1.349   6.834  0.9183 -0.2188  0.4310
 6107TIP3    H139880   3.424   1.269   6.795 -0.5090 -0.5306 -0.3044
 6107TIP3    H239881   3.386   1.412   6.762 -1.8275 -0.8261 -0.1082
 6108TIP3   OH239882   3.234   3.864   0.399 -0.3052 -0.0840 -0.0065
 6108TIP3    H139883   3.150   3.908   0.388 -1.0378 -1.5185 -0.3267
 6108TIP3    H239884   3.216   3.791   0.458  0.7058 -0.4539 -0.1288
 6109TIP3   OH239885   5.812   4.106   1.027 -0.3125 -0.5539  0.2580
 6109TIP3    H139886   5.850   4.142   1.107  0.9141 -1.1969 -0.0040
 6109TIP3    H239887   5.795   4.182   0.972  0.1599 -0.2050  0.5821
 6110TIP3   OH239888   3.926   2.460   0.039 -0.5191 -0.0205 -0.4737
 6110TIP3    H139889   4.021   2.463   0.027 -0.5235 -1.0425 -0.8769
 6110TIP3    H239890   3.905   2.543   0.080  0.8413 -0.6360  1.6475
 6111TIP3   OH239891   5.414   0.044   7.321  0.2847  0.2000  0.4267
 6111TIP3    H139892   5.385  -0.037   7.279 -0.4043  0.5828  0.1484
 6111TIP3    H239893   5.482   0.079   7.264 -0.8426  0.8657 -0.5576
 6112TIP3   OH239894   1.126   1.889   8.483  0.2351  0.4565  0.2533
 6112TIP3    H139895   1.206   1.898   8.534 -0.4073 -0.1981  1.4477
 6112TIP3    H239896   1.116   1.972   8.437  1.6467  0.4977 -0.0108
 6113TIP3   OH239897   4.827   6.372   0.871 -0.3046 -0.1344 -0.2626
 6113TIP3    H139898   4.894   6.411   0.815  2.4007  1.0845  3.3675
 6113TIP3    H239899   4.863   6.287   0.895 -1.0972 -0.3863  0.0477
 6114TIP3   OH239900   0.895   0.508   6.733  0.8518  0.0880  0.3345
 6114TIP3    H139901   0.920   0.575   6.796  1.1741 -0.1292  0.4413
 6114TIP3    H239902   0.885   0.556   6.650  2.3608  0.0928  0.1152
 6115TIP3   OH239903   2.235   4.685   7.279 -0.3488  0.0788  0.2852
 6115TIP3    H139904   2.283   4.615   7.322 -0.5104  0.5066  1.1868
 6115TIP3    H239905   2.281   4.698   7.196  0.9334  0.2807  0.9962
 6116TIP3   OH239906   2.902   3.909   7.332 -0.3761 -0.2078  0.3943
 6116TIP3    H139907   2.987   3.918   7.290 -1.3520  0.3183 -1.5817
 6116TIP3    H239908   2.916   3.844   7.401  2.0287  1.2556  1.3905
 6117TIP3   OH239909   0.167   5.041   8.120 -0.3146 -0.3123  0.1855
 6117TIP3    H139910   0.153   5.028   8.214  1.8038  0.1208  0.6067
 6117TIP3    H239911   0.156   4.954   8.082 -4.2539 -0.0632  0.2769
 6118TIP3   OH239912   2.803   4.965   0.612  0.3107 -0.0216  0.3402
 6118TIP3    H139913   2.856   5.034   0.653 -0.9618 -0.0269  2.1103
 6118TIP3    H239914   2.739   5.013   0.559  0.9151  0.0604 -0.3156
 6119TIP3   OH239915   4.208   1.545   0.937 -1.3450  0.1509  0.1662
 6119TIP3    H139916   4.273   1.562   1.005  0.0741  0.8917 -1.2925
 6119TIP3    H239917   4.210   1.623   0.882 -0.4174 -1.4602 -2.2672
 6120TIP3   OH239918   6.088   2.484   1.323 -0.2464 -0.6593  0.0375
 6120TIP3    H139919   5.997   2.496   1.297 -0.4880 -0.5508  0.8892
 6120TIP3    H239920   6.136   2.549   1.273 -0.7496 -0.1611  0.1926
 6121TIP3   OH239921   4.717   5.677   0.545 -0.8480 -0.4736 -0.4994
 6121TIP3    H139922   4.696   5.610   0.611 -2.9582  0.7716  0.1832
 6121TIP3    H239923   4.672   5.647   0.466 -0.4706 -0.6430 -0.6543
 6122TIP3   OH239924   1.920   1.547   8.049 -0.7408 -0.0272 -0.4188
 6122TIP3    H139925   2.007   1.587   8.061 -0.1911 -1.1602 -0.5114
 6122TIP3    H239926   1.859   1.618   8.068  0.1765  0.3363  1.4294
 6123TIP3   OH239927   5.738   2.943   1.565 -0.2930 -0.2010 -0.0226
 6123TIP3    H139928   5.709   3.020   1.518  0.9877  0.5564  0.3763
 6123TIP3    H239929   5.829   2.930   1.538 -0.0846 -0.7941  0.8843
 6124TIP3   OH239930   1.372   2.801   6.764 -0.2681  0.3450 -0.3057
 6124TIP3    H139931   1.380   2.770   6.674  0.8128 -3.6299  0.9883
 6124TIP3    H239932   1.455   2.846   6.781 -0.8578  1.9848 -1.4766
 6125TIP3   OH239933   2.266   4.532   8.548  0.3209  0.0604  0.0455
 6125TIP3    H139934   2.232   4.491   8.468  0.7690  0.0261 -0.1274
 6125TIP3    H239935   2.206   4.502   8.617 -1.3683  1.7968 -0.5893
 6126TIP3   OH239936   5.957   3.538   1.534 -0.1849  0.7067 -0.3417
 6126TIP3    H139937   5.984   3.553   1.625  1.2950  1.6956 -0.9158
 6126TIP3    H239938   5.879   3.591   1.523  1.0676  2.6389 -0.3400
 6127TIP3   OH239939   0.989   3.839   0.280  0.0494 -0.0176  0.2092
 6127TIP3    H139940   0.914   3.824   0.338  1.4846 -0.0796  2.1712
 6127TIP3    H239941   0.975   3.780   0.206 -1.6677 -0.2456  0.6789
 6128TIP3   OH239942   1.555   2.473   1.329  0.0216 -0.1258 -0.6737
 6128TIP3    H139943   1.564   2.434   1.242 -2.0041  0.6111 -1.2928
 6128TIP3    H239944   1.484   2.537   1.318 -0.4388 -0.1798  1.5830
 6129TIP3   OH239945   2.883   0.065   1.373  0.0601  0.6069  0.4526
 6129TIP3    H139946   2.975   0.065   1.399  0.5790  1.3267 -1.2451
 6129TIP3    H239947   2.859   0.157   1.367 -0.2382  0.4649 -0.8115
 6130TIP3   OH239948   3.898   4.038   2.254 -0.2111 -0.0600 -0.0459
 6130TIP3    H139949   3.814   4.082   2.237  1.3022  2.0762 -3.0326
 6130TIP3    H239950   3.896   3.960   2.198  0.1242  0.5186 -0.8860
 6131TIP3   OH239951   5.453   6.490   1.514  0.0701 -0.6138  0.4413
 6131TIP3    H139952   5.408   6.524   1.591  0.4205 -1.6068  1.1086
 6131TIP3    H239953   5.384   6.475   1.449 -0.7390 -2.8301  1.7052
 6132TIP3   OH239954   2.879   1.890   8.323 -0.6717 -0.0836  0.0320
 6132TIP3    H139955   2.846   1.812   8.278 -1.3215  1.0047 -1.4519
 6132TIP3    H239956   2.907   1.948   8.253  0.1011  0.9090  1.1278
 6133TIP3   OH239957   6.274   5.594   7.097 -0.9214 -0.1179 -0.3319
 6133TIP3    H139958   6.236   5.680   7.114 -0.1356  0.2043 -0.1765
 6133TIP3    H239959   6.359   5.613   7.057 -0.7604 -0.8224 -0.3320
 6134TIP3   OH239960   4.080   1.780   8.496  0.0993 -0.1854 -0.3492
 6134TIP3    H139961   4.067   1.870   8.524  1.0414 -0.1028 -0.1442
 6134TIP3    H239962   4.159   1.751   8.542  0.6457 -0.6397 -1.5295
 6135TIP3   OH239963   3.433   5.894   1.153  0.1119 -0.2483 -0.5023
 6135TIP3    H139964   3.490   5.907   1.077  0.3609 -1.9492 -0.6523
 6135TIP3    H239965   3.384   5.814   1.133 -1.2448  0.3438  0.2929
 6136TIP3   OH239966   4.111   3.438   7.857 -0.3784  0.4725  0.9404
 6136TIP3    H139967   4.165   3.403   7.927 -1.5247 -0.8957  1.1746
 6136TIP3    H239968   4.130   3.532   7.856  1.9823  0.0362  0.9804
 6137TIP3   OH239969   3.192   3.324   7.138 -0.1949  0.6219  0.3753
 6137TIP3    H139970   3.178   3.294   7.227  0.4441  0.0763  0.2986
 6137TIP3    H239971   3.286   3.317   7.124 -0.3938 -0.3165 -0.6850
 6138TIP3   OH239972   5.896   0.966   8.664 -0.0487 -0.2321 -0.4094
 6138TIP3    H139973   5.850   0.958   8.580  1.5751  1.8924 -1.5802
 6138TIP3    H239974   5.909   1.060   8.676  0.3414 -0.5245  1.9376
 6139TIP3   OH239975   4.027   2.531   7.565 -0.6410 -0.5555 -0.2629
 6139TIP3    H139976   4.107   2.584   7.567 -0.8174 -0.2313  2.5726
 6139TIP3    H239977   3.975   2.568   7.493 -1.1013  3.8138  1.9544
 6140TIP3   OH239978   2.751   3.437   0.976 -0.3813  0.0026  0.1414
 6140TIP3    H139979   2.673   3.384   0.993 -0.4570  0.1894  0.3827
 6140TIP3    H239980   2.737   3.517   1.026  0.1188 -0.0991  0.4507
 6141TIP3   OH239981   0.721   2.019   0.392  0.4618  0.8051  0.4812
 6141TIP3    H139982   0.711   1.987   0.482  0.6354  3.1899  1.4145
 6141TIP3    H239983   0.811   1.997   0.368  0.5317  0.4815  1.0256
 6142TIP3   OH239984   1.554   5.150   7.744  0.6816  0.0349 -0.5645
 6142TIP3    H139985   1.469   5.166   7.785  0.2087  1.9548 -2.1189
 6142TIP3    H239986   1.548   5.060   7.710  0.2989 -0.7957  1.5637
 6143TIP3   OH239987   0.745   6.715   6.826  0.5581  0.0556  0.8983
 6143TIP3    H139988   0.708   6.794   6.865  0.8498  0.6879 -0.0856
 6143TIP3    H239989   0.822   6.745   6.779  2.4481 -1.2359  2.9670
 6144TIP3   OH239990   5.161   0.497   6.630 -0.1999 -0.2633 -0.5446
 6144TIP3    H139991   5.250   0.525   6.607  0.5952 -0.7496  1.7140
 6144TIP3    H239992   5.125   0.464   6.547  1.0660  1.5431 -1.8923
 6145TIP3   OH239993   2.933   2.167   1.691 -0.1717  0.0496  0.2066
 6145TIP3    H139994   2.947   2.184   1.784 -1.1804  0.7831  0.2465
 6145TIP3    H239995   2.861   2.226   1.667  0.1618 -0.0373 -1.0643
 6146TIP3   OH239996   4.021   2.938   0.421  0.0031  0.0448 -0.4714
 6146TIP3    H139997   4.000   3.007   0.484 -0.5239  0.1436 -0.7479
 6146TIP3    H239998   4.055   2.986   0.345 -1.3299  0.0977 -1.0667
 6147TIP3   OH239999   1.123   2.801   7.784  0.4923  0.3015  0.1296
 6147TIP3    H140000   1.067   2.843   7.719  0.2392  0.9188  0.7437
 6147TIP3    H240001   1.066   2.787   7.859  0.4064 -1.6380 -0.2255
 6148TIP3   OH240002   3.173   5.081   2.390 -0.1672  0.4111 -0.1244
 6148TIP3    H140003   3.191   5.136   2.315 -0.7225  0.3631 -0.2966
 6148TIP3    H240004   3.077   5.075   2.394 -0.1265 -1.5226 -0.8400
 6149TIP3   OH240005   5.098   0.470   0.199 -0.3963  0.2181  0.0331
 6149TIP3    H140006   5.063   0.534   0.261 -2.1490 -0.6032 -0.0588
 6149TIP3    H240007   5.048   0.390   0.215 -1.2593  0.0824 -2.6807
 6150TIP3   OH240008   2.165   1.738   1.005  0.4751  0.1856 -0.4663
 6150TIP3    H140009   2.223   1.683   0.953 -1.0041  0.0481 -2.0520
 6150TIP3    H240010   2.184   1.714   1.096  0.5905 -2.1989 -1.0672
 6151TIP3   OH240011   1.555   1.470   8.444 -0.0162 -0.0244  0.1557
 6151TIP3    H140012   1.564   1.438   8.533 -0.0217 -1.0590 -0.2071
 6151TIP3    H240013   1.636   1.443   8.400  1.2629  2.8267  0.5087
 6152TIP3   OH240014   2.869   6.408   0.597  0.1629 -0.3443  0.0423
 6152TIP3    H140015   2.960   6.412   0.625  0.3343 -1.7405 -0.2436
 6152TIP3    H240016   2.819   6.420   0.678  0.6512 -3.7580  1.0009
 6153TIP3   OH240017   0.545   0.757   0.720  0.5948  0.2218 -0.3635
 6153TIP3    H140018   0.548   0.843   0.678  1.1370  0.5675  0.3679
 6153TIP3    H240019   0.492   0.770   0.799  1.5576  0.1466  0.3126
 6154TIP3   OH240020   5.320   0.297   7.376  0.1190 -0.0819 -0.0268
 6154TIP3    H140021   5.350   0.209   7.355  1.4456  0.1933  0.5718
 6154TIP3    H240022   5.396   0.339   7.416 -0.9550  0.8164  1.1803
 6155TIP3   OH240023   6.671   3.764   1.182 -0.6062 -0.1611 -0.3944
 6155TIP3    H140024   6.722   3.844   1.173 -0.0008 -0.5387 -0.3974
 6155TIP3    H240025   6.729   3.703   1.227 -0.7765 -0.8494 -1.0782
 6156TIP3   OH240026   1.649   4.156   7.624 -0.1615  0.3061 -0.1807
 6156TIP3    H140027   1.737   4.187   7.646 -0.4344  1.0189 -0.0679
 6156TIP3    H240028   1.663   4.069   7.587  0.5948  0.4197 -0.1800
 6157TIP3   OH240029   1.729   1.379   6.858  0.0125 -0.4873  0.0208
 6157TIP3    H140030   1.646   1.426   6.852  0.2945  0.0513  0.2922
 6157TIP3    H240031   1.704   1.291   6.885 -0.2423  0.7645  4.8282
 6158TIP3   OH240032   3.421   1.072   1.268 -0.0973 -0.2672  0.1068
 6158TIP3    H140033   3.487   1.071   1.337  0.9622  0.4382 -0.8526
 6158TIP3    H240034   3.402   1.165   1.253 -2.4360 -0.4581  1.3484
 6159TIP3   OH240035   4.783   0.780   1.941 -0.0156  0.4594 -0.8821
 6159TIP3    H140036   4.842   0.748   1.873  1.2792 -2.7233  1.4599
 6159TIP3    H240037   4.835   0.842   1.991  1.3771 -1.8853  0.8087
 6160TIP3   OH240038   4.309   1.923   7.902  0.4883  0.4947 -0.0761
 6160TIP3    H140039   4.351   1.924   7.817  1.1902  0.0298  0.2566
 6160TIP3    H240040   4.325   2.011   7.938  1.6692  0.1597  0.2695
 6161TIP3   OH240041   3.926   1.092   8.826  0.6988 -0.0594  0.4746
 6161TIP3    H140042   4.010   1.068   8.865  0.5767 -0.0441  0.7497
 6161TIP3    H240043   3.899   1.171   8.873  0.9784  0.4875 -0.2536
 6162TIP3   OH240044   0.265   5.735   1.952  0.9358  0.4745  0.2710
 6162TIP3    H140045   0.261   5.814   2.005  0.4736  0.0495  0.8902
 6162TIP3    H240046   0.267   5.766   1.861 -0.4251  1.1760  0.4586
 6163TIP3   OH240047   5.597   0.159   7.149 -0.2319 -0.4897  0.1404
 6163TIP3    H140048   5.585   0.229   7.085 -0.7612 -0.6691  0.0330
 6163TIP3    H240049   5.672   0.109   7.117  0.5441  0.3954  0.5586
 6164TIP3   OH240050   1.485   4.464   7.965  0.0827  0.3451 -0.0626
 6164TIP3    H140051   1.501   4.551   7.927  1.3713  0.1414 -0.0524
 6164TIP3    H240052   1.437   4.481   8.046  1.1774  1.1423  0.4425
 6165TIP3   OH240053   2.263   2.065   8.419  0.1294 -0.7360 -0.0726
 6165TIP3    H140054   2.331   2.128   8.443 -0.7909 -0.5875  2.3902
 6165TIP3    H240055   2.186   2.093   8.467 -1.1880 -2.0061 -1.3180
 6166TIP3   OH240056   3.000   3.476   1.547  0.3714 -0.8019 -0.0789
 6166TIP3    H140057   2.921   3.423   1.541  1.0215 -1.8139 -0.0004
 6166TIP3    H240058   3.020   3.481   1.641  0.4430 -0.6176 -0.1021
 6167TIP3   OH240059   5.595   2.024   8.340  0.3240  0.2683  0.0549
 6167TIP3    H140060   5.661   1.955   8.336  0.1669  0.1027  0.2606
 6167TIP3    H240061   5.636   2.093   8.392 -0.7575 -1.0921  2.9761
 6168TIP3   OH240062   2.603   2.922   1.429  0.1124 -0.4056  0.6774
 6168TIP3    H140063   2.653   3.000   1.452  0.7841 -0.2700 -1.1117
 6168TIP3    H240064   2.533   2.919   1.493  1.6110  0.1627  2.4307
 6169TIP3   OH240065   6.621   3.539   8.742  0.1524 -0.0981 -0.1241
 6169TIP3    H140066   6.533   3.527   8.777 -0.5347  2.6501 -0.6785
 6169TIP3    H240067   6.679   3.519   8.815 -1.0361  0.3274  0.9722
 6170TIP3   OH240068   5.918   4.212   1.250 -0.3773  0.4486 -0.5388
 6170TIP3    H140069   5.898   4.304   1.263 -0.5200  0.1621  1.6822
 6170TIP3    H240070   6.013   4.208   1.243 -0.0675  0.5473  2.3916
 6171TIP3   OH240071   4.900   2.882   1.783 -0.0406 -0.0696 -0.5799
 6171TIP3    H140072   4.964   2.848   1.721  0.0918  1.4193 -1.3011
 6171TIP3    H240073   4.827   2.912   1.729 -0.9454 -0.8450  0.1660
 6172TIP3   OH240074   4.914   5.295   7.470 -0.3467  0.0461  0.0275
 6172TIP3    H140075   4.861   5.372   7.446  0.7832  0.2694 -2.0237
 6172TIP3    H240076   5.002   5.318   7.440  0.5824 -0.9715  1.8914
 6173TIP3   OH240077   0.517   5.994   1.509  0.4575  0.2869 -0.6055
 6173TIP3    H140078   0.509   6.051   1.586  1.8065 -0.6675  0.2867
 6173TIP3    H240079   0.450   6.026   1.449 -0.8515  0.8743  1.0713
 6174TIP3   OH240080   1.589   6.332   8.078  0.0203 -0.0237 -0.0262
 6174TIP3    H140081   1.564   6.261   8.018  0.6980 -0.7571  0.5281
 6174TIP3    H240082   1.675   6.306   8.111  0.8153  1.6576 -0.7035
 6175TIP3   OH240083   3.932   1.159   5.916 -0.0174 -0.3165 -0.1936
 6175TIP3    H140084   3.941   1.204   6.000 -0.0672  1.0723 -0.9016
 6175TIP3    H240085   3.935   1.229   5.851 -1.6290 -1.1774 -1.2714
 6176TIP3   OH240086   3.634   4.173   7.312 -0.0458 -0.4106 -0.0071
 6176TIP3    H140087   3.684   4.173   7.394 -0.0185 -0.6903 -0.0229
 6176TIP3    H240088   3.692   4.129   7.249  0.2058  0.3887 -0.3448
 6177TIP3   OH240089   4.488   2.496   0.377 -0.6495 -0.0904  0.6860
 6177TIP3    H140090   4.581   2.476   0.390 -0.6495  0.1947  1.1700
 6177TIP3    H240091   4.470   2.470   0.287 -0.2801 -0.8163  0.8170
 6178TIP3   OH240092   3.822   2.985   7.915 -0.2750 -0.0897  0.6325
 6178TIP3    H140093   3.897   2.937   7.952  1.2581  0.6877 -1.2463
 6178TIP3    H240094   3.832   3.074   7.947  2.1586  1.0739 -2.7791
 6179TIP3   OH240095   5.749   1.050   0.863 -0.0849  0.6983  0.1275
 6179TIP3    H140096   5.762   1.115   0.795  0.9864  1.0276  0.6256
 6179TIP3    H240097   5.654   1.049   0.877 -0.1766  1.6924 -0.3313
 6180TIP3   OH240098   0.315   5.900   6.736 -0.4807  0.0496  0.1040
 6180TIP3    H140099   0.244   5.841   6.711 -0.1930 -0.1027 -0.3672
 6180TIP3    H240100   0.394   5.860   6.699 -0.3094  0.8421 -0.4107
 6181TIP3   OH240101   5.701   0.004   7.826  0.0358 -0.4486  0.0722
 6181TIP3    H140102   5.625  -0.001   7.768 -1.2360 -1.4765  1.7426
 6181TIP3    H240103   5.772  -0.037   7.776 -0.3374  0.9180 -1.6921
 6182TIP3   OH240104   1.326   5.398   1.180  0.8962 -0.0387  0.7188
 6182TIP3    H140105   1.406   5.349   1.159  1.4750  0.1413  2.3401
 6182TIP3    H240106   1.256   5.333   1.171  1.2410 -0.2746 -0.4425
 6183TIP3   OH240107   0.419   3.531   0.258 -0.2251 -0.0635 -0.2218
 6183TIP3    H140108   0.353   3.464   0.242 -0.8881  0.0441  1.7939
 6183TIP3    H240109   0.369   3.605   0.293  0.7657  0.7046 -0.3883
 6184TIP3   OH240110   2.174   5.058   0.740  0.6089 -0.4035 -0.4071
 6184TIP3    H140111   2.255   5.048   0.690 -0.1009  0.2020 -1.7363
 6184TIP3    H240112   2.113   5.097   0.678 -0.3311  0.3305  0.9398
 6185TIP3   OH240113   1.700   1.118   6.915 -0.5674  0.2165 -0.0046
 6185TIP3    H140114   1.703   1.111   7.010  3.5577  2.4325  0.2287
 6185TIP3    H240115   1.757   1.048   6.883 -2.2986 -0.8290 -0.9830
 6186TIP3   OH240116   3.756   5.925   8.209  0.1437 -0.1671  0.3285
 6186TIP3    H140117   3.830   5.899   8.154 -0.8999 -0.2299 -1.1185
 6186TIP3    H240118   3.680   5.885   8.166 -0.8004  0.3755  1.4468
 6187TIP3   OH240119   4.881   3.003   7.793  0.4630  0.4183 -0.4766
 6187TIP3    H140120   4.921   3.057   7.725  1.4604 -0.1636 -0.3756
 6187TIP3    H240121   4.923   2.918   7.784  0.6495  0.3429  0.8850
 6188TIP3   OH240122   5.192   1.523   7.761 -0.4843  0.3500 -0.3324
 6188TIP3    H140123   5.146   1.439   7.754 -0.0111 -0.1542  1.7178
 6188TIP3    H240124   5.123   1.585   7.786 -0.6941  0.4221 -1.0642
 6189TIP3   OH240125   5.191   3.133   7.501  0.1565  0.0874 -0.1900
 6189TIP3    H140126   5.255   3.106   7.568  0.7125  2.6010  0.4203
 6189TIP3    H240127   5.108   3.096   7.531  0.4971  0.6763  1.6399
 6190TIP3   OH240128   6.427   6.688   7.662  0.4222  0.3835  0.6171
 6190TIP3    H140129   6.486   6.756   7.630  0.2835  0.7368  1.0965
 6190TIP3    H240130   6.434   6.618   7.598  0.4684  0.9027  0.0429
 6191TIP3   OH240131   1.177   4.930   1.426 -0.4235  0.0988 -0.0545
 6191TIP3    H140132   1.106   4.881   1.469 -0.5593  1.2264  1.0457
 6191TIP3    H240133   1.133   5.005   1.386  0.2387  1.3551  1.4820
 6192TIP3   OH240134   4.196   2.576   1.629  0.2304  0.1468 -0.4039
 6192TIP3    H140135   4.171   2.610   1.714  0.0964  1.5326 -0.9691
 6192TIP3    H240136   4.114   2.577   1.578  0.2305 -1.0241 -0.4392
 6193TIP3   OH240137   6.392   5.871   7.679  0.5158  0.1619  0.4118
 6193TIP3    H140138   6.364   5.799   7.736 -0.7848  1.6239  1.7258
 6193TIP3    H240139   6.360   5.846   7.592 -0.6628 -0.4916  0.9992
 6194TIP3   OH240140   4.133   0.935   1.464  0.1358  0.4074 -0.2913
 6194TIP3    H140141   4.215   0.977   1.437  0.7163  0.6257  1.6839
 6194TIP3    H240142   4.140   0.846   1.431  0.9115  0.5795 -0.6159
 6195TIP3   OH240143   4.161   4.569   0.711 -0.5010 -0.5258 -0.0930
 6195TIP3    H140144   4.256   4.564   0.718 -0.4741  0.0206 -0.0044
 6195TIP3    H240145   4.130   4.563   0.802 -0.6416 -2.1514 -0.2187
 6196TIP3   OH240146   3.619   3.939   7.754 -0.1233 -0.5246 -0.2551
 6196TIP3    H140147   3.637   4.000   7.826 -0.6048  0.5147 -0.9864
 6196TIP3    H240148   3.659   3.857   7.781  0.3832  0.0691  0.8448
 6197TIP3   OH240149   3.682   1.241   8.020  0.9920 -0.0745 -0.1582
 6197TIP3    H140150   3.709   1.308   7.957  1.1013 -0.1174 -0.1556
 6197TIP3    H240151   3.690   1.284   8.105 -2.8969  1.3707 -0.3243
 6198TIP3   OH240152   2.478   6.520   0.904  0.6862  0.2485 -0.1639
 6198TIP3    H140153   2.430   6.508   0.822  0.3091 -0.1001  0.1020
 6198TIP3    H240154   2.461   6.611   0.929  0.6708  0.3088 -0.3915
 6199TIP3   OH240155   6.572   1.283   0.006 -0.4349 -0.2270  0.0824
 6199TIP3    H140156   6.642   1.238   0.054  1.4528  0.8058 -1.5636
 6199TIP3    H240157   6.570   1.371   0.046 -1.4023 -0.5105  0.6805
 6200TIP3   OH240158   4.123   0.660   1.389 -0.0655  0.5333 -0.6142
 6200TIP3    H140159   4.183   0.586   1.400 -0.3462  0.0423 -2.1513
 6200TIP3    H240160   4.047   0.638   1.443  0.6005  0.5854  0.3736
 6201TIP3   OH240161   2.262   6.501   8.757 -0.0945  0.3024  0.3660
 6201TIP3    H140162   2.167   6.509   8.756 -0.0116  1.4908  0.1071
 6201TIP3    H240163   2.282   6.460   8.841 -0.8182  0.4257  0.6062
 6202TIP3   OH240164   3.210   2.526   7.822  0.0686 -0.0897 -0.4161
 6202TIP3    H140165   3.298   2.549   7.851  0.1232 -1.0101  0.1926
 6202TIP3    H240166   3.214   2.525   7.727  0.4589  0.8237 -0.4186
 6203TIP3   OH240167   2.374   6.344   1.132  0.5995  0.3456 -0.7591
 6203TIP3    H140168   2.459   6.309   1.159 -0.0192  0.0285  0.8623
 6203TIP3    H240169   2.371   6.432   1.170 -0.6365 -0.4235  1.0638
 6204TIP3   OH240170   3.054   0.553   0.733 -0.3916  0.3801  0.0741
 6204TIP3    H140171   3.090   0.468   0.760 -0.8668  0.7434  1.9812
 6204TIP3    H240172   3.131   0.609   0.724 -0.2367  0.6316  2.2577
 6205TIP3   OH240173   0.400   6.116   0.965  0.3106 -0.6480 -0.1869
 6205TIP3    H140174   0.410   6.198   1.013 -0.7025 -0.6104 -0.0203
 6205TIP3    H240175   0.320   6.127   0.914 -0.4072 -1.8904  0.5980
 6206TIP3   OH240176   0.472   2.031   1.532 -0.1274 -0.2852  0.0212
 6206TIP3    H140177   0.460   2.056   1.624 -0.4879 -0.2548 -0.0344
 6206TIP3    H240178   0.563   2.003   1.527  0.4830  1.5728 -0.0525
 6207TIP3   OH240179   3.966   6.345   0.506  0.1194 -0.1660 -0.3164
 6207TIP3    H140180   3.993   6.344   0.414  0.0428  0.2429 -0.3472
 6207TIP3    H240181   3.908   6.421   0.513  0.5745  0.1466  0.1979
 6208TIP3   OH240182   2.191   1.277   7.120 -0.1252  0.2871  0.1777
 6208TIP3    H140183   2.217   1.212   7.185  0.8316  0.0425 -0.4351
 6208TIP3    H240184   2.249   1.262   7.045 -1.2125  0.5451 -0.7559
 6209TIP3   OH240185   1.029   1.395   0.136  0.2390 -0.4192 -0.3227
 6209TIP3    H140186   1.111   1.443   0.126  0.1218  0.0465  0.7955
 6209TIP3    H240187   1.031   1.329   0.067  1.9405 -0.9516  0.1956
 6210TIP3   OH240188   2.402   6.428   0.141  0.4078  0.5470 -0.2356
 6210TIP3    H140189   2.353   6.393   0.215  2.3757 -0.1647  0.8166
 6210TIP3    H240190   2.470   6.483   0.181  0.7036  1.2232 -1.6010
 6211TIP3   OH240191   6.594   5.994   6.358 -0.1731  0.2320 -0.1794
 6211TIP3    H140192   6.640   6.041   6.429 -0.1979  1.5884 -1.0355
 6211TIP3    H240193   6.502   6.013   6.372 -0.4271 -1.5052  0.8218
 6212TIP3   OH240194   2.164   6.063   8.245  0.2731  0.2070  0.0350
 6212TIP3    H140195   2.240   6.094   8.294 -1.5556  2.5621  1.6076
 6212TIP3    H240196   2.100   6.039   8.312 -0.5730 -1.2743 -1.2345
 6213TIP3   OH240197   5.511   2.902   2.621 -0.2704  0.0526 -0.0995
 6213TIP3    H140198   5.457   2.897   2.700  0.2934  0.0434  0.2879
 6213TIP3    H240199   5.596   2.933   2.652 -0.6120  2.0009 -0.9684
 6214TIP3   OH240200   2.123   1.424   7.361  0.0714 -0.2237 -0.1033
 6214TIP3    H140201   2.132   1.376   7.279  2.3248  0.0184 -0.0578
 6214TIP3    H240202   2.154   1.512   7.341  2.3078 -0.5958  1.3403
 6215TIP3   OH240203   5.837   3.664   0.933 -0.2005 -0.0373  0.2158
 6215TIP3    H140204   5.827   3.725   0.860  1.6180 -0.8037 -0.7656
 6215TIP3    H240205   5.891   3.710   0.997  0.0011 -0.1052  0.0974
 6216TIP3   OH240206   6.750   4.135   7.473  0.4388 -0.1778  0.1031
 6216TIP3    H140207   6.655   4.130   7.477  0.4180  0.5497  0.6271
 6216TIP3    H240208   6.771   4.121   7.381 -0.2365  0.5957 -0.1763
 6217TIP3   OH240209   2.736   5.990   1.435  0.0609 -0.1510 -0.2682
 6217TIP3    H140210   2.811   6.024   1.385  1.7759 -2.2242  0.7201
 6217TIP3    H240211   2.663   5.993   1.373  1.9521 -2.0687 -2.8495
 6218TIP3   OH240212   2.327   1.470   0.217  0.2996 -0.7764 -0.0078
 6218TIP3    H140213   2.293   1.513   0.137  1.2835  0.5044  0.2308
 6218TIP3    H240214   2.422   1.468   0.204  0.5029 -0.1730  1.3088
 6219TIP3   OH240215   0.189   3.045   1.897 -0.0676 -0.5691  0.1217
 6219TIP3    H140216   0.095   3.062   1.894 -0.2551 -1.5981 -0.1367
 6219TIP3    H240217   0.200   2.961   1.853  0.8726 -0.8866  0.9123
 6220TIP3   OH240218   1.769   2.448   6.955 -0.2679  0.2180 -0.5713
 6220TIP3    H140219   1.681   2.485   6.962 -0.2750  0.0039  0.6100
 6220TIP3    H240220   1.754   2.357   6.929 -0.3681  0.3001 -0.8102
 6221TIP3   OH240221   3.438   1.192   8.652 -0.0932 -0.0973  0.1779
 6221TIP3    H140222   3.465   1.229   8.567 -2.4895 -1.5642 -1.3543
 6221TIP3    H240223   3.451   1.263   8.714 -0.3225  1.8209 -1.8369
 6222TIP3   OH240224   5.615   4.060   0.557 -0.0572  0.3349  0.5360
 6222TIP3    H140225   5.704   4.081   0.585  0.8384  0.1874 -1.9770
 6222TIP3    H240226   5.580   4.006   0.628  2.0827 -0.1453  1.2997
 6223TIP3   OH240227   0.237   2.075   2.414  0.4581  0.1342 -0.3098
 6223TIP3    H140228   0.170   2.007   2.418 -1.8641  2.3456  1.3174
 6223TIP3    H240229   0.294   2.056   2.489 -0.3023  0.0610  0.2678
 6224TIP3   OH240230   2.653   0.663   1.491 -0.0452  0.7978 -0.1786
 6224TIP3    H140231   2.573   0.639   1.538  1.1854 -1.8519  0.7717
 6224TIP3    H240232   2.681   0.745   1.532 -1.0066  0.4964  1.1409
 6225TIP3   OH240233   0.240   0.957   1.530  0.4521 -0.5669 -0.0359
 6225TIP3    H140234   0.213   1.013   1.602  0.5249  2.9782 -2.5211
 6225TIP3    H240235   0.335   0.947   1.542  0.6152  0.7471 -0.0409
 6226TIP3   OH240236   6.718   3.684   8.344 -0.3626  0.2626 -0.3850
 6226TIP3    H140237   6.727   3.600   8.390  2.6180  0.0072 -1.1743
 6226TIP3    H240238   6.632   3.716   8.370 -0.5193 -1.7588  2.1081
 6227TIP3   OH240239   4.698   5.906   6.681 -0.0936 -0.3875 -0.0307
 6227TIP3    H140240   4.780   5.945   6.711  0.0660 -1.6374  1.1996
 6227TIP3    H240241   4.720   5.815   6.662 -0.9398 -0.4344 -0.8792
 6228TIP3   OH240242   3.861   4.350   1.491 -0.2765  0.3790  0.7006
 6228TIP3    H140243   3.834   4.319   1.577  1.6446 -0.3142  1.1038
 6228TIP3    H240244   3.914   4.279   1.455 -0.8768  0.7417 -0.9896
 6229TIP3   OH240245   2.172   3.785   0.682  0.0672 -0.3046 -0.3512
 6229TIP3    H140246   2.194   3.776   0.774 -1.1149  1.1385  0.1046
 6229TIP3    H240247   2.141   3.875   0.673  1.3405 -0.0096 -2.4214
 6230TIP3   OH240248   3.187   2.704   8.831 -0.5625 -0.4188  0.1410
 6230TIP3    H140249   3.189   2.611   8.811 -0.7683 -0.6764  1.2251
 6230TIP3    H240250   3.103   2.734   8.797 -0.8404 -0.8089  0.4606
 6231TIP3   OH240251   1.307   5.495   0.502  0.0549  0.3612  0.1115
 6231TIP3    H140252   1.306   5.584   0.467 -0.3006  0.2751 -0.1011
 6231TIP3    H240253   1.377   5.496   0.568  0.9653  0.4341 -0.8359
 6232TIP3   OH240254   5.212   3.058   8.503  0.1881 -0.2550  0.5897
 6232TIP3    H140255   5.137   3.039   8.559 -0.2363  3.0693  1.3444
 6232TIP3    H240256   5.173   3.073   8.417 -0.0780  1.4521  0.9773
 6233TIP3   OH240257   4.629   0.030   7.644 -0.0927 -0.2266 -0.6288
 6233TIP3    H140258   4.577   0.040   7.564 -0.6753 -3.2790 -0.7299
 6233TIP3    H240259   4.712  -0.005   7.615 -0.2291 -1.1518  0.0722
 6234TIP3   OH240260   4.390   2.804   7.272 -0.3162  0.9401 -0.4926
 6234TIP3    H140261   4.398   2.722   7.321 -0.4791  1.1750 -0.0722
 6234TIP3    H240262   4.350   2.865   7.333 -3.0687  0.5081 -1.7077
 6235TIP3   OH240263   3.801   6.339   2.120  0.2112 -0.3393 -0.1315
 6235TIP3    H140264   3.766   6.422   2.152 -0.5849 -1.3630  1.8048
 6235TIP3    H240265   3.894   6.342   2.144  0.2102  0.0111 -0.1588
 6236TIP3   OH240266   1.328   0.941   7.361  0.6357 -0.0451  0.7168
 6236TIP3    H140267   1.276   0.877   7.313  2.2050 -1.3529  0.6673
 6236TIP3    H240268   1.320   1.022   7.311  0.8528 -0.9358 -0.8072
 6237TIP3   OH240269   1.913   0.757   7.354  0.0575  0.2730 -0.2442
 6237TIP3    H140270   2.005   0.778   7.341  0.0802 -0.2384 -0.9464
 6237TIP3    H240271   1.912   0.663   7.373 -0.4466 -0.0530 -1.7842
 6238TIP3   OH240272   1.385   5.149   8.268  0.0345  0.2773  0.4255
 6238TIP3    H140273   1.375   5.239   8.297 -0.7779  0.7731 -1.2714
 6238TIP3    H240274   1.306   5.105   8.298  0.1804  0.2595  0.7859
 6239TIP3   OH240275   6.021   6.503   8.080  0.6978 -0.1256  0.1314
 6239TIP3    H140276   6.106   6.461   8.088  1.0676  0.7296  0.8270
 6239TIP3    H240277   5.987   6.508   8.170  0.8698  1.4446  0.1368
 6240TIP3   OH240278   3.430   0.396   7.487 -0.0182  0.0800  0.1308
 6240TIP3    H140279   3.433   0.482   7.529 -0.9911 -0.3867  1.2261
 6240TIP3    H240280   3.353   0.399   7.431  0.0212 -0.0408  0.0695
 6241TIP3   OH240281   5.817   6.483   1.643  0.2525 -0.2837  0.2633
 6241TIP3    H140282   5.851   6.472   1.732  2.3751  1.2706 -0.2740
 6241TIP3    H240283   5.741   6.539   1.653 -0.1699 -0.9875  1.1775
 6242TIP3   OH240284   2.419   1.920   6.983 -0.0273 -0.2014  0.4111
 6242TIP3    H140285   2.398   1.863   6.908 -1.1375  2.4993 -1.4831
 6242TIP3    H240286   2.349   1.902   7.046  1.5714 -3.3905  1.5191
 6243TIP3   OH240287   6.788   1.824   8.175  0.1955 -0.4706  0.1782
 6243TIP3    H140288   6.778   1.777   8.092  0.7125 -0.8373  0.3158
 6243TIP3    H240289   6.699   1.833   8.209  0.1855 -3.3696  1.2484
 6244TIP3   OH240290   3.804   1.228   8.319  0.4111 -0.4317 -0.3049
 6244TIP3    H140291   3.866   1.242   8.247  0.8579 -1.7277 -0.1938
 6244TIP3    H240292   3.858   1.232   8.398  0.3282 -1.3526 -0.1942
 6245TIP3   OH240293   5.652   4.759   0.761  0.2942 -0.0544 -0.1414
 6245TIP3    H140294   5.732   4.771   0.812 -0.5424 -1.6574  1.6592
 6245TIP3    H240295   5.581   4.772   0.823 -0.7679 -2.1931 -0.8230
 6246TIP3   OH240296   5.476   3.371   0.431  0.7789 -0.0300  0.1757
 6246TIP3    H140297   5.470   3.437   0.362  0.1254 -1.3979 -1.1343
 6246TIP3    H240298   5.543   3.310   0.400 -0.2207 -1.2065  0.2313
 6247TIP3   OH240299   5.534   4.019   8.259 -0.3440 -0.0381 -0.2182
 6247TIP3    H140300   5.600   3.995   8.323 -1.4494 -2.7651  0.0662
 6247TIP3    H240301   5.537   3.949   8.194 -1.2177  1.1347 -1.5949
 6248TIP3   OH240302   1.179   6.614   6.802  0.2162 -0.1561 -0.0045
 6248TIP3    H140303   1.268   6.593   6.832  0.0288 -0.8658  0.0627
 6248TIP3    H240304   1.123   6.594   6.877 -0.1240 -0.7971 -0.4172
 6249TIP3   OH240305   2.712   5.290   7.508  0.3796  0.4777 -0.1138
 6249TIP3    H140306   2.768   5.254   7.438 -0.7041  3.1264 -2.5332
 6249TIP3    H240307   2.768   5.352   7.553  0.7229 -0.3609  0.6515
 6250TIP3   OH240308   1.833   1.699   7.790 -0.2343  0.0468  0.2044
 6250TIP3    H140309   1.855   1.776   7.841  0.7952 -0.4221  0.4996
 6250TIP3    H240310   1.904   1.691   7.726  0.6431 -1.6224  1.2991
 6251TIP3   OH240311   2.900   0.672   7.421  0.2472 -0.1295 -0.1024
 6251TIP3    H140312   2.990   0.638   7.419  0.1301 -0.4268 -0.3172
 6251TIP3    H240313   2.856   0.620   7.489 -0.0217 -0.6371 -0.6603
 6252TIP3   OH240314   1.492   2.113   0.837  0.2854  0.3908  0.6603
 6252TIP3    H140315   1.507   2.021   0.855 -1.6944 -0.3150 -1.0091
 6252TIP3    H240316   1.568   2.140   0.785  0.6568 -0.4044  0.7758
 6253TIP3   OH240317   1.246   4.107   8.045 -0.0554  0.5398 -0.0286
 6253TIP3    H140318   1.223   4.199   8.036  2.6513  1.5369  2.0409
 6253TIP3    H240319   1.327   4.097   7.996  0.8044 -0.1936  1.4902
 6254TIP3   OH240320   1.107   6.068   0.724  0.9994 -0.2641 -0.6307
 6254TIP3    H140321   1.063   6.089   0.807  1.6245  1.1850 -0.6213
 6254TIP3    H240322   1.179   6.131   0.720  2.3651 -1.7889 -1.1979
 6255TIP3   OH240323   3.828   2.334   0.746 -0.1181  0.1966 -0.3988
 6255TIP3    H140324   3.776   2.412   0.764  1.6248  1.5767 -1.0061
 6255TIP3    H240325   3.869   2.313   0.831 -0.7745 -0.2230 -0.1793
 6256TIP3   OH240326   2.481   4.149   0.819  0.1089  0.6955  0.0877
 6256TIP3    H140327   2.407   4.122   0.872 -0.1077 -1.6814 -1.3096
 6256TIP3    H240328   2.549   4.170   0.882 -0.7924 -0.0168  1.3428
 6257TIP3   OH240329   4.511   3.097   0.585 -0.0125 -0.5159  0.0174
 6257TIP3    H140330   4.436   3.112   0.527  0.0988 -0.9246 -0.2384
 6257TIP3    H240331   4.541   3.009   0.563 -0.6304 -1.1173  1.4475
 6258TIP3   OH240332   4.389   2.857   6.208 -0.2158 -0.1511  0.4098
 6258TIP3    H140333   4.300   2.833   6.185 -0.9833  1.4122  1.5280
 6258TIP3    H240334   4.381   2.903   6.292  1.5447  0.6267  0.2117
 6259TIP3   OH240335   0.978   5.085   7.731  0.0812  0.3730  0.0757
 6259TIP3    H140336   0.949   4.995   7.745 -0.1847  0.5470  0.6795
 6259TIP3    H240337   0.939   5.134   7.803 -1.6188  1.4070 -1.4918
 6260TIP3   OH240338   2.498   5.847   1.294 -0.2962  0.4669 -0.1906
 6260TIP3    H140339   2.464   5.782   1.355 -0.2108  0.9185  0.3515
 6260TIP3    H240340   2.435   5.848   1.221 -1.5767  1.4372  0.8845
 6261TIP3   OH240341   6.599   2.627   0.314 -0.0575  0.0801 -0.3434
 6261TIP3    H140342   6.606   2.722   0.302  0.8603  0.4480  2.3786
 6261TIP3    H240343   6.687   2.595   0.298  0.2864  0.1062  1.2727
 6262TIP3   OH240344   5.562   1.303   7.942 -0.3096  0.1618  0.6870
 6262TIP3    H140345   5.611   1.359   8.002 -0.0067 -0.7832  1.3442
 6262TIP3    H240346   5.629   1.264   7.885 -0.5832  0.9628 -0.2166
 6263TIP3   OH240347   3.392   0.280   0.305  0.0303 -0.4291 -1.3342
 6263TIP3    H140348   3.448   0.255   0.379 -0.5927 -0.3883 -0.8365
 6263TIP3    H240349   3.386   0.201   0.251  1.5013 -0.1094 -2.0210
 6264TIP3   OH240350   3.307   6.370   0.040 -0.7137 -0.2038  0.2215
 6264TIP3    H140351   3.372   6.300   0.047 -0.4116  0.1749  1.3810
 6264TIP3    H240352   3.317   6.403  -0.049 -0.6230 -1.3875 -0.2364
 6265TIP3   OH240353   6.776   2.999   8.737  0.1324 -0.0318 -0.1204
 6265TIP3    H140354   6.741   3.053   8.665  1.4913 -0.2757 -1.0062
 6265TIP3    H240355   6.730   3.031   8.815 -0.1996  1.3720 -0.8482
 6266TIP3   OH240356   3.513   5.353   6.340 -0.3633 -0.2385 -0.0736
 6266TIP3    H140357   3.534   5.319   6.427 -0.5124 -0.1117  0.0122
 6266TIP3    H240358   3.490   5.275   6.289  0.9613 -0.4648 -0.3625
 6267TIP3   OH240359   6.215   5.599   0.602 -0.1615 -0.2284  1.1146
 6267TIP3    H140360   6.192   5.604   0.695  2.0435  0.8213  1.6574
 6267TIP3    H240361   6.250   5.685   0.581  0.6476 -0.8809 -0.3390
 6268TIP3   OH240362   1.450   6.201   7.868 -0.6840 -0.1784  0.1923
 6268TIP3    H140363   1.460   6.107   7.853  0.9839 -0.1142  0.7000
 6268TIP3    H240364   1.444   6.239   7.780 -2.8514 -0.8528 -0.0090
 6269TIP3   OH240365   1.948   3.694   0.995 -0.0431 -0.0413  0.0313
 6269TIP3    H140366   1.943   3.784   0.963  1.9114 -0.2981 -1.1630
 6269TIP3    H240367   2.014   3.653   0.940 -0.6197 -2.1118  0.8121
 6270TIP3   OH240368   5.801   2.698   8.466  0.3642 -0.2785  0.0783
 6270TIP3    H140369   5.776   2.659   8.382  0.7951  1.9178 -1.1553
 6270TIP3    H240370   5.871   2.760   8.443  1.9736 -1.1174  2.3963
 6271TIP3   OH240371   4.400   3.254   8.644 -0.0922 -0.0097 -0.1130
 6271TIP3    H140372   4.386   3.346   8.665  2.1481  0.3623 -0.0172
 6271TIP3    H240373   4.469   3.254   8.578 -1.1755 -1.5714 -1.3122
 6272TIP3   OH240374   3.493   1.649   1.448 -0.0787 -0.5342  0.1034
 6272TIP3    H140375   3.449   1.622   1.529 -0.1592 -1.9199 -0.3618
 6272TIP3    H240376   3.582   1.671   1.474 -0.1683 -0.7582  0.6060
 6273TIP3   OH240377   2.529   2.558   8.637  0.2122 -0.2870 -0.1316
 6273TIP3    H140378   2.527   2.536   8.730  0.2145 -0.7589 -0.2406
 6273TIP3    H240379   2.473   2.634   8.628  0.8847  0.2785  0.3934
 6274TIP3   OH240380   1.655   0.702   6.427 -0.4595 -0.2450 -0.0219
 6274TIP3    H140381   1.707   0.760   6.371 -0.8885 -0.6804 -0.8889
 6274TIP3    H240382   1.684   0.614   6.405  0.5175 -0.3718  1.6283
 6275TIP3   OH240383   3.186   2.854   7.482 -0.1145  0.2311 -0.4940
 6275TIP3    H140384   3.129   2.801   7.537  0.4181 -0.3398 -0.4820
 6275TIP3    H240385   3.200   2.801   7.404  2.5255 -0.8555  0.5964
 6276TIP3   OH240386   4.562   6.441   6.589 -0.2006 -0.0960 -0.3872
 6276TIP3    H140387   4.567   6.426   6.495 -0.1979 -1.1928 -0.2178
 6276TIP3    H240388   4.480   6.400   6.616 -0.8391  1.2867 -0.0932
 6277TIP3   OH240389   3.036   6.081   6.862 -0.5680 -0.1320  0.3180
 6277TIP3    H140390   2.946   6.115   6.856  0.0308  1.3848 -0.6327
 6277TIP3    H240391   3.070   6.088   6.773  1.2820  1.6631  1.0933
 6278TIP3   OH240392   1.393   1.405   0.071 -0.0481  0.0954  0.0296
 6278TIP3    H140393   1.479   1.414   0.111  0.6888 -0.2708 -1.3974
 6278TIP3    H240394   1.401   1.451  -0.013 -0.8542 -0.9853 -0.6645
 6279TIP3   OH240395   4.385   3.626   0.169 -0.3016 -0.0365 -0.0752
 6279TIP3    H140396   4.310   3.574   0.197  1.2490 -1.0394  2.6075
 6279TIP3    H240397   4.437   3.637   0.249  0.7169  3.5542 -1.0493
 6280TIP3   OH240398   5.026   2.214   1.376  0.1421 -0.2688 -0.7114
 6280TIP3    H140399   5.060   2.124   1.376  0.0879 -0.2893 -0.4172
 6280TIP3    H240400   5.022   2.237   1.283 -1.3405 -1.1448 -0.9025
 6281TIP3   OH240401   5.883   1.744   1.505  0.7763  0.2279 -0.0338
 6281TIP3    H140402   5.893   1.838   1.518  0.6265  0.2390  0.0040
 6281TIP3    H240403   5.860   1.710   1.592  0.3898  0.2169 -0.1382
 6282TIP3   OH240404   0.682   4.878   1.338  0.4133  0.1350  0.1834
 6282TIP3    H140405   0.603   4.826   1.350 -0.1047  0.6719 -0.7333
 6282TIP3    H240406   0.720   4.845   1.256 -0.2330  1.5428 -0.7272
 6283TIP3   OH240407   6.629   3.974   8.470 -0.0521  0.6427  0.3861
 6283TIP3    H140408   6.562   3.912   8.440  0.9647  0.3380 -1.4182
 6283TIP3    H240409   6.707   3.952   8.418  0.6970  2.6536  0.5656
 6284TIP3   OH240410   6.194   4.842   8.487  0.3156 -0.1022  0.2221
 6284TIP3    H140411   6.136   4.774   8.522  0.1422  0.6307  1.3803
 6284TIP3    H240412   6.139   4.891   8.426 -0.3210  0.6419  1.3787
 6285TIP3   OH240413   3.496   4.295   0.666  0.0338 -0.3018 -0.6833
 6285TIP3    H140414   3.403   4.311   0.654 -0.3691 -0.5963  1.5161
 6285TIP3    H240415   3.525   4.255   0.585 -1.5050  0.7576 -1.8094
 6286TIP3   OH240416   5.606   0.690   8.764  0.3190  0.2193 -0.1380
 6286TIP3    H140417   5.636   0.621   8.705 -0.1223  0.1268 -0.2630
 6286TIP3    H240418   5.512   0.696   8.747  0.6505  2.2939 -1.6249
 6287TIP3   OH240419   1.435   4.964   0.666 -0.6022  0.1791  0.5082
 6287TIP3    H140420   1.444   5.033   0.601  1.6153 -0.3315  0.1854
 6287TIP3    H240421   1.458   5.006   0.749 -1.2372  0.2978  0.6271
 6288TIP3   OH240422   0.853   5.011   6.953  0.9641 -0.3727  0.4622
 6288TIP3    H140423   0.776   4.975   6.910  0.5449 -2.0598  2.4612
 6288TIP3    H240424   0.886   5.077   6.892 -0.1609 -1.8689 -1.9250
 6289TIP3   OH240425   5.366   5.919   0.192  0.6167  0.1735 -0.5287
 6289TIP3    H140426   5.387   5.986   0.256 -1.2475 -0.2243  0.5757
 6289TIP3    H240427   5.298   5.957   0.137  0.7182 -0.2351 -0.9545
 6290TIP3   OH240428   6.776   1.016   6.114 -0.1987 -0.5630 -0.1405
 6290TIP3    H140429   6.793   1.109   6.099  0.0855 -0.6351 -0.2848
 6290TIP3    H240430   6.702   1.014   6.173 -0.4492 -0.2492 -0.4396
 6291TIP3   OH240431   0.761   6.506   1.367 -0.1798  0.1424 -0.4528
 6291TIP3    H140432   0.703   6.455   1.423  0.2831  0.8427  0.6957
 6291TIP3    H240433   0.779   6.448   1.293 -0.7553 -0.8321  0.1405
 6292TIP3   OH240434   4.381   4.490   6.707  0.1634  0.2394 -0.5628
 6292TIP3    H140435   4.305   4.516   6.656 -1.3246 -3.8710 -0.8272
 6292TIP3    H240436   4.426   4.426   6.653  1.8214 -0.0371  1.0294
 6293TIP3   OH240437   0.912   2.711   6.716  0.3028  0.5835 -0.2037
 6293TIP3    H140438   0.960   2.632   6.739 -0.1317 -0.1282 -1.6196
 6293TIP3    H240439   0.886   2.749   6.800  1.5817 -0.0920  0.5330
 6294TIP3   OH240440   5.173   1.909   0.198  0.0568  0.0366  0.2511
 6294TIP3    H140441   5.142   1.828   0.240 -0.0498 -0.9875 -1.7027
 6294TIP3    H240442   5.098   1.940   0.148 -0.0734  1.6965  1.4000
 6295TIP3   OH240443   4.106   4.478   7.542 -0.0665 -0.1981 -0.4883
 6295TIP3    H140444   4.142   4.487   7.630  1.5876 -0.2031 -1.1408
 6295TIP3    H240445   4.106   4.384   7.524 -0.0047 -0.1673 -0.6551
 6296TIP3   OH240446   3.566   1.007   1.500 -0.3509  0.2926  0.3773
 6296TIP3    H140447   3.519   0.950   1.561  0.0772 -0.8218 -0.2955
 6296TIP3    H240448   3.628   1.055   1.556  2.1553 -2.8499  0.6271
 6297TIP3   OH240449   1.192   6.349   1.024  0.1361 -0.2030  0.7551
 6297TIP3    H140450   1.135   6.353   0.947  0.6906 -3.0072  0.0889
 6297TIP3    H240451   1.217   6.440   1.040 -0.2843  0.5330 -2.1680
 6298TIP3   OH240452   5.770   2.683   1.441  0.0292  0.6222 -0.0369
 6298TIP3    H140453   5.738   2.759   1.489  0.6056 -0.2463  1.8037
 6298TIP3    H240454   5.739   2.608   1.492  0.3404 -0.3611 -1.2501
 6299TIP3   OH240455   5.891   2.035   0.811  0.5467 -0.2070  0.0881
 6299TIP3    H140456   5.797   2.019   0.803  0.8178 -1.2965 -1.2189
 6299TIP3    H240457   5.931   1.948   0.800  1.7653  0.4204 -0.6205
 6300TIP3   OH240458   2.739   0.535   1.269  0.3734  0.4313  0.6577
 6300TIP3    H140459   2.782   0.594   1.208  0.3946  1.3392  1.5304
 6300TIP3    H240460   2.716   0.590   1.343  0.6682 -0.7229  1.6306
 6301TIP3   OH240461   6.426   5.742   0.161  0.1359  0.1555 -0.0140
 6301TIP3    H140462   6.341   5.730   0.203  0.0976 -1.1656 -0.4339
 6301TIP3    H240463   6.407   5.787   0.079 -0.1631 -0.1015 -0.0881
 6302TIP3   OH240464   5.227   5.622   7.006 -0.1302 -0.1074  0.4632
 6302TIP3    H140465   5.294   5.560   6.978  0.3831 -0.0942  1.6282
 6302TIP3    H240466   5.203   5.669   6.926 -0.2871 -1.5553 -0.3744
 6303TIP3   OH240467   0.538   4.642   7.291  0.3112  0.2484 -0.1429
 6303TIP3    H140468   0.500   4.562   7.253  0.4927  0.1511 -0.1229
 6303TIP3    H240469   0.615   4.659   7.238  0.5926  0.0868  0.2040
 6304TIP3   OH240470   0.278   1.694   8.082  0.1700  0.3121  0.3337
 6304TIP3    H140471   0.292   1.771   8.026 -1.7416  0.8746  0.5604
 6304TIP3    H240472   0.197   1.714   8.129 -0.8875 -2.2199 -0.2643
 6305TIP3   OH240473   2.221   4.652   6.604  0.2415  0.4010 -0.4500
 6305TIP3    H140474   2.232   4.563   6.636 -0.1727 -0.3381 -2.2649
 6305TIP3    H240475   2.310   4.685   6.594  0.4233 -0.1143 -0.5635
 6306TIP3   OH240476   0.963   3.844   1.942 -0.6189  0.0353 -0.5633
 6306TIP3    H140477   0.987   3.926   1.984  1.9115  0.0380 -1.8121
 6306TIP3    H240478   0.898   3.867   1.876 -0.4719  0.9085 -0.4051
 6307TIP3   OH240479   0.037   3.427   1.065  0.0757 -0.3896  0.2355
 6307TIP3    H140480   0.127   3.405   1.085 -0.1626 -2.3104 -0.6123
 6307TIP3    H240481  -0.012   3.401   1.143  0.1138 -0.3174  0.2844
 6308TIP3   OH240482   4.248   6.137   1.041  0.5925  0.4868 -0.0513
 6308TIP3    H140483   4.158   6.134   1.073  0.6448 -2.3089  0.0869
 6308TIP3    H240484   4.259   6.227   1.009 -2.3562  0.8073 -0.4661
 6309TIP3   OH240485   4.510   1.665   8.814 -0.7258 -0.1597  0.5158
 6309TIP3    H140486   4.482   1.628   8.897 -2.3111 -0.6764 -0.2150
 6309TIP3    H240487   4.591   1.617   8.793  1.0126  1.5593  2.8001
 6310TIP3   OH240488   0.831   4.184   0.536 -0.2074 -0.2140  0.1515
 6310TIP3    H140489   0.783   4.161   0.456 -0.6718  1.6296 -0.1367
 6310TIP3    H240490   0.920   4.153   0.520 -0.2522  0.2624 -1.1733
 6311TIP3   OH240491   4.893   6.661   1.476 -0.5864 -0.3639  0.5786
 6311TIP3    H140492   4.898   6.633   1.384  1.2755 -1.6619  1.0076
 6311TIP3    H240493   4.960   6.729   1.484  1.8047 -2.6416  1.6352
 6312TIP3   OH240494   4.268   5.084   8.290 -0.4084 -0.0271 -0.4145
 6312TIP3    H140495   4.317   5.020   8.342 -0.9688  0.3450  0.5840
 6312TIP3    H240496   4.228   5.031   8.220  1.5169 -0.3156 -1.3756
 6313TIP3   OH240497   4.318   6.048   6.566  0.4693 -0.3688  0.7428
 6313TIP3    H140498   4.366   6.009   6.493  3.0659 -1.3600  2.8028
 6313TIP3    H240499   4.240   5.993   6.576  0.1207 -0.2738 -1.1583
 6314TIP3   OH240500   6.461   0.643   6.427 -0.6603 -0.7644 -0.3272
 6314TIP3    H140501   6.395   0.711   6.414  1.0281  1.1879  0.9285
 6314TIP3    H240502   6.502   0.633   6.341 -1.0536 -0.3605 -0.5659
 6315TIP3   OH240503   6.627   0.665   1.753  0.5239 -0.3463 -0.0556
 6315TIP3    H140504   6.708   0.617   1.739  1.9826  1.8183  0.5192
 6315TIP3    H240505   6.601   0.694   1.666  0.6995 -0.5259 -0.1679
 6316TIP3   OH240506   2.272   5.208   8.577  0.0066  0.5329 -0.0159
 6316TIP3    H140507   2.269   5.268   8.503  0.7115  1.3647  0.6071
 6316TIP3    H240508   2.183   5.176   8.586 -0.2992  1.2010 -0.5965
 6317TIP3   OH240509   1.829   1.215   1.080  0.0046 -0.0357  0.6695
 6317TIP3    H140510   1.924   1.216   1.080  0.0246 -1.1464  0.9103
 6317TIP3    H240511   1.804   1.307   1.068  1.1039 -0.0405 -3.0018
 6318TIP3   OH240512   3.550   3.001   1.728  0.5035  0.3710  0.1561
 6318TIP3    H140513   3.625   3.057   1.751 -1.2761  2.2500  1.9093
 6318TIP3    H240514   3.545   2.937   1.799 -0.5250  1.3830  1.0470
 6319TIP3   OH240515   1.819   6.174   1.169  0.0109 -0.6177 -0.1649
 6319TIP3    H140516   1.775   6.102   1.215  0.7743 -1.8435 -1.2887
 6319TIP3    H240517   1.886   6.131   1.116  0.5211  0.9423 -0.8291
 6320TIP3   OH240518   0.666   4.784   1.096  0.2558 -0.1988  0.4900
 6320TIP3    H140519   0.604   4.844   1.056  0.8752  0.1078 -0.0289
 6320TIP3    H240520   0.655   4.702   1.047 -0.1342 -0.3156  0.7716
 6321TIP3   OH240521   5.097   4.482   0.931  0.6293 -0.7436 -0.2788
 6321TIP3    H140522   5.105   4.508   1.023  0.6679 -0.8883 -0.2410
 6321TIP3    H240523   5.004   4.492   0.911  0.1463 -3.1412  0.5041
 6322TIP3   OH240524   4.385   5.533   0.006  0.2027  0.5446  0.1475
 6322TIP3    H140525   4.299   5.543   0.045 -0.7243  0.3418 -1.7389
 6322TIP3    H240526   4.415   5.446   0.035  0.2953  1.0571  1.6899
 6323TIP3   OH240527   6.780   1.911   1.509  0.8723  0.0161  0.6879
 6323TIP3    H140528   6.826   1.886   1.430 -1.0059  1.6986 -1.0554
 6323TIP3    H240529   6.818   1.996   1.533  0.8689 -0.1034  1.1257
 6324TIP3   OH240530   0.813   3.822   1.115 -0.0747  0.4159  0.3514
 6324TIP3    H140531   0.745   3.887   1.129 -0.0080  1.2183 -2.4832
 6324TIP3    H240532   0.774   3.739   1.145 -1.6315  1.1252  0.3495
 6325TIP3   OH240533   0.792   3.291   8.729 -0.1752 -0.1684  0.4299
 6325TIP3    H140534   0.855   3.319   8.795 -1.8132  1.5405  1.3828
 6325TIP3    H240535   0.825   3.327   8.647  0.1641  0.5854  0.8906
 6326TIP3   OH240536   4.722   3.422   1.845  0.7948 -0.1356 -0.5104
 6326TIP3    H140537   4.724   3.327   1.828 -0.5953 -0.7151  2.0513
 6326TIP3    H240538   4.804   3.439   1.892  0.9319 -0.1218 -0.7549
 6327TIP3   OH240539   2.052   3.397   7.800 -0.3416  0.3471  0.5475
 6327TIP3    H140540   2.010   3.319   7.763  1.6391 -1.4057  1.7877
 6327TIP3    H240541   2.126   3.414   7.743 -0.6465  1.2383  0.3996
 6328TIP3   OH240542   4.644   0.506   8.727  0.1973  0.2521 -0.3397
 6328TIP3    H140543   4.613   0.567   8.661  1.4834  0.0840 -1.1159
 6328TIP3    H240544   4.691   0.560   8.791  2.5906 -0.0136 -1.7688
 6329TIP3   OH240545   2.408   3.228   8.017  0.0622  0.0785  0.2142
 6329TIP3    H140546   2.449   3.217   8.102  1.8486  0.8556 -0.4987
 6329TIP3    H240547   2.410   3.323   8.001  0.4485 -0.1167 -0.9968
 6330TIP3   OH240548   2.766   4.657   6.838 -0.3850 -0.2393 -0.2224
 6330TIP3    H140549   2.859   4.634   6.838  0.0841  1.4442 -1.7155
 6330TIP3    H240550   2.763   4.742   6.882 -1.1726 -0.1076 -0.5183
 6331TIP3   OH240551   5.595   1.162   0.157 -0.3399  0.1152  0.3117
 6331TIP3    H140552   5.673   1.187   0.207  0.6729  0.3954 -1.3067
 6331TIP3    H240553   5.626   1.092   0.099 -1.3769  0.0143 -0.1380
 6332TIP3   OH240554   0.217   6.176   1.382 -0.1542  0.5027  0.0539
 6332TIP3    H140555   0.236   6.086   1.407 -0.6013  0.0669 -1.0980
 6332TIP3    H240556   0.182   6.217   1.461  1.7969  0.2207  1.1157
 6333TIP3   OH240557   2.439   0.848   1.329 -0.3705  0.5608 -0.0118
 6333TIP3    H140558   2.412   0.930   1.288  1.2467  1.8697  1.3849
 6333TIP3    H240559   2.535   0.848   1.323 -0.3277 -2.5740 -2.3392
 6334TIP3   OH240560   4.677   6.779   0.244 -0.2750  0.1151  0.2872
 6334TIP3    H140561   4.695   6.687   0.222  3.1573  1.4110 -3.4721
 6334TIP3    H240562   4.609   6.805   0.182 -0.1744  0.4934  0.3372
 6335TIP3   OH240563   2.684   4.798   0.782 -0.2825 -0.0375 -0.2725
 6335TIP3    H140564   2.719   4.880   0.747 -0.4166 -0.6705 -2.0016
 6335TIP3    H240565   2.589   4.807   0.773 -0.3326 -0.1218  0.1631
 6336TIP3   OH240566   0.217   3.638   8.429 -0.7655 -0.3504 -0.2676
 6336TIP3    H140567   0.125   3.613   8.431 -0.9796  0.4169 -0.2948
 6336TIP3    H240568   0.258   3.582   8.495 -1.4951  0.2527  0.7200
 6337TIP3   OH240569   3.393   1.301   7.581 -0.1931 -0.4181 -0.7141
 6337TIP3    H140570   3.405   1.259   7.666 -0.8109 -1.3797 -1.0868
 6337TIP3    H240571   3.427   1.238   7.517  1.6216  0.8797 -1.1297
 6338TIP3   OH240572   4.156   3.726   7.841 -0.3087 -0.2227  0.1472
 6338TIP3    H140573   4.074   3.764   7.870 -0.4952  1.5355 -2.3826
 6338TIP3    H240574   4.218   3.799   7.839  0.7405 -1.0860 -0.0252
 6339TIP3   OH240575   0.646   2.142   7.523  0.2029  0.6705 -0.1630
 6339TIP3    H140576   0.599   2.062   7.546  0.8626  0.1272 -0.6636
 6339TIP3    H240577   0.634   2.200   7.599 -0.4105  0.1608  0.1348
 6340TIP3   OH240578   2.697   6.748   6.230 -0.3512 -0.0613 -0.7650
 6340TIP3    H140579   2.626   6.811   6.215 -1.9104 -1.3614  0.7006
 6340TIP3    H240580   2.777   6.798   6.217 -1.5210  1.6688 -1.7043
 6341TIP3   OH240581   2.065   4.201   0.246 -0.0280 -0.6651 -0.1909
 6341TIP3    H140582   1.971   4.201   0.267  0.3184 -1.4386  1.5803
 6341TIP3    H240583   2.091   4.293   0.253 -0.4213 -0.6024  0.5781
 6342TIP3   OH240584   3.837   5.458   1.913  0.5193  0.3856  0.4452
 6342TIP3    H140585   3.863   5.367   1.925  0.8801  0.0931 -1.9438
 6342TIP3    H240586   3.741   5.455   1.910  0.4380  0.3999  2.2102
 6343TIP3   OH240587   0.578   3.875   7.984 -0.2775 -0.1550 -0.5730
 6343TIP3    H140588   0.642   3.821   7.939  0.9423  1.5281 -0.9301
 6343TIP3    H240589   0.575   3.839   8.073  1.8377  0.2542 -0.2816
 6344TIP3   OH240590   1.634   0.609   8.641 -0.1379  0.4935  0.1402
 6344TIP3    H140591   1.663   0.600   8.551 -0.4762 -0.2059  0.0894
 6344TIP3    H240592   1.704   0.568   8.693  0.0592  0.8998  0.2016
 6345TIP3   OH240593   1.471   0.377   8.436  0.1668 -0.3898 -0.1547
 6345TIP3    H140594   1.468   0.384   8.531 -0.3531  0.0716 -0.1970
 6345TIP3    H240595   1.467   0.283   8.418  0.0173 -0.4669  0.2695
 6346TIP3   OH240596   0.910   2.907   7.616 -0.3483  0.5047 -0.2158
 6346TIP3    H140597   0.849   2.839   7.586  0.0181  0.0967 -0.0358
 6346TIP3    H240598   0.861   2.953   7.685 -0.6795  0.5711 -0.4885
 6347TIP3   OH240599   0.124   3.213   0.565 -0.2926  0.1054  0.3849
 6347TIP3    H140600   0.173   3.165   0.631  1.3093  1.2912  0.1305
 6347TIP3    H240601   0.034   3.182   0.574  0.6109 -2.8562  0.2431
 6348TIP3   OH240602   3.414   2.080   1.532 -0.3443 -0.0214 -0.5310
 6348TIP3    H140603   3.416   2.013   1.600 -0.6739  0.2794 -0.2231
 6348TIP3    H240604   3.334   2.061   1.482  0.2975 -0.7180 -1.3267
 6349TIP3   OH240605   4.827   4.926   6.669  0.7349  0.0054 -0.2289
 6349TIP3    H140606   4.845   4.836   6.641 -0.8312 -0.5290  0.3851
 6349TIP3    H240607   4.842   4.924   6.764  2.3332  0.8453 -0.4339
 6350TIP3   OH240608   1.356   5.180   0.501 -0.0445 -0.2926 -0.1117
 6350TIP3    H140609   1.325   5.269   0.516 -0.9696 -0.7654  0.8929
 6350TIP3    H240610   1.280   5.133   0.466  0.6791 -0.4900 -1.5047
 6351TIP3   OH240611   4.475   3.611   7.814  0.6375 -0.6730 -0.2984
 6351TIP3    H140612   4.525   3.686   7.783 -0.5477  0.0324 -0.5621
 6351TIP3    H240613   4.442   3.570   7.734 -0.9814  0.1389 -0.0846
 6352TIP3   OH240614   1.853   4.061   8.772 -0.2147  0.1225  0.0041
 6352TIP3    H140615   1.818   4.043   8.685  1.6913 -0.3433 -0.7244
 6352TIP3    H240616   1.798   4.131   8.806 -0.7962  0.5617 -1.7312
 6353TIP3   OH240617   5.376   5.259   7.972  0.1598 -0.6130  0.0183
 6353TIP3    H140618   5.366   5.164   7.985 -0.5519 -0.6314 -0.5453
 6353TIP3    H240619   5.307   5.297   8.026 -1.9611 -0.6282 -2.4844
 6354TIP3   OH240620   2.731   2.189   8.265 -0.0222 -0.3189  0.3476
 6354TIP3    H140621   2.758   2.213   8.354  0.3744 -0.4908  0.2763
 6354TIP3    H240622   2.659   2.248   8.245 -0.3474 -0.5137  0.9186
 6355TIP3   OH240623   5.729   6.585   7.983 -0.4571 -0.1725 -0.1663
 6355TIP3    H140624   5.824   6.575   7.973 -0.4825 -1.8441  0.9100
 6355TIP3    H240625   5.711   6.674   7.952  1.4024  0.0514 -0.7329
 6356TIP3   OH240626   4.640   0.383   6.783  0.3412 -0.3651  0.2604
 6356TIP3    H140627   4.544   0.378   6.777  0.3029  1.2814 -2.1210
 6356TIP3    H240628   4.658   0.477   6.791  1.7596 -0.7412  1.8566
 6357TIP3   OH240629   4.936   3.707   6.659 -0.1775 -0.0025 -0.1861
 6357TIP3    H140630   4.978   3.631   6.618 -0.6850  0.2718 -1.2638
 6357TIP3    H240631   4.985   3.722   6.739  0.7179 -0.7003 -0.5888
 6358TIP3   OH240632   3.875   3.667   1.373  0.3257 -0.1319 -0.2129
 6358TIP3    H140633   3.873   3.763   1.366 -1.5371  0.1490  2.5386
 6358TIP3    H240634   3.966   3.644   1.352  0.7806  2.1865 -1.1756
 6359TIP3   OH240635   2.630   2.022   1.549 -0.0625 -0.2539  0.1394
 6359TIP3    H140636   2.579   2.102   1.566  1.1483  0.3285  1.1473
 6359TIP3    H240637   2.578   1.952   1.587 -1.0623  0.0497 -0.6071
 6360TIP3   OH240638   4.254   2.211   1.797  1.0483  0.3042  0.2604
 6360TIP3    H140639   4.228   2.186   1.708 -3.0120  1.7986  0.8408
 6360TIP3    H240640   4.294   2.297   1.787  0.9664  0.2973 -0.1436
 6361TIP3   OH240641   0.688   0.249   1.911  0.1687 -0.4767  0.0546
 6361TIP3    H140642   0.739   0.170   1.925  2.7062  1.1240  0.4274
 6361TIP3    H240643   0.704   0.303   1.988 -1.9431  0.2413  0.0700
 6362TIP3   OH240644   3.960   1.019   7.118  0.1794 -0.0413  0.2641
 6362TIP3    H140645   3.975   0.974   7.201 -0.5507  1.1701  1.0776
 6362TIP3    H240646   3.937   0.949   7.057 -1.7592 -0.7173  1.6848
 6363TIP3   OH240647   5.582   3.474   0.667  1.1985 -0.0160  0.0083
 6363TIP3    H140648   5.526   3.412   0.621  2.6417 -1.2002 -0.1985
 6363TIP3    H240649   5.629   3.520   0.598  0.9581  0.5449  0.2075
 6364TIP3   OH240650   5.966   4.446   0.681 -0.7577 -0.0831  0.0601
 6364TIP3    H140651   5.965   4.480   0.771 -0.2338  2.4709 -0.8108
 6364TIP3    H240652   6.028   4.503   0.635 -0.4095 -1.8368 -1.7696
 6365TIP3   OH240653   3.989   4.209   1.137  0.5233 -0.2479  0.2695
 6365TIP3    H140654   3.936   4.288   1.152 -2.9976 -2.2284 -0.5009
 6365TIP3    H240655   4.016   4.182   1.224 -1.3725 -0.1010  0.9572
 6366TIP3   OH240656   5.686   6.541   7.170 -0.4766 -0.1847 -0.4841
 6366TIP3    H140657   5.705   6.447   7.172 -0.2191 -0.1150  1.0810
 6366TIP3    H240658   5.651   6.556   7.082 -1.8923 -2.0225 -0.2886
 6367TIP3   OH240659   2.243   3.158   0.197  0.2088  0.0739  0.5584
 6367TIP3    H140660   2.178   3.225   0.175  0.8054  0.0993 -1.3857
 6367TIP3    H240661   2.208   3.115   0.275 -0.5556  2.1422  1.4453
 6368TIP3   OH240662   1.178   0.575   0.667  0.2234 -0.0159  0.3069
 6368TIP3    H140663   1.252   0.537   0.714 -0.0142  0.1267  0.8048
 6368TIP3    H240664   1.124   0.499   0.642 -0.2393 -0.0178  1.2808
 6369TIP3   OH240665   3.744   3.549   0.694 -0.5155  0.2771 -0.6459
 6369TIP3    H140666   3.810   3.603   0.738 -0.3024  0.3243 -1.0259
 6369TIP3    H240667   3.768   3.459   0.716 -0.2275  0.2858 -0.9177
 6370TIP3   OH240668   5.560   2.300   1.779 -0.4323  0.7171  0.0325
 6370TIP3    H140669   5.586   2.235   1.844 -0.3607  1.2230  0.5127
 6370TIP3    H240670   5.547   2.381   1.828  1.5570  1.6378 -0.7869
 6371TIP3   OH240671   4.351   4.376   6.138 -0.5066 -0.3639 -0.0792
 6371TIP3    H140672   4.422   4.393   6.075 -0.1269 -1.6764 -0.0302
 6371TIP3    H240673   4.286   4.327   6.088 -0.3567 -1.1228  0.4634
 6372TIP3   OH240674   0.635   2.200   7.244  0.1088 -0.0334 -0.2272
 6372TIP3    H140675   0.632   2.167   7.333 -2.9154  1.4838  0.3514
 6372TIP3    H240676   0.699   2.272   7.247 -0.6813  0.6486  1.0034
 6373TIP3   OH240677   6.751   0.702   2.178  0.6573  0.1831 -0.3005
 6373TIP3    H140678   6.746   0.606   2.168  1.2201  0.2702 -1.7704
 6373TIP3    H240679   6.660   0.730   2.181  0.4864 -0.4166  0.2689
 6374TIP3   OH240680   2.607   5.067   6.805  0.3262  0.7597 -0.1271
 6374TIP3    H140681   2.628   5.096   6.894 -0.6158  0.5070  0.1849
 6374TIP3    H240682   2.577   5.147   6.761 -0.5774  0.6209  0.2138
 6375TIP3   OH240683   4.592   1.536   7.024  0.0238 -0.6057 -0.3221
 6375TIP3    H140684   4.602   1.625   7.058 -1.4990 -0.0357 -1.2705
 6375TIP3    H240685   4.674   1.519   6.977  0.1219  0.4961 -0.5778
 6376TIP3   OH240686   4.346   5.513   0.791 -0.0523 -0.8914  0.1247
 6376TIP3    H140687   4.404   5.572   0.840  1.9864 -0.6032 -2.4310
 6376TIP3    H240688   4.368   5.426   0.824  1.6444 -0.7545 -0.5270
 6377TIP3   OH240689   3.623   3.295   6.721 -0.1337 -0.6057  0.5714
 6377TIP3    H140690   3.635   3.385   6.751  0.1932 -0.3116 -0.3930
 6377TIP3    H240691   3.591   3.304   6.631  0.7111 -1.4394  0.1655
 6378TIP3   OH240692   1.521   6.559   1.135 -0.4189  0.1743  0.1290
 6378TIP3    H140693   1.492   6.594   1.219  1.6680  1.9060  0.2255
 6378TIP3    H240694   1.553   6.471   1.155  0.0139  0.5541  1.1532
 6379TIP3   OH240695   6.019   6.729   8.812  0.0915 -0.2278 -0.2022
 6379TIP3    H140696   5.951   6.760   8.753 -0.7095  0.1916  0.9051
 6379TIP3    H240697   6.011   6.634   8.810 -1.6902 -0.1519  1.1827
 6380TIP3   OH240698   0.004   1.351   7.885 -0.4281 -0.7985 -0.1215
 6380TIP3    H140699   0.030   1.262   7.862 -0.2864 -0.5479 -0.9725
 6380TIP3    H240700  -0.063   1.373   7.821  0.5629  0.2243 -0.8341
 6381TIP3   OH240701   5.613   0.289   7.407 -0.9358 -0.1469  0.3705
 6381TIP3    H140702   5.689   0.246   7.444  0.3232  1.4066 -0.3062
 6381TIP3    H240703   5.603   0.250   7.320 -1.0789 -0.5274  0.5558
 6382TIP3   OH240704   2.573   6.439   7.243 -0.1537  0.1426 -0.9307
 6382TIP3    H140705   2.516   6.425   7.168  0.7447  1.0007 -1.8075
 6382TIP3    H240706   2.609   6.527   7.229 -0.4947  0.6121  0.8645
 6383TIP3   OH240707   0.094   2.099   0.467  0.6791  0.2532 -0.0508
 6383TIP3    H140708   0.160   2.150   0.419  0.5461  0.4586 -0.0162
 6383TIP3    H240709   0.052   2.163   0.524 -0.6613  0.4574 -1.2293
 6384TIP3   OH240710   4.547   2.683   6.530 -0.5539  0.0919 -0.5856
 6384TIP3    H140711   4.529   2.618   6.597  2.1368  1.2799  1.4422
 6384TIP3    H240712   4.461   2.718   6.508 -1.9083 -2.9204 -0.5789
 6385TIP3   OH240713   2.365   4.244   8.844  0.0675 -0.1491  0.2711
 6385TIP3    H140714   2.287   4.189   8.847  0.2940 -0.4382  1.3283
 6385TIP3    H240715   2.438   4.185   8.863  0.2601  0.5545  1.9860
 6386TIP3   OH240716   2.302   6.369   0.383 -0.5662 -0.0301  0.4221
 6386TIP3    H140717   2.309   6.439   0.448  0.2738  0.8583 -0.5842
 6386TIP3    H240718   2.213   6.336   0.393 -0.9087  1.0369  1.0776
 6387TIP3   OH240719   1.568   1.995   6.692  0.0025 -0.7613  0.4530
 6387TIP3    H140720   1.561   1.903   6.667  0.3864 -1.2890  2.1507
 6387TIP3    H240721   1.589   2.041   6.611  0.6144 -2.2853 -0.2857
 6388TIP3   OH240722   0.016   0.760   6.339 -0.0936  0.0041  0.7262
 6388TIP3    H140723  -0.008   0.675   6.375 -1.8453  0.8415  1.6832
 6388TIP3    H240724   0.038   0.814   6.415  0.5377  0.5539  0.1746
 6389TIP3   OH240725   4.928   5.624   1.110  0.1263 -0.0763 -0.2191
 6389TIP3    H140726   4.966   5.568   1.177 -0.0602 -0.0448 -0.0857
 6389TIP3    H240727   5.002   5.657   1.060  0.2438 -0.3712 -0.2404
 6390TIP3   OH240728   2.733   2.078   6.030 -0.4743  0.0980 -0.4835
 6390TIP3    H140729   2.653   2.125   6.055 -2.4182 -3.0516 -0.0704
 6390TIP3    H240730   2.764   2.040   6.112  1.2567  0.9011 -0.7300
 6391TIP3   OH240731   6.149   6.102   0.588 -0.3143 -0.1871  0.1960
 6391TIP3    H140732   6.144   6.178   0.647 -0.5561  1.7290 -2.1322
 6391TIP3    H240733   6.058   6.071   0.582 -0.1615 -0.9715  1.4416
 6392TIP3   OH240734   4.414   1.107   1.944  0.0143 -0.0734 -0.0520
 6392TIP3    H140735   4.404   1.174   1.877  0.5070  0.6988  0.6361
 6392TIP3    H240736   4.325   1.073   1.957 -0.0558 -0.3822 -1.2286
 6393TIP3   OH240737   3.979   0.066   8.636  0.0274  0.0718  0.0814
 6393TIP3    H140738   3.985   0.138   8.698 -0.2073 -0.3294  0.5780
 6393TIP3    H240739   3.885   0.056   8.620 -0.0197 -0.7955  0.8264
 6394TIP3   OH240740   3.288   4.908   2.089  0.0231  0.3716  0.4211
 6394TIP3    H140741   3.198   4.916   2.057  0.2937  1.4355 -0.1339
 6394TIP3    H240742   3.279   4.882   2.181 -1.0146  3.8834  1.4633
 6395TIP3   OH240743   5.931   5.031   7.434  0.1763  0.5388 -0.1299
 6395TIP3    H140744   5.985   5.020   7.356  0.5655 -3.5441  0.5457
 6395TIP3    H240745   5.842   5.041   7.399  0.2095 -2.1352 -1.1841
 6396TIP3   OH240746   3.223   4.342   0.684 -0.2572  0.2724 -0.4745
 6396TIP3    H140747   3.193   4.256   0.654  2.3577 -0.7525 -0.3969
 6396TIP3    H240748   3.201   4.401   0.612 -3.2168 -0.1332 -0.0304
 6397TIP3   OH240749   1.480   6.376   2.218 -0.1977  0.1115  0.0046
 6397TIP3    H140750   1.501   6.433   2.292 -0.9315 -1.6319  1.6353
 6397TIP3    H240751   1.414   6.424   2.168 -1.6716  0.2570  1.9812
 6398TIP3   OH240752   0.838   3.003   0.431 -0.4546  0.0288  0.7622
 6398TIP3    H140753   0.824   2.909   0.444 -0.1261  0.0345  1.1745
 6398TIP3    H240754   0.925   3.009   0.391 -1.3748  0.0230 -1.3872
 6399TIP3   OH240755   0.172   5.367   2.344 -0.2268 -0.0780 -0.0209
 6399TIP3    H140756   0.220   5.293   2.306  0.9360  1.2102 -1.1847
 6399TIP3    H240757   0.207   5.443   2.298 -2.0152  1.1141  0.5290
 6400TIP3   OH240758   1.797   4.771   1.266  0.5077  0.4337  0.0823
 6400TIP3    H140759   1.808   4.681   1.295  0.7376 -0.4109 -2.3811
 6400TIP3    H240760   1.730   4.766   1.198  0.3974  2.1564  0.0296
 6401TIP3   OH240761   2.678   2.542   1.100  0.0253 -0.1210 -0.4476
 6401TIP3    H140762   2.676   2.602   1.175  3.2615  0.2921 -0.5579
 6401TIP3    H240763   2.673   2.599   1.023  0.8530 -0.1542 -0.5358
 6402TIP3   OH240764   0.624   6.264   6.820  0.2579  0.1052  0.6939
 6402TIP3    H140765   0.535   6.237   6.798  0.6594  0.2867 -1.2935
 6402TIP3    H240766   0.668   6.183   6.845  0.0524 -0.3050 -0.2265
 6403TIP3   OH240767   0.752   2.675   7.568 -0.8070 -0.1301 -0.6630
 6403TIP3    H140768   0.669   2.643   7.535 -0.4671 -1.3610 -0.3716
 6403TIP3    H240769   0.752   2.653   7.661 -0.0203 -0.4473 -0.7279
 6404TIP3   OH240770   3.085   1.220   0.380 -0.7652  0.1815  0.3736
 6404TIP3    H140771   3.012   1.179   0.334 -1.4690  0.7152  1.0007
 6404TIP3    H240772   3.090   1.308   0.343 -1.5428  0.7237  1.5370
 6405TIP3   OH240773   1.506   1.319   7.078  0.4228  0.4214 -0.4062
 6405TIP3    H140774   1.589   1.331   7.126  0.4449  0.2247 -0.3971
 6405TIP3    H240775   1.507   1.389   7.013  0.9024  0.0229 -0.8372
 6406TIP3   OH240776   0.477   6.522   8.580  0.1876  0.1040  0.8920
 6406TIP3    H140777   0.458   6.452   8.642  0.5478 -0.2895  0.5565
 6406TIP3    H240778   0.539   6.485   8.519 -0.0274  0.5475  0.3926
 6407TIP3   OH240779   6.344   4.067   8.539  0.0638 -0.5097  0.6138
 6407TIP3    H140780   6.279   4.134   8.517  1.9225  1.3407  0.4263
 6407TIP3    H240781   6.428   4.114   8.538  1.6213 -3.1174 -0.7320
 6408TIP3   OH240782   5.513   2.513   1.954  0.4534  0.1283  0.0985
 6408TIP3    H140783   5.529   2.513   2.049 -0.0535  1.1500  0.1914
 6408TIP3    H240784   5.439   2.571   1.942  1.3128  1.0283 -1.0693
 6409TIP3   OH240785   6.134   2.098   1.579 -0.3700  0.6223 -0.0258
 6409TIP3    H140786   6.155   2.051   1.659 -0.2023  1.0560  0.1889
 6409TIP3    H240787   6.210   2.083   1.522 -0.3382  0.5946  0.0242
 6410TIP3   OH240788   6.723   5.721   0.126  0.0785  0.0413 -0.0620
 6410TIP3    H140789   6.779   5.666   0.073  1.4750  1.1427  0.2102
 6410TIP3    H240790   6.634   5.697   0.100  0.6904 -0.7488 -1.5268
 6411TIP3   OH240791   2.455   5.393   2.569 -0.6273 -0.5646  0.1040
 6411TIP3    H140792   2.376   5.361   2.613 -1.8189  0.5404 -1.1193
 6411TIP3    H240793   2.435   5.484   2.548 -0.1316 -0.9947 -2.6170
 6412TIP3   OH240794   2.836   0.951   8.606 -0.4690  0.1573 -0.1239
 6412TIP3    H140795   2.871   1.001   8.532 -0.8510  0.3121 -0.2035
 6412TIP3    H240796   2.745   0.933   8.582 -0.2557 -0.8497 -0.2308
 6413TIP3   OH240797   1.620   5.746   7.197  0.3942 -0.6021 -0.0423
 6413TIP3    H140798   1.616   5.707   7.284  0.4099 -0.9355 -0.1883
 6413TIP3    H240799   1.615   5.672   7.137 -0.1827 -0.3307 -0.3361
 6414TIP3   OH240800   6.704   3.886   1.550 -0.3829  0.1723 -0.6209
 6414TIP3    H140801   6.690   3.969   1.596 -0.6906 -0.3670  0.2936
 6414TIP3    H240802   6.642   3.888   1.478 -0.5206  0.6600 -0.4946
 6415TIP3   OH240803   5.898   2.373   7.706  0.0155  0.2628  0.3849
 6415TIP3    H140804   5.861   2.348   7.621  0.2319 -0.4953  0.5074
 6415TIP3    H240805   5.824   2.411   7.754 -0.6753 -1.3623  0.6781
 6416TIP3   OH240806   3.878   3.868   0.361  0.4461 -0.1765 -0.2363
 6416TIP3    H140807   3.859   3.958   0.388 -0.4440  0.4420 -2.6327
 6416TIP3    H240808   3.911   3.876   0.272  0.4337 -2.2314 -0.4836
 6417TIP3   OH240809   0.116   6.539   1.126  0.1872 -0.1125 -0.0078
 6417TIP3    H140810   0.161   6.605   1.178 -1.4868  0.3218  0.9718
 6417TIP3    H240811   0.164   6.536   1.043  0.9145  1.5780  0.3199
 6418TIP3   OH240812   0.852   1.060   7.217 -0.6596  0.0256  0.1579
 6418TIP3    H140813   0.858   0.965   7.221 -1.1939 -0.0135  0.1341
 6418TIP3    H240814   0.924   1.086   7.159 -1.1508 -0.4502 -0.6811
 6419TIP3   OH240815   0.427   6.004   1.212 -0.4753 -0.0161  0.6680
 6419TIP3    H140816   0.404   6.041   1.127 -1.4681 -0.0635  0.9022
 6419TIP3    H240817   0.518   5.975   1.202  0.3275  2.3498  0.4560
 6420TIP3   OH240818   5.180   1.989   8.633  0.2681  0.1483  0.3923
 6420TIP3    H140819   5.257   2.039   8.605 -0.8355  1.9262  0.3708
 6420TIP3    H240820   5.161   2.021   8.721 -0.8167  0.2095  0.1447
 6421TIP3   OH240821   2.194   5.659   0.037  0.0093  0.1642 -0.5872
 6421TIP3    H140822   2.133   5.675  -0.035 -0.8023  0.2805  0.0989
 6421TIP3    H240823   2.145   5.602   0.097  1.0457 -0.7944 -0.6225
 6422TIP3   OH240824   4.559   0.798   0.259 -0.6723  0.3523  0.1758
 6422TIP3    H140825   4.514   0.751   0.189 -0.6176  0.7135 -0.1069
 6422TIP3    H240826   4.564   0.736   0.331  0.7542 -0.6130 -0.7171
 6423TIP3   OH240827   1.150   3.664   8.701 -0.3565 -0.3727 -0.0949
 6423TIP3    H140828   1.162   3.753   8.732 -1.0728  0.4348 -1.9458
 6423TIP3    H240829   1.216   3.653   8.632 -0.7823 -0.9920 -0.4190
 6424TIP3   OH240830   5.330   6.444   7.094  0.4559  0.1385  0.2421
 6424TIP3    H140831   5.273   6.472   7.022  1.8817 -0.0763 -1.0185
 6424TIP3    H240832   5.415   6.483   7.074  0.9095  0.0050  1.7878
 6425TIP3   OH240833   1.141   3.277   0.984 -0.2074 -0.0375  0.2044
 6425TIP3    H140834   1.125   3.266   0.890  0.6005  0.7756 -0.0432
 6425TIP3    H240835   1.122   3.370   1.001  1.4053  0.2751  0.4626
 6426TIP3   OH240836   5.241   1.607   7.260 -0.3665  0.1159 -0.3519
 6426TIP3    H140837   5.268   1.595   7.351 -0.9432 -0.1271 -0.2048
 6426TIP3    H240838   5.255   1.700   7.243 -1.3229  0.4112  0.3525
 6427TIP3   OH240839   1.115   2.467   0.748  0.3967  0.0147 -0.6058
 6427TIP3    H140840   1.162   2.387   0.725  0.0826 -0.5679  0.7122
 6427TIP3    H240841   1.184   2.527   0.776  0.5489 -0.0725 -0.7862
 6428TIP3   OH240842   6.390   0.533   7.105 -0.4914 -0.0372  0.5246
 6428TIP3    H140843   6.391   0.449   7.151  2.0388 -0.1603  0.4301
 6428TIP3    H240844   6.378   0.598   7.174  1.4550 -0.3148  1.1853
 6429TIP3   OH240845   3.459   5.901   0.363  0.1389  0.0640  0.2843
 6429TIP3    H140846   3.534   5.960   0.363 -0.4842  1.0170 -2.6750
 6429TIP3    H240847   3.454   5.868   0.273 -1.1261 -2.4734  1.1891
 6430TIP3   OH240848   4.799   1.402   8.582 -0.1834 -0.6938  0.1049
 6430TIP3    H140849   4.892   1.385   8.567 -0.6378 -2.5679 -0.8791
 6430TIP3    H240850   4.792   1.418   8.676  1.4487  2.0661 -0.1377
 6431TIP3   OH240851   4.978   6.745   6.827  0.1764 -0.6929 -0.0662
 6431TIP3    H140852   4.923   6.668   6.811  1.2185 -1.1600 -1.6238
 6431TIP3    H240853   4.957   6.805   6.755  1.3666 -0.7090 -0.4522
 6432TIP3   OH240854   0.141   3.872   0.908 -0.5882 -0.0504 -0.4864
 6432TIP3    H140855   0.201   3.816   0.958  1.2651  1.6831 -0.6436
 6432TIP3    H240856   0.062   3.819   0.899  0.2653 -1.7750  1.2404
 6433TIP3   OH240857   4.108   6.277   7.858 -0.6188  0.1630 -0.7850
 6433TIP3    H140858   4.131   6.370   7.852  0.8586 -0.0630  0.5102
 6433TIP3    H240859   4.116   6.244   7.769 -0.7632  1.1822 -1.1886
 6434TIP3   OH240860   5.317   4.401   0.007 -0.5330 -0.2398 -0.3743
 6434TIP3    H140861   5.363   4.318   0.020  0.7779  0.6406  1.0601
 6434TIP3    H240862   5.318   4.415  -0.088  2.6852 -0.0661 -0.4359
 6435TIP3   OH240863   4.831   5.275   8.334 -0.1751 -0.0379 -0.2355
 6435TIP3    H140864   4.783   5.358   8.339 -0.2118 -0.0198 -0.8473
 6435TIP3    H240865   4.923   5.301   8.345 -0.1860  0.0873 -0.4227
 6436TIP3   OH240866   0.477   4.769   7.530 -0.0585  0.4249 -0.4835
 6436TIP3    H140867   0.561   4.807   7.555  0.1581  0.3044 -1.0185
 6436TIP3    H240868   0.493   4.728   7.445 -0.0850 -1.5365  0.3962
 6437TIP3   OH240869   0.881   2.619   7.020 -0.3805  0.3748 -0.3039
 6437TIP3    H140870   0.790   2.591   7.021 -0.1032 -0.6391 -1.5868
 6437TIP3    H240871   0.931   2.539   7.007  0.7034  0.9260  0.3108
 6438TIP3   OH240872   4.156   1.107   2.082 -0.1761  0.5677 -0.1652
 6438TIP3    H140873   4.119   1.185   2.042  0.5995  1.1397  0.2070
 6438TIP3    H240874   4.092   1.038   2.065  0.1712  0.7469 -2.4737
 6439TIP3   OH240875   3.752   0.922   0.818  0.1437 -0.0240  0.5190
 6439TIP3    H140876   3.793   0.845   0.856 -0.1954 -0.9558 -0.9522
 6439TIP3    H240877   3.689   0.951   0.884 -0.6223 -1.7517  0.5876
 6440TIP3   OH240878   6.380   1.661   0.507  0.2556  0.3078 -0.2730
 6440TIP3    H140879   6.416   1.724   0.569 -0.2528  0.2345  0.1021
 6440TIP3    H240880   6.308   1.620   0.554 -0.1831  0.3066 -0.9385
 6441TIP3   OH240881   4.071   0.285   0.371 -0.2207  1.0618 -0.0344
 6441TIP3    H140882   4.002   0.344   0.400 -2.2790 -1.5212  0.7545
 6441TIP3    H240883   4.123   0.268   0.450 -0.9244  0.2464  0.2716
 6442TIP3   OH240884   6.591   1.362   7.677 -0.1173 -0.2452 -0.2294
 6442TIP3    H140885   6.580   1.271   7.647  0.3813  0.0826 -1.5099
 6442TIP3    H240886   6.657   1.398   7.617 -0.7523  1.1391 -0.1344
 6443TIP3   OH240887   5.446   5.143   0.045 -0.8912  0.4790 -0.9125
 6443TIP3    H140888   5.461   5.179   0.133  1.2247  0.6598 -1.3026
 6443TIP3    H240889   5.412   5.055   0.061 -1.1886  0.7594  0.0757
 6444TIP3   OH240890   5.155   4.670   7.408 -0.7523 -0.1429 -0.3756
 6444TIP3    H140891   5.079   4.648   7.462  0.5214  3.2041  3.1524
 6444TIP3    H240892   5.120   4.730   7.342 -1.5536 -0.6609 -0.4456
 6445TIP3   OH240893   5.525   0.425   0.900  0.4203 -0.1363 -0.1081
 6445TIP3    H140894   5.558   0.341   0.929  1.5287  0.4112  0.2812
 6445TIP3    H240895   5.458   0.448   0.964  0.4203 -0.5182  0.0312
 6446TIP3   OH240896   0.144   1.750   0.798 -0.1128  0.2599 -0.6777
 6446TIP3    H140897   0.057   1.711   0.789  0.3779 -1.4842  1.2974
 6446TIP3    H240898   0.201   1.677   0.823  1.7606  1.5064 -1.0787
 6447TIP3   OH240899   2.638   0.767   8.068  0.6454 -0.1048 -0.3464
 6447TIP3    H140900   2.704   0.821   8.111 -0.3098  2.8761 -2.3096
 6447TIP3    H240901   2.559   0.822   8.068 -0.4408 -1.5515 -2.3779
 6448TIP3   OH240902   0.656   5.713   8.390  0.0626 -0.0802  0.2637
 6448TIP3    H140903   0.610   5.656   8.328  1.4610 -0.5389 -0.3770
 6448TIP3    H240904   0.597   5.719   8.465 -0.1811 -2.2593  0.2927
 6449TIP3   OH240905   4.777   3.056   0.938 -0.4534  0.1172 -0.0840
 6449TIP3    H140906   4.750   3.023   0.852 -0.5373  0.2296 -0.1016
 6449TIP3    H240907   4.752   2.987   0.999 -0.5804  0.1246 -0.1273
 6450TIP3   OH240908   1.600   2.392   1.859 -0.4243 -0.4108 -0.6160
 6450TIP3    H140909   1.579   2.310   1.904 -1.2489  0.1563  0.0755
 6450TIP3    H240910   1.574   2.376   1.768  1.4605 -1.6422 -1.0017
 6451TIP3   OH240911   3.175   2.430   0.736 -0.0590 -0.4628 -0.4569
 6451TIP3    H140912   3.218   2.511   0.761  0.0822 -0.2010 -1.5057
 6451TIP3    H240913   3.246   2.369   0.719 -0.1639 -1.2517  1.6062
 6452TIP3   OH240914   0.950   0.712   6.976  0.5777  0.3569  0.2615
 6452TIP3    H140915   0.968   0.806   6.970 -0.6309  0.5462 -0.8993
 6452TIP3    H240916   0.913   0.700   7.063  0.7783  0.9495  0.4348
 6453TIP3   OH240917   5.894   4.492   1.343  0.3925  0.2436  0.5146
 6453TIP3    H140918   5.973   4.540   1.320 -0.2840  0.1288 -2.3979
 6453TIP3    H240919   5.837   4.500   1.267 -1.5560 -1.4578  1.6698
 6454TIP3   OH240920   3.872   4.865   1.384 -0.0352 -0.1420 -0.2387
 6454TIP3    H140921   3.777   4.880   1.384 -0.2245 -0.7889 -2.6273
 6454TIP3    H240922   3.885   4.805   1.310  2.2839  0.2170 -0.1683
 6455TIP3   OH240923   6.274   4.985   2.265  0.1920  0.0354  0.1623
 6455TIP3    H140924   6.200   4.995   2.324  0.2201  1.6739 -0.0274
 6455TIP3    H240925   6.300   5.075   2.244  0.2494 -0.4806 -2.2523
 6456TIP3   OH240926   1.756   3.713   1.453  0.3620 -0.9588 -0.4401
 6456TIP3    H140927   1.691   3.774   1.488 -0.2548 -2.2389  0.7618
 6456TIP3    H240928   1.758   3.731   1.359 -0.3873  0.3344 -0.2357
 6457TIP3   OH240929   6.777   1.041   8.128 -0.3201  0.0074  0.0907
 6457TIP3    H140930   6.703   1.103   8.131 -0.6717 -0.2852 -1.3507
 6457TIP3    H240931   6.757   0.985   8.053  0.9120 -0.6867  0.2584
 6458TIP3   OH240932   4.317   2.743   0.850 -0.2795 -0.7208  0.9769
 6458TIP3    H140933   4.355   2.716   0.766 -0.9297 -0.7993  0.7058
 6458TIP3    H240934   4.275   2.827   0.831  1.5602  0.4425  1.7647
 6459TIP3   OH240935   0.402   1.007   1.282 -0.2471  0.3655 -0.7352
 6459TIP3    H140936   0.492   0.976   1.295  0.0507  1.4994  0.1136
 6459TIP3    H240937   0.392   1.078   1.346 -1.9956 -0.2098 -0.3104
 6460TIP3   OH240938   0.766   0.029   6.245 -0.0449  0.1953  0.4613
 6460TIP3    H140939   0.763  -0.046   6.305 -1.3140  1.0758  1.5644
 6460TIP3    H240940   0.847   0.074   6.267  1.8661 -1.9176 -1.6646
 6461TIP3   OH240941   1.672   5.216   8.399  0.1719  0.1165  0.4074
 6461TIP3    H140942   1.649   5.124   8.384  0.0439  0.5005 -2.3267
 6461TIP3    H240943   1.608   5.247   8.463  0.5226 -1.7804  1.7794
 6462TIP3   OH240944   2.527   6.421   0.573 -0.3681  0.4551  0.1186
 6462TIP3    H140945   2.556   6.345   0.624 -1.5015 -0.8948 -1.1328
 6462TIP3    H240946   2.435   6.433   0.597 -0.2157  1.4186  0.2595
 6463TIP3   OH240947   6.746   5.990   0.094  0.1377  0.1816  0.1460
 6463TIP3    H140948   6.721   5.906   0.131 -0.1627  0.3503  0.3314
 6463TIP3    H240949   6.784   5.969   0.009 -0.1558 -0.1188  0.0886
 6464TIP3   OH240950   6.695   4.839   8.603  0.4286  0.1040 -0.1657
 6464TIP3    H140951   6.756   4.768   8.624  1.8216  1.6776  1.4282
 6464TIP3    H240952   6.743   4.895   8.543 -1.5792 -1.4750 -3.5457
 6465TIP3   OH240953   6.404   4.389   7.454 -0.4304  0.3034 -0.2296
 6465TIP3    H140954   6.479   4.441   7.426  0.1406  0.1191  0.8981
 6465TIP3    H240955   6.356   4.370   7.373  0.7254  0.4383 -0.9666
 6466TIP3   OH240956   1.835   5.353   7.432  0.0390 -0.3668 -0.0308
 6466TIP3    H140957   1.919   5.374   7.471 -0.4255 -2.7174  2.5956
 6466TIP3    H240958   1.826   5.258   7.445 -2.6351 -0.3238 -0.9433
 6467TIP3   OH240959   6.728   0.433   2.232 -0.0609  0.1940  0.4639
 6467TIP3    H140960   6.685   0.461   2.313 -0.4947  0.0784  0.2756
 6467TIP3    H240961   6.667   0.370   2.193 -0.6705  1.5260 -0.8313
 6468TIP3   OH240962   0.956   5.737   0.432 -0.3256  0.2549  0.4324
 6468TIP3    H140963   1.017   5.689   0.375 -0.1850  0.1178  0.6960
 6468TIP3    H240964   0.869   5.711   0.402 -0.2520 -0.4554  0.8133
 6469TIP3   OH240965   1.521   0.100   7.198  0.2808  0.4639  0.1199
 6469TIP3    H140966   1.517   0.008   7.175 -0.4737  0.4892  0.1333
 6469TIP3    H240967   1.599   0.108   7.253 -0.2818 -0.3814  1.0766
 6470TIP3   OH240968   4.266   0.343   7.140  0.3906  0.7248 -0.1458
 6470TIP3    H140969   4.328   0.287   7.093  0.1665  1.0453 -0.8289
 6470TIP3    H240970   4.276   0.429   7.099 -2.0618  0.3162 -1.7919
 6471TIP3   OH240971   1.701   5.930   1.111  0.3005 -0.0866  0.0145
 6471TIP3    H140972   1.700   5.847   1.159 -0.0893 -0.2137 -0.2112
 6471TIP3    H240973   1.704   5.904   1.019 -0.2688  0.1430 -0.0739
 6472TIP3   OH240974   0.611   3.864   0.253 -0.2064  0.1828  0.4494
 6472TIP3    H140975   0.547   3.828   0.192  2.7831 -2.0749 -1.6161
 6472TIP3    H240976   0.598   3.959   0.248 -1.8406 -0.0918 -1.6406
 6473TIP3   OH240977   5.751   3.562   8.822 -0.0761 -0.5048 -0.0172
 6473TIP3    H140978   5.753   3.581   8.729  0.9400 -2.4583 -0.4570
 6473TIP3    H240979   5.744   3.648   8.864  0.7406  0.5243 -1.8443
 6474TIP3   OH240980   4.658   5.532   1.696 -0.1065 -0.0189  0.7456
 6474TIP3    H140981   4.703   5.462   1.744 -0.5052  0.6366  2.1354
 6474TIP3    H240982   4.670   5.610   1.751 -1.7360  0.4786  0.4471
 6475TIP3   OH240983   3.615   0.160   7.348 -0.0618 -1.0571  0.0399
 6475TIP3    H140984   3.684   0.094   7.349  2.4014  1.3282  0.5474
 6475TIP3    H240985   3.631   0.213   7.426 -0.4459  1.4817 -1.4604
 6476TIP3   OH240986   4.878   6.277   1.884 -0.1154  0.1439 -0.5838
 6476TIP3    H140987   4.899   6.336   1.812 -0.4896  1.1530  0.1007
 6476TIP3    H240988   4.825   6.331   1.944 -0.5869 -0.9347 -0.0022
 6477TIP3   OH240989   1.341   1.391   0.898  0.1442 -0.4215  0.3277
 6477TIP3    H140990   1.433   1.413   0.881  0.0986  2.2999  2.8209
 6477TIP3    H240991   1.295   1.417   0.818  1.3865 -0.8952 -0.5792
 6478TIP3   OH240992   2.577   0.064   7.064 -0.3999  0.3081  0.3197
 6478TIP3    H140993   2.521   0.016   7.002  0.0462  1.6395 -1.2101
 6478TIP3    H240994   2.627  -0.003   7.109  0.0923 -0.6939 -1.6113
 6479TIP3   OH240995   1.587   6.311   1.812 -0.7450  0.0939 -0.0974
 6479TIP3    H140996   1.625   6.308   1.724 -2.6618  0.1800 -0.9692
 6479TIP3    H240997   1.576   6.404   1.831 -2.3391  0.0693 -0.7224
 6480TIP3   OH240998   0.021   5.696   1.086  0.7002  0.4840  0.4438
 6480TIP3    H140999  -0.029   5.658   1.014  0.9081  1.4997 -0.2616
 6480TIP3    H241000   0.106   5.652   1.083  0.7794  0.6738 -0.0611
 6481TIP3   OH241001   4.215   0.953   8.561 -0.6070 -0.1442 -0.2921
 6481TIP3    H141002   4.220   0.901   8.481 -2.3722 -1.9896  0.7000
 6481TIP3    H241003   4.303   0.989   8.572 -0.1028 -0.5257 -2.5778
 6482TIP3   OH241004   0.280   3.084   8.810 -0.1278  0.2896  0.3433
 6482TIP3    H141005   0.313   3.002   8.846 -1.2975  0.2340  1.3470
 6482TIP3    H241006   0.356   3.143   8.811 -0.0687  0.3012  2.9660
 6483TIP3   OH241007   2.967   3.717   1.349 -0.1375 -0.0306 -0.9095
 6483TIP3    H141008   2.948   3.629   1.380  0.9896 -0.1395 -0.4883
 6483TIP3    H241009   3.028   3.752   1.413  2.0818 -0.1632 -2.8234
 6484TIP3   OH241010   6.516   6.017   8.052 -0.3806 -0.2107 -0.5515
 6484TIP3    H141011   6.484   5.928   8.069  2.2542 -0.7715  2.2607
 6484TIP3    H241012   6.500   6.064   8.134  2.5078  0.4535 -0.2594
 6485TIP3   OH241013   3.551   4.823   2.077  0.1515  0.0506 -0.2552
 6485TIP3    H141014   3.525   4.752   2.135 -0.6821 -0.2070 -0.9215
 6485TIP3    H241015   3.475   4.882   2.077  1.4249  1.8345  1.5854
 6486TIP3   OH241016   3.288   0.337   6.440  0.1371 -0.1018  0.0413
 6486TIP3    H141017   3.260   0.245   6.437 -2.4221  0.5661  0.9269
 6486TIP3    H241018   3.220   0.385   6.393 -0.2395  1.6307  2.1700
 6487TIP3   OH241019   4.413   2.433   1.767 -0.3564 -1.0196  0.1692
 6487TIP3    H141020   4.356   2.477   1.704 -1.9506 -2.3490  0.6152
 6487TIP3    H241021   4.501   2.442   1.730 -1.0808 -0.6047 -1.5644
 6488TIP3   OH241022   3.558   3.121   0.310  0.1699 -0.1932  0.4031
 6488TIP3    H141023   3.560   3.071   0.229 -0.2249  0.6217 -0.1199
 6488TIP3    H241024   3.472   3.163   0.310  0.3480  0.1812  1.0124
 6489TIP3   OH241025   2.816   1.530   8.791  0.2461 -0.2253 -0.3743
 6489TIP3    H141026   2.817   1.590   8.716  0.4133 -0.5225 -0.6163
 6489TIP3    H241027   2.730   1.489   8.788 -0.1078  0.4683  0.1734
 6490TIP3   OH241028   3.908   2.220   0.998  0.1572  0.2650 -0.4181
 6490TIP3    H141029   3.875   2.302   1.035 -0.8573 -0.8963  1.4212
 6490TIP3    H241030   3.976   2.191   1.060 -0.3874 -0.8824 -0.3256
 6491TIP3   OH241031   5.099   6.490   2.289  0.3395  0.0632 -0.2890
 6491TIP3    H141032   5.040   6.487   2.364  2.5031  1.6374  1.6302
 6491TIP3    H241033   5.088   6.577   2.252  0.2128 -0.2590 -1.0422
 6492TIP3   OH241034   4.960   3.919   8.470 -0.5915  0.0717 -0.4418
 6492TIP3    H141035   4.907   3.956   8.541  1.7800 -0.2510  1.6247
 6492TIP3    H241036   5.009   3.993   8.435  1.5594 -0.3909  1.3637
 6493TIP3   OH241037   5.640   6.101   1.476 -0.1229  0.2371 -0.0117
 6493TIP3    H141038   5.717   6.158   1.476  0.7378 -0.8549 -1.5741
 6493TIP3    H241039   5.670   6.020   1.516 -0.8024  0.2011  0.4359
 6494TIP3   OH241040   2.515   4.809   6.801  0.2077  0.0683  0.5119
 6494TIP3    H141041   2.565   4.891   6.797  0.2887 -0.0209 -0.5537
 6494TIP3    H241042   2.512   4.778   6.711  1.0196 -1.6227  1.0151
 6495TIP3   OH241043   2.016   3.975   6.854 -0.1562  0.2518  0.0123
 6495TIP3    H141044   2.110   3.962   6.856 -0.5199 -3.2571  2.4233
 6495TIP3    H241045   1.990   3.947   6.766  0.8939 -0.9059  0.0418
 6496TIP3   OH241046   2.426   0.942   0.989  0.4947  0.1955  0.4001
 6496TIP3    H141047   2.507   0.893   0.972  0.6238  1.0563 -1.8033
 6496TIP3    H241048   2.436   0.976   1.078  1.1837 -2.2288  1.3255
 6497TIP3   OH241049   1.301   5.295   8.815 -0.1604  0.0321  0.2022
 6497TIP3    H141050   1.213   5.257   8.807 -0.3097  0.5418 -0.6625
 6497TIP3    H241051   1.352   5.252   8.746 -0.3112  1.3105 -0.7457
 6498TIP3   OH241052   1.701   2.113   0.224 -0.0506 -0.1463  0.7266
 6498TIP3    H141053   1.644   2.043   0.191 -0.4103  0.4525  0.0395
 6498TIP3    H241054   1.692   2.108   0.319  1.7110 -2.4958  0.8509
 6499TIP3   OH241055   0.065   4.175   6.779  0.3893 -0.2988  0.5148
 6499TIP3    H141056   0.093   4.084   6.786 -2.2358 -1.1181  1.3271
 6499TIP3    H241057   0.127   4.224   6.833  2.1684 -1.4765 -0.3669
 6500TIP3   OH241058   0.469   4.626   6.665  0.5914 -0.4400  0.3359
 6500TIP3    H141059   0.526   4.701   6.681 -0.1892  0.1380  0.4705
 6500TIP3    H241060   0.511   4.579   6.593  0.7887  0.4495 -0.1466
 6501TIP3   OH241061   6.594   0.419   1.446 -0.0194 -0.0039  0.1817
 6501TIP3    H141062   6.505   0.384   1.441  0.0583 -0.0940 -0.8447
 6501TIP3    H241063   6.633   0.396   1.361  0.5392  1.2184  0.0906
 6502TIP3   OH241064   3.937   6.530   8.594  0.6165  0.1004  0.2066
 6502TIP3    H141065   3.950   6.623   8.613 -0.2403 -0.1545  2.4117
 6502TIP3    H241066   3.857   6.507   8.642  1.3724 -1.9962  0.5801
 6503TIP3   OH241067   3.221   0.798   1.912 -0.3481  0.2574 -0.4352
 6503TIP3    H141068   3.206   0.790   2.006  1.1778  0.8474 -0.0996
 6503TIP3    H241069   3.253   0.711   1.885 -1.9841 -0.2924 -0.6890
 6504TIP3   OH241070   1.074   6.362   1.592  0.1047  0.6553  0.0055
 6504TIP3    H141071   1.029   6.278   1.579  2.2824 -0.6624  0.5151
 6504TIP3    H241072   1.088   6.395   1.504 -1.9298  1.1823 -0.1642
 6505TIP3   OH241073   1.708   3.157   0.431 -0.2527  0.1341 -0.4754
 6505TIP3    H141074   1.688   3.228   0.370 -0.1075  0.8382  0.2623
 6505TIP3    H241075   1.699   3.198   0.518 -0.8977 -0.9500 -0.0181
 6506TIP3   OH241076   1.977   1.960   8.275  0.1791 -0.8501 -0.5498
 6506TIP3    H141077   1.924   1.966   8.354  1.3541  0.8978  0.1664
 6506TIP3    H241078   1.916   1.934   8.207 -1.5275  0.7050  0.3097
 6507TIP3   OH241079   3.206   0.966   1.641 -0.7235  0.2335 -0.3542
 6507TIP3    H141080   3.151   0.932   1.711  1.3381 -0.1472  1.1875
 6507TIP3    H241081   3.289   0.919   1.651 -0.0742  0.8250 -2.5074
 6508TIP3   OH241082   3.033   0.086   7.226 -0.2940  0.6256 -0.7471
 6508TIP3    H141083   2.999   0.028   7.158 -1.1370  1.1111 -0.7510
 6508TIP3    H241084   2.968   0.081   7.296  1.1009 -0.7430  0.5458
 6509TIP3   OH241085   1.251   3.367   0.071 -0.0061 -0.3896  0.4101
 6509TIP3    H141086   1.177   3.392   0.127 -1.3044 -1.2053 -0.8936
 6509TIP3    H241087   1.273   3.278   0.099  2.2164  0.7066  2.5283
 6510TIP3   OH241088   0.180   2.388   0.035 -0.0824  0.2567  0.3996
 6510TIP3    H141089   0.109   2.355   0.090  0.7010 -0.1474  1.1877
 6510TIP3    H241090   0.136   2.436  -0.035 -1.2347 -1.6366 -0.2574
 6511TIP3   OH241091   4.369   0.525   1.251 -0.4799 -0.1456  0.1177
 6511TIP3    H141092   4.329   0.468   1.317  0.0800  0.9773  1.4788
 6511TIP3    H241093   4.357   0.478   1.168 -2.0068 -1.1767  0.8829
 6512TIP3   OH241094   6.768   4.515   1.026 -0.0709 -0.5852  0.0193
 6512TIP3    H141095   6.807   4.603   1.029 -0.4938 -0.3324 -1.0492
 6512TIP3    H241096   6.680   4.527   1.061 -0.2154 -0.5254 -0.3600
 6513TIP3   OH241097   1.318   4.092   6.691 -0.6112  0.1102  0.2000
 6513TIP3    H141098   1.336   4.085   6.597  1.1398  0.6791  0.4538
 6513TIP3    H241099   1.358   4.175   6.716 -1.6478  0.2853  1.3420
 6514TIP3   OH241100   1.396   3.380   7.044 -0.3786 -0.0853 -0.1370
 6514TIP3    H141101   1.482   3.389   7.087 -0.1147 -0.5983 -0.5475
 6514TIP3    H241102   1.339   3.439   7.092  0.3919  0.8505 -0.3505
 6515TIP3   OH241103   1.836   1.516   2.007 -0.1450  0.6266 -0.0601
 6515TIP3    H141104   1.925   1.506   1.974  0.0185  0.1013  0.5240
 6515TIP3    H241105   1.834   1.463   2.087 -1.1292  0.1953 -0.3555
 6516TIP3   OH241106   5.747   4.382   1.532 -0.4254  0.0584  0.0865
 6516TIP3    H141107   5.788   4.437   1.465  1.1200 -0.9888  0.1332
 6516TIP3    H241108   5.775   4.419   1.615  0.7593 -0.8610  0.1182
 6517TIP3   OH241109   2.398   1.032   7.737 -0.2047 -0.1534  0.0450
 6517TIP3    H141110   2.410   1.115   7.690 -0.2974 -0.3745 -0.3824
 6517TIP3    H241111   2.476   1.022   7.791 -0.5226  0.5642  0.6484
 6518TIP3   OH241112   4.959   5.834   2.147 -0.2617 -0.1953  0.5470
 6518TIP3    H141113   4.884   5.870   2.099  0.6808 -0.6090 -1.3500
 6518TIP3    H241114   4.922   5.763   2.199 -1.3387  0.2067  0.3568
 6519TIP3   OH241115   2.608   5.523   7.733  0.1778  0.1384  0.5222
 6519TIP3    H141116   2.537   5.460   7.742  1.4472 -1.4539 -0.0357
 6519TIP3    H241117   2.616   5.564   7.819 -0.2069 -1.0230  1.1208
 6520TIP3   OH241118   4.854   2.219   2.241 -0.5010 -0.2370 -0.1795
 6520TIP3    H141119   4.870   2.128   2.266  0.8905 -0.5643 -2.0602
 6520TIP3    H241120   4.772   2.215   2.190 -0.5237 -0.4079 -0.1315
 6521TIP3   OH241121   1.775   3.192   0.846 -0.7081 -0.2467  0.0847
 6521TIP3    H141122   1.743   3.272   0.804 -0.0326 -0.2201 -0.4040
 6521TIP3    H241123   1.722   3.122   0.806 -0.1452 -0.2096 -0.7546
 6522TIP3   OH241124   6.511   0.891   1.072 -0.6969  0.0240  0.0025
 6522TIP3    H141125   6.550   0.918   0.989 -0.3967 -1.7070 -0.4613
 6522TIP3    H241126   6.508   0.971   1.124  1.3264  0.6870 -0.8066
 6523TIP3   OH241127   0.851   1.835   1.279 -0.6212 -0.9366  0.1345
 6523TIP3    H141128   0.895   1.779   1.343  1.4093  0.8871  0.4524
 6523TIP3    H241129   0.917   1.851   1.212 -1.6401 -0.0928 -0.7053
 6524TIP3   OH241130   4.390   6.508   2.414  0.1109  0.4845 -0.7593
 6524TIP3    H141131   4.302   6.474   2.397  0.0822  1.0263 -1.7651
 6524TIP3    H241132   4.445   6.463   2.350  0.3709  1.0269 -0.9156
 6525TIP3   OH241133   2.831   0.211   7.438 -0.5979 -0.5623 -0.1192
 6525TIP3    H141134   2.823   0.207   7.534  0.7724  0.2081  0.0444
 6525TIP3    H241135   2.747   0.247   7.409 -1.6781 -2.3175  0.6357
 6526TIP3   OH241136   1.651   2.080   8.143 -0.0508 -0.4632  0.2426
 6526TIP3    H141137   1.621   2.125   8.222  1.4883  1.2301 -0.0618
 6526TIP3    H241138   1.676   1.993   8.173  1.5276  0.4942  1.8961
 6527TIP3   OH241139   4.416   6.239   0.076  0.1504  0.3034 -0.3439
 6527TIP3    H141140   4.321   6.239   0.071  0.0636  1.8469  0.7472
 6527TIP3    H241141   4.437   6.293   0.152  1.9001 -0.2618 -0.3589
 6528TIP3   OH241142   2.990   0.441   1.018  0.3707  0.6281  0.2467
 6528TIP3    H141143   3.076   0.476   0.996  0.5771 -0.6575 -1.1213
 6528TIP3    H241144   2.940   0.517   1.048  2.6099  1.0814  3.3443
 6529TIP3   OH241145   6.086   3.763   1.895  0.3226 -0.2670 -0.0970
 6529TIP3    H141146   6.065   3.835   1.954  2.1205  0.7660 -0.6774
 6529TIP3    H241147   6.040   3.688   1.934 -2.4933  1.3138 -0.0517
 6530TIP3   OH241148   0.317   0.998   6.123  0.1889 -0.6579 -0.4164
 6530TIP3    H141149   0.362   1.081   6.105  0.4542 -0.8050 -0.4407
 6530TIP3    H241150   0.386   0.941   6.157  0.0305 -0.9046 -0.5076
 6531TIP3   OH241151   3.371   5.996   7.085  0.4674  0.0611  0.7304
 6531TIP3    H141152   3.438   5.983   7.151  0.0678  0.1945  1.1727
 6531TIP3    H241153   3.363   5.912   7.041  1.3927  0.2267  0.2160
 6532TIP3   OH241154   5.473   4.025   1.321 -0.0639  0.2006  0.1277
 6532TIP3    H141155   5.474   4.118   1.343  0.1150 -0.0486  1.2084
 6532TIP3    H241156   5.499   4.022   1.229 -1.5931  1.3366 -0.3826
 6533TIP3   OH241157   2.430   4.780   0.690  0.6220 -0.2589  0.5438
 6533TIP3    H141158   2.391   4.696   0.667 -0.5152  0.5510 -0.6254
 6533TIP3    H241159   2.375   4.845   0.647  0.6659  1.1851  2.5397
 6534TIP3   OH241160   6.102   5.058   0.386  0.2015 -0.8204 -0.0339
 6534TIP3    H141161   6.142   5.145   0.381  0.3707 -0.8429  0.7762
 6534TIP3    H241162   6.091   5.031   0.295  0.4988 -0.1096 -0.2842
 6535TIP3   OH241163   3.952   1.710   0.727 -0.3807 -0.0081 -1.0759
 6535TIP3    H141164   3.897   1.737   0.653 -1.3135  0.7810 -0.1354
 6535TIP3    H241165   3.892   1.666   0.787  0.3723 -0.6817 -0.8083
 6536TIP3   OH241166   1.808   5.142   1.002  0.1548 -0.2717  0.5948
 6536TIP3    H141167   1.722   5.176   0.978  1.3373  3.3288  0.8433
 6536TIP3    H241168   1.793   5.095   1.084 -1.6952 -0.5913  0.1189
 6537TIP3   OH241169   1.839   1.218   8.635 -0.1469 -0.4248  0.0763
 6537TIP3    H141170   1.887   1.160   8.576  1.8460  0.0414  1.1395
 6537TIP3    H241171   1.796   1.159   8.697  1.4553 -0.8654  0.8475
 6538TIP3   OH241172   6.539   5.145   8.178 -0.8064  0.0054  0.6223
 6538TIP3    H141173   6.499   5.118   8.261 -1.6151 -0.9120 -0.0441
 6538TIP3    H241174   6.479   5.113   8.111 -0.9654  2.0330 -0.2987
 6539TIP3   OH241175   1.650   6.238   0.943  0.3677  0.2788 -0.1984
 6539TIP3    H141176   1.692   6.181   1.007  1.5117 -0.6473 -1.7278
 6539TIP3    H241177   1.719   6.298   0.915  0.2949 -0.2714 -1.6184
 6540TIP3   OH241178   1.047   0.562   8.336  0.3205  0.3027  0.6300
 6540TIP3    H141179   1.016   0.576   8.247  3.5045  0.6862 -0.5361
 6540TIP3    H241180   1.048   0.467   8.346  1.1313  0.2033 -0.2478
 6541TIP3   OH241181   4.159   4.132   8.022 -0.0783  0.4789  0.4946
 6541TIP3    H141182   4.238   4.109   8.070  0.3847  2.4763  0.8119
 6541TIP3    H241183   4.142   4.224   8.046 -3.0785 -0.1528  1.2147
 6542TIP3   OH241184   1.604   6.571   7.959 -0.2074 -0.1369  0.0911
 6542TIP3    H141185   1.584   6.481   7.984  0.3398 -0.6161 -1.0960
 6542TIP3    H241186   1.585   6.623   8.037 -0.0523 -1.3422  0.9598
 6543TIP3   OH241187   6.493   2.362   8.802  0.0511  0.1219 -0.5279
 6543TIP3    H141188   6.547   2.400   8.733  0.2393  0.6216 -0.1162
 6543TIP3    H241189   6.452   2.438   8.844  0.5628 -0.1140  0.4191
 6544TIP3   OH241190   6.294   5.731   2.265 -0.6062 -0.3557  0.0551
 6544TIP3    H141191   6.316   5.693   2.350 -0.7695 -2.4559 -0.8028
 6544TIP3    H241192   6.203   5.706   2.250 -0.4991 -0.2028 -0.8653
 6545TIP3   OH241193   3.531   1.165   0.111  0.3989 -0.0779  0.0512
 6545TIP3    H141194   3.459   1.103   0.115 -0.3584  0.7171 -0.6691
 6545TIP3    H241195   3.610   1.113   0.124 -0.1259 -1.3779 -1.6597
 6546TIP3   OH241196   6.032   2.054   7.201  0.2777  0.2269 -0.4762
 6546TIP3    H141197   6.098   2.087   7.262 -1.2031 -1.7194  2.4736
 6546TIP3    H241198   6.076   1.981   7.157  1.1641  1.2178 -1.2793
 6547TIP3   OH241199   5.640   6.182   2.254  0.3047  0.3177  0.2188
 6547TIP3    H141200   5.616   6.271   2.282 -2.2120 -0.1014 -0.3331
 6547TIP3    H241201   5.731   6.172   2.282  0.4938  2.8501  0.8146
 6548TIP3   OH241202   2.435   2.955   0.536  0.0199 -0.0585  0.6410
 6548TIP3    H141203   2.419   3.002   0.618  0.3621  1.4591 -0.1311
 6548TIP3    H241204   2.492   3.013   0.485  0.8882 -1.5456 -0.1615
 6549TIP3   OH241205   2.871   1.822   0.402  0.1014  0.2736  0.0467
 6549TIP3    H141206   2.936   1.788   0.464 -0.3602 -2.3217 -0.7477
 6549TIP3    H241207   2.916   1.823   0.318 -0.8526 -1.7402 -0.5470
 6550TIP3   OH241208   2.585   0.367   0.716  0.6866 -0.5873  0.2702
 6550TIP3    H141209   2.637   0.327   0.787  0.7222 -1.2465 -0.1143
 6550TIP3    H241210   2.644   0.432   0.677  0.4824  0.1607  1.1763
 6551TIP3   OH241211   6.601   5.183   7.296 -0.3573 -0.0994 -0.0077
 6551TIP3    H141212   6.665   5.141   7.239 -1.0033 -2.0297  0.6401
 6551TIP3    H241213   6.584   5.120   7.366 -0.6666  1.6279  1.5568
 6552TIP3   OH241214   4.281   0.110   1.690  0.0537 -0.0210 -0.3097
 6552TIP3    H141215   4.282   0.175   1.760  1.6749 -0.6949  0.3576
 6552TIP3    H241216   4.194   0.117   1.652 -0.7694  0.6216  1.5518
 6553TIP3   OH241217   5.585   6.411   7.835 -0.3300 -0.7944 -0.9707
 6553TIP3    H141218   5.634   6.414   7.753 -1.0382  0.9267 -1.3809
 6553TIP3    H241219   5.639   6.458   7.898 -0.7992 -0.0674 -1.0848
 6554TIP3   OH241220   3.071   6.468   7.072  0.5770  0.2639 -0.1049
 6554TIP3    H141221   3.144   6.500   7.125  1.1343  0.6954 -1.0931
 6554TIP3    H241222   3.079   6.373   7.076 -0.5102  0.2061  2.0737
 6555TIP3   OH241223   3.271   0.758   1.383 -0.4467 -0.1021  0.7269
 6555TIP3    H141224   3.352   0.765   1.332 -0.9845 -3.1306 -0.7417
 6555TIP3    H241225   3.215   0.829   1.351 -0.4297 -1.3624 -2.3497
 6556TIP3   OH241226   6.738   4.452   8.101 -0.7710 -0.4973  0.0974
 6556TIP3    H141227   6.804   4.446   8.032 -0.5434 -0.0455  0.2708
 6556TIP3    H241228   6.661   4.488   8.057  0.0623  1.9884  0.5059
 6557TIP3   OH241229   1.487   4.785   7.356 -0.2782 -0.2950 -0.1884
 6557TIP3    H141230   1.576   4.779   7.321 -0.5434  0.6103 -1.0741
 6557TIP3    H241231   1.484   4.871   7.399 -0.9346 -0.0041 -0.8020
 6558TIP3   OH241232   2.303   4.356   8.240 -0.2778 -0.3313 -0.0451
 6558TIP3    H141233   2.215   4.357   8.279 -0.5130 -0.4150 -0.5645
 6558TIP3    H241234   2.339   4.271   8.264 -0.8731 -0.8669 -0.9778
 6559TIP3   OH241235   4.028   0.122   1.596  0.1949  0.2976 -0.0158
 6559TIP3    H141236   3.974   0.169   1.660 -2.7161 -1.8963 -0.6638
 6559TIP3    H241237   4.003   0.030   1.606  1.8601 -0.5081 -2.3099
 6560TIP3   OH241238   4.018   5.989   6.142 -0.0358  0.1987 -0.0858
 6560TIP3    H141239   4.105   5.994   6.101 -0.2791  2.1360 -0.4477
 6560TIP3    H241240   3.994   5.897   6.136  1.9840 -0.3810  0.0043
 6561TIP3   OH241241   2.823   6.730   8.172  0.1486  0.4464 -0.2626
 6561TIP3    H141242   2.833   6.653   8.117  0.0430  0.8661 -0.8903
 6561TIP3    H241243   2.728   6.739   8.184  0.1230  0.8560 -0.7502
 6562TIP3   OH241244   1.811   0.305   0.464 -0.8628 -0.0923 -0.3626
 6562TIP3    H141245   1.905   0.314   0.480 -0.9905  0.9936 -0.1691
 6562TIP3    H241246   1.772   0.381   0.507 -1.9750 -1.1960  0.6847
 6563TIP3   OH241247   1.984   6.437   8.835 -0.0039 -0.1407 -0.3193
 6563TIP3    H141248   1.913   6.483   8.880  0.1361  0.8439 -1.0743
 6563TIP3    H241249   2.010   6.368   8.896 -0.0809  0.8980  0.9435
 6564TIP3   OH241250   4.679   2.524   8.093 -0.2251  0.0610  0.0641
 6564TIP3    H141251   4.684   2.607   8.044  0.7300 -0.5902 -0.9946
 6564TIP3    H241252   4.685   2.550   8.185 -0.2722  1.1996 -0.2382
 6565TIP3   OH241253   2.391   0.286   7.155  0.7184  0.1318  0.1593
 6565TIP3    H141254   2.461   0.223   7.142 -0.5891 -1.4237  0.2963
 6565TIP3    H241255   2.350   0.260   7.238  0.4851  1.5223  0.5092
 6566TIP3   OH241256   2.550   4.130   1.155  0.1145 -0.1697 -0.0436
 6566TIP3    H141257   2.623   4.172   1.109 -0.4006  0.8275  0.0274
 6566TIP3    H241258   2.483   4.198   1.161 -0.6587 -0.9421  0.2803
 6567TIP3   OH241259   4.787   0.584   7.346 -0.2612 -0.1023 -0.4968
 6567TIP3    H141260   4.848   0.573   7.273 -0.3680 -0.0888 -0.5888
 6567TIP3    H241261   4.788   0.677   7.365 -0.1640 -0.1191 -0.4213
 6568TIP3   OH241262   2.560   1.004   0.075  0.0507  0.3515  0.0075
 6568TIP3    H141263   2.494   1.062   0.037 -0.0186 -0.3046 -0.9209
 6568TIP3    H241264   2.562   1.027   0.168 -0.6745  1.1542 -0.1611
 6569TIP3   OH241265   0.404   5.844   2.296  0.4890 -0.1011 -0.2338
 6569TIP3    H141266   0.346   5.881   2.363 -1.1365  0.2448 -1.7715
 6569TIP3    H241267   0.491   5.873   2.322 -0.0330 -0.1814  1.8608
 6570TIP3   OH241268   0.648   4.459   8.381  0.4602  0.1846 -0.3485
 6570TIP3    H141269   0.647   4.363   8.373  0.5410  0.0727  0.7939
 6570TIP3    H241270   0.618   4.490   8.296  2.6818 -0.7934 -1.5875
 6571TIP3   OH241271   4.558   2.041   1.267  0.7445 -0.4576  0.4266
 6571TIP3    H141272   4.637   2.057   1.319  1.4518 -1.2035 -0.3690
 6571TIP3    H241273   4.591   2.030   1.177 -0.2657 -0.7472  0.0787
 6572TIP3   OH241274   1.188   2.730   0.569  0.1156 -0.0164 -0.1481
 6572TIP3    H141275   1.125   2.658   0.563 -0.2791  0.4219 -1.8025
 6572TIP3    H241276   1.153   2.788   0.637 -0.9760 -0.0777 -0.6386
 6573TIP3   OH241277   6.281   3.941   1.251  0.0894  0.1071 -0.5834
 6573TIP3    H141278   6.290   3.994   1.171  1.8469 -0.5671 -0.8804
 6573TIP3    H241279   6.187   3.923   1.257 -0.6744  3.5059 -0.2597
 6574TIP3   OH241280   1.788   4.515   7.865 -0.3328 -0.6381  0.2451
 6574TIP3    H141281   1.781   4.440   7.925 -0.3939  1.6682  3.3679
 6574TIP3    H241282   1.855   4.571   7.904 -2.1827  2.2244 -0.3766
 6575TIP3   OH241283   0.345   4.952   1.095  0.7318  0.2759  0.1106
 6575TIP3    H141284   0.290   4.998   1.159 -1.6799 -0.6088 -1.1682
 6575TIP3    H241285   0.362   4.867   1.135  1.2140  0.5602  0.5219
 6576TIP3   OH241286   3.345   5.119   6.232 -0.0921 -0.0039 -0.1285
 6576TIP3    H141287   3.274   5.132   6.295 -0.3640  0.8579 -0.5961
 6576TIP3    H241288   3.312   5.160   6.151  0.4009 -0.7600 -0.7202
 6577TIP3   OH241289   0.899   2.472   0.482  0.4179  0.6781 -0.0307
 6577TIP3    H141290   0.966   2.437   0.541 -0.7183 -0.3535  0.7199
 6577TIP3    H241291   0.821   2.420   0.502 -0.0465  0.3306 -2.4029
 6578TIP3   OH241292   3.745   1.727   1.534  0.0087 -0.3721  0.1521
 6578TIP3    H141293   3.756   1.820   1.553  1.1271 -0.5924  0.6257
 6578TIP3    H241294   3.819   1.705   1.477 -1.5737 -0.4332 -2.0371
 6579TIP3   OH241295   1.032   5.497   0.577 -0.0167 -0.5506 -0.6460
 6579TIP3    H141296   1.109   5.471   0.527  2.1949  0.6713  1.9074
 6579TIP3    H241297   1.011   5.584   0.543 -1.5711 -1.6284 -2.6598
 6580TIP3   OH241298   2.242   6.104   0.551 -0.2818  0.1092 -0.1784
 6580TIP3    H141299   2.158   6.112   0.504 -1.0250  2.0836  1.3586
 6580TIP3    H241300   2.305   6.080   0.483 -2.1145 -1.7638 -1.3330
 6581TIP3   OH241301   5.818   1.880   0.011  0.3599 -0.1438  0.0268
 6581TIP3    H141302   5.882   1.896   0.080  0.2781 -0.3165  0.1448
 6581TIP3    H241303   5.756   1.952   0.018  0.7852  0.2654 -0.3742
 6582TIP3   OH241304   2.438   1.826   6.640  0.3887  0.1394  0.0125
 6582TIP3    H141305   2.386   1.822   6.559  0.2860  1.7109 -0.0336
 6582TIP3    H241306   2.382   1.787   6.707 -0.1289  0.1763 -0.3905
 6583TIP3   OH241307   0.771   6.451   0.709 -0.3004 -0.1459  0.2589
 6583TIP3    H141308   0.730   6.370   0.681  0.0164 -0.4160  0.5573
 6583TIP3    H241309   0.704   6.518   0.698 -0.8585 -0.5931  0.8457
 6584TIP3   OH241310   4.278   0.515   8.494 -0.1088 -0.0136  0.3987
 6584TIP3    H141311   4.292   0.434   8.445  0.5656 -0.3691  1.1577
 6584TIP3    H241312   4.185   0.513   8.518 -0.1716 -0.4038  0.1315
 6585TIP3   OH241313   3.483   3.681   6.557  0.4419 -0.0086 -0.0274
 6585TIP3    H141314   3.569   3.706   6.525  0.0654 -0.4047 -1.4272
 6585TIP3    H241315   3.422   3.722   6.495 -0.3769  0.2284  0.9128
 6586TIP3   OH241316   0.357   5.297   2.020  0.0109  0.3927  0.4308
 6586TIP3    H141317   0.326   5.229   2.081 -0.2931  0.9504  0.9158
 6586TIP3    H241318   0.375   5.251   1.939  0.6920 -0.4223  1.0303
 6587TIP3   OH241319   2.529   2.094   6.563 -0.4922 -0.1150 -0.4697
 6587TIP3    H141320   2.514   2.003   6.587  1.2096 -0.2960  0.0571
 6587TIP3    H241321   2.544   2.092   6.469  0.2407 -0.4869 -0.3481
 6588TIP3   OH241322   6.659   5.989   6.813 -0.1366  0.3033 -0.1435
 6588TIP3    H141323   6.749   6.010   6.786 -0.1356  1.9504  1.0115
 6588TIP3    H241324   6.659   6.002   6.908 -1.3059 -0.9015  0.0555
 6589TIP3   OH241325   6.732   0.495   0.849  0.1821 -0.3557 -0.0163
 6589TIP3    H141326   6.705   0.538   0.930 -0.2705 -3.6866  1.7894
 6589TIP3    H241327   6.808   0.442   0.875  1.8772  0.6875 -2.5173
 6590TIP3   OH241328   0.462   1.927   7.633  0.4240  0.5911  0.2144
 6590TIP3    H141329   0.386   1.977   7.664  0.0181  0.2805 -0.2711
 6590TIP3    H241330   0.436   1.835   7.643  0.8245  0.4796  0.2601
 6591TIP3   OH241331   2.622   1.470   2.484  0.1150  0.1524  0.1939
 6591TIP3    H141332   2.596   1.383   2.453 -0.7392  0.6269 -0.4667
 6591TIP3    H241333   2.697   1.492   2.430 -2.3841  1.7047 -2.9792
 6592TIP3   OH241334   6.412   3.241   2.386 -0.2459  0.0153  0.5169
 6592TIP3    H141335   6.443   3.150   2.382 -2.7479 -0.9625  1.4866
 6592TIP3    H241336   6.462   3.280   2.457  1.2754 -0.3970 -0.2833
 6593TIP3   OH241337   4.668   0.107   0.925  0.1818  0.0965 -0.1375
 6593TIP3    H141338   4.761   0.117   0.904  0.3741  0.5617  0.8375
 6593TIP3    H241339   4.657   0.014   0.945  0.7811  0.2760  1.1559
 6594TIP3   OH241340   2.546   3.796   0.166 -0.0715 -0.2872 -0.1541
 6594TIP3    H141341   2.483   3.841   0.110  0.3566 -0.8919 -1.1663
 6594TIP3    H241342   2.531   3.832   0.253 -0.9195  0.5208 -0.6097
 6595TIP3   OH241343   5.802   0.633   0.439  0.1313  0.5236 -0.5071
 6595TIP3    H141344   5.880   0.650   0.387  0.4431  2.0258  0.4167
 6595TIP3    H241345   5.734   0.615   0.374  0.9129  0.6376 -1.3695
 6596TIP3   OH241346   2.756   3.180   8.362 -0.3643 -0.3453 -0.2121
 6596TIP3    H141347   2.739   3.242   8.433  2.2154 -0.0656  0.2602
 6596TIP3    H241348   2.699   3.106   8.381 -0.8232  0.3597  1.3013
 6597TIP3   OH241349   2.357   4.334   1.075 -0.0938 -0.0818 -0.2945
 6597TIP3    H141350   2.327   4.286   0.997  0.0745 -0.8148  0.0805
 6597TIP3    H241351   2.280   4.381   1.105 -0.4054 -0.5352 -0.3708
 6598TIP3   OH241352   0.766   5.096   8.741  0.2988 -0.4853 -0.0709
 6598TIP3    H141353   0.777   5.004   8.719  1.9739 -0.1193 -0.9586
 6598TIP3    H241354   0.714   5.096   8.821  2.4984 -2.3691  1.4958
 6599TIP3   OH241355   5.136   2.846   7.588 -0.6426  0.2602  0.3848
 6599TIP3    H141356   5.173   2.857   7.675  2.7099 -2.6115 -0.4486
 6599TIP3    H241357   5.205   2.876   7.529 -0.6518 -2.6014 -1.2501
 6600TIP3   OH241358   4.609   2.363   1.416 -0.2800  0.3380  0.2042
 6600TIP3    H141359   4.533   2.380   1.360 -1.5802  0.0033  1.8139
 6600TIP3    H241360   4.604   2.428   1.485  0.5274 -0.1193  0.7139
 6601TIP3   OH241361   1.773   0.949   8.174  0.7418 -0.4191 -0.3866
 6601TIP3    H141362   1.721   0.902   8.239  0.5548 -0.1397 -0.3335
 6601TIP3    H241363   1.709   0.997   8.121  0.8398 -1.2118 -1.2424
 6602TIP3   OH241364   0.749   2.703   7.836 -0.5913  0.2387  0.3707
 6602TIP3    H141365   0.740   2.683   7.929 -1.0726 -0.6289  0.1493
 6602TIP3    H241366   0.710   2.790   7.825 -0.5731  0.3222  0.9630
 6603TIP3   OH241367   5.165   3.245   0.600 -0.1401  0.7125  0.6296
 6603TIP3    H141368   5.076   3.245   0.635  0.8377 -0.1473  3.3705
 6603TIP3    H241369   5.163   3.180   0.531 -0.9524 -1.8457  2.8852
 6604TIP3   OH241370   4.987   5.258   7.953  0.5844  0.0318 -0.2414
 6604TIP3    H141371   4.991   5.302   7.868 -1.8545  1.5702  0.3452
 6604TIP3    H241372   4.977   5.165   7.931 -1.4536  0.5311 -1.7274
 6605TIP3   OH241373   0.285   4.643   0.463 -0.6092  0.1561  0.2385
 6605TIP3    H141374   0.377   4.670   0.463 -0.0754 -1.5030  0.0504
 6605TIP3    H241375   0.285   4.560   0.511 -1.4820 -1.3865 -2.2157
 6606TIP3   OH241376   5.411   4.707   2.482 -0.3684 -0.1700 -0.0426
 6606TIP3    H141377   5.423   4.633   2.542 -1.8696  0.4501  1.0823
 6606TIP3    H241378   5.322   4.697   2.449 -1.0405  1.7274  1.0381
 6607TIP3   OH241379   5.066   0.742   7.348 -0.3488 -0.1893 -0.0876
 6607TIP3    H141380   5.027   0.704   7.427 -0.9142  0.7960  0.1166
 6607TIP3    H241381   5.150   0.698   7.339 -0.7428 -1.0754  0.4629
 6608TIP3   OH241382   1.797   2.592   1.882  0.1327  0.4230  0.0976
 6608TIP3    H141383   1.736   2.522   1.861  0.0147  0.0120  1.7006
 6608TIP3    H241384   1.749   2.673   1.864 -1.0063  0.1062  1.5944
 6609TIP3   OH241385   4.433   1.403   7.301  0.0541 -0.0892  0.7629
 6609TIP3    H141386   4.395   1.339   7.362 -0.9428  0.7405  1.0491
 6609TIP3    H241387   4.378   1.481   7.312  1.8014  1.1338  1.0929
 6610TIP3   OH241388   6.736   1.009   7.680  0.6527 -0.1691  0.1152
 6610TIP3    H141389   6.703   0.920   7.690 -1.5030  0.4113 -1.2843
 6610TIP3    H241390   6.688   1.046   7.606  3.2223  1.4098 -0.9354
 6611TIP3   OH241391   0.615   5.684   1.732  0.0889  0.2401  0.1033
 6611TIP3    H141392   0.670   5.726   1.797  0.3367 -0.2343  0.2007
 6611TIP3    H241393   0.575   5.610   1.777 -2.4261  1.8463  0.7113
 6612TIP3   OH241394   6.771   2.916   7.279 -0.2438  0.1159  0.4752
 6612TIP3    H141395   6.793   2.956   7.363  0.6615 -0.3058  0.4504
 6612TIP3    H241396   6.735   2.987   7.227  0.4324  0.6803  0.7624
 6613TIP3   OH241397   2.347   0.745   8.563  0.3483  0.3982 -0.3977
 6613TIP3    H141398   2.309   0.728   8.476  0.2318  0.3891 -0.3456
 6613TIP3    H241399   2.386   0.662   8.589  3.8486  1.3264 -2.1093
 6614TIP3   OH241400   6.793   1.427   1.953 -0.6120 -0.0122  0.2224
 6614TIP3    H141401   6.751   1.513   1.949 -1.2158 -0.2556  0.8934
 6614TIP3    H241402   6.862   1.430   1.887 -2.8798 -0.2262 -2.3398
 6615TIP3   OH241403   3.279   0.284   0.779 -0.4810 -0.0144 -0.6146
 6615TIP3    H141404   3.357   0.334   0.805 -0.9846 -0.0341  1.0451
 6615TIP3    H241405   3.303   0.244   0.695  0.4004  1.9694 -1.3908
 6616TIP3   OH241406   0.109   4.051   7.865  0.5408 -0.4377  0.3958
 6616TIP3    H141407   0.096   4.141   7.894  2.6550  0.0632 -0.0617
 6616TIP3    H241408   0.154   4.009   7.938 -0.0032 -1.0122  0.4114
 6617TIP3   OH241409   1.534   4.934   6.548 -0.5676  0.3047 -0.1103
 6617TIP3    H141410   1.446   4.907   6.573  0.0519 -1.1750  0.5764
 6617TIP3    H241411   1.573   4.856   6.508 -0.3793  1.6388 -2.7610
 6618TIP3   OH241412   2.502   4.612   7.300  0.2517 -0.2460 -0.1636
 6618TIP3    H141413   2.591   4.586   7.275  0.8344  0.9327  0.6205
 6618TIP3    H241414   2.514   4.669   7.376 -1.1925 -0.2151  0.0651
 6619TIP3   OH241415   4.315   4.147   8.846  0.0579  0.3184 -0.4317
 6619TIP3    H141416   4.406   4.173   8.860  0.7215 -1.6521 -0.7109
 6619TIP3    H241417   4.277   4.144   8.934  0.1156  1.5802 -0.3538
 6620TIP3   OH241418   6.339   0.649   8.772 -0.2987  0.1123 -0.3340
 6620TIP3    H141419   6.344   0.574   8.713 -0.0037  0.8268 -1.2401
 6620TIP3    H241420   6.252   0.686   8.756 -0.1073  0.4789 -0.5421
 6621TIP3   OH241421   4.817   6.002   8.056  0.1709 -0.1249  0.9666
 6621TIP3    H141422   4.845   6.093   8.066 -1.2675  0.3266  1.1881
 6621TIP3    H241423   4.856   5.972   7.974 -0.2858  1.0815  0.2868
 6622TIP3   OH241424   3.853   3.174   6.916 -0.2055 -0.0698  0.2300
 6622TIP3    H141425   3.853   3.264   6.949 -2.3587 -0.2224  0.8175
 6622TIP3    H241426   3.863   3.184   6.821 -1.7132  0.9112  0.1373
 6623TIP3   OH241427   5.553   3.510   8.053 -0.6088 -0.3868  0.2203
 6623TIP3    H141428   5.623   3.446   8.039 -0.0986  0.1230  0.4438
 6623TIP3    H241429   5.483   3.459   8.096 -0.5780 -1.0086 -0.4410
 6624TIP3   OH241430   0.990   1.204   2.482 -0.4792  0.3984 -0.2365
 6624TIP3    H141431   0.901   1.184   2.510 -0.3575  0.8978  0.5473
 6624TIP3    H241432   0.996   1.169   2.394 -1.4402  0.3268 -0.2836
 6625TIP3   OH241433   2.316   6.059   2.849  0.2233 -0.6177 -0.2508
 6625TIP3    H141434   2.398   6.015   2.829 -0.7032 -2.2828 -0.6024
 6625TIP3    H241435   2.314   6.135   2.792  1.2042 -0.9554 -0.7474
 6626TIP3   OH241436   0.336   0.555   8.083 -0.3414 -0.2918  0.0998
 6626TIP3    H141437   0.350   0.604   8.164  0.6822 -0.3533 -0.0364
 6626TIP3    H241438   0.423   0.540   8.048 -0.7764 -0.0824 -1.1364
 6627TIP3   OH241439   4.249   5.452   0.444  0.1576 -0.6115 -0.0338
 6627TIP3    H141440   4.179   5.398   0.407 -1.5631  1.6851 -0.3784
 6627TIP3    H241441   4.210   5.491   0.522  1.3509  0.0977  0.2317
 6628TIP3   OH241442   4.069   0.299   7.600 -0.5216 -0.2343 -0.3712
 6628TIP3    H141443   3.996   0.339   7.554  0.2345  1.8073  0.0843
 6628TIP3    H241444   4.143   0.307   7.540 -0.7716 -3.0627 -1.1846
 6629TIP3   OH241445   6.765   0.803   6.660  0.1798 -0.1405  0.8386
 6629TIP3    H141446   6.810   0.882   6.630 -0.8206 -0.0454 -0.4837
 6629TIP3    H241447   6.832   0.734   6.655  0.6837  0.3557  0.6972
 6630TIP3   OH241448   2.446   5.867   2.343 -1.0006  0.2483  0.1548
 6630TIP3    H141449   2.370   5.878   2.287 -0.6311 -0.7633 -0.5706
 6630TIP3    H241450   2.489   5.953   2.344 -1.1522  0.3409 -0.9010
 6631TIP3   OH241451   4.229   0.958   2.328  0.1445  0.6289  0.1367
 6631TIP3    H141452   4.199   1.008   2.253 -0.3269  1.7267  1.0402
 6631TIP3    H241453   4.217   1.016   2.403 -0.2213 -0.7532  1.1871
 6632TIP3   OH241454   3.325   6.372   1.591 -0.4991 -0.4707 -0.5480
 6632TIP3    H141455   3.320   6.463   1.620 -0.1248 -0.5093 -0.3525
 6632TIP3    H241456   3.243   6.357   1.546  1.0725  1.2895 -4.4637
 6633TIP3   OH241457   3.883   3.210   8.047 -0.1139 -0.0027 -0.0877
 6633TIP3    H141458   3.814   3.186   8.109  0.4318  0.0619  0.5576
 6633TIP3    H241459   3.964   3.202   8.098  0.3297  0.1641 -0.7643
 6634TIP3   OH241460   5.556   1.955   6.868 -0.1152 -0.5582  0.2276
 6634TIP3    H141461   5.506   1.915   6.798  0.3172  2.2433 -1.8622
 6634TIP3    H241462   5.502   2.028   6.898  1.0920  0.2493  0.5452
 6635TIP3   OH241463   6.388   5.796   6.485  0.4195  0.4493 -0.1493
 6635TIP3    H141464   6.431   5.773   6.567  1.1315 -1.3789 -0.9816
 6635TIP3    H241465   6.447   5.859   6.444 -0.0653  1.5715  0.8193
 6636TIP3   OH241466   1.197   1.567   7.628 -0.0823 -0.2311  0.0064
 6636TIP3    H141467   1.171   1.475   7.634 -2.6279  0.4630  0.9542
 6636TIP3    H241468   1.117   1.613   7.602  0.7231  1.8909  1.0484
 6637TIP3   OH241469   1.396   5.652   7.755 -0.1584 -0.4321  0.2401
 6637TIP3    H141470   1.450   5.576   7.778  1.1729  0.9986  2.1112
 6637TIP3    H241471   1.365   5.633   7.666  2.6560 -1.7715 -0.5752
 6638TIP3   OH241472   4.983   4.652   6.891  0.0858 -0.0085 -0.2606
 6638TIP3    H141473   4.925   4.580   6.866 -2.5012  1.5059  0.9081
 6638TIP3    H241474   4.997   4.701   6.810  0.2465 -0.7336 -0.6788
 6639TIP3   OH241475   3.701   2.659   8.504  0.0354  0.1305 -0.1166
 6639TIP3    H141476   3.718   2.739   8.553  0.7265 -0.0100 -0.1066
 6639TIP3    H241477   3.666   2.689   8.420  2.2152  0.6003 -0.9458
 6640TIP3   OH241478   5.107   6.374   2.042  0.1041 -0.0702  0.2130
 6640TIP3    H141479   5.021   6.334   2.028 -1.0360  2.1169  0.5520
 6640TIP3    H241480   5.101   6.414   2.128  0.7927  1.6705 -0.5053
 6641TIP3   OH241481   6.549   5.623   2.095 -0.4021 -0.0944  0.5614
 6641TIP3    H141482   6.521   5.683   2.026 -0.1949  0.9924  1.3784
 6641TIP3    H241483   6.495   5.545   2.083  0.6310 -0.5230 -1.6765
 6642TIP3   OH241484   1.271   2.207   8.443 -0.3875 -0.1660  0.2637
 6642TIP3    H141485   1.284   2.264   8.367 -0.2982  1.1965  1.2615
 6642TIP3    H241486   1.177   2.212   8.461 -0.2146  0.6019  1.0304
 6643TIP3   OH241487   5.317   6.113   7.424 -0.7639  0.3160  0.8356
 6643TIP3    H141488   5.259   6.049   7.465 -1.2792  1.2624  1.6210
 6643TIP3    H241489   5.377   6.140   7.493  2.5856 -2.6684 -0.5839
 6644TIP3   OH241490   6.749   0.841   0.927 -0.3031  0.1866 -0.2926
 6644TIP3    H141491   6.776   0.933   0.920 -0.6742  0.2842 -0.4770
 6644TIP3    H241492   6.829   0.791   0.908  0.5634  0.4509  2.2976
 6645TIP3   OH241493   1.368   0.917   0.023  0.5023  0.0129 -0.0595
 6645TIP3    H141494   1.388   0.869  -0.056  2.1919 -0.1178  0.4014
 6645TIP3    H241495   1.319   0.994  -0.007  0.3371 -0.4874 -1.1081
 6646TIP3   OH241496   4.991   1.078   1.672 -0.7440  0.0369  0.3058
 6646TIP3    H141497   5.027   1.144   1.612 -0.8734 -0.3201 -0.1687
 6646TIP3    H241498   5.042   1.089   1.752 -0.5547  0.5076  0.1295
 6647TIP3   OH241499   2.182   2.021   7.132  0.1402  0.3599  0.6079
 6647TIP3    H141500   2.154   2.033   7.041 -1.1965 -1.7827  0.6567
 6647TIP3    H241501   2.126   2.080   7.181  0.0988  0.7258  0.1318
 6648TIP3   OH241502   2.248   3.461   7.620  0.1058 -0.3419 -0.2034
 6648TIP3    H141503   2.298   3.542   7.624  0.2967 -0.5074  1.2875
 6648TIP3    H241504   2.234   3.446   7.527  0.2837  1.2631 -0.5188
 6649TIP3   OH241505   3.963   0.834   0.978 -0.4266  0.0856 -0.0150
 6649TIP3    H141506   4.011   0.771   1.031 -0.0750 -1.2044 -1.7554
 6649TIP3    H241507   4.024   0.908   0.967  0.7838 -1.0311 -1.2291
 6650TIP3   OH241508   3.325   4.435   8.034  0.1303  0.7153 -0.0436
 6650TIP3    H141509   3.280   4.381   7.969 -0.2410  1.2171 -0.2061
 6650TIP3    H241510   3.300   4.395   8.118 -3.2160  2.7391  0.1316
 6651TIP3   OH241511   4.347   5.646   8.563  0.6361 -0.2866 -0.2903
 6651TIP3    H141512   4.375   5.618   8.650 -1.6923  1.4605  1.1553
 6651TIP3    H241513   4.303   5.568   8.527  1.2475 -0.9035  0.2588
 6652TIP3   OH241514   5.160   0.534   1.457  0.4296  0.3095  0.0333
 6652TIP3    H141515   5.214   0.571   1.526  0.7905 -0.2473  0.0579
 6652TIP3    H241516   5.194   0.573   1.376  3.6278 -2.9331 -0.4574
 6653TIP3   OH241517   1.500   6.659   8.243 -0.2135  0.5798 -0.0885
 6653TIP3    H141518   1.563   6.678   8.312  1.4072 -2.1708 -0.6294
 6653TIP3    H241519   1.430   6.610   8.286  1.6015 -2.6278 -0.4379
 6654TIP3   OH241520   6.396   0.198   8.533 -0.2574  0.2230 -0.3252
 6654TIP3    H141521   6.443   0.160   8.458  0.2042 -1.2706  0.6747
 6654TIP3    H241522   6.315   0.147   8.537 -0.0477 -0.0590  0.4891
 6655TIP3   OH241523   1.918   0.635   6.572 -0.0042  0.3607 -0.4814
 6655TIP3    H141524   1.979   0.581   6.522  0.4295  0.8242 -0.4658
 6655TIP3    H241525   1.843   0.646   6.515  0.0653  0.0556 -0.6332
 6656TIP3   OH241526   2.554   2.331   0.532 -0.0095 -0.3839 -0.5656
 6656TIP3    H141527   2.558   2.261   0.597  0.5394  0.2105  0.0607
 6656TIP3    H241528   2.645   2.341   0.502 -0.0408  0.2270 -0.4645
 6657TIP3   OH241529   0.779   4.186   7.808 -0.2458 -0.1952  0.9938
 6657TIP3    H141530   0.737   4.108   7.771 -1.1946  0.6651  0.2144
 6657TIP3    H241531   0.868   4.184   7.773 -0.4898 -0.5443  0.3877
 6658TIP3   OH241532   4.829   0.171   1.596 -0.7840 -0.1154 -0.5146
 6658TIP3    H141533   4.904   0.114   1.612 -0.9366 -0.2933 -0.4244
 6658TIP3    H241534   4.867   0.258   1.582 -0.6392  0.1307  1.1269
 6659TIP3   OH241535   1.326   2.082   6.994  0.4075  0.3940  0.0968
 6659TIP3    H141536   1.262   2.015   7.018 -1.8608  2.6685  0.7960
 6659TIP3    H241537   1.321   2.088   6.899 -2.2295  2.1163  0.2641
 6660TIP3   OH241538   4.215   2.995   0.800 -0.4231 -0.2916  0.3088
 6660TIP3    H141539   4.202   3.036   0.714  2.0569  0.6014  0.2836
 6660TIP3    H241540   4.248   3.065   0.855  2.8073 -1.8536  0.5973
 6661TIP3   OH241541   4.974   0.550   8.603  0.0625  0.3008 -0.2884
 6661TIP3    H141542   4.936   0.635   8.627  2.1085  0.7500  1.7271
 6661TIP3    H241543   5.057   0.572   8.562  1.2280 -0.6720  1.4188
 6662TIP3   OH241544   3.084   2.582   8.133  0.2279 -0.1518  0.2400
 6662TIP3    H141545   3.035   2.558   8.211 -0.0086  1.2124  0.5330
 6662TIP3    H241546   3.151   2.514   8.125  0.4433 -0.1539  1.7933
 6663TIP3   OH241547   2.829   5.625   6.846 -0.2066 -0.4403 -0.2934
 6663TIP3    H141548   2.908   5.627   6.900 -1.0120 -0.2085  0.9324
 6663TIP3    H241549   2.859   5.645   6.758  1.0965 -0.3502  0.1525
 6664TIP3   OH241550   3.093   5.589   0.311  0.1708  0.1696  0.6989
 6664TIP3    H141551   3.170   5.552   0.267  0.1278  1.1670 -0.2592
 6664TIP3    H241552   3.084   5.538   0.390  2.2219  0.4252  1.1589
 6665TIP3   OH241553   2.616   1.378   0.154  0.2234 -0.0420  0.3219
 6665TIP3    H141554   2.697   1.326   0.155  0.2935  0.0686  0.4389
 6665TIP3    H241555   2.565   1.342   0.081  1.5790  1.7451 -1.5995
 6666TIP3   OH241556   2.219   5.834   0.801 -0.6761  0.4988 -0.2215
 6666TIP3    H141557   2.224   5.927   0.826 -1.2015  0.4298  0.1455
 6666TIP3    H241558   2.194   5.836   0.709  1.0708  0.7514 -0.7242
 6667TIP3   OH241559   4.290   4.100   0.457  0.1096  0.1224 -0.2454
 6667TIP3    H141560   4.310   4.173   0.516 -0.4101 -0.6333  0.8916
 6667TIP3    H241561   4.374   4.079   0.416  0.2719  1.3335 -0.5835
 6668TIP3   OH241562   4.189   0.758   0.430  0.1941 -0.4998 -0.3069
 6668TIP3    H141563   4.227   0.750   0.517  1.0122  0.0932 -0.5910
 6668TIP3    H241564   4.240   0.829   0.389 -1.0885  0.1747 -0.7776
 6669TIP3   OH241565   0.084   5.452   1.377 -0.4940 -0.5510  0.2957
 6669TIP3    H141566   0.033   5.517   1.328  1.3989  1.4975  0.8224
 6669TIP3    H241567   0.039   5.444   1.461 -1.4587 -0.9038 -0.2491
 6670TIP3   OH241568   3.607   6.498   1.573  0.1823  0.1783  0.0130
 6670TIP3    H141569   3.621   6.572   1.633  0.8248  1.2601 -1.4040
 6670TIP3    H241570   3.523   6.517   1.532  0.4870  0.2968 -0.5680
 6671TIP3   OH241571   0.685   0.602   2.012 -0.0948 -0.0223  0.6701
 6671TIP3    H141572   0.690   0.637   1.923 -1.7384  0.4269  0.7106
 6671TIP3    H241573   0.642   0.671   2.062  0.9712 -0.1989  1.8715
 6672TIP3   OH241574   4.897   4.979   6.276 -0.0147  0.4804 -0.1962
 6672TIP3    H141575   4.963   4.910   6.286  0.6270  1.2376  1.0430
 6672TIP3    H241576   4.813   4.934   6.282  0.3916 -0.1431  1.0554
 6673TIP3   OH241577   0.190   3.128   7.280  0.7302  0.5539  0.3467
 6673TIP3    H141578   0.108   3.177   7.269  1.0071  1.0071  0.2514
 6673TIP3    H241579   0.253   3.175   7.225  1.2586  0.7172  1.0740
 6674TIP3   OH241580   3.143   1.287   7.878 -0.1535 -0.4613  0.4386
 6674TIP3    H141581   3.169   1.350   7.945 -0.2783  0.5276 -0.3998
 6674TIP3    H241582   3.049   1.302   7.867 -0.1657 -0.7287  0.1643
 6675TIP3   OH241583   1.441   1.015   6.832  0.2131  0.0985  0.3079
 6675TIP3    H141584   1.511   1.079   6.847 -0.0459  0.2754  0.7784
 6675TIP3    H241585   1.404   1.040   6.747 -1.2980  1.9397  1.4144
 6676TIP3   OH241586   0.116   2.295   8.181  0.1132  0.2221  0.4144
 6676TIP3    H141587   0.163   2.310   8.098 -1.1700 -2.4763 -0.8974
 6676TIP3    H241588   0.183   2.310   8.248  1.8747  0.1302 -1.2089
 6677TIP3   OH241589   1.760   3.585   8.499 -0.2385  0.1796  0.0515
 6677TIP3    H141590   1.767   3.674   8.535 -1.7878  0.8359 -1.1665
 6677TIP3    H241591   1.741   3.530   8.574 -1.0136  1.1613  0.6016
 6678TIP3   OH241592   6.222   1.589   0.077  0.4387 -0.3983 -0.7607
 6678TIP3    H141593   6.128   1.597   0.062  0.5198 -1.7447 -2.2978
 6678TIP3    H241594   6.242   1.654   0.144 -1.8925 -1.3213  0.9499
 6679TIP3   OH241595   3.164   1.674   0.340 -0.2578  0.4065 -0.3669
 6679TIP3    H141596   3.243   1.642   0.297  0.0076  1.3075 -0.5691
 6679TIP3    H241597   3.167   1.769   0.328 -1.7778  0.4023 -1.1016
 6680TIP3   OH241598   3.813   3.438   6.957 -0.1036  0.3085 -0.2125
 6680TIP3    H141599   3.852   3.469   7.039  0.9773 -1.4319 -0.0278
 6680TIP3    H241600   3.728   3.482   6.953  0.4095  1.5041  1.1326
 6681TIP3   OH241601   2.588   4.939   0.009 -0.0434 -0.2010  0.1994
 6681TIP3    H141602   2.573   5.013   0.068 -0.3163  0.5324 -0.7684
 6681TIP3    H241603   2.541   4.962  -0.071  0.2459 -1.2192 -0.2845
 6682TIP3   OH241604   2.749   5.790   8.586 -0.4384 -0.6696  0.7179
 6682TIP3    H141605   2.746   5.729   8.512  0.8880 -0.4349  0.4491
 6682TIP3    H241606   2.661   5.826   8.590 -0.2186  0.3199 -1.6228
 6683TIP3   OH241607   6.745   0.428   7.559 -0.2485 -0.0411 -0.1895
 6683TIP3    H141608   6.825   0.471   7.530  0.3645 -0.8161  0.3077
 6683TIP3    H241609   6.760   0.410   7.652 -0.7676 -0.6991 -0.2268
 6684TIP3   OH241610   4.867   2.521   1.786  0.2036  0.0549  0.1052
 6684TIP3    H141611   4.954   2.500   1.751  0.1594  0.7798 -0.4709
 6684TIP3    H241612   4.884   2.541   1.878  0.4110 -1.2737  0.3747
 6685TIP3   OH241613   5.095   2.394   8.659 -0.4333 -0.4588  0.3978
 6685TIP3    H141614   5.103   2.488   8.644  0.0002 -0.6882 -0.9880
 6685TIP3    H241615   5.075   2.358   8.573 -2.2449 -1.4767  1.1897
 6686TIP3   OH241616   3.915   4.085   6.899 -0.2559 -0.5464 -0.0425
 6686TIP3    H141617   3.877   4.153   6.843 -1.0220 -0.4959  0.5218
 6686TIP3    H241618   3.936   4.013   6.839  1.2450  0.4457 -0.7596
 6687TIP3   OH241619   4.971   1.264   8.129  0.1406 -0.5047  0.4921
 6687TIP3    H141620   4.927   1.308   8.201 -1.6319  1.6431 -1.7228
 6687TIP3    H241621   4.901   1.217   8.084  0.9264 -0.5875 -0.6854
 6688TIP3   OH241622   6.276   5.146   1.464 -0.2239 -0.5426 -0.0824
 6688TIP3    H141623   6.348   5.207   1.445  0.3160 -0.6105  1.5909
 6688TIP3    H241624   6.205   5.174   1.406  1.6032 -1.4698 -3.0156
 6689TIP3   OH241625   4.230   4.415   8.110  0.0216 -0.5346 -0.3656
 6689TIP3    H141626   4.234   4.417   8.205  0.1904 -0.1258 -0.3761
 6689TIP3    H241627   4.310   4.369   8.084  0.3209 -0.0514 -0.3237
 6690TIP3   OH241628   6.078   3.095   0.923 -0.2242  0.1390 -0.1129
 6690TIP3    H141629   6.088   3.042   1.003 -0.5005 -0.4304 -0.4492
 6690TIP3    H241630   6.162   3.085   0.878  0.1643  0.9761  0.4058
 6691TIP3   OH241631   1.326   5.573   8.665  0.0304  0.2206  0.2184
 6691TIP3    H141632   1.317   5.499   8.726 -0.2815  0.5799  0.6176
 6691TIP3    H241633   1.379   5.539   8.593  0.1908 -0.2858  0.5725
 6692TIP3   OH241634   4.729   2.696   6.209 -0.4156 -0.1385 -0.1701
 6692TIP3    H141635   4.640   2.683   6.177 -0.6480  1.3327 -0.1790
 6692TIP3    H241636   4.751   2.613   6.252 -1.8311 -0.4768 -0.0448
 6693TIP3   OH241637   6.412   3.775   6.937 -0.2485  0.0188 -0.2383
 6693TIP3    H141638   6.437   3.848   6.880 -1.2024  0.4677 -0.0962
 6693TIP3    H241639   6.414   3.698   6.880  2.0891 -0.1150 -0.0946
 6694TIP3   OH241640   4.953   6.163   1.124 -0.1304 -0.4659  0.1860
 6694TIP3    H141641   4.860   6.151   1.105  0.0291 -1.7245  0.1346
 6694TIP3    H241642   4.998   6.110   1.059  0.7537  2.0191 -1.3546
 6695TIP3   OH241643   4.210   4.909   7.553  0.6868  0.7758 -0.2970
 6695TIP3    H141644   4.205   4.830   7.499  2.5233  1.3763 -1.4357
 6695TIP3    H241645   4.267   4.968   7.503  1.0625  2.0047  1.5143
 6696TIP3   OH241646   5.495   5.895   8.650 -0.1938 -0.5559  0.3596
 6696TIP3    H141647   5.461   5.870   8.564  2.8144 -0.9955 -0.8389
 6696TIP3    H241648   5.440   5.849   8.712 -0.7577 -2.5110 -1.4600
 6697TIP3   OH241649   3.349   0.332   8.845 -0.7411 -0.1012 -0.1727
 6697TIP3    H141650   3.354   0.293   8.932  0.4299 -0.2883 -0.3136
 6697TIP3    H241651   3.363   0.425   8.859 -1.5078  0.0066 -0.0664
 6698TIP3   OH241652   3.688   0.159   6.917  0.0747 -0.3225  0.2375
 6698TIP3    H141653   3.656   0.075   6.885 -0.8427 -0.4964  1.5618
 6698TIP3    H241654   3.640   0.174   6.998  1.6689  0.5218  1.0762
 6699TIP3   OH241655   2.874   6.011   8.334  0.1031 -0.9287 -0.0206
 6699TIP3    H141656   2.815   6.026   8.408 -0.9460  1.0699 -1.1633
 6699TIP3    H241657   2.906   6.098   8.312  0.5963 -1.5170 -1.7431
 6700TIP3   OH241658   2.351   6.723   7.833 -0.5166  0.8251 -0.2494
 6700TIP3    H141659   2.348   6.628   7.839 -0.9927  0.8878  0.6438
 6700TIP3    H241660   2.340   6.741   7.739 -2.1364  0.0594 -0.2366
 6701TIP3   OH241661   4.675   3.693   5.933  0.7978  0.4624 -0.0672
 6701TIP3    H141662   4.678   3.636   5.856 -0.2657  1.6602 -1.0307
 6701TIP3    H241663   4.695   3.635   6.006 -0.9853 -1.3394 -0.9113
 6702TIP3   OH241664   0.227   2.645   6.800 -0.3911 -0.5220 -0.0694
 6702TIP3    H141665   0.317   2.677   6.793 -0.3991 -0.5502 -0.3097
 6702TIP3    H241666   0.189   2.662   6.714 -0.0586 -2.1644 -0.5995
 6703TIP3   OH241667   1.468   5.807   8.824  0.6288  0.4422 -0.1110
 6703TIP3    H141668   1.413   5.862   8.768 -0.2621 -0.4506 -0.1522
 6703TIP3    H241669   1.458   5.719   8.788  1.5928  0.1612  0.2812
 6704TIP3   OH241670   6.277   6.259   7.455 -0.3721  0.3801 -0.3695
 6704TIP3    H141671   6.299   6.225   7.542  1.0314 -0.6575 -1.0921
 6704TIP3    H241672   6.223   6.336   7.473 -1.8758 -0.9620  1.3708
 6705TIP3   OH241673   4.798   6.285   6.669  0.2972 -0.4684 -0.5256
 6705TIP3    H141674   4.782   6.371   6.630  0.1347 -0.2347  0.0428
 6705TIP3    H241675   4.768   6.222   6.603  0.2686 -0.0863 -0.8764
 6706TIP3   OH241676   1.465   0.244   6.864  0.1792  0.3716 -0.3361
 6706TIP3    H141677   1.461   0.167   6.808 -0.5578 -1.1403  1.6790
 6706TIP3    H241678   1.404   0.226   6.935 -1.0156  3.3914 -0.4127
 6707TIP3   OH241679   1.046   3.063   8.690 -0.3761  0.4509  0.3730
 6707TIP3    H141680   0.956   3.047   8.717 -0.2569 -0.9513 -0.0027
 6707TIP3    H241681   1.044   3.149   8.648 -1.8613 -0.2334 -1.0335
 6708TIP3   OH241682   4.088   5.163   0.583  0.0150 -0.2224 -0.3065
 6708TIP3    H141683   4.132   5.189   0.502 -2.6306  0.1867 -1.7259
 6708TIP3    H241684   4.137   5.087   0.614  1.6877  0.2162 -1.7268
 6709TIP3   OH241685   6.198   1.878   7.817 -0.1693  0.1964  0.0057
 6709TIP3    H141686   6.195   1.967   7.853  2.0995  1.7649 -3.1406
 6709TIP3    H241687   6.113   1.867   7.774 -0.4924  0.8354  0.4678
 6710TIP3   OH241688   6.288   4.531   2.229  0.1416 -0.0686 -0.5236
 6710TIP3    H141689   6.352   4.574   2.173 -1.8003  2.0871 -1.2539
 6710TIP3    H241690   6.334   4.455   2.265  2.7793  0.8950 -1.6476
 6711TIP3   OH241691   6.376   3.189   1.935  0.4839  0.3097 -0.2494
 6711TIP3    H141692   6.447   3.168   1.996  0.1035  1.0674  0.4758
 6711TIP3    H241693   6.330   3.262   1.976 -0.7829 -0.2321 -0.6520
 6712TIP3   OH241694   6.014   2.223   6.270 -0.7583  0.1571 -0.3618
 6712TIP3    H141695   6.032   2.134   6.301 -0.1748  0.2789 -0.3324
 6712TIP3    H241696   6.096   2.250   6.228 -1.1319  0.4531 -0.9115
 6713TIP3   OH241697   3.604   0.140   1.398 -0.4539 -0.6031  0.4017
 6713TIP3    H141698   3.568   0.188   1.324  0.7320  1.0732  0.8429
 6713TIP3    H241699   3.552   0.169   1.473  0.5684  0.4447  0.7463
 6714TIP3   OH241700   3.840   4.581   0.324 -0.1246 -0.7782 -0.1265
 6714TIP3    H141701   3.854   4.570   0.230 -0.0851  0.9728 -0.3463
 6714TIP3    H241702   3.924   4.611   0.358 -0.8223  1.1730  0.0019
 6715TIP3   OH241703   1.081   3.006   1.615  0.1121 -0.7224 -0.9741
 6715TIP3    H141704   1.145   3.061   1.662 -0.5284 -0.1002 -0.8124
 6715TIP3    H241705   1.004   3.005   1.672 -0.0077 -1.5039 -1.1486
 6716TIP3   OH241706   2.026   0.027   0.995  0.3112  0.0137  0.0006
 6716TIP3    H141707   2.076   0.109   0.988  1.2557 -0.3499  1.9119
 6716TIP3    H241708   2.027   0.006   1.088  1.5671 -3.0610 -0.5775
 6717TIP3   OH241709   1.536   0.832   0.508 -0.0584 -0.4765  0.0759
 6717TIP3    H141710   1.447   0.860   0.530  0.1439  0.2096  0.0520
 6717TIP3    H241711   1.547   0.855   0.416  1.0728  2.0700  0.7442
 6718TIP3   OH241712   4.060   5.199   1.202  0.3387  0.0173 -0.6148
 6718TIP3    H141713   4.099   5.286   1.197 -0.1172  0.2638 -0.0391
 6718TIP3    H241714   3.970   5.214   1.231  0.9441 -0.7927  1.9058
 6719TIP3   OH241715   4.337   5.832   1.886  0.0617 -0.2544  0.4157
 6719TIP3    H141716   4.399   5.904   1.876  1.1632 -0.9581  1.7507
 6719TIP3    H241717   4.251   5.872   1.876  0.5975  1.4418  2.0803
 6720TIP3   OH241718   2.139   1.489   6.955 -0.3963 -0.4424 -0.6057
 6720TIP3    H141719   2.138   1.415   7.015  1.2915 -0.3662 -0.4400
 6720TIP3    H241720   2.105   1.562   7.007  0.6535 -0.4718  0.1478
 6721TIP3   OH241721   0.845   4.182   7.118 -0.2336  0.0940  0.0514
 6721TIP3    H141722   0.883   4.151   7.036 -0.8952 -0.2464 -0.1383
 6721TIP3    H241723   0.764   4.131   7.127  0.1316 -0.2959  1.2104
 6722TIP3   OH241724   1.494   1.123   0.618 -0.5481  0.4230  0.2257
 6722TIP3    H141725   1.475   1.199   0.563 -1.9170 -1.0840 -1.4983
 6722TIP3    H241726   1.580   1.094   0.589 -1.0659 -0.0913 -0.8286
 6723TIP3   OH241727   2.410   2.207   7.579 -0.0604  0.1727  0.1700
 6723TIP3    H141728   2.414   2.164   7.494  1.3809 -0.7182  0.6484
 6723TIP3    H241729   2.465   2.285   7.569 -0.1152  0.2147  0.1968
 6724TIP3   OH241730   3.368   6.585   7.966 -0.1258 -0.3414  0.5614
 6724TIP3    H141731   3.425   6.510   7.948  1.1003 -0.1300  3.2124
 6724TIP3    H241732   3.281   6.554   7.942  0.5822 -1.9652 -0.1157
 6725TIP3   OH241733   5.843   3.891   8.339  0.0374 -0.0966 -0.1874
 6725TIP3    H141734   5.886   3.966   8.297 -0.8139  0.1920 -0.5851
 6725TIP3    H241735   5.849   3.909   8.433 -1.7685  1.4592 -0.2973
 6726TIP3   OH241736   6.098   4.910   0.602  0.1495  0.2487 -0.9255
 6726TIP3    H141737   6.090   4.950   0.515 -4.4151  0.3385 -0.6935
 6726TIP3    H241738   6.039   4.960   0.658  0.2423 -1.9651  1.3592
 6727TIP3   OH241739   2.074   4.807   1.136  1.1346 -0.0977  0.1210
 6727TIP3    H141740   2.038   4.798   1.224  2.8909 -0.6473  0.8165
 6727TIP3    H241741   2.068   4.901   1.117  0.5615 -0.0071  0.7336
 6728TIP3   OH241742   5.804   3.187   0.941 -0.6065  0.4442  0.1365
 6728TIP3    H141743   5.895   3.178   0.970 -0.1520  1.5019 -0.8680
 6728TIP3    H241744   5.796   3.280   0.919 -1.1928 -0.1006 -2.1678
 6729TIP3   OH241745   6.002   2.739   7.834 -0.5860  0.0219 -0.1084
 6729TIP3    H141746   6.071   2.673   7.836 -2.1519 -1.6865  0.1093
 6729TIP3    H241747   5.981   2.749   7.741  0.5176  1.2298 -0.2634
 6730TIP3   OH241748   2.523   3.469   7.915 -0.6521  0.7306  1.1907
 6730TIP3    H141749   2.594   3.533   7.925 -0.5182  0.7644  0.2068
 6730TIP3    H241750   2.448   3.521   7.889 -0.6849  0.5552  0.9269
 6731TIP3   OH241751   0.827   2.175   0.892 -0.3222  0.1128  0.6553
 6731TIP3    H141752   0.805   2.268   0.886  0.5533  0.2723 -0.5149
 6731TIP3    H241753   0.743   2.131   0.897 -0.9099  0.7865 -1.9589
 6732TIP3   OH241754   6.037   3.827   8.010  0.2514 -0.2507  0.2996
 6732TIP3    H141755   5.953   3.796   8.043 -0.7775  0.1266 -1.7859
 6732TIP3    H241756   6.100   3.759   8.036 -0.8971 -1.1193  0.8994
 6733TIP3   OH241757   6.163   0.235   0.449 -0.1100  0.1326 -0.0953
 6733TIP3    H141758   6.196   0.309   0.396  0.7268  0.1598  0.4442
 6733TIP3    H241759   6.068   0.245   0.447 -0.2869 -0.9200 -3.1398
 6734TIP3   OH241760   6.083   2.870   1.181  0.0319  0.0475 -0.0045
 6734TIP3    H141761   6.176   2.885   1.164  0.5065 -0.8999  1.5227
 6734TIP3    H241762   6.067   2.781   1.150  0.6460 -1.2825  3.1311
 6735TIP3   OH241763   3.026   0.572   8.727  0.0923  0.7478 -0.4689
 6735TIP3    H141764   3.058   0.662   8.735 -2.6345  1.6798  1.5465
 6735TIP3    H241765   3.059   0.528   8.805  0.0693  0.4891 -0.6048
 6736TIP3   OH241766   4.823   4.912   2.281 -0.0095 -0.1752 -0.0697
 6736TIP3    H141767   4.794   4.978   2.345 -0.0567  0.7626 -1.0322
 6736TIP3    H241768   4.742   4.871   2.251 -0.2034  0.8543 -1.0554
 6737TIP3   OH241769   5.981   6.507   8.371 -0.3368  0.5569 -0.1960
 6737TIP3    H141770   5.903   6.552   8.403 -1.7325  0.2452 -2.8234
 6737TIP3    H241771   5.969   6.416   8.398  0.2717  0.9062  1.3198
 6738TIP3   OH241772   6.110   0.613   7.005 -0.1706 -0.2036 -0.8545
 6738TIP3    H141773   6.018   0.589   6.997 -0.0686 -0.0953 -3.0742
 6738TIP3    H241774   6.156   0.530   7.014 -0.1662 -0.7339 -4.4340
 6739TIP3   OH241775   3.001   4.654   7.654 -0.2945 -0.0119 -0.3984
 6739TIP3    H141776   2.987   4.560   7.662  0.4742 -0.0322  0.9317
 6739TIP3    H241777   2.945   4.692   7.722 -1.6231  0.6176 -1.7759
 6740TIP3   OH241778   5.957   6.507   0.514  0.2677  0.2684  0.1397
 6740TIP3    H141779   5.991   6.471   0.596  1.3890  0.5843 -0.1630
 6740TIP3    H241780   5.961   6.602   0.527 -0.6817  0.3187  0.1507
 6741TIP3   OH241781   5.577   0.641   1.603 -0.1540 -0.5827  0.0367
 6741TIP3    H141782   5.492   0.657   1.644 -0.3701 -0.3537 -0.4909
 6741TIP3    H241783   5.575   0.549   1.578  1.0385 -1.5422  2.9640
 6742TIP3   OH241784   5.809   4.660   8.835 -0.1154  0.5932 -0.4523
 6742TIP3    H141785   5.742   4.724   8.860 -0.5021  0.2749 -0.6762
 6742TIP3    H241786   5.840   4.625   8.919 -1.1758 -0.2297 -0.3900
 6743TIP3   OH241787   4.859   6.660   0.737 -0.2673 -0.8074  0.0454
 6743TIP3    H141788   4.929   6.641   0.675 -1.0541  1.5249 -1.7316
 6743TIP3    H241789   4.904   6.677   0.820  1.2775  0.1163 -0.9149
 6744TIP3   OH241790   3.129   2.139   1.490  0.1591 -0.2045 -0.1857
 6744TIP3    H141791   3.070   2.141   1.566 -0.6090  1.6421 -0.7570
 6744TIP3    H241792   3.090   2.073   1.432 -0.0862 -0.5683  0.3754
 6745TIP3   OH241793   6.691   0.558   8.688 -0.1365  0.2309  0.1901
 6745TIP3    H141794   6.674   0.580   8.780 -0.0394  0.2315  0.2074
 6745TIP3    H241795   6.770   0.505   8.690  0.1714  0.6760  0.0586
 6746TIP3   OH241796   5.847   1.266   0.989  0.3157  0.3934  0.8063
 6746TIP3    H141797   5.809   1.221   1.064 -1.5062  1.7169  0.7560
 6746TIP3    H241798   5.839   1.204   0.917 -0.0089 -0.0466  1.2141
 6747TIP3   OH241799   4.142   1.819   7.423  0.2055  0.2823 -0.2062
 6747TIP3    H141800   4.181   1.788   7.342  0.7481  0.3711  0.0137
 6747TIP3    H241801   4.117   1.740   7.470  0.4831  0.2062 -0.1814
 6748TIP3   OH241802   0.296   2.188   0.898 -0.0086  0.6775 -0.4036
 6748TIP3    H141803   0.373   2.175   0.953 -0.2272  1.5895  0.1347
 6748TIP3    H241804   0.266   2.099   0.877  0.1057  0.3112  0.9097
 6749TIP3   OH241805   6.414   4.291   2.288 -0.1023 -0.3990  0.1541
 6749TIP3    H141806   6.484   4.309   2.351  1.9170 -0.9061 -1.7924
 6749TIP3    H241807   6.434   4.203   2.255 -0.0904  0.4542 -2.3098
 6750TIP3   OH241808   2.711   2.001   0.036  0.1546  0.3007  0.4147
 6750TIP3    H141809   2.621   1.971   0.043  0.4064 -0.1093  2.7467
 6750TIP3    H241810   2.758   1.928  -0.004 -0.4888  0.4632 -0.6756
 6751TIP3   OH241811   5.931   1.063   0.486 -0.0091  0.5877  0.0505
 6751TIP3    H141812   5.841   1.041   0.461 -0.1651  0.6501  0.5615
 6751TIP3    H241813   5.952   1.139   0.432  0.1390 -0.1052 -0.8991
 6752TIP3   OH241814   2.818   1.228   8.849  0.0857 -0.7456 -0.2871
 6752TIP3    H141815   2.828   1.152   8.905 -1.2811 -1.5230 -1.0252
 6752TIP3    H241816   2.768   1.196   8.773 -1.7809  1.1459  0.0237
 6753TIP3   OH241817   5.248   5.418   1.434  0.1932 -0.4281  0.2317
 6753TIP3    H141818   5.310   5.382   1.371  2.1910  3.7341 -0.4931
 6753TIP3    H241819   5.295   5.413   1.518  0.0034 -0.4973  0.3346
 6754TIP3   OH241820   4.030   2.262   8.137  0.1384  0.0148 -0.5305
 6754TIP3    H141821   4.083   2.193   8.178  0.4659  1.4478  1.6451
 6754TIP3    H241822   4.090   2.306   8.077  0.7510  0.1622  0.1809
 6755TIP3   OH241823   5.697   5.149   1.713 -0.2904  0.0457 -0.1832
 6755TIP3    H141824   5.620   5.205   1.704 -1.6195 -1.4314  1.3826
 6755TIP3    H241825   5.709   5.138   1.807 -0.9145 -3.3064 -0.3633
 6756TIP3   OH241826   2.014   5.533   7.765 -0.2199  0.3795 -0.0713
 6756TIP3    H141827   2.010   5.555   7.858  1.8927  1.2123 -0.1278
 6756TIP3    H241828   1.968   5.449   7.758 -0.3709  0.2799  1.7198
 6757TIP3   OH241829   3.787   5.189   6.620  0.6634  0.8325 -0.1718
 6757TIP3    H141830   3.738   5.248   6.678  0.5502 -0.3724  1.0044
 6757TIP3    H241831   3.720   5.135   6.578  0.8316  0.8277 -0.4380
 6758TIP3   OH241832   4.903   3.209   0.685  0.3143  0.0945 -1.0852
 6758TIP3    H141833   4.893   3.114   0.688 -0.4490  0.1883  0.1956
 6758TIP3    H241834   4.832   3.239   0.629 -0.8801  0.0413  0.3248
 6759TIP3   OH241835   0.564   1.158   1.958  0.1580  0.5650  0.5262
 6759TIP3    H141836   0.536   1.093   2.023 -1.7811  1.4645  0.6693
 6759TIP3    H241837   0.635   1.206   2.001 -0.5993  0.6685  1.7063
 6760TIP3   OH241838   1.667   4.691   2.191  0.4085  0.1942  0.2014
 6760TIP3    H141839   1.699   4.767   2.142  0.2942 -0.7090 -1.3467
 6760TIP3    H241840   1.724   4.686   2.267 -0.1264  2.3200  0.8121
 6761TIP3   OH241841   2.881   2.540   0.585  0.6638  0.1749  0.3643
 6761TIP3    H141842   2.794   2.579   0.579  0.5332 -0.3053 -3.5772
 6761TIP3    H241843   2.869   2.448   0.560  2.3045  0.2329 -0.8590
 6762TIP3   OH241844   1.779   1.976   7.622 -0.0334  0.1384 -0.0124
 6762TIP3    H141845   1.811   1.962   7.711  1.7325 -1.6179 -0.8424
 6762TIP3    H241846   1.689   1.943   7.623  0.5397 -1.4956  0.7363
 6763TIP3   OH241847   1.189   6.379   8.580  0.0904 -0.0691  0.1238
 6763TIP3    H141848   1.208   6.291   8.546  0.3735  0.4577 -1.1515
 6763TIP3    H241849   1.094   6.384   8.583  0.0764 -0.4899  0.3996
 6764TIP3   OH241850   4.754   1.008   0.277 -0.1888 -0.4770 -0.0511
 6764TIP3    H141851   4.670   0.965   0.259 -1.2131  1.2717  0.2387
 6764TIP3    H241852   4.736   1.064   0.353  1.1231  0.2500 -0.2376
 6765TIP3   OH241853   0.774   5.779   1.929 -0.9011 -0.2300 -0.7813
 6765TIP3    H141854   0.715   5.847   1.963 -1.1802 -0.0833 -1.5262
 6765TIP3    H241855   0.861   5.817   1.938 -0.9768 -0.1685 -0.2940
 6766TIP3   OH241856   5.889   2.401   6.415  0.3581  0.3841 -0.0996
 6766TIP3    H141857   5.948   2.341   6.370  0.0434  0.1280 -0.1786
 6766TIP3    H241858   5.894   2.482   6.365 -1.7496 -0.5862 -2.0512
 6767TIP3   OH241859   6.479   5.032   0.424 -0.4571  0.2313  0.2878
 6767TIP3    H141860   6.537   5.028   0.500  0.2452 -0.9018 -0.2825
 6767TIP3    H241861   6.428   4.951   0.429 -0.4001  0.1499 -0.4559
 6768TIP3   OH241862   5.700   3.988   0.021  0.2057  0.2549  0.4787
 6768TIP3    H141863   5.656   3.919   0.072 -1.1901 -0.2675 -1.3005
 6768TIP3    H241864   5.658   4.069   0.050 -0.7323 -0.0603  0.0616
 6769TIP3   OH241865   5.324   0.355   1.327  0.4389  0.3720  0.6040
 6769TIP3    H141866   5.229   0.343   1.335  0.4552  0.3920  0.8392
 6769TIP3    H241867   5.353   0.377   1.416  0.9824 -1.7727  1.0131
 6770TIP3   OH241868   4.188   5.205   8.664  0.8039  0.2342 -0.2725
 6770TIP3    H141869   4.239   5.276   8.624 -1.3342  1.8691 -0.2435
 6770TIP3    H241870   4.127   5.178   8.596 -1.5754  1.7158  1.1525
 6771TIP3   OH241871   0.824   2.887   6.916 -0.0194 -0.3901 -0.1550
 6771TIP3    H141872   0.854   2.812   6.968  0.0923  1.4183  2.6037
 6771TIP3    H241873   0.729   2.875   6.911  0.1260 -1.3750 -0.9263
 6772TIP3   OH241874   3.134   2.430   0.456 -0.9105 -0.5674  0.0351
 6772TIP3    H141875   3.117   2.523   0.442 -1.5958 -0.5197  1.0750
 6772TIP3    H241876   3.160   2.424   0.548 -0.7507 -1.3870 -0.0593
 6773TIP3   OH241877   0.790   0.720   1.785 -0.5978 -0.2626 -0.1165
 6773TIP3    H141878   0.876   0.757   1.765  0.0949 -1.8623 -0.2842
 6773TIP3    H241879   0.734   0.750   1.714 -0.3420  1.2200  0.2618
 6774TIP3   OH241880   0.473   1.277   8.337  0.7147  0.0331 -0.3910
 6774TIP3    H141881   0.482   1.326   8.419 -0.4946 -2.7343  1.5749
 6774TIP3    H241882   0.562   1.266   8.305  1.9388 -2.6879  3.1877
 6775TIP3   OH241883   3.878   6.687   7.683 -0.0359 -0.5152  0.0070
 6775TIP3    H141884   3.801   6.651   7.727 -0.5653 -1.1001 -1.3391
 6775TIP3    H241885   3.874   6.781   7.702 -0.0804 -0.7751  1.4054
 6776TIP3   OH241886   0.922   2.875   1.020 -0.1300  0.0151 -0.0330
 6776TIP3    H141887   0.929   2.807   1.086  0.6730  0.1122 -0.0090
 6776TIP3    H241888   0.927   2.957   1.069  1.7483  0.1045 -0.2932
 6777TIP3   OH241889   0.585   5.984   1.894  0.3963  0.8107  0.2077
 6777TIP3    H141890   0.627   6.003   1.810  1.1349  0.7218  0.5474
 6777TIP3    H241891   0.630   6.042   1.957  0.6063  0.1040  0.7225
 6778TIP3   OH241892   5.894   0.271   7.715  0.2653 -0.4374 -0.1671
 6778TIP3    H141893   5.830   0.343   7.719 -1.4701 -1.7404 -2.3660
 6778TIP3    H241894   5.860   0.206   7.776  0.8957 -0.1329  0.5248
 6779TIP3   OH241895   4.679   6.684   6.628  0.3800  0.0435  0.1159
 6779TIP3    H141896   4.649   6.593   6.624 -0.6891  0.3186  1.2492
 6779TIP3    H241897   4.759   6.685   6.575 -1.0693 -0.9311 -2.2819
 6780TIP3   OH241898   0.206   6.359   8.280 -0.2599  0.4117 -0.8897
 6780TIP3    H141899   0.258   6.302   8.336  1.2703  0.3679 -2.2766
 6780TIP3    H241900   0.149   6.298   8.232  0.0691  0.2164 -1.0391
 6781TIP3   OH241901   5.351   2.342   6.848  0.4301  0.7287 -0.2754
 6781TIP3    H141902   5.375   2.282   6.777 -0.6639 -1.6887  1.2404
 6781TIP3    H241903   5.428   2.342   6.905  0.5011  0.9206 -0.3719
 6782TIP3   OH241904   2.887   3.046   0.394  0.1453 -0.2339  0.5279
 6782TIP3    H141905   2.903   2.961   0.435 -2.1072 -0.1887  1.6705
 6782TIP3    H241906   2.854   3.025   0.306  0.0558 -0.5317  0.6336
 6783TIP3   OH241907   5.371   2.190   7.749  0.2104  0.0103 -0.0381
 6783TIP3    H141908   5.305   2.155   7.808 -0.5108  0.2817 -0.6683
 6783TIP3    H241909   5.440   2.123   7.747 -1.2149 -1.4905 -1.3668
 6784TIP3   OH241910   2.926   1.176   6.441  0.1834 -0.0793  0.1683
 6784TIP3    H141911   2.880   1.095   6.464 -0.9748  0.6186  0.4105
 6784TIP3    H241912   3.013   1.165   6.478 -0.2061 -0.8969  0.8897
 6785TIP3   OH241913   2.907   5.883   0.300  0.0251  0.1945  0.4189
 6785TIP3    H141914   2.973   5.859   0.236 -0.7687 -1.9305  0.3222
 6785TIP3    H241915   2.927   5.974   0.322  2.6600 -0.2147  0.0509
 6786TIP3   OH241916   1.588   4.201   8.424 -0.3468  0.3250  0.8309
 6786TIP3    H141917   1.641   4.129   8.460  1.5697  1.5774  0.6987
 6786TIP3    H241918   1.507   4.160   8.396  0.3990 -1.6556  1.4042
 6787TIP3   OH241919   3.985   0.627   8.214  0.1599  0.3261  1.0386
 6787TIP3    H141920   4.041   0.579   8.154  0.4208  2.2974 -0.3960
 6787TIP3    H241921   3.905   0.574   8.220  1.1252 -1.1963  1.0407
 6788TIP3   OH241922   1.429   2.024   0.356  0.1855 -0.4355 -0.2026
 6788TIP3    H141923   1.384   2.002   0.275  1.2905 -0.9658 -0.6843
 6788TIP3    H241924   1.366   2.003   0.425 -0.4773 -0.7175 -0.8853
 6789TIP3   OH241925   5.997   3.269   8.164 -0.1412 -0.1512  0.4683
 6789TIP3    H141926   5.980   3.189   8.215  0.6051 -1.2740 -0.9450
 6789TIP3    H241927   6.090   3.264   8.142 -0.1882  0.8964 -0.0174
 6790TIP3   OH241928   3.823   5.962   7.107 -0.9242  0.4491 -0.4254
 6790TIP3    H141929   3.861   5.958   7.019 -1.9347  1.8579 -0.9531
 6790TIP3    H241930   3.891   6.003   7.160 -1.2070  1.8213 -1.0966
 6791TIP3   OH241931   5.137   2.177   7.892  0.2842  0.4489 -0.4715
 6791TIP3    H141932   5.147   2.137   7.978 -0.6043  0.9474 -0.1258
 6791TIP3    H241933   5.051   2.218   7.894  0.0276  0.0189 -1.7907
 6792TIP3   OH241934   6.115   4.465   8.041 -1.0355  0.1393  0.2602
 6792TIP3    H141935   6.032   4.505   8.015 -1.8195 -1.5563 -0.0241
 6792TIP3    H241936   6.153   4.434   7.959  0.0332  1.1239  0.3573
 6793TIP3   OH241937   5.639   4.543   1.780 -0.7602  0.3150  0.6029
 6793TIP3    H141938   5.593   4.547   1.864  2.1114  1.7791  2.2700
 6793TIP3    H241939   5.646   4.634   1.753  0.9328  0.1435  0.3611
 6794TIP3   OH241940   0.911   6.333   8.257  0.3003  0.3131 -0.2058
 6794TIP3    H141941   0.992   6.311   8.211  1.0448  2.2153  0.1193
 6794TIP3    H241942   0.853   6.367   8.188 -0.5772 -1.7599 -0.5777
 6795TIP3   OH241943   5.787   3.619   0.500 -0.1760  0.4565 -0.0999
 6795TIP3    H141944   5.822   3.580   0.420 -0.6941  0.5798 -0.3908
 6795TIP3    H241945   5.720   3.680   0.470  1.3546  2.4291  0.2686
 6796TIP3   OH241946   3.285   4.912   8.652 -0.1318  0.1695 -0.1203
 6796TIP3    H141947   3.319   4.897   8.740  2.6587  0.9134 -0.9810
 6796TIP3    H241948   3.302   4.830   8.605  1.3933  0.8275 -0.7861
 6797TIP3   OH241949   2.551   5.568   8.032  0.3327 -0.1620 -0.0552
 6797TIP3    H141950   2.559   5.607   8.119 -0.9579  1.5800 -0.6469
 6797TIP3    H241951   2.469   5.518   8.036  0.7166 -0.8009 -0.0332
 6798TIP3   OH241952   0.518   6.631   6.662  0.4307  1.1465  0.7913
 6798TIP3    H141953   0.605   6.622   6.701 -0.6766 -0.0444  3.1874
 6798TIP3    H241954   0.492   6.541   6.641 -0.2779  1.4770  0.2092
 6799TIP3   OH241955   3.138   1.730   8.111  0.0548 -0.2930 -0.3507
 6799TIP3    H141956   3.188   1.684   8.044 -0.4925 -0.1574 -0.8600
 6799TIP3    H241957   3.057   1.755   8.068 -0.3522 -0.2875  0.3929
 6800TIP3   OH241958   3.441   5.942   7.579  0.9982  0.0746  0.2696
 6800TIP3    H141959   3.464   6.030   7.550 -0.8851  0.6764  0.4473
 6800TIP3    H241960   3.406   5.900   7.500  1.1069 -0.2358  0.3853
 6801TIP3   OH241961   3.498   3.340   0.595 -0.4365 -0.8137 -0.4731
 6801TIP3    H141962   3.549   3.397   0.539  0.3113  0.6526  1.5986
 6801TIP3    H241963   3.413   3.332   0.550 -0.5628  1.9051 -0.8666
 6802TIP3   OH241964   1.316   0.087   8.165 -0.0714  0.5442  0.4546
 6802TIP3    H141965   1.312   0.105   8.259 -0.2707 -0.5231  0.6556
 6802TIP3    H241966   1.382   0.019   8.156  0.5599  1.2259 -0.2852
 6803TIP3   OH241967   5.570   4.019   1.019 -0.2616  0.1850  0.4477
 6803TIP3    H141968   5.665   4.019   1.029 -0.2522 -2.1254  0.9460
 6803TIP3    H241969   5.555   3.976   0.935 -0.8878  0.3814  0.4515
 6804TIP3   OH241970   2.120   0.198   7.796  0.0664 -0.3592 -0.1803
 6804TIP3    H141971   2.025   0.188   7.796  0.0254 -0.1184  0.9807
 6804TIP3    H241972   2.138   0.259   7.725 -0.3900 -2.4197 -2.1690
 6805TIP3   OH241973   5.662   5.078   7.406 -0.0340 -0.0993  0.2593
 6805TIP3    H141974   5.620   5.083   7.320  0.8374 -1.7496 -0.3006
 6805TIP3    H241975   5.609   5.135   7.462 -1.7556 -0.4818 -0.9058
 6806TIP3   OH241976   3.027   1.621   8.366  0.2861 -0.2444 -0.2012
 6806TIP3    H141977   2.937   1.589   8.356  0.3186 -1.2462  2.1244
 6806TIP3    H241978   3.048   1.660   8.281 -3.1446  2.0760 -0.2166
 6807TIP3   OH241979   3.931   2.448   6.801  0.0480 -0.2282 -0.2360
 6807TIP3    H141980   3.856   2.390   6.816  0.0827  0.0555  1.1413
 6807TIP3    H241981   3.901   2.510   6.735 -1.1647  0.2598  0.7345
 6808TIP3   OH241982   6.287   3.108   1.677 -0.2466  0.3831 -0.6116
 6808TIP3    H141983   6.207   3.158   1.664 -1.4718 -1.6869 -1.4526
 6808TIP3    H241984   6.320   3.137   1.763 -3.3803 -0.6111  1.0646
 6809TIP3   OH241985   0.977   6.641   1.442  0.4015  0.3407 -0.8736
 6809TIP3    H141986   1.033   6.609   1.372  0.1942 -0.0039 -0.8843
 6809TIP3    H241987   0.895   6.592   1.432  0.0377  0.9617 -0.9607
 6810TIP3   OH241988   4.130   1.191   2.472 -0.1926  0.6774  0.8039
 6810TIP3    H141989   4.189   1.231   2.407 -1.9227 -0.8462 -1.9148
 6810TIP3    H241990   4.166   1.219   2.556  3.4673  1.1065 -0.6641
 6811TIP3   OH241991   1.829   3.846   1.217  0.5984 -0.2550 -0.0244
 6811TIP3    H141992   1.882   3.913   1.260  0.8472  0.0662 -0.8180
 6811TIP3    H241993   1.892   3.784   1.181  0.4642  0.2401 -1.1501
 6812TIP3   OH241994   5.862   4.568   0.247  0.3781 -0.3102  0.3506
 6812TIP3    H141995   5.953   4.538   0.246  0.1485 -1.0335 -0.2715
 6812TIP3    H241996   5.857   4.630   0.319  1.1621 -0.9268  0.9459
 6813TIP3   OH241997   3.549   5.133   1.694 -0.0470  0.4112 -0.1366
 6813TIP3    H141998   3.526   5.187   1.770  3.0719 -1.3658  2.3166
 6813TIP3    H241999   3.504   5.050   1.710 -0.9143  0.6320 -1.3177
 6814TIP3   OH242000   0.120   1.439   0.701  0.0778 -0.2039 -0.1319
 6814TIP3    H142001   0.190   1.419   0.763 -0.2033  0.5790  0.4517
 6814TIP3    H242002   0.095   1.354   0.665  0.3202 -0.6548  0.7467
 6815TIP3   OH242003   4.859   0.141   7.363 -0.3059 -1.1477  0.5490
 6815TIP3    H142004   4.916   0.212   7.391 -0.2824  0.0054 -2.0821
 6815TIP3    H242005   4.776   0.185   7.341 -0.4719 -1.9737 -0.5753
 6816TIP3   OH242006   5.195   3.421   7.552  0.2337  0.1325 -0.0897
 6816TIP3    H142007   5.278   3.463   7.574 -0.2801  1.3543 -0.3976
 6816TIP3    H242008   5.214   3.327   7.551  2.2483  0.4548 -2.6497
 6817TIP3   OH242009   1.260   6.649   1.007 -0.0326  0.1676  0.1313
 6817TIP3    H142010   1.234   6.706   1.079 -0.3181  1.4433 -0.9303
 6817TIP3    H242011   1.355   6.643   1.014 -0.0852  0.0296  0.7838
 6818TIP3   OH242012   3.055   3.417   1.285 -0.3243 -0.6995  0.0291
 6818TIP3    H142013   3.066   3.434   1.378 -0.0842 -0.5072 -0.0340
 6818TIP3    H242014   2.988   3.348   1.281  0.7901 -1.8305  0.4151
 6819TIP3   OH242015   0.620   5.360   1.712 -0.4754 -0.4784 -0.0581
 6819TIP3    H142016   0.662   5.284   1.753 -2.3450 -1.2403  0.5964
 6819TIP3    H242017   0.563   5.322   1.645 -0.1975  0.5033 -0.8719
 6820TIP3   OH242018   1.258   2.995   8.004  0.0369  0.2414 -0.0308
 6820TIP3    H142019   1.214   3.047   7.937  0.1990  0.6640  0.1884
 6820TIP3    H242020   1.187   2.950   8.050  0.0038 -1.4778 -1.6217
 6821TIP3   OH242021   1.047   3.389   6.980 -0.3515  0.4158 -0.3754
 6821TIP3    H142022   1.138   3.362   6.967 -0.5106 -0.0373 -0.5820
 6821TIP3    H242023   1.033   3.386   7.074 -0.1563  0.4697 -0.3451
 6822TIP3   OH242024   3.649   2.991   7.518 -0.0311  0.1890  0.1609
 6822TIP3    H142025   3.702   2.914   7.495  0.6245  0.5728  0.3695
 6822TIP3    H242026   3.671   3.010   7.609  0.4494  1.1240 -0.1385
 6823TIP3   OH242027   1.705   6.238   6.704  0.2965 -0.0965 -0.3234
 6823TIP3    H142028   1.682   6.201   6.619  1.2896  0.1987 -0.7361
 6823TIP3    H242029   1.695   6.166   6.766 -2.1359  0.1125 -0.3756
 6824TIP3   OH242030   5.288   5.178   0.978 -0.2262  0.2084 -0.3897
 6824TIP3    H142031   5.288   5.085   0.959 -0.6983 -0.2016  1.4361
 6824TIP3    H242032   5.285   5.220   0.892  1.9046 -1.3927 -1.3391
 6825TIP3   OH242033   5.983   1.522   8.172  0.3793  0.4904 -0.1393
 6825TIP3    H142034   5.986   1.614   8.144 -0.7837  0.4059 -0.5710
 6825TIP3    H242035   5.978   1.527   8.268  1.2891  0.8409 -0.0947
 6826TIP3   OH242036   2.535   6.180   6.917  0.1986 -0.1193  0.8870
 6826TIP3    H142037   2.489   6.211   6.995  0.3801 -0.9314  1.3344
 6826TIP3    H242038   2.500   6.092   6.902  1.0925 -0.4749  0.8271
 6827TIP3   OH242039   5.038   1.286   0.617 -0.2022  0.0052  0.5217
 6827TIP3    H142040   5.062   1.219   0.681 -0.4897 -1.7548 -1.1042
 6827TIP3    H242041   5.068   1.250   0.533 -2.4223  0.8628 -0.7136
 6828TIP3   OH242042   5.745   5.900   1.618 -0.6703  0.4078  0.1311
 6828TIP3    H142043   5.836   5.916   1.643 -0.8183  1.6265 -0.0504
 6828TIP3    H242044   5.702   5.874   1.699  0.1975 -2.0204 -0.1031
 6829TIP3   OH242045   4.313   2.376   7.673  0.2512  0.3775 -0.0013
 6829TIP3    H142046   4.364   2.365   7.592  1.8398  2.1019  0.6981
 6829TIP3    H242047   4.352   2.313   7.734  1.7865  1.8320  0.5954
 6830TIP3   OH242048   1.757   3.289   1.219 -0.0186  0.2330  0.9686
 6830TIP3    H142049   1.749   3.275   1.313  2.4026 -1.5837  1.0038
 6830TIP3    H242050   1.793   3.378   1.210  0.1468  0.2493  1.7708
 6831TIP3   OH242051   1.397   1.711   7.253 -0.0280 -0.5741 -0.1082
 6831TIP3    H142052   1.474   1.715   7.197  0.7115 -0.7604  0.8687
 6831TIP3    H242053   1.424   1.658   7.328 -1.2561 -1.0423  0.0291
 6832TIP3   OH242054   3.555   3.429   8.076  0.5625  0.5528 -0.0760
 6832TIP3    H142055   3.505   3.448   7.997 -1.0628  0.9748  0.9891
 6832TIP3    H242056   3.511   3.480   8.145  3.0790  1.7066  0.7794
 6833TIP3   OH242057   4.875   4.801   0.032 -0.2320 -0.3042  0.0955
 6833TIP3    H142058   4.782   4.812   0.014  0.1328  2.6472 -0.4434
 6833TIP3    H242059   4.913   4.771  -0.051 -0.3979  0.6825 -0.3427
 6834TIP3   OH242060   5.654   1.255   7.133  0.2557  0.5387  0.0030
 6834TIP3    H142061   5.658   1.168   7.172 -2.3120  0.5710  0.5497
 6834TIP3    H242062   5.717   1.252   7.061 -1.0762 -2.4601 -1.2108
 6835TIP3   OH242063   4.964   1.414   7.541 -0.0481 -0.0920  0.0888
 6835TIP3    H142064   4.988   1.503   7.516  0.7341 -0.3864 -0.2408
 6835TIP3    H242065   4.948   1.419   7.635  2.3578 -0.0675  0.5554
 6836TIP3   OH242066   6.107   4.450   0.382  0.0833  0.1247  0.0050
 6836TIP3    H142067   6.033   4.397   0.411  0.0681  0.5077  0.7003
 6836TIP3    H242068   6.131   4.501   0.460  0.8758  0.2312 -0.3067
 6837TIP3   OH242069   5.015   0.476   6.888  0.4725  1.1419 -0.1760
 6837TIP3    H142070   5.068   0.513   6.817  1.6941 -1.7261 -0.9089
 6837TIP3    H242071   4.989   0.389   6.856 -0.6792  0.5548  2.1032
 6838TIP3   OH242072   3.373   2.352   1.802  0.4454 -0.4584  0.6088
 6838TIP3    H142073   3.324   2.276   1.834 -0.4399 -0.0197  0.3448
 6838TIP3    H242074   3.386   2.407   1.879  0.2655 -0.4491  0.6345
 6839TIP3   OH242075   2.270   0.533   6.378 -0.3131 -0.0205 -0.6030
 6839TIP3    H142076   2.198   0.480   6.413 -0.3083  0.5895  0.3713
 6839TIP3    H242077   2.329   0.469   6.338 -1.0558 -0.5941 -0.7924
 6840TIP3   OH242078   4.224   4.816   1.743 -0.2401  0.6413  0.3975
 6840TIP3    H142079   4.206   4.806   1.836  1.8395  1.9553  1.0383
 6840TIP3    H242080   4.232   4.911   1.730  1.7370  0.4160 -0.5711
 6841TIP3   OH242081   0.620   6.179   2.124  0.1390 -0.4580  0.5578
 6841TIP3    H142082   0.696   6.127   2.149  0.7469  1.3731  2.9057
 6841TIP3    H242083   0.564   6.178   2.201 -1.0677  0.2042 -0.2795
 6842TIP3   OH242084   6.568   4.473   8.776 -0.5325  0.0881  0.2639
 6842TIP3    H142085   6.501   4.422   8.731 -1.3427  0.5509  0.8948
 6842TIP3    H242086   6.529   4.560   8.785  0.2991  0.4627  0.3412
 6843TIP3   OH242087   4.148   5.997   1.767  0.3969  0.3766  0.0150
 6843TIP3    H142088   4.150   5.974   1.675 -2.5616 -1.3107  0.2359
 6843TIP3    H242089   4.121   6.089   1.769 -1.0827 -0.0111 -0.8436
 6844TIP3   OH242090   4.729   2.628   7.306 -0.0285 -0.3478 -0.5535
 6844TIP3    H142091   4.796   2.674   7.356 -1.4131  1.4347 -0.2254
 6844TIP3    H242092   4.778   2.575   7.243  1.7165  1.9650 -1.2830
 6845TIP3   OH242093   1.317   4.405   7.716 -0.3256  0.5048  0.1798
 6845TIP3    H142094   1.351   4.398   7.805  1.5053 -0.5869 -0.5431
 6845TIP3    H242095   1.376   4.467   7.673  0.2520 -0.7268 -0.8643
 6846TIP3   OH242096   4.974   2.457   2.205 -0.1946  0.3891 -0.0141
 6846TIP3    H142097   4.897   2.509   2.184 -0.1314  1.2808  1.7222
 6846TIP3    H242098   4.940   2.382   2.255 -0.1039 -0.3194 -0.9732
 6847TIP3   OH242099   5.816   3.793   0.704  0.1974 -0.6609 -0.6936
 6847TIP3    H142100   5.827   3.715   0.649  1.1258 -0.3301 -1.0084
 6847TIP3    H242101   5.882   3.855   0.670 -0.0038 -0.0300  0.0497
 6848TIP3   OH242102   4.963   6.370   0.331  0.0611 -0.5259  0.1938
 6848TIP3    H142103   5.042   6.395   0.284  1.6892 -0.6097  2.6861
 6848TIP3    H242104   4.958   6.275   0.320 -0.5345 -0.3675 -1.1150
 6849TIP3   OH242105   1.639   6.755   1.550  0.1230  0.4189 -0.1278
 6849TIP3    H142106   1.557   6.749   1.501  0.8031 -1.0634 -1.1398
 6849TIP3    H242107   1.615   6.732   1.640 -0.7723  1.2288 -0.1342
 6850TIP3   OH242108   3.070   4.238   1.327  0.1263  0.0977  0.1731
 6850TIP3    H142109   3.051   4.218   1.236 -0.4545 -0.4086  0.4003
 6850TIP3    H242110   2.995   4.291   1.356  1.4467  2.3854 -0.3145
 6851TIP3   OH242111   4.925   3.374   7.830 -0.1961  0.2136  0.8264
 6851TIP3    H142112   4.871   3.310   7.877  1.1450  0.2004  2.4589
 6851TIP3    H242113   4.881   3.458   7.843  0.9508  0.4978  3.6602
 6852TIP3   OH242114   0.009   1.478   6.604  0.0604 -0.4960 -0.2767
 6852TIP3    H142115  -0.017   1.402   6.552 -1.2040 -0.9707  0.9808
 6852TIP3    H242116  -0.073   1.516   6.633  0.7123  0.5588  0.2429
 6853TIP3   OH242117   6.237   4.558   8.270 -0.2199 -1.0906 -0.0154
 6853TIP3    H142118   6.167   4.523   8.325 -2.5152  0.7778 -1.5390
 6853TIP3    H242119   6.221   4.520   8.184 -0.3378  0.4920 -0.7338
 6854TIP3   OH242120   4.980   2.556   8.035 -0.1439 -0.6232 -0.2707
 6854TIP3    H142121   4.893   2.560   7.995 -0.6183 -2.7594  0.4204
 6854TIP3    H242122   5.034   2.612   7.980 -1.6316 -0.4029 -1.5837
 6855TIP3   OH242123   3.127   3.882   8.595 -0.1332 -0.3849 -0.4569
 6855TIP3    H142124   3.126   3.977   8.596 -1.4267 -0.3766 -0.2564
 6855TIP3    H242125   3.034   3.857   8.594  0.1812 -1.6364 -0.3822
 6856TIP3   OH242126   0.742   3.790   8.696  0.0063 -0.2283  0.3015
 6856TIP3    H142127   0.669   3.740   8.731 -0.8390  0.9695  0.3044
 6856TIP3    H242128   0.723   3.881   8.720  0.9043  0.2474 -0.7044
 6857TIP3   OH242129   4.287   4.517   8.417 -0.0492 -0.0644 -0.3297
 6857TIP3    H142130   4.281   4.518   8.513  0.0146  2.2142 -0.2902
 6857TIP3    H242131   4.365   4.466   8.398  0.6408  0.4884  0.9011
 6858TIP3   OH242132   3.277   5.316   6.069  0.1517  0.5955  0.0727
 6858TIP3    H142133   3.312   5.370   5.999  1.1172  1.6540  1.3124
 6858TIP3    H242134   3.195   5.358   6.095 -1.0443 -0.6937 -1.4234
 6859TIP3   OH242135   4.474   2.322   0.159  0.5434  0.2066  0.3904
 6859TIP3    H142136   4.550   2.264   0.155  1.2213  0.9735  1.4115
 6859TIP3    H242137   4.409   2.274   0.210  0.4541 -0.3382 -0.2372
 6860TIP3   OH242138   4.189   3.749   8.175  0.7746  0.7253 -0.1688
 6860TIP3    H142139   4.110   3.697   8.186  1.5797 -0.1115  2.4517
 6860TIP3    H242140   4.246   3.696   8.119 -0.1933  0.9953 -1.4400
 6861TIP3   OH242141   3.575   2.695   0.222  0.5932  0.1292 -0.4793
 6861TIP3    H142142   3.614   2.704   0.309  0.9758  1.2990 -0.7478
 6861TIP3    H242143   3.599   2.607   0.194 -0.3769 -0.6632  0.9795
 6862TIP3   OH242144   6.573   2.151   8.327 -0.1278  0.4297  0.2121
 6862TIP3    H142145   6.605   2.073   8.281 -0.0322  0.8069 -0.3691
 6862TIP3    H242146   6.642   2.172   8.389  0.2538  0.5912 -0.2682
 6863TIP3   OH242147   4.663   4.429   2.108  0.0158  0.1349 -0.2670
 6863TIP3    H142148   4.634   4.373   2.181 -1.0222 -0.2291 -0.9343
 6863TIP3    H242149   4.740   4.383   2.072 -0.0206 -0.1610  0.0257
 6864TIP3   OH242150   0.424   2.882   0.116 -0.7803  0.1519  0.3380
 6864TIP3    H142151   0.495   2.861   0.055 -0.6935 -1.4967  0.9636
 6864TIP3    H242152   0.467   2.887   0.202 -1.1936  0.6716  0.5236
 6865TIP3   OH242153   0.608   3.962   7.498  0.1905  0.2045  0.4660
 6865TIP3    H142154   0.532   3.916   7.462 -0.3297  2.4404 -1.5936
 6865TIP3    H242155   0.684   3.911   7.469 -0.3130  0.9511 -2.5017
 6866TIP3   OH242156   3.011   6.105   1.995 -0.2609  0.0699 -0.1151
 6866TIP3    H142157   3.085   6.160   1.971 -1.6918  1.4623 -1.6010
 6866TIP3    H242158   2.934   6.162   1.983 -1.7251 -1.9089 -0.5866
 6867TIP3   OH242159   0.716   3.032   0.935 -0.4093  0.8483 -0.3172
 6867TIP3    H142160   0.795   2.980   0.948 -1.3065 -0.5261 -0.0719
 6867TIP3    H242161   0.709   3.041   0.840 -0.8667 -0.5679 -0.4505
 6868TIP3   OH242162   2.010   0.024   0.555  0.1544  0.3348  0.1165
 6868TIP3    H142163   1.996  -0.004   0.464  0.4904  0.7549 -0.0672
 6868TIP3    H242164   2.033   0.117   0.548  1.0029  0.1649  0.5591
 6869TIP3   OH242165   0.026   1.517   2.263 -0.4336 -0.3909 -0.7127
 6869TIP3    H142166  -0.029   1.454   2.216 -0.5399 -0.1647 -0.8921
 6869TIP3    H242167   0.008   1.601   2.220 -1.9524  0.1766  0.8953
 6870TIP3   OH242168   2.227   5.426   0.956 -0.1636 -0.6381  0.4483
 6870TIP3    H142169   2.261   5.497   0.901 -0.3243 -1.1558 -0.3379
 6870TIP3    H242170   2.151   5.393   0.907 -0.0502 -1.3947  0.7749
 6871TIP3   OH242171   2.854   2.990   7.761 -0.3574 -0.5585  0.0773
 6871TIP3    H142172   2.761   2.976   7.742 -0.4692  0.8604 -0.5780
 6871TIP3    H242173   2.857   3.077   7.801  0.7859 -0.2112 -0.7137
 6872TIP3   OH242174   2.193   3.617   1.899  0.5389 -0.0366  0.2503
 6872TIP3    H142175   2.100   3.595   1.898  0.4922  0.1612 -0.0695
 6872TIP3    H242176   2.237   3.537   1.929  0.4021 -0.6691 -1.1760
 6873TIP3   OH242177   0.541   2.700   7.207  0.2774 -0.7285  0.5154
 6873TIP3    H142178   0.517   2.627   7.264  3.1083 -0.6417  1.9814
 6873TIP3    H242179   0.553   2.774   7.266  0.8986  0.0220 -0.5246
 6874TIP3   OH242180   1.739   2.359   8.030 -0.2821 -0.2246 -0.4629
 6874TIP3    H142181   1.781   2.301   8.094  0.5880  0.7478 -0.1253
 6874TIP3    H242182   1.743   2.311   7.948 -1.9681 -1.7712  0.2808
 6875TIP3   OH242183   2.143   3.559   0.543 -0.3840 -0.6322 -0.3684
 6875TIP3    H142184   2.131   3.641   0.590 -1.2881 -0.6888 -0.4823
 6875TIP3    H242185   2.112   3.576   0.455 -1.3141 -1.3011 -0.1896
 6876TIP3   OH242186   4.951   4.749   7.160 -0.2177 -0.5592 -0.0735
 6876TIP3    H142187   4.972   4.714   7.074 -0.8324 -0.7614 -0.1404
 6876TIP3    H242188   5.018   4.815   7.176  0.4269 -1.1418 -0.3242
 6877TIP3   OH242189   2.435   4.941   1.430 -0.2713 -0.3792 -0.5489
 6877TIP3    H142190   2.454   5.020   1.381  0.1951  0.0355  0.2760
 6877TIP3    H242191   2.395   4.972   1.512 -0.2745 -1.0051 -0.3027
 6878TIP3   OH242192   5.216   0.469   1.935 -0.2719 -0.8921 -0.3417
 6878TIP3    H142193   5.136   0.428   1.903 -1.3501  1.2926 -0.6158
 6878TIP3    H242194   5.287   0.419   1.895 -1.5050 -2.3085 -0.8203
 6879TIP3   OH242195   1.798   5.794   1.968  0.2337 -0.1752 -0.0142
 6879TIP3    H142196   1.819   5.807   2.060 -1.1790 -1.4941  0.5319
 6879TIP3    H242197   1.778   5.882   1.935 -1.3269  0.0772  1.4925
 6880TIP3   OH242198   2.345   6.669   7.568  0.0023 -0.0705  0.3011
 6880TIP3    H142199   2.370   6.578   7.580 -1.1541 -0.4886 -0.3196
 6880TIP3    H242200   2.420   6.708   7.522  0.1788 -0.9071 -0.1504
 6881TIP3   OH242201   1.141   3.828   8.304  0.3531 -0.0419 -0.2846
 6881TIP3    H142202   1.179   3.741   8.315 -0.4879 -0.3026  0.7953
 6881TIP3    H242203   1.048   3.811   8.287  0.3169  0.6370 -0.8307
 6882TIP3   OH242204   3.657   1.967   6.763  0.8866 -0.0797  0.5993
 6882TIP3    H142205   3.714   1.892   6.745  1.7668  0.4368  1.1509
 6882TIP3    H242206   3.570   1.929   6.776  0.9742 -0.8343 -0.8260
 6883TIP3   OH242207   5.101   0.622   8.167  0.0241  0.0281 -0.6623
 6883TIP3    H142208   5.008   0.601   8.176  0.5347 -2.0986  0.3238
 6883TIP3    H242209   5.140   0.600   8.251  1.4187  0.9833 -1.0142
 6884TIP3   OH242210   3.567   3.938   8.206 -0.0455 -0.1961 -0.2614
 6884TIP3    H142211   3.623   3.960   8.132 -0.6705 -2.5129 -1.4949
 6884TIP3    H242212   3.628   3.904   8.272  0.2041 -0.9610 -0.8780
 6885TIP3   OH242213   6.573   0.059   1.511 -0.0168  0.1191 -0.3387
 6885TIP3    H142214   6.656   0.021   1.482  0.7224  1.4224  0.0189
 6885TIP3    H242215   6.508   0.027   1.448  0.4643 -2.1142  0.2181
 6886TIP3   OH242216   0.795   3.854   0.473  0.4568 -0.2177  0.0027
 6886TIP3    H142217   0.738   3.849   0.550 -0.3687  0.3975 -0.5615
 6886TIP3    H242218   0.739   3.886   0.403  1.4738  0.3095 -0.5953
 6887TIP3   OH242219   4.248   6.289   6.862  0.5325  0.1977  0.1194
 6887TIP3    H142220   4.269   6.320   6.773  1.1171  0.0675  0.2075
 6887TIP3    H242221   4.260   6.194   6.858 -0.7033  0.0422  0.0016
 6888TIP3   OH242222   5.500   1.750   7.221  0.1461  0.1969  0.0761
 6888TIP3    H142223   5.433   1.811   7.191  1.4008  0.8075 -1.6796
 6888TIP3    H242224   5.551   1.800   7.285 -0.0774  0.3046  0.1692
 6889TIP3   OH242225   5.155   0.790   0.161  0.0361 -0.3585  0.1516
 6889TIP3    H142226   5.222   0.856   0.144 -1.7222  1.2644 -0.8122
 6889TIP3    H242227   5.201   0.707   0.149  2.0955  0.6561  0.4985
 6890TIP3   OH242228   0.171   0.266   7.202 -0.2854  0.2889  0.2589
 6890TIP3    H142229   0.083   0.306   7.205 -0.3840  0.1055 -0.1118
 6890TIP3    H242230   0.154   0.172   7.197 -0.0663  0.2535  0.1914
 6891TIP3   OH242231   0.629   3.263   8.151  0.0391  0.1445  0.3716
 6891TIP3    H142232   0.635   3.354   8.179 -0.1717  0.4949 -0.6902
 6891TIP3    H242233   0.718   3.229   8.159  0.2556  0.6478  0.1137
 6892TIP3   OH242234   0.059   4.256   1.077  0.0027 -0.2302 -0.1301
 6892TIP3    H142235   0.152   4.261   1.057  0.1480  0.4010  0.6527
 6892TIP3    H242236   0.022   4.336   1.039  0.1053  0.4523  1.1731
 6893TIP3   OH242237   4.617   5.924   0.626 -0.1213  0.4144 -0.0878
 6893TIP3    H142238   4.534   5.903   0.668 -0.0614 -1.6915 -0.9177
 6893TIP3    H242239   4.664   5.841   0.621  2.4816  1.6925  1.2122
 6894TIP3   OH242240   5.736   0.694   6.840  0.5838 -0.1722  0.1906
 6894TIP3    H142241   5.795   0.659   6.774  1.8412  0.8128  0.7469
 6894TIP3    H242242   5.665   0.736   6.791  1.4549  0.4766 -0.5316
 6895TIP3   OH242243   1.564   4.050   0.908  0.2140 -0.0497  0.2459
 6895TIP3    H142244   1.591   4.141   0.896  0.0045 -0.0266 -0.0755
 6895TIP3    H242245   1.503   4.034   0.836 -0.8768  0.0058  1.1212
 6896TIP3   OH242246   2.827   5.663   2.105  0.2128 -0.0310  0.4215
 6896TIP3    H142247   2.905   5.718   2.109 -0.3994  0.8124  1.1935
 6896TIP3    H242248   2.797   5.659   2.196  0.0120 -1.3175  0.3143
 6897TIP3   OH242249   2.573   2.013   8.511  0.1604  0.0907 -0.5857
 6897TIP3    H142250   2.526   2.030   8.592  0.8746 -1.0558  0.0976
 6897TIP3    H242251   2.659   2.052   8.524  0.3158 -0.1922 -0.7532
 6898TIP3   OH242252   2.547   6.435   1.488 -0.0660 -0.2963  0.5374
 6898TIP3    H142253   2.595   6.513   1.459 -0.5535  0.1301  0.8586
 6898TIP3    H242254   2.456   6.464   1.493 -0.9099 -1.7963 -2.8432
 6899TIP3   OH242255   5.134   1.662   0.278  0.4033  0.2239  0.1310
 6899TIP3    H142256   5.191   1.585   0.281  1.8939  1.2779 -0.2327
 6899TIP3    H242257   5.082   1.649   0.198  1.0689 -0.1105 -0.2581
 6900TIP3   OH242258   0.684   0.171   6.908 -0.2209 -0.2954  0.0456
 6900TIP3    H142259   0.677   0.263   6.882  2.0163 -0.2533 -0.6031
 6900TIP3    H242260   0.684   0.174   7.004 -1.1485  0.2697  0.0408
 6901TIP3   OH242261   1.021   6.486   0.852 -0.5776 -0.1472 -0.4199
 6901TIP3    H142262   0.951   6.471   0.787  0.1057  2.4219 -1.8972
 6901TIP3    H242263   0.981   6.545   0.916 -0.3131 -0.1661 -0.2381
 6902TIP3   OH242264   2.735   5.427   1.936  0.0067  0.1945 -0.1148
 6902TIP3    H142265   2.651   5.411   1.979  0.4617 -1.1149  0.3547
 6902TIP3    H242266   2.780   5.489   1.993 -0.4186  0.4644 -0.0709
 6903TIP3   OH242267   0.484   5.255   0.424 -0.1230 -0.2873  0.7294
 6903TIP3    H142268   0.393   5.268   0.453 -0.3082  2.4114 -0.6492
 6903TIP3    H242269   0.490   5.162   0.405 -2.9186 -0.4334  0.0164
 6904TIP3   OH242270   6.139   4.164   7.434  0.5660 -0.1400  0.1323
 6904TIP3    H142271   6.136   4.257   7.411 -0.8960 -0.6733 -2.1674
 6904TIP3    H242272   6.182   4.122   7.360  0.7018 -1.3890  0.8868
 6905TIP3   OH242273   1.687   5.696   0.889 -0.4452 -0.1160 -0.2465
 6905TIP3    H142274   1.762   5.663   0.840  1.2022  2.0434  0.6340
 6905TIP3    H242275   1.673   5.784   0.855  0.3002  1.1790  2.4998
 6906TIP3   OH242276   0.682   4.170   8.062  0.3300  0.1655 -0.1445
 6906TIP3    H142277   0.589   4.158   8.045 -0.0020  2.0378  0.1030
 6906TIP3    H242278   0.719   4.189   7.976  0.1645  1.1136 -0.0163
 6907TIP3   OH242279   5.047   5.418   6.828  0.2955  0.1329 -0.5517
 6907TIP3    H142280   4.986   5.461   6.768 -0.1665  1.8032  0.9908
 6907TIP3    H242281   5.133   5.431   6.790 -0.1281 -0.4881 -1.7593
 6908TIP3   OH242282   1.234   3.518   7.206 -0.4101 -0.2289  0.0033
 6908TIP3    H142283   1.239   3.608   7.173  1.8991  0.1426  1.1970
 6908TIP3    H242284   1.160   3.519   7.267 -1.2261  0.4824 -0.9563
 6909TIP3   OH242285   0.863   2.258   0.308 -0.6937  0.1589 -0.1856
 6909TIP3    H142286   0.919   2.253   0.386 -0.5988 -0.7705 -0.3000
 6909TIP3    H242287   0.830   2.169   0.297 -1.3408  0.4654 -0.7510
 6910TIP3   OH242288   2.621   4.798   1.168 -0.3537  0.6022  0.0754
 6910TIP3    H142289   2.561   4.748   1.222 -0.5419  1.2016  0.4381
 6910TIP3    H242290   2.564   4.849   1.110 -0.1474 -1.0872 -1.7143
 6911TIP3   OH242291   4.187   4.571   1.004 -0.2697 -0.2993 -0.2267
 6911TIP3    H142292   4.104   4.537   1.037  1.1938 -1.8845  2.0996
 6911TIP3    H242293   4.222   4.623   1.076  1.9083 -1.7642 -0.1459
 6912TIP3   OH242294   5.665   5.995   0.375  0.9138  0.1166 -0.0447
 6912TIP3    H142295   5.701   6.070   0.327  1.4077 -1.1234 -1.6874
 6912TIP3    H242296   5.657   5.926   0.310 -0.8588 -0.8693  1.1190
 6913TIP3   OH242297   3.400   5.661   6.518  0.5215 -0.6848 -0.0782
 6913TIP3    H142298   3.394   5.726   6.588  1.7950 -0.2798 -0.3217
 6913TIP3    H242299   3.400   5.577   6.563  0.6248 -0.4529  0.3659
 6914TIP3   OH242300   0.065   4.867   0.641  0.6370 -0.0837 -0.1924
 6914TIP3    H142301   0.084   4.820   0.722 -1.3009 -0.9948 -0.2089
 6914TIP3    H242302   0.146   4.914   0.621  1.4939 -0.6469  1.7100
 6915TIP3   OH242303   3.106   3.940   7.963 -0.2323 -0.1032 -0.3821
 6915TIP3    H142304   3.060   3.922   7.880 -0.7425 -0.4822 -0.0221
 6915TIP3    H242305   3.187   3.983   7.936 -0.4754 -0.0567 -1.0730
 6916TIP3   OH242306   6.736   5.770   6.374 -0.2531  0.1976 -0.4831
 6916TIP3    H142307   6.707   5.855   6.342 -0.2333  0.9965  1.4894
 6916TIP3    H242308   6.830   5.768   6.355 -0.1025  0.9610  0.1279
 6917TIP3   OH242309   5.867   2.134   7.003  0.1801  0.1626 -0.0462
 6917TIP3    H142310   5.893   2.073   6.934 -1.2731 -0.7332  0.1631
 6917TIP3    H242311   5.934   2.124   7.070  0.3374 -0.6961 -0.3127
 6918TIP3   OH242312   0.350   1.372   6.328 -0.0818  0.6687  0.0831
 6918TIP3    H142313   0.322   1.460   6.354  2.1163  1.5922 -0.4426
 6918TIP3    H242314   0.423   1.352   6.385  1.0355  0.2386 -1.4294
 6919TIP3   OH242315   5.808   5.534   1.232  0.1923  0.1668 -0.0740
 6919TIP3    H142316   5.900   5.529   1.207  0.7103 -0.7142  1.8014
 6919TIP3    H242317   5.804   5.606   1.295 -0.7406  1.2701 -1.3488
 6920TIP3   OH242318   5.834   0.138   0.266 -0.3825 -0.2686 -0.3929
 6920TIP3    H142319   5.778   0.084   0.210  0.1663 -0.8110 -0.4260
 6920TIP3    H242320   5.830   0.225   0.226  0.8732 -0.8713 -1.9669
 6921TIP3   OH242321   4.729   1.965   1.074 -0.3661 -0.1834 -0.3236
 6921TIP3    H142322   4.703   1.906   1.003  0.1553 -0.0991 -0.5951
 6921TIP3    H242323   4.790   1.913   1.127  3.0907  1.1345 -2.6131
 6922TIP3   OH242324   4.338   1.695   6.869 -0.5233  0.0575  0.5034
 6922TIP3    H142325   4.284   1.626   6.907 -2.7826  0.7259 -1.2521
 6922TIP3    H242326   4.356   1.664   6.780 -0.3734  1.0878  0.1637
 6923TIP3   OH242327   4.074   4.635   0.454  0.1173 -0.8433 -0.3995
 6923TIP3    H142328   4.097   4.612   0.544 -0.6823 -2.2361 -0.5327
 6923TIP3    H242329   4.021   4.714   0.462  0.5397 -0.6238  0.2979
 6924TIP3   OH242330   1.704   0.288   1.630 -0.0414  0.3195  0.0419
 6924TIP3    H142331   1.744   0.263   1.714 -0.7775  0.6723  0.5081
 6924TIP3    H242332   1.668   0.375   1.646  1.1634  1.0748 -1.1071
 6925TIP3   OH242333   2.890   3.553   6.615 -0.4860  0.0174 -0.1663
 6925TIP3    H142334   2.946   3.596   6.679  0.1462 -1.7231  0.5287
 6925TIP3    H242335   2.945   3.484   6.578 -2.2529 -2.1261  0.9535
 6926TIP3   OH242336   5.431   3.901   1.560 -0.2030  0.1482  0.1741
 6926TIP3    H142337   5.352   3.847   1.555 -1.4380  1.9103 -0.4188
 6926TIP3    H242338   5.453   3.920   1.469  0.5413  0.2079  0.3587
 6927TIP3   OH242339   2.410   5.103   1.656  0.2021  0.0634 -0.2452
 6927TIP3    H142340   2.356   5.097   1.735 -0.9181  0.1957 -0.9782
 6927TIP3    H242341   2.496   5.133   1.688 -0.2048  0.0679  0.9145
 6928TIP3   OH242342   4.765   1.180   0.503 -0.1167  0.1798 -0.6554
 6928TIP3    H142343   4.829   1.165   0.573 -0.8275 -0.0274 -0.0373
 6928TIP3    H242344   4.767   1.275   0.490  0.1645  0.1996 -0.4905
 6929TIP3   OH242345   2.912   1.497   2.005  0.2211  0.2410 -0.1952
 6929TIP3    H142346   2.959   1.539   2.077 -3.3939  1.7203  1.5741
 6929TIP3    H242347   2.924   1.555   1.930  1.7104  0.1841 -0.0291
 6930TIP3   OH242348   5.263   3.538   6.740 -0.2064 -0.4436 -0.0493
 6930TIP3    H142349   5.297   3.623   6.711  1.4869 -1.4403 -1.2640
 6930TIP3    H242350   5.182   3.526   6.690 -0.4380  0.4327  0.1046
 6931TIP3   OH242351   1.855   1.728   0.276  0.0932  0.5388 -0.1055
 6931TIP3    H142352   1.872   1.779   0.356  0.2831 -1.4190  1.1526
 6931TIP3    H242353   1.770   1.760   0.245  0.0835  1.4363  0.7956
 6932TIP3   OH242354   4.526   2.300   7.458  0.5831  0.0154 -0.3149
 6932TIP3    H142355   4.586   2.336   7.393  2.2356 -0.4080  0.9030
 6932TIP3    H242356   4.574   2.306   7.540  0.8344 -4.4804  0.0976
 6933TIP3   OH242357   3.465   5.168   8.145 -0.1522 -0.0721 -0.1144
 6933TIP3    H142358   3.409   5.116   8.202 -1.7173  1.2255 -0.4007
 6933TIP3    H242359   3.424   5.163   8.059  0.4557  0.5159 -0.4505
 6934TIP3   OH242360   6.205   3.508   0.579 -0.3755 -0.2925 -0.0851
 6934TIP3    H142361   6.258   3.464   0.512  1.6726  1.7066  0.1084
 6934TIP3    H242362   6.200   3.444   0.651 -1.2043 -1.8222 -1.4378
 6935TIP3   OH242363   2.365   0.714   0.777  0.1031 -0.0089  0.7727
 6935TIP3    H142364   2.460   0.708   0.776  0.1356  0.2677 -1.4105
 6935TIP3    H242365   2.340   0.729   0.686 -2.0514 -0.2724  1.2536
 6936TIP3   OH242366   6.039   4.468   7.747  0.6236  0.1354  0.2025
 6936TIP3    H142367   5.987   4.543   7.718  0.5000  0.5163  1.3436
 6936TIP3    H242368   6.130   4.496   7.733  0.5568  0.0756 -0.3618
 6937TIP3   OH242369   4.052   1.824   0.980  0.1240  0.7309  0.0505
 6937TIP3    H142370   3.992   1.875   0.927  0.6681  0.2371 -1.0890
 6937TIP3    H242371   4.059   1.740   0.934 -0.6847 -0.3769  1.8064
 6938TIP3   OH242372   0.808   6.136   7.600  0.3987 -0.5787 -0.7028
 6938TIP3    H142373   0.864   6.089   7.539  0.6641 -0.2832 -0.6852
 6938TIP3    H242374   0.868   6.181   7.660  0.2016  1.1069 -1.7000
 6939TIP3   OH242375   5.587   0.999   6.291  0.7078  0.5849 -0.1766
 6939TIP3    H142376   5.650   1.009   6.220  0.3139 -1.5114 -0.8924
 6939TIP3    H242377   5.505   0.976   6.248  0.2107  0.2727  0.9011
 6940TIP3   OH242378   0.782   1.187   0.851  0.3327  0.5423  0.1084
 6940TIP3    H142379   0.843   1.127   0.894  0.8150  0.9914  0.0504
 6940TIP3    H242380   0.793   1.170   0.757  0.6545  0.8964  0.0798
 6941TIP3   OH242381   5.907   2.226   1.734  0.7319 -0.6749  0.3752
 6941TIP3    H142382   5.933   2.135   1.724  1.0966 -0.7935  2.0803
 6941TIP3    H242383   5.863   2.230   1.820 -1.4856  0.2821 -0.7142
 6942TIP3   OH242384   2.204   5.174   1.229  0.2734  0.7723  0.8654
 6942TIP3    H142385   2.293   5.172   1.194 -0.0156  1.5291  0.0583
 6942TIP3    H242386   2.152   5.124   1.167  0.0045  0.9491  0.9452
 6943TIP3   OH242387   0.726   0.048   7.637  0.2273  0.1219  0.1571
 6943TIP3    H142388   0.785   0.114   7.600  1.4494 -0.5285  0.8914
 6943TIP3    H242389   0.743   0.050   7.731 -3.0242  1.9553  0.8871
 6944TIP3   OH242390   3.918   1.070   7.489 -0.2097 -0.3216  0.0037
 6944TIP3    H142391   3.863   1.129   7.438 -1.7015 -1.5427  0.1372
 6944TIP3    H242392   3.991   1.048   7.431 -0.3655  0.5583 -0.5316
 6945TIP3   OH242393   1.335   1.697   0.273  0.5256 -0.1831  0.1085
 6945TIP3    H142394   1.325   1.638   0.198  0.1553 -0.5961  0.4778
 6945TIP3    H242395   1.246   1.716   0.300  0.5792  1.5812 -0.7831
 6946TIP3   OH242396   2.443   3.365   0.020  0.3395 -0.0107  0.0816
 6946TIP3    H142397   2.370   3.410   0.063  1.3608  2.3426 -0.4978
 6946TIP3    H242398   2.443   3.278   0.059 -1.0617  0.8099  2.1261
 6947TIP3   OH242399   0.131   1.858   8.672 -0.0472 -0.2342 -0.2528
 6947TIP3    H142400   0.180   1.862   8.590 -1.8998 -1.4758 -1.4749
 6947TIP3    H242401   0.067   1.929   8.667 -0.9997 -1.0911 -0.4685
 6948TIP3   OH242402   1.217   1.861   1.542 -1.0006 -0.0413  0.2427
 6948TIP3    H142403   1.283   1.793   1.529 -2.0040 -0.9941 -0.0037
 6948TIP3    H242404   1.225   1.883   1.635 -0.8535 -0.7066  0.4006
 6949TIP3   OH242405   0.818   0.790   7.742  0.4091  0.0024  0.3036
 6949TIP3    H142406   0.770   0.864   7.704  0.5424 -0.2641 -0.3916
 6949TIP3    H242407   0.860   0.827   7.820 -0.6900  0.3065  0.7702
 6950TIP3   OH242408   3.393   3.188   8.312  0.6510  0.1605  0.1148
 6950TIP3    H142409   3.478   3.224   8.286  1.2713  0.1595  1.9892
 6950TIP3    H242410   3.363   3.245   8.382 -1.1613  0.4490 -0.8424
 6951TIP3   OH242411   3.825   2.192   7.501  0.8891 -0.5948  0.1177
 6951TIP3    H142412   3.830   2.097   7.501  0.4342 -0.6195  0.2379
 6951TIP3    H242413   3.897   2.220   7.444  0.9208 -1.0140 -0.0491
 6952TIP3   OH242414   6.643   5.365   0.130  0.3980 -0.1394  0.3195
 6952TIP3    H142415   6.668   5.314   0.207  0.2065 -2.0809 -0.8245
 6952TIP3    H242416   6.705   5.337   0.062 -0.4556  0.2721 -0.6531
 6953TIP3   OH242417   4.148   3.345   1.145 -0.0347 -0.1345  0.3573
 6953TIP3    H142418   4.226   3.295   1.123 -0.2416 -0.0234 -0.6648
 6953TIP3    H242419   4.106   3.363   1.061 -0.1368  1.4771  0.7243
 6954TIP3   OH242420   5.114   4.123   1.332 -0.0384 -0.1188  0.0798
 6954TIP3    H142421   5.178   4.164   1.273  0.8967  1.0922  1.8354
 6954TIP3    H242422   5.030   4.136   1.289  0.6452  0.4152 -1.1499
 6955TIP3   OH242423   5.009   1.714   7.863 -0.3051  0.0867  0.8450
 6955TIP3    H142424   5.005   1.798   7.818  3.0512 -0.0875 -0.0156
 6955TIP3    H242425   5.027   1.736   7.954 -1.4394  0.3168  1.0216
 6956TIP3   OH242426   1.315   4.962   8.807 -0.1340  0.3029 -0.1568
 6956TIP3    H142427   1.220   4.972   8.796 -0.3800 -1.2534  0.2062
 6956TIP3    H242428   1.324   4.905   8.883  1.1957  2.2584  1.2429
 6957TIP3   OH242429   2.883   1.725   1.295 -0.7289 -0.1656  0.2604
 6957TIP3    H142430   2.799   1.684   1.318  0.6471 -2.1433  2.1612
 6957TIP3    H242431   2.862   1.818   1.284 -2.9944 -0.4081  1.8105
 6958TIP3   OH242432   1.407   6.747   7.638 -0.0316  0.4161  0.2156
 6958TIP3    H142433   1.405   6.841   7.616  2.2296  0.4601 -0.0562
 6958TIP3    H242434   1.369   6.743   7.726 -1.1019  1.4284 -0.1627
 6959TIP3   OH242435   0.589   0.528   0.912  0.6490 -0.3985  0.6680
 6959TIP3    H142436   0.666   0.484   0.874  1.4758  1.8387 -0.4245
 6959TIP3    H242437   0.612   0.620   0.913 -1.9614  0.3429  0.4855
 6960TIP3   OH242438   5.426   1.209   6.979  0.4403 -0.1178 -0.0673
 6960TIP3    H142439   5.500   1.222   7.040  0.6411 -0.1870 -0.2944
 6960TIP3    H242440   5.457   1.245   6.896  0.4545 -0.7178 -0.3246
 6961TIP3   OH242441   4.047   5.703   6.125 -0.0786 -0.2526  0.8255
 6961TIP3    H142442   4.135   5.663   6.128 -0.6062 -1.4158  1.7212
 6961TIP3    H242443   3.991   5.633   6.092 -0.4881  0.8947 -1.0505
 6962TIP3   OH242444   2.355   4.732   7.704  0.1924  0.1218 -0.2259
 6962TIP3    H142445   2.328   4.794   7.772 -2.3571 -1.1409  0.0605
 6962TIP3    H242446   2.329   4.774   7.622 -0.5579 -0.0834 -0.1030
 6963TIP3   OH242447   0.546   6.304   1.436 -0.3174  0.0532 -0.1120
 6963TIP3    H142448   0.499   6.279   1.516 -2.0228  0.2273 -1.0328
 6963TIP3    H242449   0.483   6.353   1.384  1.4545  2.0104 -0.5818
 6964TIP3   OH242450   1.343   3.127   8.562 -0.2293  0.0784  0.1352
 6964TIP3    H142451   1.303   3.130   8.475  0.9696  0.1697 -0.4321
 6964TIP3    H242452   1.343   3.218   8.592 -2.8967 -0.2435  1.3269
 6965TIP3   OH242453   2.142   1.932   7.852 -0.1678 -0.5153 -0.2232
 6965TIP3    H142454   2.104   2.014   7.821  0.4424  0.2405  0.9719
 6965TIP3    H242455   2.225   1.957   7.891 -0.3199 -1.5974  0.8494
 6966TIP3   OH242456   1.122   6.749   7.160  0.8031  0.2149  0.2830
 6966TIP3    H142457   1.132   6.812   7.231 -1.0546  1.3580 -0.4145
 6966TIP3    H242458   1.158   6.668   7.195 -0.8456  0.5111  2.8813
 6967TIP3   OH242459   0.005   5.235   8.221  0.0299 -0.9363 -0.0219
 6967TIP3    H142460  -0.080   5.192   8.229 -1.0248  0.8918 -0.6154
 6967TIP3    H242461   0.058   5.174   8.170 -1.4693 -1.4395 -1.0632
 6968TIP3   OH242462   5.011   4.475   1.481 -0.7289  0.0321 -0.0247
 6968TIP3    H142463   4.957   4.519   1.547 -2.2422 -0.9503 -0.5643
 6968TIP3    H242464   5.090   4.528   1.476 -1.8782  1.8712  0.3712
 6969TIP3   OH242465   3.311   3.987   0.133 -0.1782  0.4649  0.2595
 6969TIP3    H142466   3.292   3.979   0.226  0.7044  1.4852  0.5412
 6969TIP3    H242467   3.237   3.944   0.090 -0.5726 -0.0556  1.4218
 6970TIP3   OH242468   5.093   6.386   8.138  0.5916  0.2048 -0.3285
 6970TIP3    H142469   5.154   6.444   8.092 -0.8876  2.5688  0.4852
 6970TIP3    H242470   5.114   6.397   8.231 -0.8249  0.8922 -0.0493
 6971TIP3   OH242471   2.077   0.864   8.330  0.4071 -0.3437 -0.1961
 6971TIP3    H142472   2.012   0.806   8.369  0.2054 -0.1570 -0.2532
 6971TIP3    H242473   2.069   0.849   8.236  2.1441 -2.1515 -0.1254
 6972TIP3   OH242474   4.930   3.864   1.233 -0.0267  0.2080  0.1731
 6972TIP3    H142475   4.879   3.943   1.219  0.7981  0.8700  0.8297
 6972TIP3    H242476   4.920   3.845   1.326  0.2889 -0.1102  0.1451
 6973TIP3   OH242477   1.725   6.425   1.252  0.1696  0.0535 -0.1273
 6973TIP3    H142478   1.745   6.479   1.176 -0.2181  2.1935  1.2126
 6973TIP3    H242479   1.758   6.338   1.229  0.9229  0.8559 -2.3287
 6974TIP3   OH242480   0.955   3.438   8.190  0.1951 -0.1956 -0.3199
 6974TIP3    H142481   0.962   3.441   8.095  1.1356 -0.1219 -0.2569
 6974TIP3    H242482   0.976   3.347   8.213 -1.5315 -0.6284 -0.2706
 6975TIP3   OH242483   2.810   1.285   0.786  0.5611  0.2835 -0.5353
 6975TIP3    H142484   2.884   1.325   0.739 -1.7611  2.5920 -2.5353
 6975TIP3    H242485   2.768   1.229   0.721  0.3741 -0.8330  0.5201
 6976TIP3   OH242486   5.321   3.150   7.022 -0.9865 -0.2613 -0.2209
 6976TIP3    H142487   5.298   3.161   6.930 -1.2540 -0.2543 -0.1538
 6976TIP3    H242488   5.247   3.187   7.070 -0.8396 -0.2491 -0.0031
 6977TIP3   OH242489   2.406   5.508   0.056  0.1613  0.1864 -0.1439
 6977TIP3    H142490   2.341   5.575   0.037  0.2402  0.5368  0.7612
 6977TIP3    H242491   2.490   5.550   0.038  0.2199  0.4081  0.6044
 6978TIP3   OH242492   3.595   5.649   7.235 -0.1275  0.1275  0.2622
 6978TIP3    H142493   3.600   5.641   7.140 -1.5142 -0.9537  0.2442
 6978TIP3    H242494   3.510   5.611   7.258 -0.7115  2.1559  1.7409
 6979TIP3   OH242495   3.118   5.226   6.361 -0.7923 -0.2619  0.3077
 6979TIP3    H142496   3.033   5.197   6.394 -1.2620 -0.3352 -0.9185
 6979TIP3    H242497   3.099   5.306   6.313  0.1338  0.7840  1.5980
 6980TIP3   OH242498   0.066   1.180   1.358  0.0613  0.0648 -0.3726
 6980TIP3    H142499   0.129   1.153   1.291  0.6799  0.0293  0.2163
 6980TIP3    H242500   0.010   1.104   1.371  1.9673 -1.1188  1.4937
 6981TIP3   OH242501   0.239   4.039   0.718 -0.1499  0.0107 -0.5650
 6981TIP3    H142502   0.311   4.089   0.757  1.8870 -3.5640  0.7024
 6981TIP3    H242503   0.195   3.998   0.792 -1.8153 -0.0467 -1.5340
 6982TIP3   OH242504   0.422   2.191   0.592  0.6218 -0.3738 -0.8256
 6982TIP3    H142505   0.380   2.132   0.654  1.1699 -1.2579 -1.2828
 6982TIP3    H242506   0.385   2.167   0.507  0.1763  0.5567 -0.9044
 6983TIP3   OH242507   6.133   0.652   1.423  0.1233 -0.3378  0.5336
 6983TIP3    H142508   6.175   0.664   1.338  1.2245  0.6263  1.1857
 6983TIP3    H242509   6.040   0.647   1.403  0.4116 -0.9650 -0.8054
 6984TIP3   OH242510   4.383   4.968   6.090 -0.8193  0.2307 -0.1900
 6984TIP3    H142511   4.453   5.033   6.099 -1.9860  1.8002 -1.8853
 6984TIP3    H242512   4.302   5.019   6.091 -1.8371 -1.3078 -0.6154
 6985TIP3   OH242513   3.732   1.658   7.766 -0.6044  0.3704 -0.2962
 6985TIP3    H142514   3.702   1.740   7.805  1.7576  1.5619 -0.8282
 6985TIP3    H242515   3.722   1.671   7.672 -0.5801 -0.0957 -0.3640
 6986TIP3   OH242516   0.946   3.292   1.539  0.9101  0.0077 -0.3234
 6986TIP3    H142517   0.883   3.364   1.535  1.4204  0.4138 -1.9626
 6986TIP3    H242518   1.001   3.304   1.461  0.4568 -2.6510 -1.1753
 6987TIP3   OH242519   0.023   2.578   0.778 -0.2403  0.5867  0.0240
 6987TIP3    H142520  -0.066   2.592   0.811 -0.6735  2.2908 -1.6999
 6987TIP3    H242521   0.071   2.544   0.854 -1.9347  1.2974  1.4906
 6988TIP3   OH242522   3.062   4.573   8.397 -0.1679  0.2952  0.5615
 6988TIP3    H142523   2.998   4.633   8.437  0.1387  0.7006  0.4495
 6988TIP3    H242524   3.067   4.601   8.306 -2.2577 -1.7892 -0.3028
 6989TIP3   OH242525   6.565   1.491   6.998  0.1682  0.1262  0.2484
 6989TIP3    H142526   6.517   1.438   7.061  0.4188  0.0576  0.3863
 6989TIP3    H242527   6.653   1.499   7.036  0.5528 -0.5530 -0.4431
 6990TIP3   OH242528   0.234   0.909   0.709  0.2671 -0.5633  0.4121
 6990TIP3    H142529   0.145   0.879   0.693 -0.9907  2.0725  1.9071
 6990TIP3    H242530   0.262   0.947   0.626 -1.1820  1.2447  0.7065
 6991TIP3   OH242531   0.657   2.691   1.525  0.4181  0.0685  0.1298
 6991TIP3    H142532   0.644   2.782   1.551  0.2255 -0.2324  1.1292
 6991TIP3    H242533   0.573   2.649   1.540  0.6663 -0.4002  0.2306
 6992TIP3   OH242534   5.198   6.426   7.602 -0.4409  0.4375 -0.1225
 6992TIP3    H142535   5.220   6.333   7.604  1.4877  0.8629  0.6161
 6992TIP3    H242536   5.204   6.451   7.510 -1.8193 -0.3136 -0.4452
 6993TIP3   OH242537   3.724   5.783   1.810 -0.1337 -0.3485 -0.3444
 6993TIP3    H142538   3.699   5.693   1.830  0.2748 -0.1712  1.0126
 6993TIP3    H242539   3.747   5.822   1.894  2.6087  0.1283 -1.1873
 6994TIP3   OH242540   0.641   2.344   7.728  0.7575  0.3043 -0.0848
 6994TIP3    H142541   0.582   2.414   7.753  0.3781 -0.2474  0.5924
 6994TIP3    H242542   0.715   2.351   7.788  0.4179 -0.2663  0.4102
 6995TIP3   OH242543   3.611   1.103   7.022 -0.0641  0.6785  0.3851
 6995TIP3    H142544   3.597   1.031   7.084 -0.1949  0.1445 -0.2586
 6995TIP3    H242545   3.571   1.073   6.940  0.0177  1.4202  0.0637
 6996TIP3   OH242546   3.647   2.638   1.698 -0.0928 -0.0168  0.0187
 6996TIP3    H142547   3.670   2.669   1.611  1.6081  0.8335  0.7365
 6996TIP3    H242548   3.555   2.664   1.710 -0.2430  0.1392 -1.3742
 6997TIP3   OH242549   3.290   5.351   6.914  0.2146 -0.0304 -0.1174
 6997TIP3    H142550   3.358   5.403   6.957 -0.1494 -0.1208  0.5817
 6997TIP3    H242551   3.334   5.269   6.891  0.1008 -0.4945  1.2441
 6998TIP3   OH242552   2.566   3.344   1.165 -0.1696 -0.8316 -0.6525
 6998TIP3    H142553   2.523   3.354   1.250  0.1542  1.3191 -0.6833
 6998TIP3    H242554   2.518   3.274   1.122 -1.5655 -0.6681  0.5636
 6999TIP3   OH242555   2.030   6.749   8.791  0.4581  0.2518  0.2466
 6999TIP3    H142556   2.008   6.660   8.818 -0.3495  0.7986  1.4580
 6999TIP3    H242557   2.080   6.785   8.865 -1.2126  1.5515  0.7892
 7000TIP3   OH242558   6.689   0.981   7.383  0.3973  0.2684 -0.5597
 7000TIP3    H142559   6.618   1.021   7.433  0.1124 -1.2311  0.2955
 7000TIP3    H242560   6.659   0.986   7.292 -0.6869 -0.0758 -0.2405
 7001TIP3   OH242561   0.372   0.291   7.388  0.5662 -0.2316  0.2086
 7001TIP3    H142562   0.303   0.286   7.323 -0.3362 -0.1886  1.1378
 7001TIP3    H242563   0.423   0.368   7.364  0.1738 -0.1518 -0.3767
 7002TIP3   OH242564   2.432   0.958   8.035  0.3297 -0.2264 -0.1205
 7002TIP3    H142565   2.440   1.053   8.020  0.0087 -0.2694 -0.6137
 7002TIP3    H242566   2.342   0.938   8.007  0.5958 -0.7770 -0.5894
 7003TIP3   OH242567   1.290   6.607   1.654  0.2913  0.2135 -0.3303
 7003TIP3    H142568   1.366   6.570   1.699 -0.6951  0.4028  1.5848
 7003TIP3    H242569   1.302   6.701   1.659 -1.2149  0.3689  2.2751
 7004TIP3   OH242570   2.995   2.404   0.142  0.0638 -0.1302 -0.6348
 7004TIP3    H142571   2.988   2.491   0.180 -1.3421 -0.3730 -0.2964
 7004TIP3    H242572   2.905   2.372   0.138  0.5374 -1.4852 -0.9536
 7005TIP3   OH242573   6.664   3.401   0.421  0.0207 -0.2460  0.1199
 7005TIP3    H142574   6.730   3.424   0.486  0.8135  0.9832 -1.0651
 7005TIP3    H242575   6.652   3.306   0.432  0.6474 -0.1926  1.5454
 7006TIP3   OH242576   5.925   6.017   7.550 -0.5664 -0.0100  0.2868
 7006TIP3    H142577   5.980   6.037   7.626  2.7561 -3.0358 -1.0232
 7006TIP3    H242578   5.952   6.079   7.483  1.0621 -1.1597 -0.1878
 7007TIP3   OH242579   5.958   4.645   6.753  0.2270 -0.0217 -0.0638
 7007TIP3    H142580   5.974   4.585   6.825  0.8274  0.4944  0.2466
 7007TIP3    H242581   5.882   4.609   6.707  0.3897 -0.8335  0.2965
 7008TIP3   OH242582   5.210   5.055   1.780 -0.0296 -0.2030 -0.0027
 7008TIP3    H142583   5.182   5.105   1.703  1.5918  0.2320 -0.3479
 7008TIP3    H242584   5.242   5.122   1.841  0.9221 -0.6998  0.0693
 7009TIP3   OH242585   0.212   6.795   0.069  0.0360  0.3449  0.1137
 7009TIP3    H142586   0.284   6.760   0.016 -1.6241 -2.3567 -0.5655
 7009TIP3    H242587   0.249   6.804   0.157  1.4662  0.0194 -0.4232
 7010TIP3   OH242588   2.680   5.395   2.381  0.9036 -0.5832 -0.4177
 7010TIP3    H142589   2.737   5.331   2.423 -0.4478 -1.1639  0.5878
 7010TIP3    H242590   2.619   5.422   2.449  1.1442  1.4496 -0.9525
 7011TIP3   OH242591   3.973   6.656   1.060 -0.4660  0.0126 -0.5265
 7011TIP3    H142592   3.878   6.658   1.063 -0.4364  1.7503  0.2481
 7011TIP3    H242593   3.995   6.671   0.968 -0.9326 -0.8258 -0.7791
 7012TIP3   OH242594   4.111   0.858   6.555  0.5162 -0.5512 -0.3406
 7012TIP3    H142595   4.076   0.795   6.618  0.2492  0.0769  0.1625
 7012TIP3    H242596   4.143   0.930   6.610 -0.9124  0.6056 -0.9702
 7013TIP3   OH242597   5.885   4.364   8.575 -0.2680 -0.3081  0.0731
 7013TIP3    H142598   5.806   4.376   8.522  0.2760  0.5510 -0.5832
 7013TIP3    H242599   5.944   4.432   8.544  0.2124 -0.0297  1.5499
 7014TIP3   OH242600   3.677   1.181   6.163  0.0474  0.4831  0.4856
 7014TIP3    H142601   3.689   1.142   6.076  0.3331 -2.2807  1.6565
 7014TIP3    H242602   3.766   1.192   6.196 -0.0286  2.3103  0.1671
 7015TIP3   OH242603   0.537   3.631   7.046 -0.5389 -0.2503  0.6864
 7015TIP3    H142604   0.462   3.605   6.992 -0.8026 -0.3602  1.0985
 7015TIP3    H242605   0.567   3.549   7.085 -0.9378 -0.0435  1.4431
 7016TIP3   OH242606   5.457   6.237   8.363 -0.4273 -0.3402  0.2647
 7016TIP3    H142607   5.543   6.265   8.397 -1.0503  0.1581  1.4948
 7016TIP3    H242608   5.401   6.314   8.375 -0.7726 -0.2734 -1.6179
 7017TIP3   OH242609   5.763   6.485   0.062  0.2530  0.1763 -0.3730
 7017TIP3    H142610   5.822   6.496   0.137 -0.1153  1.2474 -0.2192
 7017TIP3    H242611   5.810   6.426   0.003  1.4515  0.9228 -0.2081
 7018TIP3   OH242612   3.019   0.334   8.068 -0.5538  0.5638 -0.2291
 7018TIP3    H142613   2.979   0.405   8.118  0.8475 -0.1982  2.1056
 7018TIP3    H242614   3.003   0.256   8.121  0.5642 -0.3803 -1.2405
 7019TIP3   OH242615   4.192   3.333   7.288  0.0475  0.2440 -0.0896
 7019TIP3    H142616   4.142   3.324   7.207 -1.4319  2.1038  0.5480
 7019TIP3    H242617   4.284   3.327   7.261 -0.3875 -3.0058 -1.3315
 7020TIP3   OH242618   4.122   6.165   8.529 -0.3657  0.6314 -0.1866
 7020TIP3    H142619   4.151   6.245   8.572 -0.6277  0.5534  0.1441
 7020TIP3    H242620   4.027   6.170   8.531 -0.3824  0.3452 -0.2249
 7021TIP3   OH242621   5.910   3.429   0.837 -0.2481  0.3353 -0.4207
 7021TIP3    H142622   5.889   3.515   0.873 -2.2346  0.1975 -1.1151
 7021TIP3    H242623   6.005   3.420   0.849 -0.2092  2.0403  0.8670
 7022TIP3   OH242624   2.914   6.330   1.072 -0.3397 -0.2467  0.2115
 7022TIP3    H142625   2.967   6.407   1.092  1.3979 -0.8066 -1.9643
 7022TIP3    H242626   2.885   6.343   0.982 -0.9279 -1.6505  0.1696
 7023TIP3   OH242627   1.861   5.855   8.378  0.3404 -0.8088 -0.2790
 7023TIP3    H142628   1.930   5.902   8.425 -0.5201  0.2129  0.0100
 7023TIP3    H242629   1.908   5.805   8.311  1.2984  0.6639 -0.7801
 7024TIP3   OH242630   1.318   3.646   0.803 -0.6122  0.4353  0.0985
 7024TIP3    H142631   1.404   3.619   0.772 -0.4149  0.3141  0.7537
 7024TIP3    H242632   1.298   3.724   0.752  0.2285  0.9185  0.4932
 7025TIP3   OH242633   3.223   3.295   5.976  0.1328 -0.5300 -0.0169
 7025TIP3    H142634   3.229   3.389   5.993 -0.7858 -0.7919  2.0480
 7025TIP3    H242635   3.304   3.274   5.930  1.4198  0.8768  1.5057
 7026TIP3   OH242636   0.421   5.478   6.333  0.3076 -0.2757  0.1529
 7026TIP3    H142637   0.506   5.464   6.374 -0.1885 -1.0063  0.9722
 7026TIP3    H242638   0.407   5.401   6.278  0.2082 -0.1289 -0.0289
 7027TIP3   OH242639   6.510   2.980   1.612  0.2058  0.0226  0.1331
 7027TIP3    H142640   6.491   2.892   1.578  0.7746 -0.0861  0.0964
 7027TIP3    H242641   6.425   3.012   1.643 -0.1845 -0.1696 -0.7014
 7028TIP3   OH242642   5.788   1.477   1.960  0.6687 -0.4361 -0.4209
 7028TIP3    H142643   5.726   1.417   2.000  1.7739 -0.1132  1.9163
 7028TIP3    H242644   5.740   1.560   1.954  0.7330 -0.2628  1.0944
 7029TIP3   OH242645   5.602   3.301   0.029  0.4743 -0.2066  0.6162
 7029TIP3    H142646   5.659   3.372  -0.001  1.3652 -0.8374  0.8039
 7029TIP3    H242647   5.600   3.239  -0.044 -0.4234  0.0698  0.3939
 7030TIP3   OH242648   2.135   4.101   0.015  0.9585  0.2477  0.5294
 7030TIP3    H142649   2.046   4.086  -0.016  1.1135 -0.5436  0.4608
 7030TIP3    H242650   2.123   4.137   0.103  0.5435  1.7231 -0.0963
 7031TIP3   OH242651   3.303   5.490   0.151  0.0400  0.1439 -0.4474
 7031TIP3    H142652   3.383   5.541   0.155 -0.6469  1.2311 -0.2447
 7031TIP3    H242653   3.322   5.421   0.087  1.1674  0.2963 -0.3010
 7032TIP3   OH242654   5.112   0.029   1.605 -0.6404 -0.0118  0.4044
 7032TIP3    H142655   5.071   0.048   1.689  2.2817  0.5077  1.8450
 7032TIP3    H242656   5.111   0.112   1.558  0.9595  0.6784  1.5099
 7033TIP3   OH242657   0.197   5.344   1.135 -0.2458  0.6951  0.3899
 7033TIP3    H142658   0.158   5.397   1.205 -1.5199  1.6069 -0.9457
 7033TIP3    H242659   0.141   5.267   1.128  2.5896 -1.9727  3.5361
 7034TIP3   OH242660   3.505   1.873   0.039 -0.3573 -0.4089  0.0908
 7034TIP3    H142661   3.537   1.844  -0.046 -1.6617 -0.6572 -0.3243
 7034TIP3    H242662   3.516   1.968   0.037 -0.5662 -0.3969 -0.4221
 7035TIP3   OH242663   4.395   5.553   6.882 -0.9810 -0.2165 -0.1373
 7035TIP3    H142664   4.479   5.581   6.919 -1.9929  1.6766  0.8587
 7035TIP3    H242665   4.398   5.581   6.791  0.4232 -2.4296 -0.8448
 7036TIP3   OH242666   4.218   5.183   7.713 -0.2966 -0.0955  0.3547
 7036TIP3    H142667   4.126   5.154   7.711 -0.3427  0.0331  0.5695
 7036TIP3    H242668   4.244   5.186   7.621 -0.1984 -1.1005  0.3404
 7037TIP3   OH242669   1.476   5.343   7.505  0.0501 -0.2646 -0.3359
 7037TIP3    H142670   1.483   5.249   7.518  0.2555 -0.1064  0.8384
 7037TIP3    H242671   1.564   5.370   7.477  0.3544 -0.2632  0.5699
 7038TIP3   OH242672   1.889   0.095   2.159 -0.4950  0.2608 -0.2078
 7038TIP3    H142673   1.959   0.035   2.183 -0.2094  0.1984 -1.1417
 7038TIP3    H242674   1.842   0.111   2.240  0.5221  0.2000  0.4095
 7039TIP3   OH242675   4.218   2.443   0.028  0.2430  0.8807  0.0128
 7039TIP3    H142676   4.212   2.501  -0.048  0.3061  0.3565 -0.3997
 7039TIP3    H242677   4.308   2.411   0.026 -0.9723 -3.0459 -2.6680
 7040TIP3   OH242678   0.947   1.006   7.531 -0.0676  0.7622 -0.0818
 7040TIP3    H142679   1.017   1.004   7.598 -0.2727 -1.4767  0.1245
 7040TIP3    H242680   0.963   1.088   7.484  3.0328  0.1414 -0.3676
 7041TIP3   OH242681   4.036   5.184   8.435  0.2644  0.4044 -0.0366
 7041TIP3    H142682   4.118   5.198   8.387  0.3133  0.5035  0.0722
 7041TIP3    H242683   4.005   5.099   8.406  0.3356  0.4277 -0.1819
 7042TIP3   OH242684   0.415   3.545   2.121  0.4797  0.5188  0.1519
 7042TIP3    H142685   0.490   3.485   2.123 -0.1088 -0.2915 -0.8262
 7042TIP3    H242686   0.453   3.632   2.124  1.4984  0.1278 -0.8029
 7043TIP3   OH242687   4.903   2.591   0.425  0.2216 -0.3737 -0.2346
 7043TIP3    H142688   4.966   2.612   0.356 -1.0784 -1.3739 -1.7950
 7043TIP3    H242689   4.888   2.497   0.416 -0.0155 -0.5404  1.4328
 7044TIP3   OH242690   6.319   5.869   7.425  0.4572  0.6307  0.2667
 7044TIP3    H142691   6.408   5.864   7.390  1.3946  1.8602  2.2629
 7044TIP3    H242692   6.277   5.938   7.375 -0.4673 -1.8608 -2.6982
 7045TIP3   OH242693   2.305   3.765   2.146 -0.1378 -0.0633  0.3262
 7045TIP3    H142694   2.394   3.732   2.134 -0.3404 -0.8434  0.8805
 7045TIP3    H242695   2.252   3.717   2.082 -0.6778 -1.9392  2.0549
 7046TIP3   OH242696   1.565   4.929   8.424 -0.0820  0.0376 -0.0599
 7046TIP3    H142697   1.503   4.857   8.436  0.6788 -0.6687 -0.2725
 7046TIP3    H242698   1.649   4.893   8.452  0.3470  0.7793 -0.3755
 7047TIP3   OH242699   6.205   5.289   0.632  0.2266 -0.0184 -0.0172
 7047TIP3    H142700   6.217   5.376   0.670  0.0371 -0.5754  1.3820
 7047TIP3    H242701   6.195   5.305   0.538 -1.5985  1.6559  0.3833
 7048TIP3   OH242702   4.244   3.690   6.381  0.4838  0.3144  0.1446
 7048TIP3    H142703   4.250   3.784   6.364  1.3831  0.1170 -0.7561
 7048TIP3    H242704   4.251   3.683   6.476 -0.1468  1.1899  0.2677
 7049TIP3   OH242705   3.809   5.043   8.628  0.1519 -0.1162 -0.3492
 7049TIP3    H142706   3.877   5.029   8.561  0.9987 -0.2005  0.5054
 7049TIP3    H242707   3.838   5.120   8.676 -0.3845 -0.1293  0.0039
 7050TIP3   OH242708   2.104   5.774   0.552  0.8356  0.3937  0.7596
 7050TIP3    H142709   2.117   5.781   0.457 -0.1975  0.7811  0.6381
 7050TIP3    H242710   2.070   5.686   0.565 -1.4786  1.1801  0.4496
 7051TIP3   OH242711   5.911   5.840   8.142  0.4116 -0.1242 -0.5110
 7051TIP3    H142712   5.846   5.909   8.133  1.3823  0.8695 -0.1070
 7051TIP3    H242713   5.964   5.847   8.063  1.3059  0.4613  0.1233
 7052TIP3   OH242714   0.109   1.715   7.579 -0.4442 -0.2863 -0.0442
 7052TIP3    H142715   0.185   1.742   7.529 -0.7451  0.9995  0.1474
 7052TIP3    H242716   0.142   1.646   7.638  0.3827 -0.2825 -0.4874
 7053TIP3   OH242717   1.307   6.516   7.505  0.1336  0.4817 -0.8020
 7053TIP3    H142718   1.335   6.601   7.538 -0.3948  0.5577 -0.5454
 7053TIP3    H242719   1.212   6.522   7.499 -0.2561 -1.0980  2.1687
 7054TIP3   OH242720   1.114   0.335   1.503  0.6770  0.4959  0.1961
 7054TIP3    H142721   1.093   0.344   1.595  0.0971 -1.1083  0.2432
 7054TIP3    H242722   1.058   0.264   1.471  0.7847  1.0811 -1.4139
 7055TIP3   OH242723   6.628   4.744   8.275  0.2097 -0.0857  0.0147
 7055TIP3    H142724   6.588   4.707   8.353  1.3752 -1.4085  0.0182
 7055TIP3    H242725   6.569   4.719   8.204  0.5264 -1.2151  0.1345
 7056TIP3   OH242726   3.702   5.168   7.504 -0.1321  0.4125 -0.2423
 7056TIP3    H142727   3.637   5.234   7.528 -3.0520 -1.4182 -2.4499
 7056TIP3    H242728   3.656   5.084   7.513  1.7665 -0.9813 -2.3417
 7057TIP3   OH242729   4.902   1.074   7.693 -0.5244  0.0333  0.3874
 7057TIP3    H142730   4.883   1.000   7.750 -0.3268 -0.4150 -0.1289
 7057TIP3    H242731   4.816   1.102   7.660 -0.5618 -0.1876  0.3008
 7058TIP3   OH242732   4.622   3.133   7.399  0.5333 -0.0733  0.1684
 7058TIP3    H142733   4.652   3.063   7.342  0.7324 -0.4768  0.7563
 7058TIP3    H242734   4.602   3.206   7.340  1.6373 -0.1622 -0.3388
 7059TIP3   OH242735   3.015   5.575   0.784  0.0795 -0.1276  0.4281
 7059TIP3    H142736   3.040   5.659   0.747  0.6056  0.9531  3.0338
 7059TIP3    H242737   2.924   5.563   0.758  0.4029  0.5293 -1.1316
 7060TIP3   OH242738   2.239   6.730   7.208 -0.7063 -0.1577 -0.5804
 7060TIP3    H142739   2.302   6.729   7.136  0.2949  0.4365  0.2630
 7060TIP3    H242740   2.265   6.658   7.264 -0.3911  0.4757  0.0939
 7061TIP3   OH242741   6.776   5.376   6.233  0.4421 -0.7416 -0.5723
 7061TIP3    H142742   6.704   5.322   6.265  1.3789 -1.9205 -0.3636
 7061TIP3    H242743   6.737   5.462   6.216 -0.8670 -1.1768  0.1250
 7062TIP3   OH242744   1.523   4.793   0.137 -0.4327  0.2564  0.4192
 7062TIP3    H142745   1.554   4.870   0.186 -0.2738  0.4676 -0.0124
 7062TIP3    H242746   1.537   4.720   0.197  0.5434  0.4026  0.3791
 7063TIP3   OH242747   2.147   2.668   7.889  0.2007  0.7344 -0.6554
 7063TIP3    H142748   2.168   2.759   7.866  1.4840  0.5372 -0.3789
 7063TIP3    H242749   2.104   2.633   7.811 -1.2839  1.8599 -0.3953
 7064TIP3   OH242750   5.332   3.728   8.370 -0.3268  0.1476 -0.1215
 7064TIP3    H142751   5.393   3.711   8.299 -0.1428  1.9063 -0.4382
 7064TIP3    H242752   5.255   3.675   8.349 -0.0597  0.2196 -1.3492
 7065TIP3   OH242753   5.405   1.893   0.043 -0.0620  0.0536  0.4554
 7065TIP3    H142754   5.416   1.806   0.083 -2.1975 -0.8412 -0.7163
 7065TIP3    H242755   5.319   1.922   0.072  0.1756  1.3224 -0.0433
 7066TIP3   OH242756   4.420   6.568   0.162 -0.2572 -0.3760 -0.1144
 7066TIP3    H142757   4.335   6.569   0.206 -1.0134 -0.3815 -1.5308
 7066TIP3    H242758   4.447   6.660   0.161 -0.4891 -0.3070 -0.1090
 7067TIP3   OH242759   3.150   5.043   7.241  0.6330  0.5387 -0.0350
 7067TIP3    H142760   3.233   5.036   7.193  0.9976 -0.6266  0.7403
 7067TIP3    H242761   3.121   5.133   7.224  0.6140  0.1376 -2.6185
 7068TIP3   OH242762   4.647   6.270   6.883  0.8369  0.1061  0.0943
 7068TIP3    H142763   4.594   6.211   6.830  0.9741  0.5917 -0.5962
 7068TIP3    H242764   4.729   6.278   6.835  0.6133  1.3004 -0.1222
 7069TIP3   OH242765   6.023   2.941   7.586  0.6772 -0.3121 -0.1079
 7069TIP3    H142766   6.054   3.016   7.536  3.2604  0.8084  2.8831
 7069TIP3    H242767   6.102   2.891   7.606 -0.7814 -2.9970 -0.5724
 7070TIP3   OH242768   2.705   0.558   7.068  0.4110  0.2412  0.2843
 7070TIP3    H142769   2.728   0.650   7.055 -0.3520  0.7126  2.0159
 7070TIP3    H242770   2.766   0.528   7.135 -0.9703  0.2424  1.6030
 7071TIP3   OH242771   6.751   2.564   7.238  0.7915 -0.1850  0.1198
 7071TIP3    H142772   6.696   2.506   7.291 -3.2828  1.8196 -1.4320
 7071TIP3    H242773   6.808   2.505   7.188 -1.5608 -2.7408  0.1938
 7072TIP3   OH242774   5.279   1.449   7.063  0.5090 -0.2181  0.3113
 7072TIP3    H142775   5.256   1.516   7.127 -1.0672  0.5448 -0.9666
 7072TIP3    H242776   5.317   1.498   6.990  1.3498 -0.9586  0.2390
 7073LIG     C142777   3.066   4.090   4.101  0.3114 -0.0765 -0.4788
 7073LIG     C242778   3.095   4.228   4.049  0.2522 -0.9555 -0.5520
 7073LIG     C342779   3.009   4.253   3.930 -0.0027 -0.6504  0.2704
 7073LIG      O42780   3.234   4.241   4.028  0.4704  0.2291  0.2142
 7073LIG     H142781   3.090   4.001   4.039 -0.1476 -0.8587  0.4377
 7073LIG     H242782   2.957   4.078   4.122  0.3837 -4.4274 -1.6460
 7073LIG     H342783   3.112   4.080   4.202 -1.0708  1.3550  0.3346
 7073LIG     H442784   3.062   4.303   4.123 -0.1425 -1.5653 -0.0965
 7073LIG     H542785   2.907   4.217   3.956 -1.0650  2.2502  0.5067
 7073LIG     H642786   3.025   4.187   3.842 -0.0847 -1.2390  0.6970
 7073LIG     H742787   3.027   4.359   3.899  2.8474 -0.4508  2.1452
 7073LIG     H842788   3.284   4.206   4.102  1.9359  1.3114 -0.2269
   6.80096   6.80096   8.85083
